CNT in water
33518
    1C        C    1   2.848   2.771   4.738  0.7028  0.5142 -0.0609
    1C        C    2   2.896   2.713   4.857 -0.0963  0.0691  0.0539
    1C        C    3   2.844   2.765   4.976  0.0732 -0.1548  0.2236
    1C        C    4   2.852   2.775   4.256 -0.4519  0.7651 -0.3098
    1C        C    5   2.904   2.726   4.377 -0.5656  0.2477 -0.4668
    1C        C    6   2.847   2.769   4.499  0.5599 -0.0692  0.1856
    1C        C    7   3.013   2.632   4.619  0.5760  0.0009 -0.2101
    1C        C    8   2.899   2.715   4.619  0.3609 -0.2969  0.1687
    1C        C    9   3.077   2.599   4.740  0.4100  1.0920  0.1867
    1C        C   10   3.009   2.629   4.860 -0.0230  0.1759  0.1818
    1C        C   11   3.179   2.487   4.975 -0.0970 -0.6579 -0.2662
    1C        C   12   3.059   2.558   4.971  0.1277 -0.2715 -0.1708
    1C        C   13   2.846   2.767   3.766  0.2631  0.4458  0.0782
    1C        C   14   2.901   2.723   3.888  0.3404  0.3576  0.0091
    1C        C   15   2.852   2.776   4.009  0.7949  0.4577  0.1476
    1C        C   16   3.016   2.644   4.132  0.5293  0.3066  0.0289
    1C        C   17   2.909   2.737   4.132  0.3064  0.0521  0.2509
    1C        C   18   3.077   2.607   4.253  0.2274  0.1650  0.1375
    1C        C   19   3.016   2.641   4.376 -0.5831  0.2215 -0.2758
    1C        C   20   3.206   2.545   4.498 -0.3459 -0.4436  0.1345
    1C        C   21   3.075   2.597   4.497 -0.2201 -0.1301 -0.5793
    1C        C   22   3.275   2.521   4.619 -0.1971 -0.7404 -0.0118
    1C        C   23   3.207   2.541   4.741  0.1863  0.5839 -0.0080
    1C        C   24   3.410   2.485   4.863  0.0001  0.2470  0.1757
    1C        C   25   3.267   2.499   4.863 -0.0502 -0.2816 -0.1885
    1C        C   26   3.486   2.470   4.980 -0.2705 -0.1962  0.2961
    1C        C   27   2.844   2.765   3.279  0.4526  0.1061  0.2624
    1C        C   28   2.900   2.718   3.400  0.0288 -0.6817  0.1523
    1C        C   29   2.852   2.769   3.523  0.3666  0.0545 -0.0196
    1C        C   30   3.011   2.630   3.643 -0.1744 -0.3112 -0.2728
    1C        C   31   2.900   2.717   3.645  0.5002  0.5577  0.1403
    1C        C   32   3.072   2.597   3.766 -0.0938  0.2942 -0.1490
    1C        C   33   3.013   2.638   3.888  0.3819  0.4178  0.0362
    1C        C   34   3.205   2.550   4.010  0.2368 -0.0079  0.2540
    1C        C   35   3.073   2.601   4.010  0.2736  0.0810 -0.0118
    1C        C   36   3.273   2.527   4.131  0.2508  0.0722  0.2568
    1C        C   37   3.206   2.549   4.254  0.2683  0.2599  0.2294
    1C        C   38   3.412   2.495   4.375 -0.0594 -0.4986  0.4207
    1C        C   39   3.275   2.529   4.375  0.1219  0.2392  0.3053
    1C        C   40   3.483   2.493   4.497  0.1396 -0.4338  0.3025
    1C        C   41   3.414   2.496   4.620 -0.0010  0.3422  0.2031
    1C        C   42   3.626   2.479   4.739 -0.0237 -0.4312  0.2926
    1C        C   43   3.484   2.482   4.742 -0.0156  0.0296  0.1735
    1C        C   44   3.699   2.480   4.860  0.1136  0.1037  0.2079
    1C        C   45   3.625   2.462   4.977 -0.2600  0.0857 -0.0290
    1C        C   46   2.835   2.751   2.787 -0.3709 -0.1890  0.2114
    1C        C   47   2.891   2.709   2.910  0.1793  0.2425  0.1073
    1C        C   48   2.840   2.756   3.032  0.3975  0.1365  0.2371
    1C        C   49   3.017   2.646   3.155 -0.1273 -0.6811 -0.1706
    1C        C   50   2.899   2.724   3.156  0.0316 -0.4489  0.2603
    1C        C   51   3.079   2.607   3.276 -0.1742 -0.7118 -0.1597
    1C        C   52   3.020   2.644   3.399  0.2397 -0.3324 -0.0727
    1C        C   53   3.206   2.547   3.523  0.3370  0.0755  0.4004
    1C        C   54   3.075   2.599   3.521  0.1387 -0.4447 -0.0728
    1C        C   55   3.273   2.523   3.645  0.0513  0.0628  0.5521
    1C        C   56   3.203   2.545   3.765 -0.3491 -0.3643  0.3915
    1C        C   57   3.411   2.509   3.888 -0.0071 -0.0966  0.1537
    1C        C   58   3.271   2.526   3.887 -0.0552 -0.5152  0.2015
    1C        C   59   3.481   2.492   4.009  0.3170 -0.2899 -0.0648
    1C        C   60   3.411   2.498   4.131  0.1191 -0.5393 -0.1699
    1C        C   61   3.623   2.491   4.253 -0.4611 -0.2092  0.0941
    1C        C   62   3.482   2.487   4.253 -0.4540 -0.3240  0.1852
    1C        C   63   3.696   2.498   4.373 -0.1819 -0.0157 -0.0894
    1C        C   64   3.624   2.493   4.495  0.1343 -0.9145  0.0603
    1C        C   65   3.828   2.539   4.616 -0.4959  0.4408  0.1688
    1C        C   66   3.695   2.492   4.616 -0.1328 -0.6089  0.2158
    1C        C   67   3.895   2.563   4.738  0.1143 -0.2087 -0.0347
    1C        C   68   3.834   2.523   4.859  0.1193  0.0822  0.0646
    1C        C   69   4.048   2.576   4.971  0.0415  0.0870  0.2923
    1C        C   70   3.917   2.526   4.971  0.2820 -0.5544 -0.0310
    1C        C   71   2.821   2.730   2.302  0.1952  0.0844 -0.3435
    1C        C   72   2.879   2.690   2.425 -0.4001  0.1012 -0.0554
    1C        C   73   2.829   2.745   2.545  0.1812 -0.0311  0.2480
    1C        C   74   3.006   2.625   2.665 -0.2675 -0.4331 -0.1741
    1C        C   75   2.890   2.705   2.666 -0.1322 -0.2389  0.3392
    1C        C   76   3.068   2.590   2.787 -0.1658 -0.2264 -0.1684
    1C        C   77   3.010   2.633   2.909 -0.2368 -0.4071 -0.1404
    1C        C   78   3.202   2.549   3.033 -0.3311 -0.9066  0.2984
    1C        C   79   3.072   2.604   3.032 -0.2580 -0.7403 -0.2066
    1C        C   80   3.272   2.532   3.154 -0.3965 -0.7656  0.3548
    1C        C   81   3.208   2.549   3.279 -0.1364 -0.5972  0.4636
    1C        C   82   3.411   2.499   3.400  0.2392 -0.0237  0.2207
    1C        C   83   3.271   2.518   3.401  0.2306 -0.1195  0.3943
    1C        C   84   3.484   2.496   3.521  0.3082 -0.4910  0.1655
    1C        C   85   3.413   2.501   3.643 -0.0384 -0.4512 -0.0398
    1C        C   86   3.622   2.494   3.765 -0.2320 -0.9571  0.0055
    1C        C   87   3.481   2.494   3.766 -0.2296 -0.3901  0.0647
    1C        C   88   3.692   2.507   3.887 -0.0758 -0.8358 -0.0993
    1C        C   89   3.622   2.497   4.009  0.3247 -0.5571  0.1500
    1C        C   90   3.830   2.538   4.128 -0.0267 -0.3872 -0.1021
    1C        C   91   3.694   2.502   4.131 -0.0105 -0.4137  0.3376
    1C        C   92   3.896   2.563   4.251 -0.3289  0.3308 -0.0876
    1C        C   93   3.833   2.534   4.374 -0.1991  0.0378 -0.0939
    1C        C   94   4.020   2.632   4.495 -0.5627  0.0544  0.1885
    1C        C   95   3.899   2.559   4.496 -0.5014 -0.0437  0.0846
    1C        C   96   4.075   2.678   4.616  0.0436  0.2128 -0.1436
    1C        C   97   4.020   2.631   4.738  0.0169 -0.0360 -0.2515
    1C        C   98   4.177   2.768   4.858 -0.4344 -0.0450 -0.3831
    1C        C   99   4.089   2.656   4.859 -0.5035  0.0135  0.0377
    1C        C  100   4.204   2.841   4.974  0.0756 -0.2210 -0.3874
    1C        C  101   2.817   2.730   2.066 -0.2159  0.0633 -0.4535
    1C        C  102   2.985   2.586   2.186 -0.0244  0.1180 -0.1018
    1C        C  103   2.873   2.675   2.182  0.2616  0.4622 -0.4922
    1C        C  104   3.058   2.569   2.307 -0.2506 -0.0848  0.0102
    1C        C  105   3.002   2.621   2.426 -0.3774  0.1398 -0.1463
    1C        C  106   3.200   2.534   2.547 -0.3762 -0.3984 -0.2314
    1C        C  107   3.067   2.583   2.545 -0.2809 -0.1346 -0.2856
    1C        C  108   3.268   2.517   2.669 -0.4416 -0.6891 -0.2359
    1C        C  109   3.202   2.545   2.791 -0.2673 -0.5248 -0.1780
    1C        C  110   3.406   2.488   2.911 -0.4610 -0.1552  0.0466
    1C        C  111   3.269   2.519   2.912 -0.4430 -0.0718  0.0181
    1C        C  112   3.478   2.484   3.032 -0.2312  0.0147 -0.0828
    1C        C  113   3.410   2.501   3.154 -0.2880 -0.2833 -0.0725
    1C        C  114   3.619   2.483   3.276 -0.2460  0.1056 -0.2590
    1C        C  115   3.478   2.487   3.276 -0.2448  0.0808 -0.0539
    1C        C  116   3.693   2.492   3.396  0.0244 -0.1950 -0.4010
    1C        C  117   3.625   2.494   3.520  0.3024 -0.5721 -0.2420
    1C        C  118   3.829   2.538   3.642 -0.5471  0.1546  0.1593
    1C        C  119   3.693   2.498   3.643 -0.1539 -1.2664  0.0412
    1C        C  120   3.899   2.556   3.764 -0.0186  0.1698 -0.1430
    1C        C  121   3.830   2.537   3.886 -0.2023 -0.2551 -0.3124
    1C        C  122   4.020   2.632   4.008 -0.6213  0.1154  0.2478
    1C        C  123   3.898   2.562   4.007 -0.1600 -0.7077 -0.2399
    1C        C  124   4.079   2.675   4.129  0.0743  0.0957 -0.0780
    1C        C  125   4.019   2.633   4.249 -0.4906  0.6127 -0.1780
    1C        C  126   4.185   2.762   4.372 -0.3903 -0.3581 -0.0132
    1C        C  127   4.077   2.671   4.372 -0.6905 -0.0053  0.1120
    1C        C  128   4.229   2.819   4.493 -0.3129  0.0464 -0.2319
    1C        C  129   4.179   2.773   4.617 -0.3977  0.6944 -0.0248
    1C        C  130   4.319   2.934   4.735 -0.0034  0.2756 -0.4553
    1C        C  131   4.234   2.820   4.738 -0.0403  0.3148 -0.0431
    1C        C  132   4.349   3.000   4.856 -0.5392 -0.0189 -0.1587
    1C        C  133   4.278   2.959   4.969 -0.0196 -0.1378  0.1233
    1C        C  134   3.167   2.461   2.079  0.0280 -0.0302 -0.7019
    1C        C  135   3.033   2.502   2.081 -0.1012 -0.4666  0.3201
    1C        C  136   3.254   2.472   2.188 -0.5488  0.2352 -0.2602
    1C        C  137   3.190   2.515   2.306 -0.4161 -0.4962  0.0840
    1C        C  138   3.400   2.470   2.426  0.0119 -0.0411  0.1921
    1C        C  139   3.262   2.500   2.426 -0.0225 -0.1863 -0.1113
    1C        C  140   3.475   2.469   2.545 -0.0341 -0.4162  0.2207
    1C        C  141   3.405   2.483   2.667 -0.3208 -0.2346  0.0359
    1C        C  142   3.618   2.491   2.789 -0.4146  0.0016  0.0248
    1C        C  143   3.477   2.482   2.788 -0.4010 -0.2104  0.0840
    1C        C  144   3.688   2.494   2.911 -0.0358 -0.7860 -0.1697
    1C        C  145   3.620   2.485   3.034 -0.2203 -0.5156 -0.2529
    1C        C  146   3.829   2.525   3.152 -0.0071 -0.9013 -0.2025
    1C        C  147   3.691   2.493   3.155 -0.2719  0.2107 -0.2653
    1C        C  148   3.893   2.555   3.274 -0.5460  0.0755 -0.1481
    1C        C  149   3.830   2.528   3.397 -0.0722  0.1670  0.1176
    1C        C  150   4.017   2.627   3.519 -0.1761 -0.3675 -0.0154
    1C        C  151   3.896   2.556   3.519 -0.1268 -0.4577  0.2910
    1C        C  152   4.081   2.661   3.640 -0.4876  0.2558 -0.0205
    1C        C  153   4.025   2.620   3.763  0.0250  0.0933  0.1679
    1C        C  154   4.184   2.761   3.880 -1.0231  0.9084  0.3088
    1C        C  155   4.081   2.665   3.884 -0.6546  0.5087  0.3343
    1C        C  156   4.226   2.820   4.001 -0.6845  0.7778  0.2556
    1C        C  157   4.181   2.773   4.126 -0.0231  0.2074  0.2886
    1C        C  158   4.323   2.925   4.247 -0.0868  0.1356 -0.3970
    1C        C  159   4.231   2.818   4.251 -0.0937  0.1609  0.3333
    1C        C  160   4.363   2.984   4.369 -0.9099  0.6162 -0.3527
    1C        C  161   4.318   2.929   4.491 -1.1016  0.6924 -0.3882
    1C        C  162   4.423   3.116   4.611 -0.0786  0.3027  0.2162
    1C        C  163   4.356   2.992   4.612 -0.4184  0.4775 -0.4831
    1C        C  164   4.456   3.183   4.731 -0.3295  0.0603  0.4190
    1C        C  165   4.426   3.118   4.853 -0.2884 -0.1711  0.3083
    1C        C  166   4.502   3.318   4.964 -0.3458 -0.1755 -0.0123
    1C        C  167   4.468   3.183   4.970 -0.2500 -0.1875  0.3017
    1C        C  168   3.468   2.432   2.069  0.0386  0.3004  0.4920
    1C        C  169   3.395   2.458   2.186 -0.6444 -0.8659  0.3325
    1C        C  170   3.613   2.475   2.303 -0.2357 -0.1801  0.3315
    1C        C  171   3.472   2.462   2.304 -0.2383 -0.2035  0.0545
    1C        C  172   3.688   2.483   2.423 -0.0234 -0.2723  0.2073
    1C        C  173   3.616   2.480   2.545 -0.0434 -0.2852  0.1959
    1C        C  174   3.823   2.537   2.664 -0.0307 -0.3295  0.2446
    1C        C  175   3.686   2.502   2.665 -0.1264  0.0385  0.1868
    1C        C  176   3.892   2.554   2.786  0.1982 -0.3769  0.1229
    1C        C  177   3.825   2.530   2.908 -0.2205 -0.0486 -0.0383
    1C        C  178   4.019   2.615   3.028  0.0506 -0.2785 -0.0659
    1C        C  179   3.895   2.547   3.029 -0.1165  0.0160 -0.1061
    1C        C  180   4.079   2.652   3.150 -0.6550  0.3119  0.1079
    1C        C  181   4.017   2.622   3.273 -0.4551 -0.0847  0.1152
    1C        C  182   4.187   2.747   3.393 -0.4484  0.2789  0.1594
    1C        C  183   4.077   2.659   3.395 -0.4653  0.2906  0.0106
    1C        C  184   4.238   2.802   3.513 -0.3909  0.6044 -0.0064
    1C        C  185   4.188   2.754   3.636 -0.5361  0.3106 -0.1745
    1C        C  186   4.327   2.914   3.759 -0.4250 -0.2486 -0.2592
    1C        C  187   4.239   2.805   3.758 -0.9635  0.1765  0.0647
    1C        C  188   4.364   2.980   3.878 -0.6479  0.7344 -0.7185
    1C        C  189   4.318   2.927   4.001 -0.2846  0.4429 -0.7046
    1C        C  190   4.426   3.105   4.122 -1.0170  0.4323  0.0679
    1C        C  191   4.366   2.977   4.123 -0.4448  0.1506 -0.5190
    1C        C  192   4.458   3.171   4.243 -0.4406 -0.0397  0.1797
    1C        C  193   4.431   3.108   4.366 -0.4687  0.3979  0.4011
    1C        C  194   4.497   3.311   4.486 -0.0952  0.4794 -0.0525
    1C        C  195   4.454   3.176   4.487 -0.2226  0.5210  0.2848
    1C        C  196   4.512   3.386   4.605 -0.7208  0.2547  0.1717
    1C        C  197   4.494   3.319   4.728 -0.5074  0.1048  0.1224
    1C        C  198   4.542   3.535   4.842 -0.1410  0.0087  0.1383
    1C        C  199   4.513   3.394   4.847  0.0234 -0.0256  0.1210
    1C        C  200   4.580   3.617   4.952 -0.1387  0.0657  0.0942
    1C        C  201   3.608   2.424   2.067  0.0360  0.3403 -0.0791
    1C        C  202   3.818   2.519   2.177 -0.4014  0.3266  0.3517
    1C        C  203   3.683   2.472   2.179  0.0198 -0.9164  0.4897
    1C        C  204   3.892   2.541   2.297 -0.2331  0.2540  0.2615
    1C        C  205   3.823   2.524   2.419 -0.1551  0.1766  0.2946
    1C        C  206   4.015   2.614   2.541 -0.0394  0.0744 -0.1056
    1C        C  207   3.888   2.552   2.540 -0.1228  0.2363  0.2626
    1C        C  208   4.079   2.653   2.661  0.2380 -0.2878 -0.1337
    1C        C  209   4.018   2.616   2.783  0.0882 -0.1622 -0.1684
    1C        C  210   4.187   2.744   2.904 -0.4079  0.2877  0.0826
    1C        C  211   4.078   2.654   2.906 -0.1501 -0.0351 -0.0888
    1C        C  212   4.239   2.794   3.026 -0.3864  0.0123  0.1913
    1C        C  213   4.187   2.742   3.146 -0.5913  0.2443  0.2070
    1C        C  214   4.315   2.910   3.268 -0.2671  0.0290 -0.4320
    1C        C  215   4.237   2.793   3.269 -0.1286 -0.0668  0.1543
    1C        C  216   4.357   2.972   3.388 -0.6358  0.5888 -0.5823
    1C        C  217   4.318   2.918   3.512 -0.7023  0.8227 -0.4967
    1C        C  218   4.423   3.101   3.633 -0.4916  0.0138  0.2308
    1C        C  219   4.360   2.974   3.635 -0.6553  0.0841 -0.1642
    1C        C  220   4.454   3.169   3.753 -0.6819  0.4456  0.0420
    1C        C  221   4.426   3.107   3.877 -0.4978  0.6815  0.2048
    1C        C  222   4.496   3.305   4.000  0.2604  0.3804 -0.0131
    1C        C  223   4.451   3.171   4.000 -1.0837  0.8146  0.2587
    1C        C  224   4.504   3.378   4.120  0.2510  0.0272  0.2033
    1C        C  225   4.491   3.309   4.242 -0.3400 -0.0632  0.0893
    1C        C  226   4.515   3.520   4.359  0.3683  0.2655  0.3040
    1C        C  227   4.506   3.380   4.363  0.1408  0.2642 -0.1582
    1C        C  228   4.504   3.593   4.480 -0.0594  0.1168  0.3590
    1C        C  229   4.522   3.527   4.603  0.2209  0.1988  0.3625
    1C        C  230   4.493   3.743   4.722  0.3727  0.2698  0.0198
    1C        C  231   4.529   3.606   4.720  0.6263  0.3338  0.2453
    1C        C  232   4.490   3.818   4.841  0.3318  0.2877  0.0063
    1C        C  233   4.534   3.750   4.956 -0.7696 -0.1510  0.1783
    1C        C  234   4.017   2.604   2.057 -0.4360  0.4705 -0.2675
    1C        C  235   3.888   2.553   2.060 -0.2037 -0.0951  0.3453
    1C        C  236   4.083   2.640   2.175 -0.5687  0.4362 -0.1834
    1C        C  237   4.019   2.604   2.296 -0.4461  0.6794 -0.0465
    1C        C  238   4.188   2.734   2.418 -0.2365  0.5238 -0.2722
    1C        C  239   4.074   2.649   2.418 -0.4270  0.7806 -0.0945
    1C        C  240   4.242   2.786   2.538 -0.4139  0.2780 -0.0864
    1C        C  241   4.190   2.740   2.661  0.1812 -0.2147 -0.0205
    1C        C  242   4.325   2.904   2.782 -0.5212  0.2675  0.4088
    1C        C  243   4.239   2.792   2.782 -0.3341  0.1226  0.0464
    1C        C  244   4.369   2.961   2.904 -0.4580  0.6725  0.1976
    1C        C  245   4.329   2.902   3.025 -0.8146  0.3765 -0.0587
    1C        C  246   4.431   3.089   3.147 -0.0052  0.3106  0.4649
    1C        C  247   4.359   2.968   3.147 -0.1532  0.3930 -0.2213
    1C        C  248   4.460   3.159   3.267 -0.2926  0.8404  0.2335
    1C        C  249   4.424   3.096   3.388 -0.1213  0.3206  0.0212
    1C        C  250   4.484   3.300   3.509  0.3117 -0.1809 -0.0015
    1C        C  251   4.443   3.165   3.509 -0.8683  0.1601  0.2393
    1C        C  252   4.501   3.372   3.629  0.2856  0.0947 -0.1564
    1C        C  253   4.497   3.303   3.753  0.3508  0.1262 -0.1333
    1C        C  254   4.512   3.511   3.871  0.2291  0.1364  0.0080
    1C        C  255   4.514   3.370   3.876  0.3462  0.1324 -0.1333
    1C        C  256   4.507   3.586   3.991  0.3605  0.1294  0.0203
    1C        C  257   4.510   3.519   4.115  0.2313  0.0210 -0.0333
    1C        C  258   4.491   3.730   4.233  1.0760  0.0408 -0.3449
    1C        C  259   4.516   3.591   4.237  0.0854 -0.1329  0.0673
    1C        C  260   4.467   3.797   4.354  0.4627 -0.3159 -0.2645
    1C        C  261   4.479   3.731   4.479 -0.4202  0.0473  0.0179
    1C        C  262   4.421   3.940   4.596  0.4628  0.2133 -0.5969
    1C        C  263   4.469   3.807   4.598  0.5367  0.2488 -0.0229
    1C        C  264   4.396   4.007   4.717  0.0009 -0.3205 -0.3945
    1C        C  265   4.428   3.945   4.840 -0.0818  0.0834 -0.1674
    1C        C  266   4.325   4.134   4.953  0.0835 -0.0561 -0.1925
    1C        C  267   4.390   4.011   4.957 -0.5177 -0.3694 -0.0516
    1C        C  268   4.257   2.769   2.062 -0.3538 -0.2047  0.0184
    1C        C  269   4.196   2.724   2.179 -0.4982  0.3260  0.1466
    1C        C  270   4.342   2.886   2.295 -0.1168  0.5726 -0.3450
    1C        C  271   4.248   2.779   2.299  0.1206  0.3746 -0.1447
    1C        C  272   4.373   2.952   2.416 -0.6442  0.0621  0.0706
    1C        C  273   4.331   2.896   2.539 -0.7386  0.5395  0.2576
    1C        C  274   4.436   3.082   2.655 -0.4637  0.1184  0.0261
    1C        C  275   4.369   2.958   2.660 -0.3970  0.0964  0.3788
    1C        C  276   4.463   3.148   2.777 -0.1529  0.0783 -0.0203
    1C        C  277   4.438   3.085   2.901 -0.0111  0.4284  0.1907
    1C        C  278   4.488   3.290   3.022  0.4459  0.0246 -0.1670
    1C        C  279   4.456   3.152   3.023 -0.0845  0.1439  0.3602
    1C        C  280   4.504   3.364   3.141  0.5592  0.0922 -0.2216
    1C        C  281   4.493   3.296   3.265  1.0935  0.5305  0.0759
    1C        C  282   4.519   3.508   3.383  0.7285  0.1929 -0.0420
    1C        C  283   4.505   3.367   3.386  1.0480  0.1631  0.3013
    1C        C  284   4.508   3.579   3.504  0.3978  0.3237 -0.1445
    1C        C  285   4.512   3.513   3.628  0.5967  0.0741 -0.2794
    1C        C  286   4.489   3.724   3.747  0.2292 -0.0639 -0.2362
    1C        C  287   4.508   3.584   3.750 -0.4941 -0.1650 -0.1600
    1C        C  288   4.472   3.795   3.867 -0.0094 -0.2718 -0.1428
    1C        C  289   4.488   3.726   3.989  0.4321  0.1422  0.0426
    1C        C  290   4.424   3.930   4.106  0.6157  0.3689 -0.0298
    1C        C  291   4.470   3.796   4.110  1.2431  0.5811 -0.0863
    1C        C  292   4.390   3.993   4.228  0.5288  0.0733  0.1014
    1C        C  293   4.414   3.928   4.351  0.9320 -0.1204 -0.0770
    1C        C  294   4.317   4.119   4.473  0.1752  0.1319 -0.2289
    1C        C  295   4.392   3.999   4.471  1.0690  0.6810 -0.5196
    1C        C  296   4.281   4.185   4.593 -0.0413 -0.2791 -0.0695
    1C        C  297   4.327   4.131   4.715  0.5741  0.0036 -0.1752
    1C        C  298   4.201   4.311   4.831  0.5164  0.3189 -0.3050
    1C        C  299   4.292   4.200   4.834 -0.2115 -0.2828 -0.2368
    1C        C  300   4.168   4.397   4.940 -0.2422  0.1351 -0.3883
    1C        C  301   4.343   2.879   2.056 -0.6345  0.0200  0.1466
    1C        C  302   4.465   3.063   2.171  0.5508  0.1248  0.0171
    1C        C  303   4.388   2.942   2.173  0.0808  0.4169 -0.3388
    1C        C  304   4.465   3.142   2.290  0.5051 -0.0808  0.1522
    1C        C  305   4.436   3.078   2.412  0.2016 -0.3638 -0.0692
    1C        C  306   4.503   3.282   2.532 -0.6178 -0.0001 -0.0891
    1C        C  307   4.464   3.146   2.532 -0.7143  0.0303 -0.0746
    1C        C  308   4.512   3.352   2.654 -0.3658  0.0010 -0.1120
    1C        C  309   4.493   3.286   2.778 -0.1446  0.0759 -0.0384
    1C        C  310   4.506   3.498   2.894 -0.2756  0.2003 -0.0132
    1C        C  311   4.505   3.357   2.899  0.0949  0.1899 -0.1279
    1C        C  312   4.505   3.573   3.014 -0.6812  0.2123 -0.0202
    1C        C  313   4.512   3.504   3.137 -0.0474  0.1362 -0.0928
    1C        C  314   4.485   3.714   3.260  0.2363  0.0986  0.0381
    1C        C  315   4.511   3.575   3.259  0.2833  0.1041 -0.0652
    1C        C  316   4.471   3.784   3.382  0.3053  0.3356 -0.0855
    1C        C  317   4.485   3.718   3.506  0.3169  0.3130 -0.0955
    1C        C  318   4.423   3.924   3.621  0.5350  0.5165 -0.0660
    1C        C  319   4.474   3.793   3.625 -0.3657  0.1509 -0.0477
    1C        C  320   4.387   3.986   3.743  0.5250  0.4598 -0.0368
    1C        C  321   4.420   3.927   3.867  0.4798 -0.0740 -0.2762
    1C        C  322   4.320   4.118   3.985  0.2702 -0.2443  0.1582
    1C        C  323   4.394   3.997   3.986  0.6297 -0.0325 -0.2645
    1C        C  324   4.275   4.172   4.108  0.7411  0.5870 -0.0220
    1C        C  325   4.315   4.112   4.229  0.5534  0.0936 -0.2004
    1C        C  326   4.177   4.276   4.350 -0.2541 -0.4232  0.0622
    1C        C  327   4.274   4.173   4.350  0.2724  0.0739 -0.2861
    1C        C  328   4.129   4.333   4.470 -0.1222 -0.3250  0.0655
    1C        C  329   4.185   4.288   4.591  0.2777  0.0224  0.0129
    1C        C  330   4.016   4.422   4.710  0.3004  0.4044 -0.1053
    1C        C  331   4.136   4.346   4.710  0.2787  0.3720 -0.1609
    1C        C  332   3.966   4.481   4.828 -0.1348  0.0162 -0.0978
    1C        C  333   4.051   4.474   4.939 -0.2127  0.1875 -0.0279
    1C        C  334   4.547   3.259   2.055 -0.7753 -0.0822  0.2494
    1C        C  335   4.525   3.120   2.055  0.1451 -0.2328 -0.3731
    1C        C  336   4.528   3.343   2.166 -0.0051  0.0637  0.2720
    1C        C  337   4.502   3.279   2.289  0.2403 -0.0111  0.2829
    1C        C  338   4.523   3.490   2.405 -0.3727  0.2041  0.0343
    1C        C  339   4.523   3.349   2.409  0.1895  0.2106  0.1602
    1C        C  340   4.517   3.562   2.526  0.6197  0.2458  0.0609
    1C        C  341   4.516   3.493   2.649  0.0708 -0.0103 -0.0876
    1C        C  342   4.481   3.704   2.768  0.7219  0.1395 -0.0441
    1C        C  343   4.505   3.565   2.770  0.0949  0.0286 -0.1102
    1C        C  344   4.462   3.774   2.889  0.6246  0.1953 -0.0925
    1C        C  345   4.482   3.712   3.014  0.5566  0.4330  0.0392
    1C        C  346   4.421   3.914   3.135  0.3814  0.2882 -0.1841
    1C        C  347   4.462   3.779   3.137  0.8894  0.4426  0.0900
    1C        C  348   4.393   3.980   3.256 -0.1168  0.2737 -0.2864
    1C        C  349   4.426   3.918   3.379 -0.1011  0.2014 -0.3239
    1C        C  350   4.322   4.108   3.494  0.1537  0.1014  0.0630
    1C        C  351   4.390   3.985   3.498  0.2694  0.1534 -0.1782
    1C        C  352   4.277   4.164   3.616  0.1968  0.1061  0.0799
    1C        C  353   4.317   4.108   3.739  0.0093  0.1726  0.1734
    1C        C  354   4.179   4.269   3.862  0.5493  0.3419  0.1337
    1C        C  355   4.280   4.171   3.861  0.3882  0.1707  0.2921
    1C        C  356   4.127   4.320   3.983 -0.0790  0.1797 -0.0653
    1C        C  357   4.176   4.272   4.106  0.1249 -0.0141 -0.2196
    1C        C  358   4.006   4.400   4.225 -0.2346 -0.9695  0.0973
    1C        C  359   4.125   4.324   4.228  0.2370 -0.2456 -0.0762
    1C        C  360   3.952   4.448   4.347  0.1386 -0.1041 -0.0774
    1C        C  361   4.017   4.418   4.469 -0.0046 -0.1731 -0.0221
    1C        C  362   3.823   4.510   4.589  0.0188 -0.3315 -0.0709
    1C        C  363   3.954   4.459   4.589  0.4069  0.6498 -0.0843
    1C        C  364   3.756   4.540   4.710 -0.2665 -0.2998 -0.2373
    1C        C  365   3.836   4.537   4.827 -0.1642 -0.0587 -0.3036
    1C        C  366   3.626   4.594   4.944 -0.1439 -0.3029  0.2853
    1C        C  367   3.763   4.570   4.942 -0.1921 -0.5572 -0.1751
    1C        C  368   4.502   3.557   2.044  0.4359  0.0102 -0.3055
    1C        C  369   4.519   3.483   2.162  0.4459  0.0820 -0.2625
    1C        C  370   4.491   3.698   2.281  0.0986 -0.1083  0.1419
    1C        C  371   4.515   3.559   2.281  0.2671 -0.0802 -0.1658
    1C        C  372   4.475   3.767   2.402  0.2772  0.2567 -0.0410
    1C        C  373   4.496   3.702   2.526  0.7159  0.2591 -0.1146
    1C        C  374   4.413   3.902   2.645  0.1151 -0.1494 -0.1588
    1C        C  375   4.469   3.773   2.645  0.8998  0.1878 -0.0332
    1C        C  376   4.383   3.968   2.766  0.2674  0.3487 -0.3936
    1C        C  377   4.423   3.910   2.888  0.9427  0.2855 -0.6396
    1C        C  378   4.314   4.091   3.008  0.5873 -0.3723  0.1218
    1C        C  379   4.395   3.975   3.010  1.3503  0.1387 -0.4680
    1C        C  380   4.276   4.154   3.128  0.2554 -0.1661 -0.0859
    1C        C  381   4.319   4.100   3.252  0.0402  0.3964  0.2402
    1C        C  382   4.167   4.252   3.372 -0.1403  0.2661  0.2573
    1C        C  383   4.275   4.160   3.371 -0.1246  0.2813  0.2410
    1C        C  384   4.115   4.298   3.495  0.0274  0.4560  0.2615
    1C        C  385   4.177   4.263   3.617 -0.0881 -0.1768  0.1471
    1C        C  386   4.004   4.386   3.738 -0.2018 -0.6360  0.0000
    1C        C  387   4.124   4.311   3.739  0.3437  0.2216  0.1823
    1C        C  388   3.943   4.423   3.860 -0.5004 -0.6183 -0.1536
    1C        C  389   4.008   4.397   3.982 -0.1425  0.0809 -0.1917
    1C        C  390   3.815   4.487   4.101  0.0953 -0.2253  0.0467
    1C        C  391   3.946   4.436   4.103 -0.1019 -0.7363  0.1029
    1C        C  392   3.750   4.513   4.224 -0.3565 -0.6800 -0.0929
    1C        C  393   3.820   4.498   4.346  0.1053 -0.2035 -0.2964
    1C        C  394   3.613   4.545   4.469  0.1889 -0.5038 -0.0164
    1C        C  395   3.752   4.521   4.468  0.1556 -0.6698 -0.1794
    1C        C  396   3.542   4.553   4.591  0.0291 -0.5803 -0.1086
    1C        C  397   3.616   4.557   4.711 -0.3120 -0.6814  0.1025
    1C        C  398   3.406   4.542   4.833 -0.0927 -0.2274  0.1724
    1C        C  399   3.546   4.563   4.833 -0.1535  0.1686  0.1596
    1C        C  400   3.337   4.517   4.952 -0.3732 -0.1220  0.0293
    1C        C  401   4.488   3.695   2.042 -0.1965 -0.0451 -0.0278
    1C        C  402   4.432   3.904   2.159 -0.0683 -0.1929 -0.0474
    1C        C  403   4.475   3.769   2.160 -0.3052 -0.2675  0.1002
    1C        C  404   4.394   3.964   2.281  0.5982  0.1384  0.0026
    1C        C  405   4.428   3.900   2.402  0.5538  0.3535  0.1266
    1C        C  406   4.313   4.084   2.519 -0.3612  0.0304 -0.1876
    1C        C  407   4.390   3.966   2.521 -0.3830  0.0208  0.0218
    1C        C  408   4.271   4.145   2.639 -0.0977  0.2178 -0.1914
    1C        C  409   4.308   4.088   2.763 -0.0680  0.1437 -0.2354
    1C        C  410   4.172   4.249   2.885  0.2996 -0.5007 -0.0200
    1C        C  411   4.266   4.143   2.886  0.4946 -0.3303  0.1753
    1C        C  412   4.119   4.297   3.007 -0.1032 -0.2302 -0.2987
    1C        C  413   4.177   4.254   3.128 -0.6103 -1.0094 -0.3292
    1C        C  414   4.003   4.379   3.248  0.2044 -0.3831 -0.2603
    1C        C  415   4.121   4.302   3.249  0.0968 -0.5517 -0.1740
    1C        C  416   3.937   4.411   3.369 -0.3668 -0.7888 -0.4558
    1C        C  417   3.996   4.374   3.492 -0.0977  0.2472 -0.2551
    1C        C  418   3.812   4.471   3.615 -0.1895 -0.6637 -0.2616
    1C        C  419   3.937   4.407   3.616 -0.0097 -0.3198 -0.0564
    1C        C  420   3.745   4.497   3.737 -0.1286 -0.6894 -0.2202
    1C        C  421   3.815   4.484   3.859 -0.5698 -0.7559  0.0287
    1C        C  422   3.607   4.530   3.982 -0.3102 -0.8050  0.1874
    1C        C  423   3.746   4.508   3.980 -0.2988 -0.7294  0.1791
    1C        C  424   3.539   4.544   4.105 -0.1735  0.0181  0.1747
    1C        C  425   3.613   4.546   4.225 -0.2950 -0.4389  0.2571
    1C        C  426   3.401   4.546   4.348 -0.3831 -0.0592  0.0135
    1C        C  427   3.542   4.551   4.347 -0.3404 -1.1251  0.2572
    1C        C  428   3.330   4.537   4.470 -0.1940  0.8430  0.1935
    1C        C  429   3.401   4.543   4.592  0.0071 -0.2000  0.1343
    1C        C  430   3.191   4.512   4.714 -0.1198  0.2770 -0.0455
    1C        C  431   3.330   4.541   4.714 -0.0031 -0.3087  0.1202
    1C        C  432   3.121   4.487   4.835 -0.0214 -0.5375 -0.1598
    1C        C  433   3.199   4.495   4.951 -0.2738 -0.7646  0.0236
    1C        C  434   4.384   4.121   2.048  0.1242 -0.0547  0.1922
    1C        C  435   4.440   3.992   2.051 -0.5854 -0.3814 -0.2400
    1C        C  436   4.296   4.155   2.157  0.1416  0.3869  0.0668
    1C        C  437   4.319   4.085   2.278  0.0162 -0.2282 -0.2667
    1C        C  438   4.170   4.241   2.398 -0.0459  0.0599 -0.2699
    1C        C  439   4.272   4.143   2.397 -0.5661 -0.4832 -0.3677
    1C        C  440   4.114   4.286   2.519  0.0788 -0.2109 -0.1116
    1C        C  441   4.173   4.247   2.642 -0.1204  0.1878  0.1123
    1C        C  442   3.998   4.370   2.759 -0.2384 -0.3892 -0.1388
    1C        C  443   4.115   4.291   2.763 -0.3020 -0.4676  0.2667
    1C        C  444   3.937   4.405   2.881 -0.2758 -0.2608 -0.1941
    1C        C  445   4.000   4.372   3.003  0.2471  0.3367 -0.2989
    1C        C  446   3.806   4.455   3.129 -0.3019 -1.3686  0.1665
    1C        C  447   3.938   4.405   3.126  0.0909 -0.3387 -0.1930
    1C        C  448   3.741   4.492   3.248 -0.3722 -0.7295 -0.0646
    1C        C  449   3.807   4.466   3.370 -0.2761 -0.5682 -0.0796
    1C        C  450   3.604   4.517   3.492 -0.1675  0.2817  0.3045
    1C        C  451   3.744   4.493   3.493 -0.2308 -0.1377 -0.1483
    1C        C  452   3.536   4.520   3.616 -0.5057  1.1426  0.1084
    1C        C  453   3.605   4.514   3.738 -0.0728 -0.1901 -0.1862
    1C        C  454   3.395   4.521   3.861  0.0717 -0.5519 -0.1235
    1C        C  455   3.536   4.531   3.860  0.0763 -0.5952 -0.0405
    1C        C  456   3.328   4.513   3.985  0.1982 -0.1113 -0.0228
    1C        C  457   3.399   4.531   4.106 -0.1795  0.1131  0.1642
    1C        C  458   3.191   4.496   4.231 -0.2848 -0.5284  0.0156
    1C        C  459   3.328   4.530   4.228 -0.4046 -0.0472  0.0300
    1C        C  460   3.125   4.473   4.354 -0.4634  0.4699  0.1071
    1C        C  461   3.195   4.497   4.474 -0.1470  0.6773 -0.1247
    1C        C  462   2.995   4.422   4.597 -0.0034  0.2826  0.2600
    1C        C  463   3.121   4.486   4.594 -0.0287  0.2958 -0.0934
    1C        C  464   2.930   4.391   4.718 -0.2739  0.1422  0.0676
    1C        C  465   2.986   4.440   4.839 -0.2781  0.2253  0.0278
    1C        C  466   2.807   4.324   4.956 -0.0412 -0.2155 -0.1066
    1C        C  467   2.907   4.422   4.958 -0.3287  0.0759 -0.0354
    1C        C  468   4.126   4.287   2.036  0.1677 -0.1341 -0.6137
    1C        C  469   4.184   4.244   2.156 -0.4492 -0.3509 -0.3903
    1C        C  470   4.004   4.369   2.271 -0.2281 -0.2829 -0.1308
    1C        C  471   4.122   4.290   2.275 -0.0560 -0.0337 -0.3026
    1C        C  472   3.936   4.399   2.392  0.1606 -0.4690  0.1355
    1C        C  473   3.993   4.359   2.514 -0.2989 -0.8017  0.2444
    1C        C  474   3.806   4.457   2.636 -0.6296 -0.5212  0.2457
    1C        C  475   3.937   4.402   2.636 -0.6787 -0.6423  0.0129
    1C        C  476   3.740   4.475   2.759 -0.5198  0.1586  0.2102
    1C        C  477   3.803   4.451   2.883 -0.4385 -0.7367  0.0018
    1C        C  478   3.601   4.508   3.004 -0.1797 -0.8961  0.0956
    1C        C  479   3.738   4.473   3.006 -0.1385 -0.7388  0.1641
    1C        C  480   3.532   4.529   3.126 -0.2486 -1.0162  0.0791
    1C        C  481   3.604   4.525   3.247 -0.3051 -0.4383  0.1323
    1C        C  482   3.393   4.526   3.370 -0.1397 -0.2644 -0.2420
    1C        C  483   3.534   4.523   3.370 -0.1410 -0.7871  0.2233
    1C        C  484   3.323   4.524   3.493 -0.0203  0.4351 -0.1546
    1C        C  485   3.394   4.524   3.615 -0.5210  0.7740  0.1468
    1C        C  486   3.188   4.493   3.740 -0.5424  0.1532 -0.1719
    1C        C  487   3.326   4.523   3.738 -0.4694 -0.1441  0.1794
    1C        C  488   3.121   4.473   3.863 -0.2117  0.5855  0.0845
    1C        C  489   3.188   4.490   3.986  0.0871  0.5493 -0.0742
    1C        C  490   3.000   4.403   4.111 -0.3841  0.7143 -0.1621
    1C        C  491   3.125   4.470   4.110 -0.1324  0.2389 -0.2389
    1C        C  492   2.937   4.378   4.234 -0.0646  0.1280 -0.1214
    1C        C  493   2.997   4.414   4.357 -0.1653 -0.1694  0.0079
    1C        C  494   2.821   4.294   4.478 -0.0101  0.4206  0.0941
    1C        C  495   2.930   4.383   4.478 -0.0052  0.4002  0.2329
    1C        C  496   2.772   4.245   4.601  0.1587 -0.3100 -0.1378
    1C        C  497   2.820   4.300   4.722 -0.1271 -0.0310 -0.1607
    1C        C  498   2.669   4.150   4.844  0.2491 -0.3593 -0.3401
    1C        C  499   2.760   4.257   4.842 -0.1027 -0.0604 -0.1666
    1C        C  500   2.600   4.108   4.958  0.1483  0.5129 -0.0752
    1C        C  501   4.006   4.358   2.032  0.2442  0.0347  0.0151
    1C        C  502   3.813   4.459   2.150  0.1449  0.5140  0.1091
    1C        C  503   3.940   4.398   2.149 -0.3073 -0.4436 -0.1283
    1C        C  504   3.738   4.473   2.269  0.2811  0.3856  0.2094
    1C        C  505   3.804   4.448   2.392  0.2196 -0.3117  0.1087
    1C        C  506   3.600   4.506   2.517 -0.0353  0.0114 -0.2073
    1C        C  507   3.737   4.473   2.514 -0.2288 -0.8346 -0.0270
    1C        C  508   3.532   4.522   2.640 -0.1276  0.4349 -0.3101
    1C        C  509   3.604   4.511   2.761 -0.5100  0.2180 -0.0975
    1C        C  510   3.391   4.512   2.885 -0.1834  0.1106  0.0394
    1C        C  511   3.532   4.520   2.882 -0.1594 -0.1975  0.1471
    1C        C  512   3.323   4.504   3.008 -0.5152 -0.0642 -0.1476
    1C        C  513   3.391   4.526   3.130 -0.2803 -0.2599 -0.2400
    1C        C  514   3.182   4.487   3.251 -0.2247 -0.5263 -0.2941
    1C        C  515   3.318   4.525   3.251 -0.2155 -0.5439 -0.1983
    1C        C  516   3.117   4.465   3.375  0.0172 -0.3610 -0.1334
    1C        C  517   3.186   4.489   3.496 -0.1900  1.0682 -0.2749
    1C        C  518   2.995   4.403   3.621 -0.2972  0.5292  0.2062
    1C        C  519   3.121   4.468   3.619 -0.2148  0.3602 -0.4018
    1C        C  520   2.937   4.367   3.745 -0.5660  0.3216  0.0215
    1C        C  521   2.996   4.408   3.866 -0.1809  0.5082 -0.2257
    1C        C  522   2.833   4.273   3.991  0.0838  0.2440  0.0998
    1C        C  523   2.939   4.367   3.989 -0.1305  0.4755 -0.2154
    1C        C  524   2.776   4.236   4.114  0.3057 -0.1279  0.0881
    1C        C  525   2.828   4.289   4.234  0.0987 -0.0634  0.1435
    1C        C  526   2.687   4.131   4.357  0.1358  0.2476  0.0612
    1C        C  527   2.771   4.244   4.356 -0.3833  0.6296  0.1688
    1C        C  528   2.644   4.074   4.479  0.0614 -0.0533 -0.1139
    1C        C  529   2.682   4.136   4.600  0.1809 -0.3193 -0.0221
    1C        C  530   2.581   3.954   4.728  0.0641 -0.4533  0.2669
    1C        C  531   2.636   4.085   4.723 -0.2993 -0.3238 -0.2087
    1C        C  532   2.535   3.898   4.851 -0.1229 -0.1325  0.3387
    1C        C  533   2.528   3.987   4.963 -0.1449  0.6790 -0.2997
    1C        C  534   3.613   4.562   2.038  0.3358 -0.1259 -0.0757
    1C        C  535   3.746   4.518   2.042  0.3326 -0.1604 -0.3778
    1C        C  536   3.533   4.537   2.154  0.4508  0.1985  0.0758
    1C        C  537   3.601   4.510   2.276  0.2062  0.1160  0.1941
    1C        C  538   3.387   4.512   2.398 -0.3086 -0.0943 -0.1722
    1C        C  539   3.528   4.520   2.396 -0.2995 -0.2191 -0.0795
    1C        C  540   3.319   4.506   2.521 -0.2407  0.0338 -0.1263
    1C        C  541   3.391   4.512   2.642 -0.1097  0.1724 -0.2080
    1C        C  542   3.181   4.475   2.764 -0.0193  0.3755 -0.4031
    1C        C  543   3.319   4.504   2.763  0.0735 -0.0321 -0.1083
    1C        C  544   3.113   4.459   2.887 -0.2004  0.7295 -0.4493
    1C        C  545   3.184   4.477   3.008 -0.6170  0.4220 -0.1482
    1C        C  546   2.992   4.390   3.131 -0.5706  0.0062 -0.1108
    1C        C  547   3.116   4.457   3.130 -0.8047  0.4543 -0.2420
    1C        C  548   2.931   4.361   3.255 -0.5222  0.5452  0.0486
    1C        C  549   2.990   4.403   3.376 -0.0797 -0.1690  0.0932
    1C        C  550   2.827   4.273   3.499 -0.0546  0.0734 -0.0969
    1C        C  551   2.934   4.366   3.500  0.0618 -0.0564  0.1973
    1C        C  552   2.776   4.229   3.623 -0.0205  0.1126 -0.0660
    1C        C  553   2.829   4.276   3.745 -0.3799  0.0990  0.0976
    1C        C  554   2.694   4.116   3.872 -0.1122  0.0615 -0.0724
    1C        C  555   2.780   4.228   3.869  0.1232 -0.1116  0.2154
    1C        C  556   2.652   4.059   3.994 -0.4547  0.6424  0.0806
    1C        C  557   2.692   4.122   4.114  0.2916 -0.1117  0.2310
    1C        C  558   2.592   3.937   4.243  0.5458 -0.2472 -0.2322
    1C        C  559   2.658   4.062   4.238  0.4172 -0.1642  0.2347
    1C        C  560   2.560   3.876   4.366  0.0316  0.0945 -0.2004
    1C        C  561   2.575   3.951   4.485  0.3547 -0.2082 -0.0568
    1C        C  562   2.525   3.747   4.611 -0.1827  0.0770 -0.0891
    1C        C  563   2.558   3.884   4.608 -0.3633  0.1185  0.0188
    1C        C  564   2.511   3.677   4.733  0.0279  0.0786 -0.0677
    1C        C  565   2.516   3.757   4.851 -0.1100 -0.1310  0.0780
    1C        C  566   2.527   3.546   4.974 -0.1430  0.0817 -0.1706
    1C        C  567   2.513   3.684   4.970 -0.5528  0.0521  0.1801
    1C        C  568   3.326   4.475   2.042  0.5746 -0.1339  0.1227
    1C        C  569   3.393   4.515   2.158  0.4968 -0.0917  0.1526
    1C        C  570   3.180   4.466   2.279 -0.0707 -0.6308 -0.0821
    1C        C  571   3.315   4.508   2.277 -0.1229 -0.4654 -0.2697
    1C        C  572   3.114   4.445   2.402 -0.4814 -0.0437 -0.1949
    1C        C  573   3.181   4.474   2.523 -0.0760 -0.6960 -0.2574
    1C        C  574   2.982   4.397   2.646 -0.0986 -0.3896 -0.2708
    1C        C  575   3.109   4.460   2.644 -0.1521 -0.2720 -0.2512
    1C        C  576   2.922   4.360   2.768 -0.2412 -0.2044 -0.2784
    1C        C  577   2.988   4.394   2.888  0.4648 -0.5991 -0.5396
    1C        C  578   2.814   4.272   3.016  0.2529 -0.1114 -0.1948
    1C        C  579   2.928   4.355   3.010  0.0166  0.2042 -0.4880
    1C        C  580   2.761   4.225   3.138 -0.1575  0.1332 -0.2721
    1C        C  581   2.818   4.276   3.256 -0.1748  0.0653 -0.2286
    1C        C  582   2.685   4.114   3.383  0.4762 -0.3795 -0.0893
    1C        C  583   2.769   4.228   3.379  0.3135 -0.2567 -0.1544
    1C        C  584   2.656   4.052   3.506  0.0444  0.0596  0.0335
    1C        C  585   2.695   4.113   3.627  0.2948 -0.1085  0.0404
    1C        C  586   2.594   3.929   3.754 -0.0136 -0.0145  0.2152
    1C        C  587   2.655   4.056   3.750 -0.2955  0.1154 -0.0407
    1C        C  588   2.566   3.867   3.877  0.5372 -0.2462  0.2237
    1C        C  589   2.594   3.931   4.000  1.0111 -0.0465  0.0138
    1C        C  590   2.529   3.733   4.126  0.2680 -0.1314  0.0310
    1C        C  591   2.560   3.870   4.123  0.3517 -0.1587 -0.2236
    1C        C  592   2.517   3.664   4.248 -0.0262  0.3541  0.2757
    1C        C  593   2.534   3.738   4.367  0.4013  0.0325  0.4132
    1C        C  594   2.511   3.530   4.494 -0.0645 -0.3316 -0.4220
    1C        C  595   2.521   3.671   4.491 -0.6269 -0.2785  0.1490
    1C        C  596   2.515   3.459   4.616  0.3995  0.1944 -0.1316
    1C        C  597   2.508   3.535   4.735 -0.2989  0.0862 -0.1055
    1C        C  598   2.534   3.327   4.859 -0.3402  0.0493 -0.1859
    1C        C  599   2.515   3.467   4.858 -0.3518  0.0471 -0.1259
    1C        C  600   2.528   3.247   4.974  0.0610 -0.0430 -0.2293
    1C        C  601   3.193   4.435   2.041  0.6251 -0.3064  0.1905
    1C        C  602   2.982   4.380   2.158  0.0407 -0.3755 -0.0525
    1C        C  603   3.116   4.429   2.157 -0.0710 -0.0720 -0.2531
    1C        C  604   2.921   4.352   2.284 -0.4543 -0.0274 -0.2102
    1C        C  605   2.986   4.387   2.404 -0.3856 -0.2625 -0.1748
    1C        C  606   2.807   4.272   2.530 -0.2297 -0.5327 -0.1131
    1C        C  607   2.921   4.355   2.526 -0.2687 -0.4722 -0.1611
    1C        C  608   2.758   4.220   2.651 -0.0484 -0.2818  0.0767
    1C        C  609   2.812   4.271   2.771 -0.0794 -0.4024  0.1500
    1C        C  610   2.677   4.110   2.892 -0.5266 -0.1531 -0.1264
    1C        C  611   2.764   4.221   2.894 -0.2133 -0.3951  0.1071
    1C        C  612   2.640   4.051   3.015  0.1604 -0.0656  0.1314
    1C        C  613   2.680   4.109   3.137 -0.0662  0.0602  0.1518
    1C        C  614   2.590   3.923   3.262 -0.0119 -0.3518  0.1035
    1C        C  615   2.644   4.053   3.262  0.2629 -0.4625  0.0195
    1C        C  616   2.568   3.860   3.387  0.1314 -0.0673  0.2776
    1C        C  617   2.599   3.923   3.509  0.2077 -0.0115  0.2329
    1C        C  618   2.527   3.727   3.638  0.2033 -0.0117  0.0038
    1C        C  619   2.569   3.862   3.632 -0.5827  0.2472  0.1815
    1C        C  620   2.510   3.659   3.761  0.0632 -0.2985 -0.1712
    1C        C  621   2.528   3.731   3.881 -0.3884 -0.0082 -0.2746
    1C        C  622   2.500   3.523   4.006  0.3535  0.1020  0.1719
    1C        C  623   2.511   3.664   4.004  0.3797  0.0934 -0.1091
    1C        C  624   2.506   3.451   4.128  0.1507  0.0801  0.1668
    1C        C  625   2.505   3.523   4.249 -0.6300  0.4038 -0.0265
    1C        C  626   2.538   3.318   4.376 -0.2513 -0.3004 -0.2598
    1C        C  627   2.513   3.457   4.374 -0.3643 -0.3244 -0.4304
    1C        C  628   2.553   3.249   4.498 -0.1273  0.1729 -0.0079
    1C        C  629   2.540   3.320   4.619 -0.3823  0.0591  0.0299
    1C        C  630   2.598   3.117   4.740 -0.6376 -0.2352 -0.4198
    1C        C  631   2.556   3.252   4.741  0.0248 -0.0259 -0.0708
    1C        C  632   2.619   3.049   4.863 -0.4479  0.0402 -0.2971
    1C        C  633   2.559   3.111   4.977 -0.0135 -0.0547 -0.0182
    1C        C  634   2.782   4.299   2.052  0.2206 -0.2614 -0.4636
    1C        C  635   2.892   4.386   2.048  0.3078 -0.3592 -0.2713
    1C        C  636   2.745   4.228   2.167 -0.1161 -0.4154 -0.6634
    1C        C  637   2.804   4.271   2.287 -0.2765 -0.3093 -0.6166
    1C        C  638   2.670   4.107   2.409 -0.4012  0.2693 -0.3482
    1C        C  639   2.756   4.220   2.409 -0.3614  0.2463 -0.4093
    1C        C  640   2.632   4.045   2.530  0.2099 -0.0634 -0.3111
    1C        C  641   2.670   4.109   2.650 -0.7104  0.2324 -0.1605
    1C        C  642   2.580   3.919   2.773  0.1840 -0.1581 -0.2198
    1C        C  643   2.631   4.051   2.773 -0.9233  0.2807 -0.1992
    1C        C  644   2.561   3.852   2.896  0.3803 -0.2636 -0.2412
    1C        C  645   2.585   3.921   3.017  0.1012 -0.0522 -0.2984
    1C        C  646   2.532   3.719   3.146 -0.2318  0.2094 -0.0781
    1C        C  647   2.564   3.856   3.141  0.1399  0.1213 -0.1961
    1C        C  648   2.521   3.652   3.270 -0.5639  0.1822 -0.1179
    1C        C  649   2.532   3.724   3.391  0.0665 -0.0636 -0.0276
    1C        C  650   2.507   3.517   3.517 -0.6054  0.1057 -0.0868
    1C        C  651   2.518   3.658   3.515 -0.6921  0.1140 -0.0122
    1C        C  652   2.506   3.447   3.639  0.1766  0.0943 -0.0826
    1C        C  653   2.500   3.519   3.761  0.4549 -0.3278  0.1811
    1C        C  654   2.528   3.312   3.887  0.1622 -0.0713  0.1052
    1C        C  655   2.504   3.452   3.885 -0.4791 -0.1743  0.2996
    1C        C  656   2.548   3.243   4.008 -0.0796 -0.2761  0.0277
    1C        C  657   2.532   3.312   4.130 -0.0709  0.0353 -0.1512
    1C        C  658   2.607   3.119   4.253 -0.5064 -0.4175 -0.0493
    1C        C  659   2.548   3.247   4.254 -0.1040 -0.2290 -0.2872
    1C        C  660   2.638   3.054   4.375 -0.4285 -0.0229  0.1427
    1C        C  661   2.609   3.119   4.497 -0.3659  0.0711  0.1068
    1C        C  662   2.711   2.935   4.621 -0.5358 -0.5325  0.0295
    1C        C  663   2.632   3.052   4.619 -0.6954 -0.6430 -0.2166
    1C        C  664   2.751   2.875   4.742 -0.4066 -0.4932  0.0044
    1C        C  665   2.702   2.933   4.863 -0.5718 -0.0493 -0.2707
    1C        C  666   2.755   2.872   4.978  0.0997 -0.1157 -0.6082
    1C        C  667   2.670   4.024   2.053 -0.0931 -0.6312 -0.3675
    1C        C  668   2.676   4.104   2.168 -0.1408 -0.4055 -0.5190
    1C        C  669   2.583   3.912   2.290 -0.4726  0.0483  0.1635
    1C        C  670   2.633   4.045   2.288  0.1457 -0.1794 -0.2970
    1C        C  671   2.556   3.844   2.411 -0.7058 -0.0572  0.0586
    1C        C  672   2.576   3.916   2.531 -0.0909  0.0585 -0.1048
    1C        C  673   2.522   3.712   2.657  0.3633 -0.1210 -0.1953
    1C        C  674   2.549   3.851   2.653 -0.4276  0.0427 -0.1823
    1C        C  675   2.511   3.643   2.779 -0.1284  0.0150 -0.1571
    1C        C  676   2.529   3.715   2.900 -0.4209 -0.0802 -0.0546
    1C        C  677   2.502   3.508   3.027 -0.2082  0.0354  0.3218
    1C        C  678   2.521   3.648   3.024 -0.6065  0.0841  0.0257
    1C        C  679   2.502   3.440   3.151  0.0600 -0.0418  0.2821
    1C        C  680   2.509   3.512   3.273  0.3318  0.1036  0.1828
    1C        C  681   2.534   3.304   3.397  0.0541 -0.1129 -0.0909
    1C        C  682   2.514   3.444   3.396  0.1097 -0.1047  0.0794
    1C        C  683   2.550   3.238   3.521  0.0995 -0.1144 -0.0998
    1C        C  684   2.537   3.309   3.642  0.1278  0.0819 -0.2131
    1C        C  685   2.605   3.114   3.764 -0.4105  0.0276 -0.2936
    1C        C  686   2.545   3.242   3.766  0.1530  0.2875 -0.1043
    1C        C  687   2.639   3.053   3.887 -0.6445 -0.2374 -0.3617
    1C        C  688   2.602   3.112   4.010  0.2695 -0.1343 -0.1335
    1C        C  689   2.717   2.936   4.133 -0.3909 -0.3726 -0.2493
    1C        C  690   2.636   3.052   4.133 -0.3058 -0.3132 -0.0588
    1C        C  691   2.759   2.881   4.256 -0.5586  0.6722  0.2885
    1C        C  692   2.714   2.935   4.378 -0.6260 -0.1359  0.6287
    1C        C  693   2.757   2.878   4.500  0.0569 -0.4810  0.2296
    1C        C  694   2.621   3.893   2.055 -0.2062 -0.5861  0.0840
    1C        C  695   2.527   3.701   2.174 -0.1594 -0.2444  0.2094
    1C        C  696   2.569   3.835   2.172 -0.0299 -0.2799  0.3174
    1C        C  697   2.510   3.630   2.295 -0.7295 -0.3858  0.0504
    1C        C  698   2.519   3.708   2.412 -0.3672 -0.1579 -0.1253
    1C        C  699   2.496   3.500   2.542 -0.2076 -0.1794  0.2700
    1C        C  700   2.508   3.641   2.536  0.1087 -0.2182 -0.1108
    1C        C  701   2.498   3.430   2.664 -0.0670 -0.1404  0.2917
    1C        C  702   2.502   3.503   2.785  0.2853 -0.0020  0.1983
    1C        C  703   2.517   3.293   2.908  0.1564  0.0885 -0.0452
    1C        C  704   2.497   3.433   2.908  0.2306  0.1014  0.2560
    1C        C  705   2.535   3.228   3.032  0.6601  0.1520 -0.0816
    1C        C  706   2.523   3.300   3.153 -0.1892 -0.0832 -0.0185
    1C        C  707   2.600   3.104   3.277  0.7243  0.1410  0.0336
    1C        C  708   2.546   3.234   3.275  0.1510 -0.0963 -0.0889
    1C        C  709   2.637   3.044   3.399  0.7365  0.1719  0.0417
    1C        C  710   2.599   3.106   3.521  0.1464 -0.0949 -0.0041
    1C        C  711   2.711   2.929   3.644  0.4367  0.0550 -0.1931
    1C        C  712   2.631   3.046   3.644 -0.0272 -0.2627 -0.0444
    1C        C  713   2.753   2.873   3.767  0.1939  0.3815  0.0383
    1C        C  714   2.705   2.928   3.888 -0.4291 -0.1198  0.0273
    1C        C  715   2.755   2.878   4.010  0.2926 -0.0126 -0.2151
    1C        C  716   2.453   3.492   2.056  0.0006 -0.3383 -0.5291
    1C        C  717   2.496   3.625   2.060 -0.3211 -0.2529  0.2570
    1C        C  718   2.464   3.417   2.177 -0.6895  0.1830 -0.1382
    1C        C  719   2.485   3.490   2.298 -0.8233 -0.3676  0.2251
    1C        C  720   2.515   3.285   2.420  0.0710 -0.1280  0.0036
    1C        C  721   2.495   3.425   2.422 -0.3967 -0.1978  0.2825
    1C        C  722   2.539   3.221   2.543  0.4348 -0.0094 -0.0044
    1C        C  723   2.519   3.290   2.665 -0.0251 -0.1366 -0.0046
    1C        C  724   2.585   3.091   2.789 -0.4245 -0.1499 -0.0193
    1C        C  725   2.532   3.222   2.787 -0.4558 -0.1625  0.0259
    1C        C  726   2.622   3.035   2.913 -0.0383  0.0027 -0.0657
    1C        C  727   2.589   3.098   3.035  0.0246 -0.1139  0.0103
    1C        C  728   2.699   2.915   3.153 -0.3770 -0.3993 -0.1937
    1C        C  729   2.625   3.035   3.156  0.4409  0.1022 -0.0017
    1C        C  730   2.742   2.863   3.277  0.2355 -0.1351 -0.2967
    1C        C  731   2.712   2.925   3.400  0.2311 -0.1489 -0.2953
    1C        C  732   2.763   2.879   3.523  0.0817 -0.1770 -0.2475
    1C        C  733   2.477   3.188   2.072  0.0335  0.0190  0.2746
    1C        C  734   2.487   3.276   2.181 -0.3760  0.2404  0.1375
    1C        C  735   2.575   3.077   2.301 -0.2892 -0.1878  0.1814
    1C        C  736   2.518   3.208   2.302  0.2643  0.0627 -0.1179
    1C        C  737   2.610   3.019   2.424  0.2790 -0.1924  0.0187
    1C        C  738   2.585   3.087   2.545 -0.0842 -0.1925 -0.0554
    1C        C  739   2.695   2.909   2.669 -0.2084 -0.1480 -0.1295
    1C        C  740   2.614   3.025   2.668 -0.0763 -0.0546  0.0124
    1C        C  741   2.735   2.851   2.791 -0.1001  0.0908 -0.0511
    1C        C  742   2.697   2.915   2.910 -0.1333 -0.0577  0.0171
    1C        C  743   2.745   2.860   3.031 -0.1377 -0.3569 -0.1197
    1C        C  744   2.547   3.068   2.067  0.1908  0.1150  0.1625
    1C        C  745   2.681   2.892   2.183  0.1959  0.0305 -0.1842
    1C        C  746   2.597   3.005   2.181  0.2587  0.0820  0.1150
    1C        C  747   2.730   2.839   2.305 -0.2899 -0.3247 -0.1400
    1C        C  748   2.688   2.901   2.424 -0.2114 -0.5178 -0.0123
    1C        C  749   2.732   2.847   2.547 -0.4140 -0.5858  0.0307
    1C        C  750   2.720   2.829   2.064 -0.3469 -0.0605 -0.3163
    1C        C  751   3.660   2.313   1.985 -0.3692 -0.3559  0.5870
    1C        O  752   3.704   2.210   2.043  0.2106 -0.2066  0.4258
    1C        O  753   3.622   2.300   1.851  0.1387  0.2201  0.3819
    1C        C  754   4.631   3.043   1.986  0.7558  0.4091 -0.1684
    1C        O  755   4.592   2.988   1.879  0.1346  0.6141 -0.0523
    1C        O  756   4.748   2.993   2.045  0.2808 -0.0582  0.3895
    1C        C  757   4.461   4.228   1.983  0.2382 -0.5601 -0.5157
    1C        O  758   4.521   4.327   2.033  0.2119 -0.8470  0.0974
    1C        O  759   4.473   4.224   1.843  0.0698 -0.3461 -0.5376
    1C        C  760   3.579   4.669   1.941  0.2208 -0.3431 -0.2732
    1C        O  761   3.655   4.769   1.938  0.1093 -0.2556 -0.1391
    1C        O  762   3.541   4.634   1.811 -0.6149 -0.3494 -0.0353
    1C        C  763   2.866   4.516   1.982  0.6210 -0.0467  0.2250
    1C        O  764   2.863   4.523   1.857 -0.3241 -0.1499  0.2351
    1C        O  765   2.822   4.633   2.046 -0.9515 -0.4774 -0.0216
    1C        C  766   2.382   3.443   1.936 -0.6078  0.1627 -0.3817
    1C        O  767   2.434   3.418   1.824 -0.3785  0.4061 -0.3324
    1C        O  768   2.247   3.406   1.938 -0.6235  0.2336 -0.1051
    1C        C  769   4.721   3.605   4.994 -0.2776 -0.3123  0.4642
    1C        O  770   4.810   3.542   4.930  0.0438  0.4198  0.1796
    1C        O  771   4.759   3.646   5.122 -1.0692 -0.4829  0.7585
    1C        C  772   4.274   4.461   5.021  0.0985  0.0573 -0.7760
    1C        O  773   4.319   4.399   5.121 -0.5782  0.5644 -0.1501
    1C        O  774   4.322   4.592   5.003  0.0834  0.2168  0.3158
    1C        C  775   4.141   2.519   5.071 -0.1953 -0.4310  0.2176
    1C        O  776   4.225   2.429   5.041 -0.2511 -0.4119 -0.0004
    1C        O  777   4.193   2.592   5.178  0.7589 -0.7908  0.0131
    1C        C  778   2.880   4.537   5.047 -0.5283  0.2352 -0.3041
    1C        O  779   2.817   4.640   5.012 -0.3363  0.2819 -0.5109
    1C        O  780   2.909   4.548   5.184 -0.3832 -0.6043 -0.2591
    1C        C  781   2.477   3.031   5.071 -0.0261 -0.0702 -0.0424
    1C        O  782   2.361   2.987   5.045 -0.0629 -0.2480  0.4150
    1C        O  783   2.488   3.059   5.207  0.2382 -0.1548 -0.0455
    1C        C  784   2.405   3.995   5.046  0.0691 -0.5722  0.1504
    1C        O  785   2.293   4.001   4.990  0.0593 -0.3660  0.1918
    1C        O  786   2.409   4.039   5.178  0.2662 -0.0413 -0.0315
    1C        C  787   2.938   2.406   2.021  0.2518 -0.4843 -0.2169
    1C        O  788   2.908   2.415   1.899  0.0775 -0.2298 -0.1552
    1C        O  789   2.891   2.292   2.086 -0.4392  0.1568  0.4225
    1C        C  790   3.187   2.392   5.088 -0.2073 -0.0626  0.2421
    1C        O  791   3.138   2.277   5.076 -0.2545 -0.0412  0.2325
    1C        O  792   3.188   2.439   5.220  0.0635  0.0587  0.1985
    1C        H  793   4.305   2.998   5.065  0.1316 -0.6341  0.2849
    1C        H  794   4.189   2.792   5.068  2.5242 -0.0888  0.1596
    1C        H  795   4.516   3.115   5.037  0.8495 -0.9692 -1.2283
    1C        H  796   4.501   3.372   5.057  2.8800  0.7906 -0.4302
    1C        H  797   4.554   3.807   5.044 -2.5908 -0.1353  0.6167
    1C        H  798   4.345   3.948   5.031 -1.1962 -0.8632 -0.8627
    1C        H  799   4.286   4.176   5.044  1.8507  2.0700 -0.3147
    1C        H  800   4.033   4.537   5.024 -0.8189  0.2077 -0.1626
    1C        H  801   3.811   4.573   5.037 -2.6165 -2.0650  1.1884
    1C        H  802   3.584   4.658   5.018  1.5451  2.4756 -0.9956
    1C        H  803   3.384   4.511   5.047 -0.0611 -0.9565 -0.1690
    1C        H  804   3.150   4.484   5.045  0.8025  0.3364  0.7422
    1C        H  805   3.897   2.454   5.047 -1.3919  1.3439  1.4517
    1C        H  806   3.666   2.402   5.055 -1.4046  0.0569  0.5775
    1C        H  807   3.005   2.568   5.063  0.2187  0.4562 -0.1925
    1C        H  808   3.441   2.502   5.071 -0.9718 -0.4809  0.0559
    1C        H  809   2.887   2.742   5.072  0.3125 -0.9999 -0.0796
    1C        H  810   2.701   2.880   5.070  1.0963  1.7517 -0.1529
    1C        H  811   2.466   3.285   5.052 -0.5186 -0.0032 -0.7001
    1C        H  812   2.534   3.502   5.071 -0.3039  0.6546  0.1003
    1C        H  813   2.471   3.730   5.057 -2.6582 -0.9736 -0.2358
    1C        H  814   2.632   4.145   5.053  1.4492 -0.9193  0.0858
    1C        H  815   2.729   4.346   5.025 -1.0721  2.2858 -1.9153
    1C        H  816   2.651   2.827   1.982 -0.6333  1.4520 -0.1458
    1C        H  817   2.872   2.723   1.974  1.1397 -1.1319  0.4085
    1C        H  818   3.196   2.391   2.003 -1.0506 -1.6906  0.3390
    1C        H  819   3.421   2.409   1.976 -0.1462 -0.8397  0.8488
    1C        H  820   3.831   2.564   1.970 -1.5323  1.2902  1.3153
    1C        H  821   4.048   2.660   1.971  1.8322 -1.7565 -1.0319
    1C        H  822   4.249   2.710   1.973 -0.4172  0.0796 -0.1648
    1C        H  823   4.365   2.924   1.962  2.7533  0.1716  0.8795
    1C        H  824   4.587   3.303   1.966  2.0449 -0.6560  1.1482
    1C        H  825   4.445   3.513   1.964 -0.3926  0.3778  0.0668
    1C        H  826   4.521   3.742   1.951  0.8140 -0.7828 -0.0559
    1C        H  827   3.803   4.534   1.953  1.9070 -0.7251  0.4874
    1C        H  828   3.985   4.412   1.942 -0.5123 -0.5338 -0.1611
    1C        H  829   4.176   4.276   1.942  0.8311  0.4065 -0.3366
    1C        H  830   4.492   3.959   1.964  0.5528 -0.2913  0.3874
    1C        H  831   2.607   3.857   1.955  0.2642 -0.4394 -0.0408
    1C        H  832   2.709   4.058   1.959  0.3088 -0.4113 -0.1272
    1C        H  833   2.717   4.299   1.967  2.0787  1.5709 -1.9820
    1C        H  834   3.345   4.539   1.959  0.3155  2.6722  2.0965
    1C        H  835   3.152   4.404   1.947  0.9263  0.9137 -0.3627
    1C        H  836   2.535   3.012   1.976  2.4651  0.6366 -0.5307
    1C        H  837   2.375   3.180   2.041 -0.7498 -0.7207  2.8159
    1C        H  838   2.487   3.677   1.966 -1.2970 -0.0899  0.4207
    2V3OU   H29  839   2.810   3.552   0.714  0.8127  1.9944  2.0383
    2V3OU   C27  840   2.770   3.496   0.802 -0.2637  0.3838  0.5893
    2V3OU   H27  841   2.712   3.569   0.864 -1.7565 -0.2972  0.0264
    2V3OU   H28  842   2.727   3.396   0.777 -0.1330  0.9389 -2.0757
    2V3OU   O11  843   2.899   3.474   0.861  0.1161  0.1491 -0.3069
    2V3OU   C15  844   2.909   3.391   0.971 -0.6408  0.5753  0.0961
    2V3OU   C13  845   3.044   3.368   1.005 -0.6998  0.0456 -0.0220
    2V3OU   C14  846   3.073   3.260   1.089 -0.0783  0.0875 -0.1726
    2V3OU   C16  847   2.972   3.181   1.142  0.1759  0.0711  0.2939
    2V3OU    H6  848   2.989   3.087   1.198  1.2292 -0.1871 -0.4436
    2V3OU   C12  849   3.212   3.233   1.132 -0.1266  0.1293  0.0118
    2V3OU    O2  850   3.239   3.136   1.206  0.2974  0.3145  0.1064
    2V3OU   C10  851   3.323   3.305   1.069  0.2762 -0.2613  0.2715
    2V3OU    C8  852   3.454   3.268   1.101  0.3377 -0.1184  0.1913
    2V3OU   O10  853   3.488   3.160   1.176  0.6332  0.2221  0.5480
    2V3OU   H26  854   3.411   3.104   1.192  0.5709  0.3137  0.5722
    2V3OU    C6  855   3.563   3.345   1.050  0.1546 -0.1397 -0.2484
    2V3OU    C5  856   3.533   3.457   0.973 -0.3728  0.1322  0.3418
    2V3OU    C4  857   3.701   3.289   1.048  0.1389 -0.1763 -0.3914
    2V3OU    H4  858   3.719   3.228   1.142 -0.6785 -0.8802 -0.6798
    2V3OU    H5  859   3.707   3.222   0.958 -1.8542 -0.3539 -0.4279
    2V3OU    C2  860   3.812   3.394   1.044 -0.2327  0.2325 -0.0757
    2V3OU    O6  861   3.803   3.475   1.162  0.4035 -0.2993  0.3413
    2V3OU   H21  862   3.763   3.555   1.124  0.8234  0.3284  1.2020
    2V3OU    C3  863   3.781   3.493   0.931 -0.2897  0.7204  0.3632
    2V3OU    H2  864   3.862   3.570   0.925  0.0513  0.3015 -0.6682
    2V3OU    H3  865   3.788   3.431   0.838  1.0185 -1.9538  2.1316
    2V3OU   C25  866   3.942   3.316   1.026 -0.3890 -0.0849  0.1883
    2V3OU    O7  867   3.991   3.288   0.917 -0.3745  0.0462  0.1617
    2V3OU   C26  868   4.021   3.279   1.151 -0.0476  0.3464  0.0989
    2V3OU   H22  869   4.059   3.374   1.198 -1.3504  0.8291  0.2059
    2V3OU   H23  870   4.107   3.213   1.123 -0.4089 -0.3202  0.5358
    2V3OU    O8  871   3.951   3.201   1.244  0.0670  0.3232  0.1661
    2V3OU   H24  872   3.923   3.244   1.327 -4.3251 -0.6602 -0.5402
    2V3OU    C1  873   3.643   3.555   0.947 -0.5341  0.2525  0.1039
    2V3OU    H1  874   3.623   3.608   0.849  0.8207 -0.6026 -0.6676
    2V3OU    O3  875   3.661   3.652   1.051 -0.4137 -0.4578  0.7581
    2V3OU   C19  876   3.614   3.787   1.046 -0.0107 -0.3446 -0.4062
    2V3OU    H9  877   3.519   3.799   0.986  0.0189  1.5930 -0.1325
    2V3OU    O4  878   3.706   3.848   0.958  0.0363 -0.5504 -0.4999
    2V3OU   C20  879   3.840   3.871   1.001 -0.2138 -0.1390  0.0705
    2V3OU   H10  880   3.886   3.768   1.014  2.1643  1.1045  2.4893
    2V3OU   C24  881   3.610   3.854   1.183 -0.1416 -0.4891 -0.3384
    2V3OU   H16  882   3.545   3.792   1.251  1.9717 -2.4141  0.0234
    2V3OU   H17  883   3.565   3.956   1.168  1.6611  0.5349  0.7159
    2V3OU   C23  884   3.751   3.871   1.239 -0.0110  0.5290 -0.9526
    2V3OU   H15  885   3.796   3.767   1.254 -2.6548 -0.5592 -0.0159
    2V3OU    N1  886   3.738   3.959   1.354 -0.1334 -0.1356 -0.4493
    2V3OU   H19  887   3.806   3.932   1.422 -0.9144 -1.7600 -0.2856
    2V3OU   H20  888   3.661   3.918   1.401  1.3318 -5.0655 -1.8061
    2V3OU   C21  889   3.845   3.942   1.137  0.5758  0.6316 -0.3541
    2V3OU   H11  890   3.946   3.934   1.186 -0.6605  0.1723  2.2820
    2V3OU    O5  891   3.817   4.081   1.130  0.0107  0.5066 -0.6881
    2V3OU   H18  892   3.765   4.093   1.211 -0.1268  1.4777 -0.9097
    2V3OU   C22  893   3.910   3.947   0.890 -0.4889  0.1939  0.1219
    2V3OU   H12  894   3.864   4.048   0.877  0.9218  0.6918 -1.3542
    2V3OU   H13  895   3.899   3.891   0.793 -0.6977  1.0736 -0.3677
    2V3OU   H14  896   4.021   3.949   0.906 -0.4122 -2.1340  0.3038
    2V3OU   C11  897   3.151   3.466   0.979 -0.1378 -0.6285 -0.3009
    2V3OU    O1  898   3.129   3.582   0.937  0.3175 -0.5357 -0.2794
    2V3OU    C9  899   3.291   3.422   0.995 -0.0786 -0.0996  0.6812
    2V3OU    C7  900   3.398   3.499   0.950 -0.3811 -0.1144 -0.0805
    2V3OU    O9  901   3.383   3.622   0.890  0.3781  0.1441  0.2488
    2V3OU   H25  902   3.287   3.632   0.887  0.4194  1.7018  2.3126
    2V3OU   C17  903   2.807   3.320   1.038 -0.3459  0.0541 -0.0004
    2V3OU    H7  904   2.704   3.333   1.007 -1.0192 -0.0784  2.0222
    2V3OU   C18  905   2.838   3.213   1.121  0.2475 -0.0589 -0.3614
    2V3OU    H8  906   2.764   3.150   1.173  0.1112 -0.0040 -0.4877
    3SOL     OW  907   0.154   1.760   2.654 -0.2898 -0.5361 -0.1042
    3SOL    HW1  908   0.139   1.673   2.701  1.3644 -0.9498 -0.2549
    3SOL    HW2  909   0.228   1.749   2.587 -0.9641  0.6547 -1.0904
    4SOL     OW  910   6.173   6.161   5.772 -0.7521  0.4022 -0.1497
    4SOL    HW1  911   6.122   6.237   5.731 -0.2705 -0.3305 -2.2306
    4SOL    HW2  912   6.271   6.177   5.760 -0.6707 -1.0341 -1.5978
    5SOL     OW  913   0.347   0.514   3.815 -0.7549 -0.4649  0.5840
    5SOL    HW1  914   0.394   0.426   3.803  1.5659  0.7089  0.5246
    5SOL    HW2  915   0.349   0.540   3.911  0.9895  0.7378  0.2592
    6SOL     OW  916   6.741   5.945   1.284  0.4730 -0.3514 -0.0268
    6SOL    HW1  917   6.649   5.981   1.269  1.1300  1.4183 -0.1284
    6SOL    HW2  918   6.736   5.847   1.301 -1.2872 -0.5785 -1.4804
    7SOL     OW  919   2.185   6.555   5.576  0.1793  0.6422 -0.2453
    7SOL    HW1  920   2.267   6.504   5.598  0.1015  0.8165  0.4757
    7SOL    HW2  921   2.181   6.572   5.477  0.3244 -0.5223 -0.4679
    8SOL     OW  922   5.868   1.701   1.904  0.1949  0.0172  0.1472
    8SOL    HW1  923   5.895   1.794   1.926 -1.1381  0.3809  0.2939
    8SOL    HW2  924   5.940   1.658   1.849  1.2761  0.7754  0.9344
    9SOL     OW  925   6.274   3.477   3.192  0.3503 -0.2975 -0.3619
    9SOL    HW1  926   6.322   3.524   3.118  0.8140 -0.2189 -0.0121
    9SOL    HW2  927   6.249   3.385   3.162  1.5304 -0.6667 -0.2404
   10SOL     OW  928   5.261   3.909   4.206  0.1833 -0.3372  0.2548
   10SOL    HW1  929   5.244   3.946   4.297  1.0104  0.6037  0.0450
   10SOL    HW2  930   5.253   3.809   4.209  0.6469 -0.3616  1.4715
   11SOL     OW  931   3.936   0.392   1.367 -0.5108 -0.1841 -0.0130
   11SOL    HW1  932   3.943   0.334   1.448 -1.4606 -0.2166  0.0549
   11SOL    HW2  933   4.020   0.445   1.357  0.9635 -2.5182 -0.8245
   12SOL     OW  934   0.136   2.933   3.416  0.0735 -0.1419  0.4243
   12SOL    HW1  935   0.074   2.898   3.486 -0.3334  1.9804  1.1884
   12SOL    HW2  936   0.229   2.904   3.437 -0.3716 -1.8354  0.2601
   13SOL     OW  937   3.951   5.179   6.771  0.2331  0.1457 -0.1606
   13SOL    HW1  938   3.912   5.095   6.732  4.6441 -1.9499 -0.7329
   13SOL    HW2  939   3.952   5.171   6.871 -1.8258  0.8496 -0.0481
   14SOL     OW  940   3.469   5.233   0.584 -0.1879  0.1458 -0.2872
   14SOL    HW1  941   3.445   5.313   0.640  1.6151  0.8503 -0.4399
   14SOL    HW2  942   3.400   5.162   0.596 -1.8039  1.6773 -0.0660
   15SOL     OW  943   2.882   5.137   0.898 -0.2110 -0.2005  0.7516
   15SOL    HW1  944   2.797   5.184   0.875 -0.3298 -1.3049 -1.2504
   15SOL    HW2  945   2.861   5.051   0.944 -0.0837  0.2591  1.7084
   16SOL     OW  946   3.859   1.631   5.631 -0.6427 -0.6058  0.1816
   16SOL    HW1  947   3.777   1.576   5.648 -0.2282 -2.0584 -2.0615
   16SOL    HW2  948   3.841   1.696   5.557 -0.0580 -0.3236  0.2830
   17SOL     OW  949   3.443   0.164   5.938  0.2596  0.4773 -0.1164
   17SOL    HW1  950   3.461   0.262   5.947  1.0616  0.3163  0.1383
   17SOL    HW2  951   3.442   0.122   6.029  1.1603  0.0418 -0.2990
   18SOL     OW  952   1.946   0.643   0.781 -0.3801 -0.4029 -0.2166
   18SOL    HW1  953   1.927   0.731   0.825  1.3228 -0.3917  0.6009
   18SOL    HW2  954   1.946   0.570   0.851  3.3728 -0.2456  0.1745
   19SOL     OW  955   1.947   5.462   3.724 -0.3219 -0.5899 -0.3841
   19SOL    HW1  956   1.900   5.547   3.749  0.7087  0.0728 -0.5873
   19SOL    HW2  957   1.887   5.406   3.667 -1.5611 -0.7028  0.9865
   20SOL     OW  958   6.628   5.188   4.730  0.5761  0.2851 -0.2347
   20SOL    HW1  959   6.603   5.212   4.824 -0.2670 -0.9912 -0.1170
   20SOL    HW2  960   6.611   5.091   4.714  1.2334  0.3638 -1.5487
   21SOL     OW  961   3.020   6.799   5.712 -0.2103 -0.3485  0.9021
   21SOL    HW1  962   3.017   6.887   5.665 -0.0594 -0.4685  0.6679
   21SOL    HW2  963   3.063   6.811   5.802  0.3633 -0.2934  0.6268
   22SOL     OW  964   2.593   3.032   1.683  0.8420 -0.4517  0.0764
   22SOL    HW1  965   2.609   2.938   1.712  1.3945 -0.1973  0.6260
   22SOL    HW2  966   2.681   3.077   1.667  0.5825 -0.0045 -0.0996
   23SOL     OW  967   6.423   5.542   2.882  0.3979  0.7679  0.5457
   23SOL    HW1  968   6.474   5.626   2.901  1.0368  0.0531  2.1757
   23SOL    HW2  969   6.337   5.543   2.933  0.6109  0.2548  0.9223
   24SOL     OW  970   0.950   3.548   6.769 -0.2781 -0.1765 -0.7150
   24SOL    HW1  971   0.927   3.453   6.748  1.5731 -0.5608 -1.2331
   24SOL    HW2  972   0.912   3.608   6.698 -1.7079 -0.4662 -0.2247
   25SOL     OW  973   5.410   6.344   2.865  0.4907 -0.4436 -0.6127
   25SOL    HW1  974   5.452   6.273   2.807  0.8747 -0.6547 -0.0916
   25SOL    HW2  975   5.449   6.338   2.957 -0.2456 -0.2325 -0.2821
   26SOL     OW  976   3.099   4.773   1.328  0.3282  0.0793  0.4569
   26SOL    HW1  977   3.191   4.736   1.313 -0.0707 -0.4197 -0.9005
   26SOL    HW2  978   3.097   4.825   1.414  1.5660 -0.9024  1.1094
   27SOL     OW  979   5.841   4.360   3.829  0.1384 -0.3961 -0.2106
   27SOL    HW1  980   5.822   4.331   3.735 -1.2586 -1.1761  0.2769
   27SOL    HW2  981   5.891   4.288   3.877  2.2578  0.6232 -0.7493
   28SOL     OW  982   6.641   3.359   2.479  0.4214 -0.1226  0.4391
   28SOL    HW1  983   6.685   3.299   2.547  1.6384  2.9397  2.6222
   28SOL    HW2  984   6.551   3.386   2.513  0.9243  1.2061  0.7914
   29SOL     OW  985   0.184   0.052   0.317 -0.4640  0.2088  0.4049
   29SOL    HW1  986   0.097   0.014   0.347 -1.9094  2.4742 -0.6679
   29SOL    HW2  987   0.170   0.106   0.234  2.3054 -0.8319 -0.8590
   30SOL     OW  988   5.524   3.807   0.604  0.4519  0.6055  0.5909
   30SOL    HW1  989   5.496   3.862   0.526 -0.0544  2.3069  1.9003
   30SOL    HW2  990   5.443   3.769   0.649  0.6483  0.5720  0.9256
   31SOL     OW  991   3.292   1.877   0.764 -0.0928  0.2781  0.9071
   31SOL    HW1  992   3.318   1.938   0.689  0.0475  0.5327  1.1576
   31SOL    HW2  993   3.206   1.831   0.742  0.1977 -0.0230  0.3804
   32SOL     OW  994   1.418   6.803   1.485 -0.5666 -0.5202  0.3871
   32SOL    HW1  995   1.466   6.881   1.524  0.2014 -0.5331 -0.5017
   32SOL    HW2  996   1.367   6.756   1.557 -1.6707  1.2175  0.8092
   33SOL     OW  997   0.871   0.376   6.310 -0.0903 -0.5337 -0.1756
   33SOL    HW1  998   0.864   0.397   6.408 -0.6345  0.0981 -0.3455
   33SOL    HW2  999   0.961   0.403   6.277  0.9137 -2.7228  0.6057
   34SOL     OW 1000   1.652   6.085   4.808  0.5325  0.1230 -0.0529
   34SOL    HW1 1001   1.595   6.012   4.771 -0.7349  0.1230  1.8220
   34SOL    HW2 1002   1.699   6.131   4.732 -0.5536 -1.0145 -1.4794
   35SOL     OW 1003   6.063   1.025   1.042 -0.0459  0.0037 -0.2026
   35SOL    HW1 1004   6.036   0.929   1.049  0.6069 -0.2883 -1.4347
   35SOL    HW2 1005   6.093   1.045   0.948  1.4028  0.9861  0.4331
   36SOL     OW 1006   6.496   1.245   0.099 -0.1481  1.1807 -0.1868
   36SOL    HW1 1007   6.466   1.153   0.124  0.2627  1.6091  2.2220
   36SOL    HW2 1008   6.438   1.312   0.145  1.3608  2.0521  0.5327
   37SOL     OW 1009   2.577   0.268   1.071  0.0013  0.1353  0.0080
   37SOL    HW1 1010   2.616   0.353   1.034  2.8321 -0.6849  0.8519
   37SOL    HW2 1011   2.572   0.274   1.170 -0.6762 -0.3685  0.0120
   38SOL     OW 1012   4.715   6.578   4.879  0.3813  0.2701  0.7223
   38SOL    HW1 1013   4.623   6.558   4.915  0.5118 -1.5747  0.1312
   38SOL    HW2 1014   4.784   6.542   4.942  0.6740  0.0448  0.2727
   39SOL     OW 1015   2.016   4.725   1.107  0.1455  0.3709  0.2658
   39SOL    HW1 1016   1.925   4.766   1.106  0.6912  1.6310 -0.3550
   39SOL    HW2 1017   2.028   4.672   1.190 -1.1080  0.2832  0.4118
   40SOL     OW 1018   4.764   2.779   3.196  0.4954 -0.9213 -0.1218
   40SOL    HW1 1019   4.860   2.786   3.167  0.4949  1.3168  0.2636
   40SOL    HW2 1020   4.705   2.786   3.116  0.6223 -1.9755 -0.3230
   41SOL     OW 1021   5.484   1.474   1.864  0.3037 -0.2175  0.6804
   41SOL    HW1 1022   5.509   1.569   1.881  0.3877 -0.2515  0.7449
   41SOL    HW2 1023   5.390   1.458   1.895  0.0404  0.0266  0.0229
   42SOL     OW 1024   5.447   0.019   1.527 -0.3772  0.2174  0.1604
   42SOL    HW1 1025   5.383  -0.034   1.583  1.1714 -1.1443  0.7253
   42SOL    HW2 1026   5.400   0.053   1.446 -1.2003 -3.1860 -0.9696
   43SOL     OW 1027   3.827   6.799   1.407 -0.2134  0.0483 -0.4995
   43SOL    HW1 1028   3.787   6.732   1.469 -2.1389  0.3612 -1.3205
   43SOL    HW2 1029   3.793   6.890   1.430 -0.6271  0.2258 -1.7087
   44SOL     OW 1030   4.034   3.457   6.393  0.0772 -0.0110 -0.6478
   44SOL    HW1 1031   3.970   3.424   6.462  0.7881  1.0805  0.5774
   44SOL    HW2 1032   3.999   3.540   6.351  0.6153  0.5396 -0.0375
   45SOL     OW 1033   5.657   2.231   0.728  0.2169 -0.3534 -0.0462
   45SOL    HW1 1034   5.686   2.269   0.640  0.4315 -0.8961 -0.2151
   45SOL    HW2 1035   5.619   2.140   0.715 -0.6168 -0.0665  0.3131
   46SOL     OW 1036   1.615   3.913   4.220 -0.4528  0.3534 -0.1992
   46SOL    HW1 1037   1.665   3.925   4.134  0.7602 -0.7123  0.3069
   46SOL    HW2 1038   1.533   3.858   4.203  0.8769 -1.7076 -0.4136
   47SOL     OW 1039   1.121   6.426   0.395  0.6204 -0.5502  0.7079
   47SOL    HW1 1040   1.183   6.502   0.374 -0.0097  0.3414  1.9572
   47SOL    HW2 1041   1.155   6.376   0.474 -0.2376 -0.0515  1.4065
   48SOL     OW 1042   4.528   0.286   3.641 -0.2131 -0.4658  0.4660
   48SOL    HW1 1043   4.560   0.347   3.568  1.3399  2.1711  3.1604
   48SOL    HW2 1044   4.568   0.195   3.627  2.7842  0.8383 -0.2488
   49SOL     OW 1045   6.940   2.544   4.158 -0.1799  0.1621  0.2703
   49SOL    HW1 1046   6.914   2.637   4.134  0.5734 -0.0633 -1.6748
   49SOL    HW2 1047   7.029   2.524   4.118  0.4598 -0.8441  2.1284
   50SOL     OW 1048   5.176   5.370   3.180  0.4980  0.0931 -0.5554
   50SOL    HW1 1049   5.078   5.350   3.170  0.0819  1.3742  0.6089
   50SOL    HW2 1050   5.195   5.398   3.274  1.7048  1.3182 -1.1213
   51SOL     OW 1051   3.800   3.928   4.259  0.1426  0.4973 -0.6560
   51SOL    HW1 1052   3.713   3.972   4.279  0.9147  1.4969  0.6395
   51SOL    HW2 1053   3.784   3.832   4.237 -1.1078  0.0119  1.9394
   52SOL     OW 1054   0.131   4.763   5.720 -0.1168 -0.3163  0.1872
   52SOL    HW1 1055   0.222   4.734   5.751 -0.5408 -0.1363  1.6328
   52SOL    HW2 1056   0.130   4.766   5.620  1.6098  0.1477  0.1557
   53SOL     OW 1057   5.921   1.294   1.656 -0.0337  0.5147  0.4492
   53SOL    HW1 1058   5.850   1.353   1.694  1.2590  4.5060 -2.6793
   53SOL    HW2 1059   6.004   1.302   1.712 -0.0182  1.3305  0.3220
   54SOL     OW 1060   5.317   1.684   5.321 -0.0240 -0.3158 -0.2282
   54SOL    HW1 1061   5.402   1.695   5.371  0.1047  1.0386 -0.7010
   54SOL    HW2 1062   5.332   1.704   5.224 -0.7970 -0.4577 -0.3899
   55SOL     OW 1063   1.894   5.658   6.879 -0.3250  0.5922  0.0804
   55SOL    HW1 1064   1.925   5.692   6.968 -0.2744 -1.3300  0.8379
   55SOL    HW2 1065   1.974   5.639   6.821 -0.3198  0.9231 -0.0223
   56SOL     OW 1066   3.116   0.394   4.879  0.3908 -0.3809 -0.1603
   56SOL    HW1 1067   3.022   0.429   4.881  0.3787 -0.4360  0.3883
   56SOL    HW2 1068   3.115   0.296   4.896  0.4425 -0.6428 -1.4962
   57SOL     OW 1069   1.315   6.249   4.328 -0.5949 -0.5256 -0.3114
   57SOL    HW1 1070   1.325   6.158   4.288  0.0538 -0.3396 -0.5815
   57SOL    HW2 1071   1.229   6.290   4.298  0.7350  0.4140 -3.1805
   58SOL     OW 1072   6.455   6.096   6.790  0.2495  0.1505 -0.4547
   58SOL    HW1 1073   6.382   6.042   6.747  0.5943 -0.6564 -0.0513
   58SOL    HW2 1074   6.455   6.080   6.888 -0.9288  2.4622 -0.0165
   59SOL     OW 1075   5.365   6.172   4.721  0.3131  0.3293 -0.5847
   59SOL    HW1 1076   5.422   6.149   4.799 -1.2792 -0.0278  0.5176
   59SOL    HW2 1077   5.375   6.102   4.650  0.7588 -0.0679 -0.1351
   60SOL     OW 1078   4.322   3.420   5.703  0.0702  0.7461 -0.4575
   60SOL    HW1 1079   4.389   3.421   5.629  0.9645  0.6843  0.3354
   60SOL    HW2 1080   4.362   3.460   5.785 -0.4749 -0.3378  0.3649
   61SOL     OW 1081   4.760   0.258   6.948 -0.2526 -0.1625 -0.3975
   61SOL    HW1 1082   4.719   0.327   6.889  0.0556 -0.1545 -0.6048
   61SOL    HW2 1083   4.856   0.283   6.967 -0.3231 -0.2043  0.0410
   62SOL     OW 1084   1.306   1.025   4.773  0.7512  0.2177 -0.4362
   62SOL    HW1 1085   1.366   1.076   4.835 -0.9601 -0.1736  1.6279
   62SOL    HW2 1086   1.275   0.941   4.818  1.7221 -1.6006 -2.9289
   63SOL     OW 1087   5.423   4.606   6.173 -0.1614 -0.2409  0.1675
   63SOL    HW1 1088   5.430   4.677   6.104 -1.8672 -0.8842 -0.7092
   63SOL    HW2 1089   5.461   4.521   6.138  1.6300  0.1194  1.1165
   64SOL     OW 1090   4.460   1.270   3.285  0.2843  0.4856  0.8754
   64SOL    HW1 1091   4.450   1.280   3.186  1.8347 -1.1185  0.5045
   64SOL    HW2 1092   4.395   1.201   3.318  2.0150 -1.5164  0.3454
   65SOL     OW 1093   6.960   1.583   5.986  0.0265 -0.0207  0.4015
   65SOL    HW1 1094   6.893   1.510   6.002  0.2122 -0.5223 -1.0398
   65SOL    HW2 1095   6.981   1.589   5.889  1.7038  0.4775  0.7690
   66SOL     OW 1096   4.140   2.943   5.936  0.2053  0.2947 -0.0042
   66SOL    HW1 1097   4.209   2.998   5.887  1.1171 -0.4377  0.4356
   66SOL    HW2 1098   4.175   2.918   6.026 -0.7603  0.1301  0.3364
   67SOL     OW 1099   5.221   0.151   0.273 -0.0781 -0.1626 -0.7579
   67SOL    HW1 1100   5.309   0.168   0.316 -0.4250 -0.2600  0.0200
   67SOL    HW2 1101   5.192   0.232   0.222  0.6346 -0.2701 -1.3552
   68SOL     OW 1102   1.249   1.411   0.611  0.0757 -0.5574  0.5628
   68SOL    HW1 1103   1.244   1.321   0.569 -0.8784  0.7136 -2.3157
   68SOL    HW2 1104   1.329   1.460   0.575 -0.1383  0.1910  1.0986
   69SOL     OW 1105   0.273   2.507   0.316  0.1293 -0.1111  0.3855
   69SOL    HW1 1106   0.368   2.485   0.297 -0.4339 -0.8592 -1.8566
   69SOL    HW2 1107   0.223   2.423   0.340 -1.0420 -0.8442 -3.7864
   70SOL     OW 1108   6.016   6.860   4.836  0.2788  0.7389 -0.3556
   70SOL    HW1 1109   6.101   6.878   4.785  0.8926  1.6448  0.9231
   70SOL    HW2 1110   5.940   6.905   4.790  0.8408  1.6400 -0.4378
   71SOL     OW 1111   4.899   1.262   5.219  0.4503 -0.4557  0.4330
   71SOL    HW1 1112   4.984   1.233   5.262  0.8922 -2.1021 -1.3886
   71SOL    HW2 1113   4.912   1.269   5.120 -1.7892 -1.9938 -0.0638
   72SOL     OW 1114   7.004   5.672   3.590 -0.4051  0.4813 -0.0674
   72SOL    HW1 1115   7.097   5.703   3.608  0.2351 -1.8908  1.0185
   72SOL    HW2 1116   6.947   5.751   3.566  1.4802  2.2054  0.8277
   73SOL     OW 1117   4.676   5.507   4.265  0.1798  0.3946  0.1230
   73SOL    HW1 1118   4.760   5.523   4.317 -0.8700  0.6240  1.8340
   73SOL    HW2 1119   4.644   5.414   4.281 -0.6780  0.7788  0.6980
   74SOL     OW 1120   6.533   5.857   0.576  0.1036  0.3581 -0.8773
   74SOL    HW1 1121   6.574   5.892   0.660  1.9597 -0.9441 -1.1774
   74SOL    HW2 1122   6.563   5.913   0.498  1.9194 -0.9687 -1.1780
   75SOL     OW 1123   6.131   1.982   4.687  0.5911 -0.1419  0.0424
   75SOL    HW1 1124   6.118   1.979   4.786  0.3501 -0.5453  0.0021
   75SOL    HW2 1125   6.094   2.067   4.650 -0.5402 -0.5872  0.1302
   76SOL     OW 1126   3.067   2.181   2.839  0.4604  0.2062 -0.7332
   76SOL    HW1 1127   2.978   2.211   2.874  1.2597  1.4883  0.2808
   76SOL    HW2 1128   3.071   2.197   2.740 -0.4328  0.0998 -0.7973
   77SOL     OW 1129   6.179   3.235   5.549 -0.3570 -0.1027  0.0702
   77SOL    HW1 1130   6.189   3.325   5.593 -0.4143  0.5361 -1.1826
   77SOL    HW2 1131   6.183   3.164   5.619 -0.0022  0.8511  1.0597
   78SOL     OW 1132   1.020   0.185   0.990  0.9556  0.1978 -0.9108
   78SOL    HW1 1133   0.934   0.150   0.953 -0.5524  2.8008 -0.1193
   78SOL    HW2 1134   1.082   0.208   0.915  0.0037  0.5243 -1.6204
   79SOL     OW 1135   2.065   0.496   2.731 -0.1115  0.5956 -0.0088
   79SOL    HW1 1136   2.161   0.498   2.705 -0.1577 -2.6396 -0.9425
   79SOL    HW2 1137   2.048   0.416   2.788 -2.3042  0.8564 -0.2070
   80SOL     OW 1138   2.027   4.743   2.692 -0.1381 -0.3278  0.3221
   80SOL    HW1 1139   1.980   4.762   2.606 -1.3773 -1.6655  0.6717
   80SOL    HW2 1140   2.040   4.828   2.743 -1.9091  0.1171  0.0742
   81SOL     OW 1141   6.290   2.734   0.557  0.1721 -0.4903 -0.2534
   81SOL    HW1 1142   6.271   2.826   0.523  0.1975 -1.2407 -2.5106
   81SOL    HW2 1143   6.206   2.680   0.560  0.4385 -0.9615 -0.8816
   82SOL     OW 1144   1.175   5.758   0.649 -0.1778 -0.1520  0.1265
   82SOL    HW1 1145   1.192   5.835   0.587  3.7597 -0.8100  0.1168
   82SOL    HW2 1146   1.206   5.782   0.741 -0.5522 -1.1433  0.5190
   83SOL     OW 1147   1.051   3.776   6.353  0.6292 -0.4407  0.2792
   83SOL    HW1 1148   1.083   3.683   6.335  0.3881 -0.4806  0.0477
   83SOL    HW2 1149   1.010   3.814   6.269  2.1371  0.4517 -0.0815
   84SOL     OW 1150   2.116   6.482   6.729  0.4733 -0.0459 -0.7490
   84SOL    HW1 1151   2.040   6.421   6.708 -0.2234  0.1720  0.9341
   84SOL    HW2 1152   2.191   6.429   6.768  2.4281 -0.7171 -4.8627
   85SOL     OW 1153   0.587   5.315   5.708  0.1612 -0.5017 -0.0602
   85SOL    HW1 1154   0.618   5.332   5.801 -1.6900  0.2943  0.4489
   85SOL    HW2 1155   0.503   5.367   5.690 -1.2901 -3.0420 -1.1156
   86SOL     OW 1156   3.554   6.288   3.547  0.0205  0.0581  0.4050
   86SOL    HW1 1157   3.570   6.352   3.472 -1.4613  0.8943  0.7677
   86SOL    HW2 1158   3.621   6.304   3.620 -0.2893  1.1536  0.4633
   87SOL     OW 1159   1.477   4.057   0.808 -0.3977  0.6240  0.5144
   87SOL    HW1 1160   1.425   4.005   0.877 -0.3423  0.6720  0.5929
   87SOL    HW2 1161   1.492   3.999   0.728 -1.4260  0.9360  0.0876
   88SOL     OW 1162   1.583   6.568   3.293 -0.4044  0.3472 -0.6057
   88SOL    HW1 1163   1.614   6.627   3.219  0.9329  1.4572  0.7818
   88SOL    HW2 1164   1.609   6.608   3.381  1.2140 -2.5832  0.4104
   89SOL     OW 1165   5.975   2.208   0.763  0.5124 -0.5322 -0.2511
   89SOL    HW1 1166   5.989   2.151   0.682  2.1563 -0.4453 -0.0506
   89SOL    HW2 1167   6.061   2.219   0.812 -0.6662 -1.7652  2.3083
   90SOL     OW 1168   0.846   6.565   2.651  0.7787  0.0495 -0.3268
   90SOL    HW1 1169   0.896   6.515   2.722  0.9042 -1.2456 -1.2845
   90SOL    HW2 1170   0.911   6.605   2.586  0.6424 -1.5243 -1.5006
   91SOL     OW 1171   5.240   3.333   3.447 -0.3115 -0.1802  0.7125
   91SOL    HW1 1172   5.332   3.371   3.434 -0.0632 -0.4759  1.5349
   91SOL    HW2 1173   5.211   3.288   3.363  0.5957 -0.7001  0.6588
   92SOL     OW 1174   2.031   0.228   3.961  0.1879  0.3974  0.2781
   92SOL    HW1 1175   1.954   0.166   3.970  1.0477 -0.9085 -0.9868
   92SOL    HW2 1176   2.094   0.194   3.891  1.6232  1.7305  0.8554
   93SOL     OW 1177   6.483   2.533   6.328 -0.5021 -0.0640  0.3637
   93SOL    HW1 1178   6.467   2.583   6.243 -0.3747 -1.8813 -0.7820
   93SOL    HW2 1179   6.510   2.439   6.307 -0.3403 -0.5275  2.4252
   94SOL     OW 1180   5.736   2.353   2.283  0.4330 -0.2845  0.1214
   94SOL    HW1 1181   5.704   2.315   2.196 -1.8270 -0.0808  0.7803
   94SOL    HW2 1182   5.795   2.286   2.329 -1.5211 -2.0865  0.1653
   95SOL     OW 1183   0.602   6.608   4.295  0.3303 -0.2595 -0.1205
   95SOL    HW1 1184   0.626   6.592   4.199  1.9234 -0.3708  0.2769
   95SOL    HW2 1185   0.524   6.670   4.299  0.9578  0.6747 -1.4710
   96SOL     OW 1186   4.126   5.091   3.388 -0.3150 -0.0480 -0.1844
   96SOL    HW1 1187   4.223   5.088   3.364 -0.0825  0.6165  0.6136
   96SOL    HW2 1188   4.085   5.001   3.375  0.3146 -0.2371 -0.9074
   97SOL     OW 1189   6.796   6.243   6.833 -0.4678 -0.2090 -0.3810
   97SOL    HW1 1190   6.836   6.334   6.821  4.4476 -2.0987 -0.6365
   97SOL    HW2 1191   6.762   6.235   6.927 -0.8709  1.7889 -0.2952
   98SOL     OW 1192   3.896   1.641   0.930  0.0728  0.2283 -0.3861
   98SOL    HW1 1193   3.822   1.600   0.877  0.5308  0.6639 -1.3756
   98SOL    HW2 1194   3.926   1.576   1.001  0.2600 -0.8614 -1.4194
   99SOL     OW 1195   1.293   2.965   5.035  0.2472  0.0768  0.1848
   99SOL    HW1 1196   1.359   3.015   5.091  0.3594 -0.4797  0.5548
   99SOL    HW2 1197   1.204   2.965   5.080  0.4497 -0.7780  0.6121
  100SOL     OW 1198   1.606   5.732   5.061 -0.3586 -0.4006 -0.3987
  100SOL    HW1 1199   1.681   5.727   5.127  0.7475 -0.2128 -1.6013
  100SOL    HW2 1200   1.521   5.701   5.104  0.0603  0.9247  1.4839
  101SOL     OW 1201   0.305   1.584   3.347  0.1455  0.0783 -0.4511
  101SOL    HW1 1202   0.339   1.672   3.380 -0.1963 -0.7308  2.3152
  101SOL    HW2 1203   0.347   1.510   3.399 -1.8985 -1.2237 -0.5125
  102SOL     OW 1204   4.380   2.991   6.113 -0.3507  0.6313  0.0501
  102SOL    HW1 1205   4.425   3.049   6.181  1.0717 -2.6686  2.2591
  102SOL    HW2 1206   4.443   2.973   6.038  1.1900 -1.7113  1.7522
  103SOL     OW 1207   3.478   5.487   6.748  0.3644 -0.1068  0.0759
  103SOL    HW1 1208   3.472   5.468   6.650  0.2274  2.0406 -0.3802
  103SOL    HW2 1209   3.533   5.416   6.792  1.6211 -0.3780 -1.7985
  104SOL     OW 1210   0.682   0.103   1.250 -0.1818  0.1163  0.3061
  104SOL    HW1 1211   0.743   0.157   1.307 -0.6356 -0.7178  1.6249
  104SOL    HW2 1212   0.727   0.017   1.225 -0.6027 -0.2664  0.8397
  105SOL     OW 1213   1.324   3.652   6.002  0.0705  0.0774 -0.0987
  105SOL    HW1 1214   1.357   3.732   6.052 -0.4051  0.1511  0.1017
  105SOL    HW2 1215   1.288   3.681   5.913 -1.5528  0.3143  0.5986
  106SOL     OW 1216   1.238   1.705   5.007 -0.3947 -0.3106 -0.3354
  106SOL    HW1 1217   1.190   1.618   4.995  2.2291 -1.6267 -2.3222
  106SOL    HW2 1218   1.258   1.745   4.918  1.5794  0.4718  0.4010
  107SOL     OW 1219   1.925   4.736   0.236  0.2257  0.2834  0.5398
  107SOL    HW1 1220   1.930   4.823   0.186 -0.3122  0.1729  0.2937
  107SOL    HW2 1221   1.929   4.660   0.172  1.1874  0.1046  0.7894
  108SOL     OW 1222   1.298   3.798   2.719  0.2293  0.3333 -0.1613
  108SOL    HW1 1223   1.199   3.798   2.705  0.2766 -1.5903 -0.8973
  108SOL    HW2 1224   1.320   3.736   2.795  0.9714 -1.1165 -1.4980
  109SOL     OW 1225   6.204   6.319   7.014 -0.0607 -0.1239 -0.4255
  109SOL    HW1 1226   6.174   6.253   6.945 -1.0951  2.1167 -2.2611
  109SOL    HW2 1227   6.196   6.411   6.977  0.5504  1.1237  2.3177
  110SOL     OW 1228   4.910   5.705   6.813 -0.0429  0.2399  0.3291
  110SOL    HW1 1229   4.958   5.764   6.878  2.6598 -1.3596 -0.0498
  110SOL    HW2 1230   4.846   5.759   6.760  0.0341  2.1992  2.0974
  111SOL     OW 1231   4.789   2.252   5.806 -0.2308 -0.5189  0.1371
  111SOL    HW1 1232   4.875   2.207   5.829 -0.8638 -2.0221 -0.3099
  111SOL    HW2 1233   4.715   2.214   5.862 -0.7621  0.0841 -0.1431
  112SOL     OW 1234   2.908   0.635   4.052 -0.1348 -0.8377  0.3337
  112SOL    HW1 1235   2.869   0.706   3.995  1.3268  1.1921  1.7188
  112SOL    HW2 1236   2.974   0.582   3.998  0.7833  0.6498 -0.0664
  113SOL     OW 1237   4.573   2.591   4.783 -0.1937 -0.0276  0.3604
  113SOL    HW1 1238   4.539   2.685   4.777  2.3746  0.9501 -0.1873
  113SOL    HW2 1239   4.618   2.567   4.697  3.6820  0.1796  2.1442
  114SOL     OW 1240   1.280   4.060   3.085 -0.4464  0.5029  0.0624
  114SOL    HW1 1241   1.254   3.988   3.149 -0.1572 -1.2156 -1.6559
  114SOL    HW2 1242   1.376   4.085   3.101  0.1640 -1.1439 -0.7244
  115SOL     OW 1243   6.095   6.983   6.772  0.5397  0.7247  0.2386
  115SOL    HW1 1244   6.112   6.884   6.773  0.5362  0.7233  0.1521
  115SOL    HW2 1245   6.155   7.026   6.704 -0.3372  0.6269 -0.6176
  116SOL     OW 1246   4.744   5.269   4.786 -0.4315 -0.4049  0.1369
  116SOL    HW1 1247   4.725   5.191   4.726  0.8163 -1.4159  0.9936
  116SOL    HW2 1248   4.791   5.340   4.734 -1.7780 -0.1087 -0.7094
  117SOL     OW 1249   1.043   6.908   4.313  0.0819 -0.7067  0.2333
  117SOL    HW1 1250   1.142   6.923   4.307 -0.1312  1.4243  0.9579
  117SOL    HW2 1251   1.021   6.815   4.285  2.2108 -1.0042 -0.6503
  118SOL     OW 1252   6.069   3.939   2.943 -0.6076  0.1333  0.1795
  118SOL    HW1 1253   6.159   3.945   2.986 -0.3323 -0.1384 -0.3560
  118SOL    HW2 1254   6.074   3.882   2.861 -1.3163 -0.0708  0.2690
  119SOL     OW 1255   3.945   5.177   0.369  0.2206 -0.1911 -0.1119
  119SOL    HW1 1256   3.999   5.238   0.428 -0.2862  0.7812 -0.6196
  119SOL    HW2 1257   4.002   5.142   0.295  0.7643 -1.1199  0.7199
  120SOL     OW 1258   1.050   0.194   0.215  0.8673 -0.2304 -0.4629
  120SOL    HW1 1259   1.134   0.233   0.252  0.2444  0.0663  0.6665
  120SOL    HW2 1260   1.045   0.212   0.117  1.6733  0.5506 -0.3684
  121SOL     OW 1261   2.113   0.501   5.030  0.6507  0.0905  0.3152
  121SOL    HW1 1262   2.175   0.579   5.037  2.8252 -1.5395  0.5896
  121SOL    HW2 1263   2.114   0.465   4.937 -0.9210  0.7917 -0.0001
  122SOL     OW 1264   4.229   4.659   3.570 -0.2621 -0.5019 -0.7802
  122SOL    HW1 1265   4.175   4.608   3.503  0.6888 -0.1721 -1.8323
  122SOL    HW2 1266   4.319   4.617   3.580 -0.6036 -0.9061  0.7704
  123SOL     OW 1267   0.831   3.297   6.091 -0.4497  0.2294 -0.1619
  123SOL    HW1 1268   0.819   3.389   6.053 -0.6486 -0.5355 -2.0363
  123SOL    HW2 1269   0.867   3.236   6.021  1.0020 -0.8361  1.4386
  124SOL     OW 1270   2.184   6.601   5.044  0.6232  0.2141 -0.4261
  124SOL    HW1 1271   2.247   6.596   4.967  1.4126 -0.6676  0.2583
  124SOL    HW2 1272   2.100   6.552   5.022  1.1197 -0.6221 -0.4832
  125SOL     OW 1273   0.853   1.916   0.493 -0.0363  0.9676 -0.0604
  125SOL    HW1 1274   0.845   1.931   0.592 -1.4205 -2.3021  0.4704
  125SOL    HW2 1275   0.924   1.848   0.476  0.0342  1.3442 -1.2992
  126SOL     OW 1276   6.427   6.647   1.014 -0.0411 -0.8663  0.2216
  126SOL    HW1 1277   6.402   6.564   1.063  0.5470 -1.3853 -0.3420
  126SOL    HW2 1278   6.445   6.625   0.918 -2.5750  0.3527 -0.6179
  127SOL     OW 1279   3.727   3.555   1.991  0.1883 -0.5078 -0.1910
  127SOL    HW1 1280   3.701   3.463   1.960  0.6931 -1.0775  1.0347
  127SOL    HW2 1281   3.809   3.550   2.047 -0.1628  0.6139  0.4664
  128SOL     OW 1282   0.971   6.915   2.808 -0.4786  0.2174  0.0867
  128SOL    HW1 1283   0.899   6.916   2.740 -0.7156  0.7539  0.3355
  128SOL    HW2 1284   0.961   6.835   2.867 -1.1720  0.5551  0.4338
  129SOL     OW 1285   6.188   5.098   0.665 -0.4695  0.1206 -0.3770
  129SOL    HW1 1286   6.165   5.062   0.756 -0.6472  0.5948 -0.2290
  129SOL    HW2 1287   6.104   5.129   0.620 -0.1641  1.7775  0.1242
  130SOL     OW 1288   6.820   6.850   3.967 -0.1948 -0.6085  0.0519
  130SOL    HW1 1289   6.736   6.796   3.971  0.7036 -2.0901 -0.3246
  130SOL    HW2 1290   6.853   6.853   3.873  0.3210 -0.2481  0.2399
  131SOL     OW 1291   1.037   0.841   6.595  0.1722 -0.3362 -0.1065
  131SOL    HW1 1292   0.958   0.851   6.656 -0.3424 -1.5943 -0.5395
  131SOL    HW2 1293   1.015   0.777   6.521  1.5334 -0.5502 -0.3596
  132SOL     OW 1294   4.592   1.100   6.351 -0.0750 -0.2804 -0.3562
  132SOL    HW1 1295   4.636   1.093   6.440  0.5746  0.6594 -0.5982
  132SOL    HW2 1296   4.556   1.010   6.325 -0.4377 -0.5248  0.9271
  133SOL     OW 1297   1.673   5.790   6.372 -0.0027 -0.0330 -0.2398
  133SOL    HW1 1298   1.682   5.832   6.462  2.3357  0.4754 -0.6407
  133SOL    HW2 1299   1.585   5.815   6.332 -1.6320 -1.2352  2.3236
  134SOL     OW 1300   6.210   1.810   5.633 -0.3217 -0.1701 -0.2708
  134SOL    HW1 1301   6.290   1.823   5.691 -0.0852  0.7529 -0.7767
  134SOL    HW2 1302   6.172   1.899   5.608 -0.2031 -0.5236 -1.8111
  135SOL     OW 1303   1.804   0.416   1.293 -0.0115 -0.6992  0.2261
  135SOL    HW1 1304   1.770   0.509   1.307  0.8903 -0.5103  1.2653
  135SOL    HW2 1305   1.726   0.354   1.283 -0.6475  0.3000 -1.7167
  136SOL     OW 1306   4.339   2.419   6.861 -0.6731 -0.3885  0.2027
  136SOL    HW1 1307   4.381   2.380   6.943 -0.7570 -4.2527 -1.4106
  136SOL    HW2 1308   4.244   2.388   6.853 -0.9279  0.5827 -0.9862
  137SOL     OW 1309   3.441   4.872   1.717  0.1485 -0.1791 -0.7042
  137SOL    HW1 1310   3.347   4.898   1.694 -0.2976  1.8158  2.7098
  137SOL    HW2 1311   3.440   4.786   1.768  0.2118 -0.2957 -0.8995
  138SOL     OW 1312   4.480   5.812   2.982 -0.2063  0.2284 -0.7195
  138SOL    HW1 1313   4.551   5.881   2.968 -0.8870  1.0947  0.0116
  138SOL    HW2 1314   4.430   5.797   2.897 -0.7964  1.4899 -0.6118
  139SOL     OW 1315   3.780   6.134   3.862 -0.4698 -0.0449 -0.5718
  139SOL    HW1 1316   3.759   6.230   3.845 -1.6014  0.8482  4.3818
  139SOL    HW2 1317   3.708   6.077   3.822 -1.4929  1.4283 -0.9309
  140SOL     OW 1318   1.283   1.754   1.250 -0.0401  0.1706 -0.2793
  140SOL    HW1 1319   1.197   1.706   1.265  1.1703 -2.2034 -0.4521
  140SOL    HW2 1320   1.294   1.774   1.153 -0.1102 -0.1010 -0.3425
  141SOL     OW 1321   0.392   4.559   1.793  0.3054  0.3738 -0.0092
  141SOL    HW1 1322   0.462   4.602   1.737 -0.2971  0.4653 -0.7169
  141SOL    HW2 1323   0.332   4.629   1.831  0.7405  0.3147  0.8069
  142SOL     OW 1324   5.966   4.439   5.389 -0.6318  0.3005  0.0492
  142SOL    HW1 1325   5.873   4.475   5.396 -0.7969  0.0375 -0.7038
  142SOL    HW2 1326   6.004   4.463   5.300  0.6905  1.9489  0.9942
  143SOL     OW 1327   2.123   6.547   0.953  0.3081 -0.5423  0.3133
  143SOL    HW1 1328   2.139   6.516   0.859 -0.0044 -1.4634  0.5592
  143SOL    HW2 1329   2.037   6.509   0.987  0.8843 -0.9982  1.3074
  144SOL     OW 1330   4.333   6.896   3.465  0.3609 -0.5949 -0.8654
  144SOL    HW1 1331   4.431   6.876   3.463  0.3302 -1.0760  0.9074
  144SOL    HW2 1332   4.314   6.964   3.535 -0.9375 -3.0718  1.3684
  145SOL     OW 1333   2.244   1.715   3.070 -0.2727 -0.2154  0.1931
  145SOL    HW1 1334   2.240   1.719   3.169  0.6306  1.3930  0.1906
  145SOL    HW2 1335   2.336   1.738   3.039  0.3693 -3.7037 -0.9369
  146SOL     OW 1336   7.007   6.861   0.383 -0.3897 -0.0188  0.4893
  146SOL    HW1 1337   6.981   6.837   0.289  1.1357  2.7276 -0.7834
  146SOL    HW2 1338   6.932   6.841   0.445 -1.6269 -1.5015 -1.3764
  147SOL     OW 1339   2.622   0.422   2.864  0.0515 -0.4829 -0.0100
  147SOL    HW1 1340   2.524   0.435   2.872  0.2781  1.0256  0.8822
  147SOL    HW2 1341   2.642   0.341   2.809 -1.6732 -0.8340 -0.1520
  148SOL     OW 1342   3.182   1.746   3.573  0.0425  0.4130  0.6041
  148SOL    HW1 1343   3.191   1.806   3.653  0.3745 -0.1644  1.0119
  148SOL    HW2 1344   3.125   1.790   3.504  0.0709  1.0854  1.0012
  149SOL     OW 1345   1.176   2.025   3.432  0.0215  0.0636  0.2748
  149SOL    HW1 1346   1.181   1.988   3.339 -3.5535  0.3577 -0.2011
  149SOL    HW2 1347   1.154   1.951   3.496  0.7124  0.1391  0.6002
  150SOL     OW 1348   0.825   6.517   1.693 -0.7036 -0.7131 -0.2012
  150SOL    HW1 1349   0.823   6.562   1.604 -1.1450 -2.1990 -0.9675
  150SOL    HW2 1350   0.737   6.531   1.739 -1.3219 -1.8074 -0.9895
  151SOL     OW 1351   6.973   3.893   1.300 -0.3085  0.5762  0.1580
  151SOL    HW1 1352   6.970   3.955   1.379  2.2013 -0.7369  1.4268
  151SOL    HW2 1353   6.966   3.799   1.332 -1.5137  0.0772 -1.4735
  152SOL     OW 1354   6.558   2.046   4.371 -0.3217  0.4386  0.0053
  152SOL    HW1 1355   6.590   2.087   4.456  0.0860 -0.2904  0.2162
  152SOL    HW2 1356   6.496   1.970   4.391  0.4303 -0.2838 -0.2957
  153SOL     OW 1357   1.299   5.235   3.065  0.1285  0.1960 -0.7747
  153SOL    HW1 1358   1.380   5.187   3.031 -0.2855 -0.9986 -0.1309
  153SOL    HW2 1359   1.252   5.177   3.132  0.3572  2.0670  1.0785
  154SOL     OW 1360   4.427   6.886   0.335 -0.3555  0.2120 -0.2019
  154SOL    HW1 1361   4.357   6.877   0.264 -1.3051  2.4618  0.3464
  154SOL    HW2 1362   4.488   6.962   0.311  0.4056 -0.1588  0.5304
  155SOL     OW 1363   1.807   6.702   5.909 -0.1329  0.9266  0.1969
  155SOL    HW1 1364   1.846   6.657   5.829  0.6328  2.5359 -0.3832
  155SOL    HW2 1365   1.808   6.639   5.987  2.4241  0.4728 -0.1335
  156SOL     OW 1366   1.573   2.399   1.741  0.3417 -0.0487  0.0567
  156SOL    HW1 1367   1.480   2.425   1.766  0.2198 -1.4093  1.1981
  156SOL    HW2 1368   1.628   2.389   1.825  1.0221 -0.9842 -0.4826
  157SOL     OW 1369   0.395   5.285   0.029 -0.6010  0.4814  0.2247
  157SOL    HW1 1370   0.333   5.235  -0.031 -0.0952 -1.2352  1.0622
  157SOL    HW2 1371   0.380   5.256   0.123  1.3302  0.1129  0.4648
  158SOL     OW 1372   1.047   0.811   3.375  0.4850 -0.2145  0.6012
  158SOL    HW1 1373   1.006   0.901   3.382  0.7613 -0.1170  0.9686
  158SOL    HW2 1374   1.012   0.752   3.448  0.1523 -0.4633  0.2404
  159SOL     OW 1375   4.934   5.431   2.779  0.3665  0.0925 -0.3025
  159SOL    HW1 1376   4.917   5.524   2.746  0.1760  0.6610  1.2909
  159SOL    HW2 1377   5.025   5.427   2.819 -0.2585  0.0930  1.1874
  160SOL     OW 1378   3.184   6.678   4.249  0.1000  0.1450 -0.1280
  160SOL    HW1 1379   3.240   6.611   4.298  0.1947  0.6893  0.5132
  160SOL    HW2 1380   3.175   6.761   4.304 -0.5449  0.4246 -0.6418
  161SOL     OW 1381   0.825   5.430   5.217 -0.7961  0.1288  0.0020
  161SOL    HW1 1382   0.741   5.476   5.190 -0.0675  2.0097  0.7273
  161SOL    HW2 1383   0.900   5.497   5.220  0.3861 -1.1691  0.9002
  162SOL     OW 1384   5.965   5.001   5.307 -0.1516 -0.8900  0.1559
  162SOL    HW1 1385   5.897   4.950   5.361 -0.8682 -0.4621 -0.3310
  162SOL    HW2 1386   6.033   5.041   5.369 -1.2395  0.0067  0.8159
  163SOL     OW 1387   5.951   5.803   6.270  0.5969  0.0380 -0.1176
  163SOL    HW1 1388   6.011   5.742   6.218  0.1480  1.1120 -1.9612
  163SOL    HW2 1389   5.908   5.868   6.209 -3.0583 -1.0974  0.9925
  164SOL     OW 1390   1.416   1.726   6.200 -0.3148 -0.4497 -0.2272
  164SOL    HW1 1391   1.433   1.682   6.288  1.4192  0.5049 -0.0309
  164SOL    HW2 1392   1.490   1.791   6.181 -0.7240 -0.5316 -2.3249
  165SOL     OW 1393   3.576   1.091   3.077 -0.1116 -0.3030 -0.1214
  165SOL    HW1 1394   3.634   1.168   3.104 -0.3561 -0.5361  1.1311
  165SOL    HW2 1395   3.568   1.027   3.153 -1.9378 -0.3214 -0.2812
  166SOL     OW 1396   2.229   1.371   2.727  0.0393  0.1516  0.5667
  166SOL    HW1 1397   2.153   1.435   2.713  0.8833  0.6561 -2.4936
  166SOL    HW2 1398   2.230   1.304   2.653  0.8118 -1.7528  2.2278
  167SOL     OW 1399   1.912   6.735   6.987 -0.1210 -0.0826  0.2295
  167SOL    HW1 1400   1.849   6.739   6.910 -0.6995 -1.1284  0.6158
  167SOL    HW2 1401   1.962   6.648   6.985  2.8987  1.5321 -1.2208
  168SOL     OW 1402   5.196   6.351   1.707  0.1908 -0.0647 -0.3579
  168SOL    HW1 1403   5.274   6.396   1.749  1.1250 -1.2104 -0.8205
  168SOL    HW2 1404   5.116   6.360   1.767  0.7169  0.9079  0.2286
  169SOL     OW 1405   4.199   5.709   4.028  0.2461  0.1469  0.0999
  169SOL    HW1 1406   4.129   5.698   4.098 -0.0484 -0.5968 -0.2995
  169SOL    HW2 1407   4.284   5.664   4.057 -0.2237 -1.1737 -0.4923
  170SOL     OW 1408   3.369   3.987   2.285 -0.7650 -0.3579  0.0451
  170SOL    HW1 1409   3.438   3.974   2.213 -1.3564  1.8017 -0.9879
  170SOL    HW2 1410   3.366   3.905   2.343  1.7099 -1.0453 -0.6670
  171SOL     OW 1411   3.748   2.606   5.737  0.0517  0.2399 -0.0600
  171SOL    HW1 1412   3.767   2.515   5.698  1.8214  0.4380  0.2688
  171SOL    HW2 1413   3.764   2.604   5.836 -1.6018  0.4898  0.2369
  172SOL     OW 1414   4.160   4.470   6.274 -0.4936 -0.1919  0.1096
  172SOL    HW1 1415   4.083   4.432   6.326  0.1456 -1.4154  0.1886
  172SOL    HW2 1416   4.204   4.542   6.328 -1.5316  0.4665  0.0918
  173SOL     OW 1417   0.732   6.153   5.114 -0.4691 -0.2045 -0.3919
  173SOL    HW1 1418   0.821   6.107   5.121 -0.5383 -0.1852  0.6932
  173SOL    HW2 1419   0.721   6.188   5.021  0.0296 -1.4677 -0.9562
  174SOL     OW 1420   3.330   1.823   4.150  0.3128  0.5833 -0.0286
  174SOL    HW1 1421   3.369   1.914   4.140  1.1230  0.2043 -0.4127
  174SOL    HW2 1422   3.236   1.823   4.115  0.3373  1.2508 -0.1018
  175SOL     OW 1423   4.226   2.236   3.866 -0.4468 -0.2347 -0.3263
  175SOL    HW1 1424   4.280   2.310   3.826 -0.1953 -0.3403 -0.1862
  175SOL    HW2 1425   4.217   2.250   3.964 -1.4006  0.2331 -0.4712
  176SOL     OW 1426   4.680   1.168   5.606  0.3694 -0.0086  0.0651
  176SOL    HW1 1427   4.738   1.125   5.537  0.0540  0.7788 -0.7066
  176SOL    HW2 1428   4.690   1.119   5.693  0.7022 -1.0699 -0.5524
  177SOL     OW 1429   3.274   4.974   2.278 -0.2627  0.3723  0.3481
  177SOL    HW1 1430   3.374   4.967   2.282 -0.3587 -2.0266 -0.5218
  177SOL    HW2 1431   3.247   5.069   2.298  2.1983  1.2295 -0.0943
  178SOL     OW 1432   5.806   3.037   2.746 -0.0255  0.0017  0.2104
  178SOL    HW1 1433   5.854   2.954   2.718 -0.2086 -0.3904  1.0120
  178SOL    HW2 1434   5.871   3.102   2.786 -0.0417 -0.2179  0.5996
  179SOL     OW 1435   1.419   2.597   2.448 -0.7225  0.5128  0.0945
  179SOL    HW1 1436   1.447   2.512   2.405  0.1611 -0.2293  2.0249
  179SOL    HW2 1437   1.471   2.673   2.410  0.6087 -0.2268  0.3724
  180SOL     OW 1438   5.432   4.203   3.944  0.3661 -0.0988 -0.7531
  180SOL    HW1 1439   5.454   4.138   3.870  1.6172  1.2925 -1.6539
  180SOL    HW2 1440   5.445   4.296   3.911  0.9496  0.5625  1.2496
  181SOL     OW 1441   3.981   3.069   3.958 -0.4295  0.0936 -0.2102
  181SOL    HW1 1442   3.917   2.996   3.936 -1.0318  1.1507 -2.2915
  181SOL    HW2 1443   3.958   3.108   4.047 -1.9531 -0.3548 -0.3705
  182SOL     OW 1444   2.731   1.690   0.406 -0.1386  0.2209  0.3827
  182SOL    HW1 1445   2.696   1.776   0.368  0.9622  0.8981  0.8423
  182SOL    HW2 1446   2.791   1.646   0.339 -0.9418 -0.3625  0.0299
  183SOL     OW 1447   2.228   0.981   6.665  0.0160  0.3447  0.3613
  183SOL    HW1 1448   2.314   0.931   6.652 -0.8237 -1.1844  0.4567
  183SOL    HW2 1449   2.152   0.917   6.661 -1.0892  1.5879  0.9170
  184SOL     OW 1450   5.643   0.814   5.821  0.3928 -0.0007  0.0807
  184SOL    HW1 1451   5.582   0.847   5.894 -0.0455 -1.3438  0.3534
  184SOL    HW2 1452   5.738   0.825   5.850  0.2199 -1.0294  1.1256
  185SOL     OW 1453   6.552   0.130   1.489  0.4136  0.0236 -0.1344
  185SOL    HW1 1454   6.490   0.204   1.466 -0.7242 -1.0988 -0.8465
  185SOL    HW2 1455   6.647   0.161   1.481 -0.0313  1.4517 -0.1201
  186SOL     OW 1456   0.792   4.910   3.014 -0.1166 -0.1981  0.4764
  186SOL    HW1 1457   0.757   4.849   3.085 -0.1518 -0.6393  0.0836
  186SOL    HW2 1458   0.880   4.875   2.980  0.1122  0.2449  0.6029
  187SOL     OW 1459   4.415   5.015   6.056  0.4046 -0.4647  0.3648
  187SOL    HW1 1460   4.353   4.984   5.984 -0.7124 -0.8847  1.4872
  187SOL    HW2 1461   4.445   5.109   6.035 -0.8672 -0.1268 -0.0211
  188SOL     OW 1462   3.625   3.720   3.923 -0.2322  0.5112 -0.2818
  188SOL    HW1 1463   3.585   3.775   3.849 -1.4028  1.0829  0.7521
  188SOL    HW2 1464   3.725   3.729   3.920 -0.1942 -0.1271 -2.2834
  189SOL     OW 1465   6.141   6.035   7.000  0.2227 -0.1027  0.1742
  189SOL    HW1 1466   6.172   5.940   7.003  1.0559  0.1924  1.9393
  189SOL    HW2 1467   6.158   6.079   7.088  0.0082  1.7470 -0.6618
  190SOL     OW 1468   5.120   1.212   0.437 -0.0851 -0.1808 -0.1900
  190SOL    HW1 1469   5.130   1.248   0.530  0.4173  1.8903 -0.9966
  190SOL    HW2 1470   5.031   1.168   0.428 -0.5839  0.5467  0.9630
  191SOL     OW 1471   6.642   5.637   5.315 -0.5220 -0.2377 -0.1085
  191SOL    HW1 1472   6.560   5.636   5.372  0.9985  0.2479  2.2049
  191SOL    HW2 1473   6.681   5.729   5.315  0.2977 -0.5768 -0.7935
  192SOL     OW 1474   2.868   1.759   5.387  0.7785 -0.0804  0.1564
  192SOL    HW1 1475   2.846   1.731   5.480  0.3014 -1.4634 -0.3515
  192SOL    HW2 1476   2.819   1.844   5.366  1.0476  0.3536  1.2119
  193SOL     OW 1477   1.320   4.023   2.244 -0.3989 -0.5995 -0.6384
  193SOL    HW1 1478   1.389   3.978   2.302 -0.0088  1.2595  0.4258
  193SOL    HW2 1479   1.353   4.027   2.150  1.1758  0.5946 -0.0787
  194SOL     OW 1480   5.902   2.770   5.568  0.2375  0.1088  0.4052
  194SOL    HW1 1481   5.922   2.830   5.491  1.2416 -0.5987  0.0891
  194SOL    HW2 1482   5.828   2.708   5.544  1.5198 -1.1161 -0.5963
  195SOL     OW 1483   2.125   5.849   3.875 -0.3660 -0.0006  0.0880
  195SOL    HW1 1484   2.075   5.889   3.798 -1.7694 -1.6972  0.0707
  195SOL    HW2 1485   2.061   5.830   3.950  0.3339 -1.6316  0.3121
  196SOL     OW 1486   0.234   4.331   2.528  0.1021 -0.6835 -0.3693
  196SOL    HW1 1487   0.299   4.360   2.598 -0.1162 -1.4582  0.1622
  196SOL    HW2 1488   0.258   4.374   2.441  1.0406 -0.5907 -0.0771
  197SOL     OW 1489   3.818   2.958   1.299  0.1406 -0.5184  0.5555
  197SOL    HW1 1490   3.873   3.041   1.301 -0.0392 -0.2564 -2.2992
  197SOL    HW2 1491   3.878   2.878   1.295  0.3174 -0.6399  3.4403
  198SOL     OW 1492   4.857   1.410   6.573 -0.3141  0.3758 -0.4978
  198SOL    HW1 1493   4.911   1.470   6.514 -1.1437 -0.8543 -2.6024
  198SOL    HW2 1494   4.781   1.461   6.614  0.3452  1.2684 -0.3718
  199SOL     OW 1495   2.794   1.783   4.097  0.0214 -0.3052  0.5892
  199SOL    HW1 1496   2.758   1.763   4.006  0.0090  0.1924  0.4838
  199SOL    HW2 1497   2.723   1.828   4.151  0.8745  1.8914 -0.0410
  200SOL     OW 1498   5.003   2.170   4.935 -0.1722 -0.0888 -0.3163
  200SOL    HW1 1499   4.906   2.193   4.944 -0.2524 -0.5900  0.1308
  200SOL    HW2 1500   5.026   2.159   4.839 -0.5413  0.1057 -0.4278
  201SOL     OW 1501   4.873   6.639   2.037  0.3663  0.1671 -0.4352
  201SOL    HW1 1502   4.839   6.680   2.121 -0.3913 -0.8267 -0.2389
  201SOL    HW2 1503   4.816   6.669   1.960 -1.2085 -1.6779 -0.0756
  202SOL     OW 1504   3.697   6.661   5.372 -0.5000  0.0440 -0.1635
  202SOL    HW1 1505   3.758   6.594   5.415 -0.6407  1.4260  2.3990
  202SOL    HW2 1506   3.606   6.654   5.412 -0.7031  1.2536 -0.3672
  203SOL     OW 1507   6.939   2.476   2.142 -0.6020 -0.4943 -0.0738
  203SOL    HW1 1508   6.886   2.533   2.204 -1.2440  0.0733 -1.1072
  203SOL    HW2 1509   6.879   2.442   2.069 -0.0695 -1.9160  0.1364
  204SOL     OW 1510   3.100   0.512   3.889 -0.7268  0.1223  0.0939
  204SOL    HW1 1511   3.092   0.562   3.803 -0.4739  1.4458  0.8053
  204SOL    HW2 1512   3.196   0.507   3.916 -0.9551  1.8216  1.4407
  205SOL     OW 1513   5.562   4.865   4.561  0.0182  0.6521  0.5170
  205SOL    HW1 1514   5.523   4.882   4.651 -0.4438  0.0915  0.4334
  205SOL    HW2 1515   5.503   4.801   4.511  1.0129 -0.1812  0.3660
  206SOL     OW 1516   0.299   2.726   2.055  0.0506 -0.3521  0.4841
  206SOL    HW1 1517   0.351   2.733   1.970  0.1919 -0.1937  0.5836
  206SOL    HW2 1518   0.201   2.723   2.034 -0.0652  2.0708  0.4176
  207SOL     OW 1519   4.721   2.945   5.108  0.0363 -0.7466  0.6777
  207SOL    HW1 1520   4.667   2.880   5.163  0.1608 -0.2050  1.4613
  207SOL    HW2 1521   4.744   3.024   5.164  0.3860 -0.2893 -0.0992
  208SOL     OW 1522   0.271   1.058   1.437 -0.6747  0.0576  0.5515
  208SOL    HW1 1523   0.237   0.990   1.372 -3.7487  0.8050  1.2544
  208SOL    HW2 1524   0.269   1.149   1.396  2.0519  0.0113  0.1177
  209SOL     OW 1525   2.613   6.891   3.724 -0.2310 -0.1366  0.0624
  209SOL    HW1 1526   2.626   6.990   3.721 -0.4798 -0.0167  1.6613
  209SOL    HW2 1527   2.666   6.854   3.801  0.7311 -1.4080 -1.1731
  210SOL     OW 1528   1.650   2.538   4.158  0.2442 -0.6599  0.2483
  210SOL    HW1 1529   1.720   2.535   4.086  1.0934 -0.6319  1.0547
  210SOL    HW2 1530   1.685   2.590   4.236 -1.1051  0.3205  0.2351
  211SOL     OW 1531   6.617   5.905   6.958 -0.8439  0.6761 -0.3865
  211SOL    HW1 1532   6.661   5.987   6.993 -2.6251  0.8107  1.7410
  211SOL    HW2 1533   6.659   5.879   6.871  1.5329  2.2843  0.1956
  212SOL     OW 1534   6.451   3.393   5.466  0.4527  0.7144 -0.5335
  212SOL    HW1 1535   6.393   3.398   5.385 -1.1208 -0.0459  0.4882
  212SOL    HW2 1536   6.529   3.334   5.447 -0.1138  0.2098 -1.3877
  213SOL     OW 1537   0.172   1.119   2.567 -0.3134 -0.2340  0.1275
  213SOL    HW1 1538   0.245   1.095   2.504  1.7022  0.0864  2.2175
  213SOL    HW2 1539   0.172   1.217   2.584 -0.7912 -0.3128  0.6392
  214SOL     OW 1540   4.709   4.176   4.858 -0.1865  0.1826 -0.3127
  214SOL    HW1 1541   4.730   4.106   4.790 -1.5052  1.2038 -1.8216
  214SOL    HW2 1542   4.670   4.256   4.813  1.2417  1.9115  1.3575
  215SOL     OW 1543   4.920   3.810   2.450 -0.3532 -0.4058 -0.4004
  215SOL    HW1 1544   4.971   3.752   2.514  0.7395 -0.7618 -1.5397
  215SOL    HW2 1545   4.919   3.766   2.360  1.0125  1.5585 -1.4457
  216SOL     OW 1546   1.071   2.821   0.557 -0.6583 -0.3113  0.5182
  216SOL    HW1 1547   1.165   2.813   0.523 -0.5660 -1.8724  1.0558
  216SOL    HW2 1548   1.064   2.898   0.620 -0.2958  1.2211 -1.2351
  217SOL     OW 1549   5.289   5.280   6.461  0.1496  0.1262 -0.6181
  217SOL    HW1 1550   5.241   5.243   6.381  0.5249 -0.1299 -0.7266
  217SOL    HW2 1551   5.264   5.228   6.542 -0.7682  0.8172 -0.4342
  218SOL     OW 1552   1.289   3.345   0.509  0.0454  0.0676  0.2714
  218SOL    HW1 1553   1.215   3.322   0.572 -0.1051  0.6180  0.3052
  218SOL    HW2 1554   1.351   3.411   0.552 -0.4332  0.9690 -0.3718
  219SOL     OW 1555   4.080   5.114   5.611  0.0114 -0.4647 -0.3201
  219SOL    HW1 1556   4.007   5.151   5.669  0.2481  0.0221 -0.3340
  219SOL    HW2 1557   4.063   5.016   5.596 -0.2810 -0.5051  0.2223
  220SOL     OW 1558   4.496   4.618   5.275  0.6342 -0.6354  0.5745
  220SOL    HW1 1559   4.508   4.553   5.349  2.1844 -0.7261  0.2629
  220SOL    HW2 1560   4.438   4.577   5.204  0.0513 -0.9470  1.2148
  221SOL     OW 1561   5.033   0.851   0.360  0.6089 -0.4083 -0.4641
  221SOL    HW1 1562   5.116   0.840   0.307  0.5944 -0.7257 -0.4244
  221SOL    HW2 1563   4.983   0.932   0.328  1.5282  0.5032  0.3110
  222SOL     OW 1564   4.060   6.248   5.378 -0.4529 -0.9804  0.9956
  222SOL    HW1 1565   4.013   6.312   5.318 -0.9255 -0.2427  2.1197
  222SOL    HW2 1566   4.065   6.158   5.334  0.2640 -0.1849 -0.6207
  223SOL     OW 1567   4.064   6.363   2.367  0.7363 -0.1354  0.5378
  223SOL    HW1 1568   4.052   6.278   2.418  1.1955 -0.8890 -0.5440
  223SOL    HW2 1569   4.161   6.387   2.364  0.5283  0.9478  1.5981
  224SOL     OW 1570   5.508   5.993   4.956 -0.4026 -0.4074  0.3300
  224SOL    HW1 1571   5.517   5.895   4.934 -0.5869 -0.4748  0.5499
  224SOL    HW2 1572   5.558   6.047   4.888 -0.7667 -0.6278 -0.1202
  225SOL     OW 1573   2.315   4.652   4.052 -0.5352 -0.1612 -0.1075
  225SOL    HW1 1574   2.312   4.733   3.993 -0.8329 -0.0043  0.1212
  225SOL    HW2 1575   2.296   4.678   4.146 -0.3749 -0.4614  0.0110
  226SOL     OW 1576   4.332   6.867   0.042  0.2225 -0.5860  0.1540
  226SOL    HW1 1577   4.233   6.870   0.058  0.4378 -0.8763  1.7304
  226SOL    HW2 1578   4.359   6.776   0.012  0.2993 -1.3024  2.2144
  227SOL     OW 1579   0.360   1.600   6.314 -0.7597  0.0723  0.1873
  227SOL    HW1 1580   0.291   1.537   6.279  0.9028 -1.2014 -0.9715
  227SOL    HW2 1581   0.375   1.582   6.411 -0.6676 -1.0056 -0.0114
  228SOL     OW 1582   2.156   0.151   5.580  0.4622 -0.1044  0.1785
  228SOL    HW1 1583   2.095   0.129   5.656 -0.7061  0.5378 -0.5308
  228SOL    HW2 1584   2.149   0.079   5.511  0.4736 -0.0139  0.0831
  229SOL     OW 1585   6.181   3.642   1.656  0.1308  0.2732 -0.0862
  229SOL    HW1 1586   6.219   3.721   1.705  1.8816 -0.1218 -0.7314
  229SOL    HW2 1587   6.232   3.560   1.681 -0.2088 -0.2597 -1.1061
  230SOL     OW 1588   3.452   2.052   0.968 -0.8807  0.0487 -1.0296
  230SOL    HW1 1589   3.402   1.987   0.911  1.1788 -0.0731 -2.8221
  230SOL    HW2 1590   3.500   2.118   0.910  1.0407  0.1524  0.5663
  231SOL     OW 1591   6.729   1.156   2.812  0.2232 -0.0532  0.5085
  231SOL    HW1 1592   6.671   1.077   2.831  0.4715 -0.5085 -0.5515
  231SOL    HW2 1593   6.697   1.202   2.730  0.3090  0.7460  0.9066
  232SOL     OW 1594   6.738   0.494   1.730  0.0812 -0.1294 -0.7492
  232SOL    HW1 1595   6.818   0.551   1.750 -1.1432  2.2352 -2.0862
  232SOL    HW2 1596   6.656   0.540   1.765 -0.8305 -1.9059 -0.4620
  233SOL     OW 1597   4.748   1.599   2.246 -0.0017 -0.0100  1.0543
  233SOL    HW1 1598   4.705   1.641   2.326  0.2427  0.6605  0.8354
  233SOL    HW2 1599   4.739   1.500   2.252  0.9469 -0.0440  2.4585
  234SOL     OW 1600   4.685   1.827   6.551 -0.0438  0.3210 -0.4243
  234SOL    HW1 1601   4.593   1.824   6.514 -0.3944 -0.2059  0.4565
  234SOL    HW2 1602   4.702   1.745   6.606  0.7241  0.7106 -0.0562
  235SOL     OW 1603   6.928   0.002   6.481  0.4039  0.9372  0.1714
  235SOL    HW1 1604   6.867   0.077   6.503  1.2387  1.2112  1.6424
  235SOL    HW2 1605   7.014   0.012   6.532  0.5293 -1.0021  0.4187
  236SOL     OW 1606   1.930   3.631   0.602  0.2098 -0.2905  0.0382
  236SOL    HW1 1607   1.952   3.667   0.692  0.5236 -1.0103  0.2573
  236SOL    HW2 1608   1.993   3.556   0.580 -0.5317 -0.8096 -0.3365
  237SOL     OW 1609   3.183   5.496   4.372  0.5103  0.5792 -0.4486
  237SOL    HW1 1610   3.088   5.493   4.404 -0.0296  0.2142 -2.0272
  237SOL    HW2 1611   3.235   5.421   4.413 -0.4017 -0.4409 -1.1090
  238SOL     OW 1612   1.524   5.851   0.700  0.1911 -0.3785 -0.3324
  238SOL    HW1 1613   1.542   5.775   0.639  0.4464 -1.2927  0.8413
  238SOL    HW2 1614   1.467   5.821   0.776  0.0697  0.6619  0.0116
  239SOL     OW 1615   3.150   5.128   0.309  0.0280 -0.2027 -0.1574
  239SOL    HW1 1616   3.187   5.037   0.289  0.1144  0.0012 -0.9620
  239SOL    HW2 1617   3.062   5.139   0.264  0.2168  0.2666 -0.4242
  240SOL     OW 1618   2.310   1.905   2.610 -0.7063 -0.0082 -0.1834
  240SOL    HW1 1619   2.252   1.979   2.644  3.1897  2.5635  1.4411
  240SOL    HW2 1620   2.337   1.925   2.515 -0.4600  0.1042 -0.0887
  241SOL     OW 1621   3.829   4.958   4.436 -0.1153 -0.1861  0.6541
  241SOL    HW1 1622   3.764   4.941   4.510  0.1001  0.5902  1.0401
  241SOL    HW2 1623   3.917   4.916   4.458  0.4956  1.5471  1.7273
  242SOL     OW 1624   5.735   6.971   0.121  0.2995 -0.1070 -0.0877
  242SOL    HW1 1625   5.791   6.929   0.192  2.0257  0.8545 -0.8036
  242SOL    HW2 1626   5.793   7.028   0.063 -1.2804  0.1474 -1.4945
  243SOL     OW 1627   6.372   1.007   4.875  0.3417  0.0674 -0.3350
  243SOL    HW1 1628   6.292   0.978   4.928  2.3921 -1.6084  2.1535
  243SOL    HW2 1629   6.373   0.960   4.787 -0.4284 -1.4452  0.4242
  244SOL     OW 1630   3.513   2.977   2.146  0.1294  0.3614  0.3325
  244SOL    HW1 1631   3.520   2.989   2.245 -1.7494  0.7307  0.4619
  244SOL    HW2 1632   3.457   2.897   2.126  0.1884  0.4996 -0.4257
  245SOL     OW 1633   0.459   3.264   0.159 -0.0088 -0.4505  0.5321
  245SOL    HW1 1634   0.547   3.285   0.202 -0.2827  0.8415  0.4966
  245SOL    HW2 1635   0.474   3.242   0.062  0.3555 -1.1076  0.7283
  246SOL     OW 1636   0.347   4.448   3.964  0.3686  0.4646  0.5486
  246SOL    HW1 1637   0.415   4.415   4.030  0.3138  3.0041  1.9929
  246SOL    HW2 1638   0.260   4.465   4.012 -0.7893 -0.9302 -0.9191
  247SOL     OW 1639   5.548   0.358   0.679 -0.3096 -0.6285  0.2753
  247SOL    HW1 1640   5.617   0.292   0.707  0.2059  0.1951  1.0056
  247SOL    HW2 1641   5.579   0.405   0.596 -0.6353 -1.2252 -0.1914
  248SOL     OW 1642   1.015   0.713   6.349  0.0517 -0.4288  0.0880
  248SOL    HW1 1643   1.049   0.628   6.310 -0.0040 -0.8034  0.8282
  248SOL    HW2 1644   1.050   0.791   6.298  1.0886 -0.8505  0.1457
  249SOL     OW 1645   5.878   0.435   5.870 -0.3173  0.4448 -0.3177
  249SOL    HW1 1646   5.869   0.335   5.870 -0.0708  0.4223 -0.2951
  249SOL    HW2 1647   5.974   0.460   5.853 -0.3462  0.6745 -0.1407
  250SOL     OW 1648   5.721   0.360   6.864 -0.0866 -0.8315  0.1689
  250SOL    HW1 1649   5.705   0.451   6.903 -0.4947 -1.5989  1.8809
  250SOL    HW2 1650   5.635   0.310   6.861 -0.0358 -0.8498 -1.6608
  251SOL     OW 1651   3.097   4.393   6.255  0.8591 -0.5100 -0.0363
  251SOL    HW1 1652   3.089   4.354   6.163  0.5645  0.8164 -0.6035
  251SOL    HW2 1653   3.194   4.403   6.278  0.9378 -1.4401  0.0756
  252SOL     OW 1654   2.562   0.896   5.394  0.3726  0.6528 -0.5118
  252SOL    HW1 1655   2.553   0.820   5.330 -1.3892  0.8345 -0.5280
  252SOL    HW2 1656   2.627   0.871   5.466  0.5015 -0.5181 -1.0095
  253SOL     OW 1657   1.914   5.902   5.108 -0.0930 -0.0702  0.1968
  253SOL    HW1 1658   1.868   5.854   5.182 -0.5133  0.2629  0.1554
  253SOL    HW2 1659   1.852   5.969   5.068  0.4487  0.4376  0.1847
  254SOL     OW 1660   5.900   1.596   4.759 -0.6349 -0.0811  0.8439
  254SOL    HW1 1661   5.992   1.616   4.792 -0.5268  2.2541 -0.6582
  254SOL    HW2 1662   5.878   1.656   4.682 -2.9503 -1.4698  0.3079
  255SOL     OW 1663   0.798   3.017   1.494 -0.0038  0.9006  0.0221
  255SOL    HW1 1664   0.870   2.966   1.542 -0.1087  0.7511  0.0233
  255SOL    HW2 1665   0.736   3.058   1.561 -1.0009 -0.5200  0.0351
  256SOL     OW 1666   2.676   1.213   4.890  0.4663  0.4093  0.1920
  256SOL    HW1 1667   2.742   1.279   4.853 -0.5582  0.7067 -1.2261
  256SOL    HW2 1668   2.724   1.140   4.937  1.7469  1.1377  0.0670
  257SOL     OW 1669   2.716   4.972   5.289 -0.2192 -0.8433  0.3909
  257SOL    HW1 1670   2.772   5.017   5.219  2.8540 -2.1825  1.7948
  257SOL    HW2 1671   2.705   5.033   5.367 -0.6716 -0.6238  0.1623
  258SOL     OW 1672   4.517   1.175   3.628  0.2425  0.1318 -0.0982
  258SOL    HW1 1673   4.523   1.267   3.589  0.5962  0.4349  0.6614
  258SOL    HW2 1674   4.439   1.170   3.690  0.9208  0.2677  0.7736
  259SOL     OW 1675   3.355   3.552   5.195 -0.1607  0.5337 -0.3420
  259SOL    HW1 1676   3.428   3.552   5.263 -0.7356 -1.1951  0.3350
  259SOL    HW2 1677   3.342   3.644   5.160  0.5189  1.3771  1.5047
  260SOL     OW 1678   0.951   2.283   2.669 -0.8668 -0.5744 -0.2950
  260SOL    HW1 1679   0.877   2.338   2.707 -1.2680 -1.9403  1.0322
  260SOL    HW2 1680   0.951   2.193   2.713  0.6852 -1.1165 -1.3143
  261SOL     OW 1681   0.883   0.864   2.404  0.6597 -0.4024 -0.2753
  261SOL    HW1 1682   0.829   0.864   2.488  0.2786  0.4853 -0.5055
  261SOL    HW2 1683   0.966   0.811   2.417  0.6273 -0.2291  0.6810
  262SOL     OW 1684   2.717   1.773   2.913 -0.5657  0.3593  0.3467
  262SOL    HW1 1685   2.632   1.754   2.864  0.1973  0.5410 -1.0959
  262SOL    HW2 1686   2.793   1.778   2.848  1.0377 -2.3837  1.7953
  263SOL     OW 1687   5.916   3.557   0.571  0.0581  0.4466 -0.2120
  263SOL    HW1 1688   5.949   3.644   0.534 -0.0431  0.8456  0.6195
  263SOL    HW2 1689   5.969   3.481   0.532 -0.5505  0.7834 -1.7670
  264SOL     OW 1690   1.258   0.253   6.660  0.2803  0.3898 -0.0768
  264SOL    HW1 1691   1.177   0.218   6.706  0.3088  0.7344  0.2403
  264SOL    HW2 1692   1.334   0.189   6.673  0.3025  0.5067  0.4041
  265SOL     OW 1693   5.085   0.754   6.705  1.0203  0.1601  0.1972
  265SOL    HW1 1694   5.113   0.835   6.755  0.6606  1.1493 -1.1686
  265SOL    HW2 1695   5.142   0.676   6.733  1.0155  0.7242  1.9105
  266SOL     OW 1696   4.409   0.561   6.986 -0.4424  0.5651  0.0728
  266SOL    HW1 1697   4.454   0.509   7.058 -1.2765 -0.8932 -0.4303
  266SOL    HW2 1698   4.356   0.635   7.028 -1.6074 -0.7713  1.0707
  267SOL     OW 1699   3.545   5.990   3.744 -0.1215  1.0018  0.0255
  267SOL    HW1 1700   3.472   6.056   3.760 -0.8334  0.4623 -0.8840
  267SOL    HW2 1701   3.534   5.912   3.806  0.4143  1.4784  0.7366
  268SOL     OW 1702   1.111   7.013   5.510 -0.0432  0.6710 -1.1284
  268SOL    HW1 1703   1.064   7.099   5.529 -1.7165 -0.4753  0.2834
  268SOL    HW2 1704   1.126   6.964   5.596  0.1897 -0.7919 -1.9700
  269SOL     OW 1705   1.416   2.415   4.440  0.0155 -0.1134  0.2383
  269SOL    HW1 1706   1.390   2.355   4.364  2.6624 -0.7169 -0.2883
  269SOL    HW2 1707   1.514   2.404   4.459  0.1149  2.4567  1.5941
  270SOL     OW 1708   0.573   5.544   3.751 -0.2368  0.3500  0.2998
  270SOL    HW1 1709   0.664   5.520   3.784 -0.6192 -1.4193  0.1998
  270SOL    HW2 1710   0.581   5.589   3.662  0.5442 -0.1713  0.0842
  271SOL     OW 1711   0.265   4.693   3.196 -0.3743 -0.4127  0.2281
  271SOL    HW1 1712   0.229   4.753   3.124 -0.2758  0.3464  0.7916
  271SOL    HW2 1713   0.215   4.607   3.196 -0.1164 -0.5897 -1.0051
  272SOL     OW 1714   0.275   0.038   5.346  0.2924  0.6406  0.0080
  272SOL    HW1 1715   0.264   0.103   5.271  0.1075  1.1252  0.4422
  272SOL    HW2 1716   0.241  -0.051   5.319 -1.8746  1.3421  0.2492
  273SOL     OW 1717   3.499   3.555   5.433  0.3651 -0.0906 -0.0256
  273SOL    HW1 1718   3.433   3.546   5.508  3.2606  1.6091  2.9737
  273SOL    HW2 1719   3.547   3.468   5.420 -0.7812 -0.6553 -0.6135
  274SOL     OW 1720   0.565   1.175   3.980 -0.2667  0.0705 -0.1937
  274SOL    HW1 1721   0.606   1.253   3.932  1.9747 -0.0808  1.3120
  274SOL    HW2 1722   0.607   1.090   3.947  1.1301 -0.0520  1.7108
  275SOL     OW 1723   5.573   4.862   2.194  0.2617  0.3467  0.0269
  275SOL    HW1 1724   5.619   4.821   2.115  1.7662  1.2834  0.3767
  275SOL    HW2 1725   5.555   4.791   2.262 -2.4757 -0.7982 -1.6946
  276SOL     OW 1726   2.089   3.251   0.358 -0.3700 -0.3846 -0.3236
  276SOL    HW1 1727   2.182   3.240   0.322 -0.4022  1.4069 -1.1068
  276SOL    HW2 1728   2.026   3.190   0.309  0.3380 -1.4552  0.0697
  277SOL     OW 1729   4.350   6.091   6.573 -0.1813  0.3768 -0.4813
  277SOL    HW1 1730   4.385   6.097   6.666 -1.2951 -0.9854  0.0624
  277SOL    HW2 1731   4.277   6.158   6.560 -0.4413  0.1498 -0.1826
  278SOL     OW 1732   6.574   4.734   6.622  0.6229  0.3682  0.2323
  278SOL    HW1 1733   6.541   4.795   6.695  1.2747 -1.0242  1.7432
  278SOL    HW2 1734   6.509   4.736   6.546 -1.1956  0.3059  1.6983
  279SOL     OW 1735   3.734   1.830   4.446 -0.5787 -0.6951 -0.3226
  279SOL    HW1 1736   3.643   1.836   4.404 -1.1428 -0.5977  0.8733
  279SOL    HW2 1737   3.802   1.814   4.375 -1.1790  1.9191 -1.6275
  280SOL     OW 1738   5.276   3.243   2.728 -0.5232  0.1738  0.1987
  280SOL    HW1 1739   5.271   3.255   2.827  3.0359  0.1610  0.5053
  280SOL    HW2 1740   5.278   3.146   2.706 -0.8773  0.1792  0.1355
  281SOL     OW 1741   0.322   6.321   0.855  0.0071 -0.5266  0.2596
  281SOL    HW1 1742   0.340   6.246   0.917  1.0043 -0.0167  0.6118
  281SOL    HW2 1743   0.393   6.323   0.784 -0.0103  0.0711  0.2536
  282SOL     OW 1744   2.922   0.965   5.718 -0.1795 -0.3131  0.1819
  282SOL    HW1 1745   3.006   0.934   5.674 -0.7277  0.7880 -1.7531
  282SOL    HW2 1746   2.934   1.058   5.752 -0.6190 -0.1174 -0.1791
  283SOL     OW 1747   2.597   5.328   3.962  0.1472  0.9837  0.0660
  283SOL    HW1 1748   2.623   5.359   4.053 -0.0182  3.6580 -0.7171
  283SOL    HW2 1749   2.576   5.407   3.904 -0.1420 -0.6428 -2.1963
  284SOL     OW 1750   0.664   6.833   6.040  0.5674  0.2358 -0.3496
  284SOL    HW1 1751   0.593   6.817   6.109  0.0195 -2.6452 -1.4625
  284SOL    HW2 1752   0.646   6.919   5.993 -2.5038 -0.5676 -0.8784
  285SOL     OW 1753   1.835   4.132   5.677 -0.0786 -0.0906  0.5292
  285SOL    HW1 1754   1.798   4.039   5.679 -0.1956 -0.0282  2.3917
  285SOL    HW2 1755   1.766   4.195   5.642 -1.0627 -0.2832  2.0528
  286SOL     OW 1756   6.563   5.358   4.239 -0.2205 -0.4223 -0.4917
  286SOL    HW1 1757   6.661   5.340   4.244  0.1663  1.7534  1.2018
  286SOL    HW2 1758   6.547   5.442   4.187 -0.9924  0.3429  0.9364
  287SOL     OW 1759   5.777   3.799   6.777  0.1212 -0.0339 -0.4335
  287SOL    HW1 1760   5.751   3.751   6.860 -0.5220 -0.5639 -0.9276
  287SOL    HW2 1761   5.818   3.887   6.800 -2.8787  1.2716  0.3888
  288SOL     OW 1762   3.911   1.230   6.149  0.3790  0.3299  0.1640
  288SOL    HW1 1763   3.845   1.267   6.084  0.0635 -1.9415 -0.9106
  288SOL    HW2 1764   3.877   1.144   6.186  1.7415  0.2558  1.3290
  289SOL     OW 1765   0.923   6.499   5.054  0.3261  0.3011  0.1620
  289SOL    HW1 1766   0.861   6.525   5.128  0.0208 -0.3462  0.1453
  289SOL    HW2 1767   1.002   6.451   5.093  1.2581  1.8632  0.2657
  290SOL     OW 1768   5.632   3.902   5.601 -0.2652 -0.6730 -0.4549
  290SOL    HW1 1769   5.652   3.824   5.542  0.4504 -0.5952 -0.3141
  290SOL    HW2 1770   5.711   3.963   5.604 -0.5789 -0.2822 -0.0276
  291SOL     OW 1771   1.508   2.298   4.052 -0.4436 -0.0270  0.4317
  291SOL    HW1 1772   1.555   2.383   4.075  0.1222  0.2114 -1.4082
  291SOL    HW2 1773   1.459   2.263   4.132  1.1682  0.8163  1.8281
  292SOL     OW 1774   3.670   2.235   6.861  0.2375  0.9580  0.5278
  292SOL    HW1 1775   3.591   2.249   6.802 -0.1942 -0.6573  0.6739
  292SOL    HW2 1776   3.662   2.291   6.943  0.0306  1.9705 -0.1643
  293SOL     OW 1777   4.006   0.892   3.356  0.2427 -0.0945 -0.3329
  293SOL    HW1 1778   3.981   0.807   3.309  0.0371  0.3117 -0.9689
  293SOL    HW2 1779   3.994   0.880   3.455 -0.3654 -0.6140 -0.4590
  294SOL     OW 1780   3.000   2.110   6.102 -0.3293 -0.2489  0.4448
  294SOL    HW1 1781   2.929   2.044   6.078 -0.8923  0.6961 -0.6486
  294SOL    HW2 1782   3.009   2.116   6.201 -0.9695 -1.2227  0.5719
  295SOL     OW 1783   0.280   6.625   1.297 -0.0078  0.5611 -0.0263
  295SOL    HW1 1784   0.373   6.624   1.332 -0.2313 -0.8980  0.5901
  295SOL    HW2 1785   0.243   6.718   1.303  0.8285  0.8375  1.2832
  296SOL     OW 1786   5.116   1.667   0.376  0.4038  0.4828 -0.1705
  296SOL    HW1 1787   5.051   1.665   0.300  0.6947 -2.2945 -0.4589
  296SOL    HW2 1788   5.209   1.674   0.341  0.5153 -0.4282 -0.0819
  297SOL     OW 1789   0.475   5.823   3.868  0.0762 -0.0255  0.0730
  297SOL    HW1 1790   0.383   5.822   3.907  0.2670 -1.2327  0.5347
  297SOL    HW2 1791   0.504   5.730   3.848  0.8746  0.4095 -0.8772
  298SOL     OW 1792   0.373   6.514   2.802 -0.0491  0.2962  0.4923
  298SOL    HW1 1793   0.398   6.437   2.861 -2.2616 -1.4606 -0.7273
  298SOL    HW2 1794   0.439   6.521   2.728  0.2480 -0.3463  0.6876
  299SOL     OW 1795   0.641   2.153   0.130 -0.2090  0.4250  0.1807
  299SOL    HW1 1796   0.618   2.074   0.187  3.4855 -1.1522 -0.2026
  299SOL    HW2 1797   0.729   2.191   0.160  0.8843  0.8214 -3.1458
  300SOL     OW 1798   6.501   1.005   0.462 -0.0124 -0.5140  0.0360
  300SOL    HW1 1799   6.527   0.995   0.558 -1.7057 -4.0363  0.3088
  300SOL    HW2 1800   6.403   1.023   0.456  0.1439  0.0721 -1.0610
  301SOL     OW 1801   5.272   1.763   5.044 -0.0671  0.2718 -0.3392
  301SOL    HW1 1802   5.205   1.775   4.970  0.2707  2.5765 -0.3381
  301SOL    HW2 1803   5.358   1.807   5.018  0.8598 -0.9925  0.4597
  302SOL     OW 1804   6.542   3.294   3.420  0.4064 -0.2425  0.2917
  302SOL    HW1 1805   6.449   3.283   3.455 -0.2638 -0.5206 -1.4596
  302SOL    HW2 1806   6.549   3.248   3.332  2.0114  0.3881  0.0674
  303SOL     OW 1807   6.445   0.992   0.191 -0.0826 -0.2117 -0.7129
  303SOL    HW1 1808   6.466   1.002   0.289  1.6456  0.1374 -1.0806
  303SOL    HW2 1809   6.393   0.908   0.177 -0.9427  0.0723  0.5820
  304SOL     OW 1810   5.497   0.227   4.283  0.2873 -0.0156  0.5532
  304SOL    HW1 1811   5.538   0.261   4.199  0.0434 -1.9081 -0.3797
  304SOL    HW2 1812   5.554   0.153   4.320 -1.3688 -1.5651  0.1287
  305SOL     OW 1813   5.284   5.264   1.163 -0.1125  0.3848  0.3598
  305SOL    HW1 1814   5.370   5.287   1.207  0.1302  0.1213  0.0298
  305SOL    HW2 1815   5.268   5.324   1.085 -0.8763  1.3032  1.1998
  306SOL     OW 1816   3.444   2.073   0.595  0.3501 -0.3243  0.3232
  306SOL    HW1 1817   3.532   2.042   0.561  0.1771  0.4975 -0.9306
  306SOL    HW2 1818   3.421   2.161   0.553 -0.6602 -0.0899  1.3124
  307SOL     OW 1819   4.378   0.800   6.563  0.7493  0.1536 -0.8131
  307SOL    HW1 1820   4.425   0.813   6.475 -0.0245 -1.0856 -1.4552
  307SOL    HW2 1821   4.299   0.740   6.549  0.6915 -0.1792  0.7686
  308SOL     OW 1822   0.993   5.179   2.458  0.0778 -0.6403 -0.2158
  308SOL    HW1 1823   1.040   5.097   2.491  1.3578 -0.1568 -0.7973
  308SOL    HW2 1824   1.059   5.251   2.440 -1.1238  0.8775  1.2021
  309SOL     OW 1825   3.364   0.483   3.955  0.0851  0.4296 -0.2134
  309SOL    HW1 1826   3.415   0.506   3.872 -1.4675 -0.8489 -1.6029
  309SOL    HW2 1827   3.351   0.384   3.960 -1.6263  0.6541  0.4641
  310SOL     OW 1828   3.368   6.850   2.074 -0.0932 -0.0397 -0.5208
  310SOL    HW1 1829   3.279   6.838   2.118  0.5354 -0.2481  0.7488
  310SOL    HW2 1830   3.423   6.768   2.087  0.4229  0.2220 -0.9898
  311SOL     OW 1831   3.405   2.929   4.162  0.4022  0.0890 -0.5537
  311SOL    HW1 1832   3.401   2.901   4.066  0.3195  1.0417 -0.8349
  311SOL    HW2 1833   3.429   2.850   4.219 -2.8851 -1.3718 -0.9404
  312SOL     OW 1834   0.668   0.462   5.119  0.2360 -0.1137 -0.0426
  312SOL    HW1 1835   0.630   0.439   5.030 -0.3722  0.0474  0.1647
  312SOL    HW2 1836   0.710   0.380   5.160 -2.3196 -1.0719  0.8936
  313SOL     OW 1837   2.348   3.017   0.033 -0.8073  0.1694 -0.3210
  313SOL    HW1 1838   2.430   3.033  -0.021 -0.5393 -0.0457  0.0219
  313SOL    HW2 1839   2.311   2.926   0.011 -1.5127  0.6520 -1.1997
  314SOL     OW 1840   1.117   0.589   1.616  0.4642 -0.0321  0.1219
  314SOL    HW1 1841   1.103   0.519   1.686  0.0952 -0.3067 -0.2204
  314SOL    HW2 1842   1.045   0.582   1.547 -0.3485  1.5570  0.7768
  315SOL     OW 1843   4.203   2.627   5.422 -0.9414  0.9036  0.1509
  315SOL    HW1 1844   4.110   2.644   5.454 -1.4277  1.0437 -1.2691
  315SOL    HW2 1845   4.201   2.604   5.324  0.2460 -1.8239  0.6878
  316SOL     OW 1846   6.599   4.134   2.740 -0.0017 -0.4728 -0.0351
  316SOL    HW1 1847   6.650   4.214   2.709  0.7138 -0.4312  1.1974
  316SOL    HW2 1848   6.605   4.062   2.672 -0.1441  0.2953 -0.8874
  317SOL     OW 1849   2.509   4.420   0.596  0.1269  0.7629 -0.1706
  317SOL    HW1 1850   2.554   4.338   0.561 -1.5131  0.4544 -1.6946
  317SOL    HW2 1851   2.420   4.396   0.634  0.0604  1.7045  0.3018
  318SOL     OW 1852   6.868   3.591   0.088  0.2158 -0.1697  0.5355
  318SOL    HW1 1853   6.938   3.533   0.130  0.1124 -0.8406 -0.1882
  318SOL    HW2 1854   6.827   3.542   0.011 -1.2100  0.1262  1.0815
  319SOL     OW 1855   4.449   4.019   5.395 -0.3935 -0.4876 -0.2759
  319SOL    HW1 1856   4.527   3.957   5.409 -0.2302  0.1147  1.8679
  319SOL    HW2 1857   4.476   4.095   5.336 -0.0351 -1.4125 -1.3471
  320SOL     OW 1858   0.448   5.164   5.409  0.1713  0.0876 -0.0858
  320SOL    HW1 1859   0.534   5.112   5.405 -2.1083 -4.0677 -0.2239
  320SOL    HW2 1860   0.444   5.216   5.494  1.7805 -1.6390  1.1237
  321SOL     OW 1861   6.935   5.235   3.994 -0.6515  0.4326 -0.0960
  321SOL    HW1 1862   6.919   5.308   3.928  0.8933  1.9956  1.1557
  321SOL    HW2 1863   6.887   5.256   4.079  2.2131  1.6712  1.3347
  322SOL     OW 1864   6.741   1.836   3.990 -0.5806 -0.3015  0.0254
  322SOL    HW1 1865   6.814   1.899   4.017 -0.0525 -0.5145 -0.8594
  322SOL    HW2 1866   6.760   1.801   3.897 -2.8110  1.1877 -1.0669
  323SOL     OW 1867   6.739   6.164   3.790  0.4464 -0.4205  0.4245
  323SOL    HW1 1868   6.743   6.263   3.775  1.2183 -0.5426 -0.2933
  323SOL    HW2 1869   6.785   6.142   3.877 -1.4812  0.0152  1.6185
  324SOL     OW 1870   7.006   2.829   3.645 -0.0744  0.7967 -0.1591
  324SOL    HW1 1871   6.933   2.812   3.711  1.3513  0.6170  1.4519
  324SOL    HW2 1872   7.090   2.855   3.694  1.8283 -1.9515 -1.6487
  325SOL     OW 1873   4.480   6.989   6.762  0.3905 -0.2997 -0.2026
  325SOL    HW1 1874   4.565   7.018   6.720 -1.1343  2.7091 -1.4869
  325SOL    HW2 1875   4.404   7.001   6.698 -1.0426 -3.4606  0.6671
  326SOL     OW 1876   0.758   5.256   4.153  0.7739 -0.1704  0.0939
  326SOL    HW1 1877   0.728   5.313   4.229 -1.4015 -1.8846  0.6109
  326SOL    HW2 1878   0.847   5.288   4.120  1.0948  1.5024  2.3867
  327SOL     OW 1879   2.627   2.746   5.679 -0.4563 -0.0948 -0.3248
  327SOL    HW1 1880   2.627   2.647   5.693  1.1041 -0.0454  0.2141
  327SOL    HW2 1881   2.645   2.767   5.583 -1.0678 -0.3250 -0.4941
  328SOL     OW 1882   3.107   5.797   3.597 -0.1339 -0.6551  0.1321
  328SOL    HW1 1883   3.030   5.780   3.658 -0.1075  1.1586  0.7363
  328SOL    HW2 1884   3.187   5.745   3.629 -0.3121 -0.2741  1.2504
  329SOL     OW 1885   1.966   6.202   4.786 -0.0353  0.7170  0.3194
  329SOL    HW1 1886   1.964   6.128   4.718  0.0785  0.5695  0.4762
  329SOL    HW2 1887   2.008   6.283   4.746 -0.3486  0.7660  0.0783
  330SOL     OW 1888   2.286   5.760   6.014 -0.2471  0.7623  0.0915
  330SOL    HW1 1889   2.305   5.797   6.105 -1.4962  0.7995  0.3526
  330SOL    HW2 1890   2.222   5.819   5.966 -2.5553 -1.1130  0.6490
  331SOL     OW 1891   3.504   1.789   1.420 -0.5458 -0.3709  0.7586
  331SOL    HW1 1892   3.450   1.810   1.338  0.3723 -1.6105 -0.2092
  331SOL    HW2 1893   3.593   1.753   1.393 -0.7937 -2.3339  2.2595
  332SOL     OW 1894   6.925   1.470   4.732  0.1683  0.3111  0.0668
  332SOL    HW1 1895   6.853   1.532   4.701  0.4387  0.2929 -0.6002
  332SOL    HW2 1896   6.894   1.422   4.815 -1.6512 -1.6328 -1.6352
  333SOL     OW 1897   5.049   2.221   5.957  0.9174  0.5198  0.4113
  333SOL    HW1 1898   5.120   2.230   5.887  0.2223  0.4984 -0.3186
  333SOL    HW2 1899   5.041   2.307   6.007 -0.0811  1.3061 -1.0336
  334SOL     OW 1900   6.462   1.389   0.663 -0.8081 -0.3106  0.0209
  334SOL    HW1 1901   6.400   1.367   0.739  0.1469  0.6130  1.1169
  334SOL    HW2 1902   6.491   1.485   0.671 -0.4313 -0.2983 -1.3443
  335SOL     OW 1903   2.355   2.536   4.871  0.1391 -0.0000  0.0426
  335SOL    HW1 1904   2.286   2.464   4.876 -0.6107  0.8002  2.0930
  335SOL    HW2 1905   2.435   2.511   4.926 -0.1469  0.7315  0.8099
  336SOL     OW 1906   4.717   6.825   4.114 -0.7043 -0.5947  0.2332
  336SOL    HW1 1907   4.778   6.789   4.185  0.4506  0.6506 -0.0721
  336SOL    HW2 1908   4.728   6.772   4.030 -0.6266 -0.8579  0.4071
  337SOL     OW 1909   2.478   4.947   4.574 -0.0977 -0.6384  0.4225
  337SOL    HW1 1910   2.538   4.868   4.560 -0.5667 -0.9281  0.0047
  337SOL    HW2 1911   2.401   4.921   4.632 -0.2654 -0.4902  0.2661
  338SOL     OW 1912   1.558   1.688   0.893 -0.4236 -0.3098 -0.3752
  338SOL    HW1 1913   1.620   1.712   0.818 -0.0242 -1.3617 -0.4044
  338SOL    HW2 1914   1.499   1.613   0.864 -0.9318 -0.0711  0.0407
  339SOL     OW 1915   4.500   0.827   1.130 -0.3513 -0.1381 -0.2549
  339SOL    HW1 1916   4.426   0.849   1.066  0.1506  0.4789 -0.6396
  339SOL    HW2 1917   4.464   0.826   1.223 -1.0826 -0.9965 -0.5265
  340SOL     OW 1918   5.225   1.785   1.701  0.2980 -0.6863 -0.0294
  340SOL    HW1 1919   5.175   1.835   1.631  2.3968 -1.2018 -2.0217
  340SOL    HW2 1920   5.177   1.700   1.722 -0.6945 -0.2193 -0.3426
  341SOL     OW 1921   2.041   3.818   4.392  0.1558 -0.0848  0.1235
  341SOL    HW1 1922   2.021   3.860   4.303 -0.6738 -0.0782  0.3060
  341SOL    HW2 1923   2.059   3.890   4.459  1.3186 -0.0972 -0.1389
  342SOL     OW 1924   1.915   2.368   2.438 -0.0530 -0.4266  0.2759
  342SOL    HW1 1925   1.943   2.460   2.410  0.1361 -0.3161  0.8136
  342SOL    HW2 1926   1.899   2.367   2.536  0.7497 -1.1638  0.4128
  343SOL     OW 1927   2.733   2.771   6.855 -0.1171 -0.1300  0.1575
  343SOL    HW1 1928   2.725   2.710   6.777  1.6218  1.0272 -1.0047
  343SOL    HW2 1929   2.825   2.763   6.894 -0.2057  0.9705  0.6309
  344SOL     OW 1930   2.318   4.409   5.826 -0.0345 -0.0550  0.6064
  344SOL    HW1 1931   2.290   4.402   5.922 -0.3725 -0.1763  0.5018
  344SOL    HW2 1932   2.300   4.322   5.780  1.3864 -0.4473  0.7574
  345SOL     OW 1933   6.028   4.840   3.486 -0.7976 -0.3700 -0.1235
  345SOL    HW1 1934   5.974   4.757   3.498 -1.1071 -0.0148  1.1431
  345SOL    HW2 1935   6.004   4.884   3.400 -1.1114 -1.2311 -0.4899
  346SOL     OW 1936   2.495   0.638   4.422  0.2141  0.5498 -0.0567
  346SOL    HW1 1937   2.453   0.722   4.390 -1.2475 -0.2518 -0.3290
  346SOL    HW2 1938   2.451   0.559   4.379  1.7651 -0.3671 -0.0701
  347SOL     OW 1939   6.746   1.883   0.549  0.0497  0.3153 -0.4411
  347SOL    HW1 1940   6.799   1.800   0.566  1.5079  0.8805 -1.9393
  347SOL    HW2 1941   6.682   1.898   0.625  0.6008 -1.4908  0.4435
  348SOL     OW 1942   3.929   1.798   4.216  0.1103 -0.6395 -0.3467
  348SOL    HW1 1943   4.015   1.792   4.265  0.1183 -0.4970 -0.3437
  348SOL    HW2 1944   3.943   1.845   4.129 -0.2862  0.9482  0.4129
  349SOL     OW 1945   1.773   1.651   6.388 -0.6084  0.5282 -0.3503
  349SOL    HW1 1946   1.675   1.631   6.385 -0.4735 -0.3692  0.5498
  349SOL    HW2 1947   1.819   1.601   6.314 -0.8863  1.3592 -1.0953
  350SOL     OW 1948   1.945   2.245   5.039  0.1309 -0.3250 -0.1065
  350SOL    HW1 1949   1.925   2.294   5.124  1.2022 -0.5204  0.2826
  350SOL    HW2 1950   1.873   2.178   5.020 -1.2224  1.1841 -0.5095
  351SOL     OW 1951   5.363   2.313   4.425 -0.4301  0.3720  0.3542
  351SOL    HW1 1952   5.284   2.281   4.372 -1.5910  1.9106  1.0587
  351SOL    HW2 1953   5.338   2.319   4.522  0.4380  1.1885  0.5437
  352SOL     OW 1954   0.675   2.311   6.693 -0.1235  0.0334  0.1207
  352SOL    HW1 1955   0.610   2.273   6.627 -0.4897  0.7647  0.0426
  352SOL    HW2 1956   0.768   2.308   6.655 -0.3609  0.6651 -0.5435
  353SOL     OW 1957   2.045   4.960   2.847  0.5808  0.3357  0.2737
  353SOL    HW1 1958   2.038   5.056   2.820  0.1205  0.3888  0.5784
  353SOL    HW2 1959   2.123   4.948   2.908 -0.4086  0.8556  1.6868
  354SOL     OW 1960   5.528   5.373   2.781  0.1256  0.2627 -0.0410
  354SOL    HW1 1961   5.446   5.408   2.735  1.4723  2.1731 -1.1193
  354SOL    HW2 1962   5.574   5.307   2.721 -1.2646 -1.9254  1.1293
  355SOL     OW 1963   6.742   0.385   2.275  0.0430  0.0961 -0.8714
  355SOL    HW1 1964   6.732   0.367   2.373 -0.3030 -0.7158 -1.0479
  355SOL    HW2 1965   6.790   0.472   2.262  1.8580 -0.7034  0.0284
  356SOL     OW 1966   2.100   2.286   3.984  0.3586 -0.7268  0.0945
  356SOL    HW1 1967   2.172   2.294   3.916 -0.5507  1.7417 -0.7037
  356SOL    HW2 1968   2.126   2.336   4.067 -0.6051  0.6865 -0.4160
  357SOL     OW 1969   6.149   6.710   2.970 -0.5854 -0.2478  0.4104
  357SOL    HW1 1970   6.078   6.757   2.917 -0.2692 -0.7324 -0.4564
  357SOL    HW2 1971   6.237   6.758   2.958 -0.2639 -1.0389 -0.4695
  358SOL     OW 1972   4.945   1.320   3.665  0.3059 -1.2010  0.3493
  358SOL    HW1 1973   5.029   1.371   3.646  0.1821 -0.9940  0.3545
  358SOL    HW2 1974   4.928   1.256   3.590 -0.3463 -0.1633 -0.4140
  359SOL     OW 1975   5.361   3.447   3.866  0.1737  0.4156  0.3147
  359SOL    HW1 1976   5.325   3.540   3.858  0.0828  0.3366 -0.2528
  359SOL    HW2 1977   5.432   3.433   3.797 -0.6964 -0.3381 -0.4559
  360SOL     OW 1978   5.823   4.036   4.768 -0.3698  0.3804 -0.2630
  360SOL    HW1 1979   5.913   3.993   4.769 -1.1262 -1.2835  0.8005
  360SOL    HW2 1980   5.822   4.111   4.702  1.7196  0.3088 -0.4220
  361SOL     OW 1981   5.325   6.966   2.086 -0.1343 -0.2800  0.4751
  361SOL    HW1 1982   5.423   6.972   2.108 -0.1066  0.2527  0.2291
  361SOL    HW2 1983   5.308   6.882   2.034  0.2609 -0.1897  0.1902
  362SOL     OW 1984   6.455   2.976   3.710 -0.1785  0.0934 -0.1877
  362SOL    HW1 1985   6.365   3.019   3.707 -0.5122 -0.3250  2.0227
  362SOL    HW2 1986   6.454   2.893   3.655 -1.9548 -1.2335  1.6930
  363SOL     OW 1987   5.038   3.510   5.503  0.2342 -0.1461 -0.3884
  363SOL    HW1 1988   4.965   3.520   5.570  0.0942 -0.7856 -0.4403
  363SOL    HW2 1989   5.069   3.414   5.501  0.4725 -0.0615 -0.9885
  364SOL     OW 1990   5.644   5.810   5.864 -0.0626 -0.0152 -0.2699
  364SOL    HW1 1991   5.558   5.820   5.914  0.9138  3.6816  1.0122
  364SOL    HW2 1992   5.632   5.847   5.771  0.3533  1.5407  0.2707
  365SOL     OW 1993   1.226   6.075   6.767 -0.5736 -0.0595  0.2295
  365SOL    HW1 1994   1.296   6.125   6.819 -1.6288  1.4037  0.2999
  365SOL    HW2 1995   1.175   6.016   6.829 -0.5672  0.2235  0.5076
  366SOL     OW 1996   5.397   0.316   6.321 -0.1945  0.0502  0.2811
  366SOL    HW1 1997   5.453   0.238   6.348 -1.7163 -0.9125  0.7931
  366SOL    HW2 1998   5.348   0.294   6.236  2.4837  2.0429 -2.0109
  367SOL     OW 1999   6.770   6.711   6.305  0.4678  0.0290 -0.6717
  367SOL    HW1 2000   6.777   6.652   6.224  1.6303  0.7618 -1.1277
  367SOL    HW2 2001   6.862   6.738   6.335 -0.0039  0.8157  0.1119
  368SOL     OW 2002   2.483   5.205   1.961  0.0593 -0.2836  0.5257
  368SOL    HW1 2003   2.572   5.248   1.945 -0.2269  0.8147  1.6754
  368SOL    HW2 2004   2.443   5.179   1.874  1.7212 -1.2798  0.0068
  369SOL     OW 2005   1.580   5.261   2.678 -0.5679  0.7894 -0.1923
  369SOL    HW1 2006   1.546   5.167   2.671  0.2289  0.5498 -1.2301
  369SOL    HW2 2007   1.546   5.303   2.762 -0.9740 -0.4117  0.2692
  370SOL     OW 2008   3.585   2.832   6.794 -0.7359  0.0619  0.3190
  370SOL    HW1 2009   3.580   2.905   6.862 -1.1639  1.7403 -1.4253
  370SOL    HW2 2010   3.648   2.858   6.721 -0.4058 -1.6134 -0.0382
  371SOL     OW 2011   5.213   2.592   1.136 -0.0423  0.4324 -0.2723
  371SOL    HW1 2012   5.124   2.637   1.125  0.5691  1.7889  0.0822
  371SOL    HW2 2013   5.277   2.629   1.070  0.6627  0.5714  0.4794
  372SOL     OW 2014   2.620   0.892   0.176 -0.2196  0.4742 -0.2443
  372SOL    HW1 2015   2.620   0.825   0.251 -1.3596  0.9873  0.2379
  372SOL    HW2 2016   2.696   0.956   0.188 -0.6372  0.8040  0.7184
  373SOL     OW 2017   4.641   6.551   4.506  0.1436 -0.5092 -0.1102
  373SOL    HW1 2018   4.594   6.615   4.566 -0.4972 -1.1111  0.0312
  373SOL    HW2 2019   4.700   6.492   4.561  0.6480 -0.1305 -0.2304
  374SOL     OW 2020   4.934   0.902   5.813 -0.9145 -0.4649  0.2248
  374SOL    HW1 2021   4.958   0.931   5.721 -0.6454 -1.5591 -0.0538
  374SOL    HW2 2022   4.841   0.933   5.834 -0.8685  0.0422 -0.2957
  375SOL     OW 2023   4.425   0.992   1.387  0.2464  0.0150  0.8241
  375SOL    HW1 2024   4.470   1.078   1.363 -1.1445 -0.1153 -2.9734
  375SOL    HW2 2025   4.326   1.004   1.386  0.0293 -1.1877  2.4882
  376SOL     OW 2026   5.367   2.747   2.209  0.0497  0.0809 -0.2857
  376SOL    HW1 2027   5.345   2.690   2.288  1.4488  0.6767  0.5641
  376SOL    HW2 2028   5.456   2.789   2.222 -0.3483  1.3835 -1.5275
  377SOL     OW 2029   1.849   0.285   1.931 -0.1921 -0.3505  0.3276
  377SOL    HW1 2030   1.852   0.384   1.939 -1.0780 -0.2071 -0.8541
  377SOL    HW2 2031   1.783   0.248   1.997 -1.4719  0.0730 -0.6650
  378SOL     OW 2032   6.222   1.183   2.239  0.5713 -0.1619  0.0616
  378SOL    HW1 2033   6.169   1.194   2.323  1.2685 -0.8921  0.6078
  378SOL    HW2 2034   6.191   1.101   2.190  0.7962 -0.2597  0.0829
  379SOL     OW 2035   2.703   5.640   4.546 -0.0871 -0.5377  0.0022
  379SOL    HW1 2036   2.606   5.627   4.528  0.0635 -1.4720 -0.1556
  379SOL    HW2 2037   2.723   5.738   4.548 -0.7954 -0.3463 -1.2273
  380SOL     OW 2038   1.170   2.524   0.509 -0.4429 -0.2310 -0.1340
  380SOL    HW1 2039   1.260   2.569   0.514 -0.8823  0.8244 -1.2513
  380SOL    HW2 2040   1.183   2.425   0.513  0.6527 -0.0746  1.1110
  381SOL     OW 2041   6.711   0.356   5.231 -0.0067 -0.3306  0.3968
  381SOL    HW1 2042   6.735   0.452   5.212  0.4854 -0.4438  0.4292
  381SOL    HW2 2043   6.794   0.304   5.249  0.2502 -1.6828 -3.6853
  382SOL     OW 2044   3.369   2.100   6.705  0.1563  0.5916 -0.0207
  382SOL    HW1 2045   3.385   2.031   6.634  1.8053 -0.5217  1.3640
  382SOL    HW2 2046   3.340   2.056   6.789  2.2150  1.4457  1.1939
  383SOL     OW 2047   5.465   0.445   1.502 -0.1793 -0.1814  0.2037
  383SOL    HW1 2048   5.458   0.510   1.578  1.0699  1.4356 -0.9956
  383SOL    HW2 2049   5.405   0.474   1.428  2.0927  1.0357 -1.2769
  384SOL     OW 2050   5.744   5.205   5.347  0.2668 -0.0085  0.4756
  384SOL    HW1 2051   5.738   5.264   5.428  0.8079 -1.6855  1.7880
  384SOL    HW2 2052   5.807   5.130   5.365  1.6695  0.4546 -2.1098
  385SOL     OW 2053   5.025   1.110   1.126 -0.3888  0.1842  0.1358
  385SOL    HW1 2054   5.080   1.154   1.056  0.5868 -0.5369  0.4246
  385SOL    HW2 2055   4.963   1.177   1.167  0.6742  1.1675  0.1973
  386SOL     OW 2056   2.749   0.805   6.327  0.0040  0.0806 -0.4244
  386SOL    HW1 2057   2.716   0.816   6.233 -1.1526 -0.8181 -0.1473
  386SOL    HW2 2058   2.743   0.709   6.353  0.7330  0.2572  0.4243
  387SOL     OW 2059   5.859   5.602   0.503 -0.2803  0.4079  0.3690
  387SOL    HW1 2060   5.800   5.526   0.478 -0.9806  1.1199 -0.2088
  387SOL    HW2 2061   5.836   5.682   0.448  1.5598  0.5856 -0.2178
  388SOL     OW 2062   0.350   0.036   3.954 -0.1766 -0.3321  0.3734
  388SOL    HW1 2063   0.357   0.013   3.857 -1.1955 -0.4349  0.3040
  388SOL    HW2 2064   0.285  -0.027   3.998 -1.3204  0.9829  0.6547
  389SOL     OW 2065   2.789   5.666   2.984  0.0042  0.4827  0.2378
  389SOL    HW1 2066   2.846   5.590   2.955 -2.0042 -1.2619  0.6702
  389SOL    HW2 2067   2.806   5.745   2.925  1.5288 -0.5186 -0.7377
  390SOL     OW 2068   5.427   5.614   4.016 -0.1607 -0.2456 -0.1059
  390SOL    HW1 2069   5.441   5.658   4.105  0.7567  0.8504 -0.7598
  390SOL    HW2 2070   5.388   5.680   3.952  0.4582 -0.6108 -0.8847
  391SOL     OW 2071   2.854   3.853   0.024  0.2117  0.0653  0.4249
  391SOL    HW1 2072   2.822   3.929  -0.033  0.6002  0.2093  0.4000
  391SOL    HW2 2073   2.855   3.880   0.120  2.3526  0.8108  0.2425
  392SOL     OW 2074   5.806   3.942   3.066 -0.0198 -0.3752  0.4602
  392SOL    HW1 2075   5.886   3.955   3.007  1.3851  0.6731  2.4681
  392SOL    HW2 2076   5.726   3.984   3.025  0.5614 -0.9759 -1.3617
  393SOL     OW 2077   2.746   6.774   4.415 -0.2702  0.4990  0.3548
  393SOL    HW1 2078   2.713   6.729   4.331  0.4261  0.0859  0.2982
  393SOL    HW2 2079   2.788   6.706   4.475  1.6021  1.1916 -0.1193
  394SOL     OW 2080   3.277   5.500   0.415  0.1745  0.1281 -0.3075
  394SOL    HW1 2081   3.220   5.578   0.441 -0.3359  0.0823 -1.2426
  394SOL    HW2 2082   3.240   5.458   0.333  1.5747  0.1142 -0.9594
  395SOL     OW 2083   4.766   2.392   4.196 -0.3487 -0.5103 -0.2336
  395SOL    HW1 2084   4.826   2.386   4.276 -1.0479 -1.0177  0.2713
  395SOL    HW2 2085   4.725   2.302   4.178 -1.3478 -0.0745 -0.2388
  396SOL     OW 2086   2.300   1.637   1.958 -0.1884 -0.2461  0.2802
  396SOL    HW1 2087   2.287   1.628   1.859  1.0076 -1.1997  0.1999
  396SOL    HW2 2088   2.356   1.718   1.977  0.6769 -0.7824  0.0725
  397SOL     OW 2089   5.390   2.277   2.048 -0.5761 -0.2725  0.3538
  397SOL    HW1 2090   5.392   2.352   1.981  0.7184  0.0812  0.7706
  397SOL    HW2 2091   5.342   2.199   2.008 -0.8602  0.3458 -0.5513
  398SOL     OW 2092   6.293   0.257   2.952  0.3743  0.1759  0.5523
  398SOL    HW1 2093   6.234   0.229   3.028  0.9063 -3.4973 -0.2486
  398SOL    HW2 2094   6.267   0.208   2.869  2.8894  0.4418 -0.4760
  399SOL     OW 2095   5.486   6.563   3.428  0.1737 -0.9136 -0.0079
  399SOL    HW1 2096   5.578   6.534   3.454  0.5027 -0.7038 -0.8951
  399SOL    HW2 2097   5.419   6.523   3.491  0.8955 -0.7554  0.8782
  400SOL     OW 2098   2.029   1.633   4.926  0.0684  0.0226  0.7333
  400SOL    HW1 2099   2.116   1.682   4.922  0.2476 -0.1791  1.8865
  400SOL    HW2 2100   1.965   1.673   4.860  1.3922 -0.5951 -0.9769
  401SOL     OW 2101   1.821   3.023   3.711  0.4232 -0.2837  0.1072
  401SOL    HW1 2102   1.902   2.967   3.702  0.0502 -1.2133  2.0212
  401SOL    HW2 2103   1.772   3.027   3.624 -0.3929 -4.3050  0.1965
  402SOL     OW 2104   2.383   2.913   1.349 -0.3830 -0.0802 -0.3189
  402SOL    HW1 2105   2.293   2.870   1.350 -0.5504  0.0965  2.5958
  402SOL    HW2 2106   2.443   2.868   1.416  0.7440  1.6057 -0.1122
  403SOL     OW 2107   4.577   0.803   4.637 -0.1543  0.2057  0.3156
  403SOL    HW1 2108   4.670   0.776   4.614 -0.6526  1.1519 -3.4071
  403SOL    HW2 2109   4.533   0.729   4.688  1.7264 -1.4893 -0.3812
  404SOL     OW 2110   5.031   2.293   1.037 -0.6407  0.0000  0.5113
  404SOL    HW1 2111   5.071   2.211   1.075  0.6626  0.3484 -0.0640
  404SOL    HW2 2112   5.024   2.363   1.108 -1.0324 -0.3419  0.8144
  405SOL     OW 2113   2.367   6.167   0.843 -0.0591 -0.1242  0.6823
  405SOL    HW1 2114   2.272   6.156   0.875 -0.0051 -1.7053  0.3843
  405SOL    HW2 2115   2.430   6.147   0.918  0.0453  0.2486  0.6950
  406SOL     OW 2116   5.446   6.280   3.559  0.3654 -0.1119  0.6903
  406SOL    HW1 2117   5.500   6.221   3.618  0.8023  0.0066  0.4105
  406SOL    HW2 2118   5.399   6.349   3.615  2.4779  1.3698  0.7364
  407SOL     OW 2119   0.077   4.553   2.717  0.0761  0.2272 -0.0102
  407SOL    HW1 2120   0.050   4.530   2.623  0.9458  0.8955 -0.4419
  407SOL    HW2 2121   0.070   4.652   2.730  2.2941  0.4693 -0.1923
  408SOL     OW 2122   0.060   6.590   2.517  0.3085  0.0200 -0.1595
  408SOL    HW1 2123  -0.027   6.639   2.518  0.7667  0.9662 -1.6531
  408SOL    HW2 2124   0.071   6.544   2.429  1.8037  0.8947 -0.4724
  409SOL     OW 2125   2.446   0.056   6.068 -0.1167 -0.4354 -0.3396
  409SOL    HW1 2126   2.468   0.073   6.164 -2.4353 -1.4339  0.4436
  409SOL    HW2 2127   2.413   0.141   6.026  1.4225  0.1373 -0.4527
  410SOL     OW 2128   6.152   4.876   2.919 -0.0258 -0.0198 -0.3551
  410SOL    HW1 2129   6.081   4.826   2.970  0.6443 -0.2188  0.3937
  410SOL    HW2 2130   6.202   4.936   2.981  0.4690  0.1170 -0.8815
  411SOL     OW 2131   0.097   1.747   0.639 -0.4017 -0.0412  0.1812
  411SOL    HW1 2132   0.094   1.783   0.732  0.3805  0.1719  0.1368
  411SOL    HW2 2133   0.069   1.651   0.640 -0.5894  0.0148  0.6042
  412SOL     OW 2134   4.110   1.721   1.146 -0.0377  0.1724 -0.7603
  412SOL    HW1 2135   4.172   1.729   1.068  2.0501 -1.8728  0.5732
  412SOL    HW2 2136   4.090   1.624   1.164 -0.2713  0.5604  1.3602
  413SOL     OW 2137   0.083   4.157   6.910  0.5551  0.1496  0.5496
  413SOL    HW1 2138   0.151   4.179   6.980  1.2611 -0.4700  0.0752
  413SOL    HW2 2139   0.130   4.139   6.823  0.0310 -2.8682  0.8010
  414SOL     OW 2140   1.332   5.129   6.080  0.2674  0.1205  0.0495
  414SOL    HW1 2141   1.339   5.191   6.002 -0.7419  0.6513  0.3601
  414SOL    HW2 2142   1.280   5.173   6.154  0.9984 -0.4579  0.9353
  415SOL     OW 2143   0.399   6.786   4.326  0.0571 -0.9958 -0.1757
  415SOL    HW1 2144   0.394   6.883   4.351 -1.6148 -1.0116 -0.3255
  415SOL    HW2 2145   0.346   6.732   4.391  0.5788 -1.7652 -0.3713
  416SOL     OW 2146   6.168   2.603   1.188  0.3305  0.1982 -0.1601
  416SOL    HW1 2147   6.121   2.569   1.269  0.2206  0.1371 -0.2496
  416SOL    HW2 2148   6.264   2.619   1.210  0.3458 -0.0071 -0.0683
  417SOL     OW 2149   3.564   2.149   5.488 -0.4810  0.2526  0.0778
  417SOL    HW1 2150   3.562   2.073   5.422  0.4261 -1.2339  1.6822
  417SOL    HW2 2151   3.510   2.225   5.452 -0.6094 -0.7539 -2.0480
  418SOL     OW 2152   6.848   2.956   5.344  0.4831  0.3921  0.2304
  418SOL    HW1 2153   6.896   3.038   5.377 -1.1679  0.8079  1.8039
  418SOL    HW2 2154   6.816   2.903   5.423  0.8108 -1.3739 -0.7729
  419SOL     OW 2155   6.642   6.157   6.077 -0.6793 -0.1550 -0.1320
  419SOL    HW1 2156   6.647   6.070   6.030  1.5382 -0.0405 -0.2225
  419SOL    HW2 2157   6.633   6.141   6.176 -1.1676 -0.4568 -0.2227
  420SOL     OW 2158   1.203   1.248   5.172 -0.3612 -0.2634 -0.5094
  420SOL    HW1 2159   1.269   1.202   5.112  0.4521  1.1526 -0.7490
  420SOL    HW2 2160   1.231   1.238   5.267 -0.5424 -0.7961 -0.5087
  421SOL     OW 2161   6.051   3.054   3.897 -0.3696 -0.3600 -0.2036
  421SOL    HW1 2162   5.990   3.070   3.821 -0.4691 -1.3153 -0.3337
  421SOL    HW2 2163   6.021   3.108   3.976 -0.7693 -0.0363 -0.5730
  422SOL     OW 2164   5.012   5.865   0.042  0.2318  0.0263  0.1670
  422SOL    HW1 2165   5.109   5.843   0.039  0.0216 -0.8777 -0.6155
  422SOL    HW2 2166   4.984   5.881   0.136  0.7332 -1.6366  0.6358
  423SOL     OW 2167   6.591   0.789   6.692 -0.6773  0.3058  0.2402
  423SOL    HW1 2168   6.590   0.849   6.772  0.3059 -0.4373  0.8325
  423SOL    HW2 2169   6.667   0.815   6.632 -1.2202  0.6591 -0.3080
  424SOL     OW 2170   5.397   2.215   5.949  0.2927 -0.0410 -0.6371
  424SOL    HW1 2171   5.328   2.201   5.878 -0.2616 -0.1070 -0.0943
  424SOL    HW2 2172   5.379   2.152   6.025  0.1749  0.8319  0.0698
  425SOL     OW 2173   1.213   6.287   3.278  0.1344 -0.5607  0.2448
  425SOL    HW1 2174   1.156   6.284   3.195 -0.2194 -2.2875  0.5086
  425SOL    HW2 2175   1.158   6.260   3.357 -0.0868  2.9233  1.4734
  426SOL     OW 2176   5.735   0.090   3.410  0.2408  0.4589 -0.2188
  426SOL    HW1 2177   5.711   0.169   3.466  2.2916  1.9296 -1.2639
  426SOL    HW2 2178   5.655   0.061   3.357 -1.0555  0.5801  1.5950
  427SOL     OW 2179   0.434   2.753   2.517  0.7842 -0.2079  0.6283
  427SOL    HW1 2180   0.380   2.792   2.592 -0.6374  0.2068 -0.5628
  427SOL    HW2 2181   0.490   2.825   2.475  1.7697 -0.4904  1.4037
  428SOL     OW 2182   0.675   2.164   4.358 -0.2070  0.1609 -0.3985
  428SOL    HW1 2183   0.749   2.096   4.354 -1.5516 -1.3594 -0.2483
  428SOL    HW2 2184   0.703   2.239   4.418  0.4797 -1.3260  1.2585
  429SOL     OW 2185   1.883   4.774   0.639  0.0095  0.1493  0.5546
  429SOL    HW1 2186   1.811   4.722   0.594  0.4393  0.3954 -0.4517
  429SOL    HW2 2187   1.856   4.870   0.644  0.9729  0.5628 -1.4198
  430SOL     OW 2188   2.479   1.425   4.958  0.8129  0.0360  0.0001
  430SOL    HW1 2189   2.529   1.348   4.916  0.2619 -1.0114  1.2102
  430SOL    HW2 2190   2.488   1.505   4.899  0.2814 -1.2940 -2.0089
  431SOL     OW 2191   4.145   5.085   4.286 -0.6182 -0.2558  0.1647
  431SOL    HW1 2192   4.120   5.057   4.378  2.7569 -1.4030  0.8879
  431SOL    HW2 2193   4.156   5.185   4.283 -1.2655 -0.1608  0.8633
  432SOL     OW 2194   5.742   1.853   3.208 -0.3858 -0.5422 -0.1671
  432SOL    HW1 2195   5.682   1.782   3.244 -0.9735 -0.3255 -0.7157
  432SOL    HW2 2196   5.754   1.841   3.110 -0.6327  0.2190 -0.2983
  433SOL     OW 2197   1.666   2.958   4.462 -0.4025  0.4986 -0.4604
  433SOL    HW1 2198   1.749   2.956   4.518  0.6171 -1.2080 -1.9038
  433SOL    HW2 2199   1.671   3.035   4.398  0.2962  0.2027 -0.7863
  434SOL     OW 2200   0.668   0.616   5.656 -0.4702 -0.0895 -0.3563
  434SOL    HW1 2201   0.569   0.616   5.653 -0.5035 -0.3272  0.4618
  434SOL    HW2 2202   0.705   0.580   5.570 -1.0771  0.4867 -0.8574
  435SOL     OW 2203   4.688   3.163   0.678 -0.4017 -0.4003 -0.4243
  435SOL    HW1 2204   4.772   3.122   0.714  0.0475  0.0227 -0.9831
  435SOL    HW2 2205   4.709   3.249   0.634 -1.3889  0.7030  1.1371
  436SOL     OW 2206   0.161   2.876   2.329 -0.9491 -0.6515 -0.7605
  436SOL    HW1 2207   0.195   2.785   2.305 -0.9135 -0.1648 -2.7222
  436SOL    HW2 2208   0.222   2.918   2.396  0.0054 -1.3997 -1.1394
  437SOL     OW 2209   3.229   6.542   4.015 -0.1191  0.1456  0.3946
  437SOL    HW1 2210   3.142   6.525   3.969 -0.0891 -2.4015  1.1193
  437SOL    HW2 2211   3.211   6.573   4.109 -0.2227  0.7247  0.1862
  438SOL     OW 2212   0.989   5.611   1.911 -0.0512 -0.3172 -0.4494
  438SOL    HW1 2213   0.974   5.512   1.911 -0.0949 -0.3120 -0.0092
  438SOL    HW2 2214   1.067   5.633   1.970 -1.4942  0.1184  1.3938
  439SOL     OW 2215   0.335   3.347   4.016 -0.8966  0.0472 -0.0436
  439SOL    HW1 2216   0.415   3.310   3.969 -0.6961  0.0335  0.3101
  439SOL    HW2 2217   0.269   3.381   3.948 -1.1851 -1.1514 -0.3881
  440SOL     OW 2218   4.906   3.232   5.704 -0.0708  0.6019 -0.2119
  440SOL    HW1 2219   4.945   3.247   5.613 -0.6760  0.3691 -0.5154
  440SOL    HW2 2220   4.849   3.309   5.729 -0.3025  0.4413 -0.2423
  441SOL     OW 2221   5.552   2.510   0.898 -0.4832  0.2417 -0.1642
  441SOL    HW1 2222   5.609   2.473   0.825  1.9954  2.1206  0.6536
  441SOL    HW2 2223   5.487   2.576   0.859 -1.8569 -1.5334 -1.0456
  442SOL     OW 2224   3.480   4.151   3.427 -0.5050 -0.4496 -0.0832
  442SOL    HW1 2225   3.473   4.186   3.334  2.3870  2.0355  0.4826
  442SOL    HW2 2226   3.567   4.104   3.439  0.5546  1.8111  2.0134
  443SOL     OW 2227   7.004   0.637   1.279  0.0752  0.3250  0.1678
  443SOL    HW1 2228   6.966   0.672   1.194 -2.6071  0.4859  1.3045
  443SOL    HW2 2229   6.975   0.542   1.291  2.2938 -0.4335 -0.0939
  444SOL     OW 2230   3.730   3.776   6.349  0.3352 -0.0019  0.0471
  444SOL    HW1 2231   3.732   3.716   6.428 -1.6497  1.5053  1.3574
  444SOL    HW2 2232   3.677   3.858   6.371  0.9908  1.1740 -2.3851
  445SOL     OW 2233   3.725   4.057   3.415  0.3479 -0.3158 -0.2886
  445SOL    HW1 2234   3.768   4.050   3.325  0.8596  0.9174 -0.1611
  445SOL    HW2 2235   3.795   4.041   3.486  0.4212  0.8280 -0.0917
  446SOL     OW 2236   2.254   5.648   5.439  0.0879  0.4874 -0.6503
  446SOL    HW1 2237   2.216   5.578   5.499  0.0859  1.3929  0.4529
  446SOL    HW2 2238   2.225   5.631   5.345 -1.8563  0.3048 -0.0729
  447SOL     OW 2239   2.925   6.868   2.399  0.5405 -0.2889 -0.2502
  447SOL    HW1 2240   2.959   6.954   2.361 -0.1601  1.1042  2.0724
  447SOL    HW2 2241   2.995   6.827   2.458  0.6706 -1.0361 -0.9147
  448SOL     OW 2242   1.392   4.041   2.644 -0.3387 -0.4516  0.0788
  448SOL    HW1 2243   1.379   3.953   2.689 -0.7943 -0.4769 -0.0866
  448SOL    HW2 2244   1.481   4.043   2.598 -0.1477 -0.6647  0.4388
  449SOL     OW 2245   0.553   1.963   4.139  0.2875  0.0658 -0.2856
  449SOL    HW1 2246   0.528   1.904   4.215  0.9822 -0.2486 -0.2889
  449SOL    HW2 2247   0.585   2.051   4.175 -1.6177  0.8213 -0.3088
  450SOL     OW 2248   5.299   0.303   4.668  0.6974  0.1374 -0.1951
  450SOL    HW1 2249   5.350   0.338   4.746  0.6635 -2.9259  1.3302
  450SOL    HW2 2250   5.338   0.215   4.639 -1.9592 -0.9388 -0.7736
  451SOL     OW 2251   1.938   1.519   2.706  0.4139 -0.2983 -0.2559
  451SOL    HW1 2252   1.979   1.593   2.760  0.1011 -1.2280  1.3296
  451SOL    HW2 2253   1.850   1.549   2.671 -0.9937 -0.6926  2.6218
  452SOL     OW 2254   3.195   1.692   1.743 -0.0539 -0.1254 -0.0086
  452SOL    HW1 2255   3.195   1.765   1.812 -0.3338  0.4083 -0.5675
  452SOL    HW2 2256   3.282   1.644   1.746 -0.1429 -0.2561  0.8697
  453SOL     OW 2257   4.058   4.312   5.857 -0.0136  0.1367  0.1538
  453SOL    HW1 2258   3.973   4.334   5.905  0.2021 -1.0976  1.1576
  453SOL    HW2 2259   4.046   4.325   5.759 -1.6547 -0.9361  0.1967
  454SOL     OW 2260   4.339   2.884   0.791 -0.2769  0.0318 -0.3257
  454SOL    HW1 2261   4.351   2.894   0.692  1.3440 -0.9705 -0.2679
  454SOL    HW2 2262   4.298   2.967   0.827 -0.1272  0.7581 -1.7302
  455SOL     OW 2263   1.240   4.588   5.503  0.5495  0.1737 -0.3366
  455SOL    HW1 2264   1.160   4.546   5.462  1.5683 -0.7462 -1.4361
  455SOL    HW2 2265   1.248   4.557   5.598  1.2975 -2.2402 -1.1187
  456SOL     OW 2266   0.147   2.990   5.936  0.0300  0.2480 -0.3733
  456SOL    HW1 2267   0.115   2.914   5.878  1.6472 -0.0141 -0.9662
  456SOL    HW2 2268   0.190   2.954   6.018  0.6284  0.5183 -0.5630
  457SOL     OW 2269   6.302   1.962   6.356 -0.0009 -0.1785 -0.3107
  457SOL    HW1 2270   6.351   1.881   6.387  0.0836  0.2284  0.6507
  457SOL    HW2 2271   6.325   1.981   6.261  0.2656 -1.0592 -0.4299
  458SOL     OW 2272   1.946   3.143   1.362 -0.0539 -0.4783 -0.1146
  458SOL    HW1 2273   2.043   3.136   1.386  0.0646 -0.3900 -0.5731
  458SOL    HW2 2274   1.898   3.196   1.433  0.1579 -0.8437  0.3090
  459SOL     OW 2275   3.141   6.260   5.296  0.4022 -0.2091  0.1911
  459SOL    HW1 2276   3.095   6.291   5.212  0.5277  0.9465  0.5312
  459SOL    HW2 2277   3.131   6.161   5.305 -0.1140 -0.2683 -0.8885
  460SOL     OW 2278   4.774   3.169   0.241  0.4898 -0.8103  0.5947
  460SOL    HW1 2279   4.842   3.144   0.172  1.1015  2.0632  0.0365
  460SOL    HW2 2280   4.820   3.203   0.323 -0.2767 -2.0380  1.5699
  461SOL     OW 2281   1.841   1.665   5.776  0.4781  0.7968 -0.0814
  461SOL    HW1 2282   1.937   1.693   5.772  0.3664  1.1093 -0.7405
  461SOL    HW2 2283   1.794   1.719   5.846  0.6529  1.0511 -0.1580
  462SOL     OW 2284   5.955   0.905   5.668 -0.4451 -0.4384  0.4027
  462SOL    HW1 2285   5.879   0.970   5.659 -0.9684 -1.1603 -0.6259
  462SOL    HW2 2286   5.952   0.863   5.759 -2.1533 -1.4787 -0.0783
  463SOL     OW 2287   5.083   4.741   2.415  0.2269  0.0334 -0.7855
  463SOL    HW1 2288   5.104   4.644   2.398 -0.6777 -0.0367 -1.5886
  463SOL    HW2 2289   4.987   4.758   2.394  0.7792  1.4812 -2.4035
  464SOL     OW 2290   5.321   4.377   2.722  0.2226 -0.2754  0.3807
  464SOL    HW1 2291   5.233   4.386   2.768 -0.1114 -1.2203 -0.0485
  464SOL    HW2 2292   5.315   4.306   2.651  1.4460 -0.6619  0.6327
  465SOL     OW 2293   5.434   0.810   2.251 -0.3283 -0.0612  0.1142
  465SOL    HW1 2294   5.401   0.827   2.344  2.6789  0.9548  1.1119
  465SOL    HW2 2295   5.359   0.824   2.186 -1.8454  2.0502  2.1434
  466SOL     OW 2296   2.640   0.795   1.262  0.2095 -0.4032  0.2449
  466SOL    HW1 2297   2.593   0.742   1.191 -0.0189 -0.7758  0.6707
  466SOL    HW2 2298   2.582   0.871   1.291  0.9863  0.8003 -1.1719
  467SOL     OW 2299   4.042   4.840   1.487 -0.4288  0.3894  0.2481
  467SOL    HW1 2300   4.128   4.841   1.437 -0.5811  4.1560 -0.2298
  467SOL    HW2 2301   3.971   4.884   1.432 -1.6194  1.0302  2.1755
  468SOL     OW 2302   6.960   1.716   3.761  0.0564  0.3425  0.0079
  468SOL    HW1 2303   6.905   1.633   3.772  0.5176 -0.4967 -3.1372
  468SOL    HW2 2304   7.054   1.698   3.786  0.3695 -0.4625 -1.6135
  469SOL     OW 2305   3.182   3.938   5.749  0.3531  0.5427  0.8983
  469SOL    HW1 2306   3.207   4.034   5.735  2.2765 -0.1607 -1.1260
  469SOL    HW2 2307   3.139   3.902   5.666 -0.4896 -0.3241  1.6838
  470SOL     OW 2308   0.840   6.400   0.808 -0.5393  0.9595  0.2641
  470SOL    HW1 2309   0.750   6.432   0.836 -0.2977  0.3615  1.8442
  470SOL    HW2 2310   0.889   6.474   0.763 -1.8808  1.2245 -0.8413
  471SOL     OW 2311   5.968   1.351   6.306 -0.1360 -0.0042  0.0581
  471SOL    HW1 2312   5.951   1.378   6.401  2.2198  1.3075  0.1712
  471SOL    HW2 2313   5.940   1.426   6.245  0.6623  0.1841 -0.0858
  472SOL     OW 2314   3.115   0.148   2.116  0.1881 -0.9729  0.1187
  472SOL    HW1 2315   3.060   0.142   2.199  0.0090 -0.9806 -0.0005
  472SOL    HW2 2316   3.212   0.143   2.140  0.2881  1.6121  0.6126
  473SOL     OW 2317   3.455   3.026   5.775 -0.5682  0.1351  0.2290
  473SOL    HW1 2318   3.396   2.972   5.834  0.9731 -0.9182  0.8672
  473SOL    HW2 2319   3.542   2.979   5.763 -0.5739  0.6566 -2.3529
  474SOL     OW 2320   2.479   5.891   6.347 -0.2050  0.0364  0.2110
  474SOL    HW1 2321   2.497   5.940   6.262 -2.5096 -0.0541 -0.3852
  474SOL    HW2 2322   2.390   5.846   6.342  0.1975 -1.0989  2.1778
  475SOL     OW 2323   5.952   5.691   6.519  0.1929  0.6048  0.3815
  475SOL    HW1 2324   5.868   5.688   6.574  0.5759 -0.2229  0.9341
  475SOL    HW2 2325   5.932   5.729   6.429 -0.7325  0.6161  0.5871
  476SOL     OW 2326   5.054   6.065   1.089  0.3153 -0.6467  0.3447
  476SOL    HW1 2327   5.056   5.966   1.099  0.5507 -0.5708  1.0598
  476SOL    HW2 2328   4.959   6.096   1.083  0.1609 -0.7404  1.9851
  477SOL     OW 2329   2.799   3.958   1.400 -0.0980  0.2365  0.2397
  477SOL    HW1 2330   2.819   4.054   1.418  0.7620  0.0035  0.5443
  477SOL    HW2 2331   2.775   3.912   1.486 -1.6357  0.4191 -0.0538
  478SOL     OW 2332   5.673   3.748   5.194 -0.0509 -0.1649  0.5904
  478SOL    HW1 2333   5.703   3.760   5.288 -0.3433  0.8538  0.5694
  478SOL    HW2 2334   5.743   3.785   5.132  1.0283 -2.5070  0.2839
  479SOL     OW 2335   2.932   3.634   4.218  0.1665  0.2565 -0.2474
  479SOL    HW1 2336   2.936   3.545   4.171  1.1595  0.9576 -1.5889
  479SOL    HW2 2337   2.923   3.620   4.316 -2.1055 -1.2854 -0.5987
  480SOL     OW 2338   5.242   0.261   6.099 -0.1331  0.3452 -0.1961
  480SOL    HW1 2339   5.273   0.187   6.039 -1.5172 -0.7060  0.3229
  480SOL    HW2 2340   5.144   0.276   6.085 -0.1930  1.0095  0.8235
  481SOL     OW 2341   5.464   6.392   4.110 -0.4014  0.2014  0.2148
  481SOL    HW1 2342   5.501   6.362   4.023 -2.3997 -0.4085 -0.4828
  481SOL    HW2 2343   5.478   6.491   4.120  1.1752  0.0313 -0.0764
  482SOL     OW 2344   4.421   1.917   6.041  0.2559  0.2159  0.1726
  482SOL    HW1 2345   4.505   1.862   6.050  0.3134  0.4484  1.1975
  482SOL    HW2 2346   4.409   1.943   5.945  1.4453  0.3227  0.0335
  483SOL     OW 2347   5.645   5.740   2.968 -0.0033  0.7260  0.1916
  483SOL    HW1 2348   5.569   5.754   3.032 -0.6770 -0.5673 -0.2833
  483SOL    HW2 2349   5.689   5.652   2.989 -0.2583  0.2657 -1.1188
  484SOL     OW 2350   3.920   5.763   3.778  0.3262  0.5618  0.7561
  484SOL    HW1 2351   3.885   5.672   3.756  0.2119  0.6430  0.5996
  484SOL    HW2 2352   4.003   5.755   3.833  0.0679  0.3652  1.1204
  485SOL     OW 2353   3.352   6.830   6.087 -0.0635 -0.0195  0.1928
  485SOL    HW1 2354   3.395   6.745   6.056 -2.2770 -1.2836  0.4126
  485SOL    HW2 2355   3.418   6.883   6.140  1.2571 -1.7828  0.4043
  486SOL     OW 2356   0.374   2.909   0.152 -0.9006 -0.1880  0.0878
  486SOL    HW1 2357   0.383   2.849   0.231  0.6031 -0.7478 -0.4743
  486SOL    HW2 2358   0.376   3.005   0.182 -0.0645 -0.3941  0.7082
  487SOL     OW 2359   3.325   5.908   6.100  0.1527  0.9616 -0.5076
  487SOL    HW1 2360   3.381   5.896   6.183  1.8494 -0.3460 -1.7694
  487SOL    HW2 2361   3.258   5.835   6.094  0.9676  0.2283 -0.9590
  488SOL     OW 2362   5.820   6.568   3.897  0.0320  0.4318 -0.1062
  488SOL    HW1 2363   5.851   6.643   3.838  3.2919 -0.9594 -0.4035
  488SOL    HW2 2364   5.888   6.553   3.969 -1.6223 -0.8975  1.2693
  489SOL     OW 2365   5.192   5.294   0.337 -0.7289 -0.0458 -0.1369
  489SOL    HW1 2366   5.168   5.391   0.328  0.0372  0.1769  0.1371
  489SOL    HW2 2367   5.151   5.256   0.419  0.8387  0.6624  1.0256
  490SOL     OW 2368   6.362   0.187   5.473 -0.2039 -0.1731  0.0093
  490SOL    HW1 2369   6.410   0.244   5.539 -0.1027 -1.4875  1.0977
  490SOL    HW2 2370   6.414   0.185   5.387 -0.1627  1.2559 -0.0271
  491SOL     OW 2371   0.673   5.014   5.540 -0.0446 -0.3215  0.2923
  491SOL    HW1 2372   0.738   4.998   5.615  1.0484  1.2594 -0.2620
  491SOL    HW2 2373   0.714   5.076   5.473 -1.7594 -0.1062 -0.6142
  492SOL     OW 2374   2.555   4.590   5.228 -0.0775  0.5252  0.1047
  492SOL    HW1 2375   2.565   4.498   5.191  0.9337  1.1846 -1.3611
  492SOL    HW2 2376   2.505   4.586   5.314  1.6094 -1.6129  1.0823
  493SOL     OW 2377   0.160   4.353   6.498  0.4794  0.0121  0.4817
  493SOL    HW1 2378   0.226   4.406   6.552 -2.1490  0.9682  3.0554
  493SOL    HW2 2379   0.146   4.264   6.541  0.0154 -0.1181  0.0666
  494SOL     OW 2380   1.532   0.791   0.570  0.0729 -0.6887  0.2869
  494SOL    HW1 2381   1.630   0.800   0.553  0.4501 -3.3709  0.6560
  494SOL    HW2 2382   1.500   0.702   0.536 -2.2703  0.1453  0.1181
  495SOL     OW 2383   4.041   5.055   5.336 -0.6679  0.2525  0.6003
  495SOL    HW1 2384   4.040   5.128   5.404 -0.5705  2.3154 -1.4716
  495SOL    HW2 2385   4.100   5.081   5.259 -1.4508 -1.5661 -0.7086
  496SOL     OW 2386   0.702   4.132   1.497  0.1865  0.5034  0.0957
  496SOL    HW1 2387   0.655   4.130   1.585 -2.2719 -0.4205 -1.1345
  496SOL    HW2 2388   0.690   4.045   1.451  1.1824  1.0581 -1.2865
  497SOL     OW 2389   3.021   4.719   0.354  0.0674  0.4710  0.1516
  497SOL    HW1 2390   3.075   4.651   0.403 -1.7002 -1.2635 -0.1890
  497SOL    HW2 2391   2.992   4.790   0.418 -0.0733 -0.3838  1.0620
  498SOL     OW 2392   3.463   0.459   0.166 -0.5785  0.5391  0.5673
  498SOL    HW1 2393   3.398   0.385   0.183  0.2903 -0.4044 -0.0706
  498SOL    HW2 2394   3.488   0.503   0.252 -0.0355 -0.8592  1.1430
  499SOL     OW 2395   6.383   3.392   2.554 -0.1204  0.5052 -0.3516
  499SOL    HW1 2396   6.351   3.413   2.462 -3.0066  0.8401  0.6283
  499SOL    HW2 2397   6.321   3.327   2.597  0.6838  0.9745  1.6545
  500SOL     OW 2398   3.349   1.094   1.336 -0.0328  0.9475 -0.3456
  500SOL    HW1 2399   3.332   0.996   1.349  0.4117  0.9641  0.4679
  500SOL    HW2 2400   3.326   1.120   1.242  2.4316 -0.5029 -1.4547
  501SOL     OW 2401   5.628   4.995   0.345 -0.4374  0.2634 -0.1368
  501SOL    HW1 2402   5.607   5.014   0.441  3.3133 -1.5280  1.2333
  501SOL    HW2 2403   5.592   4.904   0.320 -0.5217  0.2960 -0.1371
  502SOL     OW 2404   3.166   0.926   5.651  0.1992  0.5261  0.1705
  502SOL    HW1 2405   3.247   0.959   5.699  0.6078 -0.9043  0.5121
  502SOL    HW2 2406   3.180   0.932   5.552  0.6508  0.4398  0.2290
  503SOL     OW 2407   1.605   1.712   0.098 -0.5860  0.1750 -0.0502
  503SOL    HW1 2408   1.653   1.654   0.032  0.2492  0.7936 -0.0060
  503SOL    HW2 2409   1.647   1.803   0.099 -0.8580  0.3032  1.0337
  504SOL     OW 2410   6.848   3.044   0.003 -0.3200  0.2506  0.1401
  504SOL    HW1 2411   6.861   3.014  -0.091 -1.0743  2.0551 -0.5812
  504SOL    HW2 2412   6.937   3.051   0.049  0.1239  0.1230 -0.6825
  505SOL     OW 2413   4.381   5.300   2.039 -0.4449 -0.8157  0.3946
  505SOL    HW1 2414   4.462   5.284   1.982 -1.6111 -1.3811 -1.1686
  505SOL    HW2 2415   4.397   5.381   2.096  0.8809 -0.3927 -0.5130
  506SOL     OW 2416   2.333   4.483   6.909 -0.1314  0.2016  0.3082
  506SOL    HW1 2417   2.376   4.450   6.993  0.2405 -0.7810 -0.2562
  506SOL    HW2 2418   2.283   4.568   6.928 -1.6141 -0.9773  1.9277
  507SOL     OW 2419   5.383   0.938   2.921  0.1596  0.1902  0.3734
  507SOL    HW1 2420   5.320   1.015   2.927  0.7041  0.6522  0.1578
  507SOL    HW2 2421   5.332   0.853   2.937 -1.0274  0.3186 -2.2485
  508SOL     OW 2422   0.845   2.638   4.802 -0.7202 -0.3264  0.2783
  508SOL    HW1 2423   0.936   2.617   4.837 -0.4903 -0.6508 -0.4885
  508SOL    HW2 2424   0.781   2.644   4.878 -0.0046  0.2372  0.8658
  509SOL     OW 2425   1.680   1.342   0.783  0.1586  0.2284 -0.3500
  509SOL    HW1 2426   1.633   1.261   0.747 -0.7917  0.9149 -0.6862
  509SOL    HW2 2427   1.670   1.417   0.719 -1.1309  1.3399  1.0861
  510SOL     OW 2428   4.370   1.513   2.747  0.1000 -0.4766 -0.6427
  510SOL    HW1 2429   4.312   1.543   2.823 -0.1993 -0.9147 -0.6935
  510SOL    HW2 2430   4.466   1.519   2.774  0.0701  0.7047 -0.7200
  511SOL     OW 2431   3.459   0.264   1.870 -0.0956  0.4004  0.0121
  511SOL    HW1 2432   3.449   0.330   1.795 -1.1739  0.7707  0.4510
  511SOL    HW2 2433   3.518   0.303   1.940 -0.6081  0.8491  0.2023
  512SOL     OW 2434   2.041   0.864   5.447 -0.2281  0.1888  0.1153
  512SOL    HW1 2435   2.082   0.888   5.536  0.8523  3.5842 -1.1418
  512SOL    HW2 2436   2.108   0.815   5.392  0.2694  0.9556  0.0256
  513SOL     OW 2437   0.819   5.083   2.741 -0.3451 -0.1174  0.1452
  513SOL    HW1 2438   0.755   5.138   2.688 -1.7696  0.1427  2.0305
  513SOL    HW2 2439   0.772   5.002   2.777  1.0290 -1.1785 -0.3601
  514SOL     OW 2440   1.442   0.812   5.345 -0.3300 -0.2067 -0.0945
  514SOL    HW1 2441   1.486   0.727   5.373  2.4490  0.9575 -0.5240
  514SOL    HW2 2442   1.398   0.799   5.256 -0.3499 -1.3120  0.0655
  515SOL     OW 2443   3.485   3.496   4.540  0.6454 -0.5075 -0.2276
  515SOL    HW1 2444   3.417   3.423   4.529  0.1949  0.0327 -1.1366
  515SOL    HW2 2445   3.438   3.583   4.554  1.0928  0.0512 -1.9760
  516SOL     OW 2446   5.163   4.904   3.611 -0.0065  0.0506 -0.0453
  516SOL    HW1 2447   5.261   4.911   3.627 -0.0173 -0.3832  0.2304
  516SOL    HW2 2448   5.113   4.959   3.678  0.0452  0.2284 -0.1526
  517SOL     OW 2449   4.994   4.936   5.651 -0.3319  0.4492  0.1596
  517SOL    HW1 2450   4.993   5.013   5.587  0.6478 -0.8340 -1.4626
  517SOL    HW2 2451   5.080   4.935   5.701  0.1181 -0.1789 -0.6028
  518SOL     OW 2452   5.929   1.525   2.880  0.5438 -0.0338 -0.0905
  518SOL    HW1 2453   5.848   1.552   2.932 -1.0369  1.8698 -3.2128
  518SOL    HW2 2454   6.000   1.594   2.892  0.2247  0.3423 -0.3171
  519SOL     OW 2455   1.384   4.879   6.383  0.3301 -0.3852  0.3221
  519SOL    HW1 2456   1.334   4.946   6.439 -1.4339 -2.2534  1.1461
  519SOL    HW2 2457   1.450   4.831   6.441 -0.5351 -1.3772  0.5272
  520SOL     OW 2458   5.151   0.990   1.827 -0.0102 -0.2443 -0.1653
  520SOL    HW1 2459   5.246   1.020   1.819 -0.0636  0.1158  0.5128
  520SOL    HW2 2460   5.110   1.030   1.909 -0.8312 -0.1770 -0.6003
  521SOL     OW 2461   4.043   1.872   1.357 -0.1531  0.1225  0.3155
  521SOL    HW1 2462   4.067   1.800   1.292 -1.4371 -1.0123  1.0292
  521SOL    HW2 2463   4.067   1.961   1.319  1.7505 -0.6820 -0.4664
  522SOL     OW 2464   3.441   5.712   3.298  0.1312 -0.2214 -0.4235
  522SOL    HW1 2465   3.449   5.677   3.392  1.2193  1.1851  0.0492
  522SOL    HW2 2466   3.358   5.767   3.290  0.2139 -0.0551 -0.1669
  523SOL     OW 2467   1.707   2.510   5.423 -0.6915  0.2176  0.2279
  523SOL    HW1 2468   1.782   2.535   5.485 -0.1137 -0.4365 -0.1977
  523SOL    HW2 2469   1.624   2.557   5.452 -0.5556 -0.4305  1.7944
  524SOL     OW 2470   4.010   2.988   1.945  0.5277  0.2399  0.0904
  524SOL    HW1 2471   3.910   2.997   1.941  0.3493 -1.7194 -1.3376
  524SOL    HW2 2472   4.045   3.041   2.022 -1.4799  1.8905 -0.0281
  525SOL     OW 2473   3.747   1.871   3.739 -0.3014 -0.8226 -0.4521
  525SOL    HW1 2474   3.817   1.810   3.702 -0.5145 -0.9216 -0.6949
  525SOL    HW2 2475   3.661   1.821   3.751 -0.1790 -0.8417  0.3762
  526SOL     OW 2476   3.876   0.532   6.194 -1.0435  0.3148 -0.4856
  526SOL    HW1 2477   3.804   0.468   6.170 -1.2113 -0.1209  1.0882
  526SOL    HW2 2478   3.863   0.564   6.288  1.6761 -1.0087  0.4562
  527SOL     OW 2479   4.256   1.645   4.852  0.1970 -0.3910 -0.2060
  527SOL    HW1 2480   4.293   1.713   4.916 -2.1818  2.9197 -2.0241
  527SOL    HW2 2481   4.159   1.633   4.869 -0.0240 -1.1103 -1.8331
  528SOL     OW 2482   5.919   6.083   0.345 -0.0399  0.3255 -0.1635
  528SOL    HW1 2483   5.971   6.083   0.430  1.0207 -1.6052 -0.7438
  528SOL    HW2 2484   5.827   6.050   0.362  0.0826  0.2106  0.2941
  529SOL     OW 2485   4.283   2.328   0.429 -0.1327 -0.2194 -0.3333
  529SOL    HW1 2486   4.260   2.397   0.497  0.5402  2.2912 -2.5077
  529SOL    HW2 2487   4.381   2.331   0.409  0.0091 -2.1589 -0.1970
  530SOL     OW 2488   5.313   3.928   6.620  0.0062  0.2467 -0.2477
  530SOL    HW1 2489   5.270   3.840   6.598 -1.3569  1.1841 -1.4730
  530SOL    HW2 2490   5.248   3.984   6.671  0.0162  1.3991 -1.4546
  531SOL     OW 2491   4.912   4.219   2.711  0.3401  0.2100 -0.5495
  531SOL    HW1 2492   4.930   4.285   2.638  1.2355  1.8551  1.0701
  531SOL    HW2 2493   4.815   4.193   2.710  0.2501  0.5267 -2.0177
  532SOL     OW 2494   3.444   6.255   1.541  0.1560  0.3280  0.2331
  532SOL    HW1 2495   3.516   6.199   1.582  0.9876 -0.0419 -1.6321
  532SOL    HW2 2496   3.485   6.336   1.498 -0.7288  0.9452  0.5270
  533SOL     OW 2497   4.495   1.792   0.699  0.2887  0.7920  0.3342
  533SOL    HW1 2498   4.508   1.814   0.795 -0.4397  0.0148  0.6260
  533SOL    HW2 2499   4.400   1.809   0.673  0.2869  0.2691 -0.0310
  534SOL     OW 2500   6.550   4.882   6.881 -0.2431  0.6628 -0.4142
  534SOL    HW1 2501   6.608   4.959   6.854  1.9143 -1.0754 -1.1000
  534SOL    HW2 2502   6.550   4.873   6.981 -0.5211  1.5468 -0.3323
  535SOL     OW 2503   5.654   1.392   5.652  0.3677 -0.3857  0.4227
  535SOL    HW1 2504   5.728   1.396   5.585  0.3074  2.9461  0.3781
  535SOL    HW2 2505   5.567   1.411   5.607 -0.4963 -3.3182  0.6434
  536SOL     OW 2506   5.390   0.856   3.547 -0.5803  0.5314  0.2008
  536SOL    HW1 2507   5.448   0.937   3.557  0.5416 -0.2743  0.4591
  536SOL    HW2 2508   5.410   0.792   3.622 -2.6536  0.7149  0.9738
  537SOL     OW 2509   5.200   1.876   5.528 -0.5457 -0.0688  0.0599
  537SOL    HW1 2510   5.108   1.870   5.566 -0.4909 -0.9035  0.0787
  537SOL    HW2 2511   5.199   1.847   5.432 -0.1678 -0.9508  0.3044
  538SOL     OW 2512   0.987   1.246   0.787 -0.5345  0.1707 -0.1050
  538SOL    HW1 2513   1.074   1.212   0.752 -0.3293 -0.4091  0.9299
  538SOL    HW2 2514   1.000   1.280   0.881 -1.1725  1.1942 -0.3687
  539SOL     OW 2515   3.810   6.367   2.628  0.2892 -0.4034  0.1388
  539SOL    HW1 2516   3.870   6.294   2.596 -0.7129 -0.6962 -1.1536
  539SOL    HW2 2517   3.782   6.424   2.550  0.2918  0.7856  0.9840
  540SOL     OW 2518   5.184   6.278   5.257  0.3410  0.2045 -0.8315
  540SOL    HW1 2519   5.170   6.370   5.221  0.8811  0.7745  0.3712
  540SOL    HW2 2520   5.252   6.230   5.201  1.1686  1.0675 -0.5826
  541SOL     OW 2521   4.497   5.988   5.385  0.2055  0.9564 -0.1220
  541SOL    HW1 2522   4.465   5.912   5.328  1.8183  0.8505 -0.9608
  541SOL    HW2 2523   4.555   6.048   5.331 -0.5339  2.4649  0.7072
  542SOL     OW 2524   6.098   0.862   3.399 -0.4763 -0.1543 -0.4684
  542SOL    HW1 2525   6.000   0.875   3.415 -0.3237  0.6388 -0.1079
  542SOL    HW2 2526   6.146   0.948   3.418  0.0570  0.0743 -2.6106
  543SOL     OW 2527   5.327   3.775   2.075  0.0257 -0.1601 -0.4205
  543SOL    HW1 2528   5.280   3.693   2.106  2.2679 -0.4433  2.7585
  543SOL    HW2 2529   5.275   3.856   2.103 -0.6966 -0.4679 -0.8540
  544SOL     OW 2530   3.397   6.325   5.193  0.1943  0.2410 -0.0894
  544SOL    HW1 2531   3.306   6.323   5.234  0.8775  1.4950  1.6323
  544SOL    HW2 2532   3.395   6.281   5.104 -2.4220  1.6243 -0.8003
  545SOL     OW 2533   3.653   6.755   2.296 -0.0642  0.2093 -0.1109
  545SOL    HW1 2534   3.709   6.764   2.377 -0.4767 -1.2137  0.3651
  545SOL    HW2 2535   3.658   6.839   2.242  1.8753  0.4025  0.3012
  546SOL     OW 2536   2.483   4.723   5.514 -0.0163  0.0837  0.0871
  546SOL    HW1 2537   2.448   4.788   5.446 -0.3437  0.9643  1.0520
  546SOL    HW2 2538   2.408   4.666   5.547  0.2270 -0.6430 -0.5905
  547SOL     OW 2539   0.137   2.311   0.923 -0.4342  0.1238 -0.7598
  547SOL    HW1 2540   0.056   2.369   0.929 -0.4880 -0.0967  1.4914
  547SOL    HW2 2541   0.119   2.223   0.966 -0.0050 -1.2611 -3.1927
  548SOL     OW 2542   4.155   3.515   2.932 -0.2987  0.3241  0.2920
  548SOL    HW1 2543   4.225   3.454   2.896  0.5574  1.1073  0.5993
  548SOL    HW2 2544   4.080   3.461   2.970  0.2776 -0.5265  0.2473
  549SOL     OW 2545   5.162   1.341   3.917 -0.6958  0.0590  0.8234
  549SOL    HW1 2546   5.250   1.386   3.902 -1.0695  0.9510  1.2764
  549SOL    HW2 2547   5.089   1.409   3.921 -1.6056 -0.7635 -0.8500
  550SOL     OW 2548   0.696   4.122   0.458 -0.4572 -0.3740  0.2315
  550SOL    HW1 2549   0.656   4.044   0.507 -1.0149 -0.8131 -0.8932
  550SOL    HW2 2550   0.761   4.169   0.518  0.1867 -1.9340  0.7913
  551SOL     OW 2551   1.115   0.256   4.016  0.6946  0.0831 -0.6058
  551SOL    HW1 2552   1.046   0.284   3.950 -0.0058 -0.7203 -0.2301
  551SOL    HW2 2553   1.071   0.235   4.103  1.3590 -0.8389 -0.4805
  552SOL     OW 2554   5.721   2.757   3.305  0.0050  0.0659  0.5231
  552SOL    HW1 2555   5.709   2.756   3.404 -0.9438  0.7247  0.4205
  552SOL    HW2 2556   5.654   2.696   3.262 -0.5154  0.8475  0.2017
  553SOL     OW 2557   2.864   6.449   5.544 -0.0270 -0.0695  0.4089
  553SOL    HW1 2558   2.818   6.433   5.457  0.3741 -0.3039  0.2382
  553SOL    HW2 2559   2.955   6.486   5.528  0.0625 -0.1460  0.7286
  554SOL     OW 2560   4.372   0.751   1.758  0.6381  0.2477  0.1861
  554SOL    HW1 2561   4.418   0.702   1.831 -0.2643 -1.3235 -0.2440
  554SOL    HW2 2562   4.434   0.762   1.680  0.7991 -0.4217  0.2135
  555SOL     OW 2563   0.465   0.094   3.640 -0.0233 -0.5136  0.1386
  555SOL    HW1 2564   0.544   0.071   3.583 -0.7228  2.9819 -2.5923
  555SOL    HW2 2565   0.383   0.097   3.583 -0.8554  2.7642  1.2851
  556SOL     OW 2566   5.126   3.084   4.335  0.0161 -0.7768  0.2622
  556SOL    HW1 2567   5.226   3.076   4.333  0.4088  2.1442  2.7004
  556SOL    HW2 2568   5.094   3.110   4.244  1.5268 -1.0508 -0.3918
  557SOL     OW 2569   6.522   4.716   5.662 -0.4032 -0.0392  0.3605
  557SOL    HW1 2570   6.586   4.732   5.587 -0.1053 -1.3803  0.3054
  557SOL    HW2 2571   6.455   4.790   5.666  0.3858  0.7268 -0.3786
  558SOL     OW 2572   4.212   0.184   5.202 -0.5157  0.1197  0.3379
  558SOL    HW1 2573   4.177   0.275   5.226 -2.7230 -0.3949 -0.7247
  558SOL    HW2 2574   4.184   0.161   5.109  1.0959 -1.1715  0.1196
  559SOL     OW 2575   1.215   6.415   0.866 -0.0519  0.0252 -0.6667
  559SOL    HW1 2576   1.157   6.467   0.929  0.1341 -1.6695  1.0090
  559SOL    HW2 2577   1.310   6.444   0.878 -0.1322  0.4204 -0.9432
  560SOL     OW 2578   6.248   6.374   3.014  0.0516 -0.2587 -0.6131
  560SOL    HW1 2579   6.154   6.355   3.041 -0.5989  0.3968 -2.3168
  560SOL    HW2 2580   6.295   6.422   3.089 -0.5976 -1.5679  0.6841
  561SOL     OW 2581   7.014   0.845   6.715 -0.6594  0.4390 -0.2378
  561SOL    HW1 2582   7.030   0.894   6.801 -2.9600  0.6988  0.1057
  561SOL    HW2 2583   7.099   0.802   6.684  0.4479  1.2022  1.6172
  562SOL     OW 2584   0.258   4.043   2.507 -0.2587 -0.0607  0.0419
  562SOL    HW1 2585   0.358   4.041   2.507 -0.2424 -2.2786 -1.3428
  562SOL    HW2 2586   0.227   4.137   2.524  2.0034  0.5347  1.4550
  563SOL     OW 2587   2.148   0.935   5.682 -0.5090  0.5468 -0.2867
  563SOL    HW1 2588   2.199   1.012   5.641 -0.2367 -0.6511 -2.3644
  563SOL    HW2 2589   2.074   0.971   5.738 -1.2958  2.3889 -2.3500
  564SOL     OW 2590   2.120   4.641   5.312  0.2898 -0.0679  0.5036
  564SOL    HW1 2591   2.089   4.676   5.401  0.9408  1.2529  0.2439
  564SOL    HW2 2592   2.178   4.561   5.326 -0.8245 -0.7990  1.1572
  565SOL     OW 2593   3.309   0.476   4.479  0.8085 -0.2515  0.3245
  565SOL    HW1 2594   3.392   0.440   4.437 -1.2556 -1.8119 -2.7257
  565SOL    HW2 2595   3.303   0.574   4.461  2.0801 -0.0474  0.8684
  566SOL     OW 2596   0.759   2.037   1.824  0.3960  0.0666 -0.1994
  566SOL    HW1 2597   0.850   2.074   1.844  0.2834  0.9262 -1.1732
  566SOL    HW2 2598   0.690   2.091   1.871  0.3770 -0.5799  0.5317
  567SOL     OW 2599   5.577   2.689   0.432  0.0387 -0.0111  0.2278
  567SOL    HW1 2600   5.595   2.752   0.356 -1.0660  1.5319  1.2064
  567SOL    HW2 2601   5.554   2.599   0.394 -2.1617  1.1305 -1.3916
  568SOL     OW 2602   5.320   1.597   3.000  0.0586  0.0646 -0.0280
  568SOL    HW1 2603   5.300   1.532   3.073  1.3908 -1.0547 -0.6077
  568SOL    HW2 2604   5.236   1.645   2.974 -0.6991 -0.4779  1.2943
  569SOL     OW 2605   3.971   2.200   3.228  0.8418 -0.3776 -0.2630
  569SOL    HW1 2606   4.000   2.255   3.307  2.9324 -2.8227  0.8420
  569SOL    HW2 2607   3.888   2.150   3.250  0.3722  0.3575 -0.3344
  570SOL     OW 2608   5.143   6.761   3.402  0.2635  0.5592  0.1678
  570SOL    HW1 2609   5.232   6.803   3.420  0.3167  0.2499  0.6639
  570SOL    HW2 2610   5.079   6.788   3.474  0.0328  0.5742 -0.0457
  571SOL     OW 2611   2.039   3.190   4.099  0.5808  0.0612  0.2613
  571SOL    HW1 2612   1.954   3.172   4.050  1.6672 -0.7454 -1.4438
  571SOL    HW2 2613   2.114   3.199   4.033  1.9344  0.0662  1.7406
  572SOL     OW 2614   6.947   1.528   0.017  0.0276 -0.0849 -0.2461
  572SOL    HW1 2615   6.863   1.482  -0.010 -0.3306 -0.7454  1.8114
  572SOL    HW2 2616   6.951   1.618  -0.025 -0.5914 -0.9038 -2.1548
  573SOL     OW 2617   1.525   1.434   4.515 -0.2596 -0.3972  0.4785
  573SOL    HW1 2618   1.462   1.386   4.576 -2.7016 -1.9139 -2.9432
  573SOL    HW2 2619   1.475   1.501   4.460  1.9974  1.5511  0.5926
  574SOL     OW 2620   2.174   1.219   3.688  0.2685 -0.4297  0.3588
  574SOL    HW1 2621   2.253   1.198   3.746  0.5667 -0.3383 -0.0039
  574SOL    HW2 2622   2.197   1.295   3.627 -0.7076  0.7911  1.4611
  575SOL     OW 2623   0.867   3.229   0.883  0.5548 -0.5655  0.3635
  575SOL    HW1 2624   0.860   3.203   0.979  0.5861  0.5507  0.6793
  575SOL    HW2 2625   0.942   3.294   0.871 -0.2941  0.3349 -0.1835
  576SOL     OW 2626   3.006   5.844   0.923 -0.0844 -0.6764  0.8239
  576SOL    HW1 2627   3.077   5.800   0.867  1.9225  1.9503  1.1120
  576SOL    HW2 2628   2.926   5.863   0.866  1.1346  0.1397 -0.6912
  577SOL     OW 2629   2.209   2.704   0.281 -0.2661 -0.6086 -0.5127
  577SOL    HW1 2630   2.190   2.749   0.193  2.0927  0.9620 -0.2986
  577SOL    HW2 2631   2.167   2.757   0.355 -0.0509 -0.4646 -0.4936
  578SOL     OW 2632   1.734   0.383   1.606 -1.1401 -0.4081 -0.3490
  578SOL    HW1 2633   1.789   0.301   1.595 -1.6243 -0.7832 -0.0005
  578SOL    HW2 2634   1.652   0.362   1.660 -1.0964  0.3741  0.0321
  579SOL     OW 2635   5.874   1.157   1.948  0.1034 -0.0625  0.3439
  579SOL    HW1 2636   5.921   1.245   1.944 -2.0881  1.2599  1.7074
  579SOL    HW2 2637   5.919   1.092   1.887  1.6610  2.0486 -0.8658
  580SOL     OW 2638   3.076   5.379   6.391  0.0336 -0.2773 -0.1761
  580SOL    HW1 2639   2.982   5.353   6.368 -0.3240 -1.0492  1.9120
  580SOL    HW2 2640   3.075   5.442   6.469  1.2739 -1.2250  0.6414
  581SOL     OW 2641   1.487   6.191   5.849  0.0680  0.1820  0.0814
  581SOL    HW1 2642   1.440   6.273   5.882  0.2774  0.3110  0.0572
  581SOL    HW2 2643   1.583   6.212   5.832 -0.2615  0.4190 -1.6571
  582SOL     OW 2644   0.605   4.378   1.078  0.2564  0.3602  0.2926
  582SOL    HW1 2645   0.669   4.453   1.058 -0.3999  0.6671 -0.7810
  582SOL    HW2 2646   0.630   4.298   1.022  0.6637 -0.0714  1.0784
  583SOL     OW 2647   3.593   4.811   5.662  0.0476  0.1969 -0.4075
  583SOL    HW1 2648   3.628   4.788   5.571  1.1821  2.5391 -0.6222
  583SOL    HW2 2649   3.584   4.728   5.716  0.9593 -1.0530 -2.0897
  584SOL     OW 2650   3.002   4.097   1.886 -0.1463  0.4538 -0.7215
  584SOL    HW1 2651   2.996   4.009   1.839  0.2742  0.6829 -1.2193
  584SOL    HW2 2652   3.049   4.085   1.974 -0.6664  0.0737 -0.4934
  585SOL     OW 2653   6.952   5.016   0.492  0.3292 -0.0613 -0.0234
  585SOL    HW1 2654   6.864   4.986   0.456 -0.4743 -0.5119  2.1491
  585SOL    HW2 2655   7.025   4.961   0.452 -0.4113  0.0105 -1.5157
  586SOL     OW 2656   6.524   1.506   4.792 -0.1835 -0.6129  0.5445
  586SOL    HW1 2657   6.441   1.451   4.779 -0.2739 -0.5532  0.8568
  586SOL    HW2 2658   6.545   1.512   4.890 -0.2657  0.0430  0.5253
  587SOL     OW 2659   2.136   5.658   2.967 -0.1741 -0.8056  0.2977
  587SOL    HW1 2660   2.137   5.654   3.067  2.1971 -1.7075  0.3172
  587SOL    HW2 2661   2.093   5.742   2.937  1.2209  0.6670  2.1812
  588SOL     OW 2662   0.251   0.019   2.517 -0.2511  0.1747  0.2043
  588SOL    HW1 2663   0.325   0.085   2.500  0.7391 -0.7710  0.7352
  588SOL    HW2 2664   0.281  -0.072   2.490 -1.9248  0.0287 -1.3704
  589SOL     OW 2665   1.066   3.727   3.703  0.0522  0.2573  0.2885
  589SOL    HW1 2666   0.973   3.707   3.673 -0.2356 -0.6228  1.6695
  589SOL    HW2 2667   1.063   3.784   3.785  0.6659 -1.0464  1.2457
  590SOL     OW 2668   0.101   6.987   6.938  0.5457  0.0564 -0.1481
  590SOL    HW1 2669   0.099   7.072   6.885  0.9263  1.4326  1.9180
  590SOL    HW2 2670   0.197   6.962   6.955  0.4481  0.4812  1.1176
  591SOL     OW 2671   1.336   5.519   2.383  0.2545 -0.2410 -0.1941
  591SOL    HW1 2672   1.273   5.495   2.310  1.9643 -0.0055 -1.8121
  591SOL    HW2 2673   1.393   5.597   2.354  1.2745 -0.4253  1.1998
  592SOL     OW 2674   4.246   2.171   3.139  0.7767 -0.5279 -0.5300
  592SOL    HW1 2675   4.148   2.191   3.136  0.4540 -1.9821 -0.5162
  592SOL    HW2 2676   4.262   2.081   3.099  2.0447 -0.5738  0.0504
  593SOL     OW 2677   5.008   0.441   6.838 -0.4520 -0.0073  0.2132
  593SOL    HW1 2678   5.050   0.503   6.771 -0.4899 -0.9768 -0.7362
  593SOL    HW2 2679   4.952   0.373   6.790  1.2270 -2.0645  1.0346
  594SOL     OW 2680   6.427   0.364   6.126 -0.3020  0.6185 -0.0744
  594SOL    HW1 2681   6.334   0.402   6.131 -0.6890 -0.0207 -1.6576
  594SOL    HW2 2682   6.426   0.282   6.069  1.2647  0.6511 -0.1932
  595SOL     OW 2683   1.005   2.742   4.169  0.5915 -0.2285  0.1662
  595SOL    HW1 2684   1.060   2.664   4.200  2.3329 -0.8559 -3.8051
  595SOL    HW2 2685   1.040   2.826   4.211  3.5854 -0.8414 -0.8202
  596SOL     OW 2686   5.628   6.223   0.224  0.0023 -0.6650 -0.1736
  596SOL    HW1 2687   5.716   6.260   0.254 -1.4313  1.8300  1.3130
  596SOL    HW2 2688   5.624   6.126   0.247  1.3298 -0.2163  2.4197
  597SOL     OW 2689   5.741   4.869   1.209  0.2771 -0.5533 -0.0254
  597SOL    HW1 2690   5.644   4.891   1.223  1.1372  2.5888  1.9004
  597SOL    HW2 2691   5.779   4.830   1.293  1.3387  1.1205  0.3086
  598SOL     OW 2692   2.604   2.166   0.374 -0.0643  0.3187  0.2383
  598SOL    HW1 2693   2.542   2.244   0.382  0.4128  0.6093  1.3804
  598SOL    HW2 2694   2.556   2.082   0.401 -0.8709  0.0217 -1.9261
  599SOL     OW 2695   6.111   5.268   1.614 -0.7729 -0.4032 -0.0433
  599SOL    HW1 2696   6.150   5.329   1.684  0.6553 -0.0144 -1.1308
  599SOL    HW2 2697   6.066   5.323   1.543 -2.0035 -0.7851  0.4118
  600SOL     OW 2698   4.492   0.431   2.990  0.4881 -0.4511  0.5892
  600SOL    HW1 2699   4.397   0.464   2.987  0.2676 -0.7916  2.7110
  600SOL    HW2 2700   4.554   0.507   2.968 -0.2053  0.2217  0.9243
  601SOL     OW 2701   0.033   2.300   0.290  0.4628  0.3982 -0.0721
  601SOL    HW1 2702  -0.019   2.344   0.218  0.4002  0.0985 -0.2133
  601SOL    HW2 2703  -0.029   2.264   0.359  0.4271 -0.5408 -0.5703
  602SOL     OW 2704   2.563   5.844   0.152 -0.1464 -0.1288  0.1262
  602SOL    HW1 2705   2.573   5.885   0.243  2.0830  2.3788 -1.1381
  602SOL    HW2 2706   2.621   5.763   0.146  0.6493  0.3913  0.5819
  603SOL     OW 2707   3.736   3.981   2.670  0.6146  0.5245  0.6475
  603SOL    HW1 2708   3.638   3.991   2.651  0.6491 -1.8415 -1.2431
  603SOL    HW2 2709   3.761   3.884   2.663  2.9171  0.9451  2.1511
  604SOL     OW 2710   2.591   2.204   4.342 -0.3460 -0.6994 -0.1584
  604SOL    HW1 2711   2.557   2.295   4.367  1.8963  1.0234 -2.8169
  604SOL    HW2 2712   2.678   2.188   4.388  0.6814 -0.1925 -1.8364
  605SOL     OW 2713   3.154   3.052   4.948 -0.2513 -0.1513  0.0007
  605SOL    HW1 2714   3.108   3.128   4.993 -0.2616 -0.2987  0.2409
  605SOL    HW2 2715   3.174   2.980   5.015 -1.2173 -0.8283 -0.4044
  606SOL     OW 2716   2.131   6.330   1.608 -0.2349  0.3700 -0.3781
  606SOL    HW1 2717   2.207   6.384   1.646  0.8130 -0.3546 -1.3936
  606SOL    HW2 2718   2.116   6.249   1.664 -0.9130  0.9850  0.3652
  607SOL     OW 2719   3.526   3.612   4.233 -0.0267 -0.2547 -0.2627
  607SOL    HW1 2720   3.587   3.617   4.154  0.7301 -1.7716  0.1936
  607SOL    HW2 2721   3.534   3.696   4.287  0.2374  0.3461 -1.2208
  608SOL     OW 2722   6.053   6.503   1.049  0.0011 -0.3181 -0.6413
  608SOL    HW1 2723   5.998   6.517   1.130 -1.5266 -1.1649 -1.4933
  608SOL    HW2 2724   6.025   6.567   0.977  1.3247  0.4187 -0.5431
  609SOL     OW 2725   3.373   0.998   5.818 -0.3359 -0.6602  0.3487
  609SOL    HW1 2726   3.379   1.080   5.874 -0.0064 -0.6990  0.3725
  609SOL    HW2 2727   3.462   0.979   5.776 -0.2756 -1.2797  0.7394
  610SOL     OW 2728   1.900   4.677   6.965  0.1179 -0.3723  0.5763
  610SOL    HW1 2729   1.857   4.601   6.917 -0.0891 -0.5075  0.9665
  610SOL    HW2 2730   1.988   4.699   6.923  0.5437 -1.3484  0.9471
  611SOL     OW 2731   2.276   5.629   0.149 -0.4820  0.1845  0.1565
  611SOL    HW1 2732   2.320   5.543   0.125 -2.1802 -0.9053  0.7656
  611SOL    HW2 2733   2.339   5.705   0.133  0.4700 -0.9875 -2.0273
  612SOL     OW 2734   0.089   5.607   0.413  0.7333  0.4549  0.1798
  612SOL    HW1 2735   0.013   5.549   0.444  0.4467  0.7161 -0.0305
  612SOL    HW2 2736   0.087   5.693   0.462  1.4986  0.0717  0.8994
  613SOL     OW 2737   3.066   3.418   1.491 -0.2170 -0.0045  0.2222
  613SOL    HW1 2738   3.047   3.441   1.587 -2.0414  0.0078 -0.1081
  613SOL    HW2 2739   2.990   3.448   1.434  1.3018  0.9833 -1.4189
  614SOL     OW 2740   4.651   1.318   1.907 -0.1915  1.0466 -0.3457
  614SOL    HW1 2741   4.640   1.302   2.005  0.0598  1.2959 -0.2717
  614SOL    HW2 2742   4.668   1.232   1.860 -0.7205  0.8786 -0.2259
  615SOL     OW 2743   0.629   3.325   4.962 -0.5660 -0.4987  0.3224
  615SOL    HW1 2744   0.534   3.292   4.964 -0.1803 -1.6332  0.5009
  615SOL    HW2 2745   0.653   3.352   4.869 -0.8457 -0.8778  0.1369
  616SOL     OW 2746   0.639   3.453   4.120 -0.3935  0.5548  0.3829
  616SOL    HW1 2747   0.595   3.543   4.116 -0.1532  0.7534  1.8221
  616SOL    HW2 2748   0.734   3.464   4.148 -0.4369 -0.1672  0.8343
  617SOL     OW 2749   0.367   0.035   3.092  0.2749  0.5369  0.9150
  617SOL    HW1 2750   0.387  -0.060   3.066 -0.1007  0.9587 -1.0790
  617SOL    HW2 2751   0.272   0.041   3.125  0.1140  0.3038  0.5051
  618SOL     OW 2752   4.865   4.830   2.220  0.4756  0.1670 -0.6640
  618SOL    HW1 2753   4.932   4.857   2.151  1.8805 -0.2493  0.5106
  618SOL    HW2 2754   4.826   4.913   2.262  1.7527  0.4204  0.0560
  619SOL     OW 2755   2.369   5.377   5.496 -0.3594 -0.1016  0.6244
  619SOL    HW1 2756   2.378   5.425   5.584 -0.9882  1.4883 -0.1423
  619SOL    HW2 2757   2.272   5.360   5.478 -0.3678  1.0110 -0.4794
  620SOL     OW 2758   4.245   0.122   2.200 -0.7247  0.0838  0.1684
  620SOL    HW1 2759   4.154   0.155   2.227 -1.1515  0.2728 -1.4067
  620SOL    HW2 2760   4.243   0.022   2.194 -0.7632  0.0719  0.3900
  621SOL     OW 2761   1.972   0.547   6.501  0.1276  0.2180  0.1572
  621SOL    HW1 2762   1.897   0.551   6.568 -0.7280 -0.5122 -0.7194
  621SOL    HW2 2763   1.975   0.633   6.450  0.5373  0.6305  0.8628
  622SOL     OW 2764   0.467   3.212   5.483  0.1998  0.0687 -0.1257
  622SOL    HW1 2765   0.435   3.306   5.495 -1.1728 -0.2028 -1.3810
  622SOL    HW2 2766   0.523   3.206   5.400 -0.1743 -0.3338 -0.3483
  623SOL     OW 2767   3.827   3.412   0.122  0.1844  0.8381  0.3006
  623SOL    HW1 2768   3.881   3.379   0.199 -2.2618  0.3712  1.9271
  623SOL    HW2 2769   3.836   3.348   0.045  2.4115  1.1550  0.2332
  624SOL     OW 2770   0.813   1.600   3.692  0.8075 -0.3404  0.0827
  624SOL    HW1 2771   0.786   1.664   3.620  0.4500  0.3416  0.8025
  624SOL    HW2 2772   0.785   1.636   3.781 -0.2810 -1.9729  0.4450
  625SOL     OW 2773   4.555   5.979   3.711 -0.1039  0.2715 -0.4987
  625SOL    HW1 2774   4.621   5.905   3.702 -0.7697 -0.6521  1.4535
  625SOL    HW2 2775   4.524   5.984   3.806 -3.9902 -0.4299 -1.5174
  626SOL     OW 2776   5.573   1.069   2.456  0.3783  0.5607 -0.3626
  626SOL    HW1 2777   5.631   1.050   2.536 -2.8183  1.8763  2.4988
  626SOL    HW2 2778   5.519   0.988   2.433  1.5756  0.0571 -1.5640
  627SOL     OW 2779   5.021   1.245   4.245  0.2057  0.2628  0.3656
  627SOL    HW1 2780   4.923   1.262   4.253 -0.1165 -0.9371 -0.6127
  627SOL    HW2 2781   5.036   1.169   4.181  1.8121  1.0259 -0.2271
  628SOL     OW 2782   5.657   0.442   1.241  0.0274  0.0162 -0.2273
  628SOL    HW1 2783   5.574   0.420   1.292  0.7018 -1.5797  0.2379
  628SOL    HW2 2784   5.644   0.419   1.145 -0.0876 -0.2119 -0.1583
  629SOL     OW 2785   0.701   3.490   3.237 -0.0370 -0.1289  0.0887
  629SOL    HW1 2786   0.738   3.573   3.196 -0.1776 -0.3366 -0.4796
  629SOL    HW2 2787   0.726   3.411   3.180  0.8408 -0.5904  1.0772
  630SOL     OW 2788   3.145   6.589   1.802  0.1933 -0.2154  0.3288
  630SOL    HW1 2789   3.164   6.491   1.809  1.4781 -0.1578 -1.5612
  630SOL    HW2 2790   3.183   6.624   1.716  0.6349  2.1393  1.4102
  631SOL     OW 2791   3.272   5.612   4.657 -0.2421  0.4881  0.7506
  631SOL    HW1 2792   3.301   5.688   4.715  1.4760  0.4912 -0.0608
  631SOL    HW2 2793   3.284   5.637   4.561  1.8848 -1.3157  0.4599
  632SOL     OW 2794   3.252   5.459   5.684 -0.2501  0.1901  0.1921
  632SOL    HW1 2795   3.264   5.517   5.764  0.1241  0.6904 -0.2226
  632SOL    HW2 2796   3.239   5.364   5.714  0.2882  0.3078  0.8317
  633SOL     OW 2797   6.491   2.841   5.759  0.4185 -0.3468  0.1982
  633SOL    HW1 2798   6.509   2.867   5.664 -3.2221 -0.4272 -0.6521
  633SOL    HW2 2799   6.560   2.776   5.790  0.3912 -2.1961 -3.2217
  634SOL     OW 2800   1.312   2.098   2.260  0.2550  0.7031  0.0867
  634SOL    HW1 2801   1.352   2.090   2.168  0.5591 -0.9303  0.3310
  634SOL    HW2 2802   1.344   2.022   2.317 -2.7545 -0.4165  0.4616
  635SOL     OW 2803   3.254   0.205   0.257  0.3431  0.3010 -0.7421
  635SOL    HW1 2804   3.204   0.212   0.343  1.2577 -0.3799 -0.1252
  635SOL    HW2 2805   3.325   0.135   0.265 -1.1147 -1.5693 -2.8561
  636SOL     OW 2806   5.063   2.066   6.182 -0.1759  0.3379  0.1815
  636SOL    HW1 2807   5.075   2.118   6.097 -0.8977  0.7433  0.3186
  636SOL    HW2 2808   5.067   1.969   6.162 -0.0590  0.4344 -0.2781
  637SOL     OW 2809   3.013   4.846   4.034 -0.3056 -0.2524  0.0229
  637SOL    HW1 2810   2.980   4.825   4.126  0.2599 -1.0902  0.0488
  637SOL    HW2 2811   3.113   4.843   4.034 -0.3023 -2.7683 -1.1381
  638SOL     OW 2812   6.895   5.257   5.001 -0.0088 -0.3424 -0.2034
  638SOL    HW1 2813   6.887   5.324   4.926 -1.4574  0.9335  1.0104
  638SOL    HW2 2814   6.942   5.300   5.078  0.7626 -1.3870 -0.0774
  639SOL     OW 2815   0.533   3.163   3.160  0.2532  0.2997  0.0471
  639SOL    HW1 2816   0.614   3.206   3.121  1.5824  0.4148  2.7264
  639SOL    HW2 2817   0.544   3.064   3.160  0.2775  0.3018  0.1519
  640SOL     OW 2818   3.798   2.339   0.362 -0.4976  0.0737  0.5809
  640SOL    HW1 2819   3.893   2.333   0.331 -0.3213 -2.2488  1.3702
  640SOL    HW2 2820   3.755   2.249   0.355 -1.7816  0.4291  2.8851
  641SOL     OW 2821   6.725   0.487   3.716  0.4372 -0.3096 -0.0772
  641SOL    HW1 2822   6.754   0.473   3.621 -2.1919  1.0177 -1.1725
  641SOL    HW2 2823   6.725   0.584   3.737  0.7681 -0.5716  1.2483
  642SOL     OW 2824   0.854   2.239   1.289 -0.5788 -0.0794  0.0647
  642SOL    HW1 2825   0.832   2.318   1.232  1.8243  1.9155  1.6939
  642SOL    HW2 2826   0.820   2.255   1.382 -1.2842 -1.6434  0.1029
  643SOL     OW 2827   1.213   3.490   5.377 -0.5973  0.0809 -0.3721
  643SOL    HW1 2828   1.162   3.549   5.440  0.0961  1.0952 -0.7530
  643SOL    HW2 2829   1.149   3.429   5.331 -1.3037  0.3934  0.1635
  644SOL     OW 2830   0.004   1.218   2.145 -0.6068  0.5554  1.0228
  644SOL    HW1 2831  -0.008   1.165   2.229 -0.1690  0.1224  0.8150
  644SOL    HW2 2832   0.079   1.282   2.157 -0.4885  0.4340  0.9346
  645SOL     OW 2833   2.023   6.049   4.247  0.4020  0.1928 -0.6488
  645SOL    HW1 2834   1.955   6.010   4.185  1.6456 -1.0923 -1.2668
  645SOL    HW2 2835   2.101   6.083   4.194  0.7629  0.5695  0.1095
  646SOL     OW 2836   5.811   4.656   4.819  0.0292 -0.0030 -0.1134
  646SOL    HW1 2837   5.882   4.696   4.761 -1.2307  1.1084 -0.9413
  646SOL    HW2 2838   5.825   4.557   4.825  0.1353 -0.1863 -2.4502
  647SOL     OW 2839   0.110   0.720   4.583 -0.9273  0.1158 -0.2130
  647SOL    HW1 2840   0.120   0.727   4.682 -0.1386  1.4211 -0.3660
  647SOL    HW2 2841   0.171   0.648   4.548  1.3709  1.9013 -0.0958
  648SOL     OW 2842   4.692   1.308   6.921  0.3761 -0.3663 -0.6795
  648SOL    HW1 2843   4.777   1.319   6.869  0.4784 -2.7412 -1.1241
  648SOL    HW2 2844   4.672   1.393   6.970  2.5156  0.5488 -1.2659
  649SOL     OW 2845   1.414   5.062   3.301  0.1308 -0.2382  0.0531
  649SOL    HW1 2846   1.340   5.091   3.362  1.2445  1.6300  0.6096
  649SOL    HW2 2847   1.461   4.983   3.340  1.4392  1.4947  2.2127
  650SOL     OW 2848   0.905   5.832   0.812  0.2572 -0.1150  0.2773
  650SOL    HW1 2849   0.866   5.916   0.849 -2.3990 -2.1923  2.6895
  650SOL    HW2 2850   0.860   5.810   0.726 -1.6361 -0.7487  1.3692
  651SOL     OW 2851   6.544   2.585   4.322 -0.4165  0.4301  0.8329
  651SOL    HW1 2852   6.636   2.551   4.337  0.5498  3.1448  1.6658
  651SOL    HW2 2853   6.483   2.547   4.391  0.4067 -0.1547  1.2560
  652SOL     OW 2854   2.840   1.077   4.023  0.0918 -0.0238 -0.2338
  652SOL    HW1 2855   2.840   1.003   3.956  1.7912  1.2422 -1.7316
  652SOL    HW2 2856   2.892   1.049   4.104 -1.0793 -1.1840  0.1550
  653SOL     OW 2857   1.457   1.848   2.680 -0.0774  0.3954 -0.4090
  653SOL    HW1 2858   1.380   1.903   2.647  0.5244  1.5501  0.0538
  653SOL    HW2 2859   1.441   1.820   2.774  0.0534  0.6385 -0.3116
  654SOL     OW 2860   6.801   6.607   0.100  0.1798  0.0088  0.2916
  654SOL    HW1 2861   6.839   6.518   0.074  0.9353  0.1841  0.7654
  654SOL    HW2 2862   6.751   6.646   0.022  1.2486 -0.0870 -0.4738
  655SOL     OW 2863   3.920   2.598   0.620  0.1010  0.5289  0.3362
  655SOL    HW1 2864   3.969   2.685   0.621  1.2161 -0.0177 -1.2996
  655SOL    HW2 2865   3.860   2.595   0.540 -0.0931 -0.1207  0.5012
  656SOL     OW 2866   2.922   3.133   1.968  0.0715 -0.0293 -0.0747
  656SOL    HW1 2867   2.823   3.123   1.954  0.1751  0.5599 -1.3458
  656SOL    HW2 2868   2.970   3.066   1.912  0.4244  0.3834 -0.2672
  657SOL     OW 2869   3.429   0.822   6.558  0.2582  0.3586 -0.2792
  657SOL    HW1 2870   3.479   0.750   6.605 -0.4491  0.3991  0.5774
  657SOL    HW2 2871   3.443   0.909   6.606  1.4639  0.8971 -1.5574
  658SOL     OW 2872   2.675   6.848   3.444 -0.5055 -0.1168 -0.8467
  658SOL    HW1 2873   2.600   6.900   3.404 -0.5140  0.2458 -0.3636
  658SOL    HW2 2874   2.663   6.843   3.543 -1.3329 -2.3600 -1.0138
  659SOL     OW 2875   5.543   1.657   0.560 -0.6018  0.2186  0.3918
  659SOL    HW1 2876   5.574   1.728   0.497  0.6122 -0.5997  0.0170
  659SOL    HW2 2877   5.606   1.580   0.556 -1.2511 -0.4088  1.6350
  660SOL     OW 2878   4.741   0.163   2.205 -0.3218 -0.4924  0.2971
  660SOL    HW1 2879   4.813   0.187   2.140 -0.4695 -2.2096 -0.5727
  660SOL    HW2 2880   4.775   0.173   2.298  2.0426 -3.6955 -0.0510
  661SOL     OW 2881   4.437   6.819   2.069 -0.0775  0.0766  0.4607
  661SOL    HW1 2882   4.488   6.905   2.061 -0.5262  0.2241 -1.1236
  661SOL    HW2 2883   4.384   6.804   1.986 -0.6397 -1.3473  1.0469
  662SOL     OW 2884   6.266   5.793   3.563 -0.2143 -0.3409 -0.6186
  662SOL    HW1 2885   6.205   5.722   3.528 -0.1366 -0.4019 -0.6295
  662SOL    HW2 2886   6.317   5.758   3.642  0.0920 -0.4202 -0.8461
  663SOL     OW 2887   4.185   6.863   4.085  0.2069  0.2911 -0.1847
  663SOL    HW1 2888   4.277   6.833   4.062  0.8721  1.5014  0.8145
  663SOL    HW2 2889   4.122   6.836   4.012  0.7096 -3.4140  0.5393
  664SOL     OW 2890   5.256   3.346   4.109  0.2726  0.1768  0.4981
  664SOL    HW1 2891   5.174   3.293   4.089 -1.0908  1.9186  1.1699
  664SOL    HW2 2892   5.289   3.390   4.025  0.6305 -0.6340  0.2007
  665SOL     OW 2893   5.818   0.218   3.836 -0.2856  0.1931  0.0390
  665SOL    HW1 2894   5.744   0.236   3.771 -0.0315  2.3681  0.2750
  665SOL    HW2 2895   5.906   0.221   3.789 -0.2029 -0.0156  0.1756
  666SOL     OW 2896   5.031   0.422   6.348 -0.2289  0.4462 -0.1909
  666SOL    HW1 2897   5.117   0.464   6.321 -0.3656  0.3909 -0.7201
  666SOL    HW2 2898   4.979   0.398   6.266 -0.2072 -0.6237  0.0946
  667SOL     OW 2899   5.068   6.516   3.581  0.3919 -0.2128  0.3087
  667SOL    HW1 2900   5.092   6.442   3.519 -3.0124  0.2133 -1.7318
  667SOL    HW2 2901   5.067   6.603   3.532 -1.2576  0.3215  1.1967
  668SOL     OW 2902   2.404   6.464   0.872  0.3328  0.1025  0.1602
  668SOL    HW1 2903   2.379   6.472   0.969 -2.9175  0.0184 -0.5899
  668SOL    HW2 2904   2.399   6.368   0.844 -3.0482  0.5120 -1.0242
  669SOL     OW 2905   2.789   4.895   1.011  0.5397 -0.1874  0.2652
  669SOL    HW1 2906   2.855   4.821   1.011 -1.4447 -2.0691  1.6062
  669SOL    HW2 2907   2.738   4.894   0.925  0.7125 -0.1872  0.1629
  670SOL     OW 2908   1.976   0.914   3.334  0.4501 -0.0762  0.3180
  670SOL    HW1 2909   1.917   0.874   3.405 -4.3571  0.5665 -2.8620
  670SOL    HW2 2910   1.984   1.012   3.349  1.6620 -0.2750  1.2219
  671SOL     OW 2911   4.900   2.525   3.973 -0.0711 -0.0432 -0.1432
  671SOL    HW1 2912   4.886   2.457   4.046  0.2748  0.4315  0.3694
  671SOL    HW2 2913   4.967   2.490   3.907  1.6047  0.5765  1.1556
  672SOL     OW 2914   5.407   3.923   1.608  0.0208  0.1845  0.3026
  672SOL    HW1 2915   5.472   3.860   1.651  1.0268  0.4838 -0.7297
  672SOL    HW2 2916   5.451   4.010   1.591  0.7465 -0.7913 -4.0605
  673SOL     OW 2917   2.100   1.430   1.071 -0.7536  0.1852  0.0852
  673SOL    HW1 2918   2.134   1.357   1.130 -0.1008  2.3258  2.5724
  673SOL    HW2 2919   2.114   1.405   0.975  0.5061 -2.4036  0.8520
  674SOL     OW 2920   4.605   0.513   1.504 -0.0732 -0.5625  0.1404
  674SOL    HW1 2921   4.572   0.606   1.516  1.8111  0.2125 -0.3398
  674SOL    HW2 2922   4.650   0.504   1.415  0.0134 -1.8693  0.2876
  675SOL     OW 2923   3.935   2.636   5.504 -0.5111  0.4436 -0.3179
  675SOL    HW1 2924   3.957   2.672   5.595 -0.4050 -0.9437  0.2296
  675SOL    HW2 2925   3.837   2.644   5.488 -0.2313  3.0533 -1.1686
  676SOL     OW 2926   4.616   3.149   5.890 -0.0081  0.2914 -0.3612
  676SOL    HW1 2927   4.700   3.096   5.892 -0.0140  0.2881  0.8995
  676SOL    HW2 2928   4.544   3.097   5.843  0.4842 -0.0299 -0.7620
  677SOL     OW 2929   3.870   0.062   0.514 -0.2958  0.1451 -0.2665
  677SOL    HW1 2930   3.920   0.057   0.601 -0.6009 -3.4894 -0.1600
  677SOL    HW2 2931   3.935   0.054   0.439 -0.1439  2.3069 -0.4479
  678SOL     OW 2932   5.928   3.607   3.765 -0.0842 -0.5214  0.3362
  678SOL    HW1 2933   6.015   3.561   3.781  0.3173  0.6243  1.5895
  678SOL    HW2 2934   5.864   3.582   3.838 -0.6165 -0.8902 -0.2519
  679SOL     OW 2935   2.186   3.771   0.041  0.4894  0.2341  0.3822
  679SOL    HW1 2936   2.111   3.748  -0.021 -0.0708  1.3022  0.6493
  679SOL    HW2 2937   2.165   3.737   0.133  0.5998  0.0257  0.3306
  680SOL     OW 2938   6.176   3.312   2.087 -0.4236 -0.4408  0.8446
  680SOL    HW1 2939   6.213   3.221   2.106 -0.1936 -0.4171  0.5109
  680SOL    HW2 2940   6.112   3.337   2.160 -0.4404 -0.8417  0.9715
  681SOL     OW 2941   6.511   2.413   5.531  0.6572 -0.6168 -0.0890
  681SOL    HW1 2942   6.600   2.455   5.513  0.4131  0.4274  1.0286
  681SOL    HW2 2943   6.482   2.362   5.450  0.8457  1.6254 -1.6829
  682SOL     OW 2944   3.053   4.024   1.187  0.1678 -0.4969  0.0257
  682SOL    HW1 2945   2.962   4.031   1.145  0.2220 -1.5168 -0.2677
  682SOL    HW2 2946   3.044   3.985   1.279  0.0395  1.7835  1.0620
  683SOL     OW 2947   1.542   2.472   2.039 -0.5574 -0.0173  0.1532
  683SOL    HW1 2948   1.628   2.502   2.079 -0.0836  0.3110 -1.0671
  683SOL    HW2 2949   1.488   2.424   2.108  1.7951 -2.7263  0.2908
  684SOL     OW 2950   4.719   2.885   1.679 -0.3832 -0.3921 -0.1349
  684SOL    HW1 2951   4.816   2.876   1.700 -0.7411  0.5377  2.2283
  684SOL    HW2 2952   4.668   2.906   1.762 -2.5544 -0.2374 -1.4055
  685SOL     OW 2953   3.425   0.874   3.838  0.2397  0.1560  0.1597
  685SOL    HW1 2954   3.492   0.918   3.899 -0.5329 -1.8749  2.6718
  685SOL    HW2 2955   3.472   0.816   3.773  1.0022 -0.0833  0.9059
  686SOL     OW 2956   6.868   2.377   6.743  0.0106 -0.0850  0.0818
  686SOL    HW1 2957   6.784   2.431   6.733  0.6656  0.9954  0.2312
  686SOL    HW2 2958   6.896   2.342   6.654 -1.4910 -1.8818  0.2594
  687SOL     OW 2959   0.161   6.096   3.900  0.0742 -0.2207  0.3984
  687SOL    HW1 2960   0.222   6.173   3.919  1.1343 -1.5252  2.6120
  687SOL    HW2 2961   0.074   6.109   3.948 -0.5063  0.4626 -0.7850
  688SOL     OW 2962   5.471   6.576   5.502  0.0041  0.0701  0.1042
  688SOL    HW1 2963   5.394   6.588   5.564  1.0717  0.7823  1.3464
  688SOL    HW2 2964   5.518   6.490   5.523 -0.5788 -0.4913 -0.8195
  689SOL     OW 2965   1.630   6.982   0.519  0.2852 -0.6047  0.4068
  689SOL    HW1 2966   1.638   7.082   0.528  0.7318 -0.6762  0.7648
  689SOL    HW2 2967   1.553   6.950   0.574  1.2977 -0.6906  1.8172
  690SOL     OW 2968   0.608   6.715   0.059  1.0087 -0.1197  0.0120
  690SOL    HW1 2969   0.562   6.631   0.087  0.3969  0.3705  0.5151
  690SOL    HW2 2970   0.706   6.708   0.078  1.0680 -0.9506 -0.5292
  691SOL     OW 2971   4.690   3.493   1.597 -0.2435 -0.1067  0.7909
  691SOL    HW1 2972   4.606   3.443   1.575 -0.3542  0.8295 -1.1133
  691SOL    HW2 2973   4.666   3.588   1.619  0.3918  0.5514 -1.1972
  692SOL     OW 2974   5.827   6.024   6.090 -0.0440  0.4358 -0.6117
  692SOL    HW1 2975   5.860   6.115   6.114  0.4880  0.1335 -0.1651
  692SOL    HW2 2976   5.855   6.001   5.997 -1.3155  1.2486 -1.2099
  693SOL     OW 2977   4.619   4.361   1.612  0.0555 -0.0959  0.2439
  693SOL    HW1 2978   4.562   4.288   1.649  1.3036 -0.1329  2.2374
  693SOL    HW2 2979   4.561   4.436   1.580 -1.1350 -0.6309  1.0997
  694SOL     OW 2980   5.495   4.131   2.311 -0.9128 -0.5108  0.5920
  694SOL    HW1 2981   5.567   4.177   2.364  0.8371 -2.4005 -0.0108
  694SOL    HW2 2982   5.473   4.043   2.354 -1.0986 -1.0415 -0.5483
  695SOL     OW 2983   1.155   2.216   6.512  0.3409 -0.3387  1.1926
  695SOL    HW1 2984   1.094   2.207   6.591  0.6111 -0.5896  1.3712
  695SOL    HW2 2985   1.165   2.127   6.466  2.0288 -0.7375  2.2415
  696SOL     OW 2986   4.891   2.381   5.511 -0.2066  0.7391 -0.3214
  696SOL    HW1 2987   4.806   2.334   5.488  1.0347 -1.1820 -1.2271
  696SOL    HW2 2988   4.878   2.436   5.593 -2.1837  0.1181 -0.1864
  697SOL     OW 2989   6.711   5.638   3.134 -0.4599 -0.3296  0.1728
  697SOL    HW1 2990   6.780   5.569   3.154  0.6200  0.8880  0.8137
  697SOL    HW2 2991   6.720   5.666   3.038  0.1828  0.0635  0.3397
  698SOL     OW 2992   6.166   0.003   1.459  0.6603 -0.0214 -0.6005
  698SOL    HW1 2993   6.125  -0.002   1.367  0.5062 -0.4011 -0.5133
  698SOL    HW2 2994   6.129  -0.071   1.515 -0.6785  1.3091  0.3567
  699SOL     OW 2995   2.400   3.198   5.758 -0.1893  0.2518 -0.4535
  699SOL    HW1 2996   2.385   3.267   5.687  1.6912  1.3571  0.1570
  699SOL    HW2 2997   2.498   3.178   5.765 -0.6073 -2.0130 -0.1308
  700SOL     OW 2998   6.244   5.635   0.226 -0.8131  0.0276 -0.0151
  700SOL    HW1 2999   6.168   5.626   0.161 -0.2713 -1.1110 -0.5166
  700SOL    HW2 3000   6.330   5.610   0.181  0.2371  3.3590 -0.1016
  701SOL     OW 3001   1.175   1.191   2.229 -0.2703  0.2831 -0.0659
  701SOL    HW1 3002   1.259   1.223   2.186  1.2172 -0.3403  2.1854
  701SOL    HW2 3003   1.134   1.266   2.281 -0.8608  0.4570 -0.7711
  702SOL     OW 3004   0.915   1.559   4.528  0.7671 -0.0616 -0.0481
  702SOL    HW1 3005   0.935   1.495   4.454 -2.3118 -1.3850  0.1019
  702SOL    HW2 3006   0.843   1.623   4.499 -0.2708 -0.3928  1.6151
  703SOL     OW 3007   6.933   5.447   3.152 -0.5850  0.1728  0.4199
  703SOL    HW1 3008   6.895   5.355   3.146  3.2345 -1.6591  1.4237
  703SOL    HW2 3009   6.940   5.475   3.247  0.4111  0.4906  0.2682
  704SOL     OW 3010   1.227   5.990   0.501  0.1316 -0.1364  0.1838
  704SOL    HW1 3011   1.189   5.953   0.416 -0.3077 -1.2801  0.8431
  704SOL    HW2 3012   1.326   6.001   0.492 -0.1026  1.1571 -0.9554
  705SOL     OW 3013   0.484   1.352   1.354  0.0042  0.0048  0.0846
  705SOL    HW1 3014   0.541   1.283   1.309  1.8020  1.2738  0.3513
  705SOL    HW2 3015   0.394   1.353   1.310  0.9689 -0.3264 -2.0296
  706SOL     OW 3016   6.683   3.096   0.441  0.4917 -0.3195 -0.2094
  706SOL    HW1 3017   6.772   3.119   0.403  0.4351  1.5131  0.6614
  706SOL    HW2 3018   6.618   3.170   0.422  0.1347  0.1064  2.2918
  707SOL     OW 3019   4.877   3.750   1.509 -0.4605  0.0614  0.4482
  707SOL    HW1 3020   4.828   3.770   1.594  0.9976 -1.3469  1.6728
  707SOL    HW2 3021   4.836   3.671   1.464 -0.8342  0.4125  0.1655
  708SOL     OW 3022   2.347   3.516   6.422 -0.6717  0.0354 -0.0634
  708SOL    HW1 3023   2.292   3.570   6.358  0.6230  0.1659 -1.1164
  708SOL    HW2 3024   2.393   3.442   6.373  0.3300  0.1149  0.7092
  709SOL     OW 3025   1.704   1.667   3.590  0.5320 -0.0687  0.1555
  709SOL    HW1 3026   1.761   1.649   3.510  2.8202 -0.0824  1.7092
  709SOL    HW2 3027   1.687   1.581   3.638 -0.9800 -0.0862 -0.3460
  710SOL     OW 3028   5.576   1.994   2.713 -0.8115  0.0635  0.1949
  710SOL    HW1 3029   5.502   2.051   2.678 -1.2924  0.8387  2.3317
  710SOL    HW2 3030   5.546   1.898   2.715 -1.2126  0.1732 -0.3108
  711SOL     OW 3031   6.466   4.217   2.170  0.2412  0.1229 -0.1240
  711SOL    HW1 3032   6.391   4.232   2.106 -0.7491  0.5999  1.1083
  711SOL    HW2 3033   6.467   4.121   2.198  2.3224 -0.7747 -2.7764
  712SOL     OW 3034   1.156   1.569   3.236 -0.4972 -0.6278  0.1102
  712SOL    HW1 3035   1.130   1.623   3.156 -1.6941 -1.9248 -0.4348
  712SOL    HW2 3036   1.208   1.626   3.299 -1.0922  0.9415 -0.7449
  713SOL     OW 3037   3.198   0.129   1.458 -0.3888  0.5926 -0.2884
  713SOL    HW1 3038   3.124   0.190   1.486  0.5467  0.6820  2.2267
  713SOL    HW2 3039   3.162   0.059   1.397 -2.1988  1.5275 -0.3671
  714SOL     OW 3040   0.348   1.907   4.984  0.6190 -0.1434  0.3278
  714SOL    HW1 3041   0.384   1.869   4.898 -0.5426  0.4259 -0.4426
  714SOL    HW2 3042   0.400   1.989   5.008  0.2394  0.3309 -0.4426
  715SOL     OW 3043   6.471   6.945   4.672 -0.1433 -0.0041  0.0496
  715SOL    HW1 3044   6.539   6.872   4.682  0.7494  0.8121  0.0808
  715SOL    HW2 3045   6.478   6.985   4.581  0.2639  0.9088  0.4748
  716SOL     OW 3046   1.457   4.823   3.451  0.1955 -0.0251 -0.1434
  716SOL    HW1 3047   1.498   4.821   3.542  0.0865  2.0813 -0.0004
  716SOL    HW2 3048   1.379   4.760   3.448  0.3514 -0.3100  1.1223
  717SOL     OW 3049   3.661   0.682   3.333 -0.0100  0.4389  0.1938
  717SOL    HW1 3050   3.636   0.779   3.338 -0.3751  0.3023  1.3753
  717SOL    HW2 3051   3.750   0.672   3.290  0.2026  1.3381  0.4190
  718SOL     OW 3052   6.595   1.913   0.322  0.7187 -0.4808  0.3409
  718SOL    HW1 3053   6.641   1.896   0.409 -0.9430 -0.8566  1.1889
  718SOL    HW2 3054   6.631   1.850   0.253  1.7110 -0.5123  0.8598
  719SOL     OW 3055   6.344   3.818   1.129  0.0374  0.0381 -0.5377
  719SOL    HW1 3056   6.363   3.722   1.149 -0.4515  0.0812  0.1585
  719SOL    HW2 3057   6.245   3.832   1.119 -0.0315  0.7254  0.8352
  720SOL     OW 3058   4.898   2.239   3.787  0.5477  0.4147 -0.0003
  720SOL    HW1 3059   4.917   2.146   3.758 -0.8497 -0.0968  0.5962
  720SOL    HW2 3060   4.802   2.262   3.766  0.3706  1.0930  1.3819
  721SOL     OW 3061   6.661   1.656   5.689  0.1057 -0.3280  0.5439
  721SOL    HW1 3062   6.605   1.607   5.621  3.7274 -1.2745 -2.0625
  721SOL    HW2 3063   6.640   1.754   5.684 -0.3169 -0.4675 -1.4157
  722SOL     OW 3064   0.394   5.522   4.962 -0.0918  0.0317 -0.4335
  722SOL    HW1 3065   0.347   5.460   4.899  1.1446  0.3406 -1.7370
  722SOL    HW2 3066   0.446   5.468   5.028  1.3090 -0.4120 -1.8089
  723SOL     OW 3067   6.207   5.207   5.681 -0.4123 -0.1075  0.0935
  723SOL    HW1 3068   6.293   5.192   5.730 -0.6096 -2.3439 -0.1421
  723SOL    HW2 3069   6.220   5.186   5.584 -1.2510 -0.5984  0.0805
  724SOL     OW 3070   6.187   2.863   2.642 -0.0491 -0.3144  0.5040
  724SOL    HW1 3071   6.089   2.881   2.636  0.1928  1.7413  1.7598
  724SOL    HW2 3072   6.208   2.778   2.593 -2.1022  0.3142 -1.7043
  725SOL     OW 3073   2.258   4.993   1.947 -0.4747  0.2519  0.2195
  725SOL    HW1 3074   2.193   4.949   2.009 -1.0329  0.3378 -0.2998
  725SOL    HW2 3075   2.321   5.050   2.000 -1.6507  1.2073  0.6162
  726SOL     OW 3076   4.884   3.837   5.529  0.0759 -0.1804 -0.0888
  726SOL    HW1 3077   4.954   3.859   5.461  0.6197  0.7519  0.7461
  726SOL    HW2 3078   4.846   3.922   5.565  1.0982 -0.6154  2.1150
  727SOL     OW 3079   4.862   4.755   5.810 -0.0374 -0.0493 -0.2853
  727SOL    HW1 3080   4.923   4.804   5.749  0.6523 -0.9517 -0.3490
  727SOL    HW2 3081   4.808   4.820   5.864  1.0283  0.7687 -0.1772
  728SOL     OW 3082   0.745   4.592   1.087  0.7157 -0.4508 -0.3826
  728SOL    HW1 3083   0.678   4.617   1.017 -0.2927 -0.7081  0.4720
  728SOL    HW2 3084   0.801   4.671   1.109 -0.7933  0.4296  0.4946
  729SOL     OW 3085   4.977   4.387   1.828 -0.4265  0.3314  0.5271
  729SOL    HW1 3086   4.950   4.343   1.742 -0.5772  1.7447 -0.1831
  729SOL    HW2 3087   4.895   4.417   1.877 -0.2988  1.1404  0.2677
  730SOL     OW 3088   4.491   3.318   1.559  0.1793 -0.1129  0.0922
  730SOL    HW1 3089   4.416   3.380   1.585 -0.7724 -0.8423 -0.8108
  730SOL    HW2 3090   4.477   3.229   1.603  1.7696  0.3909  1.7225
  731SOL     OW 3091   1.683   3.043   1.328 -0.1168  0.0124 -0.2669
  731SOL    HW1 3092   1.713   2.955   1.366  0.9166  0.1862 -0.6576
  731SOL    HW2 3093   1.763   3.101   1.312 -0.6125  0.2950 -1.8400
  732SOL     OW 3094   6.858   0.002   5.859  0.1122 -0.2322  0.8835
  732SOL    HW1 3095   6.937   0.047   5.900 -0.1606 -0.4558  1.6730
  732SOL    HW2 3096   6.855  -0.093   5.889 -0.1358 -0.3859  0.3886
  733SOL     OW 3097   4.871   6.067   3.529  0.1299  0.2459 -0.1767
  733SOL    HW1 3098   4.863   6.113   3.618  0.2747 -0.8254  0.4118
  733SOL    HW2 3099   4.846   6.130   3.456 -0.0289  1.1359  0.6330
  734SOL     OW 3100   5.267   0.534   3.129 -0.1640 -0.1847 -1.1338
  734SOL    HW1 3101   5.276   0.619   3.181 -1.7662  0.6455 -2.1416
  734SOL    HW2 3102   5.258   0.458   3.193 -1.0870  0.6839 -0.1741
  735SOL     OW 3103   2.493   4.868   1.151  0.0076 -0.0009 -0.2537
  735SOL    HW1 3104   2.520   4.917   1.068  1.0222  0.1319  0.1414
  735SOL    HW2 3105   2.572   4.859   1.212 -0.5061 -0.8924  0.3032
  736SOL     OW 3106   4.018   6.074   1.657 -0.2266  0.1663  0.2269
  736SOL    HW1 3107   4.013   5.983   1.696 -0.3009  0.9058  2.0110
  736SOL    HW2 3108   3.981   6.141   1.721  0.0382  1.4935 -0.9420
  737SOL     OW 3109   1.490   6.311   3.276 -0.0279  0.1979 -0.0528
  737SOL    HW1 3110   1.395   6.280   3.272  0.2655 -0.6747 -0.6551
  737SOL    HW2 3111   1.493   6.408   3.299 -0.9697 -0.3647  2.8754
  738SOL     OW 3112   6.654   2.968   2.261 -0.3150  0.2693  0.2417
  738SOL    HW1 3113   6.606   2.983   2.175  1.5240  0.4500 -0.8131
  738SOL    HW2 3114   6.750   2.993   2.250 -0.4271  2.4770  2.9882
  739SOL     OW 3115   1.616   1.239   4.162 -0.1189 -0.2514 -0.6192
  739SOL    HW1 3116   1.665   1.194   4.087  0.8507  0.5611 -0.4935
  739SOL    HW2 3117   1.680   1.257   4.237 -0.3569  1.7332 -0.8414
  740SOL     OW 3118   4.377   4.717   1.449  0.0631 -0.2563  0.2652
  740SOL    HW1 3119   4.377   4.736   1.350  0.3705 -1.6672 -0.0242
  740SOL    HW2 3120   4.374   4.619   1.464 -0.9018 -0.0417  1.6927
  741SOL     OW 3121   1.527   2.072   5.911  0.1417  0.2568 -0.0241
  741SOL    HW1 3122   1.529   2.086   5.812  1.1276  1.1333  0.1043
  741SOL    HW2 3123   1.479   2.148   5.954  3.4051  2.2254  0.4802
  742SOL     OW 3124   0.265   6.484   5.364 -0.5990 -0.2720 -0.3499
  742SOL    HW1 3125   0.255   6.518   5.270 -1.5233  0.2752 -0.0649
  742SOL    HW2 3126   0.357   6.447   5.376  0.0852  1.1330 -1.0000
  743SOL     OW 3127   4.557   4.513   7.010  0.0169 -0.1985 -0.8284
  743SOL    HW1 3128   4.656   4.525   7.020  0.1322  0.7445 -2.5533
  743SOL    HW2 3129   4.510   4.592   7.050 -0.0049 -0.3775 -0.5005
  744SOL     OW 3130   4.120   1.963   1.687  0.2214 -0.6145 -0.1049
  744SOL    HW1 3131   4.029   1.931   1.660 -1.0725  2.1472  0.6587
  744SOL    HW2 3132   4.149   2.036   1.626  2.0094 -1.4882 -0.3619
  745SOL     OW 3133   0.793   1.954   6.671 -0.0718 -0.5881  0.5323
  745SOL    HW1 3134   0.720   1.891   6.646  0.1541 -1.0869  1.0940
  745SOL    HW2 3135   0.872   1.903   6.705  0.3424 -0.0317  0.4370
  746SOL     OW 3136   1.991   6.537   3.283  0.2027  0.1219 -0.0106
  746SOL    HW1 3137   2.008   6.604   3.211 -1.6668  0.2059 -0.4179
  746SOL    HW2 3138   1.990   6.583   3.372 -1.7188  0.8196 -0.3416
  747SOL     OW 3139   1.300   4.726   2.757 -0.5938 -0.0768 -0.0139
  747SOL    HW1 3140   1.218   4.670   2.773 -0.8117  0.4931  0.9493
  747SOL    HW2 3141   1.340   4.751   2.845  0.7499 -0.5250 -0.4870
  748SOL     OW 3142   5.917   2.211   4.322  0.4292  0.2683 -0.7476
  748SOL    HW1 3143   5.919   2.308   4.343 -0.4998  0.0640  0.4090
  748SOL    HW2 3144   5.981   2.191   4.248  3.9959  1.0573  1.8779
  749SOL     OW 3145   2.669   6.899   0.890  0.6096  0.3906  0.1166
  749SOL    HW1 3146   2.732   6.949   0.950  1.0263  0.3523 -0.2896
  749SOL    HW2 3147   2.575   6.928   0.910  0.5127 -1.1160  2.2461
  750SOL     OW 3148   1.952   1.324   2.425  0.4885 -0.3118 -0.4526
  750SOL    HW1 3149   1.899   1.407   2.409 -0.2782 -0.5994  0.4929
  750SOL    HW2 3150   2.044   1.349   2.455  0.3064  0.1901 -0.2957
  751SOL     OW 3151   3.387   1.882   2.758 -0.4688 -0.0309  0.1134
  751SOL    HW1 3152   3.421   1.854   2.669 -3.9531 -2.1222 -0.7718
  751SOL    HW2 3153   3.361   1.800   2.810  1.3143  1.1331  3.0929
  752SOL     OW 3154   1.138   0.489   6.271 -0.0942  0.1140 -0.1799
  752SOL    HW1 3155   1.191   0.409   6.301  1.5044  1.2936  0.2990
  752SOL    HW2 3156   1.136   0.492   6.172 -0.2354 -0.5537 -0.2032
  753SOL     OW 3157   4.103   4.869   1.918 -0.1569  0.1809 -0.5405
  753SOL    HW1 3158   4.162   4.947   1.896  0.7241 -0.5000 -0.6278
  753SOL    HW2 3159   4.097   4.809   1.838 -1.8522  0.7843 -0.9007
  754SOL     OW 3160   1.725   5.243   3.872 -0.2199 -0.7251 -0.1201
  754SOL    HW1 3161   1.757   5.337   3.877  0.5679 -0.7310 -3.1922
  754SOL    HW2 3162   1.741   5.197   3.959  1.4282  1.3455  0.7257
  755SOL     OW 3163   4.198   0.567   0.792 -0.4306 -0.3433  0.2909
  755SOL    HW1 3164   4.196   0.507   0.872  1.4804  0.3144  0.8991
  755SOL    HW2 3165   4.168   0.517   0.711 -0.0390 -1.7504  0.9953
  756SOL     OW 3166   6.861   1.270   0.248  0.2754 -0.2522  0.1495
  756SOL    HW1 3167   6.853   1.350   0.189  1.4143 -0.5589 -0.4487
  756SOL    HW2 3168   6.806   1.284   0.331 -1.7074  0.0103 -1.1344
  757SOL     OW 3169   4.860   0.197   2.441  0.1429 -0.1087  0.1854
  757SOL    HW1 3170   4.896   0.288   2.462  1.7748 -0.3711 -1.2590
  757SOL    HW2 3171   4.931   0.128   2.457 -0.5577 -0.9566 -0.2520
  758SOL     OW 3172   2.525   5.705   1.080  0.5092 -0.4962  0.2961
  758SOL    HW1 3173   2.509   5.694   0.982 -1.9246 -0.0811  0.5668
  758SOL    HW2 3174   2.511   5.617   1.126 -3.0221  0.0945  0.6842
  759SOL     OW 3175   2.775   5.755   5.822 -0.5480 -0.0589 -0.1925
  759SOL    HW1 3176   2.682   5.736   5.852 -0.9197 -0.3484 -1.4581
  759SOL    HW2 3177   2.825   5.670   5.812 -0.2610  0.0709  0.1319
  760SOL     OW 3178   3.071   7.005   0.161  0.5460 -0.2263  0.2066
  760SOL    HW1 3179   3.052   6.967   0.252  0.3013  0.5457  0.4906
  760SOL    HW2 3180   3.169   7.003   0.143  0.6847  0.3772  0.8438
  761SOL     OW 3181   6.185   0.298   4.944  0.1751 -0.5488 -0.0524
  761SOL    HW1 3182   6.135   0.374   4.903  0.4892 -1.6009 -2.5986
  761SOL    HW2 3183   6.277   0.328   4.967  0.5744 -0.2966 -1.8103
  762SOL     OW 3184   4.527   0.874   5.363  0.6586  0.5317  0.0251
  762SOL    HW1 3185   4.599   0.919   5.310  0.5376  0.8545  0.1377
  762SOL    HW2 3186   4.469   0.942   5.406  0.4588  0.2689  0.1750
  763SOL     OW 3187   6.477   2.832   3.960  0.2832  0.1680 -0.5703
  763SOL    HW1 3188   6.521   2.876   3.882  0.7246 -0.5688 -0.7440
  763SOL    HW2 3189   6.387   2.873   3.975  0.5827  0.9508 -0.8797
  764SOL     OW 3190   2.642   2.073   1.780 -0.8216 -0.2934 -0.1057
  764SOL    HW1 3191   2.729   2.026   1.764 -0.2729  0.6163  0.1466
  764SOL    HW2 3192   2.568   2.006   1.779 -0.0700 -1.1589  0.1931
  765SOL     OW 3193   1.217   4.441   3.627 -0.0826 -0.0644  0.4888
  765SOL    HW1 3194   1.302   4.451   3.679  0.5027 -1.0370 -0.2518
  765SOL    HW2 3195   1.236   4.392   3.542 -1.6756 -1.9904  1.1567
  766SOL     OW 3196   1.039   1.406   0.367  0.5891  0.3214  0.0347
  766SOL    HW1 3197   1.082   1.384   0.455  1.5001 -1.0219 -0.7056
  766SOL    HW2 3198   1.100   1.378   0.292 -0.7613  0.1364 -1.0482
  767SOL     OW 3199   5.953   6.251   4.774 -0.2079  0.1417 -0.3574
  767SOL    HW1 3200   5.907   6.227   4.860  0.5861 -0.8594 -0.1981
  767SOL    HW2 3201   5.884   6.266   4.703 -0.9692  2.3037  0.7277
  768SOL     OW 3202   2.552   1.389   6.865  0.4203 -0.4032 -0.3423
  768SOL    HW1 3203   2.639   1.366   6.821 -0.1256 -0.2416 -1.5780
  768SOL    HW2 3204   2.544   1.342   6.952  1.0577 -1.6924 -0.9611
  769SOL     OW 3205   3.930   3.943   4.598  0.3490 -0.5937  0.6302
  769SOL    HW1 3206   3.995   3.954   4.522  0.1678 -0.2456  0.5250
  769SOL    HW2 3207   3.981   3.941   4.685  0.3602  1.9660  0.7477
  770SOL     OW 3208   1.019   4.118   4.807 -0.7263 -0.2813  0.1864
  770SOL    HW1 3209   0.933   4.072   4.784 -0.1272 -1.6684  0.5816
  770SOL    HW2 3210   1.034   4.114   4.905 -0.8791  1.2223  0.2863
  771SOL     OW 3211   2.350   2.406   2.304  0.2493  0.2207 -0.1666
  771SOL    HW1 3212   2.326   2.366   2.392  1.8772 -0.0233  0.1992
  771SOL    HW2 3213   2.379   2.501   2.317 -0.1973  0.4181 -0.5529
  772SOL     OW 3214   5.731   3.697   5.458  0.4789 -0.2633  0.1104
  772SOL    HW1 3215   5.827   3.677   5.479  0.2851 -1.4054 -0.0142
  772SOL    HW2 3216   5.672   3.634   5.509 -0.2819  1.2386  1.1601
  773SOL     OW 3217   2.137   6.012   3.211 -0.8696  0.2002  0.4180
  773SOL    HW1 3218   2.214   5.960   3.177 -1.8820 -1.0291 -0.0823
  773SOL    HW2 3219   2.152   6.110   3.193  0.2076 -0.0880 -0.3433
  774SOL     OW 3220   0.702   2.586   0.319 -0.5548 -0.1046  0.8629
  774SOL    HW1 3221   0.785   2.571   0.372 -0.9198  1.0558  1.8098
  774SOL    HW2 3222   0.666   2.498   0.288  2.0087 -0.5295 -1.1820
  775SOL     OW 3223   3.089   6.290   1.817 -0.3986  0.2769  0.1368
  775SOL    HW1 3224   3.137   6.217   1.867 -0.1600 -0.5412 -1.2368
  775SOL    HW2 3225   2.992   6.266   1.808 -0.3804  0.2707 -0.0490
  776SOL     OW 3226   1.828   3.104   3.973  0.3172 -0.0373  0.0146
  776SOL    HW1 3227   1.804   3.033   4.039 -1.9820  1.0867  0.5115
  776SOL    HW2 3228   1.805   3.072   3.880  1.1335 -0.6510  0.0158
  777SOL     OW 3229   5.304   2.551   1.570 -0.3944 -0.6777  0.0220
  777SOL    HW1 3230   5.298   2.472   1.632 -0.3774 -1.1515 -0.5677
  777SOL    HW2 3231   5.314   2.518   1.476  1.2487  0.0238 -0.0771
  778SOL     OW 3232   1.462   1.331   2.645 -0.3931  0.5723 -0.0970
  778SOL    HW1 3233   1.552   1.287   2.643 -0.5409  0.1923  0.9551
  778SOL    HW2 3234   1.395   1.270   2.603 -0.6439 -0.3807  1.5835
  779SOL     OW 3235   0.560   4.705   4.727 -0.2764  0.0140 -0.6438
  779SOL    HW1 3236   0.515   4.645   4.661 -1.6313 -2.0595  1.9847
  779SOL    HW2 3237   0.636   4.658   4.770 -2.6012 -0.8673  2.9494
  780SOL     OW 3238   0.453   1.785   4.327  0.1644 -0.1160  0.1029
  780SOL    HW1 3239   0.390   1.861   4.311  1.7165  0.9224 -1.5416
  780SOL    HW2 3240   0.401   1.699   4.335 -1.4226  0.3849 -3.1015
  781SOL     OW 3241   0.986   3.275   3.420  0.5394  0.4614  0.0500
  781SOL    HW1 3242   0.890   3.280   3.394  1.0991  0.9989 -2.1788
  781SOL    HW2 3243   1.024   3.368   3.424  1.1567  0.2143  0.0764
  782SOL     OW 3244   3.705   3.236   3.944 -0.2333 -0.2637 -0.3944
  782SOL    HW1 3245   3.619   3.247   3.993  0.6531 -0.1442  1.1949
  782SOL    HW2 3246   3.705   3.147   3.898 -1.4191 -0.0182 -0.9196
  783SOL     OW 3247   6.896   1.926   4.411  0.1320  0.2326  0.0200
  783SOL    HW1 3248   6.901   2.012   4.360  2.8099  1.3680  1.9446
  783SOL    HW2 3249   6.841   1.860   4.359 -2.4072  3.1493 -1.3510
  784SOL     OW 3250   1.561   3.746   7.014  0.1855 -0.0318  0.3696
  784SOL    HW1 3251   1.508   3.827   7.041  1.9295  1.2460  0.1139
  784SOL    HW2 3252   1.619   3.768   6.936  0.1744 -1.7650 -0.1725
  785SOL     OW 3253   6.750   1.044   0.136 -0.5871  0.1195 -0.1431
  785SOL    HW1 3254   6.812   1.110   0.178  2.1013 -3.1361  1.5699
  785SOL    HW2 3255   6.676   1.023   0.199 -0.2020 -0.0319  0.2692
  786SOL     OW 3256   1.321   3.494   0.219 -0.2072  0.4494 -0.6850
  786SOL    HW1 3257   1.363   3.507   0.309 -1.0728  2.0109 -0.4584
  786SOL    HW2 3258   1.392   3.483   0.150  0.4781 -0.2473  0.1170
  787SOL     OW 3259   0.515   6.688   3.370 -0.0110  0.3284  0.1336
  787SOL    HW1 3260   0.515   6.788   3.374  1.9259  0.4143 -1.0533
  787SOL    HW2 3261   0.606   6.654   3.391 -0.0417 -1.0562 -1.7356
  788SOL     OW 3262   1.293   3.204   1.795  0.1446  0.7390 -0.2548
  788SOL    HW1 3263   1.271   3.155   1.879  0.4535 -0.6430 -0.9522
  788SOL    HW2 3264   1.226   3.179   1.724  2.9061 -2.4265 -2.0040
  789SOL     OW 3265   5.351   6.978   4.279  0.0682  0.1612  0.1886
  789SOL    HW1 3266   5.448   6.977   4.255 -0.0561  1.3505 -0.4539
  789SOL    HW2 3267   5.316   7.071   4.269 -1.0688 -0.1974  0.7212
  790SOL     OW 3268   0.621   2.574   1.320  0.0073 -0.4138  0.0395
  790SOL    HW1 3269   0.566   2.658   1.319  0.4118 -0.1000 -2.5856
  790SOL    HW2 3270   0.631   2.542   1.414 -2.6026  0.8386  0.8353
  791SOL     OW 3271   5.725   1.963   1.373 -0.4688  1.1923 -0.2683
  791SOL    HW1 3272   5.689   2.056   1.370  0.2914  1.4818 -0.7845
  791SOL    HW2 3273   5.819   1.965   1.409 -1.3583  0.3139  2.3177
  792SOL     OW 3274   6.045   1.187   6.675  0.2410  0.8616  0.2092
  792SOL    HW1 3275   6.143   1.202   6.662  0.4411  0.0720  0.7311
  792SOL    HW2 3276   5.994   1.253   6.620  1.0522  0.1938 -1.4455
  793SOL     OW 3277   4.052   3.958   5.224  0.0784 -0.3468  0.1293
  793SOL    HW1 3278   4.085   4.051   5.233 -0.1457 -0.2235 -0.2690
  793SOL    HW2 3279   4.127   3.894   5.237  0.5636 -0.0612 -1.1163
  794SOL     OW 3280   3.489   0.954   2.584  0.1428  0.0831  0.8541
  794SOL    HW1 3281   3.526   0.985   2.672 -1.1824  0.4315  1.3310
  794SOL    HW2 3282   3.429   0.875   2.600 -0.0391  0.0967  0.2487
  795SOL     OW 3283   4.071   0.681   6.497 -0.9585 -0.0139  0.1512
  795SOL    HW1 3284   4.075   0.610   6.568 -0.2700  0.3872  0.5222
  795SOL    HW2 3285   4.004   0.750   6.524 -1.3981 -0.3466 -0.0593
  796SOL     OW 3286   3.307   4.119   2.922 -0.3915  0.3291 -0.1196
  796SOL    HW1 3287   3.359   4.034   2.912  0.6399  0.9392 -0.1444
  796SOL    HW2 3288   3.222   4.101   2.971  0.6211 -0.4334  1.4369
  797SOL     OW 3289   3.921   5.921   6.629 -0.2937 -0.2151  0.2228
  797SOL    HW1 3290   3.964   5.881   6.547 -0.3937  1.3711 -0.6391
  797SOL    HW2 3291   3.855   5.856   6.666  0.2881 -1.2633 -0.5188
  798SOL     OW 3292   6.725   4.559   5.066 -0.1190  0.0995  0.5081
  798SOL    HW1 3293   6.795   4.621   5.028 -1.1187  0.1148 -1.4237
  798SOL    HW2 3294   6.762   4.467   5.072 -0.1301 -0.0444 -1.2189
  799SOL     OW 3295   4.127   1.872   4.653  0.1174 -0.6820  0.6597
  799SOL    HW1 3296   4.224   1.897   4.650 -0.4068  1.4102 -1.8161
  799SOL    HW2 3297   4.108   1.825   4.740  2.6428  1.6767  2.6815
  800SOL     OW 3298   1.711   0.376   4.550 -0.3203  0.2562  0.2009
  800SOL    HW1 3299   1.630   0.318   4.560 -1.3739  1.7272  0.5004
  800SOL    HW2 3300   1.782   0.345   4.613  0.0917 -2.2008 -1.3332
  801SOL     OW 3301   2.304   3.639   5.891 -0.2638 -0.4959  0.6861
  801SOL    HW1 3302   2.274   3.609   5.801 -1.1665 -0.0385  0.8210
  801SOL    HW2 3303   2.392   3.686   5.884 -0.1212 -0.8452  0.1151
  802SOL     OW 3304   5.955   4.575   2.318  0.0377 -0.3711 -0.5561
  802SOL    HW1 3305   5.920   4.668   2.314  0.8088  0.0494  1.3292
  802SOL    HW2 3306   6.049   4.573   2.283  0.6316 -0.0764  0.9633
  803SOL     OW 3307   2.253   1.160   2.544 -0.4567  0.0540  0.0496
  803SOL    HW1 3308   2.283   1.171   2.449  0.4600 -0.2293  0.2909
  803SOL    HW2 3309   2.306   1.087   2.587 -3.3152 -2.3309 -0.2376
  804SOL     OW 3310   0.935   6.301   4.849 -0.3047 -0.3071 -0.5228
  804SOL    HW1 3311   0.907   6.371   4.915 -1.9988  0.0357 -1.5516
  804SOL    HW2 3312   0.857   6.275   4.793  0.9096 -1.1584 -1.8911
  805SOL     OW 3313   2.391   1.133   6.322  0.4749  0.0340  0.3655
  805SOL    HW1 3314   2.406   1.042   6.282 -2.9935 -0.2737 -0.5248
  805SOL    HW2 3315   2.438   1.138   6.410  1.4026 -2.3286  0.0906
  806SOL     OW 3316   6.398   6.417   5.050  0.1697  0.0353 -0.1644
  806SOL    HW1 3317   6.352   6.489   4.999  0.0208  0.7069  0.8857
  806SOL    HW2 3318   6.436   6.350   4.987  0.5706  1.1886 -1.1685
  807SOL     OW 3319   4.525   1.376   2.174  0.5256  0.0643  0.0481
  807SOL    HW1 3320   4.506   1.455   2.233  1.2143  0.8244 -0.7114
  807SOL    HW2 3321   4.439   1.337   2.141  0.1697  0.3377  0.6361
  808SOL     OW 3322   5.094   3.739   6.698  0.0432  0.6240 -0.5774
  808SOL    HW1 3323   5.159   3.664   6.691 -0.0325  0.4306  0.5579
  808SOL    HW2 3324   5.014   3.720   6.642  0.5491  0.4238 -1.2387
  809SOL     OW 3325   5.433   1.914   4.280 -0.7878 -0.2761  0.4242
  809SOL    HW1 3326   5.345   1.906   4.234 -0.3002 -0.7305 -0.4776
  809SOL    HW2 3327   5.428   1.983   4.351 -1.5704  0.4762 -0.3369
  810SOL     OW 3328   2.616   4.954   3.089 -0.0589  0.4049  0.2497
  810SOL    HW1 3329   2.636   5.024   3.158  0.1403  1.1682 -0.5710
  810SOL    HW2 3330   2.602   4.997   3.000  0.5470 -0.6357 -0.3760
  811SOL     OW 3331   2.167   6.412   6.249  0.3976 -0.3782 -0.1098
  811SOL    HW1 3332   2.163   6.472   6.169 -0.7048 -0.4040 -0.0990
  811SOL    HW2 3333   2.194   6.464   6.329  1.1512 -0.2730 -0.4290
  812SOL     OW 3334   2.080   6.502   4.680 -0.0179 -0.0194  0.3913
  812SOL    HW1 3335   2.046   6.595   4.697  1.5853  0.3958  1.5785
  812SOL    HW2 3336   2.170   6.507   4.638  0.1082 -1.0452  0.5118
  813SOL     OW 3337   3.741   6.404   5.068  0.4265 -0.0165 -0.4141
  813SOL    HW1 3338   3.727   6.350   4.984 -0.3239 -0.6675  0.1131
  813SOL    HW2 3339   3.710   6.498   5.052 -1.1100 -0.5027 -0.4448
  814SOL     OW 3340   5.368   5.455   2.064 -0.3465 -0.2759  0.2459
  814SOL    HW1 3341   5.268   5.457   2.069 -0.5820  1.8056 -2.6127
  814SOL    HW2 3342   5.401   5.364   2.088 -2.8264 -0.8436  1.9072
  815SOL     OW 3343   6.778   6.818   4.304 -0.1596  0.8070  0.3557
  815SOL    HW1 3344   6.841   6.760   4.356  0.5364  0.7300 -0.5510
  815SOL    HW2 3345   6.794   6.805   4.206 -2.6048 -0.3028  0.0516
  816SOL     OW 3346   2.517   3.934   7.009  0.4037 -0.0227  0.7493
  816SOL    HW1 3347   2.561   3.874   7.076  0.4047 -0.4369  0.3803
  816SOL    HW2 3348   2.548   3.911   6.917  1.0655  1.1161  0.6657
  817SOL     OW 3349   1.902   2.252   6.012  0.2559 -0.3866 -0.4967
  817SOL    HW1 3350   1.813   2.299   6.016  0.2207 -0.5372  1.6726
  817SOL    HW2 3351   1.974   2.317   6.035  0.5247 -0.6851 -0.5003
  818SOL     OW 3352   2.503   0.559   3.213 -0.1578 -0.7606 -0.3500
  818SOL    HW1 3353   2.586   0.614   3.210  0.4507 -1.6536 -0.2488
  818SOL    HW2 3354   2.427   0.614   3.248  0.4200  0.0203 -0.3134
  819SOL     OW 3355   1.855   1.701   4.725 -0.0688 -0.6466 -0.2553
  819SOL    HW1 3356   1.890   1.788   4.760  0.0369 -0.9038  0.2913
  819SOL    HW2 3357   1.830   1.711   4.628  0.0090 -0.0313 -0.2137
  820SOL     OW 3358   1.309   4.592   5.029 -0.5132 -0.0371 -0.0973
  820SOL    HW1 3359   1.331   4.570   5.124 -0.6093 -0.2978 -0.1371
  820SOL    HW2 3360   1.393   4.604   4.977 -0.4350  1.2145  0.2753
  821SOL     OW 3361   3.090   4.675   1.781  0.5984 -0.2256  0.6105
  821SOL    HW1 3362   3.149   4.620   1.721 -0.5403  0.2370 -1.0165
  821SOL    HW2 3363   3.003   4.628   1.793 -0.4221  1.1760 -0.8677
  822SOL     OW 3364   2.380   0.813   5.840 -0.5900  0.2605 -0.0297
  822SOL    HW1 3365   2.451   0.756   5.800  0.4716  2.7862 -2.0522
  822SOL    HW2 3366   2.302   0.818   5.778 -1.0429  0.3051  0.5378
  823SOL     OW 3367   4.119   4.132   1.064  0.2458 -0.1407 -0.1120
  823SOL    HW1 3368   4.035   4.167   1.022 -0.6465 -0.5501  1.2499
  823SOL    HW2 3369   4.174   4.085   0.996  0.6822  2.3885 -1.6478
  824SOL     OW 3370   4.339   4.995   3.207  0.2504 -0.4290 -0.0526
  824SOL    HW1 3371   4.357   5.064   3.137 -0.4900 -0.9101 -0.7440
  824SOL    HW2 3372   4.425   4.960   3.243  0.6356  0.2135 -0.3407
  825SOL     OW 3373   4.302   1.271   4.722  0.0010  0.3927  0.2508
  825SOL    HW1 3374   4.382   1.320   4.756  0.1335 -0.5131  1.3262
  825SOL    HW2 3375   4.327   1.175   4.705 -0.3851  0.5417 -1.2715
  826SOL     OW 3376   0.463   6.435   3.457  0.0735  0.2336  0.1032
  826SOL    HW1 3377   0.490   6.522   3.416  2.1421 -1.6535 -2.9762
  826SOL    HW2 3378   0.406   6.384   3.392  0.2939 -1.3837  1.1186
  827SOL     OW 3379   1.914   2.266   1.799  0.2346  0.0604  0.6023
  827SOL    HW1 3380   1.889   2.296   1.707  0.9381  0.7747  0.6272
  827SOL    HW2 3381   2.013   2.270   1.810  0.1269  0.5314  1.5659
  828SOL     OW 3382   1.823   3.041   6.546  0.0488 -0.2393 -0.0382
  828SOL    HW1 3383   1.727   3.024   6.571  0.1005  2.3295  2.4998
  828SOL    HW2 3384   1.840   3.139   6.546  2.6690 -0.6305 -0.5701
  829SOL     OW 3385   1.268   5.258   6.834  0.1346 -0.2037 -0.0147
  829SOL    HW1 3386   1.332   5.219   6.900  0.3622  0.4920  0.1836
  829SOL    HW2 3387   1.188   5.294   6.882 -0.6064 -1.4136 -0.2920
  830SOL     OW 3388   5.212   6.295   4.147 -0.8735  0.2459  0.2711
  830SOL    HW1 3389   5.300   6.338   4.126 -0.8298  1.6622  2.9145
  830SOL    HW2 3390   5.222   6.236   4.228 -2.2242 -0.0391  0.2560
  831SOL     OW 3391   0.868   4.368   6.018  0.0331 -0.6333  0.4895
  831SOL    HW1 3392   0.938   4.401   5.955  0.5168 -1.5547  0.5250
  831SOL    HW2 3393   0.845   4.273   5.995 -2.2113  0.0563 -0.3954
  832SOL     OW 3394   0.739   2.601   2.973 -0.4255  0.1210 -0.1511
  832SOL    HW1 3395   0.751   2.661   2.894 -0.8331 -1.3431 -1.3737
  832SOL    HW2 3396   0.647   2.561   2.972 -0.2589 -0.3298  0.7895
  833SOL     OW 3397   5.593   0.113   6.439  0.4167  0.3966  0.6455
  833SOL    HW1 3398   5.663   0.182   6.423  0.5243  0.3904  1.0821
  833SOL    HW2 3399   5.633   0.036   6.488  0.3991 -0.1720 -0.2064
  834SOL     OW 3400   0.468   1.466   3.538 -0.5347 -0.4383  0.2122
  834SOL    HW1 3401   0.465   1.403   3.616  0.6410 -0.0794  0.5593
  834SOL    HW2 3402   0.545   1.443   3.479  0.9932  1.6776  1.2479
  835SOL     OW 3403   0.907   3.822   0.982 -0.2756  0.2475 -0.0347
  835SOL    HW1 3404   0.820   3.775   0.997  0.2924 -0.6154  0.6465
  835SOL    HW2 3405   0.910   3.857   0.889 -0.8980 -0.6986 -0.4306
  836SOL     OW 3406   1.850   4.828   3.515 -0.4513  0.0877  0.1831
  836SOL    HW1 3407   1.898   4.902   3.468 -1.0751  0.2103 -0.2756
  836SOL    HW2 3408   1.889   4.816   3.607  0.7532 -0.1368 -0.3391
  837SOL     OW 3409   6.488   0.106   5.991  0.6994 -0.2927 -0.7755
  837SOL    HW1 3410   6.440   0.070   6.072  3.3915 -0.0510  1.0623
  837SOL    HW2 3411   6.475   0.044   5.914 -2.9632  0.0698 -0.6310
  838SOL     OW 3412   0.344   5.131   2.215  0.2599  0.4870 -0.4532
  838SOL    HW1 3413   0.428   5.184   2.205 -0.7562  2.7353  1.8907
  838SOL    HW2 3414   0.271   5.172   2.160 -0.0528  0.3958 -0.1142
  839SOL     OW 3415   1.432   5.276   5.845  0.8394  0.1863  0.2673
  839SOL    HW1 3416   1.530   5.262   5.831  0.7493 -0.1051 -0.0755
  839SOL    HW2 3417   1.405   5.365   5.807  0.9323  0.1802  0.1867
  840SOL     OW 3418   2.804   3.880   5.745  0.1146  0.5445  0.3053
  840SOL    HW1 3419   2.735   3.811   5.724 -0.5338  1.4707 -0.7277
  840SOL    HW2 3420   2.878   3.875   5.678 -0.3376  1.3612 -0.2774
  841SOL     OW 3421   1.535   6.245   3.588  0.2354  0.2060 -0.1326
  841SOL    HW1 3422   1.613   6.268   3.646  0.2005 -0.8104  0.3339
  841SOL    HW2 3423   1.567   6.225   3.496  0.5994 -0.7557  0.1946
  842SOL     OW 3424   1.268   6.239   6.243  0.4139 -0.6602 -0.4117
  842SOL    HW1 3425   1.226   6.229   6.333  1.8888  0.1514  0.4004
  842SOL    HW2 3426   1.207   6.292   6.183 -0.7336 -1.5059 -0.0396
  843SOL     OW 3427   5.298   1.294   6.808 -0.1213 -0.5102 -0.2358
  843SOL    HW1 3428   5.278   1.289   6.710 -1.6555  0.2982  0.0172
  843SOL    HW2 3429   5.359   1.371   6.825  3.6314 -3.0227 -1.0130
  844SOL     OW 3430   6.575   6.905   0.729  0.0260  0.0269 -0.3077
  844SOL    HW1 3431   6.586   6.937   0.823  0.3654  0.3478 -0.4561
  844SOL    HW2 3432   6.478   6.894   0.708 -0.1879  2.1913 -0.6662
  845SOL     OW 3433   5.415   5.699   1.074 -0.3961 -0.0039  0.6746
  845SOL    HW1 3434   5.440   5.718   0.979 -1.9266 -0.7263  0.0925
  845SOL    HW2 3435   5.436   5.779   1.131  2.5107 -0.3061  0.1704
  846SOL     OW 3436   4.800   5.644   3.275  1.3600 -0.6069 -0.0458
  846SOL    HW1 3437   4.790   5.564   3.334  0.9587 -0.0647  0.6411
  846SOL    HW2 3438   4.835   5.720   3.329  0.0025  0.1955 -0.2382
  847SOL     OW 3439   1.329   4.182   4.272  0.1648 -0.1469  0.0035
  847SOL    HW1 3440   1.333   4.091   4.315 -1.1487 -0.4137 -0.3868
  847SOL    HW2 3441   1.421   4.212   4.248  0.5579 -1.7588 -0.6259
  848SOL     OW 3442   2.148   6.896   5.105  0.0511 -0.2630 -0.3766
  848SOL    HW1 3443   2.173   6.800   5.107  0.4971 -0.2075 -2.0103
  848SOL    HW2 3444   2.221   6.949   5.061 -1.1337  0.5060 -1.4865
  849SOL     OW 3445   3.717   3.784   4.638  0.5734 -0.3775  0.5135
  849SOL    HW1 3446   3.717   3.693   4.594 -1.2258 -0.4218  0.5213
  849SOL    HW2 3447   3.804   3.829   4.621  0.1666 -0.5735 -2.8124
  850SOL     OW 3448   1.589   0.505   0.941  0.8231 -0.0226  0.0956
  850SOL    HW1 3449   1.672   0.550   0.976  0.5694 -0.2214  0.9819
  850SOL    HW2 3450   1.522   0.497   1.015  0.4780 -0.9477 -0.2967
  851SOL     OW 3451   5.555   4.168   1.565 -0.6851  0.3727  0.7021
  851SOL    HW1 3452   5.603   4.123   1.490 -1.2750  3.5189 -1.8073
  851SOL    HW2 3453   5.607   4.156   1.650  2.6601  0.6081 -1.1484
  852SOL     OW 3454   3.289   3.491   1.362  0.4585  0.5036 -0.2032
  852SOL    HW1 3455   3.209   3.459   1.414  0.0509  0.0141 -1.1076
  852SOL    HW2 3456   3.368   3.435   1.386  0.2265  0.1515 -0.2459
  853SOL     OW 3457   1.893   2.688   1.351  0.9818 -0.2068  0.0505
  853SOL    HW1 3458   1.977   2.688   1.405  1.0813  1.8351 -0.0576
  853SOL    HW2 3459   1.816   2.712   1.410  0.7456 -0.2499 -0.2387
  854SOL     OW 3460   5.513   1.273   2.243 -0.8955 -0.3978 -0.2992
  854SOL    HW1 3461   5.587   1.304   2.184 -1.9740 -0.7489 -1.8914
  854SOL    HW2 3462   5.549   1.208   2.310  0.2675 -0.3778 -0.8786
  855SOL     OW 3463   4.021   0.492   1.961 -0.0024 -0.3900 -0.1623
  855SOL    HW1 3464   4.074   0.518   1.880 -0.3431 -0.9486 -0.5792
  855SOL    HW2 3465   3.943   0.554   1.972  2.6759  2.8141  2.5926
  856SOL     OW 3466   6.343   0.733   0.179 -0.1799  0.5791  0.1704
  856SOL    HW1 3467   6.429   0.718   0.130  0.6160 -0.5140  1.8320
  856SOL    HW2 3468   6.327   0.658   0.243 -2.2822  0.8778  0.0681
  857SOL     OW 3469   4.797   4.825   1.734 -0.3006 -0.1268  0.6200
  857SOL    HW1 3470   4.699   4.821   1.753 -0.1831 -2.6336  1.1296
  857SOL    HW2 3471   4.848   4.784   1.810  1.2522  1.9042  0.7636
  858SOL     OW 3472   2.376   0.831   3.494  0.0212 -0.3001 -0.4040
  858SOL    HW1 3473   2.348   0.925   3.474 -1.7035 -0.6425  0.2268
  858SOL    HW2 3474   2.476   0.825   3.494  0.2196  1.9129  1.1951
  859SOL     OW 3475   1.102   3.083   2.472 -0.2793 -0.0315 -0.7142
  859SOL    HW1 3476   1.121   3.062   2.377 -0.6982  1.4693 -1.1579
  859SOL    HW2 3477   1.003   3.087   2.486 -0.2736 -1.7230  0.1623
  860SOL     OW 3478   4.145   5.456   5.447  0.2623 -0.4523 -0.0132
  860SOL    HW1 3479   4.081   5.489   5.516  0.2208  1.7170 -1.0028
  860SOL    HW2 3480   4.238   5.456   5.485  0.1086 -0.3091  0.3622
  861SOL     OW 3481   3.502   0.882   0.073  0.3577 -0.0172 -0.4117
  861SOL    HW1 3482   3.444   0.823   0.017 -0.9924 -1.3768  2.2361
  861SOL    HW2 3483   3.462   0.974   0.077 -1.2379 -0.6884  0.6081
  862SOL     OW 3484   3.962   2.030   6.072  0.4791  0.6739 -0.4108
  862SOL    HW1 3485   3.970   2.040   6.172  0.6439  1.1898 -0.4711
  862SOL    HW2 3486   3.867   2.046   6.045  0.3673  0.2075 -0.3041
  863SOL     OW 3487   6.475   3.055   2.463 -0.4327 -0.3481 -0.0171
  863SOL    HW1 3488   6.545   3.053   2.392 -0.6441  0.0670 -0.2396
  863SOL    HW2 3489   6.512   3.016   2.548 -0.2655 -1.1015 -0.4262
  864SOL     OW 3490   1.066   0.459   0.425 -0.1380  0.3153 -0.4953
  864SOL    HW1 3491   1.122   0.532   0.385 -1.9228  0.5443 -2.8078
  864SOL    HW2 3492   1.025   0.404   0.351 -1.0460 -1.3263  1.1389
  865SOL     OW 3493   6.273   4.176   1.949 -0.2860  0.4892 -0.0531
  865SOL    HW1 3494   6.179   4.170   1.919 -0.8286 -0.7213  1.6953
  865SOL    HW2 3495   6.314   4.261   1.915 -2.5266  1.9043  0.5554
  866SOL     OW 3496   1.436   2.516   0.463 -0.1962 -0.1197  0.2521
  866SOL    HW1 3497   1.409   2.524   0.368 -1.5269  0.7884  0.6786
  866SOL    HW2 3498   1.505   2.586   0.485  0.3006 -0.4982 -0.1042
  867SOL     OW 3499   1.189   4.044   6.035  0.4041 -0.4467 -0.0707
  867SOL    HW1 3500   1.267   3.987   6.058 -0.2522 -0.9071  1.0713
  867SOL    HW2 3501   1.195   4.131   6.084  1.2266  0.3754 -1.5465
  868SOL     OW 3502   1.080   1.142   2.748 -0.1497 -0.4091  0.3035
  868SOL    HW1 3503   0.999   1.166   2.694  0.0706 -0.0604  0.1219
  868SOL    HW2 3504   1.162   1.162   2.695  0.1555  2.0741  1.5543
  869SOL     OW 3505   3.344   4.349   0.695 -0.5519 -0.3983 -0.1159
  869SOL    HW1 3506   3.287   4.269   0.714  0.1357 -0.6525  0.9450
  869SOL    HW2 3507   3.315   4.425   0.752 -2.9202  1.0032 -2.9203
  870SOL     OW 3508   6.866   3.157   4.981 -0.3061  0.1384 -0.5974
  870SOL    HW1 3509   6.795   3.223   5.005 -0.8280  0.2119 -2.2298
  870SOL    HW2 3510   6.935   3.155   5.053 -1.3759  0.8909  0.4867
  871SOL     OW 3511   4.121   2.568   6.595  0.2117  0.2891 -0.3179
  871SOL    HW1 3512   4.079   2.519   6.672 -2.0336  0.5710 -1.2669
  871SOL    HW2 3513   4.084   2.531   6.509  0.8211  1.6070 -1.1735
  872SOL     OW 3514   5.231   3.356   4.386  0.9161 -1.0800 -0.3901
  872SOL    HW1 3515   5.263   3.272   4.432  1.5111 -1.5898 -1.6863
  872SOL    HW2 3516   5.248   3.348   4.288 -3.1818 -1.3557 -1.2336
  873SOL     OW 3517   6.537   1.713   6.027  0.4590  0.3940  0.3191
  873SOL    HW1 3518   6.442   1.743   6.015 -0.2801 -0.9722  2.1745
  873SOL    HW2 3519   6.586   1.721   5.940 -1.0563  2.0525 -0.4502
  874SOL     OW 3520   3.797   2.413   5.294 -0.4597 -0.3934 -0.4462
  874SOL    HW1 3521   3.740   2.493   5.273  1.0246  0.5970 -0.8179
  874SOL    HW2 3522   3.815   2.409   5.392  0.4013  0.4067 -0.5576
  875SOL     OW 3523   1.717   1.376   1.076 -0.2255  0.2564 -0.4451
  875SOL    HW1 3524   1.671   1.452   1.123  0.0561  0.3574 -0.3318
  875SOL    HW2 3525   1.691   1.377   0.979 -0.1623  0.5434 -0.4598
  876SOL     OW 3526   3.835   5.236   0.780 -0.2295  0.5173  0.3503
  876SOL    HW1 3527   3.787   5.161   0.736 -1.0466  1.7419 -0.9371
  876SOL    HW2 3528   3.785   5.322   0.764  0.7523  1.3642  1.6268
  877SOL     OW 3529   0.466   4.083   6.724 -0.6893  0.6874  0.4349
  877SOL    HW1 3530   0.471   3.989   6.756  0.8380 -0.3764 -2.5007
  877SOL    HW2 3531   0.520   4.142   6.784 -0.7941 -0.4716  1.7167
  878SOL     OW 3532   4.767   5.255   1.682 -0.6996  0.1495  0.0328
  878SOL    HW1 3533   4.822   5.174   1.658 -0.8738 -0.0863  0.4121
  878SOL    HW2 3534   4.821   5.338   1.666 -0.2427 -0.0779  0.3653
  879SOL     OW 3535   3.442   0.942   0.564 -0.1899 -0.1838  0.1129
  879SOL    HW1 3536   3.388   0.939   0.649  0.0955  0.4106  0.3283
  879SOL    HW2 3537   3.450   1.037   0.534 -0.0698 -0.3672 -0.4425
  880SOL     OW 3538   5.263   3.104   2.400  0.1109  0.3658 -0.1202
  880SOL    HW1 3539   5.308   3.051   2.472  0.6354  0.5419 -0.3146
  880SOL    HW2 3540   5.315   3.187   2.382 -2.1418  2.4236  2.1212
  881SOL     OW 3541   2.756   6.253   0.948 -0.0426  0.5148 -0.8533
  881SOL    HW1 3542   2.700   6.308   1.010 -0.6262 -1.4899  0.4800
  881SOL    HW2 3543   2.813   6.191   1.001 -1.1635 -1.8758 -2.2816
  882SOL     OW 3544   2.438   2.531   3.010 -0.0970  0.1658 -0.3381
  882SOL    HW1 3545   2.384   2.462   3.059 -1.6803  0.9209 -0.9536
  882SOL    HW2 3546   2.421   2.621   3.051  2.0945  0.2207  0.5802
  883SOL     OW 3547   2.798   0.457   6.130  0.1817 -0.3811 -0.6340
  883SOL    HW1 3548   2.760   0.443   6.039 -0.7220  1.4630 -0.5961
  883SOL    HW2 3549   2.858   0.537   6.130 -2.5099  1.8306  0.9900
  884SOL     OW 3550   1.314   2.672   4.458 -0.0223  0.2633  1.4269
  884SOL    HW1 3551   1.351   2.710   4.373 -2.0128  2.7720  1.5742
  884SOL    HW2 3552   1.332   2.574   4.460 -0.8350 -0.1491 -2.4209
  885SOL     OW 3553   1.702   4.304   5.360  0.7340 -0.1156  0.2733
  885SOL    HW1 3554   1.725   4.228   5.299 -1.2421  0.7285 -1.6756
  885SOL    HW2 3555   1.677   4.384   5.306 -0.3528  0.9479  2.2286
  886SOL     OW 3556   6.730   3.646   5.629  0.0086 -0.3358  0.1107
  886SOL    HW1 3557   6.810   3.592   5.657  0.4665 -0.4924 -1.4128
  886SOL    HW2 3558   6.647   3.593   5.644  0.2908 -0.6865  0.4608
  887SOL     OW 3559   1.896   6.124   5.454  0.5621 -0.1916 -0.4903
  887SOL    HW1 3560   1.798   6.106   5.451  0.7562 -1.1337 -2.6578
  887SOL    HW2 3561   1.911   6.223   5.456 -0.4073 -0.0419  0.6360
  888SOL     OW 3562   4.753   1.012   4.289  0.5057 -0.0046  0.3836
  888SOL    HW1 3563   4.841   0.969   4.311  0.3793 -0.5066 -0.0455
  888SOL    HW2 3564   4.701   0.950   4.230  0.2997  0.7279 -0.2157
  889SOL     OW 3565   5.150   5.500   4.269  0.1351  0.3516 -0.3029
  889SOL    HW1 3566   5.187   5.450   4.191 -2.3573 -0.4762 -1.0560
  889SOL    HW2 3567   5.196   5.469   4.353  0.0523 -1.7860 -0.9745
  890SOL     OW 3568   5.620   3.140   4.029  0.4882  0.2186  0.0230
  890SOL    HW1 3569   5.600   3.223   4.081 -0.9719 -0.5085  0.6601
  890SOL    HW2 3570   5.631   3.164   3.932 -0.0945  1.1273  0.1677
  891SOL     OW 3571   5.876   5.097   1.128  0.1951  0.1826  0.3310
  891SOL    HW1 3572   5.826   5.012   1.145 -0.2068  0.5536  1.0707
  891SOL    HW2 3573   5.896   5.142   1.216  0.2237  0.9558 -0.0596
  892SOL     OW 3574   3.055   0.707   3.656  0.5197  0.8420  0.2415
  892SOL    HW1 3575   3.150   0.691   3.630 -0.2613  1.1940 -3.3740
  892SOL    HW2 3576   3.024   0.795   3.619 -1.3332  0.5684  0.9988
  893SOL     OW 3577   2.650   2.397   3.136  0.0602  0.0713 -0.1150
  893SOL    HW1 3578   2.585   2.450   3.082 -1.6812 -0.7263  1.1061
  893SOL    HW2 3579   2.604   2.317   3.174  2.4464 -2.0763 -1.4281
  894SOL     OW 3580   1.131   1.022   1.688  0.2708  0.2784 -0.4623
  894SOL    HW1 3581   1.103   1.069   1.772  0.3136 -1.0616  0.3363
  894SOL    HW2 3582   1.158   0.928   1.710  1.4921  0.2824 -1.8024
  895SOL     OW 3583   5.206   1.317   6.527 -0.1900 -0.0681 -0.6905
  895SOL    HW1 3584   5.164   1.399   6.566  1.2596  0.2090  0.4042
  895SOL    HW2 3585   5.156   1.289   6.445 -1.1428  1.4802 -0.6772
  896SOL     OW 3586   1.922   5.907   5.740  0.2374 -0.1734 -0.7538
  896SOL    HW1 3587   1.933   5.861   5.652 -0.7521 -0.8772 -0.5295
  896SOL    HW2 3588   1.889   5.841   5.808  0.5630  0.4613  0.0408
  897SOL     OW 3589   5.100   3.885   0.404 -0.0633 -0.1607 -0.0900
  897SOL    HW1 3590   5.195   3.856   0.391  0.2781  1.0000 -0.2700
  897SOL    HW2 3591   5.046   3.862   0.323  0.4899  0.8308 -0.7530
  898SOL     OW 3592   6.809   0.154   1.469  0.2871  0.4559 -0.4563
  898SOL    HW1 3593   6.781   0.152   1.565  1.4090  0.5593 -0.1081
  898SOL    HW2 3594   6.840   0.063   1.441  1.5729  0.7930 -0.2001
  899SOL     OW 3595   6.925   3.069   2.484 -0.6475 -0.6836  0.5772
  899SOL    HW1 3596   6.974   3.017   2.555 -1.1915 -1.4815  0.3777
  899SOL    HW2 3597   6.918   3.013   2.401 -1.1618 -0.2500  0.3292
  900SOL     OW 3598   3.520   1.741   1.824 -1.1585  0.6420 -0.2408
  900SOL    HW1 3599   3.526   1.709   1.730  0.3276  1.4990 -0.4656
  900SOL    HW2 3600   3.544   1.838   1.829 -0.7956  0.5131  1.0576
  901SOL     OW 3601   3.700   1.882   5.468  0.0931  0.1479 -0.4696
  901SOL    HW1 3602   3.617   1.842   5.429  0.6253 -2.3545  0.7392
  901SOL    HW2 3603   3.775   1.872   5.402 -0.0462  0.2210 -0.6394
  902SOL     OW 3604   3.903   5.952   0.502 -0.0847 -0.0821 -0.1852
  902SOL    HW1 3605   3.879   6.003   0.419  1.5452 -1.2697 -1.4404
  902SOL    HW2 3606   3.825   5.954   0.565 -0.9356  1.8782 -1.1949
  903SOL     OW 3607   4.147   6.405   0.680 -0.2041 -0.5399 -0.1097
  903SOL    HW1 3608   4.177   6.489   0.725 -0.6106 -0.9256  0.9257
  903SOL    HW2 3609   4.227   6.355   0.647  0.0450  0.1988 -0.6471
  904SOL     OW 3610   6.305   1.061   5.284 -0.4280  0.4699 -0.0904
  904SOL    HW1 3611   6.372   1.123   5.243 -0.1939  0.4724  0.2939
  904SOL    HW2 3612   6.346   0.971   5.297 -0.6209  0.3626 -0.2128
  905SOL     OW 3613   3.511   3.142   5.001  0.1809  0.4605 -0.3768
  905SOL    HW1 3614   3.510   3.080   4.923  1.6751  0.2426 -0.2615
  905SOL    HW2 3615   3.571   3.220   4.981 -0.2983  0.9748  0.1367
  906SOL     OW 3616   2.422   4.678   0.714 -0.1373 -0.2784 -0.0779
  906SOL    HW1 3617   2.465   4.608   0.656 -0.6264 -0.7648  0.1346
  906SOL    HW2 3618   2.323   4.672   0.706 -0.2806 -1.2795  1.8369
  907SOL     OW 3619   2.317   6.659   4.537 -0.3286 -0.1913 -0.2307
  907SOL    HW1 3620   2.336   6.746   4.582  1.0030 -0.0863 -0.9315
  907SOL    HW2 3621   2.247   6.671   4.467 -0.7810  0.1148  0.2678
  908SOL     OW 3622   2.042   2.783   4.023 -0.7400  0.7454 -0.0314
  908SOL    HW1 3623   2.091   2.863   3.989  0.6711  0.4437  1.1895
  908SOL    HW2 3624   1.966   2.811   4.082 -2.9313  1.2623 -2.8687
  909SOL     OW 3625   5.291   0.563   5.798 -0.7536 -0.1348  0.3791
  909SOL    HW1 3626   5.200   0.603   5.803 -0.0723  1.3844  1.3300
  909SOL    HW2 3627   5.339   0.578   5.885  0.8474  0.2259 -0.5198
  910SOL     OW 3628   0.088   1.067   6.088 -0.3310  0.0555 -0.4524
  910SOL    HW1 3629   0.085   1.078   6.187  0.2807 -0.3756 -0.3814
  910SOL    HW2 3630  -0.006   1.071   6.051 -0.4255  2.0448 -0.0877
  911SOL     OW 3631   6.146   0.437   6.089 -0.2386  0.5048  0.3797
  911SOL    HW1 3632   6.086   0.392   6.155 -0.1093 -0.8889 -0.4112
  911SOL    HW2 3633   6.129   0.535   6.091  0.0438  0.5557  2.7419
  912SOL     OW 3634   5.876   0.089   3.110  0.6235 -0.6586  0.2623
  912SOL    HW1 3635   5.853   0.064   3.204 -0.3414 -1.3693 -0.1494
  912SOL    HW2 3636   5.801   0.064   3.050  1.0398  0.2137 -0.6451
  913SOL     OW 3637   1.844   0.414   2.520 -0.6007  0.1715  0.0183
  913SOL    HW1 3638   1.774   0.360   2.566 -0.3937  0.8976  1.2556
  913SOL    HW2 3639   1.922   0.425   2.582 -1.0519  2.7131  0.2470
  914SOL     OW 3640   3.443   3.198   4.082  0.0293  0.1301 -0.5171
  914SOL    HW1 3641   3.390   3.118   4.112  0.8425 -0.4642 -0.6185
  914SOL    HW2 3642   3.488   3.240   4.161 -0.4985  0.5660 -0.4464
  915SOL     OW 3643   0.598   0.589   5.343 -0.2421 -0.0832 -0.1070
  915SOL    HW1 3644   0.577   0.682   5.312  0.7630  0.1736 -0.0585
  915SOL    HW2 3645   0.628   0.534   5.265  1.3636  0.2915  0.2150
  916SOL     OW 3646   2.448   0.897   4.343 -0.2529 -0.1800 -0.0648
  916SOL    HW1 3647   2.396   0.893   4.257 -0.3183  0.4253 -0.0577
  916SOL    HW2 3648   2.424   0.981   4.392  0.1846 -0.2614  0.2899
  917SOL     OW 3649   3.558   5.385   0.148 -0.0038  0.0734  0.1953
  917SOL    HW1 3650   3.587   5.321   0.077  0.7409 -0.0790  0.6317
  917SOL    HW2 3651   3.473   5.352   0.189 -0.5042  0.2198 -0.6883
  918SOL     OW 3652   2.638   1.891   0.246  0.4063  0.5122  0.0572
  918SOL    HW1 3653   2.547   1.921   0.276 -0.1911 -1.3755  0.2528
  918SOL    HW2 3654   2.649   1.912   0.149 -0.4892  0.2606 -0.1177
  919SOL     OW 3655   4.713   4.871   5.438 -0.0812 -0.2566 -0.0856
  919SOL    HW1 3656   4.678   4.941   5.376 -0.2755  1.7921  2.1941
  919SOL    HW2 3657   4.805   4.844   5.408  0.4282  1.7415 -0.5147
  920SOL     OW 3658   1.523   1.086   1.093 -0.3141  0.1593  0.3399
  920SOL    HW1 3659   1.585   1.122   1.162 -2.1420 -0.3965  2.3651
  920SOL    HW2 3660   1.573   1.025   1.031  1.2112  0.0306  1.6529
  921SOL     OW 3661   4.833   1.609   5.312 -0.7159 -0.3089 -0.5261
  921SOL    HW1 3662   4.772   1.568   5.244 -0.1379  0.6355 -1.6543
  921SOL    HW2 3663   4.922   1.566   5.306 -0.2594  0.6896 -1.3563
  922SOL     OW 3664   5.845   5.019   1.548  0.0477  0.5152 -0.0193
  922SOL    HW1 3665   5.906   5.079   1.496 -0.5623 -0.1086 -1.5311
  922SOL    HW2 3666   5.751   5.027   1.513 -0.0097 -1.4917 -0.5002
  923SOL     OW 3667   5.501   6.484   2.084 -0.3876 -0.1982  0.3750
  923SOL    HW1 3668   5.585   6.535   2.066  0.2110  0.2862  3.8136
  923SOL    HW2 3669   5.445   6.534   2.150 -3.8550 -0.1658 -2.3009
  924SOL     OW 3670   6.279   6.078   4.975 -0.1708  0.0126 -0.0265
  924SOL    HW1 3671   6.254   5.992   4.930 -1.5540  0.6323 -0.5184
  924SOL    HW2 3672   6.364   6.067   5.025 -1.0457 -2.0416  1.0991
  925SOL     OW 3673   6.389   2.648   1.347 -0.0136 -0.1810  0.2366
  925SOL    HW1 3674   6.483   2.643   1.383  0.1403  1.3721  0.0928
  925SOL    HW2 3675   6.326   2.666   1.422 -0.1184 -0.4344  0.2126
  926SOL     OW 3676   1.776   1.974   3.429 -0.2344  0.0454 -0.1292
  926SOL    HW1 3677   1.853   1.922   3.466 -0.6027 -1.3845 -1.2699
  926SOL    HW2 3678   1.690   1.929   3.453 -0.4997 -0.8136 -2.4030
  927SOL     OW 3679   6.375   2.024   0.018  0.1844  0.1281  0.3636
  927SOL    HW1 3680   6.363   1.962   0.096  2.9588 -0.9494  0.0526
  927SOL    HW2 3681   6.425   2.106   0.048  1.2285 -0.2732 -0.2146
  928SOL     OW 3682   1.949   5.853   3.121  0.3167  0.6413  0.2031
  928SOL    HW1 3683   2.026   5.914   3.140 -2.2158  3.8126  1.1992
  928SOL    HW2 3684   1.907   5.825   3.207 -0.8224  0.6623 -0.3294
  929SOL     OW 3685   0.386   1.760   2.454 -0.1877  0.1039  0.1897
  929SOL    HW1 3686   0.462   1.696   2.466 -0.7163 -0.8780 -1.3825
  929SOL    HW2 3687   0.410   1.848   2.495  2.1360  0.0774 -0.9142
  930SOL     OW 3688   6.519   5.938   3.478 -0.0069  0.2902 -0.3235
  930SOL    HW1 3689   6.465   5.866   3.434 -2.5197  1.8592 -0.0016
  930SOL    HW2 3690   6.501   5.937   3.576  0.7397  0.7057 -0.1823
  931SOL     OW 3691   5.789   5.405   3.397 -0.1026  0.5789  0.7477
  931SOL    HW1 3692   5.782   5.305   3.398 -2.2262  0.6789 -0.3964
  931SOL    HW2 3693   5.848   5.434   3.473  1.6425 -1.5689  0.3415
  932SOL     OW 3694   3.206   3.074   4.302 -0.0825  0.1353 -0.0236
  932SOL    HW1 3695   3.244   3.039   4.216  0.0143  0.5739 -0.1599
  932SOL    HW2 3696   3.222   3.008   4.375  1.0894  0.3879 -0.0382
  933SOL     OW 3697   6.794   2.194   2.266  0.0768 -0.0472 -0.0276
  933SOL    HW1 3698   6.708   2.217   2.313 -0.3534  0.5128 -1.0544
  933SOL    HW2 3699   6.789   2.100   2.231  0.0574 -0.1637  0.2820
  934SOL     OW 3700   1.665   6.544   2.109  0.2216 -0.2171 -0.8958
  934SOL    HW1 3701   1.653   6.480   2.033  0.0690  0.8479 -1.7937
  934SOL    HW2 3702   1.577   6.589   2.129  0.5709  0.5652 -1.0697
  935SOL     OW 3703   0.277   5.251   2.695  0.1608  0.2028 -0.7890
  935SOL    HW1 3704   0.207   5.300   2.642 -1.1539  0.5787  1.1901
  935SOL    HW2 3705   0.233   5.200   2.769  1.6412 -2.9198 -1.9291
  936SOL     OW 3706   2.426   0.558   7.007  0.0867 -0.7256 -0.1706
  936SOL    HW1 3707   2.377   0.487   6.958  0.4338 -1.2756  0.2679
  936SOL    HW2 3708   2.522   0.532   7.016  0.2084 -0.2201  0.0348
  937SOL     OW 3709   3.309   5.194   3.058 -0.1573 -0.8484 -0.1123
  937SOL    HW1 3710   3.284   5.109   3.104 -1.7143  0.2952  1.3049
  937SOL    HW2 3711   3.360   5.252   3.122  0.2404 -0.4178 -0.8079
  938SOL     OW 3712   2.929   3.566   5.035  0.2157 -0.1223  0.3046
  938SOL    HW1 3713   2.853   3.529   5.089  0.1478 -0.9501 -0.3416
  938SOL    HW2 3714   2.924   3.666   5.034 -0.3441 -0.1354  1.0090
  939SOL     OW 3715   1.134   0.456   3.513 -0.0825 -0.4025 -0.2312
  939SOL    HW1 3716   1.048   0.425   3.474 -0.9153  1.1201  0.3066
  939SOL    HW2 3717   1.170   0.387   3.575 -0.6352 -1.2680 -0.8519
  940SOL     OW 3718   6.712   1.929   2.212  0.0415 -0.6355 -0.6538
  940SOL    HW1 3719   6.783   1.866   2.177  0.6770 -1.0715  1.3059
  940SOL    HW2 3720   6.703   1.917   2.310 -3.2022 -0.9808 -0.9096
  941SOL     OW 3721   5.857   5.720   0.056  0.2420  0.0893  0.5349
  941SOL    HW1 3722   5.803   5.695  -0.023 -0.5686  0.9230  0.8174
  941SOL    HW2 3723   5.950   5.745   0.027  0.0588  0.0393 -0.1015
  942SOL     OW 3724   2.793   0.865   2.034 -0.6083  0.3040  0.0986
  942SOL    HW1 3725   2.702   0.878   1.996 -0.8056 -0.1506  0.4026
  942SOL    HW2 3726   2.786   0.835   2.129 -0.1264  1.0704  0.3858
  943SOL     OW 3727   1.081   2.880   6.616 -0.1741 -0.1342  0.2480
  943SOL    HW1 3728   1.123   2.961   6.657  1.0932  0.2178 -1.6173
  943SOL    HW2 3729   1.153   2.816   6.588 -1.0174 -0.6940 -0.7094
  944SOL     OW 3730   5.722   4.606   6.075  0.1435  0.0410  0.6279
  944SOL    HW1 3731   5.691   4.568   5.988  0.4385 -0.7886  0.8659
  944SOL    HW2 3732   5.742   4.530   6.138  2.3317  0.5245  0.5934
  945SOL     OW 3733   5.468   3.702   6.514  0.9425  0.2164  0.1666
  945SOL    HW1 3734   5.508   3.793   6.522 -1.5818  1.6806 -2.0752
  945SOL    HW2 3735   5.433   3.689   6.422 -1.3250 -1.8753  1.1986
  946SOL     OW 3736   1.197   5.577   6.257 -0.6570 -0.7149  0.8183
  946SOL    HW1 3737   1.190   5.538   6.349 -0.9516 -1.2319  0.5839
  946SOL    HW2 3738   1.112   5.624   6.234  0.1298  1.1447  1.5638
  947SOL     OW 3739   4.970   2.597   5.769 -0.2945  0.1631  0.5830
  947SOL    HW1 3740   5.001   2.680   5.815  1.6816  0.4719 -1.1826
  947SOL    HW2 3741   4.921   2.621   5.685 -2.3160 -0.4390  1.5213
  948SOL     OW 3742   3.266   2.922   2.354  0.2038  0.4413 -0.5179
  948SOL    HW1 3743   3.271   2.902   2.256  0.1503  0.0487 -0.4434
  948SOL    HW2 3744   3.357   2.916   2.394 -0.1022 -2.3420  0.0041
  949SOL     OW 3745   3.792   1.829   6.881 -0.3401  0.3793 -0.0482
  949SOL    HW1 3746   3.716   1.853   6.941  0.9405  2.3857  0.8856
  949SOL    HW2 3747   3.785   1.882   6.796 -0.0371  0.4767 -0.0112
  950SOL     OW 3748   3.485   6.172   5.403 -0.2396  0.2692  0.1961
  950SOL    HW1 3749   3.454   6.244   5.341 -0.7585  0.5228  0.7367
  950SOL    HW2 3750   3.413   6.102   5.411  0.8033 -1.0757 -1.4386
  951SOL     OW 3751   1.638   3.863   2.883  0.6954  0.3885 -0.6641
  951SOL    HW1 3752   1.557   3.914   2.854  0.6115  0.4677 -0.2897
  951SOL    HW2 3753   1.659   3.792   2.816  0.1396  0.1683 -0.6046
  952SOL     OW 3754   5.403   0.540   2.513  0.5739  0.7497  0.2641
  952SOL    HW1 3755   5.364   0.632   2.521 -0.4611  0.1563  3.4381
  952SOL    HW2 3756   5.341   0.474   2.555 -0.1584 -1.9892 -4.4956
  953SOL     OW 3757   6.253   2.665   2.465  0.1854 -0.2607  0.0370
  953SOL    HW1 3758   6.312   2.618   2.529 -0.6149  0.7668  1.5964
  953SOL    HW2 3759   6.179   2.604   2.435  1.3096 -1.1598 -0.9817
  954SOL     OW 3760   0.595   4.651   1.610 -0.4572  0.1677  0.3001
  954SOL    HW1 3761   0.586   4.678   1.514 -2.6187 -0.3039  0.3026
  954SOL    HW2 3762   0.681   4.602   1.624 -0.5826 -0.6912 -1.6441
  955SOL     OW 3763   5.953   2.461   6.943 -0.5067 -0.2434 -0.0172
  955SOL    HW1 3764   6.049   2.432   6.938 -0.5087 -0.1071 -1.3000
  955SOL    HW2 3765   5.903   2.424   6.865 -1.6632 -0.8433  0.9818
  956SOL     OW 3766   0.279   2.636   0.584  0.1830 -0.0802  0.0354
  956SOL    HW1 3767   0.265   2.579   0.503  3.1564 -0.8360 -0.0791
  956SOL    HW2 3768   0.208   2.616   0.651 -0.3643 -2.0452 -1.0363
  957SOL     OW 3769   6.546   5.255   2.905 -1.3882  0.2085  0.1516
  957SOL    HW1 3770   6.520   5.336   2.853  0.2811  0.8600  0.2528
  957SOL    HW2 3771   6.530   5.270   3.002  1.3360  1.5264  0.4819
  958SOL     OW 3772   5.551   4.132   6.959  0.0554  0.1520 -0.1628
  958SOL    HW1 3773   5.524   4.045   6.918 -0.2014  0.3625 -0.4413
  958SOL    HW2 3774   5.554   4.203   6.889  1.1962  0.1684 -0.1092
  959SOL     OW 3775   2.166   6.767   6.651 -0.6697 -0.9464 -0.5074
  959SOL    HW1 3776   2.195   6.700   6.583 -1.9110 -2.3177  0.2394
  959SOL    HW2 3777   2.129   6.719   6.730 -1.4132  0.6405  0.1436
  960SOL     OW 3778   4.121   6.208   4.707 -0.3171  0.0498 -0.0018
  960SOL    HW1 3779   4.086   6.296   4.739 -1.2402 -0.0214 -0.7980
  960SOL    HW2 3780   4.200   6.223   4.647 -0.5063  0.3267 -0.1765
  961SOL     OW 3781   3.842   3.080   2.421  0.7871  0.2570 -0.0224
  961SOL    HW1 3782   3.830   3.031   2.508 -0.4430  0.2528 -0.1679
  961SOL    HW2 3783   3.752   3.104   2.385  1.3349  3.3786  0.4422
  962SOL     OW 3784   6.541   3.396   3.042  0.5012  0.0282 -0.2528
  962SOL    HW1 3785   6.482   3.320   3.071  0.8745 -0.5462 -0.9589
  962SOL    HW2 3786   6.636   3.365   3.038  0.9241  1.0443  1.2009
  963SOL     OW 3787   4.017   2.725   5.754  0.2466 -0.2958  0.3613
  963SOL    HW1 3788   3.954   2.662   5.800 -0.0319 -0.9248 -0.8507
  963SOL    HW2 3789   4.059   2.785   5.822  0.9501 -2.1612  1.6541
  964SOL     OW 3790   6.537   1.744   4.424 -0.0330  0.1172 -0.0982
  964SOL    HW1 3791   6.490   1.804   4.489  2.4660  2.3083 -0.1714
  964SOL    HW2 3792   6.481   1.662   4.409 -2.2063  1.0150  2.2741
  965SOL     OW 3793   2.864   6.289   0.499 -0.0467 -0.0135  0.2554
  965SOL    HW1 3794   2.907   6.315   0.413  0.4699  1.6114  0.9581
  965SOL    HW2 3795   2.873   6.364   0.564 -0.6813 -1.0960  1.6386
  966SOL     OW 3796   4.557   6.603   6.294  0.0358  0.1390  0.1886
  966SOL    HW1 3797   4.558   6.517   6.345 -1.3890  0.6028  1.0640
  966SOL    HW2 3798   4.590   6.677   6.352 -0.1297  0.4159 -0.0674
  967SOL     OW 3799   2.639   5.131   3.290 -0.4222 -0.0623 -0.3755
  967SOL    HW1 3800   2.682   5.119   3.379 -1.9535  0.5691  0.4883
  967SOL    HW2 3801   2.610   5.226   3.279 -1.4747 -0.4286 -0.9555
  968SOL     OW 3802   6.138   5.173   5.419  0.1591 -0.4230 -0.7092
  968SOL    HW1 3803   6.099   5.265   5.410  1.5324  0.4053  1.2000
  968SOL    HW2 3804   6.209   5.160   5.350 -1.7287 -1.0652 -2.6475
  969SOL     OW 3805   5.530   4.050   2.981  0.4362 -0.0516  0.0019
  969SOL    HW1 3806   5.462   4.069   3.052  0.6163 -0.3632  0.2622
  969SOL    HW2 3807   5.486   4.005   2.904  0.3071 -0.0544  0.0776
  970SOL     OW 3808   1.772   4.603   3.833 -0.0058 -0.0522 -0.0663
  970SOL    HW1 3809   1.745   4.594   3.928 -1.0482  0.3197 -0.3159
  970SOL    HW2 3810   1.777   4.512   3.791 -1.7878 -0.1082 -0.2440
  971SOL     OW 3811   6.467   3.432   2.005 -0.1231 -0.3986 -0.5071
  971SOL    HW1 3812   6.529   3.445   1.927 -1.0126 -0.1024 -1.1767
  971SOL    HW2 3813   6.383   3.483   1.989 -0.6068 -0.9242  0.3273
  972SOL     OW 3814   1.389   6.513   4.040 -0.6510  0.2364 -0.0725
  972SOL    HW1 3815   1.340   6.460   3.971  0.0259 -0.2896 -0.1631
  972SOL    HW2 3816   1.437   6.451   4.102 -0.5966  0.7260  0.3869
  973SOL     OW 3817   3.543   5.868   2.963 -0.3853 -0.0919  0.3104
  973SOL    HW1 3818   3.476   5.915   3.020  0.1833 -1.4381  2.1764
  973SOL    HW2 3819   3.596   5.935   2.911 -1.1237  1.1532  1.1180
  974SOL     OW 3820   1.463   5.175   1.244  0.1502  0.4615  0.4943
  974SOL    HW1 3821   1.519   5.256   1.229 -0.2373  0.3554 -1.8173
  974SOL    HW2 3822   1.518   5.105   1.290  1.9532  0.3762 -1.6422
  975SOL     OW 3823   1.700   5.651   2.376 -0.2639  0.1776 -0.3164
  975SOL    HW1 3824   1.708   5.595   2.293  0.2401  1.0435 -0.8765
  975SOL    HW2 3825   1.669   5.594   2.452  3.3409 -1.6941 -0.0090
  976SOL     OW 3826   4.519   5.182   1.282  0.0400 -0.6153 -0.3904
  976SOL    HW1 3827   4.426   5.160   1.253 -1.0538  1.7392  1.0643
  976SOL    HW2 3828   4.548   5.117   1.353 -1.4635 -0.0152  0.8381
  977SOL     OW 3829   1.029   3.855   2.685  0.9886  0.4223  0.4340
  977SOL    HW1 3830   1.049   3.938   2.633  3.0359 -0.6318 -0.6065
  977SOL    HW2 3831   0.982   3.789   2.626  2.3777 -0.3862  0.1948
  978SOL     OW 3832   6.144   5.707   1.606  0.7613  0.2236  0.8662
  978SOL    HW1 3833   6.191   5.637   1.661 -0.2034 -0.1217  1.2820
  978SOL    HW2 3834   6.069   5.665   1.555  1.0272  0.7256  0.0399
  979SOL     OW 3835   6.203   1.105   3.455 -0.2765  0.4890 -0.3961
  979SOL    HW1 3836   6.303   1.097   3.462 -0.4476 -3.2036 -0.5266
  979SOL    HW2 3837   6.180   1.199   3.430  3.1125  1.5743 -0.0444
  980SOL     OW 3838   0.419   1.687   0.159  0.2195 -0.3996  0.0227
  980SOL    HW1 3839   0.350   1.752   0.190  2.2270  2.0744 -0.3158
  980SOL    HW2 3840   0.496   1.688   0.223  1.0154 -1.1909 -0.8918
  981SOL     OW 3841   6.540   4.727   2.917  0.3307 -0.3426 -0.1070
  981SOL    HW1 3842   6.462   4.674   2.948  0.6416  0.1167  1.5765
  981SOL    HW2 3843   6.511   4.820   2.894  0.3655 -0.1642  0.5445
  982SOL     OW 3844   4.369   0.386   4.250 -0.0821  0.5174 -0.2996
  982SOL    HW1 3845   4.277   0.352   4.269  0.2205 -0.4142 -0.4149
  982SOL    HW2 3846   4.372   0.485   4.264 -0.7042  0.3470  1.2906
  983SOL     OW 3847   4.382   5.162   3.595  0.6317  0.0090 -0.1463
  983SOL    HW1 3848   4.391   5.063   3.606  1.8499  0.0557 -0.5577
  983SOL    HW2 3849   4.428   5.208   3.671  0.1073  0.2661  0.0211
  984SOL     OW 3850   3.515   1.576   2.788  0.2272 -0.5771  0.0563
  984SOL    HW1 3851   3.614   1.582   2.798  0.2497  0.4104 -0.5953
  984SOL    HW2 3852   3.487   1.481   2.783  1.0832 -0.8785  0.7897
  985SOL     OW 3853   7.007   3.381   0.282 -0.0742  0.8697  1.2088
  985SOL    HW1 3854   7.092   3.392   0.229 -0.1247  0.5886  1.0637
  985SOL    HW2 3855   7.010   3.439   0.363  0.4558  0.5279  1.4437
  986SOL     OW 3856   2.059   2.134   2.536 -0.6030 -0.1112 -0.8210
  986SOL    HW1 3857   2.112   2.179   2.609  0.7223 -1.0910 -1.1509
  986SOL    HW2 3858   2.022   2.203   2.474 -0.4911  0.6441 -0.0640
  987SOL     OW 3859   6.663   1.227   1.493 -0.4728  0.0303 -0.3635
  987SOL    HW1 3860   6.620   1.273   1.570 -0.0733  1.1905 -0.8192
  987SOL    HW2 3861   6.600   1.158   1.456 -2.1910  2.0214 -1.3449
  988SOL     OW 3862   0.849   3.554   1.307  0.6469  0.6967  0.2569
  988SOL    HW1 3863   0.886   3.513   1.391  0.0496 -1.0650 -0.3029
  988SOL    HW2 3864   0.893   3.512   1.227 -1.4116 -0.4012 -0.3809
  989SOL     OW 3865   3.895   1.625   1.811 -0.6055 -0.3436  0.2400
  989SOL    HW1 3866   3.991   1.646   1.792 -1.0771 -0.3917 -2.6430
  989SOL    HW2 3867   3.837   1.697   1.773 -1.7495 -0.5225  1.5804
  990SOL     OW 3868   4.245   2.159   0.206 -0.7757  0.6884 -0.5677
  990SOL    HW1 3869   4.344   2.151   0.210 -0.9023 -0.5931  2.9951
  990SOL    HW2 3870   4.212   2.217   0.281 -2.8327 -1.0295 -0.0345
  991SOL     OW 3871   1.307   6.830   4.659 -0.7960 -0.5159  0.0469
  991SOL    HW1 3872   1.243   6.902   4.632  0.7145  1.3862  1.3227
  991SOL    HW2 3873   1.399   6.853   4.627 -0.3061 -2.0133  0.3024
  992SOL     OW 3874   5.996   1.125   3.959  0.3719 -0.8270  0.5714
  992SOL    HW1 3875   6.012   1.036   3.918 -0.4493  0.1842 -2.1209
  992SOL    HW2 3876   6.061   1.191   3.921 -0.7394  0.2615  0.5175
  993SOL     OW 3877   3.655   0.657   2.263  0.0105  0.0066  0.5068
  993SOL    HW1 3878   3.592   0.649   2.186 -2.3571 -1.0170  2.3818
  993SOL    HW2 3879   3.663   0.754   2.289 -1.9531  0.0921  1.0145
  994SOL     OW 3880   2.620   3.603   5.973 -0.1795 -0.0324 -0.0218
  994SOL    HW1 3881   2.697   3.664   5.995 -0.7270 -0.0457  2.0847
  994SOL    HW2 3882   2.639   3.556   5.886  1.1048  1.7044 -0.7468
  995SOL     OW 3883   6.263   0.744   0.476  0.4907 -0.3779 -0.1935
  995SOL    HW1 3884   6.285   0.714   0.569  0.3607 -0.0774 -0.0640
  995SOL    HW2 3885   6.291   0.674   0.411 -0.1153 -0.9299  0.1287
  996SOL     OW 3886   1.171   0.533   5.221 -0.1271 -0.0050  0.5101
  996SOL    HW1 3887   1.244   0.562   5.159  0.0334  0.9752  1.1349
  996SOL    HW2 3888   1.140   0.441   5.196 -0.3010  0.5022 -1.2318
  997SOL     OW 3889   6.720   2.868   5.968  0.0806  0.1108  0.8060
  997SOL    HW1 3890   6.720   2.967   5.957 -0.0320  0.0955  0.6797
  997SOL    HW2 3891   6.673   2.844   6.053  0.6809  0.2057  1.1695
  998SOL     OW 3892   4.821   0.407   1.675  0.0833 -0.4047  0.5115
  998SOL    HW1 3893   4.760   0.457   1.612  0.5761  1.4518  1.4278
  998SOL    HW2 3894   4.811   0.309   1.660 -2.2507 -0.1225 -0.1720
  999SOL     OW 3895   6.582   1.719   1.549  0.2013  0.0092  0.0141
  999SOL    HW1 3896   6.566   1.797   1.488  0.1419 -0.4862 -0.6198
  999SOL    HW2 3897   6.654   1.742   1.615  0.8330  0.2875 -0.7574
 1000SOL     OW 3898   6.635   4.079   6.918 -0.3993 -0.3556  0.4579
 1000SOL    HW1 3899   6.548   4.058   6.963 -0.3064  0.0776  0.8498
 1000SOL    HW2 3900   6.709   4.072   6.984 -0.2073 -0.1610  0.2650
 1001SOL     OW 3901   3.348   1.370   2.307  0.0039  0.2812  0.5505
 1001SOL    HW1 3902   3.305   1.445   2.357  0.6165  0.7926  0.3221
 1001SOL    HW2 3903   3.400   1.314   2.371 -0.6702 -0.1179  0.7655
 1002SOL     OW 3904   1.165   5.422   2.187  0.6382  0.1539  0.4772
 1002SOL    HW1 3905   1.067   5.431   2.202  0.4480 -0.8719 -0.0679
 1002SOL    HW2 3906   1.185   5.332   2.151  1.4248  1.3236 -2.2614
 1003SOL     OW 3907   4.810   0.858   6.776 -0.6841  0.3666 -0.0012
 1003SOL    HW1 3908   4.713   0.835   6.789 -0.3441 -0.4623  1.2882
 1003SOL    HW2 3909   4.823   0.895   6.684 -1.8279 -1.7916 -1.1368
 1004SOL     OW 3910   4.284   0.826   0.970 -0.2165 -0.4704  0.2797
 1004SOL    HW1 3911   4.280   0.752   0.902  1.8080  0.4700 -0.9738
 1004SOL    HW2 3912   4.210   0.891   0.955 -0.7036 -1.0891 -0.0138
 1005SOL     OW 3913   6.513   0.680   2.229 -0.1511  0.0489  0.6241
 1005SOL    HW1 3914   6.464   0.754   2.275  0.7805  1.2315 -0.2335
 1005SOL    HW2 3915   6.542   0.710   2.138  0.7883 -1.1697  0.4857
 1006SOL     OW 3916   5.711   2.989   0.413 -0.4156 -0.1494 -0.6970
 1006SOL    HW1 3917   5.703   3.070   0.354  1.2303 -0.9327 -2.1056
 1006SOL    HW2 3918   5.797   2.941   0.392  0.0493 -0.7117  2.1092
 1007SOL     OW 3919   0.930   6.831   3.684 -0.0212 -0.5578 -0.1344
 1007SOL    HW1 3920   1.015   6.884   3.677 -0.0338 -0.7904 -3.7252
 1007SOL    HW2 3921   0.953   6.738   3.713  0.3661  0.3534  2.8914
 1008SOL     OW 3922   4.465   1.429   1.754 -0.0782  0.2285 -0.1009
 1008SOL    HW1 3923   4.535   1.384   1.810  0.7080 -0.2873 -1.4590
 1008SOL    HW2 3924   4.458   1.525   1.781  1.0268  0.2413  0.1667
 1009SOL     OW 3925   3.939   6.775   6.472 -0.5372 -0.6959  0.5165
 1009SOL    HW1 3926   4.037   6.778   6.489 -0.7468 -1.6119  2.0171
 1009SOL    HW2 3927   3.902   6.689   6.506 -2.2680  0.6840  2.3649
 1010SOL     OW 3928   5.288   3.657   0.156 -0.2878 -0.6214 -0.4293
 1010SOL    HW1 3929   5.262   3.736   0.099 -0.0992 -0.2277  0.0228
 1010SOL    HW2 3930   5.218   3.643   0.227  0.9721  0.8267  1.1874
 1011SOL     OW 3931   6.284   5.621   4.433 -0.1365 -0.0239  0.1039
 1011SOL    HW1 3932   6.255   5.697   4.491 -0.0867  0.0194  0.0719
 1011SOL    HW2 3933   6.336   5.555   4.486  1.0384  0.6531 -0.1626
 1012SOL     OW 3934   0.429   5.360   4.639  0.5295 -0.4545 -0.3410
 1012SOL    HW1 3935   0.406   5.367   4.542  0.2640 -0.2266 -0.2635
 1012SOL    HW2 3936   0.357   5.311   4.687 -0.1434  0.8366  0.0169
 1013SOL     OW 3937   0.715   5.712   4.495 -0.2262 -0.7973  0.1587
 1013SOL    HW1 3938   0.683   5.675   4.407  0.8957 -0.8090 -0.2509
 1013SOL    HW2 3939   0.669   5.663   4.569  0.5300 -2.3914 -0.3861
 1014SOL     OW 3940   0.856   4.544   2.913 -0.8691 -0.0991 -0.1460
 1014SOL    HW1 3941   0.821   4.480   2.845 -0.3472 -1.4112  0.7700
 1014SOL    HW2 3942   0.865   4.497   3.001 -1.1490  1.4457  0.7387
 1015SOL     OW 3943   1.835   6.880   2.837 -0.2800  0.1998  0.3158
 1015SOL    HW1 3944   1.762   6.825   2.798  2.1138 -0.8815 -3.0371
 1015SOL    HW2 3945   1.846   6.964   2.783  0.6954  0.5458  1.0264
 1016SOL     OW 3946   6.120   2.145   5.328  0.4448 -0.0822  0.4389
 1016SOL    HW1 3947   6.135   2.238   5.294  0.5478 -0.3243 -0.2015
 1016SOL    HW2 3948   6.027   2.137   5.363  0.1315  0.0255 -0.3362
 1017SOL     OW 3949   3.578   1.459   5.659 -0.2020 -0.0498  0.0155
 1017SOL    HW1 3950   3.502   1.411   5.614  0.8269 -1.3644 -0.4044
 1017SOL    HW2 3951   3.559   1.466   5.757 -1.2325  0.3818 -0.2035
 1018SOL     OW 3952   1.410   6.420   5.982  0.3128 -0.0625  0.3513
 1018SOL    HW1 3953   1.317   6.442   6.014  0.8932  2.2837  0.6211
 1018SOL    HW2 3954   1.476   6.445   6.053  1.3574  1.5688 -1.1076
 1019SOL     OW 3955   5.682   4.627   2.016 -0.2735  0.1800  0.0588
 1019SOL    HW1 3956   5.699   4.594   1.923 -0.3731 -0.5423  0.2914
 1019SOL    HW2 3957   5.769   4.648   2.060 -0.2571  1.1000 -0.3992
 1020SOL     OW 3958   1.259   2.280   2.642  0.4744 -0.6601  0.5094
 1020SOL    HW1 3959   1.159   2.274   2.653  0.3913 -0.2952 -0.0292
 1020SOL    HW2 3960   1.294   2.353   2.700  0.0402  1.2371 -1.4909
 1021SOL     OW 3961   5.794   0.486   2.271 -0.5616  0.0950 -0.8076
 1021SOL    HW1 3962   5.699   0.505   2.247  0.0381  1.4584 -2.2755
 1021SOL    HW2 3963   5.809   0.505   2.368 -1.8500 -0.5251 -0.4578
 1022SOL     OW 3964   5.189   4.923   0.030 -0.9638  0.0848 -0.1468
 1022SOL    HW1 3965   5.198   4.826   0.055 -1.4895  0.5083  1.8839
 1022SOL    HW2 3966   5.269   4.973   0.062 -1.1605  0.4848 -0.2739
 1023SOL     OW 3967   4.881   3.780   6.449 -0.0225  0.4028  0.0720
 1023SOL    HW1 3968   4.826   3.740   6.376 -1.6485  0.0573  1.4326
 1023SOL    HW2 3969   4.835   3.767   6.537  2.2077  0.1718  1.2842
 1024SOL     OW 3970   5.036   0.830   3.103  0.1919  0.5028  0.5063
 1024SOL    HW1 3971   4.948   0.876   3.091  1.8785  3.5193 -1.5592
 1024SOL    HW2 3972   5.095   0.886   3.161  1.6831 -0.0883 -0.4023
 1025SOL     OW 3973   4.389   1.863   4.036 -0.6029 -0.8893 -0.3708
 1025SOL    HW1 3974   4.369   1.883   3.940 -1.2271  1.4556  0.2004
 1025SOL    HW2 3975   4.486   1.839   4.045 -0.5680 -1.2702 -1.5854
 1026SOL     OW 3976   6.050   1.116   4.773  0.4080 -0.3143  1.0028
 1026SOL    HW1 3977   6.012   1.047   4.835 -0.1034  0.1040  1.1587
 1026SOL    HW2 3978   6.048   1.205   4.818 -1.3266  0.2576 -0.1400
 1027SOL     OW 3979   0.781   3.790   1.593  0.4996  0.2441 -0.0402
 1027SOL    HW1 3980   0.734   3.816   1.677  1.5206  3.1744 -0.2648
 1027SOL    HW2 3981   0.725   3.812   1.514  0.1798 -1.0943 -0.2233
 1028SOL     OW 3982   2.304   3.447   0.057  0.4460  0.3617 -0.2046
 1028SOL    HW1 3983   2.323   3.506  -0.022  0.0262  1.6320  0.6143
 1028SOL    HW2 3984   2.341   3.489   0.140 -2.1915  0.8815  0.8176
 1029SOL     OW 3985   3.784   1.338   4.392  0.0254  0.2302 -0.4330
 1029SOL    HW1 3986   3.802   1.284   4.310  2.8889 -0.8605  0.7829
 1029SOL    HW2 3987   3.800   1.282   4.473 -1.1177  1.7395  0.9166
 1030SOL     OW 3988   5.931   2.836   1.610  0.1808  0.8594 -0.2157
 1030SOL    HW1 3989   5.959   2.931   1.627 -0.5079  0.9336  0.5695
 1030SOL    HW2 3990   5.849   2.816   1.662 -0.3388  0.1685 -1.2600
 1031SOL     OW 3991   3.707   2.934   4.117 -0.0500  0.2216 -0.0399
 1031SOL    HW1 3992   3.763   2.992   4.177 -0.6751  0.0192  0.7505
 1031SOL    HW2 3993   3.610   2.952   4.134 -0.2369  0.3814 -1.2206
 1032SOL     OW 3994   2.398   6.776   1.584  0.0888  0.0653 -0.3835
 1032SOL    HW1 3995   2.435   6.705   1.643  0.8273  0.4314 -0.4026
 1032SOL    HW2 3996   2.337   6.734   1.516  1.4986 -0.7247 -1.2150
 1033SOL     OW 3997   4.758   2.870   4.545  0.4860  0.0553 -0.1082
 1033SOL    HW1 3998   4.709   2.800   4.493 -1.7777  2.2544 -1.0831
 1033SOL    HW2 3999   4.721   2.874   4.638 -0.1856  0.7106 -0.3980
 1034SOL     OW 4000   6.796   4.442   0.546 -0.5713  0.0444 -0.2206
 1034SOL    HW1 4001   6.802   4.497   0.462 -1.0522  0.4934  0.0322
 1034SOL    HW2 4002   6.881   4.391   0.559  0.2128  1.3543 -0.0266
 1035SOL     OW 4003   2.204   1.292   6.197  0.0583 -0.1033 -0.4379
 1035SOL    HW1 4004   2.255   1.378   6.188  0.4663 -0.3448 -0.4699
 1035SOL    HW2 4005   2.246   1.236   6.268 -0.0452 -0.3880 -0.6004
 1036SOL     OW 4006   5.447   0.775   4.139 -0.0076  0.7683 -0.4352
 1036SOL    HW1 4007   5.389   0.709   4.090  0.9020 -0.8663  0.5841
 1036SOL    HW2 4008   5.512   0.816   4.075  1.8102 -2.0471 -0.5836
 1037SOL     OW 4009   1.718   6.915   4.429  0.1716  0.9742  0.2586
 1037SOL    HW1 4010   1.808   6.957   4.428  0.5164  0.3245  1.7853
 1037SOL    HW2 4011   1.680   6.915   4.336  1.5404  1.6366 -0.3263
 1038SOL     OW 4012   6.557   4.331   4.748  0.4268  0.6501  0.2116
 1038SOL    HW1 4013   6.588   4.410   4.801 -1.6355  1.2676  0.5853
 1038SOL    HW2 4014   6.479   4.358   4.691  1.5304 -0.4170 -1.9028
 1039SOL     OW 4015   2.309   5.757   2.451 -0.0638 -0.5673 -0.1014
 1039SOL    HW1 4016   2.310   5.855   2.469 -0.5028 -0.4533 -0.6774
 1039SOL    HW2 4017   2.300   5.707   2.537  1.8512 -0.1689  0.3741
 1040SOL     OW 4018   6.153   5.457   6.908  0.4253  0.2585 -0.4861
 1040SOL    HW1 4019   6.089   5.404   6.853 -0.4059  0.2521  0.4530
 1040SOL    HW2 4020   6.214   5.394   6.957  0.8057  0.2469 -0.9698
 1041SOL     OW 4021   6.883   4.178   6.405 -0.0590 -0.5374 -0.1366
 1041SOL    HW1 4022   6.868   4.104   6.339 -1.2157 -0.6294  0.2025
 1041SOL    HW2 4023   6.794   4.214   6.435  0.4356  2.2157 -1.6411
 1042SOL     OW 4024   2.363   4.182   6.078 -0.2006 -0.1110 -0.4623
 1042SOL    HW1 4025   2.426   4.218   6.146 -0.0939 -0.8865 -0.1411
 1042SOL    HW2 4026   2.414   4.146   6.000 -0.2711 -0.2909 -0.4255
 1043SOL     OW 4027   4.919   3.500   0.067 -0.2086  0.7119  0.1508
 1043SOL    HW1 4028   4.949   3.415   0.110 -1.0688 -0.1347 -0.8566
 1043SOL    HW2 4029   4.889   3.564   0.138  0.5441  0.2233  0.9328
 1044SOL     OW 4030   2.366   6.901   2.499 -0.7017 -0.0747  0.3345
 1044SOL    HW1 4031   2.462   6.874   2.500 -1.1004 -1.5715  0.3638
 1044SOL    HW2 4032   2.336   6.915   2.405 -0.2015  1.4432  0.3734
 1045SOL     OW 4033   4.535   4.360   6.732  0.2890 -0.6612 -0.5817
 1045SOL    HW1 4034   4.523   4.420   6.810  0.1129 -0.0441 -1.0750
 1045SOL    HW2 4035   4.621   4.310   6.740  0.5945 -0.0990 -0.3245
 1046SOL     OW 4036   2.048   2.392   6.362 -0.2155 -0.2649  0.2350
 1046SOL    HW1 4037   2.033   2.383   6.460  0.6672 -0.2272  0.3883
 1046SOL    HW2 4038   2.035   2.303   6.318 -0.7993 -0.2401  0.3598
 1047SOL     OW 4039   4.606   2.400   4.544  0.0902 -0.6812  0.8110
 1047SOL    HW1 4040   4.537   2.335   4.514  0.5939  0.1406 -2.4866
 1047SOL    HW2 4041   4.693   2.353   4.559  0.2410 -0.9552 -0.7502
 1048SOL     OW 4042   4.201   4.804   2.930  0.4199  0.3352 -0.5527
 1048SOL    HW1 4043   4.104   4.828   2.920 -0.2047 -2.0375 -0.8767
 1048SOL    HW2 4044   4.257   4.867   2.876 -0.7600  2.6303  0.7602
 1049SOL     OW 4045   5.001   5.127   4.596  0.1872  0.6814 -0.7393
 1049SOL    HW1 4046   4.949   5.157   4.515  1.2960  0.9807 -1.3680
 1049SOL    HW2 4047   5.030   5.207   4.648  0.1137  0.5260 -0.4616
 1050SOL     OW 4048   3.300   4.213   6.055  0.3838 -0.1292 -0.2704
 1050SOL    HW1 4049   3.336   4.155   6.128 -1.6899  0.1498  1.0724
 1050SOL    HW2 4050   3.361   4.290   6.040  0.8873 -0.2234  1.1418
 1051SOL     OW 4051   4.409   5.869   0.695  0.2981 -0.4261 -0.0846
 1051SOL    HW1 4052   4.369   5.782   0.668  0.7010 -0.4825 -0.5010
 1051SOL    HW2 4053   4.436   5.921   0.614 -2.1510  1.1619 -0.0116
 1052SOL     OW 4054   2.696   0.590   5.391  0.0526  0.2886 -0.1233
 1052SOL    HW1 4055   2.634   0.518   5.422  1.0648 -0.5552 -0.0024
 1052SOL    HW2 4056   2.722   0.647   5.469 -0.4936  0.5972 -0.1609
 1053SOL     OW 4057   5.106   1.523   5.290 -0.3354  0.7435 -0.5557
 1053SOL    HW1 4058   5.182   1.587   5.303 -1.9919  2.3683  2.1376
 1053SOL    HW2 4059   5.131   1.434   5.327  0.1809  1.3598  0.6396
 1054SOL     OW 4060   0.541   2.548   5.847 -0.1279  0.3085 -0.2941
 1054SOL    HW1 4061   0.633   2.521   5.874 -0.4820 -0.4222  0.2129
 1054SOL    HW2 4062   0.537   2.648   5.841  0.9157  0.3138 -1.1743
 1055SOL     OW 4063   6.045   3.248   4.090 -0.2233 -0.3670 -0.2733
 1055SOL    HW1 4064   5.953   3.275   4.119  0.2838  0.8245  0.2945
 1055SOL    HW2 4065   6.103   3.237   4.171 -0.2123 -2.5985 -0.5064
 1056SOL     OW 4066   2.066   4.282   5.300  0.1793  0.1690  0.2228
 1056SOL    HW1 4067   2.038   4.339   5.377  0.6390 -0.4467  0.8659
 1056SOL    HW2 4068   1.985   4.245   5.255 -0.0904  0.0890  0.7578
 1057SOL     OW 4069   4.024   5.100   4.902 -0.4975 -0.7956 -0.5207
 1057SOL    HW1 4070   3.945   5.161   4.903 -0.0887 -0.0923 -3.0009
 1057SOL    HW2 4071   3.995   5.009   4.870 -0.5767 -1.0374  0.2208
 1058SOL     OW 4072   5.011   0.830   5.297 -0.6504 -0.1989  0.2389
 1058SOL    HW1 4073   5.079   0.835   5.224  0.0596  0.2937  0.9161
 1058SOL    HW2 4074   5.026   0.747   5.351 -0.3999  0.0621  0.5699
 1059SOL     OW 4075   4.750   3.629   6.250  0.1474 -0.3712 -0.2153
 1059SOL    HW1 4076   4.652   3.610   6.255  0.2904 -0.8106  1.7830
 1059SOL    HW2 4077   4.789   3.584   6.169 -1.1189 -0.9523 -0.5257
 1060SOL     OW 4078   0.261   1.978   4.246  0.0207  1.0486  0.1387
 1060SOL    HW1 4079   0.325   2.039   4.293 -0.2415  0.9901  0.5827
 1060SOL    HW2 4080   0.169   1.991   4.284  0.4295 -1.8081  2.4735
 1061SOL     OW 4081   2.582   0.564   2.169 -0.5485  0.4501  0.2885
 1061SOL    HW1 4082   2.529   0.493   2.217  0.5677 -2.1591 -2.0880
 1061SOL    HW2 4083   2.521   0.615   2.107 -0.8493 -0.4425 -0.1626
 1062SOL     OW 4084   4.219   1.719   3.239  0.2905  0.5192 -0.6224
 1062SOL    HW1 4085   4.205   1.632   3.288  0.0773  0.7339 -0.2984
 1062SOL    HW2 4086   4.239   1.791   3.306  0.4243  0.7295 -0.8893
 1063SOL     OW 4087   5.545   2.401   3.596 -0.4496 -0.2730  0.1734
 1063SOL    HW1 4088   5.501   2.409   3.507 -1.6172 -0.8294  0.6786
 1063SOL    HW2 4089   5.644   2.399   3.584 -0.5722  0.1216 -1.0655
 1064SOL     OW 4090   5.999   6.344   3.082 -0.1373  0.4740 -0.4423
 1064SOL    HW1 4091   5.908   6.311   3.104  0.3162 -1.9430 -1.8614
 1064SOL    HW2 4092   6.009   6.438   3.114 -2.4487  0.1704  1.4111
 1065SOL     OW 4093   2.518   0.434   5.526  0.5658  0.4317 -0.0640
 1065SOL    HW1 4094   2.480   0.418   5.435  0.1778  1.4106 -0.0964
 1065SOL    HW2 4095   2.473   0.374   5.592  0.0395  0.5076 -0.3486
 1066SOL     OW 4096   1.341   0.050   1.710  0.7863  0.3138  0.4415
 1066SOL    HW1 4097   1.402   0.079   1.636 -0.8473  0.1657 -1.0236
 1066SOL    HW2 4098   1.391  -0.009   1.773  2.0760 -0.0610 -0.8676
 1067SOL     OW 4099   1.248   0.933   6.778  0.2453 -0.1928  0.1174
 1067SOL    HW1 4100   1.241   1.032   6.792  2.5503 -0.1222  1.3613
 1067SOL    HW2 4101   1.168   0.900   6.728 -2.2223  1.7555  2.5179
 1068SOL     OW 4102   0.019   5.368   5.204  0.5943  0.5249 -0.8064
 1068SOL    HW1 4103   0.102   5.321   5.235  0.6351  0.9418 -0.2725
 1068SOL    HW2 4104   0.041   5.464   5.184  0.3144  0.5483 -0.9938
 1069SOL     OW 4105   4.759   1.310   6.305 -0.6442 -0.5310  0.0815
 1069SOL    HW1 4106   4.775   1.317   6.403  0.3687 -0.6668 -0.0646
 1069SOL    HW2 4107   4.713   1.223   6.285 -0.8988 -0.4807  0.4299
 1070SOL     OW 4108   3.976   5.904   2.505  0.2745  0.5333  0.7494
 1070SOL    HW1 4109   3.940   5.817   2.540 -0.7205  0.9068  0.6932
 1070SOL    HW2 4110   3.932   5.926   2.418  2.9266 -0.5166 -0.9492
 1071SOL     OW 4111   4.842   6.644   6.608  0.4261  0.2601  0.1991
 1071SOL    HW1 4112   4.779   6.714   6.576  1.0530  0.7810  0.0867
 1071SOL    HW2 4113   4.812   6.609   6.697 -0.4611 -0.0796 -0.2217
 1072SOL     OW 4114   0.307   4.210   0.396 -0.0970  0.3644 -0.1024
 1072SOL    HW1 4115   0.265   4.178   0.481  0.2228 -2.0978 -0.8027
 1072SOL    HW2 4116   0.363   4.291   0.415 -0.0893 -0.0803  2.0264
 1073SOL     OW 4117   2.495   0.898   2.094  0.6385  0.5014  0.0582
 1073SOL    HW1 4118   2.469   0.944   2.179  0.4497 -1.1801  0.9498
 1073SOL    HW2 4119   2.421   0.905   2.028 -0.4443 -0.6928  1.1070
 1074SOL     OW 4120   5.094   3.208   5.877  0.0864  0.0627  0.1899
 1074SOL    HW1 4121   5.012   3.211   5.821  0.0974  0.9779  0.2023
 1074SOL    HW2 4122   5.146   3.125   5.857 -1.1264 -0.8295  0.6078
 1075SOL     OW 4123   2.652   0.045   0.280 -0.3425  0.1711  0.3610
 1075SOL    HW1 4124   2.723   0.076   0.217 -1.7923 -0.4571 -1.6872
 1075SOL    HW2 4125   2.678  -0.043   0.320  0.3479  0.3133  0.2307
 1076SOL     OW 4126   3.307   2.092   2.955 -0.6687  0.1669  0.1841
 1076SOL    HW1 4127   3.323   2.057   2.863 -0.7225 -0.1650  0.3001
 1076SOL    HW2 4128   3.211   2.118   2.964 -0.1821  2.4934 -0.6265
 1077SOL     OW 4129   3.753   1.451   3.569 -0.1415  0.4309 -0.1094
 1077SOL    HW1 4130   3.830   1.446   3.506  0.2569 -2.7434  0.4302
 1077SOL    HW2 4131   3.668   1.457   3.518  0.2377 -0.9564 -0.9486
 1078SOL     OW 4132   1.728   3.844   6.776  0.1144  0.4404  0.1615
 1078SOL    HW1 4133   1.653   3.795   6.731  1.5179 -0.4358 -1.3493
 1078SOL    HW2 4134   1.748   3.928   6.727 -0.0066  0.7862  0.6915
 1079SOL     OW 4135   1.908   2.351   3.801  0.6103 -0.1635  0.1377
 1079SOL    HW1 4136   1.973   2.304   3.861  2.8785  0.2845 -1.8398
 1079SOL    HW2 4137   1.868   2.285   3.737  0.6257 -0.0858  0.0482
 1080SOL     OW 4138   1.926   3.395   6.927 -0.6476  0.4350  0.2582
 1080SOL    HW1 4139   1.828   3.376   6.918 -0.5830  0.0569  0.3532
 1080SOL    HW2 4140   1.976   3.351   6.853 -0.1853 -2.1894  1.9875
 1081SOL     OW 4141   1.687   2.131   2.754 -0.2544  0.0835  1.1117
 1081SOL    HW1 4142   1.612   2.142   2.689  1.0903 -2.3252 -1.0320
 1081SOL    HW2 4143   1.673   2.048   2.807 -0.8669  1.5531  3.3743
 1082SOL     OW 4144   2.347   5.200   6.885  1.1890  0.1063  0.0137
 1082SOL    HW1 4145   2.255   5.210   6.849  1.6505  0.4062 -1.1279
 1082SOL    HW2 4146   2.347   5.133   6.960 -0.0366  0.5253  0.4118
 1083SOL     OW 4147   3.715   3.528   2.367 -0.6563 -0.3269 -0.2315
 1083SOL    HW1 4148   3.618   3.537   2.345 -0.3869  1.4090 -0.8966
 1083SOL    HW2 4149   3.765   3.605   2.328  0.5681  0.4195  2.5501
 1084SOL     OW 4150   3.136   0.069   3.603  0.1002 -0.2211  0.0015
 1084SOL    HW1 4151   3.105  -0.026   3.598 -1.9485  0.3114  1.2218
 1084SOL    HW2 4152   3.189   0.091   3.521  0.5638 -2.3676 -0.3349
 1085SOL     OW 4153   5.864   2.061   2.419 -0.0281 -0.3395 -0.0957
 1085SOL    HW1 4154   5.767   2.036   2.415  0.2587 -1.4445 -0.4743
 1085SOL    HW2 4155   5.914   2.014   2.347  0.3575  2.4363 -1.7762
 1086SOL     OW 4156   3.642   5.789   6.848  0.8437 -0.4992 -0.5419
 1086SOL    HW1 4157   3.687   5.736   6.777  2.1730 -2.0927  1.3696
 1086SOL    HW2 4158   3.569   5.734   6.889  0.1419  0.3677 -0.5904
 1087SOL     OW 4159   2.295   0.246   4.099 -0.1488  0.1155 -0.7282
 1087SOL    HW1 4160   2.196   0.258   4.096 -0.4226 -1.1567  1.4343
 1087SOL    HW2 4161   2.317   0.149   4.098  1.0813  0.3801 -0.8839
 1088SOL     OW 4162   5.042   1.120   2.052 -0.2897 -0.2280 -0.8218
 1088SOL    HW1 4163   5.079   1.128   2.145 -0.0159 -0.1390 -0.9413
 1088SOL    HW2 4164   4.974   1.046   2.051 -2.3164  1.5147  0.1050
 1089SOL     OW 4165   1.013   3.938   3.497  0.3203  0.8251 -0.4720
 1089SOL    HW1 4166   1.089   3.994   3.531  1.8279 -1.0422 -0.5779
 1089SOL    HW2 4167   0.987   3.872   3.567 -0.3067  0.5625 -0.9462
 1090SOL     OW 4168   3.445   5.065   6.842 -0.3350  0.2236  0.1064
 1090SOL    HW1 4169   3.430   4.981   6.895 -1.4873  0.5326  0.3114
 1090SOL    HW2 4170   3.407   5.054   6.751 -0.0799  0.3643 -0.0170
 1091SOL     OW 4171   2.568   1.012   3.170  0.1809  0.5783 -0.5873
 1091SOL    HW1 4172   2.469   1.001   3.180  0.1610 -0.2024 -1.5096
 1091SOL    HW2 4173   2.589   1.038   3.076  0.9467 -0.7503 -0.8118
 1092SOL     OW 4174   3.280   6.446   5.769 -0.3426  0.1737  0.1807
 1092SOL    HW1 4175   3.236   6.390   5.698  0.4494  0.6293 -0.7025
 1092SOL    HW2 4176   3.218   6.519   5.798 -0.5595  0.1797 -0.2845
 1093SOL     OW 4177   1.892   4.596   5.534  0.4785 -0.3195 -0.3791
 1093SOL    HW1 4178   1.936   4.660   5.597  2.7169 -0.6235 -1.5213
 1093SOL    HW2 4179   1.939   4.508   5.538 -1.0995 -1.2031 -0.5003
 1094SOL     OW 4180   6.121   2.291   2.256  0.4497 -0.1216  0.2836
 1094SOL    HW1 4181   6.136   2.195   2.277 -1.2240 -0.3068  0.7612
 1094SOL    HW2 4182   6.202   2.344   2.283  1.0128 -1.2642  0.8921
 1095SOL     OW 4183   6.741   5.338   0.586  0.4985 -0.0728 -0.3266
 1095SOL    HW1 4184   6.663   5.321   0.525  1.1998 -0.2615 -1.2009
 1095SOL    HW2 4185   6.741   5.271   0.660 -0.3153  0.0996 -0.1610
 1096SOL     OW 4186   2.920   6.419   0.784 -0.1414  0.3740 -0.5038
 1096SOL    HW1 4187   2.892   6.333   0.827 -0.7498  0.0906 -1.4328
 1096SOL    HW2 4188   2.871   6.495   0.826  1.3753  0.4578  1.2424
 1097SOL     OW 4189   5.967   2.838   4.921  0.1723  0.1205  0.3748
 1097SOL    HW1 4190   5.923   2.856   5.009  1.0871 -0.7901  1.0513
 1097SOL    HW2 4191   5.937   2.749   4.886  0.3221  0.1766  0.0949
 1098SOL     OW 4192   0.545   6.961   3.347  0.4245  0.5528  0.4598
 1098SOL    HW1 4193   0.468   7.022   3.364  0.5532  0.6150  0.8385
 1098SOL    HW2 4194   0.559   6.951   3.249  0.6010  1.3848  0.3904
 1099SOL     OW 4195   5.522   4.365   5.164  0.6820  0.3233 -0.4927
 1099SOL    HW1 4196   5.569   4.309   5.231 -0.7110 -0.2528  0.0310
 1099SOL    HW2 4197   5.581   4.380   5.085  1.6376 -0.5671  0.0420
 1100SOL     OW 4198   5.017   1.802   6.132 -0.4519 -0.2769 -0.0353
 1100SOL    HW1 4199   5.059   1.714   6.150  0.3880  0.3727  1.3288
 1100SOL    HW2 4200   4.929   1.808   6.180 -0.8405 -0.6138 -0.6894
 1101SOL     OW 4201   6.238   3.756   5.967  0.2572 -0.3650  0.4279
 1101SOL    HW1 4202   6.153   3.723   6.008 -0.1566  1.7463  1.4074
 1101SOL    HW2 4203   6.316   3.708   6.008 -0.3950 -2.4019 -0.5634
 1102SOL     OW 4204   2.788   0.283   3.906  0.3691 -0.0289  0.0978
 1102SOL    HW1 4205   2.701   0.276   3.955  0.1806 -0.1315 -0.2529
 1102SOL    HW2 4206   2.860   0.312   3.970 -0.2120  1.5843  0.0625
 1103SOL     OW 4207   3.558   1.500   4.346 -0.6314  0.0310  0.0020
 1103SOL    HW1 4208   3.503   1.476   4.266  2.2106  1.0041 -2.4027
 1103SOL    HW2 4209   3.613   1.421   4.373  0.3430  0.4432 -0.7206
 1104SOL     OW 4210   1.118   1.049   4.149  0.1024 -0.2395  0.6196
 1104SOL    HW1 4211   1.214   1.075   4.149  0.3074 -0.9479  1.4299
 1104SOL    HW2 4212   1.105   0.967   4.206 -0.9982 -0.0605  0.6559
 1105SOL     OW 4213   5.258   5.757   2.911  0.1881  0.2588  0.0696
 1105SOL    HW1 4214   5.290   5.842   2.870  1.2362  0.5500  1.4098
 1105SOL    HW2 4215   5.327   5.723   2.975  0.0433 -1.9179 -0.8555
 1106SOL     OW 4216   6.470   5.965   1.205 -0.1083 -0.1523 -0.4787
 1106SOL    HW1 4217   6.400   6.036   1.200 -0.1915 -0.3004 -1.5858
 1106SOL    HW2 4218   6.434   5.887   1.256  0.2199  0.8431  1.3527
 1107SOL     OW 4219   4.672   1.625   5.790 -0.2417 -0.1661  0.3698
 1107SOL    HW1 4220   4.762   1.585   5.773 -0.2689 -0.1213  0.1104
 1107SOL    HW2 4221   4.615   1.613   5.708 -0.3365  0.1671  0.3861
 1108SOL     OW 4222   6.787   4.998   5.692  0.5471  1.1006 -0.3119
 1108SOL    HW1 4223   6.786   5.058   5.613  0.2697  1.7694  0.1919
 1108SOL    HW2 4224   6.791   4.903   5.662  0.4512  1.3516 -1.1232
 1109SOL     OW 4225   0.631   4.315   0.234 -0.3922  0.6106  0.3428
 1109SOL    HW1 4226   0.675   4.402   0.254  0.4521 -0.2204  2.3423
 1109SOL    HW2 4227   0.639   4.254   0.313 -0.6990 -1.4015 -1.1011
 1110SOL     OW 4228   5.142   6.390   0.070 -0.4122 -0.3622  0.1404
 1110SOL    HW1 4229   5.231   6.345   0.073 -0.2117 -0.1709 -1.6681
 1110SOL    HW2 4230   5.122   6.431   0.159  1.4321 -0.1728  0.5115
 1111SOL     OW 4231   0.969   1.974   4.136 -0.0969  0.4359  0.2519
 1111SOL    HW1 4232   1.011   2.004   4.222  2.5717  1.4532 -1.2759
 1111SOL    HW2 4233   1.016   2.018   4.059 -1.6405 -1.3001 -1.8034
 1112SOL     OW 4234   5.424   6.491   1.388  0.1561  0.1402 -0.6948
 1112SOL    HW1 4235   5.404   6.589   1.378 -1.3674 -0.1021 -0.2784
 1112SOL    HW2 4236   5.443   6.471   1.484  2.1888  0.2927 -1.0228
 1113SOL     OW 4237   1.740   1.672   1.541  0.2620  0.4803 -0.2724
 1113SOL    HW1 4238   1.700   1.678   1.632 -1.0593 -0.5651 -0.7433
 1113SOL    HW2 4239   1.678   1.714   1.474  1.4901  1.7813 -0.6439
 1114SOL     OW 4240   4.123   6.592   5.059 -0.1251 -0.0574 -0.0354
 1114SOL    HW1 4241   4.203   6.571   5.115 -0.8192  0.2344  1.0915
 1114SOL    HW2 4242   4.151   6.602   4.963  1.2885  0.7354  0.4422
 1115SOL     OW 4243   4.014   6.924   6.852  0.4046 -0.2459 -0.1542
 1115SOL    HW1 4244   4.041   6.990   6.782 -1.3313  0.6461 -0.0342
 1115SOL    HW2 4245   3.922   6.891   6.833  1.0991 -2.4466 -0.0236
 1116SOL     OW 4246   6.301   3.548   6.585 -0.3103  0.1784 -0.1708
 1116SOL    HW1 4247   6.264   3.473   6.640 -1.5312 -0.0345 -1.2302
 1116SOL    HW2 4248   6.261   3.635   6.615 -0.8721  0.0784 -0.6055
 1117SOL     OW 4249   5.014   6.940   4.211 -0.4925  0.0633  0.2580
 1117SOL    HW1 4250   4.935   6.986   4.251  0.2409  1.9667 -0.3791
 1117SOL    HW2 4251   5.067   6.895   4.283 -0.5686  1.2651  1.0829
 1118SOL     OW 4252   3.371   4.747   0.968  0.3266 -0.2665 -0.0967
 1118SOL    HW1 4253   3.314   4.803   1.029  1.2893 -0.2304  0.7983
 1118SOL    HW2 4254   3.467   4.769   0.984  0.7009 -1.7594 -0.1477
 1119SOL     OW 4255   2.752   0.065   1.462  0.2156 -0.3255  0.8828
 1119SOL    HW1 4256   2.770  -0.029   1.491  2.3813  0.4635  2.4363
 1119SOL    HW2 4257   2.737   0.122   1.543 -0.5168  0.7909 -0.0018
 1120SOL     OW 4258   3.643   5.214   2.365  0.1245 -0.4113 -0.4013
 1120SOL    HW1 4259   3.594   5.195   2.450 -1.7459  2.4823 -0.6873
 1120SOL    HW2 4260   3.739   5.235   2.386 -0.2993  0.2395  1.0211
 1121SOL     OW 4261   0.619   1.745   1.417 -0.1381 -0.0278 -0.6562
 1121SOL    HW1 4262   0.573   1.717   1.501  0.6210 -1.1599 -0.5926
 1121SOL    HW2 4263   0.691   1.811   1.438  0.1437 -0.4166 -0.3981
 1122SOL     OW 4264   0.225   2.289   4.582  0.3785  0.2900 -0.8397
 1122SOL    HW1 4265   0.229   2.354   4.658  2.3329  0.3767 -0.9658
 1122SOL    HW2 4266   0.209   2.197   4.618 -1.2388  0.6488 -0.5655
 1123SOL     OW 4267   3.778   1.439   2.698  0.3415 -0.5360  0.3365
 1123SOL    HW1 4268   3.760   1.456   2.601 -2.4111  0.6799  0.9800
 1123SOL    HW2 4269   3.839   1.360   2.706  1.3890 -0.1289 -2.3734
 1124SOL     OW 4270   4.997   3.175   2.462 -0.8725  0.1508 -0.5013
 1124SOL    HW1 4271   4.938   3.111   2.412  0.2169 -0.6675 -0.7833
 1124SOL    HW2 4272   5.091   3.166   2.430 -0.6664  1.8492 -0.4648
 1125SOL     OW 4273   1.426   0.008   2.970  0.2184 -0.3583  0.6222
 1125SOL    HW1 4274   1.411   0.104   2.950  0.5225 -0.7483 -1.6488
 1125SOL    HW2 4275   1.341  -0.032   3.006  0.5384  1.0619  3.1744
 1126SOL     OW 4276   4.684   6.283   6.699 -0.1115  0.6178 -0.1453
 1126SOL    HW1 4277   4.693   6.212   6.768 -0.7494  0.8009  0.1380
 1126SOL    HW2 4278   4.700   6.373   6.741 -0.8286  0.7563 -0.1529
 1127SOL     OW 4279   6.766   3.369   3.765 -0.6800  0.1698 -0.3349
 1127SOL    HW1 4280   6.741   3.299   3.699 -2.0249  0.7632 -0.4717
 1127SOL    HW2 4281   6.684   3.404   3.811  0.1010  0.6747  0.7289
 1128SOL     OW 4282   4.291   0.056   1.656  0.3183  0.4456  0.3006
 1128SOL    HW1 4283   4.253  -0.013   1.718  1.3924 -1.3924 -0.9840
 1128SOL    HW2 4284   4.329   0.131   1.710 -1.3300  0.3112  1.7350
 1129SOL     OW 4285   6.215   6.602   2.520 -0.0896  0.2004  0.1902
 1129SOL    HW1 4286   6.149   6.552   2.464  0.7229 -0.0578 -0.5577
 1129SOL    HW2 4287   6.237   6.549   2.602  1.2761 -1.0145 -0.9238
 1130SOL     OW 4288   5.291   0.563   6.382  0.2538 -0.1216  0.2074
 1130SOL    HW1 4289   5.306   0.464   6.381 -1.0940 -0.3684  0.9029
 1130SOL    HW2 4290   5.355   0.608   6.320  1.3323 -1.3572  0.3828
 1131SOL     OW 4291   5.816   0.602   1.089  0.2524 -0.3240 -0.2149
 1131SOL    HW1 4292   5.893   0.538   1.087 -0.9490 -1.8345  0.1663
 1131SOL    HW2 4293   5.744   0.566   1.147 -0.8912  0.9042 -0.8202
 1132SOL     OW 4294   4.889   0.963   4.601  0.0247 -0.0958 -0.1424
 1132SOL    HW1 4295   4.856   1.033   4.664 -0.1576 -0.2031 -0.1179
 1132SOL    HW2 4296   4.969   0.997   4.553  0.1044  0.0245  0.0734
 1133SOL     OW 4297   1.783   6.863   1.765 -0.2060 -0.1079  0.0851
 1133SOL    HW1 4298   1.696   6.822   1.795  0.4859 -0.7266  1.3547
 1133SOL    HW2 4299   1.859   6.813   1.807  0.7230  1.3734  0.2425
 1134SOL     OW 4300   3.579   1.431   1.388  0.3846  0.6666 -0.3810
 1134SOL    HW1 4301   3.640   1.509   1.400  1.5733 -0.3278  0.2875
 1134SOL    HW2 4302   3.567   1.413   1.290  1.4271  0.6866 -0.5193
 1135SOL     OW 4303   4.922   5.294   1.054  0.0789 -0.3859  0.1419
 1135SOL    HW1 4304   5.006   5.288   1.108  0.1310 -0.3638  0.0623
 1135SOL    HW2 4305   4.943   5.322   0.961 -0.0246 -0.3032  0.1430
 1136SOL     OW 4306   2.819   1.261   5.198 -0.1393 -0.0870  0.2214
 1136SOL    HW1 4307   2.780   1.348   5.167  2.0811  1.8769  2.5468
 1136SOL    HW2 4308   2.770   1.231   5.279  1.7539  1.3814  2.0056
 1137SOL     OW 4309   2.417   6.200   0.205  0.5163 -0.5946 -0.0191
 1137SOL    HW1 4310   2.503   6.205   0.255  0.0241 -1.4546  0.9394
 1137SOL    HW2 4311   2.354   6.139   0.253 -1.0889  1.0077 -0.0193
 1138SOL     OW 4312   4.513   4.835   1.655  0.5253 -0.3508 -0.1237
 1138SOL    HW1 4313   4.472   4.812   1.743  2.1658 -1.4163  0.3878
 1138SOL    HW2 4314   4.460   4.792   1.582  0.6424 -1.6152  0.5178
 1139SOL     OW 4315   1.720   6.430   1.685  0.2253  0.2794 -0.5153
 1139SOL    HW1 4316   1.815   6.462   1.695 -0.0523  0.5268  1.9535
 1139SOL    HW2 4317   1.717   6.331   1.697  0.0886  0.3782  0.3364
 1140SOL     OW 4318   3.663   1.163   1.369  0.1017  0.1695 -0.6454
 1140SOL    HW1 4319   3.638   1.257   1.392  0.6242 -0.2440  1.8031
 1140SOL    HW2 4320   3.588   1.121   1.319 -2.1581  0.5025  2.2042
 1141SOL     OW 4321   0.269   0.966   0.006 -0.2463  0.0979 -0.4997
 1141SOL    HW1 4322   0.191   0.937   0.061 -2.2154  1.3029 -2.4673
 1141SOL    HW2 4323   0.247   0.956  -0.091  2.4230 -0.3447 -1.1392
 1142SOL     OW 4324   6.489   5.686   1.119  0.1452  0.0616 -0.2788
 1142SOL    HW1 4325   6.542   5.688   1.204 -1.1706 -2.2377  0.6941
 1142SOL    HW2 4326   6.473   5.780   1.088  1.0846  0.9597  1.7224
 1143SOL     OW 4327   6.691   2.834   0.431  0.5365 -0.2059  1.0299
 1143SOL    HW1 4328   6.678   2.928   0.462 -0.7982 -0.5109  1.4684
 1143SOL    HW2 4329   6.641   2.772   0.492 -0.3886 -1.0039 -0.4862
 1144SOL     OW 4330   5.057   0.508   1.643  0.6884 -0.7654  0.1606
 1144SOL    HW1 4331   4.962   0.478   1.653  0.9005 -1.2834  0.6726
 1144SOL    HW2 4332   5.112   0.432   1.608  0.7842 -0.2541 -0.8453
 1145SOL     OW 4333   6.159   0.320   0.091  0.4621  0.1910  0.6591
 1145SOL    HW1 4334   6.255   0.343   0.077  1.3778 -3.3890  0.0967
 1145SOL    HW2 4335   6.108   0.330   0.006  0.6416  0.7086  0.6100
 1146SOL     OW 4336   6.380   5.793   1.385  0.0699 -0.4034  0.0114
 1146SOL    HW1 4337   6.406   5.704   1.421  0.2880  0.4582  2.1203
 1146SOL    HW2 4338   6.334   5.846   1.456  1.2178  1.6894 -0.7111
 1147SOL     OW 4339   5.757   3.992   4.064  1.0822  0.4718 -0.2692
 1147SOL    HW1 4340   5.763   4.010   4.162  0.1722  1.6915 -0.4133
 1147SOL    HW2 4341   5.666   3.958   4.041  0.0754  3.4238 -1.1033
 1148SOL     OW 4342   0.228   3.795   4.814 -0.0070 -0.1816 -0.6171
 1148SOL    HW1 4343   0.260   3.725   4.751  0.8801 -1.2229  0.9267
 1148SOL    HW2 4344   0.296   3.809   4.886 -1.6996 -0.2651  1.0751
 1149SOL     OW 4345   6.149   6.383   6.137  0.3447  0.0379 -0.0647
 1149SOL    HW1 4346   6.230   6.360   6.082  0.5144  0.9035 -0.1930
 1149SOL    HW2 4347   6.178   6.415   6.227  0.1259 -0.1107  0.0572
 1150SOL     OW 4348   6.706   4.473   6.753 -0.2551  0.5313 -0.0101
 1150SOL    HW1 4349   6.675   4.556   6.707 -1.4100  0.4892  0.6596
 1150SOL    HW2 4350   6.641   4.399   6.735  1.1662 -0.4683 -1.2612
 1151SOL     OW 4351   4.516   6.850   5.121  0.7932 -0.0261  0.7501
 1151SOL    HW1 4352   4.455   6.871   5.045 -0.6797 -2.3430  1.2001
 1151SOL    HW2 4353   4.573   6.930   5.141 -2.3155  2.4328  0.5568
 1152SOL     OW 4354   6.937   6.149   4.008 -0.2545 -0.1082 -0.0609
 1152SOL    HW1 4355   6.908   6.060   4.043 -0.2038  0.6906  2.1449
 1152SOL    HW2 4356   6.912   6.221   4.073  0.6843  1.3917 -1.2741
 1153SOL     OW 4357   1.378   2.184   4.257  0.3967  0.0318  0.2447
 1153SOL    HW1 4358   1.434   2.102   4.263  0.4294  0.1118  1.3079
 1153SOL    HW2 4359   1.285   2.162   4.287 -0.2018 -0.1284 -1.6104
 1154SOL     OW 4360   6.769   1.691   1.784  0.2173 -0.4223 -0.6524
 1154SOL    HW1 4361   6.759   1.767   1.850 -0.9110 -1.8965  0.9664
 1154SOL    HW2 4362   6.865   1.684   1.756  0.7663  0.2049  0.9359
 1155SOL     OW 4363   5.510   0.941   4.783  0.4270  0.4418  0.2011
 1155SOL    HW1 4364   5.505   1.004   4.705  0.8439 -1.5365 -1.5429
 1155SOL    HW2 4365   5.518   0.847   4.748  0.6885 -0.5157  2.6770
 1156SOL     OW 4366   6.330   3.889   3.057 -0.1278  0.6352 -0.1267
 1156SOL    HW1 4367   6.362   3.804   3.100  0.8965  1.6026  1.0649
 1156SOL    HW2 4368   6.405   3.929   3.004 -1.2413 -0.3218 -2.5877
 1157SOL     OW 4369   6.700   5.655   0.862  0.1655  0.6520  0.3095
 1157SOL    HW1 4370   6.610   5.610   0.863  0.5500 -0.2507 -1.2678
 1157SOL    HW2 4371   6.688   5.752   0.841 -0.4263  0.4241 -0.4677
 1158SOL     OW 4372   3.165   4.383   6.780 -0.0818 -0.0791 -0.6507
 1158SOL    HW1 4373   3.228   4.309   6.802 -0.3346  0.2798  1.4720
 1158SOL    HW2 4374   3.214   4.455   6.730  0.8584 -0.4088 -0.2293
 1159SOL     OW 4375   6.271   1.883   4.099  0.2183 -0.3246 -0.1365
 1159SOL    HW1 4376   6.263   1.811   4.030  1.1197 -0.7711  0.2061
 1159SOL    HW2 4377   6.367   1.899   4.119  0.0336  1.0786 -0.2963
 1160SOL     OW 4378   3.995   2.779   1.702 -0.0009  0.2664  0.0131
 1160SOL    HW1 4379   4.016   2.848   1.771 -0.0464  1.8603 -1.4846
 1160SOL    HW2 4380   3.898   2.756   1.705 -0.0115  0.3661  0.4334
 1161SOL     OW 4381   6.494   3.682   0.084  0.5618 -0.4458 -0.0408
 1161SOL    HW1 4382   6.501   3.683   0.184 -0.5997  1.5521  0.0753
 1161SOL    HW2 4383   6.438   3.604   0.056 -1.1645  0.3170  1.0944
 1162SOL     OW 4384   0.467   0.470   0.108  0.3442 -0.1204 -0.0475
 1162SOL    HW1 4385   0.493   0.506   0.019 -2.4601 -0.7988 -1.2583
 1162SOL    HW2 4386   0.502   0.377   0.118 -0.1626 -0.4097 -0.8982
 1163SOL     OW 4387   4.117   4.330   0.240 -0.0803  0.5243  0.1417
 1163SOL    HW1 4388   4.126   4.313   0.141 -3.0500  1.2526 -0.3390
 1163SOL    HW2 4389   4.161   4.255   0.290 -1.5403 -1.8008 -1.7912
 1164SOL     OW 4390   5.238   0.875   6.469 -0.4036  0.5259 -0.3321
 1164SOL    HW1 4391   5.284   0.845   6.553  1.0560 -0.8901 -1.5702
 1164SOL    HW2 4392   5.139   0.875   6.484 -0.2455 -1.0277  0.9812
 1165SOL     OW 4393   3.907   4.688   1.066  0.2721 -0.2698 -0.1325
 1165SOL    HW1 4394   3.891   4.611   1.128 -0.2236  0.3863  0.5551
 1165SOL    HW2 4395   3.920   4.652   0.973  2.5509 -1.3939  0.5390
 1166SOL     OW 4396   3.486   3.773   0.658  0.0653  0.2713 -0.0243
 1166SOL    HW1 4397   3.478   3.723   0.744 -1.2029  0.4767 -0.0096
 1166SOL    HW2 4398   3.412   3.840   0.651  0.7219  0.9350 -0.8392
 1167SOL     OW 4399   3.697   3.137   6.588  0.5840  0.0111  0.0260
 1167SOL    HW1 4400   3.600   3.134   6.566  0.2034  1.0330  1.4014
 1167SOL    HW2 4401   3.737   3.046   6.576 -0.8359 -0.7436  0.6674
 1168SOL     OW 4402   0.097   3.808   4.249 -0.6909 -0.1552 -0.3602
 1168SOL    HW1 4403   0.009   3.761   4.258 -1.3261  0.8979 -0.9775
 1168SOL    HW2 4404   0.124   3.844   4.338 -0.0609 -1.8637  0.1913
 1169SOL     OW 4405   3.520   6.901   6.452  0.3951 -0.0973 -0.4095
 1169SOL    HW1 4406   3.449   6.842   6.490  0.9582 -0.6588 -0.2310
 1169SOL    HW2 4407   3.599   6.903   6.513  0.5758  0.4582 -0.6503
 1170SOL     OW 4408   4.617   0.054   3.558  1.1266  0.0112 -0.2806
 1170SOL    HW1 4409   4.584  -0.041   3.557  1.2190 -0.0229 -0.9496
 1170SOL    HW2 4410   4.644   0.080   3.465  3.3517 -0.0810  0.2980
 1171SOL     OW 4411   0.921   6.042   0.186  0.1901  0.2394 -0.0989
 1171SOL    HW1 4412   0.979   6.054   0.266 -0.0782  1.7927 -0.1138
 1171SOL    HW2 4413   0.883   6.130   0.159  0.6365 -0.1780 -2.2258
 1172SOL     OW 4414   4.961   3.657   4.603 -0.0258  0.1660 -0.2651
 1172SOL    HW1 4415   4.942   3.686   4.697 -0.6331 -0.6637 -0.1131
 1172SOL    HW2 4416   4.944   3.559   4.595  1.1004  0.0200 -0.9768
 1173SOL     OW 4417   3.625   3.958   1.717  0.0830 -0.0382 -0.2964
 1173SOL    HW1 4418   3.532   3.965   1.680  0.5640 -1.4446 -1.8926
 1173SOL    HW2 4419   3.668   4.048   1.716 -0.3263  0.1776 -2.1774
 1174SOL     OW 4420   3.709   2.074   2.287  0.6585  0.2151 -0.2267
 1174SOL    HW1 4421   3.716   1.974   2.281 -1.5424  0.0473 -0.7904
 1174SOL    HW2 4422   3.706   2.112   2.194  1.5930  0.8468 -0.0157
 1175SOL     OW 4423   0.642   1.004   3.097  0.5055  0.6455  0.4061
 1175SOL    HW1 4424   0.627   1.060   3.179 -0.7917  0.3679  0.3674
 1175SOL    HW2 4425   0.555   0.973   3.061  1.1683 -1.8907  0.7515
 1176SOL     OW 4426   5.568   4.465   4.299  0.3652 -0.7816 -0.0735
 1176SOL    HW1 4427   5.489   4.403   4.301  0.4427 -0.9491 -1.4598
 1176SOL    HW2 4428   5.536   4.559   4.284  0.4146 -0.8077 -0.3368
 1177SOL     OW 4429   4.888   5.941   4.908  0.6382  0.0468  0.2323
 1177SOL    HW1 4430   4.827   6.012   4.873 -1.7725 -2.3230 -0.8415
 1177SOL    HW2 4431   4.847   5.899   4.989  0.0671 -2.4691 -1.2601
 1178SOL     OW 4432   1.417   3.180   3.789  0.1461 -0.2594  0.1220
 1178SOL    HW1 4433   1.370   3.266   3.770 -0.2445 -0.1480  1.5096
 1178SOL    HW2 4434   1.437   3.133   3.703 -3.3204 -0.7644 -0.5366
 1179SOL     OW 4435   5.716   5.544   2.541 -0.0054 -0.1997  0.0896
 1179SOL    HW1 4436   5.802   5.532   2.590  0.1981  0.6481 -0.0488
 1179SOL    HW2 4437   5.691   5.458   2.497  1.7529  0.0218 -1.4592
 1180SOL     OW 4438   3.612   1.360   6.418 -0.4766 -0.0739 -0.1760
 1180SOL    HW1 4439   3.521   1.402   6.422 -0.5225  0.1880 -2.6187
 1180SOL    HW2 4440   3.677   1.426   6.380  0.3477 -0.8831 -0.1870
 1181SOL     OW 4441   4.770   6.945   5.652  0.0333  0.0805 -0.0617
 1181SOL    HW1 4442   4.715   6.923   5.733  0.4581  0.9730  0.4908
 1181SOL    HW2 4443   4.792   6.861   5.603  0.4885 -0.5864  1.2305
 1182SOL     OW 4444   4.126   5.950   6.184  0.4092  0.2808  0.4859
 1182SOL    HW1 4445   4.212   5.996   6.206  0.4270  0.3815  0.2013
 1182SOL    HW2 4446   4.089   5.987   6.099  1.0055 -1.0341 -0.3694
 1183SOL     OW 4447   3.559   2.106   3.103  0.1189  0.0049 -0.0983
 1183SOL    HW1 4448   3.486   2.122   3.037  0.4420 -0.4131 -0.5616
 1183SOL    HW2 4449   3.520   2.101   3.195 -0.9169 -3.1972 -0.5743
 1184SOL     OW 4450   5.823   5.024   4.791 -0.1961 -0.0648 -0.0127
 1184SOL    HW1 4451   5.864   5.063   4.873 -2.6352  0.9381  0.8198
 1184SOL    HW2 4452   5.870   5.059   4.710  1.8673 -0.6185  0.8906
 1185SOL     OW 4453   6.587   5.005   5.006  0.0374 -0.1107  0.1662
 1185SOL    HW1 4454   6.595   5.104   4.996  1.1087 -0.0709  1.1611
 1185SOL    HW2 4455   6.490   4.979   5.003 -0.2689  0.9848  0.0860
 1186SOL     OW 4456   4.244   5.492   6.705  0.2091  0.4501 -0.2427
 1186SOL    HW1 4457   4.276   5.401   6.732 -1.8979 -0.7722 -1.5413
 1186SOL    HW2 4458   4.320   5.546   6.670  1.4693 -0.8661  0.3835
 1187SOL     OW 4459   0.207   4.350   5.958 -0.2222 -0.1628  0.3677
 1187SOL    HW1 4460   0.193   4.429   6.017  1.0542 -0.4587  1.0986
 1187SOL    HW2 4461   0.207   4.266   6.012  3.6100 -0.2545  0.4683
 1188SOL     OW 4462   2.244   4.985   1.369  0.0929  0.2552  0.5277
 1188SOL    HW1 4463   2.310   4.925   1.413 -0.5650 -1.0811 -0.2312
 1188SOL    HW2 4464   2.152   4.962   1.400 -0.4254 -0.9514 -1.6669
 1189SOL     OW 4465   3.219   1.984   3.250  0.3546  0.0358  0.0480
 1189SOL    HW1 4466   3.255   2.043   3.178 -0.6505 -0.6176 -1.0379
 1189SOL    HW2 4467   3.280   1.985   3.328  0.5009  2.3004 -0.0339
 1190SOL     OW 4468   6.428   0.202   1.012 -0.3860  0.1947 -0.2943
 1190SOL    HW1 4469   6.520   0.186   0.978 -0.4283 -0.5511 -0.0769
 1190SOL    HW2 4470   6.411   0.143   1.091 -0.7364  0.9737  0.2327
 1191SOL     OW 4471   6.033   3.137   6.137 -0.3887  0.2722  0.2112
 1191SOL    HW1 4472   5.991   3.052   6.105 -0.2302  0.0157  0.6807
 1191SOL    HW2 4473   5.967   3.212   6.127 -0.6051  0.0541 -0.0053
 1192SOL     OW 4474   4.347   4.239   6.553  0.1833 -0.5913 -0.9803
 1192SOL    HW1 4475   4.380   4.290   6.632  0.7531  0.4529 -1.8696
 1192SOL    HW2 4476   4.248   4.230   6.558  0.2710 -1.1223  0.1756
 1193SOL     OW 4477   4.730   6.918   2.912  1.1928 -0.6531 -0.0250
 1193SOL    HW1 4478   4.711   6.887   2.819  2.2663  0.3545 -0.5990
 1193SOL    HW2 4479   4.717   7.017   2.918  0.5764 -0.7823  1.0529
 1194SOL     OW 4480   1.297   5.984   6.245  0.0202  0.1093  0.3245
 1194SOL    HW1 4481   1.265   5.970   6.338  1.5427  1.7332  1.1434
 1194SOL    HW2 4482   1.315   6.081   6.230  2.7322 -0.4487 -0.6307
 1195SOL     OW 4483   2.433   2.703   0.471  0.0953 -1.0823 -0.1387
 1195SOL    HW1 4484   2.401   2.719   0.564  0.5837  3.2832 -0.5085
 1195SOL    HW2 4485   2.356   2.709   0.407  0.1002 -1.7779 -0.2202
 1196SOL     OW 4486   1.275   2.263   3.502 -0.1654 -0.7787 -0.6142
 1196SOL    HW1 4487   1.314   2.242   3.592  1.3431  0.1710 -0.9996
 1196SOL    HW2 4488   1.238   2.180   3.461 -1.5468 -1.0941  1.1750
 1197SOL     OW 4489   6.646   2.310   2.896 -0.3331  0.4450 -0.6658
 1197SOL    HW1 4490   6.668   2.371   2.973 -3.5757  1.3971 -0.3310
 1197SOL    HW2 4491   6.578   2.354   2.838 -3.0512 -2.8654 -0.3053
 1198SOL     OW 4492   2.834   4.869   1.879 -0.2666  0.3223  0.4341
 1198SOL    HW1 4493   2.831   4.777   1.916  2.1350 -0.3489 -0.8608
 1198SOL    HW2 4494   2.885   4.929   1.942 -0.3924  0.3684  0.4929
 1199SOL     OW 4495   5.120   5.586   0.731 -0.0009 -0.7837 -0.7101
 1199SOL    HW1 4496   5.110   5.578   0.632  1.6040  0.7761 -1.0447
 1199SOL    HW2 4497   5.098   5.679   0.759  4.3776  0.3385 -0.3661
 1200SOL     OW 4498   2.773   4.407   1.338  0.2113  0.0264  0.1466
 1200SOL    HW1 4499   2.697   4.455   1.294 -0.7012 -0.1514  1.4535
 1200SOL    HW2 4500   2.850   4.469   1.350 -0.4309  0.7570  0.5281
 1201SOL     OW 4501   6.160   0.546   4.152  0.3006  0.7870  0.2525
 1201SOL    HW1 4502   6.204   0.500   4.229  0.7373  1.1709  0.2380
 1201SOL    HW2 4503   6.230   0.576   4.087 -0.0453  0.7340 -0.1433
 1202SOL     OW 4504   4.582   0.423   6.790  0.2571 -0.2203  0.4663
 1202SOL    HW1 4505   4.504   0.464   6.837 -0.0943  0.4749 -0.6837
 1202SOL    HW2 4506   4.659   0.487   6.793 -0.5980  1.0952 -2.2150
 1203SOL     OW 4507   1.856   0.373   2.245 -0.4683 -0.0870 -0.2135
 1203SOL    HW1 4508   1.902   0.432   2.179  2.4233 -0.5741  1.2088
 1203SOL    HW2 4509   1.851   0.418   2.333 -1.0538 -0.7797  0.1206
 1204SOL     OW 4510   6.353   2.926   6.922  0.1509 -0.1408 -0.6742
 1204SOL    HW1 4511   6.283   2.858   6.901 -0.6223  0.2521  0.5389
 1204SOL    HW2 4512   6.443   2.883   6.921 -0.2849 -1.0776 -0.3781
 1205SOL     OW 4513   1.133   0.603   0.770 -0.6950 -0.0598 -0.1471
 1205SOL    HW1 4514   1.144   0.507   0.796 -1.7372  0.1945  1.3503
 1205SOL    HW2 4515   1.071   0.609   0.693 -0.5667 -0.5900 -0.2983
 1206SOL     OW 4516   3.559   3.313   4.289  0.0386  0.1390  0.0338
 1206SOL    HW1 4517   3.531   3.288   4.382  1.9046 -0.0109  0.5934
 1206SOL    HW2 4518   3.557   3.412   4.279  1.0990  0.2344  0.6753
 1207SOL     OW 4519   2.856   6.377   6.547  0.0284  0.2720  0.1920
 1207SOL    HW1 4520   2.956   6.385   6.554  0.2650 -0.8114 -1.4150
 1207SOL    HW2 4521   2.829   6.283   6.567 -0.6209  0.4507  0.1641
 1208SOL     OW 4522   2.104   5.544   5.229 -0.5304  0.2967  0.0408
 1208SOL    HW1 4523   2.007   5.535   5.204 -1.2151  2.2417  1.6586
 1208SOL    HW2 4524   2.161   5.506   5.156 -2.4893 -1.9630 -0.4645
 1209SOL     OW 4525   6.224   1.063   0.514  0.5078  0.3427 -0.4907
 1209SOL    HW1 4526   6.228   1.028   0.607  1.9443  1.2910 -0.1629
 1209SOL    HW2 4527   6.163   1.006   0.459  0.2232 -0.6646  0.8308
 1210SOL     OW 4528   0.259   1.606   3.658  0.1038 -0.2982 -0.0621
 1210SOL    HW1 4529   0.274   1.552   3.741 -0.2818  1.1066  0.9458
 1210SOL    HW2 4530   0.337   1.593   3.596  1.5000  0.3877  1.4968
 1211SOL     OW 4531   6.743   0.271   4.319  0.0680 -0.0036  0.0419
 1211SOL    HW1 4532   6.744   0.250   4.221  2.4571  1.1170 -0.2274
 1211SOL    HW2 4533   6.778   0.363   4.335  2.1708 -1.0332  2.0854
 1212SOL     OW 4534   2.047   2.484   6.106 -0.1558 -0.2104  0.2744
 1212SOL    HW1 4535   2.006   2.570   6.074  3.1327  0.7225 -1.8800
 1212SOL    HW2 4536   2.046   2.482   6.206  2.2078  3.8166  0.5935
 1213SOL     OW 4537   5.738   4.490   1.786  0.4514 -0.8394  0.2740
 1213SOL    HW1 4538   5.656   4.435   1.772 -0.4890  0.7290 -0.8298
 1213SOL    HW2 4539   5.789   4.496   1.700  1.0291 -0.7440  0.6196
 1214SOL     OW 4540   5.481   1.376   0.703  0.2751  0.1809 -0.3340
 1214SOL    HW1 4541   5.450   1.449   0.764  0.3711 -0.3103  0.3147
 1214SOL    HW2 4542   5.500   1.294   0.757 -0.1024 -0.4108 -1.0833
 1215SOL     OW 4543   5.197   3.493   4.612 -0.4120  0.2494  0.2756
 1215SOL    HW1 4544   5.199   3.438   4.529  0.0132  0.0419  0.4188
 1215SOL    HW2 4545   5.129   3.566   4.602  0.1334  0.6562 -0.5231
 1216SOL     OW 4546   2.269   4.988   6.678 -0.5525 -0.3135  0.8033
 1216SOL    HW1 4547   2.364   4.977   6.705  0.0859  1.0103 -0.7172
 1216SOL    HW2 4548   2.214   4.912   6.714  1.1799 -1.4379  1.1681
 1217SOL     OW 4549   4.313   6.852   3.021 -0.1265 -0.1180  0.2663
 1217SOL    HW1 4550   4.336   6.900   2.936 -1.0040 -1.4740 -0.7909
 1217SOL    HW2 4551   4.273   6.763   2.999  1.0355 -1.1660  2.1467
 1218SOL     OW 4552   1.888   2.791   6.386  0.0317  0.2868  0.9842
 1218SOL    HW1 4553   1.916   2.826   6.297 -0.3601 -0.2764  0.6292
 1218SOL    HW2 4554   1.794   2.822   6.406 -0.2926 -0.4834  0.6981
 1219SOL     OW 4555   2.186   3.252   1.086 -0.1409  0.1493  0.2164
 1219SOL    HW1 4556   2.254   3.245   1.160  0.0493  0.4911  0.0751
 1219SOL    HW2 4557   2.108   3.192   1.107  0.6304 -1.0030 -0.0837
 1220SOL     OW 4558   4.361   4.450   1.513 -0.8145  0.2332 -0.0019
 1220SOL    HW1 4559   4.348   4.457   1.612 -1.0603  1.7954 -0.1059
 1220SOL    HW2 4560   4.307   4.374   1.478  1.0594 -1.8347  1.3172
 1221SOL     OW 4561   1.026   0.292   6.969  0.2105 -0.0069 -0.4047
 1221SOL    HW1 4562   1.037   0.378   6.919  0.2118 -0.2083 -0.7556
 1221SOL    HW2 4563   0.960   0.235   6.921  0.3477 -0.2765 -0.2726
 1222SOL     OW 4564   1.852   2.157   5.504 -0.6520 -0.1755  0.1337
 1222SOL    HW1 4565   1.904   2.072   5.505 -0.3923 -0.0072  0.7365
 1222SOL    HW2 4566   1.848   2.192   5.410  0.7240  0.0653  0.1454
 1223SOL     OW 4567   4.888   3.209   1.965  0.1267 -0.1577  0.6989
 1223SOL    HW1 4568   4.833   3.132   1.997 -2.2038  0.3707 -1.7095
 1223SOL    HW2 4569   4.927   3.186   1.876  2.5988  0.1048  1.6399
 1224SOL     OW 4570   4.708   0.945   3.679 -0.6144  0.3738  0.5244
 1224SOL    HW1 4571   4.634   1.001   3.642 -0.1333  0.9981  0.4907
 1224SOL    HW2 4572   4.796   0.983   3.651 -0.2436  0.5610  1.8555
 1225SOL     OW 4573   0.430   2.736   0.349 -0.1513 -0.1614  0.0884
 1225SOL    HW1 4574   0.509   2.675   0.357 -0.8910 -1.1050  0.4357
 1225SOL    HW2 4575   0.375   2.730   0.433 -0.0844  1.2301  0.2564
 1226SOL     OW 4576   5.681   3.298   6.510 -0.5261  0.7218  0.6628
 1226SOL    HW1 4577   5.604   3.275   6.570 -0.2812 -2.3646 -0.0495
 1226SOL    HW2 4578   5.767   3.280   6.557 -0.2481  1.6632  0.5448
 1227SOL     OW 4579   5.579   2.202   1.388 -0.0054 -0.7692  0.1086
 1227SOL    HW1 4580   5.496   2.193   1.333 -0.9334 -1.7062  1.5958
 1227SOL    HW2 4581   5.592   2.298   1.413 -1.0770 -0.7049  0.4735
 1228SOL     OW 4582   4.801   6.817   4.748 -0.4373  1.2117 -0.0990
 1228SOL    HW1 4583   4.748   6.756   4.807 -0.4612  2.3827  1.1556
 1228SOL    HW2 4584   4.740   6.865   4.685 -0.2845 -0.9787 -2.0689
 1229SOL     OW 4585   0.088   6.469   2.282 -0.7544 -0.2842 -0.0638
 1229SOL    HW1 4586   0.129   6.552   2.244 -0.2653  0.5982  2.2217
 1229SOL    HW2 4587   0.155   6.395   2.279 -0.6256 -0.1467 -0.6382
 1230SOL     OW 4588   0.552   0.316   3.794 -0.6010 -0.2524 -0.2229
 1230SOL    HW1 4589   0.500   0.233   3.771  0.9924 -1.8679  1.5934
 1230SOL    HW2 4590   0.630   0.325   3.732 -0.2294 -0.6982  0.1654
 1231SOL     OW 4591   5.943   4.184   1.876  0.0706 -0.1896  0.4037
 1231SOL    HW1 4592   5.849   4.157   1.855 -0.3592  0.3722  1.5205
 1231SOL    HW2 4593   5.942   4.265   1.934  1.1958 -1.0247  1.6512
 1232SOL     OW 4594   6.186   5.194   1.904  0.3811 -0.7415  0.6912
 1232SOL    HW1 4595   6.100   5.147   1.883 -0.0651  0.4085 -0.1286
 1232SOL    HW2 4596   6.260   5.126   1.909 -0.5386 -1.7326  1.3489
 1233SOL     OW 4597   0.358   2.725   1.769  0.6509  0.5487  0.6673
 1233SOL    HW1 4598   0.453   2.753   1.759  1.1577 -0.7817  1.4609
 1233SOL    HW2 4599   0.301   2.777   1.706  2.1776 -0.0069 -1.2600
 1234SOL     OW 4600   1.921   0.566   1.544 -0.7743  0.1304  0.3634
 1234SOL    HW1 4601   1.993   0.516   1.495  0.4309 -0.1497  2.3033
 1234SOL    HW2 4602   1.856   0.500   1.582 -1.2996  0.3063 -0.2040
 1235SOL     OW 4603   0.233   4.523   1.265 -0.5590 -0.0862 -0.3535
 1235SOL    HW1 4604   0.326   4.516   1.302 -0.8479 -1.5191  0.1563
 1235SOL    HW2 4605   0.224   4.464   1.185 -0.6017  1.2687 -1.3905
 1236SOL     OW 4606   3.474   2.859   2.923  0.5490 -0.2612  0.0399
 1236SOL    HW1 4607   3.377   2.861   2.899  0.6097 -0.6212 -0.2354
 1236SOL    HW2 4608   3.496   2.940   2.978  0.4481  0.7000 -1.2785
 1237SOL     OW 4609   3.609   3.043   4.548 -0.6031  0.4233  0.1092
 1237SOL    HW1 4610   3.684   3.057   4.483 -0.5089 -1.1586 -0.1610
 1237SOL    HW2 4611   3.530   3.096   4.519 -0.5177 -0.1449 -1.2356
 1238SOL     OW 4612   4.087   5.388   0.501 -0.1463 -0.3916  0.2469
 1238SOL    HW1 4613   4.166   5.425   0.551  0.6972  1.0615 -2.0080
 1238SOL    HW2 4614   4.004   5.435   0.529  0.6049  1.8084 -1.0181
 1239SOL     OW 4615   1.957   5.274   0.235 -0.1171 -0.2159 -0.2062
 1239SOL    HW1 4616   2.057   5.274   0.234 -0.0709  1.7492 -0.5831
 1239SOL    HW2 4617   1.923   5.294   0.142 -0.7610  1.6071  0.3699
 1240SOL     OW 4618   0.067   3.775   6.323 -0.0810  0.1293  0.1798
 1240SOL    HW1 4619   0.036   3.688   6.362 -0.7471 -0.1080 -0.8342
 1240SOL    HW2 4620   0.020   3.851   6.368 -0.9346 -0.1467 -0.2229
 1241SOL     OW 4621   1.850   4.177   5.160 -0.0579 -0.1993 -0.4240
 1241SOL    HW1 4622   1.794   4.211   5.085  0.5266 -0.7900 -1.1299
 1241SOL    HW2 4623   1.880   4.084   5.142  1.1622  0.1001 -0.0705
 1242SOL     OW 4624   1.945   5.261   4.987 -0.2000 -0.0949  0.0853
 1242SOL    HW1 4625   1.851   5.241   4.958 -0.3239  0.7438 -0.1005
 1242SOL    HW2 4626   1.984   5.179   5.031 -2.2084  0.5039  3.3271
 1243SOL     OW 4627   4.929   3.511   3.771  0.1157  0.1059  0.1703
 1243SOL    HW1 4628   4.862   3.456   3.820  0.6576  0.0122  0.8235
 1243SOL    HW2 4629   4.940   3.599   3.818 -1.7422  1.3788 -1.6080
 1244SOL     OW 4630   0.513   5.960   4.377 -0.4317 -0.0704 -0.1159
 1244SOL    HW1 4631   0.570   5.899   4.323  1.1699 -0.6179  2.0334
 1244SOL    HW2 4632   0.568   6.036   4.412 -1.2610  0.0313  1.0530
 1245SOL     OW 4633   3.223   5.200   3.974 -0.2688  0.5674 -0.6381
 1245SOL    HW1 4634   3.254   5.249   3.893  0.2346  1.2769 -0.0346
 1245SOL    HW2 4635   3.288   5.215   4.049 -1.6528  1.4612  0.4336
 1246SOL     OW 4636   1.869   6.490   1.002  0.2184  0.1130 -0.3345
 1246SOL    HW1 4637   1.823   6.486   1.091  0.2817  0.7399 -0.2676
 1246SOL    HW2 4638   1.868   6.584   0.969 -0.2481 -0.1956 -1.2360
 1247SOL     OW 4639   6.019   6.794   2.524 -0.5924 -0.6179 -0.1556
 1247SOL    HW1 4640   5.996   6.791   2.621 -0.0155  1.8563  0.1299
 1247SOL    HW2 4641   6.099   6.737   2.507  0.8361  0.8236  1.3497
 1248SOL     OW 4642   0.504   1.804   2.177 -0.1956 -0.1613  0.3271
 1248SOL    HW1 4643   0.580   1.869   2.165 -1.8836  1.6437 -1.2632
 1248SOL    HW2 4644   0.465   1.816   2.269 -0.3615  1.0003  0.1260
 1249SOL     OW 4645   1.672   5.321   6.566 -0.0726  0.2633  0.1109
 1249SOL    HW1 4646   1.724   5.399   6.602  2.2140 -1.6059  1.1216
 1249SOL    HW2 4647   1.724   5.278   6.493 -1.4506 -0.1844 -0.6387
 1250SOL     OW 4648   6.276   0.246   4.435  0.3652  0.0649 -0.7782
 1250SOL    HW1 4649   6.213   0.237   4.512  0.5416 -1.1061 -0.7456
 1250SOL    HW2 4650   6.298   0.342   4.421 -0.4102  0.3776  0.0276
 1251SOL     OW 4651   2.210   4.100   1.997 -0.5987  0.3299 -0.2868
 1251SOL    HW1 4652   2.204   4.173   2.064 -1.2288  2.2389 -2.3177
 1251SOL    HW2 4653   2.169   4.130   1.910 -0.0438 -2.1038 -1.4842
 1252SOL     OW 4654   2.985   2.580   0.807  0.4986  0.6447  0.0412
 1252SOL    HW1 4655   3.025   2.492   0.835  1.0701 -0.0107 -2.5385
 1252SOL    HW2 4656   2.887   2.568   0.791  0.7928  0.0360 -1.5938
 1253SOL     OW 4657   0.987   6.717   2.461  0.7262 -0.1095 -0.2517
 1253SOL    HW1 4658   1.074   6.669   2.471  0.2989 -1.1236 -1.2263
 1253SOL    HW2 4659   1.004   6.815   2.454  1.7477 -0.2559  0.0698
 1254SOL     OW 4660   3.959   3.913   6.355 -0.3316 -1.3603  0.1652
 1254SOL    HW1 4661   4.041   3.889   6.303 -1.0767  1.7820 -2.8385
 1254SOL    HW2 4662   3.891   3.840   6.343 -0.2198 -1.1178 -2.8960
 1255SOL     OW 4663   4.238   0.015   6.599 -0.1503  0.0933  0.0002
 1255SOL    HW1 4664   4.283   0.043   6.514 -3.2725 -0.1020 -1.8631
 1255SOL    HW2 4665   4.158   0.073   6.615 -1.1860 -1.6122  1.3590
 1256SOL     OW 4666   4.349   6.554   4.349 -0.0835 -0.0617 -0.0294
 1256SOL    HW1 4667   4.364   6.553   4.447  1.2559  0.4253 -0.2084
 1256SOL    HW2 4668   4.340   6.649   4.317 -0.3381 -0.2054 -0.3989
 1257SOL     OW 4669   4.210   0.098   4.937  0.1913  0.5891  0.2316
 1257SOL    HW1 4670   4.272   0.166   4.897 -0.1728  0.4979 -0.5155
 1257SOL    HW2 4671   4.172   0.041   4.864 -0.1601  0.1280  0.7659
 1258SOL     OW 4672   0.992   2.531   0.277  0.3821  0.0502  0.0351
 1258SOL    HW1 4673   1.043   2.566   0.356  0.0864  2.3063 -0.7188
 1258SOL    HW2 4674   0.976   2.605   0.212 -2.0471 -1.0619 -0.7304
 1259SOL     OW 4675   5.471   4.320   1.002 -0.0979  0.6073 -0.0746
 1259SOL    HW1 4676   5.497   4.269   1.084  0.8534  0.8876 -0.1964
 1259SOL    HW2 4677   5.453   4.256   0.927 -1.8529  0.2920  0.5691
 1260SOL     OW 4678   6.912   1.700   3.095 -0.2778 -0.4674 -0.4584
 1260SOL    HW1 4679   6.847   1.638   3.050 -0.1341 -0.4364 -0.7084
 1260SOL    HW2 4680   6.980   1.731   3.029  0.2293 -0.8097 -0.1039
 1261SOL     OW 4681   6.835   5.472   2.830 -0.3426  0.7533 -0.6049
 1261SOL    HW1 4682   6.900   5.487   2.904 -1.3425 -0.9760  0.6932
 1261SOL    HW2 4683   6.863   5.391   2.777 -1.8875 -0.6387  0.5984
 1262SOL     OW 4684   1.670   3.409   1.250  0.0261  0.1584  0.3162
 1262SOL    HW1 4685   1.616   3.470   1.192 -0.0388  0.3690  0.5962
 1262SOL    HW2 4686   1.767   3.425   1.234  0.0073 -0.0434 -0.0035
 1263SOL     OW 4687   0.706   6.561   4.052 -0.6238 -0.3068  0.1622
 1263SOL    HW1 4688   0.728   6.503   3.973 -1.5094  1.5944 -1.5556
 1263SOL    HW2 4689   0.675   6.650   4.021  0.3224  1.0280  2.7165
 1264SOL     OW 4690   6.429   5.557   0.844 -0.0397  0.5164 -0.0761
 1264SOL    HW1 4691   6.404   5.605   0.928 -0.6232  0.0930  0.0032
 1264SOL    HW2 4692   6.399   5.462   0.850 -0.5129  0.5941 -0.9439
 1265SOL     OW 4693   4.928   3.834   3.515 -0.5486 -0.4128 -0.7145
 1265SOL    HW1 4694   4.852   3.851   3.453 -0.4828 -0.2988 -0.7629
 1265SOL    HW2 4695   4.970   3.746   3.493 -0.8991 -0.6511 -0.4512
 1266SOL     OW 4696   2.939   2.829   6.056  0.1047  0.1917  0.2195
 1266SOL    HW1 4697   2.918   2.778   6.139  1.4574  2.3115  1.9700
 1266SOL    HW2 4698   2.988   2.770   5.992  1.9169 -0.6516  2.2791
 1267SOL     OW 4699   5.828   3.369   0.787  0.6107 -0.0890 -0.0654
 1267SOL    HW1 4700   5.814   3.281   0.743  0.7884 -0.2595  0.2136
 1267SOL    HW2 4701   5.848   3.439   0.718 -2.5632  0.3927 -0.6183
 1268SOL     OW 4702   6.723   6.705   0.366 -0.4445  0.3328  0.5909
 1268SOL    HW1 4703   6.624   6.691   0.372 -0.1731 -1.6775  1.2709
 1268SOL    HW2 4704   6.756   6.674   0.277 -0.1655 -1.1681  1.1858
 1269SOL     OW 4705   0.096   4.800   4.725 -0.3916  0.3304  0.6196
 1269SOL    HW1 4706   0.111   4.729   4.657 -3.2227  0.9016 -0.7749
 1269SOL    HW2 4707   0.181   4.820   4.773  1.4722 -0.8955 -1.9742
 1270SOL     OW 4708   1.471   6.675   6.203  0.6625  0.2264 -0.2257
 1270SOL    HW1 4709   1.479   6.576   6.219 -1.1581  0.0017 -0.4580
 1270SOL    HW2 4710   1.475   6.692   6.105  3.0257  0.6384 -0.0970
 1271SOL     OW 4711   6.040   0.544   0.524  0.0012  0.0451 -0.9059
 1271SOL    HW1 4712   6.105   0.615   0.551 -0.6850  0.8131 -1.2494
 1271SOL    HW2 4713   6.015   0.556   0.428  0.7917 -1.3928 -1.3174
 1272SOL     OW 4714   6.996   3.940   0.645 -0.0592  0.1142 -0.4969
 1272SOL    HW1 4715   6.981   4.005   0.570 -0.4310  0.6864  0.0691
 1272SOL    HW2 4716   6.966   3.981   0.731  0.1810 -0.6180 -0.0613
 1273SOL     OW 4717   0.796   1.949   1.567 -0.8909 -0.1499 -0.0092
 1273SOL    HW1 4718   0.777   2.042   1.534 -0.2800  0.0779  0.2507
 1273SOL    HW2 4719   0.783   1.946   1.666 -0.2092 -0.1463  0.0872
 1274SOL     OW 4720   1.681   1.173   1.282  0.1889 -0.2124  0.0203
 1274SOL    HW1 4721   1.704   1.257   1.234 -3.4734  0.8752 -0.1931
 1274SOL    HW2 4722   1.676   1.190   1.380  1.7512 -0.8525  0.2336
 1275SOL     OW 4723   3.171   6.855   6.329 -0.2537 -0.1095  0.5426
 1275SOL    HW1 4724   3.226   6.849   6.245 -0.2140 -2.3462  0.6678
 1275SOL    HW2 4725   3.075   6.868   6.305 -0.2448 -0.7622  0.1406
 1276SOL     OW 4726   3.974   4.829   3.427 -0.0434 -0.5273  0.2233
 1276SOL    HW1 4727   4.043   4.779   3.374  0.9631  0.0694  0.9444
 1276SOL    HW2 4728   3.987   4.809   3.524 -1.3200 -0.9222  0.3287
 1277SOL     OW 4729   4.491   2.459   0.256  0.7968 -0.4536  0.6183
 1277SOL    HW1 4730   4.486   2.396   0.179  1.8741  3.0017 -2.5653
 1277SOL    HW2 4731   4.399   2.476   0.291  0.1287 -1.2639 -0.6650
 1278SOL     OW 4732   4.447   3.123   6.361  0.3531 -0.2250  0.1778
 1278SOL    HW1 4733   4.376   3.175   6.409  0.2784  0.7447 -0.9418
 1278SOL    HW2 4734   4.537   3.157   6.388  0.3338 -0.0981  0.0784
 1279SOL     OW 4735   4.988   0.941   2.772 -0.4306 -0.2272 -0.5251
 1279SOL    HW1 4736   4.900   0.981   2.745 -0.5324  0.5670  0.8909
 1279SOL    HW2 4737   5.023   0.990   2.852  0.3363 -1.8241  0.1524
 1280SOL     OW 4738   3.866   4.911   2.075 -0.4035  0.7513  0.1484
 1280SOL    HW1 4739   3.952   4.886   2.030 -0.9519 -0.0227 -0.4949
 1280SOL    HW2 4740   3.791   4.857   2.036 -1.4799  2.6688 -0.5565
 1281SOL     OW 4741   3.049   1.443   5.431 -0.3546 -0.1174 -0.0455
 1281SOL    HW1 4742   3.079   1.538   5.444 -3.2698  0.7085  1.5540
 1281SOL    HW2 4743   2.997   1.437   5.345 -1.2949  0.1140  0.4850
 1282SOL     OW 4744   4.925   3.121   4.505 -0.2197  0.8488  0.1759
 1282SOL    HW1 4745   4.994   3.094   4.437 -0.3242 -0.4359  0.5459
 1282SOL    HW2 4746   4.876   3.040   4.536 -1.4014  1.6559  0.4723
 1283SOL     OW 4747   6.463   1.502   3.366  0.1274 -0.1064  0.3758
 1283SOL    HW1 4748   6.415   1.586   3.340 -0.4425 -0.5091  0.0939
 1283SOL    HW2 4749   6.475   1.444   3.284 -2.3397 -1.7333  1.0567
 1284SOL     OW 4750   1.986   6.857   4.146  0.4965 -0.5285  0.0574
 1284SOL    HW1 4751   2.039   6.808   4.077  0.6512  0.7275 -0.7375
 1284SOL    HW2 4752   1.932   6.929   4.102 -0.7953 -0.8641  1.0244
 1285SOL     OW 4753   1.183   4.960   5.729 -1.0637  0.3107  0.4005
 1285SOL    HW1 4754   1.214   4.907   5.808  1.7576 -0.0463 -0.8222
 1285SOL    HW2 4755   1.156   4.898   5.655 -0.4789  0.5763 -0.0488
 1286SOL     OW 4756   2.272   1.775   6.124  0.6370  0.3834  0.2939
 1286SOL    HW1 4757   2.351   1.714   6.109  1.4634  1.1057  1.5429
 1286SOL    HW2 4758   2.301   1.855   6.176 -1.3929 -0.5632  3.1148
 1287SOL     OW 4759   2.484   4.291   5.217  0.0330  0.2681 -0.4173
 1287SOL    HW1 4760   2.453   4.201   5.188  1.4443 -0.0581 -1.0116
 1287SOL    HW2 4761   2.572   4.282   5.265  1.2472  1.4692 -2.2602
 1288SOL     OW 4762   0.005   1.262   1.873 -0.3015  0.3157  0.9136
 1288SOL    HW1 4763   0.051   1.187   1.825 -1.1530 -0.3149  1.0520
 1288SOL    HW2 4764  -0.013   1.234   1.968  2.1247  1.8534  1.9271
 1289SOL     OW 4765   6.637   3.653   6.284 -0.3570  0.6489 -0.2290
 1289SOL    HW1 4766   6.567   3.684   6.219  1.1251 -0.4946 -2.4735
 1289SOL    HW2 4767   6.708   3.603   6.236 -0.0681 -1.9044  2.5360
 1290SOL     OW 4768   6.019   0.338   1.869  0.0756 -0.2152 -0.3385
 1290SOL    HW1 4769   5.928   0.310   1.839  0.8274 -0.6614 -2.3900
 1290SOL    HW2 4770   6.079   0.258   1.870 -0.0180 -0.3935  3.2114
 1291SOL     OW 4771   1.634   4.502   3.440  0.1702 -0.1094 -0.2175
 1291SOL    HW1 4772   1.659   4.454   3.524 -0.9563 -0.4149 -0.0447
 1291SOL    HW2 4773   1.611   4.596   3.461  2.8665  0.7264 -0.6222
 1292SOL     OW 4774   2.964   5.132   4.050  0.0041  0.7094  0.1095
 1292SOL    HW1 4775   3.047   5.184   4.028  1.0225 -0.0730  1.9155
 1292SOL    HW2 4776   2.975   5.037   4.019 -0.8860  0.9575 -1.0423
 1293SOL     OW 4777   2.154   2.501   3.336 -0.5994  0.0329 -0.2409
 1293SOL    HW1 4778   2.119   2.491   3.429 -0.9965 -0.4378 -0.4356
 1293SOL    HW2 4779   2.153   2.598   3.311  0.3464  0.2671  0.5520
 1294SOL     OW 4780   6.353   3.040   0.503 -0.5381 -0.4552 -0.3447
 1294SOL    HW1 4781   6.405   3.117   0.467  0.4798 -1.0514 -0.1746
 1294SOL    HW2 4782   6.356   3.041   0.603 -1.5532 -0.0275 -0.3101
 1295SOL     OW 4783   3.808   3.668   3.085 -0.0229  0.4145 -0.0009
 1295SOL    HW1 4784   3.843   3.742   3.027  0.3504  0.5877  0.4393
 1295SOL    HW2 4785   3.806   3.699   3.180 -1.3023  0.3832  0.0024
 1296SOL     OW 4786   2.802   1.953   0.660  1.1188  0.0734  0.1519
 1296SOL    HW1 4787   2.777   2.045   0.691  0.3399  0.3769 -1.3239
 1296SOL    HW2 4788   2.719   1.901   0.639  1.6075 -0.4291 -0.5537
 1297SOL     OW 4789   2.349   6.894   3.841 -0.1382 -0.0829 -0.1381
 1297SOL    HW1 4790   2.333   6.900   3.940  0.3195  0.6742 -0.0949
 1297SOL    HW2 4791   2.447   6.883   3.824 -0.4600 -3.2733 -0.4281
 1298SOL     OW 4792   2.232   5.469   3.680  0.0010 -0.0013 -0.7398
 1298SOL    HW1 4793   2.281   5.405   3.739 -1.1762 -1.2306 -1.0537
 1298SOL    HW2 4794   2.134   5.461   3.695 -0.1979  1.3237 -1.2173
 1299SOL     OW 4795   0.625   0.393   6.215  0.2550 -0.4566 -0.3628
 1299SOL    HW1 4796   0.722   0.386   6.240 -0.0047 -0.0071  0.8272
 1299SOL    HW2 4797   0.605   0.326   6.143  1.2272 -1.2320  0.0574
 1300SOL     OW 4798   4.422   1.003   0.074  0.3392 -0.4525  0.0534
 1300SOL    HW1 4799   4.508   0.961   0.103  1.3550  1.5804  0.1956
 1300SOL    HW2 4800   4.416   1.096   0.111 -1.9853 -0.5630  0.1173
 1301SOL     OW 4801   2.462   6.475   5.636 -0.2562 -0.0257  0.2093
 1301SOL    HW1 4802   2.455   6.458   5.734 -2.1363  0.0668  0.1327
 1301SOL    HW2 4803   2.502   6.396   5.591 -2.1533 -1.3553  0.7344
 1302SOL     OW 4804   5.345   6.359   3.162 -0.1554  0.2000 -0.1704
 1302SOL    HW1 4805   5.287   6.439   3.170 -0.2972  0.0282  0.5626
 1302SOL    HW2 4806   5.298   6.279   3.199 -0.5397 -0.5041 -2.0513
 1303SOL     OW 4807   2.875   5.459   6.185 -0.3630  0.4227  0.2557
 1303SOL    HW1 4808   2.850   5.546   6.142  1.5804  1.1297  0.4494
 1303SOL    HW2 4809   2.953   5.420   6.137 -0.3854 -0.5614  0.9935
 1304SOL     OW 4810   6.597   0.570   4.184 -0.0090  0.3742 -0.2570
 1304SOL    HW1 4811   6.563   0.640   4.120 -0.0833 -1.1574 -1.9889
 1304SOL    HW2 4812   6.552   0.483   4.164  1.0139 -0.4633  1.0032
 1305SOL     OW 4813   5.987   3.593   2.101 -0.1157 -0.0698  0.2659
 1305SOL    HW1 4814   5.944   3.580   2.013 -2.0642  0.8081  1.0386
 1305SOL    HW2 4815   5.947   3.530   2.168 -0.5521  1.0391  1.0904
 1306SOL     OW 4816   3.385   0.713   4.911  0.2757  0.1166 -0.7368
 1306SOL    HW1 4817   3.362   0.706   5.008 -1.9510  0.6274 -1.1828
 1306SOL    HW2 4818   3.432   0.630   4.882 -2.1202 -1.5852  0.0197
 1307SOL     OW 4819   0.048   3.083   0.691  0.9232 -0.5257 -0.3989
 1307SOL    HW1 4820   0.143   3.112   0.698  0.6057  0.3372  0.6448
 1307SOL    HW2 4821   0.040   3.011   0.622  2.3372 -0.6831 -0.4297
 1308SOL     OW 4822   4.656   2.537   0.884  0.3690 -0.1670  0.0748
 1308SOL    HW1 4823   4.613   2.472   0.821  0.1161  1.6305 -1.7602
 1308SOL    HW2 4824   4.755   2.524   0.883  0.2412 -1.1981  0.5466
 1309SOL     OW 4825   5.402   0.787   6.169 -0.3657 -0.1434  0.5707
 1309SOL    HW1 4826   5.385   0.692   6.144 -1.2257  0.7118 -2.4432
 1309SOL    HW2 4827   5.321   0.824   6.215 -1.3970  0.0113 -1.2754
 1310SOL     OW 4828   0.398   1.396   2.680 -0.2552  0.2528 -0.2335
 1310SOL    HW1 4829   0.324   1.356   2.735 -0.8611  2.5468  0.7235
 1310SOL    HW2 4830   0.363   1.415   2.588 -1.1172  1.8350  0.3695
 1311SOL     OW 4831   5.617   3.617   6.117  0.3302  0.1617 -0.0705
 1311SOL    HW1 4832   5.607   3.689   6.048 -0.7499 -0.6263 -0.7715
 1311SOL    HW2 4833   5.707   3.576   6.110  0.7007  0.9641 -0.1281
 1312SOL     OW 4834   1.220   4.428   4.006 -0.1078  0.2275  0.0173
 1312SOL    HW1 4835   1.247   4.411   3.911 -0.1310  0.5686 -0.0519
 1312SOL    HW2 4836   1.291   4.395   4.067 -1.1066 -2.1575 -0.0062
 1313SOL     OW 4837   6.573   5.594   4.688 -0.1914  0.0386 -0.3860
 1313SOL    HW1 4838   6.476   5.609   4.708 -0.3529 -0.8853 -0.4316
 1313SOL    HW2 4839   6.584   5.571   4.591  0.0718  0.0843 -0.3674
 1314SOL     OW 4840   2.770   0.379   3.422 -0.0272 -0.3581 -0.2430
 1314SOL    HW1 4841   2.808   0.444   3.488  0.4218 -0.6181 -0.2498
 1314SOL    HW2 4842   2.810   0.289   3.436  1.2485 -0.0983 -1.8730
 1315SOL     OW 4843   5.073   2.796   6.606 -0.0138  0.1576  0.0974
 1315SOL    HW1 4844   5.080   2.850   6.522  1.3109  0.5382  0.4238
 1315SOL    HW2 4845   5.031   2.851   6.678 -0.1870  0.1876 -0.0265
 1316SOL     OW 4846   6.805   4.756   2.805 -0.3317  0.3364 -0.1449
 1316SOL    HW1 4847   6.822   4.658   2.793  0.5868  0.5572 -0.7774
 1316SOL    HW2 4848   6.710   4.771   2.830 -0.5144 -0.7112 -0.1937
 1317SOL     OW 4849   0.932   4.490   2.273 -0.5676 -0.1675  0.3391
 1317SOL    HW1 4850   0.980   4.532   2.350 -1.1064  1.3724 -0.1396
 1317SOL    HW2 4851   0.999   4.440   2.217  0.8280  2.8112 -0.9122
 1318SOL     OW 4852   3.054   3.582   5.777  0.2487 -0.7844  1.4695
 1318SOL    HW1 4853   3.130   3.538   5.731  0.1224 -0.6380  1.1184
 1318SOL    HW2 4854   3.077   3.596   5.873  2.0177  2.2692  0.7141
 1319SOL     OW 4855   0.245   2.342   0.653  0.6953 -0.2280 -0.4948
 1319SOL    HW1 4856   0.225   2.363   0.748  4.2030  0.1050  0.3246
 1319SOL    HW2 4857   0.187   2.266   0.622 -0.9569  0.0794  1.6454
 1320SOL     OW 4858   0.122   0.147   0.646 -0.1252  0.7501 -0.2679
 1320SOL    HW1 4859   0.111   0.205   0.727  1.1599 -0.5613  0.9155
 1320SOL    HW2 4860   0.101   0.052   0.670  1.4626  0.1423 -1.1221
 1321SOL     OW 4861   2.071   4.666   4.620  0.2185 -0.0882  0.1973
 1321SOL    HW1 4862   2.029   4.655   4.711  1.6959 -0.7906  0.8195
 1321SOL    HW2 4863   2.054   4.583   4.566  0.4659 -0.2122  0.3090
 1322SOL     OW 4864   5.866   0.206   2.240  0.1751 -0.4065  1.1085
 1322SOL    HW1 4865   5.825   0.296   2.223  0.5894 -0.2745  0.7841
 1322SOL    HW2 4866   5.840   0.174   2.331 -1.3003 -0.6887  0.6028
 1323SOL     OW 4867   6.527   3.137   3.198 -0.7184 -0.3020 -0.0310
 1323SOL    HW1 4868   6.439   3.123   3.244 -1.2774  1.3093 -0.5663
 1323SOL    HW2 4869   6.558   3.049   3.161 -3.1127 -0.5913 -1.6026
 1324SOL     OW 4870   6.851   1.651   1.338  0.0891  0.4540  0.1143
 1324SOL    HW1 4871   6.753   1.643   1.360  0.5399 -1.3783  1.7160
 1324SOL    HW2 4872   6.903   1.662   1.422  1.4724 -1.2497 -0.4681
 1325SOL     OW 4873   3.679   5.806   3.593 -0.4373  0.2078 -0.0049
 1325SOL    HW1 4874   3.643   5.715   3.570 -1.7292  0.5613  0.5345
 1325SOL    HW2 4875   3.604   5.872   3.597  0.5306  1.3940 -0.7604
 1326SOL     OW 4876   6.993   3.939   6.524  0.5507  0.2677  0.0406
 1326SOL    HW1 4877   6.916   3.931   6.588  1.4002 -0.1128  1.0411
 1326SOL    HW2 4878   7.000   4.033   6.491  0.4216  0.5856  0.9117
 1327SOL     OW 4879   2.231   5.435   3.411  0.2001  0.1741  0.6255
 1327SOL    HW1 4880   2.313   5.402   3.365  0.5257  1.0301  0.5747
 1327SOL    HW2 4881   2.241   5.423   3.510 -0.1343 -0.8557  0.5415
 1328SOL     OW 4882   1.464   5.285   1.742 -0.3902 -0.5265  0.1620
 1328SOL    HW1 4883   1.377   5.287   1.693  0.1035  2.2232 -0.8006
 1328SOL    HW2 4884   1.448   5.289   1.840 -1.3637  0.3379 -0.0170
 1329SOL     OW 4885   0.255   5.957   4.993  0.2809 -0.1199  0.1082
 1329SOL    HW1 4886   0.243   5.877   5.052 -1.6492  0.8757  1.1627
 1329SOL    HW2 4887   0.328   6.014   5.029 -2.4363  1.7533  3.2230
 1330SOL     OW 4888   3.551   0.371   1.047 -0.1782 -0.1339 -0.0619
 1330SOL    HW1 4889   3.521   0.415   1.132 -1.7481 -0.8978 -0.1900
 1330SOL    HW2 4890   3.596   0.438   0.989 -0.2775  0.7128  0.8165
 1331SOL     OW 4891   5.553   4.643   2.974 -0.1706 -0.1172 -0.2824
 1331SOL    HW1 4892   5.485   4.587   3.021 -1.3323  0.3729 -1.3099
 1331SOL    HW2 4893   5.618   4.584   2.926 -1.5288 -0.6357 -1.5667
 1332SOL     OW 4894   5.742   4.683   5.642 -0.1343 -0.1635 -0.2625
 1332SOL    HW1 4895   5.827   4.707   5.688 -0.8749 -0.6240  1.4283
 1332SOL    HW2 4896   5.753   4.695   5.543  1.0898  2.1560  0.0820
 1333SOL     OW 4897   3.846   4.003   3.152 -0.4327 -0.5034 -0.1905
 1333SOL    HW1 4898   3.934   4.001   3.104 -2.0800 -2.6099 -3.5583
 1333SOL    HW2 4899   3.833   3.917   3.201 -0.2862  0.1618  1.0390
 1334SOL     OW 4900   6.420   3.783   3.719  0.2315 -0.1088 -0.2131
 1334SOL    HW1 4901   6.436   3.812   3.624  0.3893 -0.8106 -0.4076
 1334SOL    HW2 4902   6.507   3.780   3.768 -0.0385  2.0409  0.5035
 1335SOL     OW 4903   6.080   0.801   5.472  0.1821  0.6122  0.5862
 1335SOL    HW1 4904   6.026   0.850   5.541  0.4865  1.2447  0.3830
 1335SOL    HW2 4905   6.042   0.710   5.459  0.7572  0.0895  2.3566
 1336SOL     OW 4906   5.442   4.744   0.325 -0.3546 -0.3099  0.0256
 1336SOL    HW1 4907   5.501   4.712   0.399  0.7694  0.3141 -0.5626
 1336SOL    HW2 4908   5.364   4.794   0.363  0.6812  0.7805  0.7831
 1337SOL     OW 4909   2.591   2.915   0.632 -0.1158 -0.3804  0.1085
 1337SOL    HW1 4910   2.579   2.967   0.547 -1.8268 -2.1444 -0.7861
 1337SOL    HW2 4911   2.618   2.821   0.610  1.2366 -0.4013  1.6374
 1338SOL     OW 4912   6.906   4.239   3.918 -0.0904  0.5786  0.0430
 1338SOL    HW1 4913   6.970   4.222   3.993 -0.2613  1.2504  0.3529
 1338SOL    HW2 4914   6.949   4.301   3.852 -0.4406  1.0937  0.2920
 1339SOL     OW 4915   1.178   1.524   2.074 -0.1181 -0.2392 -0.0583
 1339SOL    HW1 4916   1.092   1.472   2.070 -0.0217 -0.5241  1.1771
 1339SOL    HW2 4917   1.231   1.507   1.991 -0.7825 -0.8748 -0.3701
 1340SOL     OW 4918   5.689   0.078   4.953 -0.0215 -0.1833 -0.3580
 1340SOL    HW1 4919   5.708  -0.019   4.965 -0.4289 -0.0739  1.5006
 1340SOL    HW2 4920   5.769   0.131   4.981  0.1339  0.0318 -1.1926
 1341SOL     OW 4921   2.124   1.181   2.984  0.0676  0.1971  0.1634
 1341SOL    HW1 4922   2.215   1.205   2.951  0.3622  1.2945  1.6755
 1341SOL    HW2 4923   2.057   1.248   2.952 -0.1338 -0.3095 -0.5016
 1342SOL     OW 4924   1.095   2.191   5.095 -0.1836 -0.6488  0.2884
 1342SOL    HW1 4925   1.047   2.130   5.158 -1.9582  1.7978  1.4724
 1342SOL    HW2 4926   1.173   2.233   5.142 -1.5024  1.1707  0.9556
 1343SOL     OW 4927   2.796   5.786   1.629 -0.5204  0.2177  0.5152
 1343SOL    HW1 4928   2.842   5.867   1.592  0.1621 -1.2077 -1.9813
 1343SOL    HW2 4929   2.865   5.721   1.661 -1.0443  0.2305  1.7410
 1344SOL     OW 4930   3.772   4.148   5.748 -0.6932 -0.4167  0.1810
 1344SOL    HW1 4931   3.855   4.098   5.773 -1.9226 -2.5700  0.2188
 1344SOL    HW2 4932   3.731   4.105   5.667 -2.8688 -0.8006  1.3917
 1345SOL     OW 4933   0.439   6.996   0.446  0.3470  0.3061  0.0048
 1345SOL    HW1 4934   0.359   7.027   0.395 -0.9448 -0.0585  1.7251
 1345SOL    HW2 4935   0.410   6.941   0.524  2.3085 -0.1454  0.4781
 1346SOL     OW 4936   0.515   1.150   2.589  0.4777  0.2092  0.4581
 1346SOL    HW1 4937   0.460   1.230   2.612  0.1669  0.0355  0.3139
 1346SOL    HW2 4938   0.469   1.067   2.620 -0.7690 -0.1861 -2.1468
 1347SOL     OW 4939   3.917   1.476   1.191  0.2877 -0.5251  0.0288
 1347SOL    HW1 4940   3.905   1.411   1.116  1.1779 -1.3185  0.5574
 1347SOL    HW2 4941   3.954   1.429   1.271 -0.9314  0.2493  1.0895
 1348SOL     OW 4942   6.760   2.470   5.036  0.3520 -0.0155 -0.4526
 1348SOL    HW1 4943   6.834   2.500   5.097  0.0069 -0.2160  0.0755
 1348SOL    HW2 4944   6.700   2.548   5.017  0.9087  0.2399 -1.1952
 1349SOL     OW 4945   3.693   2.139   6.040  0.0670  0.1248 -0.1912
 1349SOL    HW1 4946   3.714   2.230   6.075  0.8074  0.4335 -1.3749
 1349SOL    HW2 4947   3.633   2.148   5.960 -0.7227 -0.4948  0.3167
 1350SOL     OW 4948   4.194   1.891   0.263 -0.3432 -0.5037 -0.4908
 1350SOL    HW1 4949   4.247   1.839   0.196  4.4167 -0.5121  2.8130
 1350SOL    HW2 4950   4.214   1.988   0.253 -1.8114 -0.1887 -0.6983
 1351SOL     OW 4951   4.997   1.760   2.181  0.0972  0.4176 -0.1878
 1351SOL    HW1 4952   5.028   1.665   2.181  0.4907  0.5441  0.0739
 1351SOL    HW2 4953   4.908   1.766   2.136 -0.6265 -0.2998  1.0870
 1352SOL     OW 4954   0.202   3.681   0.860 -0.4326 -0.2474  0.1136
 1352SOL    HW1 4955   0.235   3.774   0.843 -0.7749 -0.1306  0.0923
 1352SOL    HW2 4956   0.278   3.617   0.848 -0.1662  0.0390  0.2507
 1353SOL     OW 4957   6.299   1.372   2.077 -0.0232 -0.3449 -0.0831
 1353SOL    HW1 4958   6.257   1.307   2.140 -0.2995 -1.0081 -0.9175
 1353SOL    HW2 4959   6.394   1.347   2.061 -0.4872 -1.4129 -1.4538
 1354SOL     OW 4960   0.236   6.004   1.596  0.6027  0.5049 -0.1519
 1354SOL    HW1 4961   0.283   5.973   1.514 -1.7977 -0.8419 -1.1291
 1354SOL    HW2 4962   0.153   6.054   1.571 -0.0856  0.2431  1.4388
 1355SOL     OW 4963   4.125   1.693   3.946 -0.2977  0.3063 -0.0847
 1355SOL    HW1 4964   4.205   1.741   3.911 -1.4782  0.7871 -2.3094
 1355SOL    HW2 4965   4.046   1.756   3.946 -0.7756 -0.2311  1.7818
 1356SOL     OW 4966   1.386   0.404   0.709 -0.4586  0.1296 -0.0929
 1356SOL    HW1 4967   1.410   0.487   0.759 -0.2453  0.9137 -1.4572
 1356SOL    HW2 4968   1.421   0.409   0.615  2.1018 -2.7259  0.5515
 1357SOL     OW 4969   6.079   1.604   1.743 -0.1524  0.7160  0.2051
 1357SOL    HW1 4970   6.161   1.607   1.685 -1.6936 -0.8023 -2.2579
 1357SOL    HW2 4971   6.074   1.515   1.789  0.1792  1.2733  1.3507
 1358SOL     OW 4972   4.822   0.157   5.800 -0.2727  0.2797  0.4041
 1358SOL    HW1 4973   4.793   0.087   5.735  0.6763  1.0439 -0.9174
 1358SOL    HW2 4974   4.871   0.229   5.750  1.7635  0.2051  2.1514
 1359SOL     OW 4975   0.352   2.129   3.522 -0.5294  0.1844  0.4773
 1359SOL    HW1 4976   0.406   2.149   3.603  0.4957  1.6550 -0.5129
 1359SOL    HW2 4977   0.261   2.096   3.549 -0.3176  0.9316  2.2157
 1360SOL     OW 4978   1.370   5.525   5.196 -0.3220 -0.1895  0.0972
 1360SOL    HW1 4979   1.387   5.439   5.147  0.9889 -0.0455  0.2770
 1360SOL    HW2 4980   1.290   5.514   5.255  0.0872 -1.4520  0.4594
 1361SOL     OW 4981   3.136   0.406   2.698  0.1640  0.6513  0.2717
 1361SOL    HW1 4982   3.127   0.490   2.752 -1.0040  0.9985 -0.4362
 1361SOL    HW2 4983   3.172   0.429   2.607  2.3685  0.0425  0.9161
 1362SOL     OW 4984   4.912   1.741   6.887  0.1463 -0.5564  0.3278
 1362SOL    HW1 4985   5.004   1.730   6.849 -0.2276 -0.3610 -0.6834
 1362SOL    HW2 4986   4.902   1.834   6.922  0.2123 -0.4515  0.0743
 1363SOL     OW 4987   6.539   5.578   6.497  0.0737 -0.3912 -0.4715
 1363SOL    HW1 4988   6.530   5.674   6.524  2.7000 -0.5076  1.1479
 1363SOL    HW2 4989   6.471   5.523   6.546  1.1043  0.1700  1.6994
 1364SOL     OW 4990   3.238   5.069   1.339 -0.2702  0.1268  0.4115
 1364SOL    HW1 4991   3.272   5.158   1.368  1.3968 -0.1447 -0.5708
 1364SOL    HW2 4992   3.315   5.009   1.317 -1.3791 -0.8515 -1.0295
 1365SOL     OW 4993   3.346   4.491   6.270  0.2042  0.1397  0.1368
 1365SOL    HW1 4994   3.342   4.586   6.239  0.6173 -0.6549 -2.5525
 1365SOL    HW2 4995   3.440   4.468   6.295  0.5806 -0.1689 -1.4521
 1366SOL     OW 4996   5.666   1.439   5.210 -0.1027 -0.4847 -1.0552
 1366SOL    HW1 4997   5.574   1.477   5.223 -1.0744 -2.4678 -1.7879
 1366SOL    HW2 4998   5.719   1.501   5.152 -0.4817  1.3526  0.4590
 1367SOL     OW 4999   1.876   6.162   1.991 -0.1051  0.3069  0.4431
 1367SOL    HW1 5000   1.963   6.205   2.016  0.7645 -0.6299 -0.8191
 1367SOL    HW2 5001   1.863   6.080   2.047  0.5024 -0.2852 -0.2557
 1368SOL     OW 5002   6.424   6.574   6.962 -0.6763 -0.2737  0.5477
 1368SOL    HW1 5003   6.409   6.488   6.912 -2.8928  0.3764 -0.0251
 1368SOL    HW2 5004   6.394   6.651   6.906 -2.8181  0.5266  2.6184
 1369SOL     OW 5005   4.635   6.140   5.563  0.1555  0.2674 -0.2001
 1369SOL    HW1 5006   4.600   6.080   5.491  0.3215  1.0482 -0.9459
 1369SOL    HW2 5007   4.653   6.086   5.645  0.4796 -0.7346 -0.9116
 1370SOL     OW 5008   0.108   3.653   0.274  0.5981 -0.0241  0.1436
 1370SOL    HW1 5009   0.044   3.679   0.346  0.0033 -0.6027 -0.1598
 1370SOL    HW2 5010   0.200   3.683   0.298  0.6113 -1.1963  1.6895
 1371SOL     OW 5011   4.938   5.134   2.115 -0.0824  0.8364  0.1820
 1371SOL    HW1 5012   4.992   5.103   2.037  0.0365  0.0575  0.5656
 1371SOL    HW2 5013   4.969   5.087   2.198  0.3210  2.2294  0.8478
 1372SOL     OW 5014   0.492   5.180   1.130  0.1500  0.0987  0.7959
 1372SOL    HW1 5015   0.574   5.236   1.117  0.2548  0.1697  1.6840
 1372SOL    HW2 5016   0.423   5.233   1.178 -0.3164 -0.0525  0.2985
 1373SOL     OW 5017   3.444   6.663   3.155 -0.9493  0.1389 -0.1388
 1373SOL    HW1 5018   3.519   6.663   3.221 -1.0369 -0.9340 -0.0186
 1373SOL    HW2 5019   3.357   6.667   3.203 -1.0182  3.1430 -0.3103
 1374SOL     OW 5020   3.354   0.633   6.132 -0.2011 -0.2107 -0.0531
 1374SOL    HW1 5021   3.312   0.720   6.107 -0.9231 -1.0887 -2.0780
 1374SOL    HW2 5022   3.422   0.648   6.204 -3.5226  1.3570  3.0627
 1375SOL     OW 5023   2.182   4.619   1.847 -0.0447 -0.2837 -0.4332
 1375SOL    HW1 5024   2.257   4.579   1.901 -0.1208 -0.1378 -0.2201
 1375SOL    HW2 5025   2.220   4.662   1.765  0.0548 -0.6565 -0.5852
 1376SOL     OW 5026   1.247   4.086   6.885  0.1829 -0.8569  0.7604
 1376SOL    HW1 5027   1.180   4.046   6.948 -0.6966 -0.7530 -0.0853
 1376SOL    HW2 5028   1.321   4.129   6.938 -0.5791 -0.7012  1.7285
 1377SOL     OW 5029   3.776   6.887   2.903 -0.4637 -0.0165 -0.2188
 1377SOL    HW1 5030   3.683   6.909   2.930  0.0763  0.9935  0.8982
 1377SOL    HW2 5031   3.774   6.818   2.830 -2.0710  0.1749 -0.3910
 1378SOL     OW 5032   1.424   3.676   2.493 -0.4337  0.1927 -0.2986
 1378SOL    HW1 5033   1.360   3.723   2.554  2.1360  0.3723  2.4534
 1378SOL    HW2 5034   1.418   3.578   2.508  1.7048  0.3156  2.0917
 1379SOL     OW 5035   2.079   5.964   3.501  1.1446  0.3057  0.5998
 1379SOL    HW1 5036   2.099   5.990   3.406 -0.2752 -2.4421 -0.5469
 1379SOL    HW2 5037   2.106   5.869   3.517 -0.6671  0.0072  2.2694
 1380SOL     OW 5038   1.993   4.730   6.189  0.0956  0.0582 -0.1192
 1380SOL    HW1 5039   1.965   4.712   6.283  1.4310  0.7193  0.4377
 1380SOL    HW2 5040   2.086   4.766   6.188  0.4681 -0.8120 -1.7726
 1381SOL     OW 5041   0.576   0.227   4.179  0.8513 -0.6590 -0.0363
 1381SOL    HW1 5042   0.503   0.166   4.148 -0.7010  0.7102  0.7939
 1381SOL    HW2 5043   0.560   0.319   4.144  1.9324 -0.2330  0.5478
 1382SOL     OW 5044   6.043   1.813   1.592  0.4302  0.4073  0.0663
 1382SOL    HW1 5045   6.113   1.885   1.581  0.4094  0.4461  0.1894
 1382SOL    HW2 5046   6.067   1.755   1.670 -0.1899  1.0141  0.7196
 1383SOL     OW 5047   1.237   3.414   3.783  0.2402 -0.1661 -0.6104
 1383SOL    HW1 5048   1.235   3.491   3.719 -1.5446 -2.0731 -3.0608
 1383SOL    HW2 5049   1.144   3.394   3.814  0.7043 -1.1484  0.2063
 1384SOL     OW 5050   6.313   6.634   4.529  0.0858  0.3123  0.3365
 1384SOL    HW1 5051   6.397   6.688   4.518  0.1610  0.1793  0.2625
 1384SOL    HW2 5052   6.322   6.574   4.608  0.8358 -1.1304 -0.7876
 1385SOL     OW 5053   0.065   6.238   1.560 -0.1247  0.0562  0.5614
 1385SOL    HW1 5054   0.117   6.301   1.502  0.0800  0.2678  0.9768
 1385SOL    HW2 5055  -0.033   6.249   1.541 -0.0741  0.3012  0.4334
 1386SOL     OW 5056   6.491   3.321   0.443 -0.0313  0.6996 -0.3318
 1386SOL    HW1 5057   6.422   3.362   0.503  0.5501  0.9657  0.1595
 1386SOL    HW2 5058   6.577   3.371   0.451  0.2763  0.2634 -0.8131
 1387SOL     OW 5059   6.085   5.585   0.991  0.4100  0.2151  0.0805
 1387SOL    HW1 5060   6.083   5.595   0.891 -0.9495 -1.7511 -0.1363
 1387SOL    HW2 5061   6.016   5.519   1.020  1.2295  0.2311  2.2850
 1388SOL     OW 5062   6.098   6.412   5.418  0.8807 -0.0612  0.4256
 1388SOL    HW1 5063   6.189   6.404   5.376 -0.1719 -1.0510 -1.8077
 1388SOL    HW2 5064   6.051   6.324   5.412 -1.4143  1.1691 -1.4072
 1389SOL     OW 5065   5.553   0.923   1.677 -0.5838  0.4064  0.5150
 1389SOL    HW1 5066   5.529   0.981   1.599 -0.4638  0.4840  0.5358
 1389SOL    HW2 5067   5.589   0.980   1.751 -1.8424  0.4827  1.0993
 1390SOL     OW 5068   1.909   1.676   3.858  0.3164 -0.1415 -0.3822
 1390SOL    HW1 5069   1.856   1.715   3.782  0.8886  0.6429 -0.3819
 1390SOL    HW2 5070   1.850   1.615   3.910 -0.8777  1.3947  0.1484
 1391SOL     OW 5071   5.732   3.706   0.307  0.7081 -0.1354 -0.2254
 1391SOL    HW1 5072   5.698   3.800   0.305  1.2746  0.0719 -2.0184
 1391SOL    HW2 5073   5.655   3.642   0.298  0.4927  0.2370 -1.1280
 1392SOL     OW 5074   3.046   2.445   1.086  0.3448  0.0903 -0.0328
 1392SOL    HW1 5075   3.075   2.497   1.166 -1.9214  3.2125 -1.0320
 1392SOL    HW2 5076   2.961   2.396   1.107 -1.6092  2.7948 -0.9188
 1393SOL     OW 5077   0.013   6.414   4.443  0.2978 -0.6921 -0.1414
 1393SOL    HW1 5078  -0.061   6.354   4.412  0.0535 -0.7965  0.6194
 1393SOL    HW2 5079   0.069   6.441   4.365 -0.8612 -0.1763 -0.8331
 1394SOL     OW 5080   3.481   2.379   6.026 -0.6619 -0.1394  0.2599
 1394SOL    HW1 5081   3.461   2.473   5.998  1.1258 -0.2984 -1.8192
 1394SOL    HW2 5082   3.423   2.316   5.974 -1.2708 -0.2472  1.0499
 1395SOL     OW 5083   2.810   2.070   5.648 -0.3596  0.3924 -0.4414
 1395SOL    HW1 5084   2.820   2.170   5.650 -1.4801  0.5198  0.3540
 1395SOL    HW2 5085   2.823   2.034   5.741  1.2140 -0.3566 -0.9294
 1396SOL     OW 5086   0.228   3.860   0.495  0.8281  0.0614  0.6262
 1396SOL    HW1 5087   0.130   3.879   0.505  0.9672  2.4657 -1.4650
 1396SOL    HW2 5088   0.258   3.800   0.569 -2.0823 -0.3114  1.6508
 1397SOL     OW 5089   3.168   2.209   6.945 -0.3676 -0.1472  0.9164
 1397SOL    HW1 5090   3.142   2.231   6.851 -1.0500 -0.9911  0.8904
 1397SOL    HW2 5091   3.254   2.255   6.968 -1.1230  1.5679  0.5081
 1398SOL     OW 5092   0.770   6.586   6.059  0.1521 -0.4380  0.0001
 1398SOL    HW1 5093   0.716   6.668   6.040  0.1661 -0.1950  0.9637
 1398SOL    HW2 5094   0.836   6.571   5.985  3.3113  3.0003  1.7868
 1399SOL     OW 5095   5.563   1.724   1.943  1.0179  0.5288  0.6616
 1399SOL    HW1 5096   5.530   1.817   1.923  1.5310  0.6149  0.2078
 1399SOL    HW2 5097   5.657   1.714   1.910  1.0784 -0.0534  0.9987
 1400SOL     OW 5098   0.295   6.966   4.866  0.1997 -0.0287 -0.6647
 1400SOL    HW1 5099   0.242   6.899   4.918 -0.1479 -0.4752 -1.5760
 1400SOL    HW2 5100   0.390   6.964   4.897 -0.1386  0.2054  0.4270
 1401SOL     OW 5101   2.220   1.550   5.342  0.2246 -0.0245  0.6471
 1401SOL    HW1 5102   2.125   1.520   5.334  0.0981  0.5899 -0.2842
 1401SOL    HW2 5103   2.223   1.647   5.364  0.6409 -0.1184  1.0275
 1402SOL     OW 5104   5.532   0.568   2.271 -1.0934 -0.1977  0.9759
 1402SOL    HW1 5105   5.477   0.543   2.351  1.6756  0.0955  3.1614
 1402SOL    HW2 5106   5.504   0.658   2.238 -3.6457 -1.1895  0.2356
 1403SOL     OW 5107   5.036   2.436   4.376  0.1016  0.8422 -0.1228
 1403SOL    HW1 5108   5.116   2.451   4.318 -0.4988 -0.6581 -1.4311
 1403SOL    HW2 5109   5.006   2.523   4.417  0.9329  1.8394 -1.5685
 1404SOL     OW 5110   0.112   0.164   5.710 -0.4784 -0.0254 -0.4000
 1404SOL    HW1 5111   0.059   0.130   5.633 -0.5476  0.9944 -0.8248
 1404SOL    HW2 5112   0.198   0.114   5.716 -1.4413 -1.6788  0.2787
 1405SOL     OW 5113   6.953   1.423   1.656  0.0750 -0.4413 -0.2032
 1405SOL    HW1 5114   7.009   1.358   1.707 -0.4983 -0.6676  0.1438
 1405SOL    HW2 5115   6.859   1.421   1.691 -0.4084 -0.8449 -1.4705
 1406SOL     OW 5116   6.636   0.790   0.935 -0.4521  0.2659  0.1013
 1406SOL    HW1 5117   6.735   0.786   0.950 -0.6048  0.5722  1.3364
 1406SOL    HW2 5118   6.595   0.704   0.963 -0.3115 -0.7296 -2.5558
 1407SOL     OW 5119   1.800   5.832   3.636  0.5023  0.3069  0.2636
 1407SOL    HW1 5120   1.837   5.890   3.709  1.0733 -0.1756  0.3669
 1407SOL    HW2 5121   1.817   5.875   3.547 -1.3479  1.5410  0.4504
 1408SOL     OW 5122   1.989   0.454   3.578  0.1602  0.0925 -0.1053
 1408SOL    HW1 5123   2.052   0.521   3.539 -0.0598  1.0765  1.1873
 1408SOL    HW2 5124   1.994   0.370   3.524  2.7200  0.0593  0.0397
 1409SOL     OW 5125   5.969   2.458   2.765 -0.1215  0.2719  0.6395
 1409SOL    HW1 5126   5.996   2.380   2.710 -0.9575 -0.5044  1.2984
 1409SOL    HW2 5127   5.910   2.518   2.711 -0.4530 -0.1794  0.4933
 1410SOL     OW 5128   1.754   3.146   6.271  0.5929  0.3402 -0.1778
 1410SOL    HW1 5129   1.839   3.131   6.322 -0.7097  0.6820  2.2256
 1410SOL    HW2 5130   1.707   3.058   6.259  0.8083  0.2873 -0.6922
 1411SOL     OW 5131   4.262   3.293   5.925 -0.1263 -0.1973 -0.2330
 1411SOL    HW1 5132   4.194   3.269   5.994 -0.4057 -0.2760 -0.5337
 1411SOL    HW2 5133   4.219   3.347   5.853  0.3301  0.5470  0.0405
 1412SOL     OW 5134   4.927   6.746   3.921  0.2865  0.6394  0.2286
 1412SOL    HW1 5135   4.953   6.764   4.016 -2.7177  0.5018  1.1686
 1412SOL    HW2 5136   4.919   6.833   3.872 -1.0060  0.9730  0.9729
 1413SOL     OW 5137   2.278   4.789   2.557  0.3324 -0.3671  0.2399
 1413SOL    HW1 5138   2.193   4.736   2.566  1.1046 -1.6528  0.1089
 1413SOL    HW2 5139   2.261   4.867   2.497 -1.2426  0.4734  1.6829
 1414SOL     OW 5140   4.612   1.581   2.522  0.1255 -0.4799  0.0613
 1414SOL    HW1 5141   4.516   1.558   2.538 -0.5544  1.4252 -0.9247
 1414SOL    HW2 5142   4.632   1.669   2.564  1.3072 -0.6163 -0.1923
 1415SOL     OW 5143   1.771   1.844   5.962  0.2420 -0.0159 -0.3004
 1415SOL    HW1 5144   1.692   1.848   6.024  0.3135  0.1054 -0.2174
 1415SOL    HW2 5145   1.854   1.826   6.015  0.2543 -0.2566 -0.4008
 1416SOL     OW 5146   5.020   4.815   2.693 -0.0751  0.3094 -0.2134
 1416SOL    HW1 5147   5.080   4.818   2.614 -0.2346  1.2107 -0.3157
 1416SOL    HW2 5148   5.069   4.848   2.774  0.2964 -1.2606  0.2165
 1417SOL     OW 5149   1.590   1.459   3.090 -0.3723  0.1321 -0.1453
 1417SOL    HW1 5150   1.606   1.485   2.994 -0.5619 -1.9622 -0.7848
 1417SOL    HW2 5151   1.492   1.462   3.109 -0.2684  1.4351  0.2829
 1418SOL     OW 5152   6.279   2.662   1.611  0.0672 -0.3564  0.1784
 1418SOL    HW1 5153   6.267   2.725   1.688 -0.9988  0.6353 -0.7594
 1418SOL    HW2 5154   6.354   2.599   1.631 -0.3574 -0.3044  2.1366
 1419SOL     OW 5155   1.647   5.924   4.258  0.0399 -0.2490  0.4805
 1419SOL    HW1 5156   1.727   5.936   4.199  0.8094 -1.5866  1.1876
 1419SOL    HW2 5157   1.677   5.891   4.348 -1.4037 -2.7733  0.1300
 1420SOL     OW 5158   5.773   1.996   0.389  0.3101  0.8460 -0.3799
 1420SOL    HW1 5159   5.773   1.898   0.370 -0.8660  0.8426 -0.4035
 1420SOL    HW2 5160   5.795   2.046   0.305 -1.6102  0.6920 -1.0168
 1421SOL     OW 5161   4.284   0.956   4.698 -0.1192 -0.4433  0.3060
 1421SOL    HW1 5162   4.365   0.953   4.758  0.3294 -0.6713 -0.2953
 1421SOL    HW2 5163   4.202   0.945   4.753  0.1276  1.6233  1.1721
 1422SOL     OW 5164   4.717   6.108   4.119 -0.2956 -0.2337 -0.0309
 1422SOL    HW1 5165   4.809   6.069   4.113  0.1229  0.7189  0.0479
 1422SOL    HW2 5166   4.723   6.203   4.148 -1.2849 -0.0355 -0.4339
 1423SOL     OW 5167   0.571   6.229   6.292  0.1361 -0.4180 -0.1130
 1423SOL    HW1 5168   0.534   6.251   6.201  2.7594  0.8968 -0.9668
 1423SOL    HW2 5169   0.583   6.130   6.299 -0.1440 -0.5477 -1.1965
 1424SOL     OW 5170   2.794   6.297   4.879 -0.5966 -0.0283 -0.4681
 1424SOL    HW1 5171   2.827   6.391   4.873 -1.2381  0.1555 -1.4587
 1424SOL    HW2 5172   2.863   6.235   4.842 -0.9745  0.2759 -1.7650
 1425SOL     OW 5173   6.947   4.179   0.336  0.0143  0.0168 -0.3997
 1425SOL    HW1 5174   6.902   4.128   0.263  0.8934 -0.0986 -0.8716
 1425SOL    HW2 5175   7.005   4.251   0.297  1.1669 -0.5953  0.1317
 1426SOL     OW 5176   1.626   2.207   6.657 -0.1752 -0.4776  0.0193
 1426SOL    HW1 5177   1.560   2.135   6.633 -0.0916 -0.2253 -1.0083
 1426SOL    HW2 5178   1.707   2.165   6.698 -0.6630 -0.8569  0.6080
 1427SOL     OW 5179   3.971   1.135   0.252 -0.5429  0.3884  0.0461
 1427SOL    HW1 5180   3.913   1.064   0.214 -0.1840  0.3271 -0.3938
 1427SOL    HW2 5181   3.914   1.203   0.299 -0.8275 -0.6551  1.2940
 1428SOL     OW 5182   0.491   4.469   4.604  0.3745 -0.3149 -0.5737
 1428SOL    HW1 5183   0.558   4.478   4.531  0.6842 -0.7790 -0.3521
 1428SOL    HW2 5184   0.407   4.428   4.569  0.9528 -1.6708 -0.4327
 1429SOL     OW 5185   5.683   4.512   2.791  0.9266 -0.1122  0.0370
 1429SOL    HW1 5186   5.747   4.509   2.715 -2.5924 -0.3498 -3.1690
 1429SOL    HW2 5187   5.647   4.421   2.808 -1.8574  0.6162 -1.4286
 1430SOL     OW 5188   3.401   5.514   6.446 -0.2890 -0.3379  0.2764
 1430SOL    HW1 5189   3.347   5.571   6.509 -0.1903 -0.5060  0.5110
 1430SOL    HW2 5190   3.349   5.432   6.423 -0.4025 -0.1890 -0.0081
 1431SOL     OW 5191   1.246   4.778   6.699  0.1893 -0.0913 -0.3907
 1431SOL    HW1 5192   1.259   4.682   6.726 -1.2473  0.2892  1.9824
 1431SOL    HW2 5193   1.172   4.785   6.632 -1.6960 -0.4738  1.5505
 1432SOL     OW 5194   4.376   2.313   2.128  0.0300  0.1375  0.1094
 1432SOL    HW1 5195   4.420   2.255   2.197 -0.2419 -0.8416 -0.5138
 1432SOL    HW2 5196   4.276   2.306   2.138 -0.0036  0.5799  0.0883
 1433SOL     OW 5197   5.281   4.515   6.627 -0.9941 -0.5222 -0.0820
 1433SOL    HW1 5198   5.358   4.465   6.666  1.8466  2.0464 -1.9701
 1433SOL    HW2 5199   5.253   4.471   6.542  0.0519 -0.1528 -0.6344
 1434SOL     OW 5200   0.224   3.003   6.847 -0.1454  0.3656  0.0345
 1434SOL    HW1 5201   0.247   3.101   6.851  0.4836  0.2377 -0.3830
 1434SOL    HW2 5202   0.280   2.958   6.778  0.6976 -0.5975  1.2888
 1435SOL     OW 5203   3.677   1.274   6.973 -0.1862  0.1038  0.3499
 1435SOL    HW1 5204   3.689   1.251   6.876 -0.2547 -0.0316  0.3722
 1435SOL    HW2 5205   3.757   1.325   7.005 -0.3471  0.5085  0.1171
 1436SOL     OW 5206   0.476   0.623   3.190  0.3554  0.0795 -0.2049
 1436SOL    HW1 5207   0.480   0.562   3.111  0.0060  0.8281 -0.8093
 1436SOL    HW2 5208   0.549   0.691   3.184  1.1431 -0.6628  0.7977
 1437SOL     OW 5209   0.653   5.566   2.152 -0.2447  0.0426 -0.2298
 1437SOL    HW1 5210   0.685   5.574   2.057 -0.5997  0.2233 -0.3350
 1437SOL    HW2 5211   0.642   5.470   2.176  0.7305 -0.0444 -0.0735
 1438SOL     OW 5212   0.687   0.788   1.865 -0.4361  0.3396 -0.3399
 1438SOL    HW1 5213   0.610   0.764   1.924  2.0966 -0.4081  2.9456
 1438SOL    HW2 5214   0.710   0.709   1.808 -0.5381 -0.3321  0.5203
 1439SOL     OW 5215   6.161   6.872   4.515  0.4703  0.2587 -0.5024
 1439SOL    HW1 5216   6.193   6.940   4.581  0.9897 -0.0548 -0.4268
 1439SOL    HW2 5217   6.206   6.785   4.532  0.2983  0.0638 -1.0159
 1440SOL     OW 5218   0.037   6.608   3.685 -0.1099  0.4351 -0.2498
 1440SOL    HW1 5219   0.129   6.602   3.724 -0.8469  1.0253  1.6989
 1440SOL    HW2 5220  -0.026   6.553   3.739 -0.6305 -1.4870 -2.6634
 1441SOL     OW 5221   0.673   1.702   5.489 -0.3327 -0.0421 -0.4190
 1441SOL    HW1 5222   0.739   1.771   5.518 -0.2597 -0.0058 -0.6685
 1441SOL    HW2 5223   0.718   1.612   5.488 -0.5660 -0.1751  0.4025
 1442SOL     OW 5224   4.843   3.251   3.890  0.0849 -0.2242 -0.1590
 1442SOL    HW1 5225   4.850   3.155   3.915  1.3089  0.1660  1.1010
 1442SOL    HW2 5226   4.838   3.259   3.791  2.6331 -1.4764 -0.4619
 1443SOL     OW 5227   6.856   4.396   1.240  0.8979  0.3392 -0.3497
 1443SOL    HW1 5228   6.900   4.334   1.305 -0.4658  1.0957  1.3762
 1443SOL    HW2 5229   6.871   4.491   1.268  0.1403  0.6832 -1.0404
 1444SOL     OW 5230   4.375   2.031   6.954  0.3536  0.5734 -0.0709
 1444SOL    HW1 5231   4.279   2.055   6.967  0.6571  2.8513 -1.4161
 1444SOL    HW2 5232   4.381   1.941   6.911 -1.0894 -0.2188  1.2856
 1445SOL     OW 5233   6.742   5.615   1.313 -0.3245  0.1452  0.3974
 1445SOL    HW1 5234   6.749   5.570   1.224  0.1855  0.7178  0.1467
 1445SOL    HW2 5235   6.832   5.614   1.358 -0.4592  0.3321  0.6733
 1446SOL     OW 5236   6.838   2.655   2.338 -0.0928  0.3645  0.7190
 1446SOL    HW1 5237   6.935   2.659   2.360  0.5696 -0.8611 -1.7284
 1446SOL    HW2 5238   6.809   2.743   2.300  0.4816  0.2057 -0.1036
 1447SOL     OW 5239   1.897   6.359   4.463 -0.1941  0.1789 -0.6322
 1447SOL    HW1 5240   1.912   6.452   4.498 -0.4569  1.1118 -2.8334
 1447SOL    HW2 5241   1.985   6.312   4.455  0.3871  1.4618 -2.5685
 1448SOL     OW 5242   4.338   1.247   6.448  0.1690  0.3239 -0.3090
 1448SOL    HW1 5243   4.431   1.213   6.436  0.9218  1.3534  2.0911
 1448SOL    HW2 5244   4.281   1.215   6.373  2.9139  1.3907 -3.0813
 1449SOL     OW 5245   2.914   6.150   5.722 -0.0182  0.1522  0.0609
 1449SOL    HW1 5246   2.877   6.082   5.659 -0.3339 -0.6565  1.1010
 1449SOL    HW2 5247   2.961   6.221   5.669  1.0636 -1.2844 -0.9929
 1450SOL     OW 5248   6.962   2.168   3.202  0.0597 -0.0649 -0.4315
 1450SOL    HW1 5249   7.058   2.138   3.209 -0.1193 -0.2162  2.2943
 1450SOL    HW2 5250   6.907   2.093   3.165  0.5563 -1.0663  0.7819
 1451SOL     OW 5251   2.084   3.634   3.062 -0.4120  0.2542  0.1565
 1451SOL    HW1 5252   2.145   3.649   3.140 -0.0992 -2.6338  0.5885
 1451SOL    HW2 5253   1.994   3.671   3.082  0.1834  1.2648  1.0741
 1452SOL     OW 5254   2.046   3.386   2.683 -0.1450 -0.2538  0.7476
 1452SOL    HW1 5255   2.032   3.461   2.747 -0.4496  0.4566 -0.1286
 1452SOL    HW2 5256   2.041   3.420   2.589 -3.0440 -1.7711  0.2246
 1453SOL     OW 5257   1.583   4.995   4.275 -0.3220 -0.0190  0.2116
 1453SOL    HW1 5258   1.657   5.025   4.336 -1.4110  1.1126  1.0058
 1453SOL    HW2 5259   1.566   4.897   4.290  2.2114 -0.7829 -1.2983
 1454SOL     OW 5260   1.486   1.476   0.469 -0.4208  0.0426 -0.5431
 1454SOL    HW1 5261   1.582   1.474   0.497 -0.6413  0.2682  0.2566
 1454SOL    HW2 5262   1.463   1.568   0.438 -0.6767  0.2910  0.3649
 1455SOL     OW 5263   2.294   0.005   1.969 -0.0079 -0.1011  0.1153
 1455SOL    HW1 5264   2.378   0.046   1.931 -0.1159 -0.1732 -0.2054
 1455SOL    HW2 5265   2.256  -0.059   1.903  0.0004 -0.5098  0.4986
 1456SOL     OW 5266   0.015   6.340   3.279  0.0389 -0.3967  0.3206
 1456SOL    HW1 5267   0.030   6.332   3.377  0.7970  0.2439  0.2610
 1456SOL    HW2 5268  -0.065   6.285   3.253 -0.4846 -0.1438  1.3709
 1457SOL     OW 5269   2.840   6.299   6.970 -0.0897 -0.1767 -0.0942
 1457SOL    HW1 5270   2.900   6.225   6.939  0.7417  0.0352  0.9500
 1457SOL    HW2 5271   2.877   6.387   6.941 -0.1664 -0.0742  0.1142
 1458SOL     OW 5272   4.820   1.992   1.605  0.5304  0.2036  0.0192
 1458SOL    HW1 5273   4.749   2.058   1.582 -0.2875 -0.1797  1.3454
 1458SOL    HW2 5274   4.876   2.027   1.680  1.5134  0.3288 -0.7469
 1459SOL     OW 5275   4.870   2.450   1.248  0.5528  0.3072  0.6257
 1459SOL    HW1 5276   4.837   2.543   1.230  0.3673  0.4715  1.6961
 1459SOL    HW2 5277   4.879   2.437   1.347 -2.3003 -1.7473  0.7405
 1460SOL     OW 5278   6.698   6.419   6.004  0.0857  0.1296 -0.3083
 1460SOL    HW1 5279   6.780   6.450   5.956  0.4018  0.0117  0.1581
 1460SOL    HW2 5280   6.704   6.321   6.022  1.4480  0.6663  2.8017
 1461SOL     OW 5281   3.280   5.156   1.700 -0.3683  0.3068 -0.2474
 1461SOL    HW1 5282   3.318   5.064   1.703  0.2092  0.5641  0.4792
 1461SOL    HW2 5283   3.181   5.152   1.704 -0.3227 -0.2630  0.3530
 1462SOL     OW 5284   6.131   0.217   3.165  0.7215  0.1123 -0.0963
 1462SOL    HW1 5285   6.119   0.312   3.191  0.5110  0.0104  0.1797
 1462SOL    HW2 5286   6.042   0.175   3.148  0.7788 -0.1802  0.3013
 1463SOL     OW 5287   1.413   6.060   1.372  0.1261 -0.2648  0.1996
 1463SOL    HW1 5288   1.434   5.962   1.373 -3.0653 -1.1772 -2.8151
 1463SOL    HW2 5289   1.489   6.110   1.328  1.3657 -1.4663  0.8987
 1464SOL     OW 5290   0.640   5.865   1.108 -0.0058 -0.2123  0.0988
 1464SOL    HW1 5291   0.557   5.830   1.066 -0.6951  1.6463 -0.1775
 1464SOL    HW2 5292   0.714   5.799   1.096 -1.0074 -1.1582 -1.1331
 1465SOL     OW 5293   6.336   5.729   5.042  0.2537  0.1648 -0.3496
 1465SOL    HW1 5294   6.325   5.799   5.113 -1.4909 -0.2388 -0.1673
 1465SOL    HW2 5295   6.433   5.719   5.020  0.7068  1.3240  0.9317
 1466SOL     OW 5296   4.527   4.814   2.590 -0.0073 -0.1193 -0.1400
 1466SOL    HW1 5297   4.464   4.830   2.666  1.6637 -0.5477  1.4081
 1466SOL    HW2 5298   4.542   4.716   2.578  0.2239 -0.0324 -0.5988
 1467SOL     OW 5299   2.731   2.684   6.343  0.1668 -0.2998  0.3402
 1467SOL    HW1 5300   2.753   2.725   6.431  0.0044 -0.2844  0.3729
 1467SOL    HW2 5301   2.635   2.659   6.340 -0.3213  1.5611 -0.5849
 1468SOL     OW 5302   3.159   6.396   6.589 -0.0400  0.5468  0.0928
 1468SOL    HW1 5303   3.200   6.396   6.680 -2.2357 -2.7612  1.2483
 1468SOL    HW2 5304   3.224   6.355   6.524  1.2512  2.2592  0.2262
 1469SOL     OW 5305   1.193   3.151   0.286  0.0633  0.7642  0.2796
 1469SOL    HW1 5306   1.186   3.251   0.297  0.1955  0.8702 -0.5467
 1469SOL    HW2 5307   1.105   3.109   0.307  0.2962  0.9394  1.7170
 1470SOL     OW 5308   5.742   2.283   0.442  0.5712  0.2077  0.0117
 1470SOL    HW1 5309   5.816   2.315   0.383 -0.2521  0.9063 -0.6799
 1470SOL    HW2 5310   5.714   2.192   0.414  0.7714  0.1817 -0.1049
 1471SOL     OW 5311   3.435   1.571   1.598  0.3479  0.6076  0.4930
 1471SOL    HW1 5312   3.455   1.480   1.561  0.0857  0.4054  0.8397
 1471SOL    HW2 5313   3.449   1.640   1.527 -3.3256 -0.0400 -1.1340
 1472SOL     OW 5314   4.102   6.113   2.006 -0.1092 -0.3435 -0.4757
 1472SOL    HW1 5315   4.008   6.144   2.010 -0.5434 -1.7386  1.0848
 1472SOL    HW2 5316   4.108   6.033   1.946 -0.2713 -1.3320  0.7994
 1473SOL     OW 5317   3.032   2.220   0.753 -0.1113  0.9338 -0.4837
 1473SOL    HW1 5318   3.007   2.155   0.824 -1.4718  1.6432 -0.2799
 1473SOL    HW2 5319   3.122   2.258   0.773  0.3691 -0.3167 -0.2097
 1474SOL     OW 5320   5.214   3.440   5.940 -0.1194 -0.7433 -0.7342
 1474SOL    HW1 5321   5.161   3.358   5.921 -0.6637 -0.0230 -2.5049
 1474SOL    HW2 5322   5.312   3.419   5.933 -0.2360 -0.7966 -3.7267
 1475SOL     OW 5323   4.583   3.535   5.306  0.3151  0.4089 -0.5948
 1475SOL    HW1 5324   4.484   3.531   5.288  0.1830  3.7396 -1.2510
 1475SOL    HW2 5325   4.632   3.545   5.219  1.1232  0.1224 -0.1840
 1476SOL     OW 5326   6.272   5.490   5.209  0.0418 -0.4140 -0.0689
 1476SOL    HW1 5327   6.279   5.584   5.178 -0.3749 -0.6145 -0.7768
 1476SOL    HW2 5328   6.340   5.474   5.281 -1.2672  1.0284  1.6100
 1477SOL     OW 5329   0.892   5.450   2.255  0.1932 -0.8027  0.2395
 1477SOL    HW1 5330   0.889   5.440   2.355  0.0733 -2.3994  0.0955
 1477SOL    HW2 5331   0.804   5.483   2.222  0.5564  0.7588  0.7367
 1478SOL     OW 5332   4.932   1.909   5.608 -0.0252 -0.5120 -0.2456
 1478SOL    HW1 5333   4.892   1.881   5.696 -0.6479  0.1452 -0.3126
 1478SOL    HW2 5334   4.953   2.006   5.610  2.0952 -0.9217 -0.0349
 1479SOL     OW 5335   0.326   2.986   2.635  0.3141 -0.8742  0.4683
 1479SOL    HW1 5336   0.234   2.987   2.676  0.4262 -1.7645  0.7506
 1479SOL    HW2 5337   0.331   3.057   2.565 -0.5254 -0.6709  0.6001
 1480SOL     OW 5338   5.380   3.078   5.413  0.3565 -0.2277  0.1587
 1480SOL    HW1 5339   5.313   3.023   5.363  0.7243 -1.7079  1.2169
 1480SOL    HW2 5340   5.344   3.100   5.504  1.2891 -1.0473  0.7397
 1481SOL     OW 5341   4.420   6.980   2.765 -0.2711 -0.0068 -0.0131
 1481SOL    HW1 5342   4.499   6.953   2.711  1.0026 -1.5353  2.4095
 1481SOL    HW2 5343   4.401   7.077   2.750  1.8071  0.3120 -0.9709
 1482SOL     OW 5344   0.918   2.966   4.647 -0.0115 -0.6064 -0.2706
 1482SOL    HW1 5345   0.860   2.899   4.694 -1.6191 -0.6203 -2.1185
 1482SOL    HW2 5346   0.864   3.013   4.578  2.1108 -0.2845 -1.8005
 1483SOL     OW 5347   6.746   3.449   4.203 -0.0215  0.1293 -0.0847
 1483SOL    HW1 5348   6.684   3.415   4.274 -1.0544  0.6034 -0.7344
 1483SOL    HW2 5349   6.802   3.374   4.169 -0.9513 -0.5385 -0.1815
 1484SOL     OW 5350   3.013   2.631   6.920  0.0678  0.1262  0.1228
 1484SOL    HW1 5351   3.058   2.630   7.009  0.5329 -1.0675 -0.1119
 1484SOL    HW2 5352   2.946   2.558   6.916 -0.1571  0.3595 -0.4149
 1485SOL     OW 5353   0.484   0.655   2.011  0.2132 -0.2189  0.6048
 1485SOL    HW1 5354   0.387   0.679   2.004  0.3966  0.5773  0.6886
 1485SOL    HW2 5355   0.523   0.696   2.094  0.7169 -0.1803  0.3557
 1486SOL     OW 5356   0.044   2.331   1.750 -0.1449  0.6425  0.2349
 1486SOL    HW1 5357  -0.025   2.354   1.818 -0.5814 -0.8793  0.3392
 1486SOL    HW2 5358   0.114   2.402   1.749  0.2619  0.3728  2.7784
 1487SOL     OW 5359   2.789   2.858   1.194 -0.3474  0.1512 -0.4733
 1487SOL    HW1 5360   2.820   2.847   1.288 -1.9764 -1.2686 -0.0358
 1487SOL    HW2 5361   2.866   2.848   1.131  0.4998 -0.4816  0.6457
 1488SOL     OW 5362   0.570   6.523   2.564 -0.2261 -0.5725 -0.2782
 1488SOL    HW1 5363   0.667   6.541   2.579 -0.2677  0.6709 -1.2790
 1488SOL    HW2 5364   0.555   6.425   2.554  0.9682 -0.7516 -0.4597
 1489SOL     OW 5365   2.659   6.787   1.949 -0.0792  0.4484 -0.7599
 1489SOL    HW1 5366   2.740   6.736   1.921 -0.8899 -1.1219 -0.3608
 1489SOL    HW2 5367   2.660   6.798   2.048  0.3235  1.6815 -0.8779
 1490SOL     OW 5368   0.972   4.357   5.042  0.3524  0.3522 -0.3346
 1490SOL    HW1 5369   1.007   4.416   4.969  4.1120 -2.5613 -1.2266
 1490SOL    HW2 5370   1.049   4.319   5.093 -2.0653  0.8761  4.1958
 1491SOL     OW 5371   1.920   0.546   2.069  0.4450  0.0162  0.2947
 1491SOL    HW1 5372   1.982   0.608   2.022 -0.7455 -1.6035 -3.9323
 1491SOL    HW2 5373   1.825   0.572   2.049 -0.0780 -2.5578 -1.0745
 1492SOL     OW 5374   3.921   0.856   3.631  0.1490  0.3586  0.1996
 1492SOL    HW1 5375   3.899   0.758   3.632 -0.5019  0.4969  0.0064
 1492SOL    HW2 5376   3.905   0.894   3.722 -2.2065  0.8237 -0.3423
 1493SOL     OW 5377   4.006   5.987   0.963 -0.4396 -0.9735  0.4153
 1493SOL    HW1 5378   3.924   6.043   0.968  0.5099  0.3547  3.8315
 1493SOL    HW2 5379   4.057   6.009   0.879 -1.8742  0.5959 -0.0987
 1494SOL     OW 5380   0.815   3.386   2.833  0.2579 -0.8471 -0.1846
 1494SOL    HW1 5381   0.853   3.295   2.813  1.9228 -0.1827 -0.1870
 1494SOL    HW2 5382   0.853   3.453   2.770  0.9294  0.2562  1.3232
 1495SOL     OW 5383   6.539   2.266   6.213 -0.1668 -0.2534 -0.4849
 1495SOL    HW1 5384   6.610   2.210   6.169 -1.4141 -1.8748 -0.5429
 1495SOL    HW2 5385   6.550   2.262   6.312  1.0892  1.2822 -0.5297
 1496SOL     OW 5386   0.120   3.263   4.846  0.3949 -0.2074 -0.0044
 1496SOL    HW1 5387   0.040   3.264   4.906 -1.3126  1.0116 -2.1727
 1496SOL    HW2 5388   0.180   3.340   4.868 -0.0630  0.0553  0.3132
 1497SOL     OW 5389   0.001   1.010   3.706 -0.1432  0.0344  0.4030
 1497SOL    HW1 5390   0.048   0.951   3.640 -2.3199 -1.5017  0.1460
 1497SOL    HW2 5391   0.017   0.976   3.798 -1.6032 -1.1535  0.2368
 1498SOL     OW 5392   5.420   0.666   1.684 -0.7761  0.3595  0.3788
 1498SOL    HW1 5393   5.349   0.669   1.614 -0.1934 -0.0823 -0.2470
 1498SOL    HW2 5394   5.480   0.746   1.673  1.8171 -1.7299 -2.3777
 1499SOL     OW 5395   2.807   2.631   6.641  0.5250  0.3301 -0.0487
 1499SOL    HW1 5396   2.801   2.536   6.613  1.8449  0.0682  0.4668
 1499SOL    HW2 5397   2.901   2.663   6.630  0.1323  1.5390 -0.0894
 1500SOL     OW 5398   0.271   3.224   6.174  0.0422  0.0531  0.0065
 1500SOL    HW1 5399   0.269   3.139   6.226 -3.0197  0.1599  0.2066
 1500SOL    HW2 5400   0.336   3.288   6.216  1.8045 -1.8464  0.3058
 1501SOL     OW 5401   5.880   3.360   0.243 -0.3236  0.3327 -0.3888
 1501SOL    HW1 5402   5.790   3.360   0.287 -0.7462  2.3160 -1.1410
 1501SOL    HW2 5403   5.950   3.349   0.313 -1.0023  2.8778  0.8187
 1502SOL     OW 5404   2.618   4.306   5.959 -0.1786  0.1688  0.4610
 1502SOL    HW1 5405   2.611   4.212   5.927  0.9915 -0.2141  1.2544
 1502SOL    HW2 5406   2.542   4.360   5.922 -1.3056 -1.2521  0.6088
 1503SOL     OW 5407   3.998   6.560   3.240 -0.2152  0.1122 -0.3999
 1503SOL    HW1 5408   3.999   6.595   3.333 -1.1815  0.2740 -0.4348
 1503SOL    HW2 5409   3.976   6.462   3.241 -1.5074  0.3788 -0.5051
 1504SOL     OW 5410   5.185   2.783   4.483  0.5631 -0.3707 -0.7261
 1504SOL    HW1 5411   5.108   2.776   4.546  0.4945 -2.5626 -0.9778
 1504SOL    HW2 5412   5.151   2.791   4.389  0.6758  1.7979 -0.6354
 1505SOL     OW 5413   2.340   0.202   0.943 -0.3539  0.0237 -0.3759
 1505SOL    HW1 5414   2.416   0.205   1.008 -1.2094 -1.7244  0.7851
 1505SOL    HW2 5415   2.342   0.115   0.892 -1.1314  0.2835 -0.8818
 1506SOL     OW 5416   0.722   3.075   0.652  0.1112 -0.1441 -0.0416
 1506SOL    HW1 5417   0.734   2.990   0.703 -1.1103 -0.9824 -1.0838
 1506SOL    HW2 5418   0.677   3.143   0.711  2.1801  0.2504  1.1906
 1507SOL     OW 5419   1.025   2.792   1.963 -0.4958 -0.1206 -0.1382
 1507SOL    HW1 5420   1.022   2.693   1.973 -0.5233 -0.3084 -1.7116
 1507SOL    HW2 5421   1.094   2.830   2.024  0.4542 -1.2570 -0.4649
 1508SOL     OW 5422   0.697   5.928   4.017 -0.5095 -0.0327  0.6425
 1508SOL    HW1 5423   0.601   5.929   3.990 -1.0093  0.8422  2.3393
 1508SOL    HW2 5424   0.732   6.022   4.017 -0.0944 -0.1853  1.5318
 1509SOL     OW 5425   5.801   1.809   5.220 -0.1967  0.2183 -0.0699
 1509SOL    HW1 5426   5.784   1.877   5.149 -0.8986  0.6811  0.5311
 1509SOL    HW2 5427   5.850   1.731   5.180 -0.8138  0.3429 -1.1230
 1510SOL     OW 5428   2.049   2.583   2.380  0.2773  0.0187  0.1612
 1510SOL    HW1 5429   2.064   2.677   2.411  1.3405 -0.2845  0.6208
 1510SOL    HW2 5430   2.053   2.580   2.280  0.0292  0.4950  0.1349
 1511SOL     OW 5431   1.247   6.218   0.262 -0.1462 -0.2874  0.5725
 1511SOL    HW1 5432   1.194   6.293   0.300 -0.8041 -0.8122  0.7148
 1511SOL    HW2 5433   1.316   6.189   0.328  1.7828  1.7803 -0.4148
 1512SOL     OW 5434   3.359   6.937   0.234 -0.2494  0.5236 -0.5524
 1512SOL    HW1 5435   3.382   6.885   0.316  0.7344 -0.8839 -1.6778
 1512SOL    HW2 5436   3.349   6.875   0.157  0.2758  1.9353 -1.8070
 1513SOL     OW 5437   6.238   2.882   3.499 -0.0433 -0.7114 -0.5219
 1513SOL    HW1 5438   6.297   2.804   3.519  0.5118  0.1433  1.3465
 1513SOL    HW2 5439   6.150   2.869   3.546  0.2728  0.0530  0.2959
 1514SOL     OW 5440   5.184   0.106   6.853  0.0901  0.3829  0.4015
 1514SOL    HW1 5441   5.113   0.039   6.832  0.0829  0.7141 -0.6659
 1514SOL    HW2 5442   5.262   0.059   6.894  0.3074 -0.3840 -0.8326
 1515SOL     OW 5443   6.676   6.383   0.772  0.1256 -0.1736 -0.0804
 1515SOL    HW1 5444   6.731   6.302   0.792  1.4588  0.9603  1.0980
 1515SOL    HW2 5445   6.591   6.379   0.826  1.3762  0.4014  2.0516
 1516SOL     OW 5446   4.504   1.685   1.847 -0.5232 -0.2606  0.6622
 1516SOL    HW1 5447   4.448   1.724   1.920  0.9472  2.2764  0.5621
 1516SOL    HW2 5448   4.502   1.746   1.768  0.3671 -1.3941 -0.2643
 1517SOL     OW 5449   3.203   5.225   5.814 -0.3500 -0.1455  0.0640
 1517SOL    HW1 5450   3.283   5.186   5.770  0.0265  1.6269 -0.9350
 1517SOL    HW2 5451   3.140   5.152   5.841  0.7921 -1.4516 -0.7073
 1518SOL     OW 5452   1.729   6.027   3.074 -0.2177  0.4893 -0.1366
 1518SOL    HW1 5453   1.742   6.105   3.012 -0.7985  0.8543  0.1889
 1518SOL    HW2 5454   1.817   5.982   3.091  0.1003  0.9951 -0.4274
 1519SOL     OW 5455   4.725   3.979   1.392 -0.3972 -0.1378 -0.2792
 1519SOL    HW1 5456   4.693   3.978   1.486 -1.6301 -0.1602 -0.6707
 1519SOL    HW2 5457   4.797   3.912   1.379 -1.1572 -1.1034  0.3465
 1520SOL     OW 5458   5.594   5.835   6.393  0.1847  0.1121  0.0423
 1520SOL    HW1 5459   5.520   5.780   6.353 -1.7680  1.1720  1.9759
 1520SOL    HW2 5460   5.681   5.806   6.354 -1.0740 -2.1016 -1.3955
 1521SOL     OW 5461   0.470   4.938   1.747 -0.3122  0.0796 -0.3719
 1521SOL    HW1 5462   0.567   4.920   1.767 -0.2864 -0.0281 -0.5920
 1521SOL    HW2 5463   0.413   4.875   1.800 -0.2332 -0.4189 -0.8651
 1522SOL     OW 5464   5.227   0.697   1.522 -0.3058 -0.5297 -0.3190
 1522SOL    HW1 5465   5.154   0.629   1.511 -0.1689 -0.7939  0.3470
 1522SOL    HW2 5466   5.212   0.772   1.458 -1.6447 -0.1616  0.3796
 1523SOL     OW 5467   4.435   6.724   4.047 -0.0289 -0.0234  0.1942
 1523SOL    HW1 5468   4.487   6.639   4.033 -0.0482 -0.0072  0.0248
 1523SOL    HW2 5469   4.459   6.789   3.975  1.1088  0.6641  1.1562
 1524SOL     OW 5470   0.641   1.213   1.202 -0.0510  0.3656  0.0365
 1524SOL    HW1 5471   0.706   1.143   1.230 -1.2706 -0.3303  1.2825
 1524SOL    HW2 5472   0.636   1.216   1.102 -0.7763 -2.1533 -0.0664
 1525SOL     OW 5473   0.252   0.345   7.009  0.2567  0.7801  0.5591
 1525SOL    HW1 5474   0.323   0.353   7.078  0.7729 -0.3774  0.1860
 1525SOL    HW2 5475   0.293   0.339   6.918 -0.3747  1.3733  0.2232
 1526SOL     OW 5476   4.343   2.284   6.058  0.1535 -0.3498 -0.2638
 1526SOL    HW1 5477   4.249   2.278   6.025  0.2725  0.0878 -0.6879
 1526SOL    HW2 5478   4.405   2.239   5.994  0.3519  0.2620 -0.5082
 1527SOL     OW 5479   1.048   4.631   2.485  0.4411 -0.2089  0.3021
 1527SOL    HW1 5480   1.100   4.700   2.434  1.5256 -1.8347 -0.8947
 1527SOL    HW2 5481   0.973   4.675   2.534  2.6492  2.1965  1.7702
 1528SOL     OW 5482   3.513   0.609   6.686  0.2876  0.4793 -0.0674
 1528SOL    HW1 5483   3.600   0.638   6.725  0.0381  0.1434  0.7423
 1528SOL    HW2 5484   3.462   0.555   6.753 -0.8355  1.2270 -0.2969
 1529SOL     OW 5485   2.886   2.783   1.651  0.4209  0.3643 -0.1026
 1529SOL    HW1 5486   2.923   2.806   1.561 -0.7725  1.2670 -0.3874
 1529SOL    HW2 5487   2.920   2.693   1.679  0.7666  0.0448 -1.4812
 1530SOL     OW 5488   5.833   1.311   5.423  0.2230  0.9080  0.2771
 1530SOL    HW1 5489   5.788   1.368   5.354  0.0680  0.8047  0.2910
 1530SOL    HW2 5490   5.916   1.271   5.385  0.7842  1.8027  0.5241
 1531SOL     OW 5491   5.420   1.052   3.264  0.3140 -0.2561  0.5120
 1531SOL    HW1 5492   5.431   0.977   3.200  1.2397  0.8182 -0.6344
 1531SOL    HW2 5493   5.493   1.048   3.333 -1.0441 -1.7753  1.9426
 1532SOL     OW 5494   5.232   0.420   5.548 -0.0754  0.0802 -0.9118
 1532SOL    HW1 5495   5.177   0.342   5.578  1.2339 -0.4765  0.1357
 1532SOL    HW2 5496   5.265   0.470   5.628  0.3915  0.8007 -1.5398
 1533SOL     OW 5497   3.889   3.187   3.412 -0.4907 -0.3836 -0.0862
 1533SOL    HW1 5498   3.986   3.184   3.387 -0.3127  1.6693  0.1470
 1533SOL    HW2 5499   3.880   3.173   3.511 -0.3152  0.3542  0.0437
 1534SOL     OW 5500   5.101   3.250   6.161  0.5432 -0.0784  0.5576
 1534SOL    HW1 5501   5.096   3.245   6.061  1.1292  0.0967  0.5135
 1534SOL    HW2 5502   5.010   3.239   6.200  0.4185 -0.9537  0.0362
 1535SOL     OW 5503   0.857   1.397   6.147 -0.0928  0.1490  0.3608
 1535SOL    HW1 5504   0.807   1.314   6.172 -0.6972 -0.0719 -1.4938
 1535SOL    HW2 5505   0.798   1.477   6.156 -0.7935 -0.0976 -1.7057
 1536SOL     OW 5506   5.595   6.133   3.777 -0.2720 -0.0288 -0.4267
 1536SOL    HW1 5507   5.677   6.079   3.796 -0.7582 -0.6742 -0.1169
 1536SOL    HW2 5508   5.613   6.230   3.795  0.4652 -0.1461 -0.5206
 1537SOL     OW 5509   3.524   0.685   6.335 -0.2468 -0.2295 -0.6775
 1537SOL    HW1 5510   3.592   0.633   6.387  0.0672  0.1206 -0.7377
 1537SOL    HW2 5511   3.476   0.748   6.397  1.9263  2.0923 -1.2375
 1538SOL     OW 5512   0.625   2.907   3.162  0.6391 -0.0782  0.5027
 1538SOL    HW1 5513   0.679   2.933   3.082 -1.5012 -0.6800 -1.2312
 1538SOL    HW2 5514   0.665   2.825   3.204  2.0490  0.5141  0.3728
 1539SOL     OW 5515   4.173   1.181   6.209 -0.5275 -0.5815 -0.2966
 1539SOL    HW1 5516   4.078   1.211   6.204 -0.9524 -2.0339 -1.6970
 1539SOL    HW2 5517   4.179   1.096   6.262  0.4507  0.9946  2.3297
 1540SOL     OW 5518   4.944   3.037   4.802 -0.6192  0.4366  0.4354
 1540SOL    HW1 5519   5.031   3.057   4.757 -0.7700 -0.5597 -0.3590
 1540SOL    HW2 5520   4.907   3.120   4.842  0.5115  0.9547  0.4545
 1541SOL     OW 5521   6.768   3.615   2.482 -0.0640  0.3196 -0.2045
 1541SOL    HW1 5522   6.760   3.650   2.576 -3.3778 -0.5190 -0.0583
 1541SOL    HW2 5523   6.736   3.520   2.479 -2.5235  1.1307 -2.5818
 1542SOL     OW 5524   5.853   4.774   2.588 -0.0807  0.2912  0.1074
 1542SOL    HW1 5525   5.789   4.851   2.586  0.2575  0.5578 -1.0737
 1542SOL    HW2 5526   5.806   4.691   2.559 -0.2059  0.2334  0.4680
 1543SOL     OW 5527   3.614   2.620   6.951 -0.4988  0.4416 -0.5918
 1543SOL    HW1 5528   3.598   2.678   6.870  0.0021  0.9310 -0.3489
 1543SOL    HW2 5529   3.696   2.652   6.998 -1.1791  0.6145  0.5147
 1544SOL     OW 5530   1.072   2.729   5.573  0.1777  0.0900  0.6261
 1544SOL    HW1 5531   1.123   2.799   5.623 -1.6309  2.4968 -0.6741
 1544SOL    HW2 5532   1.104   2.726   5.478 -1.2615  0.8923  0.0693
 1545SOL     OW 5533   2.625   4.648   6.959  0.5933  0.1320  0.3627
 1545SOL    HW1 5534   2.557   4.717   6.984  1.2756  1.1633 -0.5428
 1545SOL    HW2 5535   2.673   4.617   7.041  0.1393  0.5790  0.8020
 1546SOL     OW 5536   5.980   4.122   0.084  0.0449  0.0105  0.0678
 1546SOL    HW1 5537   6.039   4.201   0.101 -0.1521  0.0602  0.5379
 1546SOL    HW2 5538   5.884   4.148   0.096 -0.1154  0.0445 -1.1494
 1547SOL     OW 5539   3.901   6.047   3.600 -0.0236  0.4768 -0.4890
 1547SOL    HW1 5540   3.960   6.109   3.548  0.7367  0.5179  0.3914
 1547SOL    HW2 5541   3.884   6.085   3.690 -1.0485  0.2470 -0.5753
 1548SOL     OW 5542   6.005   1.626   3.710  0.5644 -0.1511  0.1863
 1548SOL    HW1 5543   5.967   1.576   3.633 -0.9377  0.4653  0.4850
 1548SOL    HW2 5544   5.971   1.587   3.796  1.3075 -0.1228  0.5017
 1549SOL     OW 5545   5.551   3.360   4.192  0.6439  0.0855  0.4308
 1549SOL    HW1 5546   5.536   3.354   4.291  0.8792  0.0432  0.4647
 1549SOL    HW2 5547   5.466   3.338   4.145  0.5698 -0.0507  0.6218
 1550SOL     OW 5548   1.732   6.419   6.757  0.5936 -0.6478 -0.1372
 1550SOL    HW1 5549   1.715   6.511   6.791 -3.3334 -0.3031 -2.5234
 1550SOL    HW2 5550   1.678   6.353   6.809  0.5366 -1.1079 -0.7615
 1551SOL     OW 5551   6.599   5.257   6.186  0.0801 -0.2293 -0.0036
 1551SOL    HW1 5552   6.529   5.327   6.202  1.0034  0.1785  2.7084
 1551SOL    HW2 5553   6.557   5.166   6.189 -0.8109  0.0952 -1.6413
 1552SOL     OW 5554   2.419   6.983   5.807 -0.1473  0.0656 -0.5316
 1552SOL    HW1 5555   2.437   6.965   5.904  3.2880  1.6285 -0.7348
 1552SOL    HW2 5556   2.370   6.906   5.767  2.1866 -2.6733  1.5048
 1553SOL     OW 5557   0.005   2.370   5.618 -0.8606  0.1922 -0.4230
 1553SOL    HW1 5558   0.102   2.378   5.640 -1.4793  3.1520  1.9093
 1553SOL    HW2 5559  -0.020   2.436   5.548 -1.2050 -0.7219 -1.1915
 1554SOL     OW 5560   1.724   4.084   4.050 -0.5585  0.5538 -0.4395
 1554SOL    HW1 5561   1.629   4.105   4.027 -1.1030 -1.4083 -0.1292
 1554SOL    HW2 5562   1.779   4.091   3.967 -0.7456  2.5827 -0.4617
 1555SOL     OW 5563   1.342   3.063   4.743  0.3004 -0.3927  0.3002
 1555SOL    HW1 5564   1.277   3.077   4.818  1.0432 -0.1738  0.9101
 1555SOL    HW2 5565   1.302   3.000   4.676 -1.6217  1.7122 -0.6660
 1556SOL     OW 5566   6.801   0.544   0.583 -0.4081 -0.0543  0.3391
 1556SOL    HW1 5567   6.702   0.560   0.579 -0.6118 -1.3203 -0.2007
 1556SOL    HW2 5568   6.831   0.502   0.498  0.5131 -0.1381  0.6983
 1557SOL     OW 5569   1.867   5.725   3.380  0.3551 -0.4204  0.1112
 1557SOL    HW1 5570   1.867   5.717   3.480  1.2846  1.3462  0.2986
 1557SOL    HW2 5571   1.802   5.660   3.341  2.0186 -3.2100  1.6429
 1558SOL     OW 5572   1.400   3.550   0.663  0.2280  0.0995 -0.1853
 1558SOL    HW1 5573   1.443   3.594   0.584 -0.9796  0.1155 -0.8513
 1558SOL    HW2 5574   1.312   3.593   0.682 -1.0960 -2.0901 -0.9805
 1559SOL     OW 5575   5.460   0.129   3.919  0.0502  0.0168  0.4608
 1559SOL    HW1 5576   5.489   0.213   3.966  0.7097 -0.0868  0.2414
 1559SOL    HW2 5577   5.364   0.111   3.941  0.1731  0.3074  1.2695
 1560SOL     OW 5578   0.562   2.486   1.858  0.0088 -0.2507 -0.0148
 1560SOL    HW1 5579   0.598   2.554   1.922  1.2066 -0.3379 -0.5813
 1560SOL    HW2 5580   0.580   2.394   1.893  1.7934 -0.3231 -1.0434
 1561SOL     OW 5581   1.680   6.738   3.045  0.3561  0.5174 -0.0315
 1561SOL    HW1 5582   1.756   6.788   3.003  2.3172 -0.1516  2.4591
 1561SOL    HW2 5583   1.672   6.648   3.003  1.0178  0.5552 -0.2604
 1562SOL     OW 5584   0.149   5.368   3.023 -0.1221  0.5675 -1.0276
 1562SOL    HW1 5585   0.062   5.400   3.061  1.1217  0.3832  2.2401
 1562SOL    HW2 5586   0.222   5.384   3.089  2.2771  0.1271 -3.4207
 1563SOL     OW 5587   2.336   5.288   3.867 -0.4493  0.3322  0.4163
 1563SOL    HW1 5588   2.264   5.283   3.936 -0.9990  0.0620 -0.1717
 1563SOL    HW2 5589   2.425   5.282   3.912 -0.8155 -0.5351  1.0509
 1564SOL     OW 5590   6.983   4.126   3.020  0.2933  0.2543 -0.1182
 1564SOL    HW1 5591   6.923   4.084   2.952  0.2566  2.3466 -1.4420
 1564SOL    HW2 5592   7.076   4.134   2.983  0.5944  0.2131  0.6003
 1565SOL     OW 5593   1.529   3.085   5.711  0.3529  0.5931  0.1795
 1565SOL    HW1 5594   1.533   3.178   5.748  1.7932  1.2077 -1.4043
 1565SOL    HW2 5595   1.477   3.027   5.774 -0.3271  2.3756  1.3594
 1566SOL     OW 5596   4.318   4.619   6.759  0.9175  0.3237 -0.1902
 1566SOL    HW1 5597   4.395   4.629   6.697  1.6868 -0.4980  0.5847
 1566SOL    HW2 5598   4.350   4.633   6.853  0.0938  0.1087  0.1274
 1567SOL     OW 5599   3.046   2.123   0.476 -0.4567 -0.0210  0.7256
 1567SOL    HW1 5600   3.057   2.030   0.441 -2.0655  0.3088 -0.7867
 1567SOL    HW2 5601   2.997   2.120   0.563  1.7572 -0.7019  2.0557
 1568SOL     OW 5602   5.158   6.382   2.239 -0.5078  0.1177  0.0534
 1568SOL    HW1 5603   5.069   6.397   2.283 -1.2100  0.7280 -1.5261
 1568SOL    HW2 5604   5.201   6.470   2.220 -0.8722 -0.0493 -1.7275
 1569SOL     OW 5605   4.543   5.843   6.805 -0.4662 -0.1222  0.1582
 1569SOL    HW1 5606   4.571   5.938   6.794 -1.4989  0.3002  1.0116
 1569SOL    HW2 5607   4.459   5.827   6.753  0.6531 -1.0708 -1.4501
 1570SOL     OW 5608   6.999   1.109   4.108  0.2653  0.4753 -0.4858
 1570SOL    HW1 5609   6.978   1.204   4.085 -0.2196  0.1444 -1.4817
 1570SOL    HW2 5610   6.940   1.078   4.182 -0.6746  0.4776 -1.2229
 1571SOL     OW 5611   2.813   6.644   0.873 -0.4255 -0.6664  0.1439
 1571SOL    HW1 5612   2.872   6.668   0.949 -1.9422  0.4245  1.0447
 1571SOL    HW2 5613   2.726   6.693   0.882 -1.2717 -1.7993 -1.3947
 1572SOL     OW 5614   2.922   2.396   0.128  0.1520  0.0190 -0.0523
 1572SOL    HW1 5615   3.020   2.407   0.143  0.0797 -0.8092  1.2400
 1572SOL    HW2 5616   2.886   2.329   0.194 -0.6451 -2.4531 -2.7766
 1573SOL     OW 5617   5.857   2.276   6.071  0.3848  0.4498 -0.6405
 1573SOL    HW1 5618   5.775   2.228   6.039 -1.1627  2.7300 -0.3286
 1573SOL    HW2 5619   5.831   2.347   6.136  2.9712 -0.9045  2.1097
 1574SOL     OW 5620   5.219   6.765   0.483  0.0865  0.1200  0.5611
 1574SOL    HW1 5621   5.141   6.732   0.429  0.4522  0.9239 -0.4921
 1574SOL    HW2 5622   5.187   6.796   0.572 -1.0863  2.0174 -0.4721
 1575SOL     OW 5623   0.642   5.641   4.238  0.2991  0.3864  0.4638
 1575SOL    HW1 5624   0.659   5.545   4.258 -0.7681  0.4820  2.0293
 1575SOL    HW2 5625   0.728   5.687   4.216  0.6779 -1.1681 -1.5911
 1576SOL     OW 5626   0.369   2.783   0.973 -0.2234 -0.5022 -0.0482
 1576SOL    HW1 5627   0.398   2.828   0.888 -0.9606 -0.0982 -0.0936
 1576SOL    HW2 5628   0.398   2.687   0.971 -0.2167 -0.4921 -0.7464
 1577SOL     OW 5629   0.543   6.458   5.448  0.3180 -0.4340  0.1757
 1577SOL    HW1 5630   0.596   6.508   5.517 -0.1430  0.4383 -0.0860
 1577SOL    HW2 5631   0.584   6.368   5.434  2.0927  0.4022 -0.4145
 1578SOL     OW 5632   4.492   2.154   3.320  0.3039 -0.0081  0.0524
 1578SOL    HW1 5633   4.531   2.243   3.341  2.9236 -0.5695 -1.9666
 1578SOL    HW2 5634   4.401   2.166   3.280 -1.8177  1.3628  4.6204
 1579SOL     OW 5635   2.038   3.845   1.328 -0.3877 -0.1205  0.2535
 1579SOL    HW1 5636   1.956   3.798   1.295 -1.0896  1.1767  0.1051
 1579SOL    HW2 5637   2.069   3.910   1.259 -0.1430  0.5061  0.9459
 1580SOL     OW 5638   3.014   6.763   3.892 -0.4788  0.1319  0.1062
 1580SOL    HW1 5639   3.083   6.790   3.825 -0.0644  0.6688  0.7447
 1580SOL    HW2 5640   3.004   6.834   3.961  0.4018 -1.1836  1.6516
 1581SOL     OW 5641   4.150   5.848   3.204  0.5973  0.0818  0.5171
 1581SOL    HW1 5642   4.146   5.817   3.299  2.4419  1.6930  1.2045
 1581SOL    HW2 5643   4.230   5.907   3.193  0.1913  0.2423 -1.9650
 1582SOL     OW 5644   1.243   3.122   6.824 -0.1851  0.8875 -0.2856
 1582SOL    HW1 5645   1.330   3.127   6.872 -0.6681 -0.8496  0.8771
 1582SOL    HW2 5646   1.177   3.073   6.880 -1.6014  1.2227 -1.5974
 1583SOL     OW 5647   0.470   3.052   1.855  0.3797 -0.3217  0.0546
 1583SOL    HW1 5648   0.456   3.072   1.951  2.3584  1.1701  0.1083
 1583SOL    HW2 5649   0.496   2.956   1.844  2.0031 -0.0734  1.2918
 1584SOL     OW 5650   5.757   1.735   6.465 -0.2120 -0.0611 -0.2931
 1584SOL    HW1 5651   5.752   1.756   6.562  1.8248  0.2356 -0.2049
 1584SOL    HW2 5652   5.838   1.779   6.426  0.0111 -1.6577 -1.7375
 1585SOL     OW 5653   0.411   1.631   1.689 -0.3994 -0.8302 -0.7537
 1585SOL    HW1 5654   0.463   1.649   1.772 -2.2774 -0.9428  0.4970
 1585SOL    HW2 5655   0.429   1.538   1.658  2.0736 -0.0773 -1.8536
 1586SOL     OW 5656   3.538   6.639   2.077 -0.0534 -0.2331 -0.2663
 1586SOL    HW1 5657   3.492   6.553   2.100 -0.6164  0.1763  0.1732
 1586SOL    HW2 5658   3.591   6.670   2.156 -1.6047  0.9304  0.3629
 1587SOL     OW 5659   1.574   2.180   0.061 -0.5980 -0.2055  0.0318
 1587SOL    HW1 5660   1.522   2.258   0.024 -1.0951 -0.3770  0.3528
 1587SOL    HW2 5661   1.624   2.210   0.142 -0.7750 -0.2088  0.1447
 1588SOL     OW 5662   3.029   6.505   5.911 -0.7089  0.4497 -0.5642
 1588SOL    HW1 5663   2.966   6.583   5.919 -2.0620 -0.7200  0.6368
 1588SOL    HW2 5664   3.075   6.490   5.999  1.6502  1.5228 -1.5104
 1589SOL     OW 5665   6.136   1.231   1.177 -0.2503 -0.9115 -0.3235
 1589SOL    HW1 5666   6.071   1.260   1.248  0.8393  1.3223 -0.1399
 1589SOL    HW2 5667   6.113   1.139   1.146 -3.0672 -0.4996  0.2295
 1590SOL     OW 5668   0.180   1.920   6.385 -0.1105  0.1061  0.1300
 1590SOL    HW1 5669   0.160   2.015   6.361 -0.0847  0.3126  0.8859
 1590SOL    HW2 5670   0.209   1.870   6.304  0.1143  0.8103 -0.2278
 1591SOL     OW 5671   3.856   1.143   3.368 -0.1192  0.0943 -0.1368
 1591SOL    HW1 5672   3.798   1.130   3.448  0.2255 -0.3527  0.0499
 1591SOL    HW2 5673   3.887   1.053   3.335 -2.2088  0.0710 -2.2413
 1592SOL     OW 5674   1.685   5.112   1.870  0.2366  0.3642 -0.0662
 1592SOL    HW1 5675   1.625   5.120   1.790  0.4272 -0.9852 -0.3769
 1592SOL    HW2 5676   1.643   5.156   1.948 -1.8595 -1.6836  0.0852
 1593SOL     OW 5677   1.291   2.389   5.284  0.2511  0.4836  0.0113
 1593SOL    HW1 5678   1.270   2.362   5.378  2.9387  2.0960  1.1950
 1593SOL    HW2 5679   1.211   2.435   5.244 -1.3888 -1.3841  0.9660
 1594SOL     OW 5680   1.791   1.332   6.389  0.0650  0.1073 -0.3859
 1594SOL    HW1 5681   1.810   1.333   6.487  0.1214  0.4957 -0.4006
 1594SOL    HW2 5682   1.806   1.239   6.353 -0.3161 -0.1230  0.0381
 1595SOL     OW 5683   1.005   3.013   0.763  0.0696 -0.0527  0.3863
 1595SOL    HW1 5684   0.943   2.941   0.793  0.3066 -0.4061  0.0359
 1595SOL    HW2 5685   0.977   3.100   0.804  0.0226 -0.4095  1.1360
 1596SOL     OW 5686   5.622   1.731   5.404  0.1929 -0.2288  0.9098
 1596SOL    HW1 5687   5.688   1.759   5.335 -0.0810  0.5963  0.9708
 1596SOL    HW2 5688   5.667   1.672   5.471  0.3487 -1.4465 -0.2195
 1597SOL     OW 5689   6.113   2.247   3.534 -0.2182  0.1151  0.1560
 1597SOL    HW1 5690   6.209   2.270   3.518 -0.3750  0.2969 -0.5718
 1597SOL    HW2 5691   6.066   2.235   3.446 -0.4299 -1.8606  0.5092
 1598SOL     OW 5692   2.589   6.848   1.297  0.6478  0.4002 -0.4503
 1598SOL    HW1 5693   2.684   6.838   1.327  0.0829 -0.4364  1.2246
 1598SOL    HW2 5694   2.554   6.759   1.268  0.5502  0.8245 -1.6537
 1599SOL     OW 5695   5.984   4.358   6.770  0.2922  0.4689 -0.7446
 1599SOL    HW1 5696   5.899   4.393   6.732  0.1495 -0.3907 -1.2272
 1599SOL    HW2 5697   6.019   4.423   6.838 -0.2231  1.3009 -1.2567
 1600SOL     OW 5698   1.587   5.993   3.321 -0.0625 -0.3906  0.3053
 1600SOL    HW1 5699   1.615   6.010   3.227  0.2118 -2.1238  0.0312
 1600SOL    HW2 5700   1.567   5.895   3.332  2.0054 -0.6576  2.5628
 1601SOL     OW 5701   3.346   5.937   0.174  0.1435  0.5044  0.3606
 1601SOL    HW1 5702   3.364   5.841   0.194 -2.1105  0.1017  0.7668
 1601SOL    HW2 5703   3.315   5.947   0.079 -2.9944  0.2008  1.2262
 1602SOL     OW 5704   4.056   6.306   2.914  0.0830 -0.2592  0.0403
 1602SOL    HW1 5705   4.089   6.393   2.951  2.1489 -0.7318 -0.6017
 1602SOL    HW2 5706   4.024   6.320   2.820  0.0536 -0.1362  0.0677
 1603SOL     OW 5707   5.901   0.806   6.610 -0.4125 -0.6639  0.2699
 1603SOL    HW1 5708   5.933   0.865   6.685  0.0267 -0.5136 -0.0292
 1603SOL    HW2 5709   5.802   0.794   6.617 -0.2686 -1.3656  1.3781
 1604SOL     OW 5710   1.740   4.422   0.455 -0.8884 -0.0095 -0.1453
 1604SOL    HW1 5711   1.746   4.360   0.534 -1.4209 -1.3698 -1.1288
 1604SOL    HW2 5712   1.704   4.372   0.376 -4.1170  2.2350 -0.2633
 1605SOL     OW 5713   0.773   4.846   6.871 -0.0072  0.6551  0.3939
 1605SOL    HW1 5714   0.871   4.838   6.850 -0.2444  1.9583 -1.4009
 1605SOL    HW2 5715   0.731   4.913   6.810 -2.0710  0.0354  1.0593
 1606SOL     OW 5716   0.455   2.544   4.630  0.0722 -0.6613  0.5838
 1606SOL    HW1 5717   0.393   2.622   4.621  0.0467 -0.7444 -0.0205
 1606SOL    HW2 5718   0.550   2.577   4.629  0.0433 -0.5126  1.7415
 1607SOL     OW 5719   5.918   6.693   6.074  0.4594  0.4666  0.5446
 1607SOL    HW1 5720   5.916   6.624   6.146 -0.6211  1.2162  1.2593
 1607SOL    HW2 5721   5.919   6.649   5.984 -0.8025 -0.4786  0.9737
 1608SOL     OW 5722   3.759   5.254   3.366 -0.2837 -0.4463 -0.1015
 1608SOL    HW1 5723   3.769   5.155   3.375  0.9746 -0.3227  0.0472
 1608SOL    HW2 5724   3.849   5.296   3.360 -0.7663  0.8059  0.9390
 1609SOL     OW 5725   1.849   6.825   1.465  0.1857 -0.4466 -0.0306
 1609SOL    HW1 5726   1.822   6.822   1.562 -0.3474  1.4907 -0.0823
 1609SOL    HW2 5727   1.936   6.873   1.457  0.4134 -0.9321 -0.4941
 1610SOL     OW 5728   6.603   3.590   3.473 -0.9302 -0.1043 -0.3484
 1610SOL    HW1 5729   6.701   3.573   3.461 -1.2207 -0.8384 -1.8631
 1610SOL    HW2 5730   6.551   3.511   3.440 -2.0505  0.2797  0.4321
 1611SOL     OW 5731   1.432   6.915   1.030  0.2946 -0.3771  0.2931
 1611SOL    HW1 5732   1.409   6.987   0.964 -1.1050 -1.7528 -0.8054
 1611SOL    HW2 5733   1.364   6.914   1.103 -1.0632 -1.9422 -0.8914
 1612SOL     OW 5734   5.086   5.737   4.156 -0.3109 -0.4587 -0.1603
 1612SOL    HW1 5735   4.986   5.736   4.145 -0.1727 -0.8900 -1.5656
 1612SOL    HW2 5736   5.114   5.663   4.217 -0.7271 -1.4173 -1.1001
 1613SOL     OW 5737   1.931   6.459   4.002 -0.3848 -0.3282 -0.1544
 1613SOL    HW1 5738   1.868   6.445   4.079  0.2048 -0.4267  0.3180
 1613SOL    HW2 5739   1.912   6.547   3.959 -1.5594 -0.8278 -0.6988
 1614SOL     OW 5740   1.320   5.783   5.650  0.1868  0.6876  0.5301
 1614SOL    HW1 5741   1.296   5.772   5.746  0.7758  1.8162  0.8179
 1614SOL    HW2 5742   1.252   5.842   5.605 -0.2094 -0.0124  0.1855
 1615SOL     OW 5743   4.721   5.748   5.639 -0.4165 -0.4635  0.0667
 1615SOL    HW1 5744   4.820   5.756   5.622 -0.2980 -0.3728  0.7590
 1615SOL    HW2 5745   4.675   5.722   5.554  0.4022 -2.1627  0.1088
 1616SOL     OW 5746   5.368   0.620   0.969  0.4038 -0.2138 -0.3334
 1616SOL    HW1 5747   5.351   0.718   0.954  0.6250 -0.1447 -0.1489
 1616SOL    HW2 5748   5.286   0.568   0.945  0.3652 -0.0050 -0.6596
 1617SOL     OW 5749   0.463   6.070   5.912  0.0679  0.3138  0.6002
 1617SOL    HW1 5750   0.527   6.134   5.954  2.4660 -0.6220 -1.4190
 1617SOL    HW2 5751   0.397   6.121   5.857 -0.2726  1.2225  1.8015
 1618SOL     OW 5752   5.505   6.327   4.388  0.2716  0.0648  0.2614
 1618SOL    HW1 5753   5.434   6.369   4.443 -1.4461 -2.7368  0.3947
 1618SOL    HW2 5754   5.478   6.327   4.292 -0.9578 -2.6659  0.5135
 1619SOL     OW 5755   4.552   6.428   4.211  0.0875  0.2080  0.2358
 1619SOL    HW1 5756   4.481   6.389   4.152  0.5780 -1.4281  0.6572
 1619SOL    HW2 5757   4.513   6.455   4.299 -0.3302  1.0210 -0.1956
 1620SOL     OW 5758   2.215   2.815   5.588 -0.0366 -0.0875  0.3854
 1620SOL    HW1 5759   2.294   2.874   5.607  0.4362 -0.7015  0.3657
 1620SOL    HW2 5760   2.131   2.862   5.615  0.3233  0.6132  0.3242
 1621SOL     OW 5761   5.138   1.822   4.295 -0.1809  0.1066 -0.0131
 1621SOL    HW1 5762   5.130   1.850   4.391 -1.0510  0.8500 -0.2933
 1621SOL    HW2 5763   5.092   1.733   4.283 -1.0630  0.5476  0.0380
 1622SOL     OW 5764   2.375   4.434   3.427  0.0557  0.2521  0.0921
 1622SOL    HW1 5765   2.308   4.504   3.450  0.8142  0.9155  0.3406
 1622SOL    HW2 5766   2.467   4.471   3.440  0.5154 -1.4229  2.3503
 1623SOL     OW 5767   1.342   0.790   3.677 -0.4001  0.2129 -0.0026
 1623SOL    HW1 5768   1.379   0.707   3.635  0.6815  0.5681  0.1966
 1623SOL    HW2 5769   1.331   0.861   3.607 -1.4790 -0.1365 -0.2017
 1624SOL     OW 5770   0.784   6.602   5.269 -0.1716 -0.1401 -0.2130
 1624SOL    HW1 5771   0.710   6.603   5.336 -0.5933  0.1763 -0.6767
 1624SOL    HW2 5772   0.864   6.557   5.309 -0.4454 -0.0407  0.4684
 1625SOL     OW 5773   4.817   0.352   3.831 -0.2655  0.2361  0.1810
 1625SOL    HW1 5774   4.793   0.326   3.925 -0.1676  1.5997  0.6068
 1625SOL    HW2 5775   4.755   0.423   3.800  0.0980  0.2312 -0.5694
 1626SOL     OW 5776   6.202   6.986   5.970  0.0232  0.0486  0.1769
 1626SOL    HW1 5777   6.291   6.979   5.926  0.1579 -0.2173  0.4964
 1626SOL    HW2 5778   6.130   6.976   5.901  0.2323  1.6294 -0.3105
 1627SOL     OW 5779   6.306   0.815   1.511  0.1252  0.2657  0.0945
 1627SOL    HW1 5780   6.276   0.830   1.417 -1.2004  0.9609  0.5917
 1627SOL    HW2 5781   6.304   0.717   1.531 -1.1267  0.2139 -0.1532
 1628SOL     OW 5782   1.485   6.402   2.986  1.2538  0.3416 -0.7742
 1628SOL    HW1 5783   1.566   6.428   2.933  1.6779 -1.4785 -1.0844
 1628SOL    HW2 5784   1.512   6.343   3.062 -0.0090 -3.5128 -3.0520
 1629SOL     OW 5785   4.360   3.801   1.221 -0.1217 -0.1625 -0.2968
 1629SOL    HW1 5786   4.296   3.877   1.222  1.1154  0.9163  0.2316
 1629SOL    HW2 5787   4.361   3.756   1.310 -0.2041 -0.2251 -0.3279
 1630SOL     OW 5788   2.643   5.627   5.552 -0.2461 -0.0413  0.2813
 1630SOL    HW1 5789   2.712   5.582   5.496 -1.8870 -0.7318 -1.2537
 1630SOL    HW2 5790   2.603   5.703   5.501 -1.6358 -0.5576  0.5663
 1631SOL     OW 5791   1.824   0.531   5.524  0.4943  0.3319 -0.6516
 1631SOL    HW1 5792   1.812   0.627   5.548 -1.5027 -0.1199  0.4001
 1631SOL    HW2 5793   1.898   0.492   5.579 -0.3132  0.7003  0.7609
 1632SOL     OW 5794   1.652   0.300   3.372 -0.2767  0.3474  0.0813
 1632SOL    HW1 5795   1.699   0.318   3.458 -0.9512  2.0362  0.1504
 1632SOL    HW2 5796   1.554   0.291   3.389 -0.3466  0.0819 -0.4387
 1633SOL     OW 5797   6.003   0.415   1.244 -0.5542 -0.0707 -0.4259
 1633SOL    HW1 5798   6.078   0.481   1.247 -0.7848  0.1567  1.6042
 1633SOL    HW2 5799   5.969   0.399   1.337 -2.0109 -1.3341 -1.1383
 1634SOL     OW 5800   4.729   2.291   6.465 -0.1300 -0.2364 -0.0870
 1634SOL    HW1 5801   4.711   2.218   6.399  0.8799 -1.1395  0.5886
 1634SOL    HW2 5802   4.645   2.315   6.513 -0.8534  0.3576 -1.5972
 1635SOL     OW 5803   5.093   6.158   2.670  0.1523 -0.0098  0.4817
 1635SOL    HW1 5804   5.000   6.123   2.670  0.2683 -0.7901 -3.3149
 1635SOL    HW2 5805   5.157   6.085   2.694 -0.0388 -0.5169 -0.4947
 1636SOL     OW 5806   3.798   4.831   2.526  0.1460 -0.1515 -0.0506
 1636SOL    HW1 5807   3.784   4.738   2.562 -0.3165 -0.3069 -0.6185
 1636SOL    HW2 5808   3.711   4.881   2.528  0.1939 -0.0369 -0.5925
 1637SOL     OW 5809   2.942   0.645   0.233  0.3596  0.2201 -0.2854
 1637SOL    HW1 5810   2.880   0.609   0.164 -0.6687 -0.7532  1.0898
 1637SOL    HW2 5811   2.926   0.598   0.320  1.2162  1.7786  0.7670
 1638SOL     OW 5812   3.771   6.699   6.278 -0.0362  0.1188  0.7488
 1638SOL    HW1 5813   3.751   6.624   6.342 -1.1100 -0.9845 -0.8240
 1638SOL    HW2 5814   3.791   6.782   6.330  0.2288 -1.0061  2.5272
 1639SOL     OW 5815   4.082   1.552   0.522 -0.4548  0.6514 -0.7067
 1639SOL    HW1 5816   4.084   1.502   0.609 -2.2583  1.1031 -0.3691
 1639SOL    HW2 5817   4.036   1.497   0.453  0.2399  0.6334 -1.1581
 1640SOL     OW 5818   0.079   3.215   2.313  0.0405  0.4632  0.5508
 1640SOL    HW1 5819   0.014   3.186   2.384 -0.9944  0.5106 -0.3533
 1640SOL    HW2 5820   0.034   3.214   2.224  0.7077  2.3683  0.1388
 1641SOL     OW 5821   6.034   1.914   3.161  0.5587 -0.0438  0.3071
 1641SOL    HW1 5822   6.002   1.919   3.255  1.0662 -1.0893  0.5549
 1641SOL    HW2 5823   6.005   1.995   3.111  1.9302  1.4730  1.8453
 1642SOL     OW 5824   0.943   4.853   6.067 -0.0210  0.7461  0.1162
 1642SOL    HW1 5825   1.009   4.911   6.115  0.8368 -0.6738  0.7125
 1642SOL    HW2 5826   0.866   4.909   6.036 -1.0419  1.6458  3.8502
 1643SOL     OW 5827   6.716   2.659   5.795 -0.2989  0.0438  0.2246
 1643SOL    HW1 5828   6.707   2.711   5.880 -1.2318 -0.0917  0.2153
 1643SOL    HW2 5829   6.679   2.567   5.808 -0.2490 -0.0486 -0.2704
 1644SOL     OW 5830   0.063   5.858   0.491  0.2396 -0.3715 -0.2750
 1644SOL    HW1 5831  -0.013   5.858   0.426  0.2682 -1.3905 -0.3196
 1644SOL    HW2 5832   0.030   5.887   0.581 -0.1069 -0.3972 -0.3919
 1645SOL     OW 5833   0.174   5.294   1.487  0.1707  0.0733  0.1810
 1645SOL    HW1 5834   0.212   5.223   1.546 -0.1208  0.8937  1.4061
 1645SOL    HW2 5835   0.186   5.383   1.531 -2.8141  0.4291  0.4887
 1646SOL     OW 5836   5.368   2.138   2.631  0.2765  0.1247 -0.1585
 1646SOL    HW1 5837   5.413   2.226   2.645  0.0654  0.3826 -1.0122
 1646SOL    HW2 5838   5.324   2.137   2.541  0.2328 -0.8382 -0.1407
 1647SOL     OW 5839   5.474   2.665   2.825 -0.3289 -0.0144 -0.3822
 1647SOL    HW1 5840   5.500   2.681   2.729 -2.9978 -0.8366 -1.3457
 1647SOL    HW2 5841   5.493   2.748   2.878  0.5840  0.7120 -1.7569
 1648SOL     OW 5842   0.514   6.730   2.290  0.5719  0.3634 -0.6418
 1648SOL    HW1 5843   0.437   6.725   2.353 -0.4394 -0.0823 -1.8598
 1648SOL    HW2 5844   0.536   6.638   2.256  0.5595  0.6749 -1.5415
 1649SOL     OW 5845   6.028   1.042   6.259  0.1589 -0.1382  0.1106
 1649SOL    HW1 5846   6.075   1.046   6.171  2.5421  2.2090  1.3439
 1649SOL    HW2 5847   5.989   1.132   6.280  0.2148 -0.4594  1.7170
 1650SOL     OW 5848   6.273   4.120   0.516  0.5087  0.1886 -0.5247
 1650SOL    HW1 5849   6.314   4.194   0.570  1.1539 -1.8757  2.0451
 1650SOL    HW2 5850   6.197   4.156   0.462  0.0455  2.5354  1.4821
 1651SOL     OW 5851   0.465   0.498   2.938  0.1110 -1.0224  0.5954
 1651SOL    HW1 5852   0.457   0.420   3.000  0.5186 -2.3481 -0.9547
 1651SOL    HW2 5853   0.511   0.470   2.854  0.1590  0.8746 -0.0684
 1652SOL     OW 5854   3.509   5.348   5.792  0.5088 -0.0549  0.2277
 1652SOL    HW1 5855   3.433   5.412   5.807 -1.0856 -1.3704 -1.7551
 1652SOL    HW2 5856   3.558   5.334   5.878 -0.8663  1.6024  1.3494
 1653SOL     OW 5857   5.310   1.100   3.948  0.0437 -0.4024  0.0321
 1653SOL    HW1 5858   5.355   1.043   3.880 -0.2923 -0.6446  0.0112
 1653SOL    HW2 5859   5.270   1.180   3.904  0.9453  0.1199  0.1290
 1654SOL     OW 5860   4.854   4.922   6.465  0.0932  0.0168 -0.1274
 1654SOL    HW1 5861   4.805   4.964   6.388 -0.9088 -0.6069  0.1495
 1654SOL    HW2 5862   4.794   4.917   6.544  1.4565  1.6485  1.0663
 1655SOL     OW 5863   0.296   0.987   3.541  0.2738  0.1038 -0.8216
 1655SOL    HW1 5864   0.217   1.047   3.528  0.4131  0.7717  1.1101
 1655SOL    HW2 5865   0.334   1.001   3.633  1.0758 -2.0627 -0.7702
 1656SOL     OW 5866   3.099   1.510   4.402 -0.6581 -0.3305 -0.1542
 1656SOL    HW1 5867   3.181   1.480   4.354 -0.7014 -0.1087 -0.3711
 1656SOL    HW2 5868   3.034   1.547   4.336 -0.7856 -0.1737  0.0568
 1657SOL     OW 5869   0.052   1.849   2.889  0.0034 -0.1989  0.3289
 1657SOL    HW1 5870   0.103   1.816   2.810 -0.5218 -2.2855  0.8025
 1657SOL    HW2 5871   0.090   1.937   2.919  0.6901  0.2579 -1.7408
 1658SOL     OW 5872   1.031   2.046   2.013  0.1606 -0.6680 -0.5058
 1658SOL    HW1 5873   1.030   2.115   2.086  0.7991  0.0823 -1.1850
 1658SOL    HW2 5874   1.072   1.962   2.047  0.7592 -0.2125 -0.0875
 1659SOL     OW 5875   1.270   1.675   3.459  0.0773  0.9985  0.4209
 1659SOL    HW1 5876   1.188   1.714   3.501  0.2587  1.2924  0.5087
 1659SOL    HW2 5877   1.278   1.579   3.483 -0.7696  0.7126 -0.3968
 1660SOL     OW 5878   1.777   5.641   2.735 -0.1763 -0.0060  0.0327
 1660SOL    HW1 5879   1.785   5.733   2.697 -0.4428  0.5402  1.2404
 1660SOL    HW2 5880   1.732   5.646   2.824 -2.4413 -1.5717 -0.9443
 1661SOL     OW 5881   1.205   5.636   3.217  0.3389 -0.4659 -0.1141
 1661SOL    HW1 5882   1.239   5.697   3.146 -1.0816  1.5481  0.8338
 1661SOL    HW2 5883   1.126   5.678   3.262  1.2708 -1.5527  2.7668
 1662SOL     OW 5884   1.524   2.487   5.754 -0.6713 -0.5595  0.3891
 1662SOL    HW1 5885   1.517   2.565   5.690 -0.4708 -0.0360  0.9943
 1662SOL    HW2 5886   1.593   2.423   5.720 -0.5680 -0.2906  0.0793
 1663SOL     OW 5887   2.864   5.923   6.026 -0.3622  0.7324 -0.9712
 1663SOL    HW1 5888   2.784   5.976   6.052 -0.3605 -0.0597  0.8207
 1663SOL    HW2 5889   2.844   5.869   5.944 -1.5060  0.8880 -0.8038
 1664SOL     OW 5890   0.231   6.190   2.347 -0.3580  0.4320 -0.0065
 1664SOL    HW1 5891   0.294   6.119   2.317 -0.6201  0.6161 -1.0130
 1664SOL    HW2 5892   0.187   6.162   2.432 -1.6046 -1.2881 -1.1710
 1665SOL     OW 5893   4.714   5.594   0.991 -0.1823 -0.4160  0.2040
 1665SOL    HW1 5894   4.684   5.505   1.026 -1.5395  0.3590  1.1441
 1665SOL    HW2 5895   4.694   5.600   0.893 -2.3454 -0.3127  0.5939
 1666SOL     OW 5896   0.873   4.587   1.639  0.8398  0.2539 -0.2358
 1666SOL    HW1 5897   0.897   4.490   1.635 -0.3689 -0.1320  0.8949
 1666SOL    HW2 5898   0.954   4.641   1.659  1.4619 -0.5663 -0.5053
 1667SOL     OW 5899   2.250   5.718   2.123  0.1139  0.1214  0.1332
 1667SOL    HW1 5900   2.222   5.633   2.166 -0.0999  0.0509 -0.1435
 1667SOL    HW2 5901   2.231   5.795   2.184  0.2142 -0.0168  0.3399
 1668SOL     OW 5902   3.490   2.356   6.698 -0.4725 -0.3389 -0.1423
 1668SOL    HW1 5903   3.418   2.291   6.676 -1.5131  0.8244 -0.3145
 1668SOL    HW2 5904   3.490   2.431   6.631 -0.0607  0.4256  0.6763
 1669SOL     OW 5905   3.459   5.627   3.548 -0.0303 -0.0715 -0.2272
 1669SOL    HW1 5906   3.507   5.539   3.546 -0.6397 -0.4010 -1.0794
 1669SOL    HW2 5907   3.401   5.632   3.630  1.0918  0.1483  0.5748
 1670SOL     OW 5908   2.915   0.248   2.611  0.3025 -0.6173  0.0132
 1670SOL    HW1 5909   2.929   0.156   2.646  0.8395 -0.1609  1.0386
 1670SOL    HW2 5910   2.997   0.303   2.627 -0.1363  0.1374 -0.2573
 1671SOL     OW 5911   3.266   2.282   1.257 -0.3519 -0.4718 -0.1663
 1671SOL    HW1 5912   3.358   2.319   1.274 -1.0052  1.7049 -0.9423
 1671SOL    HW2 5913   3.198   2.353   1.276 -1.7567 -1.4061 -1.4237
 1672SOL     OW 5914   4.897   5.326   3.788 -0.5915 -0.5274  0.2219
 1672SOL    HW1 5915   4.913   5.419   3.820 -0.5582 -0.4685  0.0357
 1672SOL    HW2 5916   4.970   5.266   3.821  0.6137 -0.0702 -1.4645
 1673SOL     OW 5917   1.692   2.780   5.682  0.0185 -0.4259  0.1403
 1673SOL    HW1 5918   1.752   2.703   5.706  1.1139  0.3665  0.0223
 1673SOL    HW2 5919   1.714   2.810   5.589  2.1566  2.3071  1.3925
 1674SOL     OW 5920   5.323   1.569   1.336 -0.2511  0.0187  0.0204
 1674SOL    HW1 5921   5.389   1.644   1.322  1.5257 -1.3828  0.4697
 1674SOL    HW2 5922   5.308   1.557   1.434  0.7278 -1.1833  0.0561
 1675SOL     OW 5923   5.524   3.862   1.292  0.1222 -0.4551 -0.2551
 1675SOL    HW1 5924   5.522   3.961   1.304 -2.0613 -0.6517  1.7220
 1675SOL    HW2 5925   5.595   3.823   1.350  0.1750 -0.1534 -0.1133
 1676SOL     OW 5926   4.482   5.436   6.390 -0.7013 -0.2795  0.2886
 1676SOL    HW1 5927   4.508   5.518   6.441  0.3150 -0.1646 -0.3945
 1676SOL    HW2 5928   4.528   5.357   6.431 -0.0969 -0.2238 -0.2720
 1677SOL     OW 5929   3.508   2.966   5.424 -0.4604 -0.5375 -0.6093
 1677SOL    HW1 5930   3.550   3.006   5.342 -0.6896  0.0128 -0.4596
 1677SOL    HW2 5931   3.445   3.032   5.464 -2.0544 -1.6098 -1.2637
 1678SOL     OW 5932   6.288   6.819   5.142  0.2006 -0.1702  0.2511
 1678SOL    HW1 5933   6.345   6.759   5.198  0.2508  1.5723  2.1960
 1678SOL    HW2 5934   6.192   6.807   5.168  0.2617  0.9382  1.0585
 1679SOL     OW 5935   0.882   4.275   3.138  0.1888  0.0994 -0.1230
 1679SOL    HW1 5936   0.927   4.233   3.059 -0.0637  2.1261 -1.4344
 1679SOL    HW2 5937   0.874   4.208   3.212  0.5769 -1.8386 -1.7453
 1680SOL     OW 5938   3.906   3.487   5.426  0.4758 -0.1090  0.2353
 1680SOL    HW1 5939   3.982   3.504   5.489  1.3074 -1.0306 -0.4865
 1680SOL    HW2 5940   3.943   3.460   5.337 -0.6706  1.4063 -0.7420
 1681SOL     OW 5941   5.904   6.213   1.109  0.3848  0.5363  0.3281
 1681SOL    HW1 5942   5.942   6.139   1.053  0.1782 -0.6947  1.7335
 1681SOL    HW2 5943   5.946   6.300   1.083  1.9893 -0.3370 -0.1577
 1682SOL     OW 5944   1.043   3.140   1.484  0.0642  0.0618  1.0175
 1682SOL    HW1 5945   1.127   3.095   1.455  0.0262  0.6367 -0.0301
 1682SOL    HW2 5946   0.967   3.075   1.477  0.4935 -0.6677  2.6117
 1683SOL     OW 5947   6.955   1.819   0.869  0.5045  0.6646 -0.2078
 1683SOL    HW1 5948   6.889   1.892   0.848  0.6145  0.6090 -0.7597
 1683SOL    HW2 5949   6.924   1.769   0.950  1.3106  2.4170  1.2678
 1684SOL     OW 5950   3.670   2.872   5.802 -0.9204  0.1628  0.4637
 1684SOL    HW1 5951   3.764   2.876   5.835 -0.4735  0.6696 -0.8048
 1684SOL    HW2 5952   3.646   2.778   5.778 -0.8568 -0.0196  1.1067
 1685SOL     OW 5953   6.615   3.713   5.054  0.0309  0.2841  0.5932
 1685SOL    HW1 5954   6.620   3.707   5.154  0.4539 -0.3039  0.5448
 1685SOL    HW2 5955   6.707   3.704   5.016 -0.0383  1.2298  0.1766
 1686SOL     OW 5956   3.681   1.048   3.552 -0.0670 -0.2531  0.3375
 1686SOL    HW1 5957   3.644   1.119   3.613 -2.8158 -2.2516  1.2195
 1686SOL    HW2 5958   3.696   0.964   3.604  2.0638 -0.7086 -0.8914
 1687SOL     OW 5959   0.682   3.690   4.583 -0.0182  0.2293  0.2382
 1687SOL    HW1 5960   0.631   3.665   4.500  0.4949 -0.4723  0.1223
 1687SOL    HW2 5961   0.774   3.719   4.558  0.2666 -0.3507  0.5795
 1688SOL     OW 5962   0.756   6.208   3.998 -0.4399 -0.0816  0.4101
 1688SOL    HW1 5963   0.854   6.203   4.017 -0.3646  0.6448  0.2553
 1688SOL    HW2 5964   0.741   6.271   3.921 -1.1803  1.4383  1.7434
 1689SOL     OW 5965   6.656   6.142   0.050 -0.1258 -0.3083  0.0241
 1689SOL    HW1 5966   6.668   6.091   0.136 -1.8228 -1.0254 -0.1131
 1689SOL    HW2 5967   6.604   6.225   0.068 -0.4092 -0.4156 -0.2904
 1690SOL     OW 5968   1.073   0.563   4.410 -0.0100 -0.2900  0.3078
 1690SOL    HW1 5969   1.098   0.548   4.505 -0.9191  0.7117  0.7229
 1690SOL    HW2 5970   1.145   0.527   4.350 -0.4239 -2.9300  1.2868
 1691SOL     OW 5971   4.971   3.883   4.450 -1.0089 -0.0897 -0.0445
 1691SOL    HW1 5972   4.969   3.789   4.484 -0.7397  0.6974  2.3534
 1691SOL    HW2 5973   4.917   3.889   4.365 -0.5096 -2.4875 -0.6134
 1692SOL     OW 5974   3.556   4.910   6.366  0.2144 -0.4714 -0.5288
 1692SOL    HW1 5975   3.501   4.928   6.284  0.5641 -0.9598 -0.8802
 1692SOL    HW2 5976   3.652   4.928   6.347  0.2549 -0.2428 -0.1152
 1693SOL     OW 5977   3.313   3.136   2.063  0.3244  0.5605  0.5723
 1693SOL    HW1 5978   3.272   3.122   1.972  1.6251 -0.7010  0.1391
 1693SOL    HW2 5979   3.395   3.079   2.071  1.0127  1.7163  2.0407
 1694SOL     OW 5980   3.254   1.436   0.101  0.5404  0.4024 -0.0795
 1694SOL    HW1 5981   3.294   1.346   0.081 -1.2317 -0.5984  0.6748
 1694SOL    HW2 5982   3.306   1.479   0.175  1.5996  0.1676 -0.6625
 1695SOL     OW 5983   5.841   3.398   4.491 -0.2471  0.7080  0.2409
 1695SOL    HW1 5984   5.933   3.438   4.500 -0.4934  1.5060 -0.6634
 1695SOL    HW2 5985   5.778   3.446   4.552 -0.0832  0.1573  0.8646
 1696SOL     OW 5986   0.952   0.109   6.183  0.6575  0.1509 -0.5814
 1696SOL    HW1 5987   0.923   0.205   6.183  1.1161  0.3039 -1.4676
 1696SOL    HW2 5988   1.034   0.099   6.239  1.0162  0.4142 -1.0526
 1697SOL     OW 5989   1.034   2.507   5.190 -0.2163  0.3856  0.3293
 1697SOL    HW1 5990   0.953   2.456   5.164 -0.5510  1.9090 -1.8814
 1697SOL    HW2 5991   1.007   2.597   5.226  0.4681  0.5354  0.4921
 1698SOL     OW 5992   1.897   5.075   5.750  0.0857  0.0856 -0.1267
 1698SOL    HW1 5993   1.946   5.162   5.747  0.1730  0.0197 -1.1377
 1698SOL    HW2 5994   1.927   5.023   5.830 -0.2531  1.1329  0.7063
 1699SOL     OW 5995   4.685   3.996   6.284 -0.3574 -0.3857 -0.1678
 1699SOL    HW1 5996   4.754   3.931   6.316 -1.7911 -1.9536 -0.0912
 1699SOL    HW2 5997   4.630   4.027   6.361 -1.8879 -1.8420 -0.5844
 1700SOL     OW 5998   1.412   3.257   1.285  0.1893 -0.3376 -0.0567
 1700SOL    HW1 5999   1.479   3.330   1.269 -1.4329  0.6242 -3.2315
 1700SOL    HW2 6000   1.326   3.297   1.315 -0.4451 -1.0345 -0.9152
 1701SOL     OW 6001   3.313   3.835   5.956 -0.1915 -0.4797  0.7215
 1701SOL    HW1 6002   3.401   3.799   5.924  0.1552 -1.5823  2.7069
 1701SOL    HW2 6003   3.265   3.877   5.880  1.8325 -0.2790 -0.5336
 1702SOL     OW 6004   2.139   4.167   4.072 -0.2416 -0.3016 -0.2459
 1702SOL    HW1 6005   2.204   4.195   4.001  2.8321 -0.8598  2.1240
 1702SOL    HW2 6006   2.076   4.242   4.091  1.9231  1.6507 -0.3277
 1703SOL     OW 6007   0.403   5.502   1.631 -0.0608 -0.4510  0.1648
 1703SOL    HW1 6008   0.411   5.432   1.702 -0.8636 -1.7275 -0.9577
 1703SOL    HW2 6009   0.308   5.532   1.625 -0.0039 -0.3714 -0.3878
 1704SOL     OW 6010   6.568   5.962   3.742  0.4800  0.5060  0.5736
 1704SOL    HW1 6011   6.534   5.947   3.835 -0.3108 -1.1537  0.0578
 1704SOL    HW2 6012   6.633   6.039   3.742 -0.0971  1.0432  2.3334
 1705SOL     OW 6013   2.736   2.114   5.937 -0.4771  0.0358 -0.0338
 1705SOL    HW1 6014   2.812   2.175   5.917 -1.5035  1.9796  1.5990
 1705SOL    HW2 6015   2.649   2.160   5.918 -1.2941 -1.3136  0.2215
 1706SOL     OW 6016   3.700   0.226   0.093 -0.3715  0.5863 -0.2312
 1706SOL    HW1 6017   3.793   0.260   0.080 -0.0275 -0.7389 -1.4323
 1706SOL    HW2 6018   3.654   0.281   0.163  1.4695  0.9328  0.7644
 1707SOL     OW 6019   4.716   5.026   5.718 -0.5382 -0.8019 -0.0731
 1707SOL    HW1 6020   4.640   4.995   5.662  0.7591  0.4073 -2.6841
 1707SOL    HW2 6021   4.803   5.003   5.673  0.5824  0.1312  1.5072
 1708SOL     OW 6022   0.456   3.682   0.228 -0.1817  0.6506  0.5030
 1708SOL    HW1 6023   0.436   3.757   0.291  0.8832  1.7493 -0.4454
 1708SOL    HW2 6024   0.549   3.690   0.194 -0.2287 -0.8058 -0.0479
 1709SOL     OW 6025   0.601   0.372   0.514 -0.0393 -0.1772  0.1090
 1709SOL    HW1 6026   0.517   0.318   0.522  0.8772 -1.6632  0.0370
 1709SOL    HW2 6027   0.630   0.402   0.605  1.3066 -2.8320  0.6748
 1710SOL     OW 6028   2.109   5.620   3.242  0.3692  0.3296  0.0559
 1710SOL    HW1 6029   2.053   5.684   3.295  0.3971  0.1546  0.2974
 1710SOL    HW2 6030   2.147   5.551   3.303  1.3999  0.8326  0.0224
 1711SOL     OW 6031   1.767   1.836   6.650  0.2127  0.0135  0.5621
 1711SOL    HW1 6032   1.795   1.795   6.737  2.3165  1.0066  0.4157
 1711SOL    HW2 6033   1.793   1.776   6.574 -2.7339 -1.4465  0.5908
 1712SOL     OW 6034   0.097   4.473   3.216  0.3402 -0.0101 -0.0471
 1712SOL    HW1 6035   0.068   4.502   3.307  0.2689 -0.5490  0.1067
 1712SOL    HW2 6036   0.023   4.422   3.172  0.8309 -0.8967  0.1203
 1713SOL     OW 6037   3.805   1.522   6.332 -0.1474 -0.0624  0.0547
 1713SOL    HW1 6038   3.764   1.612   6.342  1.6474  0.9158 -1.0118
 1713SOL    HW2 6039   3.883   1.513   6.394  0.6562 -0.2616 -0.9574
 1714SOL     OW 6040   5.533   5.142   6.325 -0.1076 -0.0309 -0.2933
 1714SOL    HW1 6041   5.621   5.130   6.279 -0.3863 -1.8010 -0.4515
 1714SOL    HW2 6042   5.520   5.238   6.349  0.7410  0.6911 -2.4955
 1715SOL     OW 6043   1.169   4.429   4.372 -0.1188 -0.3762 -0.1766
 1715SOL    HW1 6044   1.223   4.349   4.344  0.7466  0.4038 -0.7947
 1715SOL    HW2 6045   1.127   4.411   4.461  1.6445 -0.7947  0.6175
 1716SOL     OW 6046   2.827   0.807   3.003  0.0105  0.6314 -0.5177
 1716SOL    HW1 6047   2.853   0.722   2.958 -0.7094  0.5315 -0.7602
 1716SOL    HW2 6048   2.757   0.853   2.948  0.5979  1.5222 -0.5407
 1717SOL     OW 6049   2.077   2.286   0.220 -1.2006  0.1367  0.0575
 1717SOL    HW1 6050   2.146   2.332   0.165  0.2701 -0.2529  1.5013
 1717SOL    HW2 6051   2.016   2.353   0.261  0.2400  0.7431  1.2564
 1718SOL     OW 6052   6.605   1.188   3.941  0.0817 -0.1515 -0.2944
 1718SOL    HW1 6053   6.600   1.288   3.951 -2.0304 -0.3777  1.8227
 1718SOL    HW2 6054   6.516   1.153   3.913  1.0609 -1.4210 -2.0279
 1719SOL     OW 6055   5.870   0.233   5.467 -0.2748  0.0332  0.1410
 1719SOL    HW1 6056   5.946   0.207   5.528 -0.7915 -1.2859  0.2714
 1719SOL    HW2 6057   5.796   0.272   5.521 -0.7607 -1.1999  0.4070
 1720SOL     OW 6058   0.776   3.494   4.758  0.0561  0.1332  0.5973
 1720SOL    HW1 6059   0.870   3.517   4.782 -0.0554  1.1056  0.1552
 1720SOL    HW2 6060   0.748   3.545   4.677 -0.3263 -1.3905 -0.2734
 1721SOL     OW 6061   1.062   3.524   1.739  0.3898  0.0052 -0.7143
 1721SOL    HW1 6062   1.106   3.507   1.827 -0.3074 -0.3282 -0.4224
 1721SOL    HW2 6063   0.965   3.544   1.753 -0.0685 -1.5011 -1.5093
 1722SOL     OW 6064   6.449   0.143   2.418 -0.4592  0.3192 -0.0086
 1722SOL    HW1 6065   6.442   0.105   2.510  1.2368  0.6053  0.2618
 1722SOL    HW2 6066   6.389   0.223   2.410 -0.4663  0.4176  0.9118
 1723SOL     OW 6067   1.574   2.772   2.688 -0.0139  0.5020  0.8105
 1723SOL    HW1 6068   1.593   2.847   2.624 -0.0206 -0.0901  0.1047
 1723SOL    HW2 6069   1.656   2.715   2.697 -1.2494 -1.9307 -2.0565
 1724SOL     OW 6070   6.122   3.326   4.823 -0.2223  0.0912  0.3019
 1724SOL    HW1 6071   6.045   3.355   4.881  0.0463 -0.7653  1.1041
 1724SOL    HW2 6072   6.159   3.406   4.775 -1.0458  0.6580  0.5765
 1725SOL     OW 6073   4.897   0.731   0.771  0.3904  0.7110  0.2185
 1725SOL    HW1 6074   4.958   0.803   0.738  1.4323  0.2821  1.1473
 1725SOL    HW2 6075   4.868   0.752   0.865 -0.9695  0.9369 -0.2240
 1726SOL     OW 6076   6.556   0.675   1.824 -0.0777  0.0894 -0.5217
 1726SOL    HW1 6077   6.471   0.662   1.874  0.8176 -0.1372  1.0163
 1726SOL    HW2 6078   6.549   0.754   1.764 -0.2909  2.1759  2.0982
 1727SOL     OW 6079   0.768   1.157   6.016  0.2116  0.3109 -0.3939
 1727SOL    HW1 6080   0.862   1.154   5.982  0.3442 -1.5007  0.0275
 1727SOL    HW2 6081   0.717   1.079   5.980 -1.2883  1.4975 -0.9585
 1728SOL     OW 6082   0.228   5.848   4.403 -0.1797 -0.0304 -0.1310
 1728SOL    HW1 6083   0.317   5.891   4.389  0.0251 -0.0626  1.0000
 1728SOL    HW2 6084   0.194   5.811   4.316  0.3791  0.9883 -0.7912
 1729SOL     OW 6085   2.230   3.588   0.806 -0.0054  0.1321 -0.4758
 1729SOL    HW1 6086   2.288   3.643   0.866  0.2967  0.1921 -0.8209
 1729SOL    HW2 6087   2.149   3.558   0.857  1.8332 -2.7110  1.0529
 1730SOL     OW 6088   5.528   3.865   3.963  0.3550 -0.2831  0.2734
 1730SOL    HW1 6089   5.456   3.869   4.031  1.0387  2.3181  0.9592
 1730SOL    HW2 6090   5.496   3.906   3.877 -0.3559 -3.1348 -0.9421
 1731SOL     OW 6091   3.179   4.305   0.309  0.5582 -0.2116 -0.2348
 1731SOL    HW1 6092   3.179   4.205   0.304  0.0315 -0.1371 -2.5483
 1731SOL    HW2 6093   3.087   4.340   0.292  0.6642  0.6992  0.8851
 1732SOL     OW 6094   5.348   6.010   5.433 -1.2472  0.0919  0.1770
 1732SOL    HW1 6095   5.422   6.014   5.366 -1.2891  1.7125  0.1913
 1732SOL    HW2 6096   5.378   6.053   5.518 -2.0263  0.3015  0.3495
 1733SOL     OW 6097   4.796   6.553   6.108  0.0318  0.3429 -0.0631
 1733SOL    HW1 6098   4.723   6.585   6.169  0.7170  1.9032 -0.0361
 1733SOL    HW2 6099   4.855   6.489   6.157 -0.3670  0.3310  0.4089
 1734SOL     OW 6100   6.870   6.555   5.628 -0.0269 -0.2304  0.0989
 1734SOL    HW1 6101   6.966   6.562   5.600  0.2673 -1.9117  0.5708
 1734SOL    HW2 6102   6.811   6.586   5.554  0.8254 -1.6394 -1.2182
 1735SOL     OW 6103   5.940   5.341   6.762  0.1924 -1.0359  0.2424
 1735SOL    HW1 6104   5.939   5.402   6.684  0.6393 -1.1636  0.1324
 1735SOL    HW2 6105   5.861   5.280   6.758 -0.2923 -0.4287  0.3914
 1736SOL     OW 6106   4.721   4.646   6.729 -0.0434  0.4696 -0.0469
 1736SOL    HW1 6107   4.774   4.574   6.776 -1.5483 -0.6221  0.0419
 1736SOL    HW2 6108   4.699   4.615   6.636 -1.3197  0.4846  0.2359
 1737SOL     OW 6109   5.617   3.486   2.991  0.2438  0.1671  0.3867
 1737SOL    HW1 6110   5.649   3.395   3.019 -0.4645  0.4869  2.3982
 1737SOL    HW2 6111   5.671   3.556   3.038  0.0958  0.7847 -0.3476
 1738SOL     OW 6112   2.304   3.582   6.847 -0.4066 -0.4603  0.1940
 1738SOL    HW1 6113   2.388   3.622   6.810 -0.2983 -1.1363 -0.3030
 1738SOL    HW2 6114   2.235   3.654   6.858 -0.3102 -0.1770 -0.9596
 1739SOL     OW 6115   5.310   6.819   5.202  0.2241  0.4429  0.4210
 1739SOL    HW1 6116   5.358   6.734   5.222 -1.7739 -0.9619 -0.3791
 1739SOL    HW2 6117   5.220   6.817   5.245 -1.5759  0.1947 -3.0057
 1740SOL     OW 6118   5.472   3.426   2.772 -0.1399 -0.2440  0.3188
 1740SOL    HW1 6119   5.404   3.357   2.747  0.0223 -0.0237 -0.7602
 1740SOL    HW2 6120   5.483   3.427   2.872 -0.0154 -1.8970  0.3571
 1741SOL     OW 6121   0.482   1.572   4.024 -0.1486 -0.0522  0.4817
 1741SOL    HW1 6122   0.428   1.512   3.965  1.2576 -0.3096 -0.5896
 1741SOL    HW2 6123   0.441   1.574   4.115 -2.0800 -0.0324 -0.3455
 1742SOL     OW 6124   2.673   2.383   4.093  0.0039 -0.0689  0.5147
 1742SOL    HW1 6125   2.598   2.417   4.149  1.1250  1.2748  1.2936
 1742SOL    HW2 6126   2.754   2.370   4.151  0.4489 -1.2576 -0.3317
 1743SOL     OW 6127   6.774   1.912   3.709  0.8071  0.6614 -0.2082
 1743SOL    HW1 6128   6.779   1.973   3.631 -0.4407 -0.1247 -0.9375
 1743SOL    HW2 6129   6.849   1.846   3.705  1.2235  1.1319 -0.2834
 1744SOL     OW 6130   0.822   5.393   5.550  0.6242 -0.6677 -0.2349
 1744SOL    HW1 6131   0.831   5.321   5.481 -0.0543 -0.5892 -0.4155
 1744SOL    HW2 6132   0.761   5.360   5.623 -0.0463 -0.1190 -0.5378
 1745SOL     OW 6133   4.225   6.514   2.052 -0.0471  0.1223 -0.1605
 1745SOL    HW1 6134   4.136   6.555   2.072  0.6585  0.8418  1.7330
 1745SOL    HW2 6135   4.235   6.429   2.103  0.7290  0.5752  0.4760
 1746SOL     OW 6136   2.743   1.061   6.375  0.0894  1.5745  0.5363
 1746SOL    HW1 6137   2.677   1.091   6.444  0.5669 -0.7115  2.1116
 1746SOL    HW2 6138   2.751   0.962   6.378  1.9263  1.6035 -1.2216
 1747SOL     OW 6139   1.823   0.785   5.579  0.3112 -0.0711 -0.2011
 1747SOL    HW1 6140   1.750   0.854   5.573  0.5651  0.2382  0.2569
 1747SOL    HW2 6141   1.910   0.826   5.553  0.8145  0.3346  1.9756
 1748SOL     OW 6142   5.881   3.710   3.489 -0.6105  0.0700 -0.1499
 1748SOL    HW1 6143   5.908   3.678   3.580 -2.0827  0.0540  0.3113
 1748SOL    HW2 6144   5.962   3.740   3.438  0.3265 -0.6664  0.8662
 1749SOL     OW 6145   6.136   0.149   5.622 -0.7584 -0.6962 -0.3568
 1749SOL    HW1 6146   6.209   0.123   5.560 -0.9411 -3.6024  0.4928
 1749SOL    HW2 6147   6.173   0.205   5.696  0.3899 -1.2860 -0.4709
 1750SOL     OW 6148   0.431   6.908   6.673 -0.4406 -0.5670  0.0921
 1750SOL    HW1 6149   0.424   6.970   6.751  0.9236 -1.4046  0.9198
 1750SOL    HW2 6150   0.484   6.827   6.699 -1.7490 -1.8693 -1.0922
 1751SOL     OW 6151   1.353   0.212   5.031 -0.1151 -0.3120  0.3116
 1751SOL    HW1 6152   1.422   0.141   5.015 -0.2757 -0.4340  0.1612
 1751SOL    HW2 6153   1.286   0.179   5.096  0.4196  0.1065  1.0922
 1752SOL     OW 6154   2.596   3.398   0.445  0.9711  0.6947 -0.3263
 1752SOL    HW1 6155   2.669   3.438   0.499  0.1651  2.1308 -0.2591
 1752SOL    HW2 6156   2.508   3.417   0.487  0.4187  0.6636 -1.4183
 1753SOL     OW 6157   5.751   6.151   6.685  0.1256 -0.2720 -0.4876
 1753SOL    HW1 6158   5.708   6.223   6.739  0.0659  1.1728 -2.3448
 1753SOL    HW2 6159   5.684   6.079   6.667  0.1884 -0.8491  1.4114
 1754SOL     OW 6160   2.186   1.960   4.583 -0.4969  0.6550  0.1872
 1754SOL    HW1 6161   2.206   1.865   4.562  1.5862  0.7659  1.3290
 1754SOL    HW2 6162   2.104   1.989   4.535  0.0334 -1.0770 -1.8978
 1755SOL     OW 6163   6.635   0.944   0.705 -0.1332 -0.3882 -0.4686
 1755SOL    HW1 6164   6.724   0.923   0.665 -0.6554 -0.6876 -1.5304
 1755SOL    HW2 6165   6.615   0.878   0.778 -1.4876 -3.4565 -3.3504
 1756SOL     OW 6166   2.038   5.797   2.513  0.1560  0.0516 -0.2457
 1756SOL    HW1 6167   1.964   5.831   2.455  1.1262  1.1416 -0.9123
 1756SOL    HW2 6168   2.106   5.750   2.456  0.6333  0.2587  0.1397
 1757SOL     OW 6169   3.990   4.216   1.658  0.5303 -0.6916 -0.2044
 1757SOL    HW1 6170   4.078   4.175   1.681  0.9684  0.4088  0.1547
 1757SOL    HW2 6171   4.004   4.288   1.589  0.1742  0.6416  1.0614
 1758SOL     OW 6172   3.807   6.876   1.019 -0.0547 -0.8264 -0.0182
 1758SOL    HW1 6173   3.829   6.799   0.959  1.4823 -1.3600  1.1831
 1758SOL    HW2 6174   3.872   6.880   1.094  0.5569  2.2425 -0.5593
 1759SOL     OW 6175   1.238   4.519   5.786  0.5956 -0.2464  1.1052
 1759SOL    HW1 6176   1.169   4.588   5.809 -0.4337 -0.9482  0.2066
 1759SOL    HW2 6177   1.211   4.431   5.822  0.7032 -0.6547  0.2270
 1760SOL     OW 6178   0.302   4.357   1.047  0.1436 -0.0254 -0.2305
 1760SOL    HW1 6179   0.309   4.390   0.952  0.4110 -0.3715 -0.3352
 1760SOL    HW2 6180   0.390   4.317   1.074  0.2455  0.5793  0.3563
 1761SOL     OW 6181   0.872   6.605   0.104  0.4584 -0.1716 -0.4236
 1761SOL    HW1 6182   0.847   6.574   0.196 -0.4414  0.8927 -0.2924
 1761SOL    HW2 6183   0.972   6.600   0.094  0.8580  2.0407  1.5404
 1762SOL     OW 6184   6.940   0.728   1.726 -0.2711  0.4999 -0.4107
 1762SOL    HW1 6185   6.915   0.821   1.751 -0.4113  0.5404 -0.6926
 1762SOL    HW2 6186   6.992   0.729   1.641  2.9458  0.6526  1.4154
 1763SOL     OW 6187   5.731   6.828   6.436 -0.2928 -0.3896  0.5157
 1763SOL    HW1 6188   5.676   6.745   6.445 -0.6801 -0.3055 -0.8750
 1763SOL    HW2 6189   5.745   6.848   6.339 -0.1616  1.1457  0.8313
 1764SOL     OW 6190   1.377   4.481   5.270  0.3941  0.7883  0.1340
 1764SOL    HW1 6191   1.325   4.398   5.251  0.1761  0.4656  2.0096
 1764SOL    HW2 6192   1.336   4.530   5.347  2.7370  0.5632  1.6338
 1765SOL     OW 6193   4.897   3.253   6.767  0.2167  0.0181 -0.0721
 1765SOL    HW1 6194   4.887   3.304   6.681  0.6756 -0.6721 -0.5438
 1765SOL    HW2 6195   4.864   3.159   6.753  1.3868 -0.4412  0.1645
 1766SOL     OW 6196   4.143   5.821   3.485 -0.3024 -0.6459  0.4312
 1766SOL    HW1 6197   4.152   5.744   3.549 -0.0966 -0.2622  0.8668
 1766SOL    HW2 6198   4.193   5.900   3.521 -0.6680 -0.2506  0.0744
 1767SOL     OW 6199   1.202   4.796   1.957 -0.1750  0.1206 -0.3073
 1767SOL    HW1 6200   1.282   4.849   1.985 -0.0533  0.1223 -0.6608
 1767SOL    HW2 6201   1.148   4.772   2.038 -0.4687  1.1617 -0.1803
 1768SOL     OW 6202   0.751   5.654   3.091  0.1954  0.6625  0.5384
 1768SOL    HW1 6203   0.847   5.678   3.102  0.1205  0.6139  1.4214
 1768SOL    HW2 6204   0.744   5.558   3.063  0.3929  0.4187  1.2975
 1769SOL     OW 6205   4.499   2.917   1.131  0.0859  0.4073  0.7863
 1769SOL    HW1 6206   4.550   2.892   1.048 -1.6217  0.9736 -0.5050
 1769SOL    HW2 6207   4.518   3.012   1.155 -0.1296  0.5359  0.4634
 1770SOL     OW 6208   1.093   0.286   3.034 -0.5636 -0.1560 -0.0237
 1770SOL    HW1 6209   1.111   0.283   3.133 -2.7409 -0.4806  0.4028
 1770SOL    HW2 6210   1.036   0.365   3.013  0.0133 -0.0044 -1.0781
 1771SOL     OW 6211   0.480   4.276   5.921  0.5073  0.7558  0.6989
 1771SOL    HW1 6212   0.412   4.341   5.953  0.9635  1.9965 -0.7021
 1771SOL    HW2 6213   0.514   4.222   5.998 -0.9279  1.1783  1.6590
 1772SOL     OW 6214   6.139   0.967   2.077 -0.0933 -0.0658 -0.0854
 1772SOL    HW1 6215   6.099   0.980   1.986  0.3944 -0.0796 -0.3032
 1772SOL    HW2 6216   6.074   0.918   2.135 -0.5276  0.2048 -0.3323
 1773SOL     OW 6217   3.259   4.065   3.597  0.2107 -0.1066  0.2007
 1773SOL    HW1 6218   3.337   4.099   3.544  1.5939 -0.8162  1.6920
 1773SOL    HW2 6219   3.259   4.107   3.687 -1.5105  0.3156  0.0371
 1774SOL     OW 6220   2.270   1.074   3.353  0.0154  0.0199  0.4334
 1774SOL    HW1 6221   2.197   1.013   3.322  1.5405 -2.0942  0.7735
 1774SOL    HW2 6222   2.232   1.141   3.417 -2.0031  0.4843 -1.1429
 1775SOL     OW 6223   2.668   4.599   2.656 -0.0346 -0.7237 -0.3191
 1775SOL    HW1 6224   2.759   4.559   2.666  0.2050 -0.4946 -1.4951
 1775SOL    HW2 6225   2.670   4.670   2.586 -0.9695 -0.2331  0.1341
 1776SOL     OW 6226   6.235   4.319   4.660  0.1877  0.1022  0.4726
 1776SOL    HW1 6227   6.303   4.315   4.587  0.1242 -0.5053  0.4389
 1776SOL    HW2 6228   6.181   4.235   4.660  0.8359 -0.3488  1.8448
 1777SOL     OW 6229   4.333   4.718   0.015 -0.1011  0.2275  0.7120
 1777SOL    HW1 6230   4.248   4.685   0.056 -0.8084  0.4440 -0.5351
 1777SOL    HW2 6231   4.321   4.813  -0.015  0.7304  0.4050  0.8977
 1778SOL     OW 6232   2.305   4.814   6.439  0.4573  0.3505  0.0930
 1778SOL    HW1 6233   2.313   4.898   6.494  2.4589 -0.8064  1.6733
 1778SOL    HW2 6234   2.313   4.734   6.499  1.8072 -0.9798 -1.7578
 1779SOL     OW 6235   1.877   6.708   4.496 -0.4330 -0.1319  0.1322
 1779SOL    HW1 6236   1.817   6.775   4.453  1.8002  1.8506 -0.1302
 1779SOL    HW2 6237   1.913   6.745   4.582  0.6057 -1.1274  0.1618
 1780SOL     OW 6238   6.638   4.449   4.454 -0.2054  0.1140 -0.2240
 1780SOL    HW1 6239   6.659   4.504   4.535  0.4489 -0.4071 -0.0350
 1780SOL    HW2 6240   6.562   4.387   4.475 -1.4062  1.3854 -0.6414
 1781SOL     OW 6241   4.208   2.482   1.356  0.0403 -0.1759  0.0212
 1781SOL    HW1 6242   4.144   2.455   1.427 -0.0044 -0.1296 -0.0015
 1781SOL    HW2 6243   4.302   2.466   1.387  0.0448  0.4348  0.3389
 1782SOL     OW 6244   2.218   0.580   0.159  0.0371 -0.0731 -0.7637
 1782SOL    HW1 6245   2.216   0.514   0.235 -1.3126  1.2302  0.3698
 1782SOL    HW2 6246   2.308   0.574   0.114  0.6215 -1.3765  0.4625
 1783SOL     OW 6247   4.061   5.904   5.027  0.2717 -0.3371  0.6597
 1783SOL    HW1 6248   4.015   5.931   5.112  1.9398  1.6652  0.9849
 1783SOL    HW2 6249   4.093   5.985   4.979  0.8410 -1.5361 -1.0686
 1784SOL     OW 6250   3.576   6.503   6.155 -0.3374  0.1052  0.2436
 1784SOL    HW1 6251   3.638   6.579   6.174  0.0888  0.1533 -1.1810
 1784SOL    HW2 6252   3.628   6.427   6.115 -1.1836  0.1672 -1.0282
 1785SOL     OW 6253   2.275   3.138   6.575  0.2827 -0.3039 -0.4272
 1785SOL    HW1 6254   2.282   3.204   6.500  1.2785  0.6588  0.4808
 1785SOL    HW2 6255   2.345   3.158   6.643  0.1115 -1.8553  0.2328
 1786SOL     OW 6256   1.469   0.653   0.260 -0.3608 -0.2098  0.2889
 1786SOL    HW1 6257   1.394   0.649   0.194 -0.1806  1.1460 -0.0290
 1786SOL    HW2 6258   1.480   0.746   0.293 -0.7996 -0.9422  2.7082
 1787SOL     OW 6259   5.785   0.844   4.650  0.0605 -0.2748  0.2714
 1787SOL    HW1 6260   5.700   0.795   4.631 -1.0242  1.5398  0.2496
 1787SOL    HW2 6261   5.799   0.915   4.582  0.9291  0.2856  1.0033
 1788SOL     OW 6262   5.061   1.809   5.250  0.5864  0.4326 -0.2891
 1788SOL    HW1 6263   4.981   1.750   5.253 -1.0195  2.4795 -0.2069
 1788SOL    HW2 6264   5.131   1.768   5.192 -1.3905 -0.4533 -2.2253
 1789SOL     OW 6265   4.355   4.255   6.914 -0.4583  0.6484 -0.1625
 1789SOL    HW1 6266   4.272   4.298   6.948 -0.6646 -0.5825  0.9489
 1789SOL    HW2 6267   4.395   4.312   6.842  0.0017  3.4132  2.0936
 1790SOL     OW 6268   3.347   1.453   3.095  0.1044  0.6619 -0.0698
 1790SOL    HW1 6269   3.255   1.428   3.124 -0.2293  1.6456 -0.2341
 1790SOL    HW2 6270   3.388   1.377   3.044 -0.2502 -0.1318  0.8099
 1791SOL     OW 6271   5.422   6.268   7.010  0.5294  0.2827  0.4086
 1791SOL    HW1 6272   5.460   6.350   6.968  3.0997 -0.7359  0.6090
 1791SOL    HW2 6273   5.492   6.222   7.064 -0.7161 -2.2831 -0.0202
 1792SOL     OW 6274   6.578   2.647   1.941  0.0433  0.2881  0.2995
 1792SOL    HW1 6275   6.520   2.566   1.951  0.7998 -0.3262 -0.1988
 1792SOL    HW2 6276   6.522   2.724   1.912 -0.2479 -0.8059 -2.3322
 1793SOL     OW 6277   2.018   4.181   6.447 -0.1336 -0.7434  0.6890
 1793SOL    HW1 6278   1.970   4.252   6.396  1.9607  0.5789  0.4623
 1793SOL    HW2 6279   2.037   4.103   6.387 -0.3072 -0.4685  0.2770
 1794SOL     OW 6280   6.583   3.155   6.220  0.0948 -0.0285 -0.0828
 1794SOL    HW1 6281   6.681   3.138   6.235 -0.0785 -0.2378  0.8669
 1794SOL    HW2 6282   6.535   3.150   6.308 -0.7439  0.2472 -0.5230
 1795SOL     OW 6283   4.866   0.645   1.322 -0.4575  0.1568  0.2733
 1795SOL    HW1 6284   4.949   0.594   1.343 -0.3893 -0.3066 -1.0641
 1795SOL    HW2 6285   4.881   0.702   1.241 -1.4433  0.0459  0.0016
 1796SOL     OW 6286   0.615   3.651   3.445  0.3133  0.0153  0.0462
 1796SOL    HW1 6287   0.588   3.729   3.388  1.6066  0.1351 -0.4526
 1796SOL    HW2 6288   0.647   3.577   3.386  0.5846 -0.2912  0.5699
 1797SOL     OW 6289   5.238   6.830   1.510 -0.4567 -0.2299 -0.1772
 1797SOL    HW1 6290   5.255   6.826   1.411  0.7363  0.3773 -0.0117
 1797SOL    HW2 6291   5.212   6.739   1.543  2.1035 -1.1757 -0.5553
 1798SOL     OW 6292   6.521   3.740   1.974  0.1014  0.3425  0.1072
 1798SOL    HW1 6293   6.589   3.675   2.010  0.8175  2.0867  2.1226
 1798SOL    HW2 6294   6.429   3.703   1.987  0.4788 -0.1251  1.5773
 1799SOL     OW 6295   3.079   4.094   0.741  0.0448  0.3416  0.3298
 1799SOL    HW1 6296   3.037   4.006   0.765  0.1338  0.3809  0.6439
 1799SOL    HW2 6297   3.059   4.116   0.646 -0.6972  0.3879  0.4900
 1800SOL     OW 6298   4.873   6.655   0.760  0.3904 -0.0354 -0.1690
 1800SOL    HW1 6299   4.773   6.650   0.766  0.3853 -0.5394 -0.6259
 1800SOL    HW2 6300   4.903   6.621   0.671  0.9444  0.4989 -0.1932
 1801SOL     OW 6301   4.545   1.711   2.968 -0.0229  0.1004  0.9770
 1801SOL    HW1 6302   4.641   1.693   2.950 -0.2013  0.2189 -0.1416
 1801SOL    HW2 6303   4.537   1.783   3.037  0.6932  0.8876  0.2509
 1802SOL     OW 6304   0.815   3.393   2.023  0.2744  0.2468  0.3978
 1802SOL    HW1 6305   0.730   3.343   2.006 -0.1271 -0.0995  3.0178
 1802SOL    HW2 6306   0.876   3.338   2.080  1.3791  1.3236  0.3067
 1803SOL     OW 6307   6.788   3.059   0.698 -0.4106  0.2711  0.2952
 1803SOL    HW1 6308   6.881   3.096   0.697  1.4849 -3.9797 -0.9345
 1803SOL    HW2 6309   6.746   3.073   0.609  0.5475 -1.0028 -0.3817
 1804SOL     OW 6310   6.404   1.207   2.633  0.3862  0.2125  0.3682
 1804SOL    HW1 6311   6.408   1.244   2.725  0.1777  2.7647 -0.5665
 1804SOL    HW2 6312   6.496   1.191   2.599  0.5989  1.8532  0.0982
 1805SOL     OW 6313   3.856   3.844   6.636  0.3925  0.4775 -0.4848
 1805SOL    HW1 6314   3.880   3.899   6.556  0.0399  1.4711  0.0709
 1805SOL    HW2 6315   3.859   3.902   6.718  0.8088 -0.5342  0.2307
 1806SOL     OW 6316   4.443   6.110   6.827  0.1847  0.3533 -0.1437
 1806SOL    HW1 6317   4.396   6.198   6.838 -1.3796 -0.4381 -0.3057
 1806SOL    HW2 6318   4.488   6.086   6.912 -0.9588  0.4314  0.4972
 1807SOL     OW 6319   1.834   5.039   5.482  0.6049  0.0345 -0.1428
 1807SOL    HW1 6320   1.882   5.022   5.567  2.2987  0.6355 -0.9384
 1807SOL    HW2 6321   1.895   5.021   5.404 -0.2136  1.4877 -1.1797
 1808SOL     OW 6322   5.077   2.473   6.367  0.2391  0.6902  0.2371
 1808SOL    HW1 6323   5.096   2.378   6.390 -0.0018  0.1659 -1.5785
 1808SOL    HW2 6324   4.980   2.492   6.382 -0.1464  0.0459 -1.2037
 1809SOL     OW 6325   2.577   6.220   2.525 -0.0559 -0.2045 -0.4012
 1809SOL    HW1 6326   2.625   6.153   2.580 -2.2609 -0.5212  1.2861
 1809SOL    HW2 6327   2.597   6.312   2.559  3.2553  0.2065 -2.9401
 1810SOL     OW 6328   6.858   3.113   6.270  0.3902  0.1729  0.2654
 1810SOL    HW1 6329   6.867   3.032   6.328  2.3935  0.7116  0.7862
 1810SOL    HW2 6330   6.910   3.098   6.186 -0.1855  0.4915 -0.1527
 1811SOL     OW 6331   6.800   1.078   6.220  0.0024 -0.2716  0.3176
 1811SOL    HW1 6332   6.776   0.982   6.204 -0.2224 -0.3413  1.0553
 1811SOL    HW2 6333   6.811   1.124   6.132  1.0096 -1.1917 -0.0641
 1812SOL     OW 6334   0.148   1.945   5.711 -0.2496 -0.7242  0.4442
 1812SOL    HW1 6335   0.169   1.873   5.645 -1.5800 -0.9305  0.2191
 1812SOL    HW2 6336   0.094   1.907   5.787  0.3631 -0.2742  1.1247
 1813SOL     OW 6337   2.264   2.825   2.667 -0.6546  0.4068  0.0685
 1813SOL    HW1 6338   2.287   2.907   2.721 -1.3569  0.4402  0.3268
 1813SOL    HW2 6339   2.258   2.850   2.571 -0.5982  0.5995  0.1138
 1814SOL     OW 6340   4.611   6.769   5.388 -1.0996 -0.1932 -0.4769
 1814SOL    HW1 6341   4.555   6.758   5.305 -0.2767  1.5976 -1.3111
 1814SOL    HW2 6342   4.551   6.787   5.466 -1.7563  1.0789 -1.2403
 1815SOL     OW 6343   1.398   2.860   0.054 -0.5657  0.4385 -0.3551
 1815SOL    HW1 6344   1.447   2.933   0.005 -0.2659  1.2619  1.1269
 1815SOL    HW2 6345   1.428   2.771   0.018  0.5705  0.9818 -0.8041
 1816SOL     OW 6346   6.903   2.836   4.117 -0.0271 -0.2859 -0.1271
 1816SOL    HW1 6347   6.828   2.881   4.164 -0.7742 -0.3758 -1.1896
 1816SOL    HW2 6348   6.987   2.890   4.126 -1.0875  1.8255 -2.1114
 1817SOL     OW 6349   6.932   0.252   3.241  0.0208  0.6382 -0.1811
 1817SOL    HW1 6350   6.861   0.198   3.195 -0.0573  0.1164  0.5332
 1817SOL    HW2 6351   6.986   0.301   3.173  0.2712 -0.5600 -0.8728
 1818SOL     OW 6352   5.851   6.888   5.071  0.0642  1.2227  0.5464
 1818SOL    HW1 6353   5.916   6.883   4.995  0.2245  0.3402  0.7314
 1818SOL    HW2 6354   5.888   6.947   5.143  0.0596  1.7952  0.0868
 1819SOL     OW 6355   4.934   4.257   6.192  0.4444  0.5726  0.4617
 1819SOL    HW1 6356   4.945   4.218   6.284  0.0169 -0.0913  0.2394
 1819SOL    HW2 6357   4.851   4.312   6.190  1.1542  1.6999  0.8313
 1820SOL     OW 6358   1.282   0.883   0.520 -0.0575  0.5904 -0.9663
 1820SOL    HW1 6359   1.369   0.861   0.564 -0.7422 -2.8194 -1.0562
 1820SOL    HW2 6360   1.299   0.908   0.424  0.8348  0.1602 -0.9286
 1821SOL     OW 6361   3.946   3.925   5.916  0.2717 -0.3727  0.0144
 1821SOL    HW1 6362   4.017   3.936   5.985 -1.2667  1.9111  1.3634
 1821SOL    HW2 6363   3.985   3.942   5.825  1.5575  0.3404  0.6645
 1822SOL     OW 6364   1.757   6.495   5.235  0.1657  0.0924 -0.4809
 1822SOL    HW1 6365   1.784   6.521   5.142  0.8009  1.3220  0.0252
 1822SOL    HW2 6366   1.657   6.488   5.239 -0.0893  2.7498 -0.6241
 1823SOL     OW 6367   4.272   0.609   2.884 -0.4698 -0.7457  0.3254
 1823SOL    HW1 6368   4.266   0.672   2.962 -0.0508  0.0384 -0.2666
 1823SOL    HW2 6369   4.233   0.653   2.803 -1.7458 -1.8940  0.2732
 1824SOL     OW 6370   5.406   0.835   6.763 -0.0472 -0.3133  0.1704
 1824SOL    HW1 6371   5.492   0.881   6.782  0.5883 -1.6579  0.6057
 1824SOL    HW2 6372   5.331   0.902   6.768  0.8757  0.7289  0.4336
 1825SOL     OW 6373   3.847   0.133   2.931  0.0370 -0.3202  0.0089
 1825SOL    HW1 6374   3.836   0.167   2.837 -1.1415  0.0160  0.2515
 1825SOL    HW2 6375   3.852   0.033   2.930  1.8760 -0.2539 -0.5650
 1826SOL     OW 6376   5.815   4.631   3.729 -0.5102  0.0582 -0.3830
 1826SOL    HW1 6377   5.788   4.540   3.758 -1.7954  0.2501 -0.9175
 1826SOL    HW2 6378   5.901   4.656   3.774 -1.9003 -0.0000  2.5742
 1827SOL     OW 6379   5.130   3.936   5.678 -0.2234 -0.2485 -0.0789
 1827SOL    HW1 6380   5.212   3.919   5.623  0.2256 -1.1626  0.8381
 1827SOL    HW2 6381   5.065   3.990   5.624  0.5287 -0.4095 -1.2012
 1828SOL     OW 6382   4.505   2.369   5.396  0.2404  0.7783  0.1942
 1828SOL    HW1 6383   4.561   2.321   5.462  1.9705  0.8329 -1.1560
 1828SOL    HW2 6384   4.563   2.429   5.340 -1.1213  0.6384 -1.4491
 1829SOL     OW 6385   2.485   5.378   3.326 -0.1553  0.4877  0.4644
 1829SOL    HW1 6386   2.499   5.387   3.425 -0.1078 -0.3565  0.5418
 1829SOL    HW2 6387   2.571   5.398   3.278  0.5785 -1.6880  0.7638
 1830SOL     OW 6388   6.192   2.258   1.722  0.1481 -0.3031 -0.6675
 1830SOL    HW1 6389   6.236   2.329   1.667  0.6718  0.3823  0.5960
 1830SOL    HW2 6390   6.250   2.236   1.801 -0.7164 -1.0502 -0.2209
 1831SOL     OW 6391   5.154   4.245   3.084 -0.1205 -0.1169  0.2613
 1831SOL    HW1 6392   5.251   4.235   3.104 -0.1313 -0.2578  0.2451
 1831SOL    HW2 6393   5.127   4.177   3.015 -0.3901 -0.5527  0.7937
 1832SOL     OW 6394   6.347   4.735   0.234 -0.0109  0.3128 -0.0728
 1832SOL    HW1 6395   6.431   4.686   0.255  0.0272  0.4028 -0.0180
 1832SOL    HW2 6396   6.307   4.771   0.318  0.5638  1.3634 -0.2339
 1833SOL     OW 6397   2.762   0.145   5.136  0.2485 -0.0914  0.7850
 1833SOL    HW1 6398   2.804   0.074   5.080 -0.1610  1.0022 -0.9760
 1833SOL    HW2 6399   2.704   0.103   5.206  0.1511 -1.4869 -0.1057
 1834SOL     OW 6400   4.208   5.506   2.660 -0.3524 -0.9256  0.0859
 1834SOL    HW1 6401   4.269   5.489   2.737  0.6063  1.2426 -0.1008
 1834SOL    HW2 6402   4.232   5.448   2.583  0.1571 -1.5133  0.6866
 1835SOL     OW 6403   2.233   5.736   1.429 -0.3005  0.1649  0.3195
 1835SOL    HW1 6404   2.243   5.658   1.492  0.3417  1.4839  1.9053
 1835SOL    HW2 6405   2.161   5.796   1.463  0.3368  1.1134  0.0151
 1836SOL     OW 6406   6.965   1.084   4.722  0.5258 -0.9526 -0.0430
 1836SOL    HW1 6407   7.057   1.116   4.700 -0.1863  0.9941 -0.3608
 1836SOL    HW2 6408   6.904   1.103   4.646 -0.1158 -2.5407  0.0267
 1837SOL     OW 6409   3.617   3.832   0.172 -0.0683 -0.3916 -0.2320
 1837SOL    HW1 6410   3.547   3.772   0.133 -0.6376 -0.0194  0.1900
 1837SOL    HW2 6411   3.657   3.888   0.100  0.4661 -1.2685 -0.6262
 1838SOL     OW 6412   1.612   3.922   3.311 -0.0173 -0.0112 -0.3432
 1838SOL    HW1 6413   1.536   3.959   3.364  0.9395  1.6062 -0.0637
 1838SOL    HW2 6414   1.600   3.947   3.214 -1.6891 -2.8420 -1.0026
 1839SOL     OW 6415   3.448   0.433   1.321  0.3778  1.0170  0.1692
 1839SOL    HW1 6416   3.433   0.338   1.293  2.6997  1.1634 -1.9150
 1839SOL    HW2 6417   3.450   0.439   1.421 -3.6902 -0.3730  0.4983
 1840SOL     OW 6418   1.084   5.380   1.031  0.6975  0.8603  0.0529
 1840SOL    HW1 6419   1.053   5.449   0.965 -1.3315  0.0539  0.0559
 1840SOL    HW2 6420   1.039   5.396   1.119 -1.8593 -1.7473 -0.5936
 1841SOL     OW 6421   5.467   5.582   5.675  0.3713 -0.2063 -0.7377
 1841SOL    HW1 6422   5.470   5.546   5.768  1.3500  1.2958 -0.1603
 1841SOL    HW2 6423   5.371   5.590   5.646 -0.0420  1.0656  0.8562
 1842SOL     OW 6424   5.821   1.518   6.931 -0.8250 -0.0666 -0.7144
 1842SOL    HW1 6425   5.749   1.460   6.969  1.3557 -3.6423 -1.5003
 1842SOL    HW2 6426   5.911   1.485   6.962  0.6086  3.2284 -0.9646
 1843SOL     OW 6427   5.402   4.145   1.218  0.0528 -0.5500  0.1224
 1843SOL    HW1 6428   5.434   4.209   1.287 -0.9972 -0.6611  0.7372
 1843SOL    HW2 6429   5.303   4.158   1.204 -0.2869 -2.3686  0.6411
 1844SOL     OW 6430   5.617   6.209   1.786  0.1954 -0.0958  0.3173
 1844SOL    HW1 6431   5.691   6.167   1.735 -0.1750  0.2027 -0.4780
 1844SOL    HW2 6432   5.634   6.199   1.884  0.0169 -2.3000  0.1878
 1845SOL     OW 6433   2.857   2.223   1.506 -0.7472  0.8045  0.0464
 1845SOL    HW1 6434   2.763   2.250   1.484 -0.7241  0.1678 -0.9000
 1845SOL    HW2 6435   2.890   2.159   1.437  0.6024  1.4782  0.0316
 1846SOL     OW 6436   1.988   5.876   6.120 -0.3770  0.3018 -0.0182
 1846SOL    HW1 6437   2.020   5.866   6.026  1.1610 -0.8203  0.5828
 1846SOL    HW2 6438   1.902   5.827   6.132 -0.1477 -0.2602 -0.6283
 1847SOL     OW 6439   6.410   5.450   2.605  0.1928 -0.5466  0.6362
 1847SOL    HW1 6440   6.444   5.479   2.695 -0.1532  1.1810  0.2556
 1847SOL    HW2 6441   6.467   5.490   2.534 -1.4660  0.8902  0.0371
 1848SOL     OW 6442   0.402   2.520   2.231 -0.1916  0.0913 -0.2182
 1848SOL    HW1 6443   0.381   2.571   2.147 -0.0556  1.8613  0.7601
 1848SOL    HW2 6444   0.499   2.496   2.232  0.7896  3.5005  1.0678
 1849SOL     OW 6445   2.763   0.784   5.887 -0.0247  0.6543 -0.4067
 1849SOL    HW1 6446   2.713   0.837   5.956  0.3544  0.6223 -0.1027
 1849SOL    HW2 6447   2.843   0.836   5.857  0.6929 -0.0023  0.3428
 1850SOL     OW 6448   6.402   6.329   5.482  0.1270  0.1591 -0.2791
 1850SOL    HW1 6449   6.349   6.253   5.443  0.6729 -0.0860 -0.5578
 1850SOL    HW2 6450   6.491   6.333   5.438  1.0174 -0.5165  1.3996
 1851SOL     OW 6451   5.645   1.791   6.109  0.1648  0.2568  0.2895
 1851SOL    HW1 6452   5.581   1.817   6.181  0.7877  1.7633  0.3197
 1851SOL    HW2 6453   5.713   1.727   6.146  0.1017  0.5286  0.8751
 1852SOL     OW 6454   4.910   4.965   6.973  0.1081 -0.3550 -0.2748
 1852SOL    HW1 6455   4.997   4.917   6.986  0.6685  0.2950 -1.4863
 1852SOL    HW2 6456   4.896   5.029   7.049  0.8222 -0.2512 -0.2232
 1853SOL     OW 6457   3.414   3.895   1.428  0.3787  0.5491 -0.3802
 1853SOL    HW1 6458   3.333   3.841   1.405  0.7669 -0.8350  1.2865
 1853SOL    HW2 6459   3.397   3.991   1.406 -0.7980 -0.0313 -2.2747
 1854SOL     OW 6460   5.327   1.096   5.988 -0.1825  0.3100 -0.3607
 1854SOL    HW1 6461   5.281   1.007   5.980 -0.5319  0.6235 -2.3830
 1854SOL    HW2 6462   5.263   1.169   5.966  0.3106  1.0239  0.5068
 1855SOL     OW 6463   5.616   6.775   2.263  0.0462 -0.7878 -0.0716
 1855SOL    HW1 6464   5.588   6.871   2.270  0.1195 -0.8136  0.6233
 1855SOL    HW2 6465   5.559   6.719   2.323 -0.1989 -1.2268 -0.7065
 1856SOL     OW 6466   4.995   0.813   4.240  0.1088  0.1790  0.0448
 1856SOL    HW1 6467   4.922   0.756   4.205  0.7024 -1.3243  1.1301
 1856SOL    HW2 6468   5.035   0.770   4.321  0.1786  2.4433  1.3056
 1857SOL     OW 6469   5.258   3.716   5.894 -0.0539  0.2231 -0.5762
 1857SOL    HW1 6470   5.245   3.617   5.892  0.8152  0.0745  0.3288
 1857SOL    HW2 6471   5.191   3.760   5.834 -1.4034 -0.8095  0.1222
 1858SOL     OW 6472   6.055   5.437   6.510  0.0795 -0.1619  0.4176
 1858SOL    HW1 6473   6.044   5.397   6.420 -1.4527 -0.8449  0.8710
 1858SOL    HW2 6474   6.021   5.532   6.509  2.3717  0.7228 -0.2936
 1859SOL     OW 6475   3.017   1.144   5.038 -0.1369 -0.1250 -0.0526
 1859SOL    HW1 6476   3.021   1.052   5.076 -3.5618 -1.2733 -2.0404
 1859SOL    HW2 6477   2.978   1.206   5.106 -3.2721 -1.4917 -0.4059
 1860SOL     OW 6478   2.534   6.339   4.163  0.1056 -0.3528  0.2897
 1860SOL    HW1 6479   2.498   6.251   4.193  0.3137 -0.7413 -0.5709
 1860SOL    HW2 6480   2.487   6.413   4.212 -0.2014 -0.9283  0.8779
 1861SOL     OW 6481   3.152   3.222   0.510  0.2938 -0.1902 -0.0262
 1861SOL    HW1 6482   3.135   3.309   0.556  2.0550 -0.3030  0.9394
 1861SOL    HW2 6483   3.139   3.147   0.574  3.2177 -0.3279  0.5694
 1862SOL     OW 6484   6.491   5.308   1.667 -0.6329 -0.0876  0.6548
 1862SOL    HW1 6485   6.575   5.342   1.624 -0.8329 -1.3360 -0.8501
 1862SOL    HW2 6486   6.497   5.208   1.675 -1.5824 -0.0936  1.4455
 1863SOL     OW 6487   1.699   0.335   4.967 -0.2934 -0.3497 -0.4233
 1863SOL    HW1 6488   1.615   0.390   4.971 -0.5220 -0.7076 -0.2713
 1863SOL    HW2 6489   1.766   0.381   4.909 -1.0861 -0.7200 -1.6664
 1864SOL     OW 6490   5.803   6.004   2.659  0.5664 -0.0943 -0.1387
 1864SOL    HW1 6491   5.866   6.064   2.708 -0.3427  0.9461 -0.2081
 1864SOL    HW2 6492   5.741   6.059   2.603  1.2279 -1.2237 -2.0737
 1865SOL     OW 6493   0.220   4.490   0.042 -0.0812  0.1925 -0.2705
 1865SOL    HW1 6494   0.124   4.518   0.045  0.3984  1.8092  1.3614
 1865SOL    HW2 6495   0.278   4.562   0.080  1.4594 -2.0626  1.9527
 1866SOL     OW 6496   4.414   1.521   6.758 -0.2886 -0.0623 -0.4462
 1866SOL    HW1 6497   4.359   1.510   6.675 -1.8287 -1.3391  0.6709
 1866SOL    HW2 6498   4.392   1.448   6.822  1.5439  0.3674  0.7410
 1867SOL     OW 6499   6.735   4.346   2.640  0.2362 -0.5463 -0.3950
 1867SOL    HW1 6500   6.823   4.342   2.592  0.2332 -1.0198 -0.3633
 1867SOL    HW2 6501   6.675   4.412   2.593  0.7165  0.0212 -0.2247
 1868SOL     OW 6502   2.867   2.532   6.149 -0.1655  0.1316  0.4743
 1868SOL    HW1 6503   2.826   2.598   6.212 -2.1056  0.7698 -1.3357
 1868SOL    HW2 6504   2.829   2.546   6.057  2.0441 -1.1852 -0.7328
 1869SOL     OW 6505   2.937   0.291   6.668 -0.0928 -0.1473  0.1296
 1869SOL    HW1 6506   2.985   0.372   6.701 -0.2494  0.5019 -1.1718
 1869SOL    HW2 6507   2.999   0.234   6.614 -0.5146  0.1958 -0.7333
 1870SOL     OW 6508   2.147   5.934   5.889 -0.0686  0.4359  0.5666
 1870SOL    HW1 6509   2.059   5.941   5.841  0.0309  1.2222  0.4833
 1870SOL    HW2 6510   2.201   6.016   5.870 -0.2598  1.0515  2.5113
 1871SOL     OW 6511   4.988   1.676   3.345  0.9474  0.4950  0.5868
 1871SOL    HW1 6512   5.055   1.742   3.382  0.6997  1.1662 -0.1387
 1871SOL    HW2 6513   4.933   1.721   3.275 -0.0592 -0.1479  0.9531
 1872SOL     OW 6514   1.075   4.981   0.793  0.3921 -0.0498 -0.4898
 1872SOL    HW1 6515   1.096   4.965   0.889 -2.2855  0.0262  0.1948
 1872SOL    HW2 6516   1.062   5.079   0.778  0.2911 -0.1134 -0.8236
 1873SOL     OW 6517   5.269   6.823   1.840 -0.0085 -0.1129 -0.0980
 1873SOL    HW1 6518   5.356   6.872   1.835 -0.5989  1.2512  1.9045
 1873SOL    HW2 6519   5.230   6.817   1.748  0.6083  2.3063 -0.6093
 1874SOL     OW 6520   3.842   6.453   4.178 -0.0608 -0.1654 -0.8718
 1874SOL    HW1 6521   3.752   6.415   4.161 -0.0327 -0.7470  0.2118
 1874SOL    HW2 6522   3.860   6.455   4.276  0.5880  1.1621 -0.9870
 1875SOL     OW 6523   3.840   4.379   1.113 -0.6710 -0.2170 -0.1719
 1875SOL    HW1 6524   3.842   4.348   1.017  0.5786 -0.7212 -0.0078
 1875SOL    HW2 6525   3.933   4.386   1.147 -0.9475  2.4875  0.2472
 1876SOL     OW 6526   1.607   5.829   6.861  0.1810  0.2605  0.1620
 1876SOL    HW1 6527   1.652   5.783   6.937  2.0805 -1.5037 -1.8915
 1876SOL    HW2 6528   1.509   5.810   6.864  0.1861  0.3546  2.1964
 1877SOL     OW 6529   5.335   4.375   6.944  0.1178  0.3970 -0.1193
 1877SOL    HW1 6530   5.345   4.474   6.950 -0.5088  0.3887  1.4238
 1877SOL    HW2 6531   5.376   4.333   7.025 -1.8302 -0.4173  0.4911
 1878SOL     OW 6532   5.090   2.125   4.676  0.2662 -0.2208 -0.0207
 1878SOL    HW1 6533   5.142   2.053   4.629 -0.6716 -0.0089 -1.4368
 1878SOL    HW2 6534   5.146   2.208   4.679  0.3730 -0.2587 -0.7084
 1879SOL     OW 6535   1.184   6.832   1.837  0.1624  0.0622 -0.0040
 1879SOL    HW1 6536   1.096   6.846   1.882  0.1956 -0.1309  0.1211
 1879SOL    HW2 6537   1.249   6.901   1.869  0.8489 -1.4292  1.9701
 1880SOL     OW 6538   4.180   0.072   4.547  0.0198  0.1432  0.1975
 1880SOL    HW1 6539   4.250   0.117   4.602  0.0269 -1.5625  1.6790
 1880SOL    HW2 6540   4.090   0.096   4.582 -0.0189 -0.0920  0.2584
 1881SOL     OW 6541   2.203   6.822   1.797  0.5465 -0.3812 -0.0524
 1881SOL    HW1 6542   2.118   6.777   1.770 -0.2847  1.3208 -0.3469
 1881SOL    HW2 6543   2.278   6.789   1.739 -0.3424 -0.2122 -1.3303
 1882SOL     OW 6544   6.412   2.376   1.216 -0.2328 -0.1475 -0.0470
 1882SOL    HW1 6545   6.352   2.433   1.272 -0.0239 -1.1974  1.3038
 1882SOL    HW2 6546   6.458   2.433   1.148  0.5559  1.4599  1.7227
 1883SOL     OW 6547   3.254   5.220   0.963 -0.0821 -0.5345 -0.7661
 1883SOL    HW1 6548   3.346   5.232   0.999 -1.2349  1.4597  1.8202
 1883SOL    HW2 6549   3.209   5.309   0.954 -2.4150 -1.5568 -0.0357
 1884SOL     OW 6550   3.984   4.665   0.406 -0.3002  0.0463  0.4652
 1884SOL    HW1 6551   3.952   4.582   0.452  0.0707 -0.0890  0.4832
 1884SOL    HW2 6552   3.920   4.740   0.424  0.1803  0.1618  1.7393
 1885SOL     OW 6553   5.427   1.072   4.213  0.6785 -0.3089 -0.3769
 1885SOL    HW1 6554   5.399   1.028   4.128 -1.3379 -1.5739  0.8955
 1885SOL    HW2 6555   5.441   1.003   4.284 -1.3623  0.9184  1.3294
 1886SOL     OW 6556   3.250   3.699   2.950 -0.2708  0.1687 -0.2795
 1886SOL    HW1 6557   3.199   3.667   2.870  1.2595 -1.2228 -0.7546
 1886SOL    HW2 6558   3.305   3.778   2.925 -1.1491  0.8383 -0.1189
 1887SOL     OW 6559   1.094   3.153   2.220  0.0327 -0.5151 -0.2079
 1887SOL    HW1 6560   1.046   3.239   2.241 -0.3335 -0.2701 -1.9467
 1887SOL    HW2 6561   1.163   3.170   2.150 -0.9404 -1.8870 -1.5294
 1888SOL     OW 6562   2.984   0.070   0.920 -0.4257  0.1819 -0.9925
 1888SOL    HW1 6563   2.922   0.069   0.998  0.4690 -1.1682 -0.2693
 1888SOL    HW2 6564   3.077   0.087   0.952 -0.0945 -0.0542 -1.8148
 1889SOL     OW 6565   3.401   2.045   4.452  0.6608 -0.2736  0.9705
 1889SOL    HW1 6566   3.309   2.063   4.485 -0.2652 -0.5670 -1.2885
 1889SOL    HW2 6567   3.411   1.948   4.430  0.7985  0.1009 -0.7462
 1890SOL     OW 6568   4.817   2.567   2.923 -0.4668  0.6283 -0.0748
 1890SOL    HW1 6569   4.901   2.613   2.951 -1.2946  0.6177  2.6841
 1890SOL    HW2 6570   4.836   2.470   2.910  0.7194  1.1870 -3.3773
 1891SOL     OW 6571   0.828   2.725   5.234  0.3422 -0.0652 -0.2487
 1891SOL    HW1 6572   0.759   2.668   5.278  0.3894  0.2844  0.2958
 1891SOL    HW2 6573   0.796   2.753   5.143 -1.1939  1.8173  0.7870
 1892SOL     OW 6574   5.399   0.212   3.181 -0.0141  0.3546 -0.6493
 1892SOL    HW1 6575   5.308   0.249   3.200  0.1586 -0.2651  1.6832
 1892SOL    HW2 6576   5.420   0.224   3.084 -1.2871  3.3546 -0.6743
 1893SOL     OW 6577   1.485   3.108   6.974  0.5584  0.3988  0.0999
 1893SOL    HW1 6578   1.487   3.133   7.071  0.8736 -0.9998  0.4722
 1893SOL    HW2 6579   1.575   3.125   6.933  1.0382 -0.9070  0.5713
 1894SOL     OW 6580   6.192   0.449   3.506 -0.3836 -0.3911 -0.2867
 1894SOL    HW1 6581   6.133   0.473   3.429 -0.2405  0.5492 -0.1167
 1894SOL    HW2 6582   6.281   0.419   3.472 -0.2564  0.2022 -0.4894
 1895SOL     OW 6583   4.835   0.687   3.739  0.2018  0.0556  0.7374
 1895SOL    HW1 6584   4.806   0.783   3.746 -1.3327 -0.4530  2.1052
 1895SOL    HW2 6585   4.755   0.629   3.723  1.2964 -0.9006 -1.7844
 1896SOL     OW 6586   5.329   4.094   2.604  0.3327  0.3631 -0.4203
 1896SOL    HW1 6587   5.319   4.002   2.642 -0.6650 -0.0090 -1.5130
 1896SOL    HW2 6588   5.375   4.089   2.515  0.5035  0.9443 -0.3677
 1897SOL     OW 6589   0.468   3.802   5.294 -0.4472  0.9702  0.1472
 1897SOL    HW1 6590   0.567   3.809   5.311 -0.5586 -0.5660  1.6629
 1897SOL    HW2 6591   0.418   3.833   5.375 -1.1360 -0.8582  0.4650
 1898SOL     OW 6592   3.947   3.784   5.038  0.5944  0.2119 -0.2806
 1898SOL    HW1 6593   3.974   3.844   5.113  1.4785 -0.9777  0.3860
 1898SOL    HW2 6594   3.855   3.749   5.055  1.3160 -1.1928  1.0560
 1899SOL     OW 6595   6.063   5.060   6.943  0.4070  0.3760  0.1818
 1899SOL    HW1 6596   5.966   5.086   6.949  0.5429  0.6838  1.3255
 1899SOL    HW2 6597   6.080   4.982   7.003  0.7498 -0.0578 -0.4751
 1900SOL     OW 6598   6.954   5.188   5.411 -0.2970 -0.7274 -0.1227
 1900SOL    HW1 6599   6.955   5.235   5.323  1.7409 -0.3421  0.0484
 1900SOL    HW2 6600   6.921   5.250   5.482  0.7339 -0.0962 -0.1784
 1901SOL     OW 6601   1.829   2.572   3.944  0.3925 -0.4813 -0.0596
 1901SOL    HW1 6602   1.875   2.503   3.887  0.1369  0.0321 -0.9111
 1901SOL    HW2 6603   1.896   2.636   3.980  0.3876  0.1387 -1.1211
 1902SOL     OW 6604   5.531   1.688   2.818  0.2615  0.7843  0.4058
 1902SOL    HW1 6605   5.497   1.617   2.756  0.5880 -0.6417  1.7990
 1902SOL    HW2 6606   5.480   1.683   2.904  2.5791 -0.0677  1.7990
 1903SOL     OW 6607   5.412   2.906   5.698 -0.0503  0.1262 -0.2845
 1903SOL    HW1 6608   5.421   3.005   5.709  2.3355  0.1967 -1.9598
 1903SOL    HW2 6609   5.339   2.872   5.756  0.2069  2.6173  1.6567
 1904SOL     OW 6610   6.230   3.785   6.672 -0.1409  0.5187  0.2175
 1904SOL    HW1 6611   6.298   3.782   6.745 -0.1667 -1.1522  0.1966
 1904SOL    HW2 6612   6.142   3.815   6.709 -0.4548 -1.4230  1.1574
 1905SOL     OW 6613   3.045   6.457   2.285 -0.1088 -0.4514  0.2173
 1905SOL    HW1 6614   2.994   6.481   2.202 -0.9540  0.1616  0.9059
 1905SOL    HW2 6615   3.087   6.366   2.273 -2.0445 -1.3614 -0.0563
 1906SOL     OW 6616   6.445   5.970   4.697 -0.3146  0.2730  0.7178
 1906SOL    HW1 6617   6.379   5.921   4.753 -0.7926  0.1803  0.0811
 1906SOL    HW2 6618   6.526   5.913   4.683 -0.8571 -0.3307  0.0034
 1907SOL     OW 6619   5.029   1.977   1.834 -0.2818  0.5496  0.6928
 1907SOL    HW1 6620   5.056   2.065   1.874  0.5057 -0.1779  1.8290
 1907SOL    HW2 6621   5.105   1.942   1.778  0.8238 -0.9918  3.0164
 1908SOL     OW 6622   3.721   0.240   4.819  0.0549  0.1125  0.0042
 1908SOL    HW1 6623   3.653   0.311   4.800 -0.3707 -0.1189  0.6089
 1908SOL    HW2 6624   3.773   0.265   4.901 -0.5834 -0.6049  0.6409
 1909SOL     OW 6625   5.407   6.696   3.196  0.6609  0.0816  0.1121
 1909SOL    HW1 6626   5.316   6.729   3.217  0.7392  0.1806  0.2942
 1909SOL    HW2 6627   5.455   6.673   3.281  1.9573  3.0326  0.3153
 1910SOL     OW 6628   5.454   1.489   4.940  0.0053 -0.4320  0.5324
 1910SOL    HW1 6629   5.545   1.475   4.901 -0.1458 -2.5669  0.8412
 1910SOL    HW2 6630   5.387   1.502   4.867  0.0404 -2.4209  0.0861
 1911SOL     OW 6631   2.380   1.944   1.375 -0.0555 -0.4898  0.7438
 1911SOL    HW1 6632   2.310   1.892   1.424  0.4135  0.9119  3.1090
 1911SOL    HW2 6633   2.468   1.934   1.422  0.5889  0.3864 -0.2312
 1912SOL     OW 6634   4.009   2.691   0.261 -0.1084  0.0014  0.1641
 1912SOL    HW1 6635   3.928   2.697   0.319 -0.6675  0.8793 -0.6617
 1912SOL    HW2 6636   3.984   2.653   0.172  0.1399  1.2386 -0.4708
 1913SOL     OW 6637   5.778   1.519   4.990 -0.1742 -0.7921  0.5940
 1913SOL    HW1 6638   5.771   1.422   4.965 -0.1476 -1.1075  1.7600
 1913SOL    HW2 6639   5.838   1.566   4.925  1.9702 -2.1198  1.5364
 1914SOL     OW 6640   6.187   3.620   0.913  0.4550 -0.0446  0.3473
 1914SOL    HW1 6641   6.136   3.625   0.999  0.6625 -0.3408  0.4926
 1914SOL    HW2 6642   6.139   3.671   0.842  0.0766 -0.1321  0.5383
 1915SOL     OW 6643   4.073   2.332   1.119  0.5852  0.9892  0.5797
 1915SOL    HW1 6644   3.974   2.343   1.126  0.6310  0.4010  2.6960
 1915SOL    HW2 6645   4.118   2.396   1.181  1.3792 -1.0429  2.1927
 1916SOL     OW 6646   5.842   4.460   0.939 -0.4894 -0.5297 -0.2199
 1916SOL    HW1 6647   5.824   4.549   0.980  0.0072 -0.0531 -1.0186
 1916SOL    HW2 6648   5.924   4.420   0.980  0.2435  0.1288 -1.0027
 1917SOL     OW 6649   2.869   3.946   0.287  0.0024  0.0102  0.0805
 1917SOL    HW1 6650   2.825   4.024   0.332 -1.3696 -1.2195  0.9738
 1917SOL    HW2 6651   2.856   3.864   0.343  0.8477 -1.0063 -1.1538
 1918SOL     OW 6652   2.429   2.091   2.165 -0.5851 -0.1890  0.2318
 1918SOL    HW1 6653   2.375   2.174   2.150  0.4050  0.4972  0.3747
 1918SOL    HW2 6654   2.520   2.104   2.127 -0.8621 -1.7763 -1.0946
 1919SOL     OW 6655   0.036   3.206   3.504 -0.6741 -0.4162 -0.2050
 1919SOL    HW1 6656  -0.009   3.138   3.446 -0.8120  0.9434 -1.7456
 1919SOL    HW2 6657   0.091   3.267   3.448  0.0416  0.3107  1.2334
 1920SOL     OW 6658   3.245   3.752   0.342  0.5811  0.4949  0.1142
 1920SOL    HW1 6659   3.219   3.716   0.253  0.8409  0.4691  0.0491
 1920SOL    HW2 6660   3.322   3.700   0.379 -0.1231 -0.0921  0.7721
 1921SOL     OW 6661   5.756   3.040   6.095 -0.3064 -0.3818  0.6348
 1921SOL    HW1 6662   5.716   3.011   6.008  2.3634  2.0232 -1.5870
 1921SOL    HW2 6663   5.704   3.117   6.132 -1.4176 -1.3791  1.2298
 1922SOL     OW 6664   6.540   3.720   0.357  0.0274 -0.6228 -0.4623
 1922SOL    HW1 6665   6.601   3.664   0.414 -1.9307 -0.8966  1.4734
 1922SOL    HW2 6666   6.522   3.806   0.403  0.3018  0.2120 -1.8546
 1923SOL     OW 6667   0.796   1.253   1.932 -0.6200  0.2024 -0.0488
 1923SOL    HW1 6668   0.843   1.334   1.968  0.4780 -0.7575  0.7952
 1923SOL    HW2 6669   0.709   1.280   1.891 -1.2282  1.5793  1.9745
 1924SOL     OW 6670   1.516   4.506   1.842  0.0784 -0.3328 -0.7847
 1924SOL    HW1 6671   1.533   4.604   1.830  0.9043 -0.5720 -1.8256
 1924SOL    HW2 6672   1.424   4.491   1.876 -0.0021  0.8125 -0.4775
 1925SOL     OW 6673   1.602   5.505   2.574 -0.1540 -0.4244 -0.1796
 1925SOL    HW1 6674   1.586   5.411   2.603  0.8846 -0.9722 -1.3140
 1925SOL    HW2 6675   1.673   5.547   2.632  1.5050 -1.3323 -1.4513
 1926SOL     OW 6676   3.502   6.392   1.795 -0.2557 -0.3244 -0.0171
 1926SOL    HW1 6677   3.518   6.488   1.772 -2.6253  0.2299  0.4242
 1926SOL    HW2 6678   3.461   6.346   1.717 -3.0763  0.1649  1.0443
 1927SOL     OW 6679   6.020   2.009   1.341  0.4943 -0.1101 -0.3182
 1927SOL    HW1 6680   5.985   2.070   1.412  1.2244  0.5326 -0.5034
 1927SOL    HW2 6681   6.102   1.962   1.375 -0.2156 -1.2167 -0.0751
 1928SOL     OW 6682   0.597   1.307   2.383  0.1861 -0.2220  0.3397
 1928SOL    HW1 6683   0.693   1.335   2.378  0.7076 -1.7077  1.1229
 1928SOL    HW2 6684   0.587   1.236   2.454 -1.8613  1.3005  1.6978
 1929SOL     OW 6685   0.996   1.680   0.975  0.7627 -0.2267  0.3869
 1929SOL    HW1 6686   0.951   1.769   0.985 -0.4841 -0.8578  0.5761
 1929SOL    HW2 6687   1.036   1.673   0.884  0.5769  0.3890  0.2504
 1930SOL     OW 6688   0.072   2.638   1.508  0.6397 -0.4229 -0.2799
 1930SOL    HW1 6689   0.158   2.622   1.459  0.6659 -2.5807  0.3622
 1930SOL    HW2 6690   0.086   2.709   1.577  1.7586 -0.3486 -0.5614
 1931SOL     OW 6691   5.166   0.787   4.472  0.4935  0.1372 -0.1478
 1931SOL    HW1 6692   5.181   0.688   4.473 -0.4809 -0.0259 -0.1135
 1931SOL    HW2 6693   5.184   0.824   4.563  0.8047 -0.0184 -0.1452
 1932SOL     OW 6694   4.883   3.544   6.017 -0.0718 -0.4039 -0.6853
 1932SOL    HW1 6695   4.975   3.554   6.055 -0.2697 -0.4407 -0.1959
 1932SOL    HW2 6696   4.874   3.603   5.936  0.5546 -0.8127 -1.0614
 1933SOL     OW 6697   0.261   3.161   2.961  0.0742 -0.6148 -0.2295
 1933SOL    HW1 6698   0.277   3.159   3.059 -0.0417  0.0142 -0.1931
 1933SOL    HW2 6699   0.163   3.166   2.943  0.1515  2.0993 -0.2885
 1934SOL     OW 6700   3.606   0.494   4.812  0.4753 -0.0252 -0.1841
 1934SOL    HW1 6701   3.673   0.546   4.760  1.1646 -1.0683 -0.3561
 1934SOL    HW2 6702   3.517   0.501   4.766  0.7748  0.1816 -0.7539
 1935SOL     OW 6703   6.986   1.219   3.158 -0.4553  0.0157  0.2907
 1935SOL    HW1 6704   6.942   1.254   3.074  0.6710 -1.3152 -0.9027
 1935SOL    HW2 6705   7.057   1.283   3.187 -1.7715  1.1767  1.0691
 1936SOL     OW 6706   5.491   3.887   6.853 -0.1731 -0.2365  0.1231
 1936SOL    HW1 6707   5.554   3.812   6.876 -1.5409 -1.3518  0.3521
 1936SOL    HW2 6708   5.420   3.853   6.791 -0.7531  0.9095  0.1345
 1937SOL     OW 6709   2.272   2.816   6.298  0.2254  0.1419  0.4870
 1937SOL    HW1 6710   2.184   2.784   6.332  1.3245 -2.3575  1.2300
 1937SOL    HW2 6711   2.271   2.822   6.199 -0.2436 -1.7389  0.3548
 1938SOL     OW 6712   4.608   3.738   1.636  0.4979 -0.0330 -0.7283
 1938SOL    HW1 6713   4.605   3.837   1.649 -0.7542  0.1185 -1.8990
 1938SOL    HW2 6714   4.516   3.704   1.617  0.7078 -1.6203  0.8093
 1939SOL     OW 6715   3.363   6.058   3.109 -0.0099  0.4181  0.7470
 1939SOL    HW1 6716   3.344   6.041   3.206  1.1003 -0.3619  0.8442
 1939SOL    HW2 6717   3.277   6.067   3.059 -0.6926 -2.1936  1.2978
 1940SOL     OW 6718   4.165   6.164   4.958 -0.2562 -0.1857  0.4360
 1940SOL    HW1 6719   4.156   6.172   4.859  0.0711 -1.7847  0.2598
 1940SOL    HW2 6720   4.131   6.248   5.001  0.8598  1.1067 -1.0805
 1941SOL     OW 6721   4.366   4.790   4.388  0.0641  0.1714  0.1640
 1941SOL    HW1 6722   4.278   4.815   4.428 -0.3363 -3.1724  1.6630
 1941SOL    HW2 6723   4.432   4.772   4.462  1.3872  0.5440 -0.8896
 1942SOL     OW 6724   0.102   5.633   5.466 -0.5561  0.5903  0.1111
 1942SOL    HW1 6725   0.043   5.563   5.504 -0.1579  0.6647  0.8875
 1942SOL    HW2 6726   0.176   5.591   5.414  0.7818  0.2986  2.1315
 1943SOL     OW 6727   0.370   6.356   5.032  0.2733 -0.0610 -0.3145
 1943SOL    HW1 6728   0.457   6.401   5.014 -0.4847  0.5727 -2.7873
 1943SOL    HW2 6729   0.386   6.260   5.055  1.6745  0.4629  1.0667
 1944SOL     OW 6730   2.562   0.626   4.039  0.4057  0.0821  0.3345
 1944SOL    HW1 6731   2.563   0.636   3.940 -0.6356  0.3492  0.3408
 1944SOL    HW2 6732   2.519   0.539   4.063  0.0767  0.3106  0.5721
 1945SOL     OW 6733   5.498   0.407   5.275 -0.0899 -0.1559 -0.4749
 1945SOL    HW1 6734   5.495   0.345   5.354  0.7081 -0.3263 -0.5649
 1945SOL    HW2 6735   5.479   0.355   5.192 -1.3538  0.1048 -0.3647
 1946SOL     OW 6736   1.173   5.096   4.860 -0.2143 -0.3572 -0.2450
 1946SOL    HW1 6737   1.127   5.010   4.841 -2.1123  0.1926  1.5283
 1946SOL    HW2 6738   1.230   5.086   4.942 -0.5100  0.0751  0.0203
 1947SOL     OW 6739   2.068   5.222   2.754  0.1499 -0.2762 -0.1798
 1947SOL    HW1 6740   2.025   5.300   2.800 -3.0533 -0.0737 -3.1128
 1947SOL    HW2 6741   2.128   5.254   2.681  0.2983 -0.5492 -0.1792
 1948SOL     OW 6742   6.658   4.604   2.312  0.3558  0.0869  0.3200
 1948SOL    HW1 6743   6.616   4.656   2.387  1.1532 -0.9457  1.5154
 1948SOL    HW2 6744   6.756   4.620   2.311  0.8400 -2.3732  1.5774
 1949SOL     OW 6745   0.279   6.070   0.104 -0.3822  0.3085  0.6732
 1949SOL    HW1 6746   0.343   6.118   0.165 -2.0167 -0.1070  2.8315
 1949SOL    HW2 6747   0.290   5.972   0.115  0.6364  0.1595 -1.2357
 1950SOL     OW 6748   1.532   4.204   1.979  0.2155  0.3505  0.1060
 1950SOL    HW1 6749   1.468   4.281   1.977  1.1231  1.1475  0.6800
 1950SOL    HW2 6750   1.623   4.235   1.951  0.2970 -0.8487 -1.0707
 1951SOL     OW 6751   1.812   2.476   3.418 -0.4587  0.5975 -0.3382
 1951SOL    HW1 6752   1.852   2.478   3.326 -1.3586 -0.9874 -0.7986
 1951SOL    HW2 6753   1.756   2.394   3.428 -2.8305  2.2314  0.5853
 1952SOL     OW 6754   6.184   6.085   3.585  0.1344  0.5161 -0.1377
 1952SOL    HW1 6755   6.205   6.127   3.496  1.7093 -0.6374 -0.3570
 1952SOL    HW2 6756   6.205   5.988   3.582 -1.2242  0.1452  1.0758
 1953SOL     OW 6757   1.395   0.450   6.004  0.2878  0.0818 -0.0592
 1953SOL    HW1 6758   1.420   0.375   5.942 -0.4443 -0.5301  0.3727
 1953SOL    HW2 6759   1.454   0.446   6.085  0.5150  0.2182 -0.2164
 1954SOL     OW 6760   6.796   2.482   1.902  0.1617  0.1342  0.7901
 1954SOL    HW1 6761   6.727   2.547   1.935  0.2876  0.1592  1.0113
 1954SOL    HW2 6762   6.752   2.398   1.872  0.1082 -0.2552  1.9108
 1955SOL     OW 6763   2.202   6.923   5.417 -0.2793  0.2735 -0.5023
 1955SOL    HW1 6764   2.270   6.864   5.458 -1.5272 -1.0537 -0.2564
 1955SOL    HW2 6765   2.111   6.899   5.452 -0.7268  3.2759  0.7047
 1956SOL     OW 6766   3.848   5.997   5.548  0.0904  0.0418 -0.1511
 1956SOL    HW1 6767   3.852   6.094   5.573  0.4359 -0.1513  0.5744
 1956SOL    HW2 6768   3.873   5.942   5.628  1.8609 -0.5863 -1.1002
 1957SOL     OW 6769   5.963   2.302   1.549 -0.4506 -0.5521  0.5023
 1957SOL    HW1 6770   5.869   2.320   1.575 -0.9070 -2.0654  0.0184
 1957SOL    HW2 6771   6.011   2.259   1.626 -0.0893  0.3608  0.8030
 1958SOL     OW 6772   5.510   5.298   1.321 -0.2967 -0.4313  0.1169
 1958SOL    HW1 6773   5.531   5.201   1.327 -1.2940 -0.6351  0.5232
 1958SOL    HW2 6774   5.561   5.348   1.392 -0.2132 -0.7375  0.2739
 1959SOL     OW 6775   6.842   4.952   5.018 -0.6639  0.1881  0.1229
 1959SOL    HW1 6776   6.742   4.952   5.012 -0.6726  0.0682  0.2426
 1959SOL    HW2 6777   6.874   5.039   5.055 -0.7027  0.3529 -0.2250
 1960SOL     OW 6778   5.230   1.885   1.269 -0.1067  0.0767  0.1195
 1960SOL    HW1 6779   5.325   1.890   1.298 -0.0467 -0.4404  0.0228
 1960SOL    HW2 6780   5.178   1.827   1.332 -0.0793 -0.6600 -0.5157
 1961SOL     OW 6781   5.670   5.213   0.951 -0.1300 -0.4071 -0.1652
 1961SOL    HW1 6782   5.631   5.302   0.975  0.4653  0.0679 -0.8934
 1961SOL    HW2 6783   5.742   5.190   1.017  1.6745  1.0131 -1.5298
 1962SOL     OW 6784   5.020   0.256   0.026 -0.5841  0.1053  0.2389
 1962SOL    HW1 6785   5.051   0.167  -0.007 -2.0936 -0.5591  0.5580
 1962SOL    HW2 6786   5.047   0.327  -0.039 -0.5567 -0.7461 -0.6953
 1963SOL     OW 6787   3.900   3.267   1.512 -0.7740 -0.0104  0.6049
 1963SOL    HW1 6788   3.887   3.314   1.599 -0.9123 -1.8169  1.6044
 1963SOL    HW2 6789   3.938   3.176   1.528  0.6084  0.1572 -1.3380
 1964SOL     OW 6790   6.950   4.375   4.471 -0.0747  0.0796 -0.8367
 1964SOL    HW1 6791   6.936   4.391   4.568  0.1116  0.3343 -0.8526
 1964SOL    HW2 6792   6.885   4.430   4.418 -0.7235 -0.6700 -0.8359
 1965SOL     OW 6793   1.840   5.123   0.449 -0.2844  0.3253  0.1995
 1965SOL    HW1 6794   1.894   5.175   0.383  0.0592  0.0370  0.2533
 1965SOL    HW2 6795   1.743   5.148   0.440 -0.0461  1.5278  0.7314
 1966SOL     OW 6796   3.675   1.958   5.724  0.1758  0.5381 -0.3597
 1966SOL    HW1 6797   3.658   1.923   5.632  0.2538  0.8830 -0.5049
 1966SOL    HW2 6798   3.643   2.053   5.730 -0.7413  0.2015  0.2543
 1967SOL     OW 6799   2.750   5.011   4.253 -0.1059 -0.2551  0.2544
 1967SOL    HW1 6800   2.683   4.947   4.214  1.7784 -1.4840 -1.1864
 1967SOL    HW2 6801   2.804   5.051   4.179  0.4928  1.0122  1.3369
 1968SOL     OW 6802   1.294   2.964   1.477  0.0612 -0.3379  0.3687
 1968SOL    HW1 6803   1.356   2.954   1.399 -0.7557  0.1113 -0.3519
 1968SOL    HW2 6804   1.348   2.967   1.562  1.0578  0.3939 -0.2633
 1969SOL     OW 6805   4.311   5.571   0.142  0.9374 -1.2015  0.7797
 1969SOL    HW1 6806   4.374   5.633   0.094 -1.3601  2.2355  1.8667
 1969SOL    HW2 6807   4.232   5.551   0.084  0.2990 -0.7331  1.4725
 1970SOL     OW 6808   1.359   6.373   1.307 -0.1771  0.2661 -0.0822
 1970SOL    HW1 6809   1.405   6.358   1.394  0.7754  0.5835 -0.5138
 1970SOL    HW2 6810   1.398   6.312   1.237 -0.0251  0.9180 -0.5784
 1971SOL     OW 6811   3.025   0.829   1.615 -0.1722  0.0238 -0.0602
 1971SOL    HW1 6812   2.980   0.809   1.528  0.4672  1.3311 -0.7334
 1971SOL    HW2 6813   3.020   0.928   1.632  1.6499  0.0784  0.2869
 1972SOL     OW 6814   4.324   6.013   1.242  0.3865  0.1626 -0.0344
 1972SOL    HW1 6815   4.396   6.043   1.304 -0.6575 -1.2059  1.9458
 1972SOL    HW2 6816   4.242   6.069   1.257  0.3011  0.2127 -0.6396
 1973SOL     OW 6817   0.338   1.644   2.007  0.7303 -0.2750  0.5869
 1973SOL    HW1 6818   0.433   1.671   2.022  1.2171 -0.8782 -1.2325
 1973SOL    HW2 6819   0.333   1.546   1.991 -0.0740 -0.1029 -0.3120
 1974SOL     OW 6820   0.761   6.630   3.450  0.0641  0.4013 -0.1615
 1974SOL    HW1 6821   0.794   6.561   3.515 -0.6113  0.7597  0.5826
 1974SOL    HW2 6822   0.839   6.681   3.413  0.8016 -2.0340 -2.2700
 1975SOL     OW 6823   4.584   1.890   2.307 -0.0244  0.2358  0.3381
 1975SOL    HW1 6824   4.667   1.902   2.362 -0.9759  1.3224  1.5958
 1975SOL    HW2 6825   4.594   1.941   2.222  1.1262 -0.7757 -0.1680
 1976SOL     OW 6826   4.124   2.743   0.888 -0.1218 -0.0515 -0.4729
 1976SOL    HW1 6827   4.068   2.825   0.878  0.0295  0.1402  0.2299
 1976SOL    HW2 6828   4.213   2.757   0.844  0.1798  0.4384  0.2728
 1977SOL     OW 6829   4.755   0.152   0.647 -0.0565  0.5667  0.1320
 1977SOL    HW1 6830   4.805   0.174   0.564  0.1581 -0.0342  0.0902
 1977SOL    HW2 6831   4.740   0.053   0.651 -2.0016  0.8058 -0.2795
 1978SOL     OW 6832   1.306   3.096   2.054 -0.0649 -0.3218  0.5080
 1978SOL    HW1 6833   1.379   3.143   2.103  0.6672 -1.5024  0.5855
 1978SOL    HW2 6834   1.303   3.000   2.082 -1.6810 -0.3028  0.5459
 1979SOL     OW 6835   5.028   0.050   2.927  0.1644  0.0444  0.2743
 1979SOL    HW1 6836   5.061  -0.019   2.863 -2.5349 -2.6588  1.4945
 1979SOL    HW2 6837   4.946   0.094   2.890  0.8624  1.3600  0.2496
 1980SOL     OW 6838   3.957   2.422   1.505 -0.1042  0.1128 -0.0533
 1980SOL    HW1 6839   3.877   2.371   1.535 -0.1392  1.2624  2.0031
 1980SOL    HW2 6840   4.011   2.449   1.585  0.9797  1.5319 -1.2122
 1981SOL     OW 6841   2.802   5.090   3.503  0.0815  0.3928  0.1928
 1981SOL    HW1 6842   2.719   5.041   3.528  0.3810  1.0692  2.7910
 1981SOL    HW2 6843   2.882   5.034   3.524  0.3437  0.7465  0.1457
 1982SOL     OW 6844   6.279   5.832   5.271  0.4765 -0.2195 -0.1153
 1982SOL    HW1 6845   6.186   5.853   5.242  0.5480 -0.0029 -0.1898
 1982SOL    HW2 6846   6.285   5.841   5.371  0.3369 -0.5492 -0.0787
 1983SOL     OW 6847   3.620   5.284   6.852 -1.0318 -0.5808  0.1901
 1983SOL    HW1 6848   3.702   5.258   6.903 -0.9251  1.2565  1.0390
 1983SOL    HW2 6849   3.553   5.209   6.856  1.1056 -2.7477 -1.8026
 1984SOL     OW 6850   1.613   0.881   0.902  0.0737 -0.2652  0.0074
 1984SOL    HW1 6851   1.523   0.838   0.892 -0.5099  0.3439  2.1744
 1984SOL    HW2 6852   1.679   0.815   0.938  0.0722 -0.2651  0.0102
 1985SOL     OW 6853   4.092   5.486   3.840 -0.0125 -0.1948 -0.3026
 1985SOL    HW1 6854   4.142   5.444   3.765  0.2892  0.0594 -0.2441
 1985SOL    HW2 6855   4.156   5.530   3.903 -0.1604 -1.4881  0.7871
 1986SOL     OW 6856   2.125   3.644   2.024 -0.1061 -0.0483  0.2515
 1986SOL    HW1 6857   2.162   3.557   1.992 -1.4624 -1.0839  1.3975
 1986SOL    HW2 6858   2.026   3.647   2.008 -0.2139  0.9283  0.9952
 1987SOL     OW 6859   6.193   1.283   4.564  0.5436  0.5853 -0.5515
 1987SOL    HW1 6860   6.180   1.379   4.590 -0.5307 -0.1401  1.9116
 1987SOL    HW2 6861   6.167   1.224   4.640  0.3714 -1.7360 -2.2927
 1988SOL     OW 6862   0.199   3.456   3.811  0.1977  0.0289  0.1459
 1988SOL    HW1 6863   0.273   3.494   3.756 -1.6967  2.0361 -1.2081
 1988SOL    HW2 6864   0.116   3.511   3.798 -1.4808 -1.9196  1.8190
 1989SOL     OW 6865   3.386   0.695   1.293  0.2834  0.4193  0.4669
 1989SOL    HW1 6866   3.407   0.597   1.285 -0.8336  0.2502 -0.9607
 1989SOL    HW2 6867   3.292   0.706   1.324  0.1470  1.0174 -0.1406
 1990SOL     OW 6868   0.737   6.943   4.195  0.4348  0.3817 -0.4119
 1990SOL    HW1 6869   0.660   7.001   4.223  0.1555 -0.4156  0.5711
 1990SOL    HW2 6870   0.735   6.858   4.248  1.3382 -0.1489 -1.1934
 1991SOL     OW 6871   3.703   1.091   1.769 -0.0461  0.4715  0.0943
 1991SOL    HW1 6872   3.721   1.189   1.776  1.1928  0.2751 -0.0155
 1991SOL    HW2 6873   3.710   1.049   1.860  0.6167  0.3102 -0.0247
 1992SOL     OW 6874   6.980   0.299   6.962 -0.2477  0.3465  0.0477
 1992SOL    HW1 6875   6.946   0.233   7.029  0.4974 -1.4601 -1.2796
 1992SOL    HW2 6876   7.080   0.303   6.967 -0.2118  0.4493 -0.7191
 1993SOL     OW 6877   4.113   4.812   6.145  0.1083  0.3185  0.1829
 1993SOL    HW1 6878   4.111   4.712   6.147 -0.7078  0.3166 -0.2357
 1993SOL    HW2 6879   4.077   4.847   6.231 -0.8313  0.2403 -0.1631
 1994SOL     OW 6880   3.728   5.640   5.643 -0.0845 -0.4648 -0.5739
 1994SOL    HW1 6881   3.628   5.649   5.645 -0.1710 -1.4334 -0.4436
 1994SOL    HW2 6882   3.754   5.545   5.656  0.8660 -0.2228 -0.6079
 1995SOL     OW 6883   5.504   2.980   4.217  0.3732 -0.0887 -0.0929
 1995SOL    HW1 6884   5.411   2.980   4.180  0.8001 -1.0893 -1.2573
 1995SOL    HW2 6885   5.565   3.024   4.152  0.9106 -0.5641  0.0801
 1996SOL     OW 6886   2.912   6.008   1.794 -0.3256  0.1069  0.0720
 1996SOL    HW1 6887   2.987   6.011   1.728 -0.3913  0.8275  0.0266
 1996SOL    HW2 6888   2.833   5.961   1.753 -0.0176 -0.3563  0.0041
 1997SOL     OW 6889   1.802   3.351   6.075  0.2277 -0.1949 -0.0860
 1997SOL    HW1 6890   1.864   3.398   6.138  1.1128 -2.1316  0.5413
 1997SOL    HW2 6891   1.758   3.275   6.121 -1.3219  0.0815 -1.0352
 1998SOL     OW 6892   4.540   4.352   0.819 -0.0230 -0.5556  0.4798
 1998SOL    HW1 6893   4.517   4.265   0.861 -2.0494 -0.6373 -0.6498
 1998SOL    HW2 6894   4.470   4.375   0.751 -0.1092  2.4188  1.4353
 1999SOL     OW 6895   1.264   0.211   2.392 -0.4015  0.0301  0.3685
 1999SOL    HW1 6896   1.177   0.203   2.344 -0.5050  0.9169  0.3923
 1999SOL    HW2 6897   1.265   0.295   2.445  0.2870 -0.2120  0.7552
 2000SOL     OW 6898   3.607   3.452   6.749  0.3325 -0.1427 -0.8131
 2000SOL    HW1 6899   3.587   3.374   6.689 -0.6870 -0.8218  0.3472
 2000SOL    HW2 6900   3.675   3.425   6.817 -0.9462 -0.4771  0.3911
 2001SOL     OW 6901   6.977   0.044   4.849 -1.0978 -0.1818  0.7400
 2001SOL    HW1 6902   6.907   0.107   4.884  0.0541 -0.5254  3.9255
 2001SOL    HW2 6903   7.060   0.095   4.829 -1.3354 -0.1960 -0.3747
 2002SOL     OW 6904   0.044   3.246   4.309 -0.6281  0.3115 -0.4440
 2002SOL    HW1 6905   0.031   3.260   4.407 -0.6278  3.0619 -0.7785
 2002SOL    HW2 6906  -0.032   3.193   4.273 -1.8540  1.2563  0.6537
 2003SOL     OW 6907   2.365   0.932   6.081 -0.5999  0.2748 -0.2475
 2003SOL    HW1 6908   2.380   0.878   5.998 -0.9818  1.6316 -1.2404
 2003SOL    HW2 6909   2.276   0.976   6.076 -0.7636  0.1218  1.0544
 2004SOL     OW 6910   6.971   2.557   5.163 -0.1618  0.7974  0.4481
 2004SOL    HW1 6911   6.962   2.560   5.263  0.1094  0.0086  0.5051
 2004SOL    HW2 6912   7.025   2.635   5.132 -0.0864  0.9454  0.9350
 2005SOL     OW 6913   6.725   3.536   0.733 -0.3849  0.4095 -0.0646
 2005SOL    HW1 6914   6.670   3.613   0.765 -0.8435  0.1298 -0.1783
 2005SOL    HW2 6915   6.820   3.565   0.724 -0.3218  0.6316  1.1040
 2006SOL     OW 6916   6.817   6.884   1.418 -0.2053  0.2658  0.2892
 2006SOL    HW1 6917   6.844   6.903   1.324  0.0417 -0.0483  0.2938
 2006SOL    HW2 6918   6.861   6.799   1.449  0.6599  0.9763  1.0749
 2007SOL     OW 6919   0.734   5.377   6.772  0.7944 -0.3993  0.1383
 2007SOL    HW1 6920   0.663   5.317   6.734 -0.2435  0.4791  0.6454
 2007SOL    HW2 6921   0.731   5.373   6.871  0.5829  0.6297  0.1839
 2008SOL     OW 6922   4.310   2.298   3.598  0.2138 -0.2069 -0.0143
 2008SOL    HW1 6923   4.342   2.338   3.512  0.4887  0.4768  0.4070
 2008SOL    HW2 6924   4.225   2.247   3.581 -0.6791  1.3559 -0.3783
 2009SOL     OW 6925   3.808   6.763   2.530  0.3550  0.4539 -0.0097
 2009SOL    HW1 6926   3.823   6.721   2.620  1.3599 -0.2708 -0.5033
 2009SOL    HW2 6927   3.870   6.723   2.463  0.3376  1.7142 -0.8194
 2010SOL     OW 6928   2.907   1.090   3.004 -0.1848  0.0806  0.0836
 2010SOL    HW1 6929   2.852   1.174   3.006  0.4770  0.5423  2.2259
 2010SOL    HW2 6930   2.846   1.011   2.994 -1.1748  0.6446  1.3523
 2011SOL     OW 6931   1.611   4.177   2.420 -0.5610  0.1598 -0.0039
 2011SOL    HW1 6932   1.611   4.086   2.379  0.4657 -0.0069  0.3394
 2011SOL    HW2 6933   1.524   4.222   2.400 -1.5085 -1.2693  0.6901
 2012SOL     OW 6934   6.378   5.112   6.773 -1.0732 -0.2054  0.2701
 2012SOL    HW1 6935   6.309   5.169   6.728 -2.2766 -0.4058  1.7978
 2012SOL    HW2 6936   6.353   5.016   6.765 -0.3158 -0.3756 -0.1995
 2013SOL     OW 6937   5.457   0.214   2.418 -0.3347  0.4420 -0.3845
 2013SOL    HW1 6938   5.396   0.262   2.354 -0.4125 -1.7326 -2.0695
 2013SOL    HW2 6939   5.406   0.186   2.499 -1.2670 -0.1610 -1.1561
 2014SOL     OW 6940   4.857   5.819   1.998  0.0072 -0.6830 -0.2114
 2014SOL    HW1 6941   4.869   5.736   2.053 -6.5523 -1.8446  0.2821
 2014SOL    HW2 6942   4.819   5.794   1.909 -2.7352  1.6490  0.1817
 2015SOL     OW 6943   7.004   6.155   3.690 -1.0364 -0.4864  0.1012
 2015SOL    HW1 6944   6.908   6.151   3.719 -1.0806  1.5536  0.4067
 2015SOL    HW2 6945   7.063   6.142   3.769 -1.1127  0.6590  0.3660
 2016SOL     OW 6946   5.451   0.209   5.095  0.0392  0.6583 -0.2464
 2016SOL    HW1 6947   5.427   0.163   5.181  0.2806  2.2415  0.6879
 2016SOL    HW2 6948   5.534   0.168   5.058  0.9544  1.1133  1.2084
 2017SOL     OW 6949   6.302   3.926   2.021  0.9085 -0.1109  0.5487
 2017SOL    HW1 6950   6.290   4.025   2.007 -0.4944 -0.1533  1.3126
 2017SOL    HW2 6951   6.371   3.911   2.092  0.7684  0.3350  0.7819
 2018SOL     OW 6952   2.370   0.784   1.546  0.5634 -0.0492 -0.2257
 2018SOL    HW1 6953   2.453   0.776   1.602  0.4835 -0.0665 -0.1084
 2018SOL    HW2 6954   2.295   0.734   1.591  0.2101  0.8580  0.2132
 2019SOL     OW 6955   2.833   0.096   0.082 -0.2046 -0.4204  0.3199
 2019SOL    HW1 6956   2.912   0.044   0.113  0.3757  0.1418 -0.1918
 2019SOL    HW2 6957   2.825   0.089  -0.017  0.0257  0.6551  0.2138
 2020SOL     OW 6958   4.315   2.185   6.496  1.0595 -0.1132 -0.1512
 2020SOL    HW1 6959   4.349   2.147   6.410 -0.3119  0.1461 -0.8423
 2020SOL    HW2 6960   4.260   2.115   6.543 -0.9554  0.7249 -1.1292
 2021SOL     OW 6961   3.802   1.249   5.293  0.0305 -0.4081 -0.4396
 2021SOL    HW1 6962   3.783   1.346   5.306  0.9776 -0.5274  2.6693
 2021SOL    HW2 6963   3.802   1.202   5.382 -0.0733 -3.2162 -1.7960
 2022SOL     OW 6964   2.214   4.230   0.269 -0.0167  0.1612  0.4869
 2022SOL    HW1 6965   2.201   4.156   0.203 -0.9672  0.8964 -0.1774
 2022SOL    HW2 6966   2.148   4.221   0.343 -0.5188  0.6509  0.1084
 2023SOL     OW 6967   3.806   2.048   2.998 -0.1607  0.5345  0.0939
 2023SOL    HW1 6968   3.721   2.087   3.033  0.5425  0.4259  2.0591
 2023SOL    HW2 6969   3.878   2.117   3.002 -0.1286  0.6396 -1.6034
 2024SOL     OW 6970   6.204   6.187   0.284 -0.3398 -0.5796 -0.5719
 2024SOL    HW1 6971   6.105   6.170   0.289  0.0099 -2.5955  0.0586
 2024SOL    HW2 6972   6.224   6.241   0.201 -2.0324  0.6213 -0.2595
 2025SOL     OW 6973   6.791   2.125   3.903 -0.1997 -0.4206 -0.4307
 2025SOL    HW1 6974   6.844   2.200   3.863  0.5702 -0.0576  1.2013
 2025SOL    HW2 6975   6.788   2.049   3.838  0.6300  0.3048 -1.3510
 2026SOL     OW 6976   1.169   1.156   5.481 -0.3210  0.1612 -0.6243
 2026SOL    HW1 6977   1.170   1.056   5.480  1.8374  0.0617  1.9118
 2026SOL    HW2 6978   1.081   1.188   5.516 -1.9362 -0.6789 -3.6015
 2027SOL     OW 6979   6.077   1.056   5.984  0.3500  0.3142  0.4458
 2027SOL    HW1 6980   6.001   1.118   6.005 -1.6198 -1.8183 -0.0829
 2027SOL    HW2 6981   6.115   1.080   5.894 -1.6283 -0.3346 -0.6233
 2028SOL     OW 6982   4.247   0.823   5.641 -0.1783  0.7630 -0.4751
 2028SOL    HW1 6983   4.291   0.902   5.598 -0.1953  0.4858 -1.0241
 2028SOL    HW2 6984   4.286   0.739   5.602  0.1762  0.4982  0.4440
 2029SOL     OW 6985   3.839   6.578   6.610 -0.0314  0.4735 -0.2620
 2029SOL    HW1 6986   3.903   6.583   6.687  0.8784  1.5257 -1.0442
 2029SOL    HW2 6987   3.796   6.488   6.607  0.4841  0.1653  1.0141
 2030SOL     OW 6988   3.341   5.001   0.703  0.2599  0.2220  0.0863
 2030SOL    HW1 6989   3.389   4.920   0.670 -1.3915  0.0946 -2.2820
 2030SOL    HW2 6990   3.248   4.976   0.729 -0.5712  1.4208 -1.5382
 2031SOL     OW 6991   6.351   3.885   3.322 -0.2186 -0.0664 -0.4736
 2031SOL    HW1 6992   6.334   3.970   3.372  0.0393  0.0840 -0.6367
 2031SOL    HW2 6993   6.340   3.902   3.224  0.5047 -0.0472 -0.5584
 2032SOL     OW 6994   6.009   0.798   4.111  0.1240  0.6297  0.1588
 2032SOL    HW1 6995   5.984   0.796   4.014 -0.4088 -0.3570  0.3087
 2032SOL    HW2 6996   6.045   0.709   4.138 -1.7220  0.2031  1.3744
 2033SOL     OW 6997   5.678   6.897   2.545  0.0852  0.0291  0.0389
 2033SOL    HW1 6998   5.606   6.841   2.586  1.0317 -1.0926  0.2169
 2033SOL    HW2 6999   5.751   6.838   2.511  2.0362  1.1970  1.9461
 2034SOL     OW 7000   0.197   5.422   4.211  0.2468  0.0720  0.5298
 2034SOL    HW1 7001   0.275   5.484   4.214 -0.1927  0.6382  0.4889
 2034SOL    HW2 7002   0.178   5.386   4.303 -0.3072  1.0372  0.8058
 2035SOL     OW 7003   1.756   3.854   4.464 -0.0898  0.4418 -0.5550
 2035SOL    HW1 7004   1.829   3.821   4.403 -0.7656  0.7720 -1.5785
 2035SOL    HW2 7005   1.691   3.907   4.411 -0.9508  0.3609  0.3944
 2036SOL     OW 7006   2.143   1.411   3.416 -0.6937  0.2966  0.1784
 2036SOL    HW1 7007   2.099   1.448   3.498  1.3639 -1.1568  2.0728
 2036SOL    HW2 7008   2.242   1.421   3.425 -0.3969 -0.4487 -1.8819
 2037SOL     OW 7009   5.625   1.776   5.810 -0.0415  0.4737 -0.0883
 2037SOL    HW1 7010   5.616   1.767   5.909 -2.5403  1.0773 -0.1999
 2037SOL    HW2 7011   5.535   1.773   5.767  0.8043  2.0422 -2.1943
 2038SOL     OW 7012   3.899   6.662   0.784 -0.7056 -0.5213 -0.3706
 2038SOL    HW1 7013   3.905   6.563   0.774 -0.7510 -0.4710 -0.9195
 2038SOL    HW2 7014   3.803   6.690   0.790 -0.6623 -0.6654  1.5060
 2039SOL     OW 7015   4.177   0.129   2.714  0.0167  0.3325 -0.1205
 2039SOL    HW1 7016   4.203   0.222   2.689  0.2192  0.3392  0.1135
 2039SOL    HW2 7017   4.154   0.125   2.811 -0.0612  0.1533 -0.1455
 2040SOL     OW 7018   1.242   2.779   5.326  0.4043 -0.0185 -0.3127
 2040SOL    HW1 7019   1.337   2.776   5.295  1.3860 -0.0368  2.4658
 2040SOL    HW2 7020   1.191   2.845   5.270  2.7711  2.1607 -0.1003
 2041SOL     OW 7021   3.716   0.062   0.840 -0.2311  0.6234  0.0491
 2041SOL    HW1 7022   3.796   0.120   0.859  0.6216 -0.5468  0.1707
 2041SOL    HW2 7023   3.724  -0.023   0.892 -0.3627 -0.5122 -1.7054
 2042SOL     OW 7024   5.972   2.875   1.975  0.4230 -0.0548 -0.3966
 2042SOL    HW1 7025   5.876   2.896   1.957  0.5007  0.3743 -0.3045
 2042SOL    HW2 7026   5.981   2.776   1.992 -0.4368  0.2317  2.1586
 2043SOL     OW 7027   5.993   6.022   0.947 -0.4335  0.4697  0.3049
 2043SOL    HW1 7028   5.951   5.981   0.866  0.9765 -1.1988  0.3472
 2043SOL    HW2 7029   6.055   5.955   0.989  1.0672  2.2895  1.1017
 2044SOL     OW 7030   6.115   4.172   5.389 -0.4835  0.6073  0.1740
 2044SOL    HW1 7031   6.052   4.248   5.370  0.8266  1.5211 -0.7125
 2044SOL    HW2 7032   6.167   4.193   5.472  0.3649  1.0275 -0.4510
 2045SOL     OW 7033   3.222   2.033   2.436 -0.3232  0.4403 -0.6081
 2045SOL    HW1 7034   3.316   2.035   2.469 -0.4890 -1.6368  0.1445
 2045SOL    HW2 7035   3.221   2.049   2.338  0.8546  0.1575 -0.6841
 2046SOL     OW 7036   3.046   3.371   3.839 -0.3336 -0.8218  0.3718
 2046SOL    HW1 7037   3.017   3.330   3.753  0.8078  0.3131 -0.5943
 2046SOL    HW2 7038   3.145   3.361   3.850 -0.2109  0.5110  0.7184
 2047SOL     OW 7039   1.231   3.542   6.749 -0.0286  0.2001  0.1720
 2047SOL    HW1 7040   1.140   3.548   6.791  0.1482  0.9796  0.4444
 2047SOL    HW2 7041   1.255   3.629   6.708  1.1662  0.4354  1.2840
 2048SOL     OW 7042   4.609   1.039   0.719 -0.4748 -0.4879  0.6899
 2048SOL    HW1 7043   4.613   0.939   0.724 -1.4417 -0.6010 -0.2906
 2048SOL    HW2 7044   4.513   1.067   0.716 -0.3685  0.1385 -3.6560
 2049SOL     OW 7045   1.661   2.295   3.149  0.4972  0.6968 -0.7534
 2049SOL    HW1 7046   1.647   2.265   3.243  0.0091 -0.2503 -1.1233
 2049SOL    HW2 7047   1.751   2.337   3.141  0.2636  1.4447  0.2942
 2050SOL     OW 7048   6.526   2.309   4.995  0.1321 -0.4348 -0.2256
 2050SOL    HW1 7049   6.546   2.242   4.924  0.9142 -0.7595  0.2878
 2050SOL    HW2 7050   6.603   2.372   5.005  0.1729 -0.5856  0.5373
 2051SOL     OW 7051   0.651   0.716   2.243 -0.3406 -0.1727 -0.1525
 2051SOL    HW1 7052   0.706   0.799   2.246  0.1211 -0.4642 -0.4377
 2051SOL    HW2 7053   0.693   0.646   2.300  0.1073 -0.7015 -1.1071
 2052SOL     OW 7054   4.759   1.585   0.294 -0.0200  0.1113 -0.1133
 2052SOL    HW1 7055   4.731   1.662   0.352 -0.0031 -0.2589  0.3933
 2052SOL    HW2 7056   4.855   1.593   0.271  0.1850 -0.1795  0.6128
 2053SOL     OW 7057   5.472   4.027   3.740 -0.5477  0.5629  0.1587
 2053SOL    HW1 7058   5.423   3.978   3.667 -0.6930 -0.1292  0.7101
 2053SOL    HW2 7059   5.549   4.077   3.700 -0.1280 -0.4782 -0.3808
 2054SOL     OW 7060   6.225   0.265   1.545 -0.3314 -0.1531  0.5297
 2054SOL    HW1 7061   6.293   0.296   1.478 -1.7829  1.3789 -0.3150
 2054SOL    HW2 7062   6.196   0.172   1.522 -1.4152  0.6252 -1.5500
 2055SOL     OW 7063   5.903   6.766   6.704 -0.2111  0.2348  0.6514
 2055SOL    HW1 7064   5.886   6.794   6.609  1.0178 -0.3387  0.2476
 2055SOL    HW2 7065   5.816   6.759   6.752 -0.8701  0.3565 -0.4788
 2056SOL     OW 7066   3.987   6.099   5.984  0.3274  0.0649  0.0126
 2056SOL    HW1 7067   4.027   6.175   5.932 -0.3775 -0.1262 -0.8415
 2056SOL    HW2 7068   3.956   6.028   5.920  1.1085 -1.0203  0.7990
 2057SOL     OW 7069   3.542   0.486   3.743 -0.8449 -0.5889 -0.6676
 2057SOL    HW1 7070   3.555   0.387   3.749  1.1513 -0.3020  1.3469
 2057SOL    HW2 7071   3.538   0.514   3.647  1.1543 -2.3692 -1.3477
 2058SOL     OW 7072   2.964   6.226   3.908 -0.1528 -0.3352  0.1263
 2058SOL    HW1 7073   2.892   6.236   3.978 -0.0277  0.2756  0.1720
 2058SOL    HW2 7074   3.009   6.314   3.894  1.3046 -0.9348  0.8606
 2059SOL     OW 7075   0.096   6.434   1.980 -0.1684 -0.1580  0.2531
 2059SOL    HW1 7076   0.058   6.417   2.071 -1.0920 -1.9839 -0.4318
 2059SOL    HW2 7077   0.060   6.367   1.915  0.1165  1.3697 -1.5850
 2060SOL     OW 7078   5.850   2.205   1.850 -0.8454  0.5075  0.6889
 2060SOL    HW1 7079   5.789   2.174   1.923 -1.3287  1.4987  0.7184
 2060SOL    HW2 7080   5.806   2.279   1.799  0.6305  1.7792  1.1890
 2061SOL     OW 7081   6.380   5.159   0.249  0.0125  0.3712  0.1165
 2061SOL    HW1 7082   6.410   5.144   0.343  1.6601 -1.7878 -0.6694
 2061SOL    HW2 7083   6.287   5.196   0.249  0.7864  2.6738  2.5870
 2062SOL     OW 7084   5.313   0.991   1.048  0.3393 -0.1630  0.0595
 2062SOL    HW1 7085   5.264   1.050   0.984  1.5929  1.4137  0.4915
 2062SOL    HW2 7086   5.403   1.030   1.066  0.1924 -0.8034  2.4346
 2063SOL     OW 7087   1.270   1.513   6.544  0.0485  0.2992 -0.3672
 2063SOL    HW1 7088   1.204   1.478   6.477  0.7600 -0.6526 -0.5806
 2063SOL    HW2 7089   1.278   1.449   6.620 -0.0627  0.9374  0.2025
 2064SOL     OW 7090   0.039   4.054   2.062 -0.3652 -0.2894  0.0813
 2064SOL    HW1 7091  -0.023   4.115   2.013  0.1557 -0.1651 -0.4493
 2064SOL    HW2 7092  -0.012   3.998   2.127 -0.8693  0.6295  0.4916
 2065SOL     OW 7093   4.002   0.780   2.863 -0.4322 -0.1920  0.6179
 2065SOL    HW1 7094   4.017   0.852   2.796  0.3867  0.7348  1.7510
 2065SOL    HW2 7095   3.905   0.776   2.887 -0.4605  0.6700  0.6774
 2066SOL     OW 7096   0.563   6.964   4.978 -0.5374  0.4667  0.1280
 2066SOL    HW1 7097   0.557   6.971   5.078  0.5868 -0.3668  0.2759
 2066SOL    HW2 7098   0.552   6.868   4.951  0.3651  0.5171 -0.4362
 2067SOL     OW 7099   4.587   5.787   6.228 -0.1765 -0.1887  0.3316
 2067SOL    HW1 7100   4.651   5.769   6.303  0.2674 -0.0095 -0.0001
 2067SOL    HW2 7101   4.542   5.875   6.243  0.8635  0.4690 -0.2536
 2068SOL     OW 7102   1.089   3.626   3.121  0.0356  0.5833 -0.3668
 2068SOL    HW1 7103   1.001   3.672   3.105 -1.3444 -1.0941  1.7274
 2068SOL    HW2 7104   1.153   3.690   3.162 -0.1704  1.8328 -1.8812
 2069SOL     OW 7105   1.007   3.163   2.773 -0.1205  0.0590  0.1840
 2069SOL    HW1 7106   0.996   3.127   2.680 -1.9959  0.6739  0.1266
 2069SOL    HW2 7107   1.053   3.095   2.829 -0.7215 -1.1352 -0.7189
 2070SOL     OW 7108   6.411   6.791   6.744 -0.3753  0.0320  0.0589
 2070SOL    HW1 7109   6.470   6.863   6.706  2.0929 -1.7905  0.1214
 2070SOL    HW2 7110   6.382   6.730   6.670 -0.0471 -0.4864  0.3470
 2071SOL     OW 7111   2.405   4.366   3.712  0.5530  0.2935 -0.9077
 2071SOL    HW1 7112   2.381   4.352   3.616  2.8714  0.6448 -1.5849
 2071SOL    HW2 7113   2.464   4.447   3.721 -1.2587  1.5173  1.1157
 2072SOL     OW 7114   4.732   6.702   3.334 -1.0010  0.4426  0.0754
 2072SOL    HW1 7115   4.689   6.612   3.344 -2.2963  1.1885  1.7761
 2072SOL    HW2 7116   4.753   6.718   3.237 -1.9901 -1.1262 -0.4426
 2073SOL     OW 7117   0.762   3.277   3.080  0.1737 -0.4150  0.1851
 2073SOL    HW1 7118   0.800   3.330   3.005 -0.0758 -1.0897 -0.4255
 2073SOL    HW2 7119   0.832   3.216   3.117  0.0271 -0.7864 -0.1452
 2074SOL     OW 7120   3.271   6.400   6.836  0.1082 -0.3616 -0.3967
 2074SOL    HW1 7121   3.235   6.420   6.927 -1.4571 -0.2812 -1.0075
 2074SOL    HW2 7122   3.361   6.443   6.825 -0.9015  1.9882  0.1230
 2075SOL     OW 7123   0.819   5.786   3.789  0.7952 -0.4603 -0.3287
 2075SOL    HW1 7124   0.770   5.820   3.869  0.3104 -1.6656 -0.0876
 2075SOL    HW2 7125   0.840   5.862   3.728 -1.7397  0.0995 -0.6396
 2076SOL     OW 7126   6.335   0.773   5.919 -0.2931  0.5468  0.0506
 2076SOL    HW1 7127   6.288   0.736   6.000  2.2782 -0.8516  1.0331
 2076SOL    HW2 7128   6.314   0.870   5.909 -3.3615  0.0150  0.3380
 2077SOL     OW 7129   1.694   6.789   6.285  0.2569 -0.7886 -0.7096
 2077SOL    HW1 7130   1.703   6.888   6.276  2.2998 -0.9812 -1.5001
 2077SOL    HW2 7131   1.603   6.760   6.255 -0.0036  0.7391 -1.4834
 2078SOL     OW 7132   4.274   6.925   6.083  0.1639 -0.0177 -0.7387
 2078SOL    HW1 7133   4.315   6.978   6.009  1.1602 -1.2345 -1.0909
 2078SOL    HW2 7134   4.198   6.871   6.047  1.5221 -1.6728 -1.2117
 2079SOL     OW 7135   6.542   4.397   1.573  0.1359 -0.4204  0.4665
 2079SOL    HW1 7136   6.568   4.326   1.639 -0.6000 -0.6304  0.5335
 2079SOL    HW2 7137   6.443   4.404   1.568  0.1698  1.5362  1.4474
 2080SOL     OW 7138   1.618   1.517   2.808  0.4216 -0.0810 -0.4259
 2080SOL    HW1 7139   1.643   1.591   2.745  0.5236 -0.1732 -0.4947
 2080SOL    HW2 7140   1.556   1.454   2.761 -2.0265  1.4830  0.5026
 2081SOL     OW 7141   3.940   6.422   4.673  0.3724  0.0086  0.7149
 2081SOL    HW1 7142   3.983   6.406   4.584 -0.3010 -3.6771  0.9263
 2081SOL    HW2 7143   3.855   6.474   4.661  0.9503  0.6876 -0.5855
 2082SOL     OW 7144   6.029   4.719   3.127  0.2699 -0.1136 -0.5669
 2082SOL    HW1 7145   5.993   4.806   3.161 -1.3783 -1.5246  1.5813
 2082SOL    HW2 7146   6.082   4.675   3.199 -0.1181 -1.5319 -1.1239
 2083SOL     OW 7147   5.852   5.658   5.960 -0.7011  0.0321 -0.2408
 2083SOL    HW1 7148   5.949   5.678   5.945 -0.4056  1.1555  2.6233
 2083SOL    HW2 7149   5.797   5.735   5.926 -0.4938  0.0392 -0.5684
 2084SOL     OW 7150   5.074   6.551   4.561  0.0328 -0.3296 -0.0433
 2084SOL    HW1 7151   5.170   6.531   4.540  0.1857  1.4651 -1.2884
 2084SOL    HW2 7152   5.053   6.645   4.535 -0.9184  0.8881  4.2528
 2085SOL     OW 7153   2.969   3.762   6.781 -1.0523  0.8268 -0.3640
 2085SOL    HW1 7154   2.882   3.810   6.782  0.7230  4.3510  0.0402
 2085SOL    HW2 7155   3.014   3.771   6.870  0.4962  0.6955 -1.0973
 2086SOL     OW 7156   0.790   4.855   1.461  0.2261 -0.1544  0.2710
 2086SOL    HW1 7157   0.865   4.794   1.486  0.2514 -0.5836 -0.8450
 2086SOL    HW2 7158   0.718   4.804   1.415  0.0854  0.5905 -0.3629
 2087SOL     OW 7159   6.334   0.542   1.586  0.5101  0.2598 -0.0830
 2087SOL    HW1 7160   6.258   0.484   1.558  0.8155 -1.1680  1.9003
 2087SOL    HW2 7161   6.345   0.539   1.685  2.5281  1.2349 -0.2143
 2088SOL     OW 7162   0.760   0.579   1.711  0.1757  0.0342 -0.6435
 2088SOL    HW1 7163   0.805   0.521   1.779 -0.0269 -0.1859 -0.6951
 2088SOL    HW2 7164   0.720   0.522   1.640 -0.5894  0.1904 -0.3489
 2089SOL     OW 7165   3.671   3.650   4.890 -0.2543 -0.1666  0.0993
 2089SOL    HW1 7166   3.638   3.704   4.967  0.0957 -1.0293  0.8686
 2089SOL    HW2 7167   3.643   3.694   4.804 -2.5866 -0.3504  0.7078
 2090SOL     OW 7168   3.462   3.880   2.875  0.3238  0.5435 -0.1225
 2090SOL    HW1 7169   3.543   3.938   2.881  0.8387 -0.1069 -0.6161
 2090SOL    HW2 7170   3.470   3.820   2.795 -0.0349 -0.4430  0.5655
 2091SOL     OW 7171   0.257   5.040   2.474  0.0870 -0.8973 -0.5894
 2091SOL    HW1 7172   0.288   5.111   2.538 -1.7000 -0.2950 -0.3461
 2091SOL    HW2 7173   0.294   5.058   2.383 -1.0984  0.9317 -0.7552
 2092SOL     OW 7174   1.998   5.796   1.194 -0.4819 -0.5608  0.2728
 2092SOL    HW1 7175   1.967   5.709   1.232 -1.3886 -1.1626 -1.6783
 2092SOL    HW2 7176   2.093   5.787   1.164 -0.9910 -1.3946 -1.2127
 2093SOL     OW 7177   2.318   4.414   4.273  0.4558 -0.1974 -0.4445
 2093SOL    HW1 7178   2.222   4.425   4.247  0.3691 -0.2848 -0.1692
 2093SOL    HW2 7179   2.375   4.415   4.191  0.4570  2.1810 -0.4618
 2094SOL     OW 7180   3.614   4.920   3.760  0.1756  0.2827  0.1643
 2094SOL    HW1 7181   3.626   4.852   3.688 -0.2927 -1.2510  1.4564
 2094SOL    HW2 7182   3.520   4.954   3.758  0.4940  1.1505 -0.6751
 2095SOL     OW 7183   6.586   5.285   6.659  0.0090 -0.5557  0.6309
 2095SOL    HW1 7184   6.614   5.296   6.564 -0.6221  1.6502  0.6362
 2095SOL    HW2 7185   6.493   5.250   6.663  0.5224 -2.0112  0.5048
 2096SOL     OW 7186   0.013   1.665   1.906  0.3406 -0.5279 -0.2709
 2096SOL    HW1 7187   0.086   1.680   1.839  0.7969 -0.7635  0.1703
 2096SOL    HW2 7188   0.030   1.720   1.988 -0.4560  0.1113 -0.5130
 2097SOL     OW 7189   1.191   1.954   5.520 -0.2849 -0.7112 -0.2240
 2097SOL    HW1 7190   1.173   1.945   5.422 -0.0660 -1.0737 -0.2329
 2097SOL    HW2 7191   1.266   1.894   5.546  0.3727  0.1797 -0.0245
 2098SOL     OW 7192   1.560   1.788   1.787 -0.6966  1.2095  0.4846
 2098SOL    HW1 7193   1.496   1.725   1.742 -1.4006  1.2951  1.3266
 2098SOL    HW2 7194   1.555   1.878   1.742 -0.5436  0.9828  0.0117
 2099SOL     OW 7195   7.013   3.693   3.259  0.5952  0.1729 -0.3315
 2099SOL    HW1 7196   7.015   3.757   3.336 -1.2033 -0.3913  0.2358
 2099SOL    HW2 7197   7.105   3.656   3.245  1.6085  2.5236 -0.4166
 2100SOL     OW 7198   7.004   5.316   0.545 -0.1012  0.4771  0.7887
 2100SOL    HW1 7199   6.911   5.348   0.527 -0.6309 -1.1732  0.4198
 2100SOL    HW2 7200   7.004   5.216   0.555  1.8165  0.2876 -0.5164
 2101SOL     OW 7201   6.743   2.842   0.139 -0.0164 -0.5534 -0.3275
 2101SOL    HW1 7202   6.749   2.928   0.087  1.5886 -0.5583 -0.1893
 2101SOL    HW2 7203   6.731   2.863   0.236 -2.1437 -0.5401 -0.5425
 2102SOL     OW 7204   5.964   4.313   3.550  0.1809 -0.1527  0.6787
 2102SOL    HW1 7205   5.957   4.295   3.452  0.4954  0.3308  0.5640
 2102SOL    HW2 7206   6.038   4.258   3.589 -0.4218 -0.8978  0.7886
 2103SOL     OW 7207   4.746   6.250   5.989 -0.3512  0.4212 -0.1406
 2103SOL    HW1 7208   4.735   6.157   6.023  0.9033  0.3890  0.2034
 2103SOL    HW2 7209   4.825   6.293   6.033 -1.8776  2.2448  0.9903
 2104SOL     OW 7210   6.004   2.514   2.370 -0.3849  1.1385 -0.2541
 2104SOL    HW1 7211   6.035   2.421   2.348 -0.5006  0.7145  1.2548
 2104SOL    HW2 7212   5.967   2.557   2.288  1.0043  0.3955 -1.3270
 2105SOL     OW 7213   3.777   4.930   5.336 -0.2651 -0.0864 -0.8952
 2105SOL    HW1 7214   3.740   4.981   5.413 -0.3798 -1.4167 -0.0355
 2105SOL    HW2 7215   3.852   4.982   5.295  0.6721  0.1092  0.9325
 2106SOL     OW 7216   5.955   6.473   0.214  0.2682  0.1034 -0.5915
 2106SOL    HW1 7217   6.044   6.519   0.218 -0.4151  1.4473 -0.3497
 2106SOL    HW2 7218   5.942   6.419   0.298  0.3423  0.8861 -0.0693
 2107SOL     OW 7219   2.138   0.671   3.962  0.0677  0.6156  0.0742
 2107SOL    HW1 7220   2.052   0.621   3.949 -0.3097  0.8503  1.4171
 2107SOL    HW2 7221   2.198   0.657   3.884 -0.5211 -0.9327 -0.1269
 2108SOL     OW 7222   2.235   2.869   2.371  0.0700  0.2327 -0.3042
 2108SOL    HW1 7223   2.202   2.928   2.297  0.5796  1.1220  0.1653
 2108SOL    HW2 7224   2.298   2.800   2.334  0.9560  1.1823 -0.5904
 2109SOL     OW 7225   1.779   6.237   0.125  0.1053  0.0042 -0.0588
 2109SOL    HW1 7226   1.769   6.164   0.193  2.9112 -1.9145 -1.4788
 2109SOL    HW2 7227   1.877   6.254   0.109 -0.4695  1.6122 -2.3316
 2110SOL     OW 7228   2.496   4.329   1.072  0.3938  0.1397  0.4447
 2110SOL    HW1 7229   2.540   4.339   0.982 -1.8559  0.5483 -0.6872
 2110SOL    HW2 7230   2.502   4.414   1.122 -0.1181  0.5626 -0.1973
 2111SOL     OW 7231   0.149   2.304   4.318  0.1073  0.4161  0.3483
 2111SOL    HW1 7232   0.127   2.401   4.307  1.0912  0.6070 -0.0948
 2111SOL    HW2 7233   0.180   2.288   4.412  0.9902  0.7634  0.1275
 2112SOL     OW 7234   2.211   0.369   0.342  0.5572  0.0659 -0.0591
 2112SOL    HW1 7235   2.146   0.389   0.416 -0.7378  2.2503 -1.6484
 2112SOL    HW2 7236   2.215   0.270   0.327 -3.1759 -0.1633 -0.4498
 2113SOL     OW 7237   3.857   4.004   2.400 -0.1719  0.1807 -0.1400
 2113SOL    HW1 7238   3.820   3.998   2.493 -1.5841 -0.9781 -0.7423
 2113SOL    HW2 7239   3.843   4.096   2.365 -1.7595  0.0113 -0.0241
 2114SOL     OW 7240   3.088   2.984   0.685  0.5312 -0.3007 -0.0716
 2114SOL    HW1 7241   3.049   2.901   0.643 -0.0506  0.1103 -0.3523
 2114SOL    HW2 7242   3.018   3.029   0.740  1.1888 -0.6295  1.0549
 2115SOL     OW 7243   3.169   3.055   6.730 -0.2392 -0.0461 -0.2828
 2115SOL    HW1 7244   3.084   3.105   6.747  0.0966  0.4283  0.0358
 2115SOL    HW2 7245   3.156   2.991   6.655 -0.8218  0.1628 -0.3647
 2116SOL     OW 7246   2.237   6.933   2.229 -0.6129  0.2545  0.7658
 2116SOL    HW1 7247   2.140   6.958   2.234 -1.1265 -0.8126 -2.0970
 2116SOL    HW2 7248   2.273   6.958   2.139  0.3009 -4.0652 -0.2835
 2117SOL     OW 7249   3.120   1.654   0.022  0.0984 -0.2934  0.4865
 2117SOL    HW1 7250   3.175   1.571   0.019 -2.0062 -1.7057 -0.9443
 2117SOL    HW2 7251   3.033   1.639  -0.024 -0.6124  2.5432  0.7134
 2118SOL     OW 7252   1.052   4.906   0.281 -0.1724  0.1444  0.1334
 2118SOL    HW1 7253   1.103   4.872   0.202 -0.4101 -0.3790  0.2051
 2118SOL    HW2 7254   1.116   4.933   0.352  0.0198 -0.0981  0.0542
 2119SOL     OW 7255   5.234   4.139   6.340 -0.1890  0.6179 -0.4137
 2119SOL    HW1 7256   5.188   4.088   6.413  1.3806 -0.2725 -0.0032
 2119SOL    HW2 7257   5.219   4.237   6.353 -2.7930  0.3435 -0.9002
 2120SOL     OW 7258   2.573   2.079   6.748 -0.5185  0.7194  0.2164
 2120SOL    HW1 7259   2.625   2.158   6.716 -0.5733 -0.0877 -2.0843
 2120SOL    HW2 7260   2.482   2.079   6.705 -0.6157 -0.4442  0.3881
 2121SOL     OW 7261   5.032   5.234   3.479 -0.2349 -0.0425 -0.0083
 2121SOL    HW1 7262   4.985   5.316   3.447 -1.3161 -0.3493  0.7342
 2121SOL    HW2 7263   5.077   5.189   3.402 -0.7632  0.5279 -0.6607
 2122SOL     OW 7264   0.829   0.825   5.240  0.2103 -0.0042  0.2740
 2122SOL    HW1 7265   0.765   0.902   5.247 -0.2560 -0.4079  0.5198
 2122SOL    HW2 7266   0.834   0.794   5.145  0.4651  0.3815  0.1583
 2123SOL     OW 7267   4.934   5.392   0.801  0.4526 -0.1129 -0.1962
 2123SOL    HW1 7268   4.976   5.308   0.768 -0.0180 -0.9138  1.1583
 2123SOL    HW2 7269   4.990   5.471   0.774  1.9643 -1.0237  0.2255
 2124SOL     OW 7270   3.206   0.604   6.533  0.2182 -0.4390 -0.0298
 2124SOL    HW1 7271   3.124   0.618   6.477  0.3782 -0.6516 -0.3217
 2124SOL    HW2 7272   3.246   0.692   6.557 -1.6177 -0.1768  2.4117
 2125SOL     OW 7273   3.017   1.564   3.241  0.5697  0.8918  0.3000
 2125SOL    HW1 7274   3.004   1.478   3.291  1.8859 -0.8346 -2.1314
 2125SOL    HW2 7275   2.942   1.576   3.176  1.5905  0.2805 -1.0418
 2126SOL     OW 7276   2.506   1.657   0.895  0.1966  0.0711 -0.0725
 2126SOL    HW1 7277   2.456   1.635   0.979  2.0768 -2.4325  0.5137
 2126SOL    HW2 7278   2.585   1.713   0.917 -0.3945  1.0876 -0.4911
 2127SOL     OW 7279   2.183   2.303   1.836 -0.5455 -0.3373  0.4395
 2127SOL    HW1 7280   2.215   2.293   1.931 -0.9917  0.8166  0.7323
 2127SOL    HW2 7281   2.231   2.380   1.793 -0.2175 -0.9633 -0.3372
 2128SOL     OW 7282   3.662   0.813   4.352  0.0158  0.6996  0.2452
 2128SOL    HW1 7283   3.581   0.760   4.324  0.6537 -0.3788  0.3619
 2128SOL    HW2 7284   3.642   0.860   4.439 -1.2083  2.2390 -0.8113
 2129SOL     OW 7285   6.944   1.744   2.304 -0.3953  0.2156  0.1320
 2129SOL    HW1 7286   6.913   1.727   2.397 -0.2057  0.7368  0.2947
 2129SOL    HW2 7287   7.043   1.730   2.298 -0.7462 -2.4045 -0.6104
 2130SOL     OW 7288   2.822   0.881   4.568  0.6147 -0.3870  0.0461
 2130SOL    HW1 7289   2.746   0.881   4.633  0.0944 -0.1697 -0.5485
 2130SOL    HW2 7290   2.893   0.944   4.600 -0.0877  0.4968 -0.1045
 2131SOL     OW 7291   6.013   0.004   1.836 -0.2054  0.1380  0.0294
 2131SOL    HW1 7292   6.017   0.044   1.928  1.5167  0.5820 -0.2126
 2131SOL    HW2 7293   5.982  -0.091   1.843  1.1787 -0.2677  1.2344
 2132SOL     OW 7294   4.537   0.783   6.775 -0.1237  0.5192  0.1280
 2132SOL    HW1 7295   4.489   0.790   6.688 -0.0982 -0.6370  0.0071
 2132SOL    HW2 7296   4.483   0.728   6.839 -0.0528  1.1917  0.7896
 2133SOL     OW 7297   6.437   6.601   0.740  0.0424  0.6529  0.7791
 2133SOL    HW1 7298   6.444   6.692   0.699  2.3987  0.1445 -0.0704
 2133SOL    HW2 7299   6.365   6.549   0.695  0.4534  1.1985 -0.5342
 2134SOL     OW 7300   1.353   5.467   5.669  0.5210  0.2928 -0.2369
 2134SOL    HW1 7301   1.420   5.513   5.611 -1.1746  1.3072 -1.4819
 2134SOL    HW2 7302   1.268   5.519   5.670 -0.9310 -1.9464 -0.2932
 2135SOL     OW 7303   2.142   3.017   5.777 -0.1514  0.0193  0.0392
 2135SOL    HW1 7304   2.222   3.056   5.730 -0.5384 -1.5228 -2.0607
 2135SOL    HW2 7305   2.072   3.087   5.788  0.0119  0.4845 -1.6593
 2136SOL     OW 7306   2.885   6.173   3.562  0.4756 -0.4154 -0.4331
 2136SOL    HW1 7307   2.826   6.096   3.587 -1.8521  1.0738 -0.9889
 2136SOL    HW2 7308   2.909   6.225   3.644 -2.6349  1.3543 -0.4684
 2137SOL     OW 7309   1.686   4.394   4.937  0.2626 -0.2528  0.0190
 2137SOL    HW1 7310   1.665   4.429   5.029 -1.3975  1.0437 -0.7996
 2137SOL    HW2 7311   1.785   4.397   4.922  0.4768  0.4803  1.3965
 2138SOL     OW 7312   2.067   4.367   2.431 -0.4630  0.7594  0.5570
 2138SOL    HW1 7313   2.156   4.334   2.399 -0.6000 -0.8930  1.7270
 2138SOL    HW2 7314   2.068   4.374   2.531 -1.6320  0.6915  0.5882
 2139SOL     OW 7315   1.760   6.800   2.114 -0.3029  0.1637  0.2747
 2139SOL    HW1 7316   1.677   6.847   2.144 -0.3555 -0.7370  1.5962
 2139SOL    HW2 7317   1.737   6.707   2.085  0.3431 -0.4033  1.4999
 2140SOL     OW 7318   0.745   1.446   5.375  0.5633 -0.8397 -0.0980
 2140SOL    HW1 7319   0.747   1.450   5.275  1.7420 -0.2021 -0.0652
 2140SOL    HW2 7320   0.682   1.373   5.404 -0.8391 -0.1522 -1.2577
 2141SOL     OW 7321   3.199   6.928   3.135  0.1297 -0.2003 -0.0956
 2141SOL    HW1 7322   3.149   6.999   3.085 -0.2564 -1.4128 -1.5067
 2141SOL    HW2 7323   3.202   6.844   3.079  0.1536 -1.4449  1.7056
 2142SOL     OW 7324   1.560   6.757   4.006  0.1079 -0.0660 -0.2294
 2142SOL    HW1 7325   1.490   6.691   4.034  0.0202 -0.0984 -0.5239
 2142SOL    HW2 7326   1.625   6.771   4.081 -0.6790  0.5775  0.3544
 2143SOL     OW 7327   4.080   6.163   2.541 -0.1163  0.6860 -0.2578
 2143SOL    HW1 7328   4.047   6.069   2.528  0.3930  0.6914 -1.6878
 2143SOL    HW2 7329   4.159   6.162   2.602 -0.8156  0.3365  0.6832
 2144SOL     OW 7330   2.907   6.586   4.182 -0.0513 -0.3805 -0.2887
 2144SOL    HW1 7331   2.881   6.661   4.121 -1.0576 -0.8031 -0.4098
 2144SOL    HW2 7332   3.006   6.581   4.189  0.0615  2.1402  1.1958
 2145SOL     OW 7333   4.772   3.554   6.856  0.4074 -0.2442 -0.1969
 2145SOL    HW1 7334   4.748   3.463   6.822 -2.1590 -0.0572  0.9005
 2145SOL    HW2 7335   4.852   3.547   6.916  1.5190 -1.4108 -1.7449
 2146SOL     OW 7336   4.295   6.354   6.811 -0.0063 -0.6717 -0.0700
 2146SOL    HW1 7337   4.220   6.295   6.841  0.8205 -2.6303 -1.5991
 2146SOL    HW2 7338   4.268   6.400   6.726  0.0178 -0.2465  0.1497
 2147SOL     OW 7339   6.551   1.666   3.723  0.0135  0.1403  0.1766
 2147SOL    HW1 7340   6.544   1.760   3.755  1.2462  0.0318  0.8342
 2147SOL    HW2 7341   6.604   1.663   3.639  0.7040 -0.0402  0.6101
 2148SOL     OW 7342   2.079   6.692   2.316 -0.4238  0.0264 -0.3254
 2148SOL    HW1 7343   2.093   6.621   2.386  1.0545  0.6844  0.0892
 2148SOL    HW2 7344   2.089   6.782   2.358  2.8693  0.4439 -1.7548
 2149SOL     OW 7345   3.665   3.854   5.686 -0.5448  0.3542 -0.3650
 2149SOL    HW1 7346   3.609   3.932   5.660 -0.4495  0.8239  0.7784
 2149SOL    HW2 7347   3.689   3.801   5.605 -0.1090  1.8463 -1.2325
 2150SOL     OW 7348   6.590   5.261   3.522 -0.5693 -0.0104  0.2505
 2150SOL    HW1 7349   6.581   5.265   3.423  2.4151  1.0878 -0.0657
 2150SOL    HW2 7350   6.601   5.166   3.550 -0.3614 -0.2476 -0.6020
 2151SOL     OW 7351   6.915   0.163   2.653 -0.5273  0.0041  0.1433
 2151SOL    HW1 7352   6.960   0.162   2.742  1.3133 -1.1719 -0.7464
 2151SOL    HW2 7353   6.956   0.095   2.594 -3.4178 -1.0481 -0.8328
 2152SOL     OW 7354   6.181   1.189   0.006  0.1631  0.5673  0.1077
 2152SOL    HW1 7355   6.141   1.098   0.017  0.6698 -0.0213 -2.2374
 2152SOL    HW2 7356   6.242   1.189  -0.074 -1.1884  3.4156 -1.0602
 2153SOL     OW 7357   0.114   4.690   3.826  0.1675 -0.6439 -0.2057
 2153SOL    HW1 7358   0.135   4.749   3.904  0.7001 -0.9287 -0.1275
 2153SOL    HW2 7359   0.024   4.650   3.836 -0.6224  0.9153 -0.7180
 2154SOL     OW 7360   5.524   6.466   1.668  0.1915 -0.1532  0.5256
 2154SOL    HW1 7361   5.463   6.518   1.728  2.2581  2.1143  0.8311
 2154SOL    HW2 7362   5.548   6.379   1.712 -1.6990 -0.4829  0.9727
 2155SOL     OW 7363   2.853   0.482   0.434  0.5097  0.1922  0.0639
 2155SOL    HW1 7364   2.906   0.414   0.486 -0.4778 -0.2400  0.5242
 2155SOL    HW2 7365   2.769   0.440   0.399 -0.0246  1.1214  0.1956
 2156SOL     OW 7366   0.188   4.731   2.304 -0.1272 -0.1440  0.1972
 2156SOL    HW1 7367   0.261   4.780   2.257 -2.4312  2.2101 -1.1651
 2156SOL    HW2 7368   0.190   4.754   2.401  1.1080 -0.4008  0.2564
 2157SOL     OW 7369   0.209   3.141   3.238 -0.0920  0.2654  0.1806
 2157SOL    HW1 7370   0.179   3.071   3.302 -0.0330 -1.2311 -1.3676
 2157SOL    HW2 7371   0.255   3.214   3.288 -0.6561 -0.5052  1.8973
 2158SOL     OW 7372   5.486   0.765   3.150 -0.7826 -0.9260 -0.0736
 2158SOL    HW1 7373   5.403   0.737   3.198 -1.2512 -1.4360 -1.1378
 2158SOL    HW2 7374   5.481   0.735   3.055  0.4230 -0.5514 -0.2756
 2159SOL     OW 7375   0.504   6.860   2.043  0.3586  0.0675 -0.0354
 2159SOL    HW1 7376   0.434   6.913   1.995  1.2725  0.5062 -0.9272
 2159SOL    HW2 7377   0.464   6.817   2.124 -1.1820 -0.5202 -1.0684
 2160SOL     OW 7378   6.821   6.385   1.508 -0.0717 -0.4463 -0.5358
 2160SOL    HW1 7379   6.771   6.392   1.594 -0.0238  0.7225 -0.5837
 2160SOL    HW2 7380   6.756   6.368   1.434 -0.2534 -0.2750 -0.4196
 2161SOL     OW 7381   0.335   5.538   2.831  0.6464 -0.0507 -0.2762
 2161SOL    HW1 7382   0.262   5.472   2.849  1.4773 -0.5657  1.4873
 2161SOL    HW2 7383   0.302   5.609   2.770 -0.8032 -1.1761 -0.8540
 2162SOL     OW 7384   2.603   2.114   4.052 -0.2728  0.0842  0.4298
 2162SOL    HW1 7385   2.623   2.046   4.123 -0.4547 -0.9011 -0.4289
 2162SOL    HW2 7386   2.599   2.205   4.093 -0.4040 -0.4624  1.6801
 2163SOL     OW 7387   2.633   2.769   1.735 -0.3562 -0.3408  0.4392
 2163SOL    HW1 7388   2.619   2.692   1.797  0.8777 -1.8778 -1.0583
 2163SOL    HW2 7389   2.726   2.764   1.697 -1.2001  0.1918 -1.8705
 2164SOL     OW 7390   0.092   5.355   0.275  0.4937 -0.3534  0.1291
 2164SOL    HW1 7391   0.025   5.324   0.342  1.1055  0.8121  1.3438
 2164SOL    HW2 7392   0.094   5.455   0.274  0.3996 -0.3417 -1.7624
 2165SOL     OW 7393   1.337   6.188   0.004  0.3016 -0.0189  0.0228
 2165SOL    HW1 7394   1.312   6.199   0.100  0.6490 -0.5707  0.1784
 2165SOL    HW2 7395   1.338   6.278  -0.041 -1.1312  0.1088  0.2096
 2166SOL     OW 7396   1.987   0.853   3.793 -0.5009 -1.1033 -0.4751
 2166SOL    HW1 7397   1.924   0.813   3.726  0.1875 -1.9866 -0.6176
 2166SOL    HW2 7398   2.034   0.779   3.842  0.8566 -0.4641 -0.7798
 2167SOL     OW 7399   1.475   1.457   3.857 -0.6822 -0.1377  0.4793
 2167SOL    HW1 7400   1.435   1.536   3.812 -0.1145  1.4864  2.6195
 2167SOL    HW2 7401   1.561   1.433   3.812 -0.5072  0.9269  0.2157
 2168SOL     OW 7402   5.914   0.092   6.569  0.2938 -0.2486 -0.0341
 2168SOL    HW1 7403   5.941   0.021   6.504 -0.5165 -1.5740  1.0100
 2168SOL    HW2 7404   5.960   0.077   6.656  0.3410  0.7093  0.1154
 2169SOL     OW 7405   4.760   1.703   1.988  0.4021  0.5736 -0.0061
 2169SOL    HW1 7406   4.701   1.659   1.920  1.1503 -1.2913  0.4960
 2169SOL    HW2 7407   4.736   1.670   2.079  0.2564  2.0874  0.5317
 2170SOL     OW 7408   2.344   4.734   3.679 -0.1848  0.1844  0.2530
 2170SOL    HW1 7409   2.332   4.833   3.686 -1.8719 -0.0227  0.6588
 2170SOL    HW2 7410   2.269   4.695   3.627  1.3636 -0.7198 -1.3955
 2171SOL     OW 7411   6.475   2.046   1.710  0.0889 -0.3938  0.2552
 2171SOL    HW1 7412   6.510   2.122   1.656  0.1857 -1.1498 -0.7741
 2171SOL    HW2 7413   6.496   2.062   1.807 -1.0980  1.5297  0.2489
 2172SOL     OW 7414   5.036   4.542   0.445 -0.1904 -0.3946  0.0253
 2172SOL    HW1 7415   4.997   4.602   0.514 -1.2478 -0.3259 -0.6044
 2172SOL    HW2 7416   5.031   4.447   0.476  2.1257 -0.1647  1.3271
 2173SOL     OW 7417   0.645   3.800   0.565 -0.3234 -0.3602 -0.6920
 2173SOL    HW1 7418   0.592   3.844   0.492 -1.6317 -0.1207  0.3608
 2173SOL    HW2 7419   0.599   3.717   0.595  0.0589 -0.3171  0.0401
 2174SOL     OW 7420   5.309   2.963   3.169  0.3485  0.0846 -0.5651
 2174SOL    HW1 7421   5.353   3.052   3.165  1.3759 -0.4315 -1.0556
 2174SOL    HW2 7422   5.250   2.958   3.250 -1.1700  1.8470 -1.4746
 2175SOL     OW 7423   2.338   3.270   5.255 -0.0915 -0.2130 -0.0122
 2175SOL    HW1 7424   2.394   3.188   5.249 -1.2929 -1.0084 -0.7106
 2175SOL    HW2 7425   2.307   3.296   5.164 -1.2052 -0.0434  0.3940
 2176SOL     OW 7426   0.426   2.148   4.422  0.5259 -0.0715  0.0225
 2176SOL    HW1 7427   0.520   2.170   4.396  0.7757 -0.9695  0.1166
 2176SOL    HW2 7428   0.398   2.205   4.499  1.4187 -0.6010  0.7652
 2177SOL     OW 7429   3.017   1.066   1.027 -0.7747  0.0813 -0.5252
 2177SOL    HW1 7430   2.972   0.977   1.035 -1.3876  0.3962 -0.3630
 2177SOL    HW2 7431   2.982   1.127   1.098 -1.4854  0.9068 -1.5424
 2178SOL     OW 7432   3.346   1.733   5.736  0.4270  0.2918  0.8467
 2178SOL    HW1 7433   3.424   1.682   5.699  0.6897  0.6951  0.8360
 2178SOL    HW2 7434   3.369   1.830   5.739 -0.7920  0.6733 -0.9935
 2179SOL     OW 7435   2.936   6.500   6.829  0.6071  0.7715 -0.3686
 2179SOL    HW1 7436   2.966   6.449   6.748 -2.0557  0.4881 -1.2634
 2179SOL    HW2 7437   2.913   6.594   6.803  0.9831  1.0675  0.3392
 2180SOL     OW 7438   1.543   3.281   1.791 -0.2174  1.0489  0.0640
 2180SOL    HW1 7439   1.578   3.270   1.698  0.0776 -2.9852  0.4765
 2180SOL    HW2 7440   1.448   3.252   1.795  0.8742 -3.0580  1.5509
 2181SOL     OW 7441   1.632   6.674   6.548  1.1884  0.0551 -0.4933
 2181SOL    HW1 7442   1.560   6.604   6.539 -0.3443  1.5127 -0.0522
 2181SOL    HW2 7443   1.644   6.721   6.460  0.2400  1.0572 -0.1104
 2182SOL     OW 7444   0.551   5.163   3.109  0.2034 -0.9733 -0.3610
 2182SOL    HW1 7445   0.493   5.126   3.183 -0.2059 -1.9966 -1.1613
 2182SOL    HW2 7446   0.555   5.096   3.034  0.3534  0.1759 -1.4004
 2183SOL     OW 7447   6.086   2.452   0.997  0.4103  0.3615  0.3403
 2183SOL    HW1 7448   6.143   2.378   0.960  1.0474  1.6813 -1.4706
 2183SOL    HW2 7449   6.135   2.499   1.070  0.2237 -0.6364  1.1240
 2184SOL     OW 7450   4.621   4.132   5.997  0.3836  0.1741 -0.4988
 2184SOL    HW1 7451   4.617   4.132   6.097  1.6681  0.3385 -0.4343
 2184SOL    HW2 7452   4.591   4.220   5.962  2.3921  1.0694 -0.1075
 2185SOL     OW 7453   3.077   1.151   6.302  0.4436  0.1796 -0.0163
 2185SOL    HW1 7454   3.086   1.082   6.230  1.4685  1.4572 -1.1713
 2185SOL    HW2 7455   3.127   1.121   6.383  2.1440  0.1961 -1.0176
 2186SOL     OW 7456   2.871   6.826   5.415 -0.0458 -0.7973  0.2136
 2186SOL    HW1 7457   2.908   6.906   5.461 -0.8596  0.2557 -0.8922
 2186SOL    HW2 7458   2.773   6.817   5.436 -0.2316 -0.7923 -0.6195
 2187SOL     OW 7459   6.867   0.814   0.602  0.0584  0.4044  0.3192
 2187SOL    HW1 7460   6.967   0.811   0.595 -0.0101 -0.1953 -0.4906
 2187SOL    HW2 7461   6.831   0.721   0.611 -0.3587  0.6803  1.7998
 2188SOL     OW 7462   5.875   3.879   1.755  0.1745 -0.2094 -0.1603
 2188SOL    HW1 7463   5.929   3.862   1.838  1.2000  0.9549 -0.5677
 2188SOL    HW2 7464   5.935   3.875   1.676 -0.4353  0.6739 -0.6721
 2189SOL     OW 7465   2.990   1.125   0.538  0.5069 -0.1731 -0.1739
 2189SOL    HW1 7466   3.030   1.033   0.535 -0.5391 -0.6362 -0.1132
 2189SOL    HW2 7467   2.891   1.119   0.528  0.4096  0.9414  0.0113
 2190SOL     OW 7468   6.381   3.397   5.200  0.1847  0.6754 -0.3630
 2190SOL    HW1 7469   6.312   3.469   5.201  0.1833  0.6730 -0.2659
 2190SOL    HW2 7470   6.340   3.313   5.164 -0.3924  0.1609  1.3863
 2191SOL     OW 7471   0.287   6.570   0.384 -0.6240 -0.2764 -0.4460
 2191SOL    HW1 7472   0.281   6.641   0.314 -1.4777 -0.5998 -0.7212
 2191SOL    HW2 7473   0.233   6.596   0.464 -0.5834 -0.4161 -0.3713
 2192SOL     OW 7474   0.397   2.846   3.539 -0.0440 -0.1191  0.3820
 2192SOL    HW1 7475   0.424   2.752   3.517  0.0626  0.1016 -0.4939
 2192SOL    HW2 7476   0.478   2.900   3.560 -0.0938 -0.1980  0.7706
 2193SOL     OW 7477   0.828   0.942   4.106  0.6277 -0.0298 -0.2286
 2193SOL    HW1 7478   0.760   0.945   4.179  0.3867  0.0498 -0.4550
 2193SOL    HW2 7479   0.918   0.968   4.143  0.3249  0.9611 -0.1658
 2194SOL     OW 7480   2.892   5.558   5.024  0.5947  0.0895  0.2248
 2194SOL    HW1 7481   2.840   5.543   4.939  1.1632  0.6757 -0.2380
 2194SOL    HW2 7482   2.850   5.506   5.098 -0.2086 -0.0406 -0.3055
 2195SOL     OW 7483   0.947   5.424   6.615 -0.5114 -0.5874  0.2300
 2195SOL    HW1 7484   0.968   5.488   6.689 -0.6938 -2.1614  1.6970
 2195SOL    HW2 7485   0.857   5.383   6.631 -0.5602 -0.9578 -0.8827
 2196SOL     OW 7486   5.117   6.017   5.269  0.5834  0.9758  0.5111
 2196SOL    HW1 7487   5.098   6.115   5.259 -0.5847  0.7140  0.1086
 2196SOL    HW2 7488   5.199   6.005   5.326 -0.0817  2.1461  1.7658
 2197SOL     OW 7489   5.240   6.577   6.320 -0.5489 -0.3169 -0.0136
 2197SOL    HW1 7490   5.261   6.585   6.222 -0.1649 -0.9494  0.0111
 2197SOL    HW2 7491   5.169   6.643   6.344 -0.6492 -0.1545 -0.7207
 2198SOL     OW 7492   2.664   4.959   0.266  0.2235  0.3682  0.2726
 2198SOL    HW1 7493   2.596   4.930   0.333 -0.0227  1.8704  0.7059
 2198SOL    HW2 7494   2.688   4.881   0.207 -0.4736 -0.6513  1.2940
 2199SOL     OW 7495   1.218   1.669   3.988 -0.1421  0.2660  0.0993
 2199SOL    HW1 7496   1.189   1.582   4.026  0.2438 -0.5066 -1.3246
 2199SOL    HW2 7497   1.309   1.692   4.022 -2.0541  2.5876  4.3994
 2200SOL     OW 7498   5.100   5.761   4.667 -0.0613  0.0710 -0.7690
 2200SOL    HW1 7499   5.086   5.859   4.681 -1.1413 -0.3563  1.4829
 2200SOL    HW2 7500   5.021   5.710   4.701  1.0817 -1.6804 -0.5896
 2201SOL     OW 7501   6.280   5.288   2.217  0.0549 -0.4657 -0.4120
 2201SOL    HW1 7502   6.259   5.196   2.186  2.0358 -0.9490 -0.4565
 2201SOL    HW2 7503   6.305   5.285   2.314 -0.6551  0.1623 -0.2019
 2202SOL     OW 7504   0.489   0.156   6.469  0.0180 -0.5309 -0.1568
 2202SOL    HW1 7505   0.575   0.156   6.418  0.5853  1.0297  0.7264
 2202SOL    HW2 7506   0.459   0.250   6.485 -2.0954 -1.0316 -0.7914
 2203SOL     OW 7507   4.411   1.282   0.163  0.0800  0.0514  0.3123
 2203SOL    HW1 7508   4.487   1.293   0.227  1.2354  0.2954 -1.0181
 2203SOL    HW2 7509   4.438   1.321   0.074 -0.2454 -2.9046 -1.2254
 2204SOL     OW 7510   1.327   2.156   1.366 -0.4962 -0.2932  0.5174
 2204SOL    HW1 7511   1.254   2.172   1.300  0.0681  0.7584  0.1280
 2204SOL    HW2 7512   1.398   2.100   1.323 -0.1318  0.3862  0.2197
 2205SOL     OW 7513   0.104   5.856   4.789  0.3868 -0.0249 -0.0871
 2205SOL    HW1 7514   0.182   5.869   4.850  0.2880  2.3641 -0.3997
 2205SOL    HW2 7515   0.136   5.814   4.703  0.9297 -1.0637  0.5968
 2206SOL     OW 7516   2.435   1.974   3.415  0.2244  0.0975 -0.4095
 2206SOL    HW1 7517   2.480   1.904   3.360  0.4876  1.3592 -1.8656
 2206SOL    HW2 7518   2.502   2.018   3.474  0.2183 -0.2907 -0.1066
 2207SOL     OW 7519   5.313   1.635   0.888 -0.5556 -0.1416 -0.5939
 2207SOL    HW1 7520   5.297   1.628   0.789 -0.7004  1.4112 -0.7094
 2207SOL    HW2 7521   5.230   1.670   0.932 -0.1430  0.1980 -0.0757
 2208SOL     OW 7522   0.656   4.214   6.878  0.5813  0.0989  0.2292
 2208SOL    HW1 7523   0.586   4.274   6.917  0.3263 -1.4410  2.3487
 2208SOL    HW2 7524   0.666   4.133   6.936  2.5031 -0.8390 -1.2922
 2209SOL     OW 7525   3.844   3.346   4.404 -0.8731 -0.3025 -0.1424
 2209SOL    HW1 7526   3.819   3.406   4.480 -1.1187  0.0362 -0.4945
 2209SOL    HW2 7527   3.780   3.358   4.329 -0.2075 -0.1014 -0.6893
 2210SOL     OW 7528   3.070   2.168   3.630  0.3653  0.4458 -0.1943
 2210SOL    HW1 7529   3.121   2.162   3.716 -0.3540 -0.0832  0.2156
 2210SOL    HW2 7530   2.988   2.224   3.644  0.0146 -0.0050 -0.4110
 2211SOL     OW 7531   2.809   6.582   5.242 -0.5213  0.1673  0.2801
 2211SOL    HW1 7532   2.721   6.626   5.226  0.2619  1.9804  0.7660
 2211SOL    HW2 7533   2.872   6.647   5.284  1.2170 -0.9469 -0.4883
 2212SOL     OW 7534   3.263   5.386   3.415 -0.9298 -0.5520 -0.7536
 2212SOL    HW1 7535   3.315   5.373   3.331 -0.2919 -2.8512 -0.0699
 2212SOL    HW2 7536   3.291   5.472   3.458  0.6516 -0.6286 -1.5582
 2213SOL     OW 7537   4.462   5.741   1.809 -0.2764 -0.2421  0.3986
 2213SOL    HW1 7538   4.383   5.690   1.774  0.4500 -1.1503  0.0678
 2213SOL    HW2 7539   4.518   5.772   1.733 -0.6466  0.9888  0.5989
 2214SOL     OW 7540   5.407   5.193   0.877 -0.6194  0.4887 -0.1954
 2214SOL    HW1 7541   5.371   5.109   0.916  0.1345  0.4290  0.3663
 2214SOL    HW2 7542   5.506   5.197   0.889 -0.7293  1.7713  0.3923
 2215SOL     OW 7543   2.039   6.587   0.557 -0.4141  0.0328  0.3350
 2215SOL    HW1 7544   2.037   6.508   0.618 -2.9056  0.9561  1.6185
 2215SOL    HW2 7545   1.974   6.573   0.482  0.3941  0.1741 -0.4054
 2216SOL     OW 7546   0.376   4.860   2.169  0.1379  0.3508 -1.1280
 2216SOL    HW1 7547   0.463   4.846   2.122  0.0313 -1.0966 -0.9566
 2216SOL    HW2 7548   0.355   4.957   2.173  1.3134  0.6590 -1.9497
 2217SOL     OW 7549   6.550   4.675   5.935  0.4068  0.5360  0.6161
 2217SOL    HW1 7550   6.517   4.690   5.842  0.4638  1.9305  0.7952
 2217SOL    HW2 7551   6.640   4.717   5.946 -0.9266  3.2888  2.1374
 2218SOL     OW 7552   6.571   4.369   4.013  0.9845 -0.1922  0.3731
 2218SOL    HW1 7553   6.639   4.331   4.075  2.2780 -1.8534 -1.9126
 2218SOL    HW2 7554   6.578   4.324   3.924 -2.0637  0.7128 -0.4508
 2219SOL     OW 7555   2.818   6.717   2.161 -0.4175 -0.0474  0.2571
 2219SOL    HW1 7556   2.849   6.768   2.241  0.8039 -2.0661  1.1611
 2219SOL    HW2 7557   2.800   6.622   2.187  0.4782 -0.8971 -1.9238
 2220SOL     OW 7558   0.959   0.743   0.553 -0.5396  0.3136 -0.0458
 2220SOL    HW1 7559   1.044   0.791   0.534 -0.1397 -0.0296  0.8299
 2220SOL    HW2 7560   0.965   0.649   0.520 -0.8723  0.5051 -0.6703
 2221SOL     OW 7561   2.378   4.745   0.168 -0.3929  0.5536  0.3107
 2221SOL    HW1 7562   2.395   4.662   0.222 -1.0396 -0.3180 -0.7836
 2221SOL    HW2 7563   2.367   4.823   0.230 -0.7377 -0.3473  1.4236
 2222SOL     OW 7564   1.237   6.265   0.578  0.1814  0.4426 -0.0864
 2222SOL    HW1 7565   1.188   6.290   0.662 -1.5857 -0.6274 -0.7423
 2222SOL    HW2 7566   1.231   6.166   0.564  2.1967  0.3357 -0.4430
 2223SOL     OW 7567   2.392   3.772   5.299 -0.6334  0.1224  0.1518
 2223SOL    HW1 7568   2.305   3.766   5.250  0.5155 -0.5653 -1.9272
 2223SOL    HW2 7569   2.417   3.868   5.310 -0.9849  0.2930 -0.5010
 2224SOL     OW 7570   0.446   3.443   3.149 -0.1164 -0.4695 -0.1763
 2224SOL    HW1 7571   0.524   3.493   3.187  0.8286 -0.8337 -1.5499
 2224SOL    HW2 7572   0.455   3.346   3.172 -0.5937 -0.4028  0.3163
 2225SOL     OW 7573   1.796   6.104   6.223  0.2599  0.4343 -0.0963
 2225SOL    HW1 7574   1.761   6.043   6.152 -0.4361  0.5024  0.1801
 2225SOL    HW2 7575   1.874   6.061   6.268  0.4445  0.2125 -0.6179
 2226SOL     OW 7576   3.837   3.948   5.396 -0.0047  0.1079 -0.2164
 2226SOL    HW1 7577   3.792   3.860   5.411 -4.0262  1.6445 -1.8354
 2226SOL    HW2 7578   3.894   3.942   5.314  0.3281 -1.1290  0.0763
 2227SOL     OW 7579   1.071   4.209   5.802 -0.7565 -0.1659 -0.0481
 2227SOL    HW1 7580   1.112   4.177   5.888 -1.2513 -3.2910 -0.8456
 2227SOL    HW2 7581   1.143   4.222   5.734 -0.6013 -0.3515  0.0771
 2228SOL     OW 7582   5.687   2.610   2.198  0.7131 -0.0633 -0.9283
 2228SOL    HW1 7583   5.682   2.611   2.098 -2.5072 -1.3965 -0.8790
 2228SOL    HW2 7584   5.696   2.516   2.231 -1.2132  0.0307  0.0315
 2229SOL     OW 7585   3.022   5.819   5.026 -0.1783  0.9864 -0.3298
 2229SOL    HW1 7586   2.996   5.876   4.949  0.4736 -0.8757 -2.0154
 2229SOL    HW2 7587   2.957   5.743   5.036 -0.0722  1.0103  0.7592
 2230SOL     OW 7588   2.034   2.801   3.583  0.2639 -0.2401 -0.5746
 2230SOL    HW1 7589   1.946   2.758   3.562  0.0660 -0.0026 -0.2304
 2230SOL    HW2 7590   2.080   2.749   3.655 -1.2187  1.6433  1.8825
 2231SOL     OW 7591   5.648   5.644   6.184 -0.4796 -0.1177  0.1819
 2231SOL    HW1 7592   5.627   5.718   6.120 -1.0919  0.6292  1.2276
 2231SOL    HW2 7593   5.721   5.587   6.146 -0.6198  0.4878 -1.0389
 2232SOL     OW 7594   5.692   2.487   0.056 -0.4723 -0.0387  0.7504
 2232SOL    HW1 7595   5.791   2.473   0.055 -0.5897 -1.0039  1.3790
 2232SOL    HW2 7596   5.647   2.415   0.003 -0.9586 -0.9293  2.2972
 2233SOL     OW 7597   1.612   3.273   1.518  0.6055  0.0452 -0.1151
 2233SOL    HW1 7598   1.579   3.185   1.485  1.6929 -0.5374  0.3097
 2233SOL    HW2 7599   1.606   3.341   1.444  1.7692 -0.9089 -1.1134
 2234SOL     OW 7600   5.511   4.917   3.111  0.5477 -0.0721  0.3201
 2234SOL    HW1 7601   5.508   4.894   3.208 -1.0227  0.9795  0.5480
 2234SOL    HW2 7602   5.508   4.833   3.056 -0.6380 -0.5870  1.1512
 2235SOL     OW 7603   4.978   0.157   2.064  0.1974 -0.2728  0.1039
 2235SOL    HW1 7604   4.948   0.097   1.990  0.0880  0.5910 -0.5681
 2235SOL    HW2 7605   5.032   0.233   2.027 -0.5897  0.6619  0.7942
 2236SOL     OW 7606   6.954   6.628   1.548  0.1071 -0.3974 -0.4354
 2236SOL    HW1 7607   6.991   6.612   1.640  1.1531 -1.9826 -1.0794
 2236SOL    HW2 7608   6.924   6.542   1.509  0.0826  0.1885 -1.7582
 2237SOL     OW 7609   4.706   2.506   5.917  0.6428  0.0382  0.4378
 2237SOL    HW1 7610   4.794   2.551   5.908  0.4479  0.3460  0.0562
 2237SOL    HW2 7611   4.719   2.413   5.952  0.9577  0.8134  2.5100
 2238SOL     OW 7612   3.141   3.525   6.577 -0.2678  0.2607  0.5433
 2238SOL    HW1 7613   3.214   3.570   6.628 -1.6099  0.8157  2.0550
 2238SOL    HW2 7614   3.066   3.502   6.639 -0.6359 -1.9577 -0.6184
 2239SOL     OW 7615   1.634   1.258   1.963 -0.2418 -0.2864  0.3239
 2239SOL    HW1 7616   1.642   1.199   1.883  1.2360 -0.8712  0.8752
 2239SOL    HW2 7617   1.633   1.354   1.934  1.0845 -0.4576 -0.3542
 2240SOL     OW 7618   3.503   6.503   1.415  0.0220  0.3223 -0.0388
 2240SOL    HW1 7619   3.561   6.456   1.349  0.5005 -1.0333  1.2942
 2240SOL    HW2 7620   3.552   6.581   1.454  1.0740 -0.9401  1.2348
 2241SOL     OW 7621   6.560   1.594   0.964 -0.8269 -0.6294  1.0014
 2241SOL    HW1 7622   6.571   1.601   0.865 -3.5604  2.5489  0.7547
 2241SOL    HW2 7623   6.524   1.503   0.987  1.0864 -1.8949 -0.6840
 2242SOL     OW 7624   3.176   6.273   5.578 -0.0184  0.0037  0.3655
 2242SOL    HW1 7625   3.158   6.284   5.480 -4.0375  0.8109  0.9942
 2242SOL    HW2 7626   3.221   6.186   5.594 -1.8063 -1.4849 -2.0436
 2243SOL     OW 7627   4.070   3.931   1.941  0.3409  0.5141 -0.1879
 2243SOL    HW1 7628   4.069   3.854   2.004 -0.9854  0.8972  0.2985
 2243SOL    HW2 7629   4.076   4.017   1.993  0.1336  0.7999 -0.6225
 2244SOL     OW 7630   6.338   4.901   5.670 -0.3278  0.3380  0.8173
 2244SOL    HW1 7631   6.245   4.878   5.699 -0.2211  1.9957  2.7028
 2244SOL    HW2 7632   6.376   4.970   5.732  2.2223 -0.3693  0.1585
 2245SOL     OW 7633   5.651   2.014   4.633 -0.6590 -0.4408  0.1891
 2245SOL    HW1 7634   5.640   2.050   4.540 -0.8599  0.5797  0.5902
 2245SOL    HW2 7635   5.684   1.920   4.629  1.1089  0.1850 -0.9058
 2246SOL     OW 7636   4.060   4.375   5.568 -0.3705 -0.6734  0.3041
 2246SOL    HW1 7637   4.007   4.303   5.524  0.5436 -1.5565  0.6056
 2246SOL    HW2 7638   4.124   4.414   5.501 -2.8395  1.9729 -0.7323
 2247SOL     OW 7639   6.714   7.013   5.600 -0.0463  0.4340  0.7148
 2247SOL    HW1 7640   6.730   7.093   5.542  0.1467  0.1041  0.3010
 2247SOL    HW2 7641   6.752   7.030   5.691  0.7284  0.5100  0.3911
 2248SOL     OW 7642   0.421   2.839   0.707 -0.2128  0.2679  0.1015
 2248SOL    HW1 7643   0.371   2.769   0.656 -2.5564  1.7624  0.2192
 2248SOL    HW2 7644   0.496   2.874   0.650 -0.3584 -0.8072 -0.7834
 2249SOL     OW 7645   1.551   4.063   5.516 -0.1864 -0.2206 -0.1758
 2249SOL    HW1 7646   1.544   4.161   5.532 -0.9007 -0.2548 -0.2783
 2249SOL    HW2 7647   1.591   4.046   5.426 -0.6041 -0.0285 -0.3940
 2250SOL     OW 7648   5.599   4.703   2.438  0.2714  0.1135  0.1344
 2250SOL    HW1 7649   5.554   4.627   2.390  0.1994  0.4511 -0.3423
 2250SOL    HW2 7650   5.543   4.730   2.516 -0.5771  0.7991 -0.6920
 2251SOL     OW 7651   6.037   4.192   2.817  0.5087  0.1550 -0.2251
 2251SOL    HW1 7652   6.115   4.167   2.759  1.1107  1.4773 -0.0296
 2251SOL    HW2 7653   6.036   4.134   2.898  1.4193  0.2516 -0.1339
 2252SOL     OW 7654   2.848   5.868   2.831 -0.8349  0.5622  0.3823
 2252SOL    HW1 7655   2.938   5.905   2.853 -0.6056 -0.0476  0.4845
 2252SOL    HW2 7656   2.856   5.807   2.752 -0.7216 -1.3245  1.7728
 2253SOL     OW 7657   2.805   0.230   4.822  0.4985  0.1079 -0.0765
 2253SOL    HW1 7658   2.711   0.207   4.845  0.7385  1.3326  2.5476
 2253SOL    HW2 7659   2.808   0.280   4.736 -1.3104  0.5296  0.0804
 2254SOL     OW 7660   4.780   1.355   2.628  0.0226  0.1475  0.2098
 2254SOL    HW1 7661   4.715   1.431   2.622 -1.1282 -0.7776  0.4689
 2254SOL    HW2 7662   4.796   1.318   2.537 -0.8797 -0.4490  0.2696
 2255SOL     OW 7663   2.176   3.903   1.570  0.0845  0.0588 -0.0556
 2255SOL    HW1 7664   2.130   3.862   1.491  1.4924  0.0245 -0.9027
 2255SOL    HW2 7665   2.144   3.859   1.654 -0.3840 -0.9280 -0.7271
 2256SOL     OW 7666   0.656   4.397   3.707 -0.2853 -0.2646  0.3943
 2256SOL    HW1 7667   0.721   4.469   3.682 -0.4655 -0.5894 -1.0847
 2256SOL    HW2 7668   0.672   4.369   3.801  0.1120  1.3730  0.8482
 2257SOL     OW 7669   4.792   6.120   4.529  0.3695 -0.2210  0.0381
 2257SOL    HW1 7670   4.827   6.213   4.524 -0.8668  0.2367 -0.3169
 2257SOL    HW2 7671   4.786   6.091   4.625 -3.7459  1.8610  0.5976
 2258SOL     OW 7672   1.626   4.840   6.965  0.1947  0.1011 -0.2976
 2258SOL    HW1 7673   1.726   4.830   6.962  0.4050  1.2348  1.3477
 2258SOL    HW2 7674   1.585   4.752   6.988  0.8382 -0.2702 -0.5175
 2259SOL     OW 7675   4.029   6.690   5.469 -0.4647  0.5126  0.3774
 2259SOL    HW1 7676   3.971   6.612   5.442  0.1461  0.5342 -1.1212
 2259SOL    HW2 7677   4.046   6.687   5.567 -0.5086 -1.2240  0.3614
 2260SOL     OW 7678   3.097   5.119   6.610  0.5688  0.3911 -0.4254
 2260SOL    HW1 7679   3.109   5.200   6.668 -2.0192 -0.3417  1.2826
 2260SOL    HW2 7680   3.052   5.145   6.525 -1.2556  0.6432  0.5856
 2261SOL     OW 7681   2.455   0.291   0.155  0.8352 -0.4191 -0.1260
 2261SOL    HW1 7682   2.445   0.268   0.252  2.0426 -0.7458 -0.0670
 2261SOL    HW2 7683   2.377   0.255   0.104  0.2025 -0.2635  0.7145
 2262SOL     OW 7684   5.069   4.711   0.261  0.1374 -0.4659 -0.3424
 2262SOL    HW1 7685   5.143   4.674   0.204  0.8634  0.5849 -0.1248
 2262SOL    HW2 7686   5.046   4.646   0.333  1.0358 -0.6995 -0.2557
 2263SOL     OW 7687   6.539   4.556   4.210  0.2463  0.4495 -0.4410
 2263SOL    HW1 7688   6.519   4.489   4.139  0.5996  0.7729 -0.8489
 2263SOL    HW2 7689   6.574   4.508   4.291  0.0404  0.1001 -0.5531
 2264SOL     OW 7690   6.429   2.324   3.435  0.0529  0.1169  0.2370
 2264SOL    HW1 7691   6.454   2.302   3.529 -1.1642  0.3290  0.6278
 2264SOL    HW2 7692   6.474   2.260   3.372 -0.1075 -0.7954  1.0441
 2265SOL     OW 7693   5.528   6.585   2.504 -0.1003 -0.1108 -0.1100
 2265SOL    HW1 7694   5.535   6.583   2.603 -2.8011 -0.8502  0.1328
 2265SOL    HW2 7695   5.566   6.501   2.465 -0.0189 -0.2917  0.3591
 2266SOL     OW 7696   4.989   4.050   0.599 -0.0611  0.3680 -0.3817
 2266SOL    HW1 7697   5.051   4.036   0.676 -1.1419 -0.3147  0.3912
 2266SOL    HW2 7698   5.027   4.007   0.517  0.9464  0.8251 -0.1695
 2267SOL     OW 7699   5.663   1.012   0.566 -0.6643  0.4126 -0.5199
 2267SOL    HW1 7700   5.617   0.925   0.545  2.0603 -0.3739 -4.1687
 2267SOL    HW2 7701   5.696   1.009   0.660 -2.3132 -1.6678  0.0933
 2268SOL     OW 7702   1.085   5.238   3.504  0.3391  0.2198 -0.6156
 2268SOL    HW1 7703   0.997   5.195   3.528 -0.2877  0.8618 -1.6569
 2268SOL    HW2 7704   1.126   5.277   3.586  1.5272 -3.2982  0.6506
 2269SOL     OW 7705   4.380   3.862   6.880 -0.0252  0.5365 -0.1049
 2269SOL    HW1 7706   4.450   3.883   6.948 -1.4988  0.6497  1.4497
 2269SOL    HW2 7707   4.395   3.769   6.845  0.6670  0.4119  0.4899
 2270SOL     OW 7708   1.040   0.618   2.170  0.0880 -0.3226 -0.3038
 2270SOL    HW1 7709   1.020   0.716   2.169 -0.2359 -0.3897 -0.5183
 2270SOL    HW2 7710   1.026   0.581   2.078  1.9132 -0.2231 -0.6640
 2271SOL     OW 7711   2.478   2.004   4.908  0.0088 -0.2534  0.7169
 2271SOL    HW1 7712   2.391   2.023   4.954  0.0135  0.8668  0.2858
 2271SOL    HW2 7713   2.466   2.014   4.809  0.5818 -0.2842  0.6426
 2272SOL     OW 7714   5.821   3.869   0.598  0.9423 -0.1932 -0.5409
 2272SOL    HW1 7715   5.726   3.840   0.610  1.2695 -0.8970  0.5180
 2272SOL    HW2 7716   5.824   3.967   0.580  0.0756  0.0434  0.5363
 2273SOL     OW 7717   5.391   1.090   1.938  0.1435 -0.5449 -0.1713
 2273SOL    HW1 7718   5.490   1.078   1.932  0.0377 -1.2403 -0.6117
 2273SOL    HW2 7719   5.364   1.088   2.034  0.6774  0.7489  0.0241
 2274SOL     OW 7720   4.499   2.281   0.037 -0.8499 -0.3194  0.3522
 2274SOL    HW1 7721   4.521   2.224   0.117  0.9246  0.2741  0.3304
 2274SOL    HW2 7722   4.528   2.234  -0.046  1.1094  0.7840  0.3685
 2275SOL     OW 7723   2.616   2.159   1.363  0.5746 -0.3957  0.1657
 2275SOL    HW1 7724   2.672   2.076   1.356  0.2305 -0.9190  2.5232
 2275SOL    HW2 7725   2.520   2.134   1.370  0.4546  0.1918  0.7159
 2276SOL     OW 7726   6.277   2.024   1.514  0.0856  0.4441  0.4278
 2276SOL    HW1 7727   6.257   2.120   1.533  0.3692  0.5401  0.2353
 2276SOL    HW2 7728   6.345   1.991   1.580 -1.5083 -0.1996  1.8227
 2277SOL     OW 7729   5.783   2.028   5.040  0.7524  0.2845 -0.3456
 2277SOL    HW1 7730   5.707   2.083   5.074  0.4872 -1.6701  2.5273
 2277SOL    HW2 7731   5.858   2.089   5.012 -1.2042  2.1896 -1.7666
 2278SOL     OW 7732   1.621   2.930   0.301  0.6331  0.2605 -0.0692
 2278SOL    HW1 7733   1.572   3.017   0.299 -0.8768 -0.5399 -2.0697
 2278SOL    HW2 7734   1.596   2.879   0.383  1.4428  1.6298  1.0559
 2279SOL     OW 7735   0.326   0.929   3.832 -0.0887  0.4513  0.0960
 2279SOL    HW1 7736   0.378   0.907   3.914 -0.0288 -1.1956 -0.3463
 2279SOL    HW2 7737   0.228   0.921   3.852 -0.1303  1.6430  0.4174
 2280SOL     OW 7738   5.076   4.070   2.895 -0.0809 -0.0928 -0.0710
 2280SOL    HW1 7739   5.025   3.985   2.878  0.9274 -0.8295  0.4113
 2280SOL    HW2 7740   5.039   4.143   2.839  0.4140 -1.3811 -2.1749
 2281SOL     OW 7741   0.092   6.816   1.414  0.0623  0.6017  0.5881
 2281SOL    HW1 7742   0.065   6.721   1.429 -0.1172  0.6266  0.4195
 2281SOL    HW2 7743   0.085   6.867   1.500  1.1978  0.2084  0.9354
 2282SOL     OW 7744   4.772   2.117   6.273  0.2122 -0.3861 -0.2439
 2282SOL    HW1 7745   4.869   2.129   6.249 -0.1202 -1.9753 -2.7682
 2282SOL    HW2 7746   4.752   2.019   6.282 -0.8859 -0.0255  1.7206
 2283SOL     OW 7747   1.795   4.851   5.111  0.1243  0.0049  0.1073
 2283SOL    HW1 7748   1.768   4.790   5.185 -0.9518 -0.5394 -0.7043
 2283SOL    HW2 7749   1.865   4.915   5.144 -0.6432  0.0617  1.6961
 2284SOL     OW 7750   2.677   1.917   6.981  0.1003  0.3767  0.0038
 2284SOL    HW1 7751   2.613   1.866   6.923 -0.6555 -1.6061  2.4077
 2284SOL    HW2 7752   2.760   1.938   6.929 -1.4293  0.7095 -2.4128
 2285SOL     OW 7753   3.761   1.949   1.274 -0.5794 -0.1609  0.0058
 2285SOL    HW1 7754   3.853   1.918   1.295  0.1427  2.3097  0.7832
 2285SOL    HW2 7755   3.722   1.892   1.201  1.0929 -1.9451  0.4246
 2286SOL     OW 7756   6.523   3.930   1.289  0.0529 -0.3524 -0.1584
 2286SOL    HW1 7757   6.451   3.879   1.241 -0.5583 -0.2555  0.6352
 2286SOL    HW2 7758   6.494   4.025   1.301  0.4714 -0.2268 -0.1408
 2287SOL     OW 7759   2.414   4.403   0.148  0.0076 -0.4678  0.3296
 2287SOL    HW1 7760   2.502   4.357   0.143 -0.1574 -0.9095  1.2499
 2287SOL    HW2 7761   2.349   4.345   0.197 -0.4350  0.3778  0.7642
 2288SOL     OW 7762   3.997   1.466   4.674 -0.2782 -0.1509 -0.2327
 2288SOL    HW1 7763   3.925   1.534   4.656  1.8403  1.2608 -4.6560
 2288SOL    HW2 7764   4.029   1.477   4.769 -2.5148  2.4882  0.3503
 2289SOL     OW 7765   4.893   5.795   1.728  0.1835  0.4249 -0.0969
 2289SOL    HW1 7766   4.952   5.716   1.711 -1.3419 -1.0519  1.0838
 2289SOL    HW2 7767   4.949   5.871   1.762  1.7759  0.1221 -1.8732
 2290SOL     OW 7768   4.320   5.896   2.761 -0.5501  0.3841  0.0572
 2290SOL    HW1 7769   4.269   5.954   2.824 -0.2766  1.1254 -0.3924
 2290SOL    HW2 7770   4.257   5.854   2.695 -0.4849  2.4036 -1.3869
 2291SOL     OW 7771   5.733   5.389   5.564  0.1506 -0.3760 -0.0032
 2291SOL    HW1 7772   5.717   5.470   5.619  0.4575 -1.6527  2.0831
 2291SOL    HW2 7773   5.828   5.389   5.531  0.8525 -0.9393  1.9132
 2292SOL     OW 7774   4.510   0.084   2.089 -0.0121  0.1140 -0.4020
 2292SOL    HW1 7775   4.585   0.140   2.125 -0.2425  0.0393  0.1931
 2292SOL    HW2 7776   4.424   0.114   2.128 -0.0127 -1.4266  0.8842
 2293SOL     OW 7777   6.722   0.064   3.600 -0.0482 -0.3802 -0.7443
 2293SOL    HW1 7778   6.625   0.047   3.582 -0.3170 -1.3985  1.3607
 2293SOL    HW2 7779   6.766  -0.020   3.630  0.7144  0.6883  1.3685
 2294SOL     OW 7780   0.717   0.177   3.277  0.1957  0.1459  0.6256
 2294SOL    HW1 7781   0.657   0.123   3.336  0.1083  1.7783  2.1114
 2294SOL    HW2 7782   0.767   0.116   3.216 -1.1558 -1.4461  1.0301
 2295SOL     OW 7783   1.964   0.554   0.013 -0.3636  0.0819 -0.2085
 2295SOL    HW1 7784   1.914   0.508  -0.060  0.5316  0.5754 -1.1749
 2295SOL    HW2 7785   2.054   0.512   0.023  0.5443  1.6600 -1.2348
 2296SOL     OW 7786   6.468   1.767   6.885  0.4441  0.2358  0.1599
 2296SOL    HW1 7787   6.422   1.855   6.893 -1.1690 -0.7228  2.6729
 2296SOL    HW2 7788   6.402   1.693   6.897  1.9415 -1.3375 -0.7501
 2297SOL     OW 7789   3.547   3.628   5.947  0.1858  0.5420 -0.8322
 2297SOL    HW1 7790   3.530   3.556   6.015  2.6195  0.4491 -0.2136
 2297SOL    HW2 7791   3.574   3.586   5.860 -0.7135  0.6896 -1.1871
 2298SOL     OW 7792   0.668   4.060   4.851  0.0157  0.2128 -0.0887
 2298SOL    HW1 7793   0.622   3.972   4.861  1.1878 -0.2774  1.3150
 2298SOL    HW2 7794   0.697   4.093   4.941 -0.9998  2.3867 -0.5084
 2299SOL     OW 7795   4.626   6.913   4.502 -0.4946  0.0112 -0.0141
 2299SOL    HW1 7796   4.564   6.926   4.425 -0.9863  1.5865  0.6085
 2299SOL    HW2 7797   4.718   6.942   4.477  0.0559 -2.2485 -0.9107
 2300SOL     OW 7798   4.202   4.663   1.082 -0.1337 -0.0658 -0.3292
 2300SOL    HW1 7799   4.108   4.696   1.088 -0.1896 -0.2543 -0.1353
 2300SOL    HW2 7800   4.265   4.736   1.109 -0.2490 -0.0752 -0.0342
 2301SOL     OW 7801   1.281   2.817   2.157  0.2726  0.4043 -0.6113
 2301SOL    HW1 7802   1.210   2.772   2.212 -0.0425  2.9364  1.2516
 2301SOL    HW2 7803   1.357   2.755   2.143 -0.0547 -0.6868  1.9428
 2302SOL     OW 7804   6.254   3.213   5.014 -0.3380  0.4955 -0.3459
 2302SOL    HW1 7805   6.341   3.174   4.984  0.6301  1.7598  0.7379
 2302SOL    HW2 7806   6.200   3.241   4.934  0.0984 -0.5741 -1.0317
 2303SOL     OW 7807   5.747   5.018   7.001 -0.3166  0.3713  0.0859
 2303SOL    HW1 7808   5.734   5.084   7.075  1.5867  0.8690  0.0224
 2303SOL    HW2 7809   5.660   5.001   6.956 -1.2378  1.1907  1.4766
 2304SOL     OW 7810   1.437   4.181   5.072  0.4378  0.0644 -0.3469
 2304SOL    HW1 7811   1.476   4.240   5.001  0.7838  2.6694  1.8536
 2304SOL    HW2 7812   1.343   4.208   5.090  0.2020 -0.8847 -0.0877
 2305SOL     OW 7813   0.655   0.646   0.916  0.7437  0.2650 -0.3746
 2305SOL    HW1 7814   0.557   0.630   0.922  0.9248 -0.1924  2.2000
 2305SOL    HW2 7815   0.674   0.712   0.843 -1.3545 -0.3276 -1.5175
 2306SOL     OW 7816   6.869   3.671   1.436 -0.2862  0.3563  0.1281
 2306SOL    HW1 7817   6.788   3.722   1.463 -1.7477 -0.5175 -2.2662
 2306SOL    HW2 7818   6.841   3.587   1.388  2.0439 -0.4067 -0.0290
 2307SOL     OW 7819   2.257   2.287   2.097 -0.1128 -0.3093  0.1509
 2307SOL    HW1 7820   2.278   2.350   2.171 -0.0630 -2.2577  1.8803
 2307SOL    HW2 7821   2.177   2.232   2.121 -0.5787 -0.4587 -1.6008
 2308SOL     OW 7822   6.310   0.252   0.397  0.4295 -0.3326 -0.1200
 2308SOL    HW1 7823   6.391   0.227   0.343  0.5841  1.2988 -0.7161
 2308SOL    HW2 7824   6.231   0.201   0.365  0.9429 -0.9068 -0.4941
 2309SOL     OW 7825   3.554   1.760   3.422  0.0974 -0.6504  0.5620
 2309SOL    HW1 7826   3.465   1.716   3.406 -0.3419  0.3181  0.3136
 2309SOL    HW2 7827   3.624   1.712   3.370 -0.5597 -0.4085 -0.5680
 2310SOL     OW 7828   5.135   3.265   3.212  0.5319  0.1973 -0.3084
 2310SOL    HW1 7829   5.072   3.187   3.213  0.7749 -0.0889 -2.5430
 2310SOL    HW2 7830   5.167   3.281   3.118  1.9810  1.7999  0.4074
 2311SOL     OW 7831   0.637   2.940   6.716 -0.0890  0.1542 -0.1956
 2311SOL    HW1 7832   0.734   2.938   6.738 -0.1021  0.4348 -0.0996
 2311SOL    HW2 7833   0.586   2.886   6.783 -0.1260  0.9760  0.4541
 2312SOL     OW 7834   1.375   5.780   7.007  0.5244  0.2369 -0.1707
 2312SOL    HW1 7835   1.453   5.781   7.070  0.9867  0.4904 -0.7335
 2312SOL    HW2 7836   1.306   5.717   7.040  0.9820 -0.0089  0.3320
 2313SOL     OW 7837   4.600   2.122   6.836  0.4144 -0.5481  0.2661
 2313SOL    HW1 7838   4.523   2.074   6.877 -0.5754 -1.0665 -2.0418
 2313SOL    HW2 7839   4.567   2.185   6.767  2.0811 -2.1358 -2.1377
 2314SOL     OW 7840   5.218   1.291   5.394 -0.0655 -0.0252 -0.1826
 2314SOL    HW1 7841   5.202   1.255   5.486 -1.3915 -0.7632 -0.6657
 2314SOL    HW2 7842   5.316   1.298   5.377  0.2030  0.3994  1.3758
 2315SOL     OW 7843   0.756   0.828   0.723  0.2445  0.1024  0.1486
 2315SOL    HW1 7844   0.773   0.927   0.714 -1.7822  0.3357 -2.8929
 2315SOL    HW2 7845   0.820   0.778   0.665  2.1387 -0.5879  2.6866
 2316SOL     OW 7846   2.930   1.471   1.566  0.1426 -0.0586 -0.4071
 2316SOL    HW1 7847   2.989   1.396   1.594  0.2248  0.5225  1.0825
 2316SOL    HW2 7848   2.979   1.529   1.501  0.9350 -0.0344  0.1889
 2317SOL     OW 7849   1.028   1.934   3.193  0.4211  0.3301  0.1329
 2317SOL    HW1 7850   1.038   1.880   3.109 -0.7401 -0.8337  0.7156
 2317SOL    HW2 7851   0.932   1.962   3.203  0.8096  1.6618  0.3801
 2318SOL     OW 7852   0.680   6.197   4.421 -0.4382  0.6292  0.1469
 2318SOL    HW1 7853   0.657   6.293   4.409  0.1233  0.8580  0.8162
 2318SOL    HW2 7854   0.754   6.172   4.358 -0.2060  0.7793  0.3615
 2319SOL     OW 7855   6.215   1.920   1.820  0.4620 -0.0483 -0.3359
 2319SOL    HW1 7856   6.294   1.859   1.830 -0.0561 -1.4871 -3.7302
 2319SOL    HW2 7857   6.245   2.005   1.778  0.6607  0.8834  1.5562
 2320SOL     OW 7858   4.190   0.422   5.645 -0.6467 -0.5612 -0.1502
 2320SOL    HW1 7859   4.246   0.457   5.571  0.9763 -1.4200  0.6271
 2320SOL    HW2 7860   4.101   0.393   5.608  1.1938 -3.9475 -2.4598
 2321SOL     OW 7861   0.818   0.998   2.873 -0.0702 -0.2247 -0.3250
 2321SOL    HW1 7862   0.772   1.037   2.952 -0.8690 -1.0332 -0.3684
 2321SOL    HW2 7863   0.861   0.911   2.898 -0.0220 -0.3092 -0.6867
 2322SOL     OW 7864   3.797   0.026   2.494 -0.5125 -0.3212  0.0333
 2322SOL    HW1 7865   3.758   0.076   2.571 -2.8943 -0.2421 -1.1342
 2322SOL    HW2 7866   3.807  -0.071   2.518 -0.4194 -0.1509  0.7023
 2323SOL     OW 7867   4.844   1.850   5.862 -0.5576  0.3834  0.3382
 2323SOL    HW1 7868   4.839   1.750   5.864 -2.0016  0.3313 -1.6956
 2323SOL    HW2 7869   4.861   1.885   5.954  0.8505 -1.7471  0.9590
 2324SOL     OW 7870   5.890   2.995   4.307 -0.0956  0.2649 -0.3627
 2324SOL    HW1 7871   5.977   2.982   4.354 -0.3298  1.5920  0.4799
 2324SOL    HW2 7872   5.879   3.091   4.282  0.1353 -0.4013 -3.4338
 2325SOL     OW 7873   3.631   4.842   1.478  0.2851  1.1343  0.3194
 2325SOL    HW1 7874   3.710   4.868   1.421  0.7862 -1.8483 -0.5544
 2325SOL    HW2 7875   3.548   4.882   1.440  0.6316 -0.5705 -2.5686
 2326SOL     OW 7876   1.848   2.863   4.180 -0.6662 -0.7356  0.3489
 2326SOL    HW1 7877   1.791   2.799   4.232 -0.6505  0.9408  2.5961
 2326SOL    HW2 7878   1.889   2.929   4.242  0.7907  0.3637 -1.6596
 2327SOL     OW 7879   0.603   3.918   1.058  0.0176  0.4711  0.1138
 2327SOL    HW1 7880   0.611   3.988   0.988  0.0123 -1.1625 -1.5886
 2327SOL    HW2 7881   0.632   3.829   1.021 -2.4853 -0.9630  1.3109
 2328SOL     OW 7882   6.873   3.062   3.131 -0.3910 -0.8933 -0.3985
 2328SOL    HW1 7883   6.864   3.045   3.229 -0.5764 -1.8655 -0.5745
 2328SOL    HW2 7884   6.824   3.146   3.107  0.8533  0.1554  0.5703
 2329SOL     OW 7885   6.406   6.314   6.524  0.0010 -0.6312  0.1938
 2329SOL    HW1 7886   6.395   6.248   6.450 -0.4468  0.8367 -1.1161
 2329SOL    HW2 7887   6.468   6.387   6.494 -0.2479  0.0383  1.2475
 2330SOL     OW 7888   5.416   6.385   0.621  0.6862  0.4972  0.0099
 2330SOL    HW1 7889   5.455   6.308   0.670 -0.1959 -0.7848 -1.2446
 2330SOL    HW2 7890   5.329   6.410   0.663  0.4255  0.0661 -0.2692
 2331SOL     OW 7891   4.046   3.021   1.498 -0.0898  0.4215  0.1823
 2331SOL    HW1 7892   4.144   3.040   1.499 -0.2598  1.3379  0.3900
 2331SOL    HW2 7893   4.031   2.923   1.487  0.8132  0.4836 -1.9101
 2332SOL     OW 7894   1.918   4.381   4.021  0.1424  0.1789  0.3164
 2332SOL    HW1 7895   1.818   4.382   4.023  0.1577  0.4446  1.6154
 2332SOL    HW2 7896   1.951   4.454   3.960 -0.4438 -0.0606 -0.3019
 2333SOL     OW 7897   2.658   5.326   0.584  0.0945 -0.0054 -0.1276
 2333SOL    HW1 7898   2.674   5.238   0.538 -2.0094 -1.1969  1.2986
 2333SOL    HW2 7899   2.662   5.313   0.683 -2.3339  1.0195  0.1668
 2334SOL     OW 7900   1.027   2.116   1.542 -0.0218  0.3422 -0.3907
 2334SOL    HW1 7901   1.051   2.038   1.484  1.2392 -0.4047  1.0700
 2334SOL    HW2 7902   0.928   2.130   1.539 -0.0753 -0.1363 -2.1066
 2335SOL     OW 7903   6.562   4.320   5.360 -0.0817 -0.1005  0.6359
 2335SOL    HW1 7904   6.530   4.385   5.429  1.2603  0.4260  0.7851
 2335SOL    HW2 7905   6.627   4.256   5.401  0.1251 -0.2824  0.0391
 2336SOL     OW 7906   2.464   2.736   5.233  0.4228  0.1426 -0.1668
 2336SOL    HW1 7907   2.516   2.733   5.319 -0.1410 -1.2938  0.1591
 2336SOL    HW2 7908   2.425   2.827   5.220  0.1527  0.2678  1.3481
 2337SOL     OW 7909   0.329   5.339   0.896  0.8876 -0.1465 -0.3137
 2337SOL    HW1 7910   0.320   5.239   0.895  2.5181 -0.3186 -0.3363
 2337SOL    HW2 7911   0.401   5.366   0.832  1.0532  0.9678  0.3262
 2338SOL     OW 7912   6.481   1.318   0.994 -0.6258  0.2035  0.2505
 2338SOL    HW1 7913   6.386   1.294   0.973 -0.6855 -1.7933  2.4310
 2338SOL    HW2 7914   6.533   1.234   1.011  1.5164  1.2776 -0.6669
 2339SOL     OW 7915   3.784   3.733   3.672  0.2478  0.6084  1.1132
 2339SOL    HW1 7916   3.806   3.648   3.720  1.9845 -0.3085 -1.1009
 2339SOL    HW2 7917   3.723   3.713   3.596  1.7392  1.0254 -0.2588
 2340SOL     OW 7918   1.459   4.610   6.021 -0.2747  0.0599  0.0579
 2340SOL    HW1 7919   1.459   4.518   5.981  1.9141 -0.6015  1.4001
 2340SOL    HW2 7920   1.554   4.642   6.030 -0.9262  4.3689 -4.4216
 2341SOL     OW 7921   5.612   3.638   3.508 -0.4849 -0.8562 -1.0576
 2341SOL    HW1 7922   5.557   3.721   3.520 -1.0242 -1.4058  0.4685
 2341SOL    HW2 7923   5.708   3.664   3.496 -0.3626  0.0001  1.1977
 2342SOL     OW 7924   0.782   0.632   3.754  0.0620 -0.5123 -0.2053
 2342SOL    HW1 7925   0.741   0.681   3.830  0.4098  1.1030 -1.0216
 2342SOL    HW2 7926   0.745   0.666   3.668 -1.7455 -3.5836 -0.7984
 2343SOL     OW 7927   1.470   6.505   2.663  0.5620  0.8001 -0.0516
 2343SOL    HW1 7928   1.391   6.567   2.662  1.8406  2.5787  1.2597
 2343SOL    HW2 7929   1.448   6.423   2.716  0.2283  2.2996  2.2882
 2344SOL     OW 7930   2.699   2.339   4.629 -0.0887 -1.0022 -0.0616
 2344SOL    HW1 7931   2.695   2.362   4.726  0.4205  0.6593 -0.3939
 2344SOL    HW2 7932   2.772   2.271   4.614  1.7036  0.7079  0.4293
 2345SOL     OW 7933   2.470   1.524   5.774 -0.3059 -0.0683 -0.4018
 2345SOL    HW1 7934   2.419   1.509   5.689  1.3750  0.0658 -1.4883
 2345SOL    HW2 7935   2.492   1.436   5.815 -1.4549 -0.1261  0.1351
 2346SOL     OW 7936   3.943   4.297   0.869  0.1039 -0.2241  0.1145
 2346SOL    HW1 7937   3.983   4.251   0.790 -0.3997 -0.2472 -0.1324
 2346SOL    HW2 7938   3.901   4.383   0.839  2.5983  1.3412  0.8357
 2347SOL     OW 7939   5.231   6.982   0.081  0.4272 -0.3094  0.4628
 2347SOL    HW1 7940   5.326   6.980   0.049  0.0161  0.6466 -0.9228
 2347SOL    HW2 7941   5.221   7.052   0.152  0.3319  1.2688 -1.0295
 2348SOL     OW 7942   6.165   3.714   0.451 -0.1802 -0.6484 -0.5310
 2348SOL    HW1 7943   6.241   3.777   0.467 -0.3763 -0.5396 -0.0234
 2348SOL    HW2 7944   6.124   3.734   0.362 -1.5417  1.3022  0.4867
 2349SOL     OW 7945   6.185   2.025   2.209 -0.0150 -0.1360  0.3301
 2349SOL    HW1 7946   6.090   1.997   2.201 -0.4381  0.4973  2.5993
 2349SOL    HW2 7947   6.240   1.948   2.242 -0.1963  0.1321  1.2964
 2350SOL     OW 7948   3.955   0.184   4.664 -0.0483  0.1527  0.4064
 2350SOL    HW1 7949   3.895   0.189   4.744  0.9485 -1.5394  1.3062
 2350SOL    HW2 7950   3.901   0.166   4.582 -0.9139  0.1958  0.9591
 2351SOL     OW 7951   0.364   0.910   1.842 -0.7975  0.6179 -0.1953
 2351SOL    HW1 7952   0.438   0.944   1.784 -0.0059  0.7185  0.8420
 2351SOL    HW2 7953   0.338   0.818   1.813 -0.3512  0.6349 -0.6592
 2352SOL     OW 7954   0.543   2.143   4.984  0.2090 -0.0275  0.1977
 2352SOL    HW1 7955   0.631   2.159   4.938 -0.5153 -0.0466 -1.2295
 2352SOL    HW2 7956   0.476   2.211   4.952 -0.6213 -0.7448  0.3827
 2353SOL     OW 7957   6.649   5.919   5.943 -0.3406  0.0443 -1.0777
 2353SOL    HW1 7958   6.737   5.883   5.973  0.1201  2.9973  1.6403
 2353SOL    HW2 7959   6.649   5.929   5.843  3.5450  2.3511 -1.0691
 2354SOL     OW 7960   4.644   0.796   5.989 -0.1280  0.0716  0.3846
 2354SOL    HW1 7961   4.687   0.843   5.912 -0.9506 -0.6518 -0.5491
 2354SOL    HW2 7962   4.711   0.785   6.063  0.6786  0.7920 -0.2172
 2355SOL     OW 7963   0.890   4.781   3.754 -0.1835  0.7232 -0.3736
 2355SOL    HW1 7964   0.795   4.753   3.736  0.4433 -2.2577  0.5120
 2355SOL    HW2 7965   0.950   4.702   3.750  2.0997  2.2962  0.5657
 2356SOL     OW 7966   2.691   2.608   0.738  0.2428  0.3583 -0.3849
 2356SOL    HW1 7967   2.709   2.530   0.678  1.3230  0.2178  0.1033
 2356SOL    HW2 7968   2.593   2.613   0.757  0.2946 -1.6048  0.5393
 2357SOL     OW 7969   0.370   5.965   2.852  0.0306 -0.2720 -0.1791
 2357SOL    HW1 7970   0.401   6.059   2.865 -0.8773 -0.0181  0.2436
 2357SOL    HW2 7971   0.423   5.922   2.779 -1.3940  1.4905 -2.3878
 2358SOL     OW 7972   0.216   2.576   1.095  0.7116  0.3409 -0.7700
 2358SOL    HW1 7973   0.166   2.493   1.071 -1.6712  1.2083  0.6876
 2358SOL    HW2 7974   0.208   2.642   1.021  0.0402  0.2841 -0.7629
 2359SOL     OW 7975   6.537   2.277   5.281  0.7090 -0.3045 -0.1133
 2359SOL    HW1 7976   6.523   2.278   5.182 -1.5209 -3.7492 -0.0104
 2359SOL    HW2 7977   6.623   2.230   5.302  1.0664  0.2210 -0.3701
 2360SOL     OW 7978   3.220   4.839   1.969  0.2392  0.2531 -0.1519
 2360SOL    HW1 7979   3.196   4.777   1.894  2.7987 -0.4847 -0.4452
 2360SOL    HW2 7980   3.186   4.801   2.055 -0.9534  0.0805 -0.6776
 2361SOL     OW 7981   6.569   4.849   4.154  0.0794 -0.0456  0.5525
 2361SOL    HW1 7982   6.665   4.851   4.180 -0.3733 -1.1746  2.6094
 2361SOL    HW2 7983   6.539   4.753   4.146 -1.0177  0.2734  0.6346
 2362SOL     OW 7984   4.431   0.113   2.402  0.0582 -0.6494  0.9209
 2362SOL    HW1 7985   4.350   0.135   2.348 -0.8810 -1.9475  1.7143
 2362SOL    HW2 7986   4.421   0.149   2.495  1.1131  0.5105  0.6205
 2363SOL     OW 7987   3.524   1.635   6.636  0.0089 -0.0559 -0.2548
 2363SOL    HW1 7988   3.581   1.717   6.632 -3.0002  2.1870 -0.3499
 2363SOL    HW2 7989   3.495   1.619   6.731  0.0610 -0.6398 -0.3349
 2364SOL     OW 7990   5.961   0.566   5.475  0.4174  0.7528 -0.1682
 2364SOL    HW1 7991   5.868   0.537   5.497  0.8255  0.0126  0.5963
 2364SOL    HW2 7992   5.986   0.529   5.385 -0.1168  1.1929 -0.5098
 2365SOL     OW 7993   3.670   2.692   5.284 -0.5316 -0.3941 -0.0172
 2365SOL    HW1 7994   3.669   2.746   5.200  0.4555 -0.9046 -0.3791
 2365SOL    HW2 7995   3.585   2.706   5.334 -0.7431  0.6347 -0.6412
 2366SOL     OW 7996   6.527   6.405   2.080 -0.7398  0.3600  0.2637
 2366SOL    HW1 7997   6.518   6.309   2.054  2.9363 -0.6529  2.0157
 2366SOL    HW2 7998   6.560   6.458   2.001  0.0550 -0.4591  0.0297
 2367SOL     OW 7999   3.616   3.399   6.136 -0.0287  0.6954  0.0345
 2367SOL    HW1 8000   3.607   3.397   6.236  0.2034  1.1262  0.0717
 2367SOL    HW2 8001   3.618   3.306   6.100  1.8422  0.4604  0.6272
 2368SOL     OW 8002   6.481   4.175   5.774  0.2456  0.2944 -0.4089
 2368SOL    HW1 8003   6.519   4.182   5.866  2.1979 -0.3667 -1.1214
 2368SOL    HW2 8004   6.534   4.231   5.711 -0.3994 -0.0957 -1.3194
 2369SOL     OW 8005   4.366   5.103   1.681 -0.5444  0.0891 -0.2426
 2369SOL    HW1 8006   4.433   5.041   1.640  0.2198 -0.9643  2.3793
 2369SOL    HW2 8007   4.404   5.195   1.686 -0.3849  0.0829 -1.1968
 2370SOL     OW 8008   4.298   3.922   0.952  0.7244  0.0807 -0.6969
 2370SOL    HW1 8009   4.318   3.882   0.862  1.6388 -0.1690 -0.3997
 2370SOL    HW2 8010   4.317   3.854   1.023 -0.0119  0.2708 -0.3164
 2371SOL     OW 8011   0.732   0.245   2.831  0.3404  0.0584 -0.1014
 2371SOL    HW1 8012   0.787   0.231   2.914 -2.4274 -1.8481  1.6034
 2371SOL    HW2 8013   0.656   0.179   2.830  0.5629 -0.4216 -4.5405
 2372SOL     OW 8014   4.370   2.030   1.823  0.5520 -0.4574 -0.1490
 2372SOL    HW1 8015   4.412   1.968   1.757 -0.3589 -1.5351  0.2601
 2372SOL    HW2 8016   4.274   2.046   1.799  1.0733  1.8472 -0.9786
 2373SOL     OW 8017   3.113   0.881   0.577 -0.1896  0.1888 -0.0004
 2373SOL    HW1 8018   3.155   0.893   0.667 -0.8660 -1.1483  0.5307
 2373SOL    HW2 8019   3.182   0.845   0.513  0.2785  1.0853 -0.0127
 2374SOL     OW 8020   5.081   5.083   2.404 -0.4506 -0.5138 -0.4754
 2374SOL    HW1 8021   5.163   5.123   2.445 -0.9441  0.2400 -0.2018
 2374SOL    HW2 8022   5.101   4.989   2.375  0.3319 -0.5580  0.1493
 2375SOL     OW 8023   0.897   1.040   3.369 -0.0803  0.2196 -0.2235
 2375SOL    HW1 8024   0.944   1.127   3.353  1.7604 -0.4233  1.3735
 2375SOL    HW2 8025   0.798   1.057   3.376  0.4099  2.7715  3.1514
 2376SOL     OW 8026   1.631   1.091   1.732  0.2976  0.1686 -0.1163
 2376SOL    HW1 8027   1.593   1.001   1.713  1.2533 -0.3434  0.3317
 2376SOL    HW2 8028   1.719   1.100   1.685  0.4816  0.6468  0.3186
 2377SOL     OW 8029   6.514   1.180   1.815 -0.0761 -0.6611 -0.2650
 2377SOL    HW1 8030   6.527   1.171   1.914  0.3918 -2.2640 -0.4364
 2377SOL    HW2 8031   6.600   1.207   1.772  0.1393 -1.4787 -0.3724
 2378SOL     OW 8032   1.127   5.787   4.753  0.3218 -0.1710  0.0078
 2378SOL    HW1 8033   1.117   5.886   4.747  1.4669 -0.0113  0.3433
 2378SOL    HW2 8034   1.221   5.762   4.727  0.1781 -1.1163  0.3641
 2379SOL     OW 8035   6.007   2.598   4.112 -0.2687  0.0317 -0.2214
 2379SOL    HW1 8036   6.072   2.615   4.186 -0.0824 -0.0479 -0.3653
 2379SOL    HW2 8037   5.940   2.673   4.109 -1.1123 -0.6471  0.8992
 2380SOL     OW 8038   1.306   3.482   4.583  0.7846 -0.0855  0.0414
 2380SOL    HW1 8039   1.331   3.388   4.557  1.0236  0.1591 -0.6165
 2380SOL    HW2 8040   1.290   3.485   4.682  0.9215 -0.7878  0.0937
 2381SOL     OW 8041   1.854   5.067   0.727 -0.2983 -0.8648  0.1172
 2381SOL    HW1 8042   1.904   5.126   0.791 -1.4967 -1.6493  1.8511
 2381SOL    HW2 8043   1.858   5.107   0.636  0.5796  0.8721  0.8655
 2382SOL     OW 8044   1.388   1.492   2.242  0.5237 -0.1316 -0.1981
 2382SOL    HW1 8045   1.309   1.513   2.185  0.3695  1.2347  0.4778
 2382SOL    HW2 8046   1.404   1.393   2.242 -1.3669 -0.4746 -0.1124
 2383SOL     OW 8047   1.778   0.643   2.348  0.0818  0.2540 -0.3294
 2383SOL    HW1 8048   1.762   0.604   2.257 -0.5267 -0.0129 -0.1134
 2383SOL    HW2 8049   1.776   0.571   2.416  3.2072  0.0414 -0.3453
 2384SOL     OW 8050   2.086   4.527   0.439  0.4790  0.2731 -0.2865
 2384SOL    HW1 8051   2.016   4.579   0.389  1.2790  0.2065 -1.5063
 2384SOL    HW2 8052   2.173   4.534   0.392  1.3997  0.6193  1.4064
 2385SOL     OW 8053   2.036   4.670   5.750  0.4840  0.2545 -0.1348
 2385SOL    HW1 8054   2.111   4.653   5.687 -1.7318 -0.8944 -2.7037
 2385SOL    HW2 8055   2.029   4.594   5.815  0.0799 -0.9327 -1.5164
 2386SOL     OW 8056   3.754   4.705   0.147  0.0118  0.2432 -0.3168
 2386SOL    HW1 8057   3.737   4.780   0.211 -0.8895 -1.4957  1.6076
 2386SOL    HW2 8058   3.667   4.670   0.114  0.3856 -0.4188 -0.6129
 2387SOL     OW 8059   4.219   5.442   3.147  0.1075 -0.5240  0.0989
 2387SOL    HW1 8060   4.283   5.463   3.221  0.9711  0.4127 -0.8991
 2387SOL    HW2 8061   4.258   5.372   3.088 -0.2727 -0.7511  0.1163
 2388SOL     OW 8062   3.830   2.631   1.370 -0.1141 -0.0709  0.4422
 2388SOL    HW1 8063   3.808   2.582   1.286  0.9409  0.3537 -0.1011
 2388SOL    HW2 8064   3.869   2.567   1.437 -0.1807 -0.2575  0.3024
 2389SOL     OW 8065   3.860   1.488   3.075  0.2229  0.0927  0.5034
 2389SOL    HW1 8066   3.847   1.586   3.089 -1.1518  0.0406 -0.2019
 2389SOL    HW2 8067   3.939   1.473   3.015  0.5170  0.7612  0.7166
 2390SOL     OW 8068   2.365   0.311   2.031 -0.4010  0.3898  0.0677
 2390SOL    HW1 8069   2.411   0.311   2.120 -0.7110 -1.6029  0.2725
 2390SOL    HW2 8070   2.429   0.280   1.961  0.8118  4.7754 -1.0723
 2391SOL     OW 8071   0.748   0.819   3.244 -0.3570  0.6626  0.0344
 2391SOL    HW1 8072   0.826   0.874   3.276 -0.1802 -0.2629  1.2573
 2391SOL    HW2 8073   0.704   0.866   3.167  0.9339  1.5786 -0.1880
 2392SOL     OW 8074   0.719   1.350   3.466 -0.2794  0.8619  1.1277
 2392SOL    HW1 8075   0.769   1.429   3.431 -0.5057  0.4978 -0.0584
 2392SOL    HW2 8076   0.764   1.316   3.549  1.4819  0.5290  0.0960
 2393SOL     OW 8077   3.157   6.015   0.343 -0.3692  0.6517 -0.4857
 2393SOL    HW1 8078   3.234   5.984   0.288  0.5526  0.2195  0.9954
 2393SOL    HW2 8079   3.159   6.115   0.350 -1.7263  0.9297 -2.9278
 2394SOL     OW 8080   6.237   1.311   5.572 -0.1460 -0.0503 -0.2799
 2394SOL    HW1 8081   6.229   1.268   5.483 -1.1616  1.5777 -1.0240
 2394SOL    HW2 8082   6.230   1.410   5.562  3.0031  0.4627  1.2362
 2395SOL     OW 8083   4.501   4.763   6.130  0.1983 -0.4598  0.6783
 2395SOL    HW1 8084   4.433   4.717   6.072  0.8247 -0.7080  0.1284
 2395SOL    HW2 8085   4.478   4.861   6.135 -0.3434 -0.5826  0.7074
 2396SOL     OW 8086   6.801   5.202   3.180 -0.1530 -0.1266  0.1282
 2396SOL    HW1 8087   6.780   5.110   3.149  0.4865 -0.7738  1.5286
 2396SOL    HW2 8088   6.716   5.248   3.207 -0.3318 -0.8506  0.8367
 2397SOL     OW 8089   3.521   6.512   6.790 -0.1714 -0.2930  0.0177
 2397SOL    HW1 8090   3.567   6.581   6.845  0.9065 -1.2671  0.4004
 2397SOL    HW2 8091   3.589   6.453   6.747 -1.0265 -0.2594 -1.4494
 2398SOL     OW 8092   0.690   0.740   3.520  0.1434  0.0752  0.1838
 2398SOL    HW1 8093   0.595   0.722   3.547 -0.2133 -0.4245 -1.3472
 2398SOL    HW2 8094   0.692   0.792   3.435  1.2350 -0.8491 -0.3813
 2399SOL     OW 8095   0.743   3.770   5.349  0.4744 -0.0499  0.6978
 2399SOL    HW1 8096   0.732   3.689   5.407  2.1332  0.3497  1.6466
 2399SOL    HW2 8097   0.807   3.751   5.276  0.0099  0.0916  0.2454
 2400SOL     OW 8098   4.346   4.600   2.702  0.5685 -0.2322 -0.2791
 2400SOL    HW1 8099   4.320   4.575   2.795  1.9279  2.5558  0.9558
 2400SOL    HW2 8100   4.270   4.646   2.657  0.2926 -0.5324 -0.1197
 2401SOL     OW 8101   5.019   4.047   1.547 -0.4287 -0.7418  0.7122
 2401SOL    HW1 8102   4.958   3.995   1.607 -2.1775 -0.5547 -0.8308
 2401SOL    HW2 8103   5.017   4.007   1.455 -0.0230  0.6703  0.0656
 2402SOL     OW 8104   4.317   0.091   6.292  0.6834 -0.4601 -0.1832
 2402SOL    HW1 8105   4.294   0.012   6.234 -1.5243  0.0683 -0.1165
 2402SOL    HW2 8106   4.340   0.169   6.234 -1.2589 -0.0084 -0.4184
 2403SOL     OW 8107   1.042   1.125   1.933 -0.0260 -0.1019  0.7853
 2403SOL    HW1 8108   0.952   1.168   1.948  0.1232  0.6301 -0.2848
 2403SOL    HW2 8109   1.067   1.071   2.014 -0.9884  0.4702  1.4935
 2404SOL     OW 8110   2.820   2.310   1.158  0.7951  0.6061  0.1812
 2404SOL    HW1 8111   2.757   2.259   1.217  2.7453 -1.6891  0.4401
 2404SOL    HW2 8112   2.799   2.407   1.163 -1.3444  0.1384  1.8815
 2405SOL     OW 8113   2.032   7.008   0.361 -0.2873 -0.1046 -0.5719
 2405SOL    HW1 8114   1.994   7.085   0.413  0.6568 -0.1186  0.1642
 2405SOL    HW2 8115   2.009   7.019   0.265 -0.9604  0.6141 -0.3398
 2406SOL     OW 8116   2.678   1.874   3.170  0.3611 -0.2030 -1.0462
 2406SOL    HW1 8117   2.676   1.791   3.226 -0.7667 -0.4378 -1.4020
 2406SOL    HW2 8118   2.704   1.851   3.077  0.5494 -0.0728 -1.0270
 2407SOL     OW 8119   2.696   5.378   4.195 -0.4772  0.0988 -0.6181
 2407SOL    HW1 8120   2.769   5.322   4.235  0.1204 -0.5914 -2.5443
 2407SOL    HW2 8121   2.616   5.376   4.254  0.4543 -0.5713  0.6814
 2408SOL     OW 8122   4.389   1.946   4.647 -0.2052  0.2839  0.4358
 2408SOL    HW1 8123   4.410   2.012   4.575 -0.1704  2.2487  2.1395
 2408SOL    HW2 8124   4.400   1.990   4.736 -0.5937 -1.9494  1.6582
 2409SOL     OW 8125   4.658   1.063   1.824 -0.1250 -0.4919 -0.4890
 2409SOL    HW1 8126   4.662   1.067   1.724 -1.1071 -1.6256 -0.5850
 2409SOL    HW2 8127   4.703   0.979   1.856 -0.0891 -0.2877  0.0068
 2410SOL     OW 8128   1.816   2.867   2.914 -0.2109  0.2033  0.2476
 2410SOL    HW1 8129   1.767   2.946   2.878  0.6499  0.2783 -0.8360
 2410SOL    HW2 8130   1.914   2.888   2.920 -0.3181  0.2575  2.8954
 2411SOL     OW 8131   4.443   1.388   0.915 -0.1942 -0.2455  0.3325
 2411SOL    HW1 8132   4.425   1.295   0.946 -0.0020 -0.6477 -0.6999
 2411SOL    HW2 8133   4.536   1.394   0.879  0.6980  0.9809  2.6054
 2412SOL     OW 8134   3.431   5.837   5.779  0.2049  0.0797 -0.5885
 2412SOL    HW1 8135   3.498   5.867   5.710 -0.1694 -1.4128 -1.6605
 2412SOL    HW2 8136   3.341   5.872   5.755  0.0478 -0.5657 -0.9464
 2413SOL     OW 8137   4.296   2.356   2.435 -0.1452  0.2000  0.2405
 2413SOL    HW1 8138   4.374   2.410   2.405  0.0927 -0.2419  0.0625
 2413SOL    HW2 8139   4.219   2.373   2.373 -0.5996  1.6108  1.1479
 2414SOL     OW 8140   4.113   3.442   1.940 -0.4314 -0.1437 -0.3057
 2414SOL    HW1 8141   4.196   3.497   1.949 -0.6545 -0.1586  3.4320
 2414SOL    HW2 8142   4.134   3.357   1.892  1.4871  0.2435 -0.2320
 2415SOL     OW 8143   6.774   0.158   1.155  0.3731 -0.0294 -0.0493
 2415SOL    HW1 8144   6.834   0.081   1.135 -0.0444 -0.0253 -1.4276
 2415SOL    HW2 8145   6.748   0.156   1.251  0.9148 -1.2073  0.0928
 2416SOL     OW 8146   0.138   2.581   2.312  0.9179 -0.5328 -0.1921
 2416SOL    HW1 8147   0.237   2.566   2.307  1.3338  1.8336 -0.4591
 2416SOL    HW2 8148   0.093   2.535   2.236  1.8476 -1.3469 -0.2728
 2417SOL     OW 8149   4.298   1.326   5.666 -0.2631  0.3318 -0.4386
 2417SOL    HW1 8150   4.261   1.387   5.737  0.7403 -2.6111  2.8807
 2417SOL    HW2 8151   4.237   1.248   5.654  1.1990 -0.8490 -0.3909
 2418SOL     OW 8152   6.424   3.637   4.854  0.0033  0.5952 -0.0474
 2418SOL    HW1 8153   6.472   3.653   4.941  0.3883  0.5393 -0.2439
 2418SOL    HW2 8154   6.490   3.645   4.779 -0.5194  1.6846 -0.4191
 2419SOL     OW 8155   0.524   2.958   2.323 -0.0432 -0.0932  0.4674
 2419SOL    HW1 8156   0.610   2.997   2.356  0.3936 -2.1234  1.8945
 2419SOL    HW2 8157   0.518   2.968   2.224  3.2655 -2.4833 -0.1151
 2420SOL     OW 8158   2.092   2.331   0.929  0.7012  0.0412  0.2787
 2420SOL    HW1 8159   2.030   2.256   0.955  1.0006 -0.4322 -0.3375
 2420SOL    HW2 8160   2.039   2.415   0.920  0.2548 -0.2186  0.3903
 2421SOL     OW 8161   7.013   1.920   2.098 -0.4643 -0.2621 -0.7483
 2421SOL    HW1 8162   7.003   2.019   2.104 -0.5671 -0.0844 -3.0202
 2421SOL    HW2 8163   6.983   1.878   2.184 -2.6071  1.5240 -0.5301
 2422SOL     OW 8164   3.600   6.926   4.155 -0.1937 -0.3526 -0.3377
 2422SOL    HW1 8165   3.573   6.985   4.231  0.6411 -1.5138  0.9059
 2422SOL    HW2 8166   3.538   6.849   4.148 -0.6823  0.1056 -1.3120
 2423SOL     OW 8167   6.462   5.435   5.413 -0.1672  0.3767  0.1439
 2423SOL    HW1 8168   6.518   5.354   5.432 -0.1540  0.2275 -0.5226
 2423SOL    HW2 8169   6.455   5.490   5.496  1.7352  0.8756  0.0274
 2424SOL     OW 8170   0.629   1.759   6.569  0.3573  0.2315 -0.3119
 2424SOL    HW1 8171   0.568   1.708   6.630 -0.0205  1.3525  0.2718
 2424SOL    HW2 8172   0.574   1.806   6.499  0.6250  0.5689 -0.2953
 2425SOL     OW 8173   5.387   4.920   5.064 -0.1105  0.1808 -0.1693
 2425SOL    HW1 8174   5.376   4.970   5.150  0.8533  0.0133  0.0651
 2425SOL    HW2 8175   5.441   4.837   5.081  1.5103  0.9855 -1.2236
 2426SOL     OW 8176   1.692   5.493   5.590 -0.1132  0.5175  0.5663
 2426SOL    HW1 8177   1.704   5.556   5.667 -0.8033  0.6934  0.5407
 2426SOL    HW2 8178   1.622   5.529   5.528 -1.1165 -0.6474  0.9697
 2427SOL     OW 8179   3.838   0.699   5.184  0.1375  0.2579 -0.4005
 2427SOL    HW1 8180   3.807   0.794   5.180  1.5838  0.8057  0.7705
 2427SOL    HW2 8181   3.912   0.690   5.250 -0.5232 -1.8574  0.1378
 2428SOL     OW 8182   0.352   5.587   0.539 -0.1464  0.1393 -0.5136
 2428SOL    HW1 8183   0.430   5.564   0.480 -0.0690 -0.0186 -0.3493
 2428SOL    HW2 8184   0.267   5.578   0.486  0.0934  3.1269 -1.5652
 2429SOL     OW 8185   3.839   0.067   4.437 -0.1670 -0.4567 -0.4752
 2429SOL    HW1 8186   3.900   0.001   4.393  0.1191  0.2504 -1.1573
 2429SOL    HW2 8187   3.810   0.136   4.371 -0.2567  0.2534  0.2843
 2430SOL     OW 8188   0.111   4.902   3.043  0.0870  0.6558 -0.0166
 2430SOL    HW1 8189   0.078   4.984   2.996 -2.7707 -1.3182 -1.8361
 2430SOL    HW2 8190   0.061   4.891   3.129 -1.8158 -0.5636 -1.1750
 2431SOL     OW 8191   5.906   0.275   2.715  0.1493  0.1201 -0.1733
 2431SOL    HW1 8192   5.965   0.214   2.768 -1.5198 -0.1008  1.5184
 2431SOL    HW2 8193   5.871   0.225   2.635 -0.1793 -0.7577  0.4968
 2432SOL     OW 8194   3.415   4.904   5.188  0.5670  0.4654 -0.4260
 2432SOL    HW1 8195   3.361   4.911   5.103  0.4824  0.9628 -0.3373
 2432SOL    HW2 8196   3.446   4.996   5.214  0.6548  0.3011  0.0423
 2433SOL     OW 8197   6.319   2.679   5.222  0.2801 -0.4669 -0.6845
 2433SOL    HW1 8198   6.291   2.733   5.142  2.2363  2.1861  0.2700
 2433SOL    HW2 8199   6.288   2.724   5.305  1.7745 -0.8914  0.1498
 2434SOL     OW 8200   4.747   6.626   2.556 -0.5355 -0.8112 -0.3996
 2434SOL    HW1 8201   4.743   6.564   2.478 -0.9139  0.8795 -1.7854
 2434SOL    HW2 8202   4.842   6.644   2.580 -0.3688 -0.3133 -1.3671
 2435SOL     OW 8203   2.222   0.947   4.705  0.0336  0.1632  0.3938
 2435SOL    HW1 8204   2.236   0.849   4.691  1.2480  0.4488 -0.5766
 2435SOL    HW2 8205   2.253   0.972   4.797 -1.9807 -0.6390  1.3499
 2436SOL     OW 8206   1.215   0.889   5.469 -0.0306 -0.1028 -0.0371
 2436SOL    HW1 8207   1.312   0.875   5.450 -0.1778  1.3040 -2.1604
 2436SOL    HW2 8208   1.161   0.823   5.417 -0.3009  1.2791 -1.5775
 2437SOL     OW 8209   0.384   6.105   1.030 -0.1984  0.4785 -0.6496
 2437SOL    HW1 8210   0.301   6.052   1.042  0.4026 -0.6495 -1.2950
 2437SOL    HW2 8211   0.445   6.057   0.967  0.9536  1.2648 -0.1668
 2438SOL     OW 8212   3.436   6.872   1.472 -0.4193 -0.2387 -0.3563
 2438SOL    HW1 8213   3.369   6.872   1.545  2.4265 -0.5051  2.4618
 2438SOL    HW2 8214   3.454   6.966   1.442 -2.1310 -0.1871 -1.3465
 2439SOL     OW 8215   0.091   1.762   5.496  0.8685  0.4715  0.2391
 2439SOL    HW1 8216  -0.001   1.754   5.457  0.8128 -1.1579  0.5979
 2439SOL    HW2 8217   0.159   1.745   5.425  0.8094 -0.7323  0.4452
 2440SOL     OW 8218   3.396   2.941   1.376  0.2407 -0.4862  0.4379
 2440SOL    HW1 8219   3.410   2.890   1.290 -1.6563  0.4256 -0.4735
 2440SOL    HW2 8220   3.377   2.876   1.450  0.8560 -1.2352 -0.0410
 2441SOL     OW 8221   6.491   2.355   0.846  0.5379 -0.2183  0.4676
 2441SOL    HW1 8222   6.578   2.326   0.886 -0.3616 -0.8840  2.0608
 2441SOL    HW2 8223   6.490   2.455   0.838  1.0614 -0.1170  1.4328
 2442SOL     OW 8224   5.856   1.960   5.521  0.1195 -0.1162  0.0325
 2442SOL    HW1 8225   5.869   2.053   5.487  1.3636  0.0538  0.9199
 2442SOL    HW2 8226   5.868   1.895   5.446 -1.0810  0.4288 -0.6619
 2443SOL     OW 8227   5.238   5.533   4.549 -0.4586  0.6397  0.4415
 2443SOL    HW1 8228   5.196   5.620   4.573 -0.2393  0.7876  0.3012
 2443SOL    HW2 8229   5.198   5.460   4.604  0.1859  0.9965  1.4014
 2444SOL     OW 8230   5.968   3.547   6.317  0.0303 -0.1268  0.0550
 2444SOL    HW1 8231   6.023   3.495   6.381 -1.9631  0.8689  2.7563
 2444SOL    HW2 8232   5.888   3.584   6.364 -1.7362  0.4444 -3.1091
 2445SOL     OW 8233   3.886   2.986   5.979 -0.4847 -0.7347 -0.0353
 2445SOL    HW1 8234   3.982   2.975   5.952  0.2794  0.2467  2.0782
 2445SOL    HW2 8235   3.847   3.065   5.930  0.7864  0.8561  1.3878
 2446SOL     OW 8236   2.820   4.755   0.146 -0.1398 -0.0736 -0.0178
 2446SOL    HW1 8237   2.899   4.706   0.185 -0.4612  0.2550  1.0729
 2446SOL    HW2 8238   2.853   4.822   0.079  0.5808  0.5316  0.9150
 2447SOL     OW 8239   5.418   4.228   6.744  0.1199  0.5707 -0.4895
 2447SOL    HW1 8240   5.330   4.197   6.709 -0.4072  0.4445  0.9112
 2447SOL    HW2 8241   5.404   4.298   6.814  1.1202  0.4826 -0.1833
 2448SOL     OW 8242   2.255   1.780   4.925 -0.5911 -0.5606  0.6199
 2448SOL    HW1 8243   2.265   1.860   4.985  0.7481  0.4677 -0.8964
 2448SOL    HW2 8244   2.345   1.750   4.895 -1.2206 -1.0923 -0.8112
 2449SOL     OW 8245   1.091   2.634   4.944 -0.5831  0.2856 -0.1311
 2449SOL    HW1 8246   1.097   2.580   5.028  3.4544 -0.8069 -0.9067
 2449SOL    HW2 8247   1.124   2.727   4.961  0.9726 -0.1551 -0.5768
 2450SOL     OW 8248   4.592   5.036   4.622 -0.0359 -0.3069 -0.1902
 2450SOL    HW1 8249   4.629   4.954   4.665 -0.6943 -0.3627  0.2894
 2450SOL    HW2 8250   4.591   5.025   4.523 -0.7587 -1.1663 -0.1021
 2451SOL     OW 8251   0.795   5.493   1.533 -0.4347 -0.4506  0.0233
 2451SOL    HW1 8252   0.775   5.428   1.606 -1.0344  0.7112  0.9216
 2451SOL    HW2 8253   0.777   5.586   1.565  1.8817  0.3079 -0.7257
 2452SOL     OW 8254   3.994   1.239   2.668  0.9572 -0.3148  0.1616
 2452SOL    HW1 8255   4.046   1.313   2.626  0.1453 -0.7797 -1.7760
 2452SOL    HW2 8256   4.046   1.200   2.743  1.6677  1.7878  0.8155
 2453SOL     OW 8257   4.534   5.957   3.975 -0.5549 -0.2759  0.2942
 2453SOL    HW1 8258   4.517   5.875   4.029  1.5960 -1.9422 -1.3924
 2453SOL    HW2 8259   4.597   6.018   4.023  1.1152 -1.6098 -0.1110
 2454SOL     OW 8260   1.699   1.737   2.654 -0.3977 -0.0046 -0.0148
 2454SOL    HW1 8261   1.771   1.787   2.607  1.1351 -1.6382  0.4754
 2454SOL    HW2 8262   1.622   1.797   2.671  1.3999  2.2297  0.7009
 2455SOL     OW 8263   5.021   0.764   1.710  0.7790 -0.2297 -0.2031
 2455SOL    HW1 8264   5.090   0.696   1.686  0.6001  0.0746 -1.6690
 2455SOL    HW2 8265   5.060   0.830   1.775  0.9905 -1.6188  1.1296
 2456SOL     OW 8266   1.064   3.258   0.608  0.5229  0.3469 -0.2843
 2456SOL    HW1 8267   1.022   3.168   0.615  0.3650  0.2190 -2.2750
 2456SOL    HW2 8268   1.040   3.313   0.688 -2.6179 -0.0732 -0.8012
 2457SOL     OW 8269   4.601   5.504   2.426 -0.3227 -0.2369  0.1029
 2457SOL    HW1 8270   4.520   5.542   2.382  0.0486  0.2848 -0.1399
 2457SOL    HW2 8271   4.642   5.572   2.486  1.6951  0.6333 -2.1135
 2458SOL     OW 8272   3.985   5.642   4.185  0.5134  0.3784  0.0951
 2458SOL    HW1 8273   3.946   5.559   4.145  0.9141 -0.7134  1.8718
 2458SOL    HW2 8274   3.919   5.716   4.179 -0.6220 -0.5949  0.2151
 2459SOL     OW 8275   2.634   1.150   2.402 -0.4585  0.4657  0.6677
 2459SOL    HW1 8276   2.682   1.220   2.348 -0.4590  1.0117  1.3565
 2459SOL    HW2 8277   2.699   1.079   2.430 -0.7672 -0.7051 -1.4070
 2460SOL     OW 8278   2.717   2.577   5.906 -0.2198  0.1558 -0.5694
 2460SOL    HW1 8279   2.656   2.518   5.854 -0.2796 -0.0915 -0.2224
 2460SOL    HW2 8280   2.805   2.583   5.860 -0.1268 -0.4158 -0.4728
 2461SOL     OW 8281   2.133   4.669   5.047  0.2751  0.4293 -0.4888
 2461SOL    HW1 8282   2.226   4.706   5.040  0.6148 -0.1416  0.7240
 2461SOL    HW2 8283   2.107   4.665   5.143 -0.9145  0.3235 -0.8057
 2462SOL     OW 8284   6.889   3.366   1.856  0.5670 -0.4522  0.1635
 2462SOL    HW1 8285   6.919   3.294   1.918 -0.1243  0.1276  1.2148
 2462SOL    HW2 8286   6.894   3.334   1.762 -2.5803 -3.0123  0.7089
 2463SOL     OW 8287   2.361   3.929   6.654 -0.0989 -0.8075  0.0595
 2463SOL    HW1 8288   2.374   3.945   6.557 -1.7381 -0.0974 -0.0782
 2463SOL    HW2 8289   2.380   3.833   6.676  0.1328 -1.0040 -0.9682
 2464SOL     OW 8290   3.948   2.295   5.758  0.0585  0.5277 -1.0369
 2464SOL    HW1 8291   4.014   2.368   5.739  0.4835  0.6712  0.7752
 2464SOL    HW2 8292   3.878   2.329   5.820  1.3692 -1.0351  1.4987
 2465SOL     OW 8293   0.572   0.933   6.365  0.1820  0.1655  0.4631
 2465SOL    HW1 8294   0.592   1.022   6.323  0.2814  0.8520  1.8974
 2465SOL    HW2 8295   0.627   0.862   6.322  1.8483  1.1822  0.8579
 2466SOL     OW 8296   2.776   0.506   6.992 -0.0439 -0.1047  0.2257
 2466SOL    HW1 8297   2.805   0.586   6.939 -0.7227 -0.5872 -0.9167
 2466SOL    HW2 8298   2.834   0.427   6.967  0.5206 -0.0278  1.2285
 2467SOL     OW 8299   1.743   5.608   3.766  0.0918 -0.7915 -0.2755
 2467SOL    HW1 8300   1.644   5.599   3.753  0.0988  0.1069 -1.1248
 2467SOL    HW2 8301   1.775   5.690   3.718  0.7072  0.9863  2.9235
 2468SOL     OW 8302   5.865   0.780   3.866  0.7880 -0.2271 -0.4693
 2468SOL    HW1 8303   5.951   0.821   3.836  0.6252 -0.0769 -0.7345
 2468SOL    HW2 8304   5.808   0.762   3.786  0.6897 -0.5923 -0.3197
 2469SOL     OW 8305   3.950   1.146   4.971 -0.4429 -0.2795  0.3065
 2469SOL    HW1 8306   3.990   1.234   4.947 -0.3413 -0.9066 -2.0670
 2469SOL    HW2 8307   3.853   1.159   4.994 -0.3105  0.4934  0.4620
 2470SOL     OW 8308   1.534   4.779   1.814 -0.1152 -0.1702  0.2638
 2470SOL    HW1 8309   1.629   4.785   1.783 -0.2325  0.2316 -0.0318
 2470SOL    HW2 8310   1.478   4.844   1.762 -0.6901 -0.9473 -0.0973
 2471SOL     OW 8311   6.622   3.624   6.733 -0.0838 -0.2770  0.9471
 2471SOL    HW1 8312   6.538   3.627   6.787 -0.4408 -0.4316  0.4086
 2471SOL    HW2 8313   6.615   3.689   6.658  0.5125  0.1174  1.2277
 2472SOL     OW 8314   4.113   2.036   2.639  0.5429  0.6741  0.1012
 2472SOL    HW1 8315   4.136   1.963   2.703 -1.6065 -0.3125 -0.1739
 2472SOL    HW2 8316   4.019   2.067   2.654 -0.0894  0.3590 -2.5663
 2473SOL     OW 8317   0.047   4.799   2.796  0.0837 -0.2071 -0.2360
 2473SOL    HW1 8318  -0.051   4.785   2.809  0.3508 -1.0852  1.1534
 2473SOL    HW2 8319   0.088   4.826   2.883  1.3306 -1.5988 -0.3400
 2474SOL     OW 8320   6.155   1.920   6.584 -0.4236  0.5386 -0.1976
 2474SOL    HW1 8321   6.194   1.939   6.494 -1.0828  1.0989 -0.3772
 2474SOL    HW2 8322   6.199   1.979   6.652 -0.9544  1.1922 -0.4043
 2475SOL     OW 8323   5.738   3.250   5.296  0.2357 -0.4244  0.2251
 2475SOL    HW1 8324   5.675   3.312   5.251  0.3412  0.0163  0.6774
 2475SOL    HW2 8325   5.829   3.291   5.300  0.1527 -0.3008  1.1368
 2476SOL     OW 8326   4.998   6.954   6.810  0.6358 -0.2353 -0.3416
 2476SOL    HW1 8327   5.001   6.884   6.739 -0.7381 -0.2591 -0.4028
 2476SOL    HW2 8328   4.989   6.910   6.899 -0.4021 -0.1571 -0.3940
 2477SOL     OW 8329   4.082   4.780   6.728 -0.1031  0.0309 -0.8082
 2477SOL    HW1 8330   4.125   4.691   6.740 -2.2807 -0.8738  1.0631
 2477SOL    HW2 8331   4.091   4.835   6.811 -1.3977  0.3055 -0.8165
 2478SOL     OW 8332   5.889   1.105   0.147  0.0613 -0.7589  0.1144
 2478SOL    HW1 8333   5.963   1.157   0.190 -0.7860  0.4993  0.1004
 2478SOL    HW2 8334   5.886   1.013   0.186 -0.0773  0.0270  2.0826
 2479SOL     OW 8335   0.264   6.189   6.870 -0.5899  0.3432 -0.4118
 2479SOL    HW1 8336   0.171   6.153   6.877  0.0008 -1.4138 -1.1249
 2479SOL    HW2 8337   0.310   6.176   6.958 -0.8114  0.6144 -0.2540
 2480SOL     OW 8338   5.937   6.395   0.462  0.9094  0.7382  0.1994
 2480SOL    HW1 8339   6.002   6.428   0.530  2.5289 -1.5425 -0.1511
 2480SOL    HW2 8340   5.880   6.323   0.502  1.3394 -0.0697 -0.5942
 2481SOL     OW 8341   0.259   2.101   1.714 -0.3154  0.2518 -0.4899
 2481SOL    HW1 8342   0.204   2.164   1.769  1.1568  1.3530 -0.1885
 2481SOL    HW2 8343   0.302   2.033   1.774 -0.5761  0.0001 -0.5899
 2482SOL     OW 8344   5.475   2.204   6.245 -0.2362  0.1574 -0.3418
 2482SOL    HW1 8345   5.546   2.198   6.174 -0.3090 -0.1289 -0.3936
 2482SOL    HW2 8346   5.405   2.134   6.228 -0.1564 -0.0359  0.1240
 2483SOL     OW 8347   3.352   0.210   4.018 -0.2886  0.2276 -0.1674
 2483SOL    HW1 8348   3.313   0.136   3.964 -0.6337  0.1372  0.1975
 2483SOL    HW2 8349   3.298   0.223   4.101  1.1506 -0.7389  0.9924
 2484SOL     OW 8350   1.654   4.658   2.408 -0.3910 -0.8904 -0.4517
 2484SOL    HW1 8351   1.658   4.739   2.349 -0.8660  0.4673  1.2955
 2484SOL    HW2 8352   1.633   4.578   2.352 -0.4065  0.2471 -2.1761
 2485SOL     OW 8353   1.474   4.396   4.509  0.3622  0.0127  0.6245
 2485SOL    HW1 8354   1.560   4.427   4.551 -0.1739 -0.1077  1.8624
 2485SOL    HW2 8355   1.413   4.362   4.581 -1.0866  0.9565 -0.1149
 2486SOL     OW 8356   1.055   6.820   3.988  0.8880 -0.5633  0.7971
 2486SOL    HW1 8357   0.989   6.882   3.946  1.7368 -1.3831 -1.9652
 2486SOL    HW2 8358   1.065   6.843   4.085 -1.5786  1.1397  0.7536
 2487SOL     OW 8359   6.881   2.129   2.704  0.0229 -0.4709 -0.3166
 2487SOL    HW1 8360   6.892   2.030   2.705 -0.8659 -0.5803 -0.3359
 2487SOL    HW2 8361   6.784   2.152   2.716  0.0099  0.3518 -1.7255
 2488SOL     OW 8362   5.012   1.490   0.863  0.8374  0.0065  0.0797
 2488SOL    HW1 8363   5.009   1.581   0.905 -1.8641  0.5157 -0.9732
 2488SOL    HW2 8364   5.034   1.499   0.766 -0.7493 -0.2600 -0.3351
 2489SOL     OW 8365   3.769   2.556   0.864 -0.1936 -0.0367 -1.0727
 2489SOL    HW1 8366   3.834   2.570   0.789  1.2565  0.3018  0.1883
 2489SOL    HW2 8367   3.820   2.546   0.950 -1.8350  0.7235  0.0303
 2490SOL     OW 8368   1.890   3.499   5.552  0.0566 -0.1665 -0.6305
 2490SOL    HW1 8369   1.883   3.591   5.515  1.7869  0.5042  0.5465
 2490SOL    HW2 8370   1.971   3.454   5.513 -1.5217 -1.7506 -2.2472
 2491SOL     OW 8371   0.130   1.452   1.024  0.0481 -0.1577  0.1110
 2491SOL    HW1 8372   0.084   1.537   1.050 -1.7658 -0.0049 -3.0156
 2491SOL    HW2 8373   0.212   1.473   0.970 -1.2372 -0.2287 -2.0080
 2492SOL     OW 8374   2.878   6.196   2.910  0.5977 -0.0426  0.2740
 2492SOL    HW1 8375   2.873   6.245   2.823  0.5985 -0.6273 -0.0614
 2492SOL    HW2 8376   2.787   6.193   2.952  0.7073  0.7550  0.5896
 2493SOL     OW 8377   4.574   2.194   2.760 -0.4643 -0.3534 -0.3389
 2493SOL    HW1 8378   4.517   2.115   2.736 -0.9310 -0.2472  0.4082
 2493SOL    HW2 8379   4.518   2.264   2.804  0.3879 -0.6443  1.2888
 2494SOL     OW 8380   5.877   5.338   4.120  0.1052 -0.3080 -0.4061
 2494SOL    HW1 8381   5.883   5.250   4.072 -1.2398 -1.0793  0.7739
 2494SOL    HW2 8382   5.782   5.357   4.143  0.3149  1.7280 -1.0759
 2495SOL     OW 8383   2.449   2.127   5.931 -0.4254  0.1988 -0.5069
 2495SOL    HW1 8384   2.388   2.087   5.999  1.1424  0.4212  1.0912
 2495SOL    HW2 8385   2.417   2.101   5.839 -2.4438 -0.3120  0.2815
 2496SOL     OW 8386   6.495   2.601   1.036 -0.3384  0.1814  0.2031
 2496SOL    HW1 8387   6.449   2.658   0.968  0.4066 -0.6239 -1.0163
 2496SOL    HW2 8388   6.593   2.623   1.037  0.0324 -1.3511 -0.5984
 2497SOL     OW 8389   2.088   6.671   1.416  0.5608 -0.5495 -0.3564
 2497SOL    HW1 8390   2.146   6.751   1.399 -0.4794 -0.0198 -1.6389
 2497SOL    HW2 8391   2.000   6.702   1.454  1.4225 -1.4171  2.5824
 2498SOL     OW 8392   6.680   0.794   4.798  0.5908 -0.4658 -0.1041
 2498SOL    HW1 8393   6.618   0.865   4.764 -0.3828 -1.6373 -0.8611
 2498SOL    HW2 8394   6.658   0.707   4.754  1.8724 -1.2119  0.6734
 2499SOL     OW 8395   3.860   1.876   2.577 -0.3567 -0.1745 -0.1818
 2499SOL    HW1 8396   3.846   1.969   2.610 -1.1728 -0.6042  0.7664
 2499SOL    HW2 8397   3.830   1.870   2.482  0.3255  0.6698 -0.4667
 2500SOL     OW 8398   6.021   1.318   2.718 -0.5384  0.3987 -0.0976
 2500SOL    HW1 8399   5.962   1.395   2.742 -1.8716  0.1861 -2.3806
 2500SOL    HW2 8400   6.116   1.340   2.741 -1.3036  1.2169  2.6016
 2501SOL     OW 8401   4.562   2.772   5.245  0.2745  0.0711 -0.2880
 2501SOL    HW1 8402   4.617   2.718   5.309 -1.8089 -0.6191  1.0498
 2501SOL    HW2 8403   4.510   2.709   5.186  0.0682  0.6694 -0.7477
 2502SOL     OW 8404   6.738   3.731   3.834  0.0005  0.0718  0.8918
 2502SOL    HW1 8405   6.822   3.688   3.801 -0.1002  0.4378  0.1296
 2502SOL    HW2 8406   6.756   3.827   3.853  0.7979 -0.6769  4.6704
 2503SOL     OW 8407   6.604   6.561   6.599 -0.3117 -0.7273  0.0738
 2503SOL    HW1 8408   6.586   6.487   6.663  1.7729 -1.2668  0.1073
 2503SOL    HW2 8409   6.692   6.546   6.554 -1.2954  0.0888 -2.2927
 2504SOL     OW 8410   4.116   5.405   2.112 -0.3667 -0.2030 -0.0244
 2504SOL    HW1 8411   4.113   5.487   2.056  0.4901 -0.1409  0.0166
 2504SOL    HW2 8412   4.200   5.354   2.094  0.7828  0.6678  2.3685
 2505SOL     OW 8413   3.916   1.895   3.958  0.6094  0.1948 -0.7916
 2505SOL    HW1 8414   3.953   1.976   3.913  0.6844 -1.6327 -4.4036
 2505SOL    HW2 8415   3.832   1.867   3.913  0.5218 -1.6986  0.4221
 2506SOL     OW 8416   6.281   1.663   3.854 -0.2021 -0.2358  0.2816
 2506SOL    HW1 8417   6.235   1.704   3.776  1.0664  1.3223  0.2991
 2506SOL    HW2 8418   6.380   1.665   3.840 -0.0025 -0.9760  1.4232
 2507SOL     OW 8419   6.386   3.407   6.171  0.8194 -0.3709 -0.0077
 2507SOL    HW1 8420   6.449   3.428   6.096  1.5536  0.5417  0.8266
 2507SOL    HW2 8421   6.427   3.438   6.257 -0.4796 -0.4180  0.6384
 2508SOL     OW 8422   5.944   4.064   2.317 -0.9773 -0.0078  0.2220
 2508SOL    HW1 8423   5.879   4.026   2.250  0.0734 -1.5929  0.0422
 2508SOL    HW2 8424   5.946   4.163   2.308 -3.5683  0.1361  0.4343
 2509SOL     OW 8425   4.832   2.977   6.712  0.7467  0.0190 -0.0127
 2509SOL    HW1 8426   4.789   2.988   6.802  1.9273 -1.0038  0.7084
 2509SOL    HW2 8427   4.807   2.888   6.674 -0.5106  0.8227 -1.1625
 2510SOL     OW 8428   6.755   5.128   6.821 -0.2657  0.0201 -0.4360
 2510SOL    HW1 8429   6.710   5.200   6.768  1.0538  1.0452 -0.2265
 2510SOL    HW2 8430   6.814   5.074   6.762  0.7513  0.7935 -0.1744
 2511SOL     OW 8431   6.563   5.039   2.373  0.0167  0.1256 -0.8733
 2511SOL    HW1 8432   6.496   5.109   2.399 -0.6753 -0.6682 -0.4540
 2511SOL    HW2 8433   6.583   5.047   2.275 -0.8031  0.2945 -1.0353
 2512SOL     OW 8434   3.420   5.206   0.286 -0.6176 -0.5407  0.2257
 2512SOL    HW1 8435   3.462   5.218   0.376  1.2070  2.2793 -0.8902
 2512SOL    HW2 8436   3.320   5.205   0.296 -0.5100  1.2941  2.1635
 2513SOL     OW 8437   6.812   2.896   1.337  0.3350 -0.2719 -0.0267
 2513SOL    HW1 8438   6.738   2.915   1.402  1.4601  3.9284  0.3072
 2513SOL    HW2 8439   6.792   2.941   1.250 -0.1944 -4.1608 -2.1137
 2514SOL     OW 8440   1.532   1.838   3.468 -0.3215  0.2838  0.1526
 2514SOL    HW1 8441   1.441   1.806   3.445 -1.0924  1.2783  1.6746
 2514SOL    HW2 8442   1.583   1.766   3.514 -0.5065 -0.1084 -0.2514
 2515SOL     OW 8443   0.840   0.394   5.763  0.1517  0.3914  0.2669
 2515SOL    HW1 8444   0.877   0.487   5.772  2.2020 -0.1188 -1.8200
 2515SOL    HW2 8445   0.849   0.364   5.669 -0.1870 -2.0601  0.9542
 2516SOL     OW 8446   2.629   1.790   6.710 -0.4249  0.4116 -0.1207
 2516SOL    HW1 8447   2.723   1.768   6.737 -0.2286 -0.1806 -1.2069
 2516SOL    HW2 8448   2.625   1.884   6.677 -0.3181  0.5992  0.3976
 2517SOL     OW 8449   2.290   4.220   3.256 -0.0821  0.4329  0.6081
 2517SOL    HW1 8450   2.348   4.281   3.310  1.7119  0.2242 -0.9634
 2517SOL    HW2 8451   2.308   4.235   3.158 -2.1486 -0.2104  0.0730
 2518SOL     OW 8452   4.632   1.147   2.302  0.1390  0.2699  0.3099
 2518SOL    HW1 8453   4.687   1.230   2.315 -0.3101  0.5850  0.2174
 2518SOL    HW2 8454   4.589   1.150   2.212 -0.0824  0.0568  0.4082
 2519SOL     OW 8455   2.323   6.653   2.181  0.1246 -0.0849  0.6717
 2519SOL    HW1 8456   2.374   6.739   2.189 -0.3606  0.1327  1.6538
 2519SOL    HW2 8457   2.231   6.666   2.216 -0.2122 -0.8035  0.0702
 2520SOL     OW 8458   3.020   5.995   2.445 -0.0444 -0.6407 -0.1939
 2520SOL    HW1 8459   2.968   6.078   2.462  1.3710  0.4165 -0.8607
 2520SOL    HW2 8460   2.965   5.916   2.472 -1.8351  0.4223 -0.5214
 2521SOL     OW 8461   2.534   5.950   6.059  0.2451  0.4884 -0.2635
 2521SOL    HW1 8462   2.565   5.863   6.018 -1.3055 -0.3451  0.2693
 2521SOL    HW2 8463   2.505   6.012   5.986 -3.6199 -1.4066 -0.5938
 2522SOL     OW 8464   0.914   4.309   1.610  0.1854  0.5728  0.0964
 2522SOL    HW1 8465   0.980   4.289   1.538 -1.3200 -0.3283 -1.0889
 2522SOL    HW2 8466   0.828   4.261   1.591 -0.6557  1.2925  1.8592
 2523SOL     OW 8467   2.669   6.509   1.267  0.2440 -0.2179  0.0421
 2523SOL    HW1 8468   2.636   6.439   1.330  0.2697 -0.0164  0.2858
 2523SOL    HW2 8469   2.596   6.536   1.205  0.1382 -0.2241  0.1639
 2524SOL     OW 8470   0.811   4.047   5.961 -0.3591  0.0627  0.2222
 2524SOL    HW1 8471   0.736   4.080   6.019 -0.3386 -0.5842  0.6283
 2524SOL    HW2 8472   0.876   3.995   6.016 -0.3104 -0.5239 -0.3685
 2525SOL     OW 8473   4.481   0.086   0.053 -0.0085 -0.1138  0.2065
 2525SOL    HW1 8474   4.527   0.103  -0.034  3.4329 -1.1214  1.6561
 2525SOL    HW2 8475   4.466  -0.013   0.064  1.8563 -0.3036  1.6639
 2526SOL     OW 8476   0.425   3.513   6.760  1.0017  0.4554  0.2986
 2526SOL    HW1 8477   0.357   3.584   6.746  3.2702  2.4776 -1.1021
 2526SOL    HW2 8478   0.489   3.541   6.832  1.7493 -0.2820 -0.0556
 2527SOL     OW 8479   6.438   0.658   2.824 -0.2388  0.1251  0.0008
 2527SOL    HW1 8480   6.478   0.591   2.762 -0.3992  1.9572 -2.2106
 2527SOL    HW2 8481   6.436   0.621   2.917  0.3673 -2.5802 -0.9861
 2528SOL     OW 8482   2.196   4.013   5.819  0.1537 -0.3380  0.8992
 2528SOL    HW1 8483   2.151   3.997   5.907  0.5758 -1.8789  0.8658
 2528SOL    HW2 8484   2.155   3.955   5.749 -0.1751  0.8737  0.0599
 2529SOL     OW 8485   0.128   5.744   4.156  0.1143 -0.3354  0.1513
 2529SOL    HW1 8486   0.212   5.702   4.122 -0.5896 -0.8878 -0.9606
 2529SOL    HW2 8487   0.086   5.799   4.084 -0.8080 -0.5731  0.4885
 2530SOL     OW 8488   5.143   1.906   3.441 -0.0575  0.0212 -0.2279
 2530SOL    HW1 8489   5.205   1.976   3.405 -0.2136 -0.0365 -0.6171
 2530SOL    HW2 8490   5.049   1.941   3.441 -0.0082  0.1709  0.5218
 2531SOL     OW 8491   6.257   1.842   2.805 -0.4350 -0.3561 -0.0552
 2531SOL    HW1 8492   6.210   1.889   2.731  2.7097  1.4708 -1.0621
 2531SOL    HW2 8493   6.314   1.768   2.768  2.1393  1.3565  0.2052
 2532SOL     OW 8494   2.952   1.806   5.877 -0.8534  0.3051 -0.1526
 2532SOL    HW1 8495   3.024   1.874   5.891 -1.0060  0.4714 -0.1652
 2532SOL    HW2 8496   2.954   1.738   5.950 -0.3675  0.0240 -0.4192
 2533SOL     OW 8497   3.165   1.425   1.741 -0.4324  0.2947  0.1478
 2533SOL    HW1 8498   3.133   1.518   1.720  0.3105  0.3786 -0.6333
 2533SOL    HW2 8499   3.250   1.407   1.693 -0.2273 -0.5724  0.8112
 2534SOL     OW 8500   0.954   0.189   4.910 -0.1761 -0.2388  0.0051
 2534SOL    HW1 8501   0.921   0.095   4.921 -0.2710 -0.2006  0.0603
 2534SOL    HW2 8502   0.903   0.234   4.836  1.3302 -0.8838 -1.4710
 2535SOL     OW 8503   2.686   0.814   4.200  1.1519  0.1872  0.7924
 2535SOL    HW1 8504   2.651   0.733   4.152 -1.0107  1.7712 -0.4955
 2535SOL    HW2 8505   2.616   0.849   4.261  1.3963  2.0367  0.0697
 2536SOL     OW 8506   0.842   5.247   0.311  0.6700  0.2099 -0.1901
 2536SOL    HW1 8507   0.832   5.167   0.369 -1.3295 -0.6711 -1.6421
 2536SOL    HW2 8508   0.927   5.240   0.258  1.5017  0.0634  1.1316
 2537SOL     OW 8509   6.912   1.920   1.286  0.7568  0.2085  0.1535
 2537SOL    HW1 8510   7.006   1.926   1.319  0.4917  0.8751  0.8184
 2537SOL    HW2 8511   6.871   1.835   1.318  0.3983  0.9868  1.9039
 2538SOL     OW 8512   1.506   3.063   3.113  0.8627 -0.0067 -0.5824
 2538SOL    HW1 8513   1.424   3.120   3.117  0.1941 -0.8653 -1.4506
 2538SOL    HW2 8514   1.498   2.988   3.178  2.0399  1.2186  1.0462
 2539SOL     OW 8515   2.062   3.543   1.719 -0.7669  0.1593  0.0434
 2539SOL    HW1 8516   2.135   3.530   1.652 -0.7932 -1.9713  0.3473
 2539SOL    HW2 8517   2.090   3.500   1.806 -2.1441 -0.2169  0.3189
 2540SOL     OW 8518   2.617   5.870   0.589  0.7504 -0.3440 -0.3045
 2540SOL    HW1 8519   2.646   5.918   0.507 -1.9144  1.4099 -0.3667
 2540SOL    HW2 8520   2.571   5.784   0.563  0.3390 -0.0273 -0.6434
 2541SOL     OW 8521   1.830   4.723   3.180 -0.3886  0.6326  0.9012
 2541SOL    HW1 8522   1.845   4.654   3.251 -1.8912 -0.3273  0.3240
 2541SOL    HW2 8523   1.882   4.700   3.098 -1.2751 -0.1115  0.5356
 2542SOL     OW 8524   1.112   6.177   2.656 -0.2726 -0.3855  0.0943
 2542SOL    HW1 8525   1.196   6.146   2.701  0.0178  0.6685  0.2973
 2542SOL    HW2 8526   1.120   6.161   2.557  0.1374 -0.3681  0.1205
 2543SOL     OW 8527   6.094   2.720   0.838 -0.3380  0.3036 -0.3563
 2543SOL    HW1 8528   5.997   2.694   0.836 -0.1134 -0.6347  0.1156
 2543SOL    HW2 8529   6.150   2.642   0.809  0.3006  0.7007 -0.2136
 2544SOL     OW 8530   5.003   5.789   6.245  0.4545  0.6241  0.3207
 2544SOL    HW1 8531   5.039   5.759   6.156 -1.3553  0.4510 -0.3940
 2544SOL    HW2 8532   4.997   5.888   6.247  2.9463  0.8136  1.2804
 2545SOL     OW 8533   4.087   0.387   0.632  0.1423  0.1894 -0.2344
 2545SOL    HW1 8534   4.074   0.292   0.662  1.5643  0.0577  0.0181
 2545SOL    HW2 8535   4.004   0.419   0.586 -0.3611 -1.1691 -0.3093
 2546SOL     OW 8536   2.813   5.336   1.659  0.0070  0.2752 -0.3507
 2546SOL    HW1 8537   2.733   5.391   1.633  0.9365  1.0043 -1.7481
 2546SOL    HW2 8538   2.892   5.363   1.604  0.8397 -1.5313 -0.1136
 2547SOL     OW 8539   3.921   0.241   0.960  0.1149 -0.0805 -0.2917
 2547SOL    HW1 8540   3.978   0.322   0.978 -0.2843  0.1269  0.0720
 2547SOL    HW2 8541   3.873   0.216   1.044 -0.6697  0.0120 -0.7031
 2548SOL     OW 8542   2.425   1.348   6.614  0.2383 -0.3255 -0.1255
 2548SOL    HW1 8543   2.453   1.363   6.709  0.3629 -1.6953  0.0722
 2548SOL    HW2 8544   2.352   1.412   6.590  0.8624  0.6648  0.5860
 2549SOL     OW 8545   2.940   3.767   3.985  0.4842 -0.0960  0.5470
 2549SOL    HW1 8546   2.895   3.719   4.060 -1.0095  1.9338  0.9980
 2549SOL    HW2 8547   2.908   3.729   3.898 -0.2355 -0.3013  0.8938
 2550SOL     OW 8548   6.396   4.188   1.280  0.3823 -0.1828 -0.4954
 2550SOL    HW1 8549   6.392   4.287   1.270  0.8806 -0.3393 -2.9782
 2550SOL    HW2 8550   6.314   4.148   1.239  1.0412 -0.8532 -1.1886
 2551SOL     OW 8551   2.445   2.448   1.383  0.1691 -0.6817  0.1884
 2551SOL    HW1 8552   2.504   2.394   1.442  0.5322  0.9640  1.4054
 2551SOL    HW2 8553   2.364   2.395   1.358  0.5527 -1.7975  1.2528
 2552SOL     OW 8554   6.997   2.254   3.580 -0.0041  0.0779  0.4435
 2552SOL    HW1 8555   7.053   2.253   3.662  0.7858 -0.0768 -0.0850
 2552SOL    HW2 8556   7.024   2.331   3.522 -0.2739 -0.0551  0.1374
 2553SOL     OW 8557   5.676   4.360   4.957 -0.0384  0.2276  0.2424
 2553SOL    HW1 8558   5.663   4.261   4.956 -2.0709  0.4187 -1.7428
 2553SOL    HW2 8559   5.754   4.384   4.899 -0.2631 -0.1695 -0.2375
 2554SOL     OW 8560   1.110   5.867   0.301  0.1253 -0.4674 -0.1807
 2554SOL    HW1 8561   1.150   5.823   0.220 -0.4991 -1.0527 -0.1770
 2554SOL    HW2 8562   1.076   5.797   0.363  0.1938 -0.0026  0.3843
 2555SOL     OW 8563   4.383   4.533   3.282  0.0516  0.0245  0.4805
 2555SOL    HW1 8564   4.423   4.442   3.296 -1.5357 -0.6905  0.5970
 2555SOL    HW2 8565   4.387   4.556   3.185 -0.9452 -0.8816  0.2056
 2556SOL     OW 8566   1.794   1.801   0.363 -0.5121  0.0559  0.1446
 2556SOL    HW1 8567   1.711   1.768   0.318 -0.2700  0.6067 -0.7337
 2556SOL    HW2 8568   1.831   1.879   0.312  1.9577 -1.7135 -1.0061
 2557SOL     OW 8569   0.987   3.380   1.510  0.3838 -0.8619  0.6707
 2557SOL    HW1 8570   1.015   3.287   1.489  2.7805 -0.0955  0.1174
 2557SOL    HW2 8571   1.010   3.401   1.606  0.1284 -0.7437  0.7077
 2558SOL     OW 8572   1.331   1.812   0.990 -0.5623  0.0401 -0.3642
 2558SOL    HW1 8573   1.395   1.764   0.929  0.6342  0.7985  0.2397
 2558SOL    HW2 8574   1.262   1.859   0.934 -1.8060 -2.3374 -0.9618
 2559SOL     OW 8575   4.994   7.000   5.978 -0.8672  0.1745  0.5138
 2559SOL    HW1 8576   4.990   6.902   5.961  1.3414  0.1842 -0.4354
 2559SOL    HW2 8577   4.928   7.048   5.920 -2.0884 -0.7316  1.1166
 2560SOL     OW 8578   3.991   2.879   0.636 -0.8030 -0.3579  0.9924
 2560SOL    HW1 8579   4.084   2.913   0.620 -1.4723  1.1070  0.1159
 2560SOL    HW2 8580   3.947   2.934   0.707 -1.8184  0.5247 -0.2827
 2561SOL     OW 8581   2.826   1.548   3.024 -0.4395  0.5340  0.1902
 2561SOL    HW1 8582   2.795   1.631   2.978 -0.9699  0.1213 -0.2033
 2561SOL    HW2 8583   2.888   1.497   2.964 -1.6495 -0.3408 -0.3598
 2562SOL     OW 8584   2.732   0.600   1.951  0.6180 -0.3512 -0.0292
 2562SOL    HW1 8585   2.672   0.564   2.023 -3.3193  1.7689 -1.9535
 2562SOL    HW2 8586   2.765   0.690   1.977 -0.8190  0.4226 -0.7666
 2563SOL     OW 8587   4.616   1.346   0.354 -0.2697 -0.9315 -0.1579
 2563SOL    HW1 8588   4.675   1.423   0.330 -1.7021  0.0020 -0.8179
 2563SOL    HW2 8589   4.592   1.352   0.451 -0.9873 -0.0919 -0.3758
 2564SOL     OW 8590   2.737   6.451   2.294  0.1335 -0.1768  0.1141
 2564SOL    HW1 8591   2.781   6.421   2.210 -0.3654 -2.1240  0.4988
 2564SOL    HW2 8592   2.650   6.402   2.305  0.4172 -0.3355  1.9857
 2565SOL     OW 8593   5.935   2.399   5.138 -0.2378  0.1751 -0.4327
 2565SOL    HW1 8594   6.019   2.402   5.193 -1.4101  0.5087  1.4142
 2565SOL    HW2 8595   5.857   2.427   5.194 -1.3157  2.0601 -2.7031
 2566SOL     OW 8596   2.392   0.244   5.688 -0.1670 -0.1932  0.1250
 2566SOL    HW1 8597   2.438   0.161   5.721 -0.8068  0.7688  3.9646
 2566SOL    HW2 8598   2.301   0.221   5.654 -0.2078 -1.1591  0.8288
 2567SOL     OW 8599   3.557   1.271   0.788 -0.7334 -0.0507  0.1563
 2567SOL    HW1 8600   3.600   1.197   0.736  0.8692  2.1872 -1.9191
 2567SOL    HW2 8601   3.458   1.264   0.780 -0.6130 -1.7480 -0.2526
 2568SOL     OW 8602   5.344   1.312   2.517  0.5670 -0.2454  0.3560
 2568SOL    HW1 8603   5.392   1.330   2.431 -1.0552 -0.9240 -0.7381
 2568SOL    HW2 8604   5.335   1.213   2.530 -0.8353 -0.1293  0.3527
 2569SOL     OW 8605   5.444   3.332   2.375  0.2520  0.5075 -0.0879
 2569SOL    HW1 8606   5.374   3.401   2.391 -0.6619  0.0691 -1.8766
 2569SOL    HW2 8607   5.528   3.357   2.423 -0.5450  2.0007  0.5949
 2570SOL     OW 8608   2.300   6.051   1.474 -0.2471  0.4576  0.0673
 2570SOL    HW1 8609   2.224   5.990   1.496 -0.1009  0.6485  1.1243
 2570SOL    HW2 8610   2.385   5.997   1.467 -0.3924  0.3071 -0.7032
 2571SOL     OW 8611   3.662   0.082   3.308 -0.6658  0.2511  0.5737
 2571SOL    HW1 8612   3.752   0.046   3.283  0.1681  1.4291  1.7237
 2571SOL    HW2 8613   3.599   0.071   3.231  0.1341 -1.6002  0.1299
 2572SOL     OW 8614   6.397   5.384   1.989  0.6106 -0.1744  0.0694
 2572SOL    HW1 8615   6.356   5.399   2.079  2.5406  2.0083  0.6939
 2572SOL    HW2 8616   6.339   5.322   1.936 -2.6125  1.4611  1.3867
 2573SOL     OW 8617   3.295   6.784   1.264  0.0069  0.7250 -0.6117
 2573SOL    HW1 8618   3.366   6.823   1.323  0.7332 -0.3697 -0.7395
 2573SOL    HW2 8619   3.338   6.746   1.182 -0.6173 -0.7213 -0.2958
 2574SOL     OW 8620   1.248   6.374   1.709 -0.1224 -0.6378  0.1208
 2574SOL    HW1 8621   1.187   6.325   1.647 -0.1122  0.9793 -1.2289
 2574SOL    HW2 8622   1.199   6.396   1.793  0.1866 -3.8192  1.2697
 2575SOL     OW 8623   4.186   2.963   1.133  0.0205 -0.0904  0.4312
 2575SOL    HW1 8624   4.123   2.916   1.194  0.5977 -1.0447  0.3177
 2575SOL    HW2 8625   4.280   2.941   1.159  0.2944  0.6052  0.0568
 2576SOL     OW 8626   1.539   6.003   0.128 -0.9594 -0.1900 -0.2913
 2576SOL    HW1 8627   1.488   6.011   0.042 -2.1794 -1.8212  0.2300
 2576SOL    HW2 8628   1.503   6.070   0.194 -0.4346  0.6441 -0.8365
 2577SOL     OW 8629   5.643   5.639   6.611 -0.8482  0.0484 -0.3192
 2577SOL    HW1 8630   5.585   5.718   6.595  0.4114  1.0694 -0.0442
 2577SOL    HW2 8631   5.643   5.580   6.530  0.6343  1.9631 -1.8120
 2578SOL     OW 8632   6.709   0.860   0.374  0.4253  0.1360  0.1064
 2578SOL    HW1 8633   6.740   0.799   0.447 -1.6832 -2.5861 -1.0611
 2578SOL    HW2 8634   6.631   0.914   0.407 -0.0523 -0.5475  0.1251
 2579SOL     OW 8635   6.045   6.601   3.206 -0.2381 -0.3746  0.4519
 2579SOL    HW1 8636   6.061   6.672   3.274 -1.6836  1.3241 -0.8845
 2579SOL    HW2 8637   6.088   6.626   3.119  0.7582 -2.0378  0.4202
 2580SOL     OW 8638   6.485   4.621   0.604  0.2739  0.5694  0.5903
 2580SOL    HW1 8639   6.474   4.720   0.605  0.9954  0.8501 -3.5786
 2580SOL    HW2 8640   6.404   4.578   0.565  1.2899 -0.0812 -0.9309
 2581SOL     OW 8641   5.765   6.642   0.450  0.1403 -0.1442  0.0154
 2581SOL    HW1 8642   5.672   6.626   0.484  0.5032  0.9959  1.6606
 2581SOL    HW2 8643   5.818   6.558   0.460  0.2539  0.1360  2.5179
 2582SOL     OW 8644   0.664   1.323   6.512 -0.3427  1.0988  0.0105
 2582SOL    HW1 8645   0.675   1.310   6.413 -1.0684  1.4175 -0.1229
 2582SOL    HW2 8646   0.590   1.264   6.545  0.4718  0.3401  0.5362
 2583SOL     OW 8647   1.988   5.056   2.346  0.4662 -0.3323  0.5158
 2583SOL    HW1 8648   1.991   5.116   2.266 -0.5453 -0.9508 -0.0044
 2583SOL    HW2 8649   1.928   5.096   2.415  0.3387 -0.4082  0.4496
 2584SOL     OW 8650   2.981   6.155   1.347  0.0558  0.1787 -0.0794
 2584SOL    HW1 8651   2.971   6.118   1.254  0.4005  0.7444 -0.3526
 2584SOL    HW2 8652   2.937   6.245   1.352  0.2918  0.2806  0.2146
 2585SOL     OW 8653   4.409   4.685   6.398 -0.0224 -0.0484 -0.2864
 2585SOL    HW1 8654   4.462   4.725   6.323  0.3819 -0.1423 -0.0500
 2585SOL    HW2 8655   4.455   4.603   6.431  0.6682  0.8879  1.1725
 2586SOL     OW 8656   5.208   4.617   4.926 -0.0496 -0.2886 -0.2094
 2586SOL    HW1 8657   5.307   4.622   4.914  0.0125  0.6864  0.6371
 2586SOL    HW2 8658   5.186   4.586   5.018 -0.5108  1.8803  0.4542
 2587SOL     OW 8659   5.633   3.541   0.596  0.0891 -0.0511 -0.4499
 2587SOL    HW1 8660   5.728   3.549   0.566  0.2921  1.8639  0.5367
 2587SOL    HW2 8661   5.585   3.628   0.579 -1.2882 -0.7300 -0.2295
 2588SOL     OW 8662   4.568   0.338   2.468  0.0175  0.0471  0.2403
 2588SOL    HW1 8663   4.642   0.390   2.424  1.0609 -1.2909  0.3515
 2588SOL    HW2 8664   4.561   0.248   2.424 -1.0742 -0.1099  0.7214
 2589SOL     OW 8665   6.961   6.843   0.114 -0.3793  0.7206  0.5702
 2589SOL    HW1 8666   7.023   6.889   0.051 -0.6163  0.1213 -0.1040
 2589SOL    HW2 8667   6.919   6.764   0.070 -1.7202  1.1671  0.9614
 2590SOL     OW 8668   2.388   6.298   3.237 -0.2711 -0.5750 -0.5667
 2590SOL    HW1 8669   2.292   6.276   3.223 -0.6712  0.0326  0.9900
 2590SOL    HW2 8670   2.398   6.398   3.245  0.1843 -0.7332  1.1500
 2591SOL     OW 8671   6.260   5.306   5.999 -0.2537  0.0651  0.5250
 2591SOL    HW1 8672   6.287   5.311   6.095  0.3827  2.8696  0.2965
 2591SOL    HW2 8673   6.161   5.299   5.992 -0.3443  0.3955  1.4015
 2592SOL     OW 8674   5.663   6.193   5.217  0.5854 -0.1676 -0.3346
 2592SOL    HW1 8675   5.679   6.278   5.267  1.1211 -0.6372  0.3179
 2592SOL    HW2 8676   5.642   6.120   5.283 -1.1440 -0.2800 -0.9548
 2593SOL     OW 8677   4.048   4.816   3.702 -0.4029  0.4147  0.0642
 2593SOL    HW1 8678   4.009   4.824   3.794  1.2852 -0.6902  0.9332
 2593SOL    HW2 8679   4.117   4.743   3.702 -2.2928 -1.5818 -2.7791
 2594SOL     OW 8680   2.495   6.499   0.120  0.3066  0.5938  0.0462
 2594SOL    HW1 8681   2.472   6.426   0.056 -0.7407  1.3385 -0.4576
 2594SOL    HW2 8682   2.412   6.529   0.167  1.1148 -0.2526  2.1238
 2595SOL     OW 8683   5.890   5.679   1.416  0.2213  0.2710 -0.2938
 2595SOL    HW1 8684   5.808   5.701   1.468 -0.8967 -1.4477 -1.2547
 2595SOL    HW2 8685   5.897   5.741   1.337 -0.1926  0.3616 -0.2618
 2596SOL     OW 8686   0.207   4.776   4.112 -0.1328  0.2242  0.4378
 2596SOL    HW1 8687   0.158   4.842   4.169 -0.2772 -0.5826  1.2709
 2596SOL    HW2 8688   0.282   4.822   4.066 -0.1075  0.9372  1.1570
 2597SOL     OW 8689   4.721   5.968   3.024 -0.0932 -0.2692  0.1432
 2597SOL    HW1 8690   4.766   5.883   2.996  1.6510  0.5380  0.3452
 2597SOL    HW2 8691   4.782   6.019   3.084 -1.1240  1.1269  0.0483
 2598SOL     OW 8692   5.306   6.972   5.649  0.2645 -0.4089 -0.1656
 2598SOL    HW1 8693   5.302   7.062   5.606 -2.8396  0.4753  1.6499
 2598SOL    HW2 8694   5.251   6.907   5.597  0.9963 -0.7937 -0.4723
 2599SOL     OW 8695   0.975   3.137   3.179  0.2125  0.4493 -0.3085
 2599SOL    HW1 8696   1.060   3.108   3.135  0.8233  2.0990 -0.3110
 2599SOL    HW2 8697   0.996   3.190   3.261 -0.8383  0.3712  0.0277
 2600SOL     OW 8698   3.721   0.752   6.147 -0.0907  0.8188  0.1435
 2600SOL    HW1 8699   3.780   0.672   6.159 -0.2205  0.6693 -0.2071
 2600SOL    HW2 8700   3.640   0.743   6.205 -0.1070  0.6926  0.1015
 2601SOL     OW 8701   5.461   2.929   5.093 -0.1309  0.1584  0.1267
 2601SOL    HW1 8702   5.467   2.836   5.130  0.4443  0.7403  1.5496
 2601SOL    HW2 8703   5.513   2.992   5.151  0.1755  1.2463 -1.2729
 2602SOL     OW 8704   1.301   3.464   2.221  0.0830 -0.1652  0.5303
 2602SOL    HW1 8705   1.397   3.486   2.204 -0.1754  0.8679  0.3702
 2602SOL    HW2 8706   1.295   3.402   2.299  1.0740 -2.5867 -1.1884
 2603SOL     OW 8707   3.076   3.912   3.754 -0.0899 -0.3143 -0.4411
 2603SOL    HW1 8708   3.129   3.955   3.681  0.7020 -1.5761 -0.6361
 2603SOL    HW2 8709   2.980   3.907   3.726  0.2085 -0.8027 -1.4245
 2604SOL     OW 8710   2.705   1.293   3.058  0.0694 -0.2523  0.4172
 2604SOL    HW1 8711   2.613   1.294   3.019  0.6936  0.1384 -1.0916
 2604SOL    HW2 8712   2.733   1.386   3.080  1.2450  0.0344 -1.9955
 2605SOL     OW 8713   3.057   0.762   4.903 -0.0971  0.9203  0.2142
 2605SOL    HW1 8714   3.138   0.707   4.880  0.1912  0.4216  2.2493
 2605SOL    HW2 8715   2.975   0.713   4.872  0.3213  1.3384 -1.6934
 2606SOL     OW 8716   6.346   2.472   5.746 -0.2943 -0.1440  0.3161
 2606SOL    HW1 8717   6.401   2.461   5.663  1.6237  2.0343  1.1814
 2606SOL    HW2 8718   6.253   2.499   5.721  0.3418  0.8166 -1.1304
 2607SOL     OW 8719   4.970   6.112   3.087  0.0222 -0.3780  0.7523
 2607SOL    HW1 8720   5.027   6.120   3.005  1.2189 -0.7602  1.5144
 2607SOL    HW2 8721   5.002   6.034   3.141 -0.9103 -0.2780  1.4559
 2608SOL     OW 8722   3.584   5.374   3.540  1.0232  0.8512 -0.2610
 2608SOL    HW1 8723   3.609   5.343   3.632  0.9876  2.2289  0.2370
 2608SOL    HW2 8724   3.631   5.318   3.472  0.7885 -0.4037  0.5791
 2609SOL     OW 8725   1.908   6.477   0.351 -0.0449 -0.1486 -0.0818
 2609SOL    HW1 8726   1.936   6.381   0.343 -1.3335 -0.6830  1.1197
 2609SOL    HW2 8727   1.976   6.536   0.309 -0.1097 -1.6869 -2.5554
 2610SOL     OW 8728   0.287   1.375   1.858 -0.3357 -0.0214 -0.0920
 2610SOL    HW1 8729   0.198   1.391   1.814 -0.4115  1.2962  0.4974
 2610SOL    HW2 8730   0.272   1.337   1.949 -0.3462  0.8225  0.2721
 2611SOL     OW 8731   6.103   2.640   6.269  0.3077  0.3687  0.4074
 2611SOL    HW1 8732   6.103   2.728   6.317  0.1756  1.2419 -1.1496
 2611SOL    HW2 8733   6.158   2.647   6.186 -2.1485 -0.0669 -1.3777
 2612SOL     OW 8734   1.486   1.422   4.984 -0.0655  0.1210  0.5282
 2612SOL    HW1 8735   1.408   1.480   4.960 -0.4827  0.2149  1.9991
 2612SOL    HW2 8736   1.555   1.428   4.912 -1.8851 -0.8811 -1.3976
 2613SOL     OW 8737   1.196   3.917   5.457  0.1851 -0.5549 -0.2634
 2613SOL    HW1 8738   1.278   3.885   5.505  0.9741 -0.0903 -1.2673
 2613SOL    HW2 8739   1.173   3.853   5.384  1.5004  0.8286 -1.9828
 2614SOL     OW 8740   4.091   2.327   5.481 -0.0244  0.2756  0.3302
 2614SOL    HW1 8741   4.134   2.315   5.392 -0.1418 -0.9915  0.4282
 2614SOL    HW2 8742   4.038   2.412   5.481  2.0498  1.6286  0.0601
 2615SOL     OW 8743   0.843   1.388   2.311 -0.6044 -0.0119  0.1624
 2615SOL    HW1 8744   0.864   1.422   2.219  0.1333  0.0178  0.3358
 2615SOL    HW2 8745   0.926   1.391   2.367 -0.8941 -0.6748  0.6298
 2616SOL     OW 8746   2.596   1.009   4.714 -0.6236 -0.0858 -0.2766
 2616SOL    HW1 8747   2.638   1.079   4.772 -0.0804 -0.2236 -0.4973
 2616SOL    HW2 8748   2.555   1.053   4.634  1.6739 -0.1904 -1.5793
 2617SOL     OW 8749   3.635   1.757   6.349 -0.2198  0.5980  1.0214
 2617SOL    HW1 8750   3.540   1.738   6.373 -0.0566 -0.0847  1.1471
 2617SOL    HW2 8751   3.640   1.784   6.252 -0.3520 -1.0314  0.5333
 2618SOL     OW 8752   0.159   6.525   3.995 -0.2646 -0.1162  0.4509
 2618SOL    HW1 8753   0.200   6.445   3.951  0.3371 -0.3119  1.3397
 2618SOL    HW2 8754   0.068   6.541   3.957 -0.0800 -0.7488 -0.2896
 2619SOL     OW 8755   3.990   4.838   3.967 -0.7135  0.0773  0.2526
 2619SOL    HW1 8756   3.896   4.867   3.982 -1.4583 -1.9849 -0.1469
 2619SOL    HW2 8757   4.031   4.812   4.055 -0.7943  0.1656  0.3169
 2620SOL     OW 8758   5.210   3.995   4.462 -0.1394 -0.0620  0.0856
 2620SOL    HW1 8759   5.116   3.960   4.462 -0.5106  0.8693 -0.7541
 2620SOL    HW2 8760   5.243   4.002   4.556 -1.0971  0.0730  0.4244
 2621SOL     OW 8761   5.780   4.624   0.223 -0.0584 -0.2845 -0.4238
 2621SOL    HW1 8762   5.707   4.575   0.175  0.6759 -1.0179 -0.8223
 2621SOL    HW2 8763   5.813   4.698   0.165  0.0987 -0.4995 -0.6142
 2622SOL     OW 8764   4.333   6.386   0.438 -0.7625 -0.1214 -0.7368
 2622SOL    HW1 8765   4.240   6.392   0.402 -0.5228  0.1453 -1.3220
 2622SOL    HW2 8766   4.363   6.475   0.471 -0.9202 -0.3284 -0.0067
 2623SOL     OW 8767   2.998   0.311   0.189 -0.2169  0.5491  0.1679
 2623SOL    HW1 8768   3.085   0.262   0.193 -0.0245  0.9732  1.5673
 2623SOL    HW2 8769   2.923   0.246   0.200 -0.0333  0.3459  0.2362
 2624SOL     OW 8770   5.400   5.434   5.378  0.4220  0.1880  0.4119
 2624SOL    HW1 8771   5.383   5.506   5.311  0.5846 -0.1793 -0.0277
 2624SOL    HW2 8772   5.426   5.475   5.466  0.9569  0.6511  0.0408
 2625SOL     OW 8773   0.357   6.090   3.280 -0.3668 -0.6377  0.1939
 2625SOL    HW1 8774   0.380   6.056   3.371 -1.6589 -0.5689  0.5770
 2625SOL    HW2 8775   0.293   6.026   3.236  1.1324 -1.2702 -1.1581
 2626SOL     OW 8776   1.524   3.897   2.378 -0.9060  0.2585 -0.3192
 2626SOL    HW1 8777   1.468   3.823   2.414  0.8941 -1.5641 -1.0361
 2626SOL    HW2 8778   1.617   3.864   2.363  0.0355  2.7591 -0.4895
 2627SOL     OW 8779   1.369   5.810   3.876  0.2233  0.0476 -0.5738
 2627SOL    HW1 8780   1.438   5.863   3.829 -0.6565  1.5161 -0.2727
 2627SOL    HW2 8781   1.402   5.784   3.967  1.1111 -0.9837 -1.1707
 2628SOL     OW 8782   3.623   3.040   6.963 -0.6907  0.0847 -0.8562
 2628SOL    HW1 8783   3.669   3.121   6.928  2.6696 -0.3925  1.8955
 2628SOL    HW2 8784   3.677   3.000   7.037 -5.1935 -1.1342  2.2346
 2629SOL     OW 8785   2.622   4.699   4.578 -0.4853 -0.3704  0.0016
 2629SOL    HW1 8786   2.567   4.628   4.534 -2.1442  0.6405  0.3551
 2629SOL    HW2 8787   2.715   4.666   4.589 -1.0548 -2.2565 -0.3951
 2630SOL     OW 8788   1.526   6.419   6.235  0.0002  0.0109 -0.1754
 2630SOL    HW1 8789   1.481   6.335   6.267 -0.1508 -0.9002 -2.5735
 2630SOL    HW2 8790   1.618   6.423   6.272 -0.9842  0.4186  2.4588
 2631SOL     OW 8791   5.322   0.638   5.302  0.4597  0.2955  0.2086
 2631SOL    HW1 8792   5.396   0.572   5.309  0.0028 -0.2748 -0.2363
 2631SOL    HW2 8793   5.254   0.619   5.373  0.0499 -0.0711 -0.2807
 2632SOL     OW 8794   0.905   5.595   0.054  0.0495  0.7605  0.0935
 2632SOL    HW1 8795   0.830   5.532   0.068  0.2010  0.5923  0.1529
 2632SOL    HW2 8796   0.869   5.686   0.031 -0.1660  0.6199 -0.1344
 2633SOL     OW 8797   1.535   6.252   1.116  0.2136 -0.2108 -0.3676
 2633SOL    HW1 8798   1.544   6.225   1.020  0.3122  1.9712 -1.0324
 2633SOL    HW2 8799   1.615   6.306   1.143 -0.7371  0.9431  0.2832
 2634SOL     OW 8800   0.054   0.105   0.957  0.5912  0.2204 -0.2301
 2634SOL    HW1 8801   0.074   0.042   1.032 -0.4494  1.7689  1.4198
 2634SOL    HW2 8802   0.015   0.053   0.880  3.2904 -1.6506 -0.4693
 2635SOL     OW 8803   4.371   1.277   6.871  0.0916  0.2790 -0.6603
 2635SOL    HW1 8804   4.307   1.202   6.856  0.2706 -0.1155  0.4628
 2635SOL    HW2 8805   4.465   1.241   6.876  0.2093  0.6115 -0.4221
 2636SOL     OW 8806   5.085   0.272   0.950 -0.5400  0.2683  0.2251
 2636SOL    HW1 8807   5.143   0.276   0.868  1.4406  0.5102  1.5844
 2636SOL    HW2 8808   5.049   0.363   0.969 -2.1204 -0.0258 -1.0722
 2637SOL     OW 8809   6.651   3.176   1.760  0.2239  0.1095  0.2503
 2637SOL    HW1 8810   6.693   3.264   1.780  0.0946  0.2485 -0.0689
 2637SOL    HW2 8811   6.566   3.191   1.709  0.3640 -0.2100 -0.0831
 2638SOL     OW 8812   6.035   0.768   1.092  0.3977  0.6451  0.2007
 2638SOL    HW1 8813   5.944   0.730   1.113  0.0200  0.1198 -2.1403
 2638SOL    HW2 8814   6.094   0.696   1.056  1.0018  1.4381 -0.4508
 2639SOL     OW 8815   2.425   4.301   1.334 -0.0930  0.3651  0.0995
 2639SOL    HW1 8816   2.433   4.271   1.239  0.1633  1.2704 -0.1730
 2639SOL    HW2 8817   2.443   4.223   1.395  0.1586 -0.1240 -0.5854
 2640SOL     OW 8818   0.216   6.900   5.584  0.0443 -0.3801 -0.5114
 2640SOL    HW1 8819   0.134   6.955   5.569  0.8375  0.9099 -0.2678
 2640SOL    HW2 8820   0.266   6.936   5.663  1.5942 -0.2038 -1.5325
 2641SOL     OW 8821   4.865   3.153   6.283  0.1990 -0.3461 -0.2306
 2641SOL    HW1 8822   4.812   3.144   6.367 -1.4844  1.9450 -0.9472
 2641SOL    HW2 8823   4.806   3.187   6.210  2.2938  0.6210 -1.5467
 2642SOL     OW 8824   0.405   1.636   2.842  1.1106 -0.0827  0.5413
 2642SOL    HW1 8825   0.390   1.587   2.756  0.5491  1.2913 -0.1688
 2642SOL    HW2 8826   0.333   1.613   2.908  1.9375 -1.6881  0.9286
 2643SOL     OW 8827   4.484   6.725   4.652 -0.0210 -0.0422 -0.2301
 2643SOL    HW1 8828   4.523   6.789   4.586  0.2913 -1.0151 -1.0012
 2643SOL    HW2 8829   4.431   6.776   4.720  0.0191  1.0062 -0.9669
 2644SOL     OW 8830   4.761   4.195   6.768  0.0714 -0.0387  0.2810
 2644SOL    HW1 8831   4.796   4.110   6.809 -0.0416 -0.4760 -0.5132
 2644SOL    HW2 8832   4.838   4.252   6.739  0.1474  0.1057  0.7584
 2645SOL     OW 8833   0.027   0.716   5.624 -0.1444 -0.2294  0.3069
 2645SOL    HW1 8834  -0.007   0.672   5.541 -0.0883 -2.5319  1.4404
 2645SOL    HW2 8835   0.030   0.649   5.698  0.7243  1.5340  1.9313
 2646SOL     OW 8836   6.488   6.107   2.689 -0.3250  0.7465  0.5371
 2646SOL    HW1 8837   6.506   6.039   2.760  1.5731  0.1059 -0.4810
 2646SOL    HW2 8838   6.559   6.177   2.692 -0.9035  1.3692  0.0064
 2647SOL     OW 8839   5.637   0.757   0.927  0.2988  0.5246  0.9127
 2647SOL    HW1 8840   5.541   0.743   0.953 -0.3934 -1.7827 -2.2480
 2647SOL    HW2 8841   5.696   0.701   0.985 -0.6905 -1.0340  0.4681
 2648SOL     OW 8842   0.966   5.236   0.797  0.1364 -0.3885 -0.0110
 2648SOL    HW1 8843   0.995   5.293   0.874 -0.7765  1.2096 -0.8153
 2648SOL    HW2 8844   1.021   5.256   0.717  0.1665 -1.0577 -0.1668
 2649SOL     OW 8845   3.237   3.133   1.787 -0.0694 -0.1352  0.0894
 2649SOL    HW1 8846   3.185   3.215   1.764  0.2061 -0.1594 -0.6539
 2649SOL    HW2 8847   3.179   3.052   1.777 -0.7657  0.0404  2.1823
 2650SOL     OW 8848   4.185   6.873   2.223  0.5185  0.3440  0.0146
 2650SOL    HW1 8849   4.252   6.833   2.160 -2.3521 -2.5426 -1.5140
 2650SOL    HW2 8850   4.192   6.826   2.312 -0.0688 -0.6507 -0.4503
 2651SOL     OW 8851   1.710   1.969   0.109  0.1245  0.2961  0.1431
 2651SOL    HW1 8852   1.664   2.057   0.112  0.8762  0.6934  0.4863
 2651SOL    HW2 8853   1.794   1.977   0.054 -0.3508 -0.4817 -0.7178
 2652SOL     OW 8854   0.251   6.751   5.085 -0.0636 -0.3422  0.1126
 2652SOL    HW1 8855   0.212   6.776   5.174 -0.9570 -2.3932  0.3601
 2652SOL    HW2 8856   0.345   6.719   5.098 -0.3638 -1.1236  0.4148
 2653SOL     OW 8857   2.971   7.013   2.673 -0.5947 -0.0044 -0.4614
 2653SOL    HW1 8858   2.898   6.962   2.628  0.5354 -1.4086 -0.7630
 2653SOL    HW2 8859   3.059   6.971   2.653  0.0467 -0.3210  2.4850
 2654SOL     OW 8860   0.822   2.978   0.103 -0.4232  0.4678  0.2791
 2654SOL    HW1 8861   0.740   2.926   0.081 -0.0020 -0.3625  0.6582
 2654SOL    HW2 8862   0.894   2.958   0.036  0.5009 -1.2342  1.7097
 2655SOL     OW 8863   5.287   6.697   2.489  0.6979  0.2794  0.8469
 2655SOL    HW1 8864   5.377   6.672   2.525  1.6290  1.8250 -0.2533
 2655SOL    HW2 8865   5.283   6.796   2.476 -1.4284  0.3339  1.4860
 2656SOL     OW 8866   3.691   0.182   2.690  0.3912 -0.0610  0.3423
 2656SOL    HW1 8867   3.621   0.112   2.676  0.0731  0.3813 -0.3302
 2656SOL    HW2 8868   3.664   0.242   2.765  0.0342  0.1325  0.0578
 2657SOL     OW 8869   3.758   3.520   4.584 -0.2573  0.1622 -0.4095
 2657SOL    HW1 8870   3.663   3.491   4.576 -0.3409  0.6124 -1.0304
 2657SOL    HW2 8871   3.783   3.525   4.681 -0.7469 -0.3330 -0.2561
 2658SOL     OW 8872   5.926   4.774   6.734 -0.5286  0.0755  0.3360
 2658SOL    HW1 8873   5.947   4.693   6.680  0.6401  0.8933 -0.4795
 2658SOL    HW2 8874   5.954   4.760   6.829 -0.7366 -0.6260  0.2947
 2659SOL     OW 8875   1.056   3.546   1.094  0.5433  0.1972 -0.2336
 2659SOL    HW1 8876   1.137   3.511   1.140 -0.5620 -0.0729  1.5811
 2659SOL    HW2 8877   1.054   3.646   1.103  0.0660  0.1020  0.7756
 2660SOL     OW 8878   5.087   0.273   3.781  0.1111 -0.2732  0.6859
 2660SOL    HW1 8879   4.992   0.288   3.808  0.7266  2.2885  1.7495
 2660SOL    HW2 8880   5.124   0.194   3.830 -0.8493  0.0316  1.9323
 2661SOL     OW 8881   4.873   3.461   4.070 -0.3509  1.0965 -0.2792
 2661SOL    HW1 8882   4.859   3.374   4.024  2.7670  0.7796 -0.8160
 2661SOL    HW2 8883   4.905   3.445   4.164 -1.6321  1.7240  0.2944
 2662SOL     OW 8884   5.800   4.793   2.906  0.5424  0.5609  0.3427
 2662SOL    HW1 8885   5.818   4.734   2.827  2.0594  1.5127 -0.0501
 2662SOL    HW2 8886   5.718   4.760   2.953  0.6199 -1.0891 -0.5878
 2663SOL     OW 8887   1.992   2.549   2.922 -1.1790 -0.0253 -0.6614
 2663SOL    HW1 8888   2.084   2.546   2.882 -0.9040  0.7519 -0.1078
 2663SOL    HW2 8889   1.939   2.621   2.878 -1.2505  0.0769 -0.4081
 2664SOL     OW 8890   6.040   1.641   2.155 -0.1033 -0.1553 -0.2100
 2664SOL    HW1 8891   6.136   1.625   2.130  0.4341  0.4766  1.2537
 2664SOL    HW2 8892   6.014   1.578   2.228  0.1629  1.5316  1.4328
 2665SOL     OW 8893   6.407   4.779   3.455 -0.4042  0.5777 -0.3175
 2665SOL    HW1 8894   6.480   4.722   3.492  0.8168  0.7454 -2.3490
 2665SOL    HW2 8895   6.323   4.765   3.509 -0.3793 -3.5982 -1.0806
 2666SOL     OW 8896   5.242   3.679   3.779  0.3581 -0.3512  0.1300
 2666SOL    HW1 8897   5.271   3.726   3.695 -1.2671 -2.7110 -1.8993
 2666SOL    HW2 8898   5.143   3.687   3.789  0.5368 -0.0272  1.9461
 2667SOL     OW 8899   3.066   6.951   0.417  0.3149  0.1568  0.2018
 2667SOL    HW1 8900   2.994   7.010   0.452  0.8869  1.4377 -0.6842
 2667SOL    HW2 8901   3.145   6.954   0.479 -0.4862 -1.6019  1.4151
 2668SOL     OW 8902   4.457   1.325   2.987 -0.0848 -0.1667 -0.0936
 2668SOL    HW1 8903   4.424   1.287   2.901  1.1918 -0.4057 -0.5129
 2668SOL    HW2 8904   4.400   1.402   3.015 -0.3682  0.0592 -1.2766
 2669SOL     OW 8905   3.109   4.176   5.508 -0.2326 -0.1229 -0.1506
 2669SOL    HW1 8906   3.031   4.114   5.518 -0.7990  0.7780  1.7189
 2669SOL    HW2 8907   3.139   4.204   5.599  0.3853  1.8472 -0.9209
 2670SOL     OW 8908   1.671   0.521   6.845  0.0527  0.1544 -0.6131
 2670SOL    HW1 8909   1.667   0.463   6.764  0.7264 -0.2288 -0.3875
 2670SOL    HW2 8910   1.692   0.464   6.925 -0.0099  0.6128 -0.2646
 2671SOL     OW 8911   6.358   0.582   3.991 -0.0246 -0.2334 -0.1275
 2671SOL    HW1 8912   6.384   0.527   3.911  0.7201 -0.0590 -0.0177
 2671SOL    HW2 8913   6.352   0.678   3.965 -0.4466 -0.2598 -0.1232
 2672SOL     OW 8914   5.722   2.552   1.928 -0.5492 -0.7848  0.0069
 2672SOL    HW1 8915   5.680   2.624   1.874 -0.9272 -0.9497  0.0710
 2672SOL    HW2 8916   5.798   2.511   1.878  0.2826  0.2870  0.3524
 2673SOL     OW 8917   3.845   6.624   2.761  0.0350 -0.4451 -0.2941
 2673SOL    HW1 8918   3.859   6.615   2.859 -0.1933  0.8808 -0.1218
 2673SOL    HW2 8919   3.825   6.534   2.722 -0.5427 -0.8914  0.9736
 2674SOL     OW 8920   2.677   3.792   0.670  0.6075 -0.3017 -0.0816
 2674SOL    HW1 8921   2.583   3.821   0.654  0.8700  0.6223 -0.0024
 2674SOL    HW2 8922   2.701   3.806   0.766  2.5158  4.8051 -0.9823
 2675SOL     OW 8923   1.100   0.742   2.509 -0.3693 -0.0444 -0.3432
 2675SOL    HW1 8924   1.162   0.779   2.439 -1.6759  0.9772 -0.9927
 2675SOL    HW2 8925   1.079   0.813   2.576 -0.7206 -0.4257 -0.0458
 2676SOL     OW 8926   0.474   1.190   0.379  0.0354  0.0387  0.0936
 2676SOL    HW1 8927   0.486   1.194   0.280  2.1051 -2.4515  0.1309
 2676SOL    HW2 8928   0.447   1.097   0.406  1.8461 -0.0229  1.9814
 2677SOL     OW 8929   6.656   1.203   2.516 -0.3077  0.0266  0.2962
 2677SOL    HW1 8930   6.730   1.137   2.504 -0.7505 -0.4182 -0.0914
 2677SOL    HW2 8931   6.594   1.198   2.437 -1.1125 -0.0882  0.9169
 2678SOL     OW 8932   1.275   2.731   6.441 -0.1362 -0.3882 -0.8207
 2678SOL    HW1 8933   1.265   2.636   6.412  0.6787 -0.3071 -1.3944
 2678SOL    HW2 8934   1.371   2.750   6.463 -0.1175  0.5402 -1.6200
 2679SOL     OW 8935   4.549   6.362   1.448 -0.4565  0.4293  0.0020
 2679SOL    HW1 8936   4.518   6.275   1.410 -0.6749 -0.9831  3.0641
 2679SOL    HW2 8937   4.647   6.373   1.433 -0.5479 -0.0054 -0.9685
 2680SOL     OW 8938   2.095   5.914   6.878  0.4648 -0.6334 -0.6957
 2680SOL    HW1 8939   2.166   5.953   6.937  1.2278 -1.0611 -1.3220
 2680SOL    HW2 8940   2.005   5.938   6.915  0.9239 -0.6701  0.4992
 2681SOL     OW 8941   0.381   3.800   5.917  0.2047  0.4853 -0.8476
 2681SOL    HW1 8942   0.329   3.883   5.899 -2.5643 -1.0909 -0.7915
 2681SOL    HW2 8943   0.385   3.785   6.016  0.5105  0.4411 -0.8666
 2682SOL     OW 8944   1.192   6.697   5.118  0.3346  0.5108 -0.2005
 2682SOL    HW1 8945   1.095   6.717   5.101  0.4253  2.1872  0.9794
 2682SOL    HW2 8946   1.218   6.732   5.208  2.0406  0.0321 -0.4700
 2683SOL     OW 8947   6.814   5.351   6.045 -0.2269 -0.0857  0.2754
 2683SOL    HW1 8948   6.870   5.317   5.969  1.0774 -0.6491  1.4418
 2683SOL    HW2 8949   6.732   5.296   6.053  1.8094 -3.1311  2.0842
 2684SOL     OW 8950   1.482   2.812   4.896 -0.7128  0.0228 -0.4938
 2684SOL    HW1 8951   1.416   2.875   4.937 -1.2295 -1.3859  0.9388
 2684SOL    HW2 8952   1.475   2.818   4.796 -1.9738  0.9605 -0.3761
 2685SOL     OW 8953   1.402   4.790   2.507  0.3679  0.3031  0.4009
 2685SOL    HW1 8954   1.477   4.856   2.519  2.2483 -1.8448  1.1746
 2685SOL    HW2 8955   1.372   4.758   2.596  1.1731 -1.6340  0.0158
 2686SOL     OW 8956   0.364   6.806   0.956 -0.7775  1.1505  0.3244
 2686SOL    HW1 8957   0.422   6.736   0.999 -0.3576  1.5226  0.3700
 2686SOL    HW2 8958   0.370   6.891   1.008 -2.1368  0.9127  0.8876
 2687SOL     OW 8959   2.513   1.989   3.835 -0.7722 -0.3496 -0.0574
 2687SOL    HW1 8960   2.553   2.028   3.751 -1.0285  0.0870  0.0236
 2687SOL    HW2 8961   2.558   2.029   3.915 -0.4179 -0.8858  0.0105
 2688SOL     OW 8962   6.191   3.177   4.323  0.7917  0.7984  0.3573
 2688SOL    HW1 8963   6.185   3.259   4.380 -0.0068  0.2657  1.0556
 2688SOL    HW2 8964   6.157   3.098   4.374 -0.1389  0.3447 -0.9204
 2689SOL     OW 8965   6.608   2.244   3.628 -0.1540  0.1065 -0.8200
 2689SOL    HW1 8966   6.676   2.314   3.652 -1.3846  0.7010  1.2980
 2689SOL    HW2 8967   6.541   2.237   3.703  0.0568 -3.5542 -0.8291
 2690SOL     OW 8968   5.936   3.890   3.785  0.0318 -0.2630 -0.6301
 2690SOL    HW1 8969   5.931   3.791   3.799  1.0607 -0.0200  2.0589
 2690SOL    HW2 8970   5.897   3.937   3.864 -0.1804  1.5076 -1.7303
 2691SOL     OW 8971   1.763   4.122   1.685  0.2758  0.2874  0.0544
 2691SOL    HW1 8972   1.774   4.029   1.719  1.4529 -0.1506 -1.4234
 2691SOL    HW2 8973   1.794   4.187   1.755  1.3466 -0.5182  0.3540
 2692SOL     OW 8974   6.720   5.424   1.557  0.0973  0.5575 -0.1620
 2692SOL    HW1 8975   6.764   5.421   1.467  0.6800  1.2446  0.0975
 2692SOL    HW2 8976   6.789   5.412   1.628 -0.1194  1.6840  0.2512
 2693SOL     OW 8977   5.677   3.185   5.794 -0.2238 -0.0195  0.0725
 2693SOL    HW1 8978   5.704   3.172   5.698 -1.8106 -0.4843 -0.3371
 2693SOL    HW2 8979   5.753   3.225   5.844 -0.2496  3.0042 -2.0326
 2694SOL     OW 8980   6.501   6.563   5.595 -0.2103  0.1705  0.2960
 2694SOL    HW1 8981   6.452   6.489   5.550 -0.2385  0.4728 -0.1838
 2694SOL    HW2 8982   6.543   6.621   5.526  2.0512 -0.8854  0.6983
 2695SOL     OW 8983   0.382   4.767   4.458 -0.6172 -0.0007  0.0190
 2695SOL    HW1 8984   0.456   4.779   4.524 -1.3164 -2.3998  1.3716
 2695SOL    HW2 8985   0.416   4.715   4.380 -0.9944 -2.0391  1.1212
 2696SOL     OW 8986   0.605   3.020   3.560 -0.0548 -0.4506  0.0183
 2696SOL    HW1 8987   0.690   2.969   3.573  0.9809  1.6606  2.2832
 2696SOL    HW2 8988   0.624   3.103   3.507 -1.2338 -1.1705 -1.5869
 2697SOL     OW 8989   2.493   0.310   4.765 -0.4696 -0.1337 -0.2121
 2697SOL    HW1 8990   2.413   0.252   4.778  0.1249 -1.2360 -1.2789
 2697SOL    HW2 8991   2.482   0.395   4.817 -0.8574 -1.6458  2.3217
 2698SOL     OW 8992   5.129   6.464   0.350  0.5901  0.2819 -0.4546
 2698SOL    HW1 8993   5.207   6.526   0.344  0.2676  0.6183 -1.2935
 2698SOL    HW2 8994   5.157   6.380   0.396  1.5365  0.2622 -1.0402
 2699SOL     OW 8995   1.157   5.766   3.726  0.5552  0.0172  0.3617
 2699SOL    HW1 8996   1.088   5.701   3.757 -0.2131  1.3696  1.6591
 2699SOL    HW2 8997   1.223   5.782   3.799  0.7525  0.6541  0.0527
 2700SOL     OW 8998   3.322   4.624   1.242  0.2231  0.0876 -0.3904
 2700SOL    HW1 8999   3.352   4.637   1.148 -1.1099  1.5267 -0.6507
 2700SOL    HW2 9000   3.397   4.584   1.295  1.4822  0.5940 -1.7112
 2701SOL     OW 9001   0.703   3.103   1.231 -0.1180 -0.2212  0.5422
 2701SOL    HW1 9002   0.618   3.150   1.257  0.7106  0.9917  1.1593
 2701SOL    HW2 9003   0.752   3.075   1.313  0.3733 -0.3676  0.2044
 2702SOL     OW 9004   0.576   1.865   6.116  0.5814  0.3846  0.3166
 2702SOL    HW1 9005   0.559   1.865   6.017 -2.3199  0.5885  0.7347
 2702SOL    HW2 9006   0.638   1.940   6.139 -1.5837  2.7478 -0.9906
 2703SOL     OW 9007   3.493   1.738   4.773 -0.4511 -1.0570  0.6019
 2703SOL    HW1 9008   3.515   1.784   4.687 -1.2247 -1.9476 -0.0901
 2703SOL    HW2 9009   3.572   1.742   4.834 -0.2822  0.6255  0.3409
 2704SOL     OW 9010   1.676   2.751   1.501  0.0050 -0.1028 -0.2688
 2704SOL    HW1 9011   1.692   2.691   1.579 -1.0777 -0.5549 -0.3675
 2704SOL    HW2 9012   1.585   2.732   1.463  0.2927  0.4922 -1.2965
 2705SOL     OW 9013   1.376   1.660   1.652 -0.0431 -0.0832  0.1297
 2705SOL    HW1 9014   1.278   1.678   1.651  0.0504  0.4686  0.3162
 2705SOL    HW2 9015   1.419   1.708   1.576  0.3915  1.6476  1.3943
 2706SOL     OW 9016   5.490   1.763   6.983 -0.3639  1.4807  0.7122
 2706SOL    HW1 9017   5.578   1.800   6.952 -0.9948  0.9461 -2.0500
 2706SOL    HW2 9018   5.417   1.796   6.922 -1.7198  0.0372  1.4895
 2707SOL     OW 9019   5.550   1.244   0.460 -0.1751  0.2541  0.3334
 2707SOL    HW1 9020   5.519   1.310   0.528  1.7428  1.2662  0.2914
 2707SOL    HW2 9021   5.549   1.152   0.500 -3.3257  0.1180  0.2488
 2708SOL     OW 9022   5.991   3.342   5.371 -0.0614 -0.1466 -0.2261
 2708SOL    HW1 9023   6.055   3.269   5.398 -0.0971 -0.1755 -0.2190
 2708SOL    HW2 9024   5.953   3.384   5.453 -0.3283 -0.3738 -0.2320
 2709SOL     OW 9025   0.914   0.605   2.706  0.0187  0.8320 -0.3228
 2709SOL    HW1 9026   0.950   0.598   2.798 -1.0459  0.3826  0.0741
 2709SOL    HW2 9027   0.987   0.630   2.643  0.9472  0.2190  0.4906
 2710SOL     OW 9028   1.286   4.610   6.238 -0.0047 -0.5487 -0.1942
 2710SOL    HW1 9029   1.318   4.701   6.267  0.1016 -1.0051  1.2104
 2710SOL    HW2 9030   1.338   4.581   6.158 -0.0523  0.6259 -0.6804
 2711SOL     OW 9031   2.059   4.940   6.937 -0.2991  0.2951 -0.6874
 2711SOL    HW1 9032   1.985   4.944   7.004 -1.5207  0.9647 -2.0148
 2711SOL    HW2 9033   2.021   4.950   6.845  1.2026 -1.6704 -1.5961
 2712SOL     OW 9034   1.204   4.500   3.204  0.0483  0.1962  0.6072
 2712SOL    HW1 9035   1.259   4.470   3.126 -0.1547 -2.4651  1.3861
 2712SOL    HW2 9036   1.110   4.519   3.174  0.3347  0.6215 -0.0286
 2713SOL     OW 9037   3.514   2.170   5.821 -0.1422  0.1540 -0.2605
 2713SOL    HW1 9038   3.423   2.146   5.854 -0.9111 -0.1072 -2.4531
 2713SOL    HW2 9039   3.512   2.260   5.779  0.6111  0.1172 -0.3854
 2714SOL     OW 9040   1.540   0.844   4.869 -0.9534 -0.4151  0.6413
 2714SOL    HW1 9041   1.468   0.792   4.824 -1.8543  1.1535  0.2261
 2714SOL    HW2 9042   1.629   0.804   4.846 -1.5227 -0.8567 -0.9111
 2715SOL     OW 9043   1.825   0.664   5.037  0.1409 -0.3419 -0.4395
 2715SOL    HW1 9044   1.864   0.744   5.081  0.5164 -1.1331  0.7250
 2715SOL    HW2 9045   1.893   0.591   5.031 -0.5502 -1.0214 -0.2968
 2716SOL     OW 9046   6.935   4.206   5.898 -0.0483  0.2695 -0.0953
 2716SOL    HW1 9047   6.961   4.272   5.829 -0.4793  0.2045 -0.3277
 2716SOL    HW2 9048   6.973   4.116   5.875  2.0665  0.7855  1.1747
 2717SOL     OW 9049   3.147   2.037   4.577 -0.2167 -0.8577 -0.2134
 2717SOL    HW1 9050   3.132   1.938   4.586 -0.7290 -0.7873 -0.2586
 2717SOL    HW2 9051   3.159   2.077   4.668  0.0244 -0.9648 -0.1968
 2718SOL     OW 9052   2.598   5.275   6.310 -0.6537 -0.0041  0.5241
 2718SOL    HW1 9053   2.532   5.298   6.382 -2.5010  2.3065 -1.7242
 2718SOL    HW2 9054   2.566   5.197   6.258 -1.4212  0.8139 -0.2588
 2719SOL     OW 9055   5.305   0.596   3.971 -0.1144  0.4593 -0.2862
 2719SOL    HW1 9056   5.210   0.589   3.941 -0.6520  1.3417  1.1122
 2719SOL    HW2 9057   5.325   0.524   4.038  0.4414 -0.1789 -1.1141
 2720SOL     OW 9058   3.130   6.149   2.977  0.4568 -0.2836 -0.4954
 2720SOL    HW1 9059   3.031   6.151   2.963  0.0945  1.7827  1.7477
 2720SOL    HW2 9060   3.172   6.084   2.913 -2.4100 -1.8387 -0.9308
 2721SOL     OW 9061   0.934   6.711   4.871  0.1482  0.3804  0.7047
 2721SOL    HW1 9062   0.985   6.653   4.807 -2.0367 -0.5300 -0.3198
 2721SOL    HW2 9063   0.919   6.661   4.956 -0.5229 -0.0330  0.3485
 2722SOL     OW 9064   0.123   5.373   3.520  0.0455 -0.4792 -0.1347
 2722SOL    HW1 9065   0.158   5.282   3.541  0.1300 -0.3583  0.2562
 2722SOL    HW2 9066   0.044   5.365   3.460  0.2677 -0.7921 -0.3916
 2723SOL     OW 9067   0.480   0.901   1.251  0.0892  0.2576 -0.2230
 2723SOL    HW1 9068   0.573   0.882   1.220  0.9831 -0.5257  2.6375
 2723SOL    HW2 9069   0.482   0.975   1.318 -1.5254  0.9579 -0.8984
 2724SOL     OW 9070   5.615   6.389   3.850  0.0039 -0.0782 -0.0948
 2724SOL    HW1 9071   5.700   6.441   3.853  1.4584 -2.3598  1.5199
 2724SOL    HW2 9072   5.539   6.450   3.829  1.7561  2.3975  0.3365
 2725SOL     OW 9073   4.992   5.713   0.961 -0.2077 -0.0726 -0.0967
 2725SOL    HW1 9074   4.902   5.670   0.951 -1.0021  1.4904  0.1039
 2725SOL    HW2 9075   5.019   5.714   1.057  0.0442 -0.5349 -0.1561
 2726SOL     OW 9076   4.000   3.612   1.272 -0.0749 -0.1488 -0.2857
 2726SOL    HW1 9077   3.923   3.550   1.256  0.7847 -1.4681  0.5953
 2726SOL    HW2 9078   3.993   3.652   1.363  0.4739 -0.5502 -0.0643
 2727SOL     OW 9079   4.203   1.184   2.868  0.3069  0.4671 -0.1006
 2727SOL    HW1 9080   4.242   1.135   2.947  1.0075 -0.1088 -0.7879
 2727SOL    HW2 9081   4.265   1.175   2.790  0.0019  1.6977 -0.4992
 2728SOL     OW 9082   0.335   4.308   5.310  0.0673 -0.0889  0.1911
 2728SOL    HW1 9083   0.349   4.372   5.234  2.2612 -0.6133  0.0915
 2728SOL    HW2 9084   0.255   4.336   5.362  0.0147  1.7905 -0.8027
 2729SOL     OW 9085   4.896   1.153   3.895 -0.1996  0.3653 -0.9489
 2729SOL    HW1 9086   4.982   1.146   3.946 -0.1388  3.0533 -0.5339
 2729SOL    HW2 9087   4.912   1.206   3.811 -1.2788  0.1426 -1.3046
 2730SOL     OW 9088   1.898   2.655   4.581 -0.0560  0.0611  0.4732
 2730SOL    HW1 9089   1.857   2.617   4.664  0.2610  1.2838  1.2202
 2730SOL    HW2 9090   1.990   2.687   4.601 -0.7409  2.3785  0.2838
 2731SOL     OW 9091   0.972   3.059   6.007  0.7547 -0.4143 -0.2956
 2731SOL    HW1 9092   1.002   3.111   5.927  0.2706  0.6629  0.2104
 2731SOL    HW2 9093   1.045   3.059   6.076  0.4601  0.2745  0.0212
 2732SOL     OW 9094   0.521   6.317   0.673  0.3308  0.4512  0.0617
 2732SOL    HW1 9095   0.581   6.271   0.607 -0.2645  0.4869 -0.5146
 2732SOL    HW2 9096   0.501   6.409   0.640 -1.9653 -0.3468 -1.0017
 2733SOL     OW 9097   5.649   3.203   3.762 -0.3956 -0.4426  0.2967
 2733SOL    HW1 9098   5.556   3.183   3.732 -2.2910  1.0069  4.4306
 2733SOL    HW2 9099   5.664   3.301   3.763  0.4772 -0.5689  1.4403
 2734SOL     OW 9100   5.478   1.508   6.369 -0.1856  0.2825  0.2081
 2734SOL    HW1 9101   5.441   1.422   6.333  1.5249 -0.5714  0.3644
 2734SOL    HW2 9102   5.531   1.489   6.452 -0.6314  1.6460  0.8218
 2735SOL     OW 9103   6.727   1.376   1.242 -0.2213 -0.0429 -0.0055
 2735SOL    HW1 9104   6.641   1.355   1.194  0.1826 -0.2131 -0.6697
 2735SOL    HW2 9105   6.719   1.350   1.338 -1.6893  1.9841  0.4855
 2736SOL     OW 9106   1.962   6.036   3.738  0.0466 -0.1602  0.0822
 2736SOL    HW1 9107   2.004   6.022   3.648  1.2938  0.2519  0.5863
 2736SOL    HW2 9108   1.977   6.130   3.769  0.5348 -0.5848  1.1801
 2737SOL     OW 9109   0.622   5.659   3.476 -0.9155  0.4283  0.2914
 2737SOL    HW1 9110   0.679   5.577   3.478 -0.2553  0.8825  1.5168
 2737SOL    HW2 9111   0.610   5.689   3.382 -0.6420 -0.7064 -0.1260
 2738SOL     OW 9112   1.515   3.752   0.853  0.6499  0.0090  0.1311
 2738SOL    HW1 9113   1.451   3.791   0.919  0.5537 -1.4003  0.9022
 2738SOL    HW2 9114   1.468   3.689   0.792  0.8468  0.8811 -0.9547
 2739SOL     OW 9115   4.449   1.241   4.121  1.0077 -0.3469 -0.1201
 2739SOL    HW1 9116   4.517   1.234   4.048  1.1051 -0.0059 -0.0621
 2739SOL    HW2 9117   4.398   1.155   4.127  0.6554 -0.1995 -0.9198
 2740SOL     OW 9118   4.957   5.381   6.377 -0.0238 -1.0325  0.2676
 2740SOL    HW1 9119   5.039   5.379   6.320  0.1909 -0.2241  0.5389
 2740SOL    HW2 9120   4.969   5.322   6.457  0.7185 -0.0997  0.8647
 2741SOL     OW 9121   3.539   3.894   3.725  0.5218 -0.5876 -0.6649
 2741SOL    HW1 9122   3.451   3.932   3.751  0.2227 -0.8442 -1.2958
 2741SOL    HW2 9123   3.613   3.951   3.763  0.0917  0.7921 -1.8524
 2742SOL     OW 9124   1.153   5.146   2.064  0.0405 -0.5583 -1.0564
 2742SOL    HW1 9125   1.189   5.086   2.136 -1.6687  0.7861  1.0428
 2742SOL    HW2 9126   1.061   5.117   2.039  0.0814 -0.1591 -1.6899
 2743SOL     OW 9127   3.732   1.607   4.120  0.5624 -0.0755  0.2940
 2743SOL    HW1 9128   3.783   1.694   4.123  0.7584 -0.1950  0.4405
 2743SOL    HW2 9129   3.675   1.599   4.202 -0.5648  0.5817 -0.4014
 2744SOL     OW 9130   1.769   2.006   2.133  0.0070 -0.0267  0.1123
 2744SOL    HW1 9131   1.773   1.917   2.089  1.7804 -0.3547  0.8599
 2744SOL    HW2 9132   1.738   2.075   2.067  0.0901 -0.9357 -0.8889
 2745SOL     OW 9133   1.079   4.319   0.011  1.3442 -0.4521 -0.0543
 2745SOL    HW1 9134   1.089   4.220   0.003 -1.6021 -1.0539  2.0930
 2745SOL    HW2 9135   1.013   4.352  -0.055  1.5164 -0.0850 -0.0470
 2746SOL     OW 9136   5.503   4.627   5.737 -0.0650  0.0969  0.7830
 2746SOL    HW1 9137   5.586   4.654   5.689 -1.0985 -1.7514 -2.3419
 2746SOL    HW2 9138   5.523   4.551   5.799  0.3020 -2.2263 -1.9613
 2747SOL     OW 9139   6.892   1.883   4.858 -0.2840 -0.1230  0.3653
 2747SOL    HW1 9140   6.891   1.961   4.795 -1.3907  0.3770  0.9741
 2747SOL    HW2 9141   6.968   1.823   4.835 -0.3635  0.3108 -1.1193
 2748SOL     OW 9142   0.513   4.562   2.685  0.0658 -0.6194  0.3513
 2748SOL    HW1 9143   0.597   4.509   2.676  0.4852  0.1256 -0.2364
 2748SOL    HW2 9144   0.532   4.646   2.736  0.0682  0.3511 -1.1776
 2749SOL     OW 9145   6.110   4.353   0.128 -0.4939 -0.5099 -0.1315
 2749SOL    HW1 9146   6.208   4.347   0.150 -0.0814  0.5101 -1.4856
 2749SOL    HW2 9147   6.097   4.426   0.060 -2.3257 -0.0299  0.6969
 2750SOL     OW 9148   5.821   1.613   6.221  0.0328 -0.2487 -0.0025
 2750SOL    HW1 9149   5.770   1.652   6.298  2.5591  2.9882  0.2912
 2750SOL    HW2 9150   5.782   1.525   6.195 -2.0672 -0.6214  3.7545
 2751SOL     OW 9151   2.971   6.966   4.083 -0.0413 -0.9884 -0.9024
 2751SOL    HW1 9152   3.047   7.023   4.051 -1.9748  3.3114  1.2749
 2751SOL    HW2 9153   2.982   6.948   4.181 -2.3407  1.0481 -0.1608
 2752SOL     OW 9154   6.338   0.512   4.424  0.3709  0.3573 -0.3716
 2752SOL    HW1 9155   6.418   0.564   4.396  2.4724 -0.3702  3.5234
 2752SOL    HW2 9156   6.266   0.574   4.453  1.4067  1.1603  0.5950
 2753SOL     OW 9157   5.767   6.913   6.168  0.2632  0.8435  0.2639
 2753SOL    HW1 9158   5.839   6.865   6.119  0.2803 -0.8459  1.8265
 2753SOL    HW2 9159   5.687   6.922   6.108  0.8301  0.3159 -0.6009
 2754SOL     OW 9160   1.978   3.733   5.905  1.0664  0.0526 -0.4230
 2754SOL    HW1 9161   1.933   3.768   5.988  2.7962  1.7258 -0.1346
 2754SOL    HW2 9162   2.057   3.678   5.931  1.7552  0.7788 -0.9305
 2755SOL     OW 9163   6.542   4.310   0.684 -0.0330  0.2035 -0.5074
 2755SOL    HW1 9164   6.530   4.325   0.782 -1.2418  0.3773 -0.6573
 2755SOL    HW2 9165   6.604   4.379   0.647 -0.0349  0.5021  0.0331
 2756SOL     OW 9166   2.128   3.375   5.457  0.1475  0.1663 -0.3161
 2756SOL    HW1 9167   2.071   3.293   5.461 -1.1653  1.0951  0.8580
 2756SOL    HW2 9168   2.208   3.357   5.400 -0.8289 -1.4760 -1.2482
 2757SOL     OW 9169   5.500   1.521   6.850 -0.1384  0.3664  0.4923
 2757SOL    HW1 9170   5.493   1.558   6.758  1.6972 -0.6884 -0.1302
 2757SOL    HW2 9171   5.520   1.595   6.915  2.6513  0.7058 -0.5938
 2758SOL     OW 9172   6.168   0.000   4.298  0.0794 -0.4633  0.1871
 2758SOL    HW1 9173   6.161  -0.068   4.370  1.5811 -0.6422  0.1934
 2758SOL    HW2 9174   6.213   0.082   4.334 -0.2324 -0.0971 -0.2432
 2759SOL     OW 9175   6.036   1.421   1.943 -0.3759  0.3366 -0.3331
 2759SOL    HW1 9176   5.983   1.482   2.002 -1.8021 -1.8865  0.8153
 2759SOL    HW2 9177   6.127   1.408   1.981 -1.4578 -1.5312  1.8480
 2760SOL     OW 9178   2.522   2.822   1.141 -0.2304 -0.0102 -0.6488
 2760SOL    HW1 9179   2.617   2.850   1.128  0.0543 -0.5557  0.1630
 2760SOL    HW2 9180   2.495   2.837   1.236 -1.2409  0.9375 -1.0556
 2761SOL     OW 9181   1.672   2.445   1.496  0.1555 -0.2426  0.4287
 2761SOL    HW1 9182   1.636   2.428   1.587 -1.2654  0.4459  0.0326
 2761SOL    HW2 9183   1.596   2.467   1.434  1.2075  0.5376 -0.6248
 2762SOL     OW 9184   6.322   2.152   2.005  0.1843  0.1679 -0.0276
 2762SOL    HW1 9185   6.414   2.115   2.009  0.4741  0.9812  1.4304
 2762SOL    HW2 9186   6.265   2.111   2.076 -0.0875  0.9005  0.1964
 2763SOL     OW 9187   0.633   4.681   6.361  0.3553 -0.0673 -0.3584
 2763SOL    HW1 9188   0.542   4.643   6.349 -0.7529  1.3655  2.6592
 2763SOL    HW2 9189   0.685   4.626   6.427  0.5640  0.7852  0.2069
 2764SOL     OW 9190   1.638   4.940   0.861 -0.5433  0.0131 -0.1650
 2764SOL    HW1 9191   1.717   4.987   0.822  0.2625  1.3066  2.7687
 2764SOL    HW2 9192   1.563   5.005   0.873 -0.7763 -0.3475  0.3821
 2765SOL     OW 9193   5.802   2.299   6.422  0.1402  0.0666 -0.4885
 2765SOL    HW1 9194   5.722   2.352   6.396  0.5418  0.2822 -1.3139
 2765SOL    HW2 9195   5.883   2.358   6.421  0.4967 -0.4177 -0.8287
 2766SOL     OW 9196   5.565   5.119   3.894 -0.2469  0.7501 -0.8295
 2766SOL    HW1 9197   5.471   5.144   3.917 -0.4991  0.1619 -1.1859
 2766SOL    HW2 9198   5.592   5.165   3.809 -1.4486 -1.6782 -2.6712
 2767SOL     OW 9199   0.797   3.639   3.663  0.0063  0.1565  0.4910
 2767SOL    HW1 9200   0.741   3.622   3.743 -0.0019 -0.5820  0.3309
 2767SOL    HW2 9201   0.744   3.620   3.580 -0.2794  1.7503  0.2617
 2768SOL     OW 9202   3.034   1.291   3.777  0.3335  0.3868  0.2563
 2768SOL    HW1 9203   3.103   1.295   3.850 -0.4052  1.0083  0.9415
 2768SOL    HW2 9204   3.058   1.356   3.705 -1.5113  3.6492  2.3248
 2769SOL     OW 9205   2.865   6.625   3.401 -0.2908 -0.3791  0.1410
 2769SOL    HW1 9206   2.779   6.662   3.436  1.2565  1.9156  1.8214
 2769SOL    HW2 9207   2.880   6.660   3.308 -0.5563  0.3327  0.3518
 2770SOL     OW 9208   2.994   5.668   4.707 -0.2827 -0.4768 -0.2453
 2770SOL    HW1 9209   2.993   5.661   4.607 -0.0470 -0.7584 -0.2302
 2770SOL    HW2 9210   3.088   5.656   4.740 -0.2815  0.1565 -0.0245
 2771SOL     OW 9211   2.100   1.679   5.760 -0.2322 -0.1557  0.1708
 2771SOL    HW1 9212   2.164   1.609   5.726  0.2888  0.5806 -0.3969
 2771SOL    HW2 9213   2.152   1.757   5.796 -0.7261 -1.3490  3.8042
 2772SOL     OW 9214   0.289   1.299   2.115 -0.1283 -0.4301 -0.1915
 2772SOL    HW1 9215   0.349   1.221   2.134 -1.8376 -1.2575  2.3377
 2772SOL    HW2 9216   0.321   1.378   2.167 -0.0846 -0.2861 -0.4366
 2773SOL     OW 9217   4.578   6.634   0.822 -0.0786 -1.3997  0.2856
 2773SOL    HW1 9218   4.511   6.646   0.750  0.3765  0.5102  0.1230
 2773SOL    HW2 9219   4.538   6.661   0.910  0.3472 -0.5579  0.2337
 2774SOL     OW 9220   2.702   6.052   4.238 -0.1542 -0.4675 -0.2735
 2774SOL    HW1 9221   2.608   6.079   4.218 -0.2605  0.9760  1.8686
 2774SOL    HW2 9222   2.764   6.129   4.222  0.3105 -0.6324  0.6809
 2775SOL     OW 9223   0.055   0.303   6.598 -0.0512 -0.2898 -0.0204
 2775SOL    HW1 9224   0.048   0.390   6.646 -0.8494  0.6276 -1.7278
 2775SOL    HW2 9225  -0.036   0.274   6.567  0.4679 -0.7404 -1.1712
 2776SOL     OW 9226   2.999   3.378   0.240 -0.1599  0.0081 -0.9734
 2776SOL    HW1 9227   3.068   3.306   0.250  0.6687  0.7797 -0.9719
 2776SOL    HW2 9228   2.960   3.374   0.148 -0.3761 -0.6710 -0.8497
 2777SOL     OW 9229   3.402   0.107   6.975 -0.1071  0.3117  0.1698
 2777SOL    HW1 9230   3.325   0.165   6.949  0.3483  0.3575 -1.0932
 2777SOL    HW2 9231   3.384   0.068   7.066 -1.9369 -0.2182 -0.3744
 2778SOL     OW 9232   2.709   6.944   6.028  0.2808 -0.1448  0.1405
 2778SOL    HW1 9233   2.751   6.994   5.953 -0.4087  0.4458  0.1339
 2778SOL    HW2 9234   2.621   6.986   6.051  0.3533 -0.4897  1.0922
 2779SOL     OW 9235   1.834   1.379   5.005  0.3453 -0.4397 -0.4021
 2779SOL    HW1 9236   1.820   1.424   5.093  0.7897  0.1458 -0.6238
 2779SOL    HW2 9237   1.774   1.421   4.936  0.3660 -0.5516 -0.4879
 2780SOL     OW 9238   6.595   0.943   6.922 -0.5387 -0.0413 -0.2044
 2780SOL    HW1 9239   6.515   0.999   6.941  0.0729  1.1528 -1.0447
 2780SOL    HW2 9240   6.669   0.967   6.984 -0.6840 -0.8881  0.3239
 2781SOL     OW 9241   1.438   0.989   5.761  0.8653 -0.0996  0.0287
 2781SOL    HW1 9242   1.488   0.942   5.834  1.2056  2.7377  1.8098
 2781SOL    HW2 9243   1.346   0.951   5.753  1.1509 -1.1072  1.3037
 2782SOL     OW 9244   3.436   6.386   2.069  0.1936  0.5431 -0.0143
 2782SOL    HW1 9245   3.457   6.373   1.972  0.7034  0.2734  0.1276
 2782SOL    HW2 9246   3.392   6.304   2.104  1.7855 -0.1462  0.4482
 2783SOL     OW 9247   3.895   3.012   0.845  0.6668  0.2956  0.4385
 2783SOL    HW1 9248   3.844   2.967   0.918 -0.1408  0.3143 -0.0990
 2783SOL    HW2 9249   3.909   3.109   0.869  2.7137 -0.2576  1.7578
 2784SOL     OW 9250   0.368   0.357   1.490 -0.3774 -0.0444 -0.8120
 2784SOL    HW1 9251   0.373   0.432   1.424  0.2424  1.4052  0.8086
 2784SOL    HW2 9252   0.427   0.377   1.568 -2.3725 -0.8584  1.0190
 2785SOL     OW 9253   4.201   6.061   2.947  0.3030 -0.3089 -0.1052
 2785SOL    HW1 9254   4.257   6.058   3.030 -0.2661  0.2457  0.3119
 2785SOL    HW2 9255   4.162   6.153   2.937  0.5095 -0.3132 -1.0935
 2786SOL     OW 9256   1.994   2.549   6.921  0.7216  0.1203  0.3724
 2786SOL    HW1 9257   1.946   2.636   6.929  1.0729  0.5668 -1.7556
 2786SOL    HW2 9258   1.928   2.474   6.926 -0.1892  0.7017 -1.7005
 2787SOL     OW 9259   0.411   5.007   0.746  0.4690 -0.5556 -0.2143
 2787SOL    HW1 9260   0.380   5.077   0.683  0.8405 -0.8498 -0.7274
 2787SOL    HW2 9261   0.380   5.030   0.839 -1.5861 -1.0231 -0.7447
 2788SOL     OW 9262   6.792   2.782   3.839 -0.0388  0.6719 -0.2431
 2788SOL    HW1 9263   6.843   2.810   3.920 -1.3933  0.9813  0.5462
 2788SOL    HW2 9264   6.715   2.723   3.866 -0.9547  1.3756 -1.2011
 2789SOL     OW 9265   5.383   1.649   6.609 -0.8090 -0.0733  0.1809
 2789SOL    HW1 9266   5.467   1.697   6.583 -1.4254  0.8357 -0.2162
 2789SOL    HW2 9267   5.357   1.586   6.536 -1.4794  1.0445 -0.5913
 2790SOL     OW 9268   1.437   0.026   5.592  0.6422  0.0657 -0.2133
 2790SOL    HW1 9269   1.448   0.115   5.636  1.0742  0.8705 -1.9065
 2790SOL    HW2 9270   1.355  -0.019   5.629  0.5508  1.0498  0.8303
 2791SOL     OW 9271   3.808   1.154   5.557  0.3424  0.4373 -0.1484
 2791SOL    HW1 9272   3.846   1.089   5.624  0.8863  1.0640  0.1601
 2791SOL    HW2 9273   3.744   1.215   5.603  0.2800  0.4978 -0.3188
 2792SOL     OW 9274   0.398   1.817   3.436 -0.3257  0.6970 -0.1130
 2792SOL    HW1 9275   0.451   1.844   3.517 -1.5238 -2.5690  1.9415
 2792SOL    HW2 9276   0.305   1.851   3.445 -1.0035 -1.2758  0.9862
 2793SOL     OW 9277   3.324   2.958   2.649 -0.2180  0.0992  0.2503
 2793SOL    HW1 9278   3.421   2.945   2.671 -0.0207  0.9001 -0.1144
 2793SOL    HW2 9279   3.314   2.968   2.550 -0.7111 -0.2429  0.2612
 2794SOL     OW 9280   0.286   0.897   4.463  0.1754 -0.2565 -0.1855
 2794SOL    HW1 9281   0.224   0.859   4.532  1.0643 -1.4476 -0.0102
 2794SOL    HW2 9282   0.373   0.922   4.505 -0.2234  1.6253 -0.3903
 2795SOL     OW 9283   2.926   3.471   6.750 -0.0525 -0.1027  0.2012
 2795SOL    HW1 9284   2.833   3.439   6.767 -0.0698  1.0570  2.8887
 2795SOL    HW2 9285   2.929   3.571   6.759  1.5422 -0.1679  0.7491
 2796SOL     OW 9286   0.711   5.403   4.352  0.0757  0.0191  0.0258
 2796SOL    HW1 9287   0.659   5.334   4.401 -0.4630  1.1400  1.0740
 2796SOL    HW2 9288   0.775   5.448   4.414  0.3949  0.4837 -0.6229
 2797SOL     OW 9289   3.857   0.437   2.635  0.1718  0.0793  0.1022
 2797SOL    HW1 9290   3.831   0.347   2.602  0.1557  0.6550 -1.5743
 2797SOL    HW2 9291   3.890   0.492   2.558  0.7032  1.3180  1.1813
 2798SOL     OW 9292   5.521   1.107   4.559 -0.2246  0.2533  0.2394
 2798SOL    HW1 9293   5.548   1.033   4.498  1.6337  1.5615 -0.6231
 2798SOL    HW2 9294   5.529   1.195   4.510  0.0441  1.2248  1.9545
 2799SOL     OW 9295   0.706   6.883   6.465 -0.2914 -0.8763 -0.1609
 2799SOL    HW1 9296   0.628   6.854   6.520 -0.3820  1.5444  1.1282
 2799SOL    HW2 9297   0.675   6.944   6.392  0.3840  0.6430  0.7614
 2800SOL     OW 9298   2.248   1.254   6.947  0.0671 -0.5781  0.2547
 2800SOL    HW1 9299   2.214   1.194   6.874  0.3351  0.4196 -0.7015
 2800SOL    HW2 9300   2.336   1.220   6.979  1.9235  1.1320 -2.6608
 2801SOL     OW 9301   4.389   1.512   4.107  0.4328 -0.1593 -0.4701
 2801SOL    HW1 9302   4.414   1.419   4.131  1.1637 -0.6698 -2.9762
 2801SOL    HW2 9303   4.309   1.512   4.046 -0.5737  0.9811  0.7708
 2802SOL     OW 9304   1.470   3.436   5.491  0.2218 -0.2089 -0.8205
 2802SOL    HW1 9305   1.389   3.421   5.435  1.1753 -1.4393 -1.9471
 2802SOL    HW2 9306   1.548   3.388   5.451  0.6008 -2.7170  2.4443
 2803SOL     OW 9307   2.054   4.063   1.168  0.4188  0.0085  0.6729
 2803SOL    HW1 9308   2.060   4.154   1.210  1.7542  1.2555 -1.9403
 2803SOL    HW2 9309   2.111   4.061   1.085  0.6232 -3.3266  0.7588
 2804SOL     OW 9310   6.194   2.706   6.882 -0.0064  0.0385  0.4181
 2804SOL    HW1 9311   6.267   2.639   6.897  0.4014  0.2117 -0.6568
 2804SOL    HW2 9312   6.156   2.693   6.790  0.6049  1.7631 -0.1187
 2805SOL     OW 9313   1.622   2.516   6.751 -0.3536  0.3082  0.0938
 2805SOL    HW1 9314   1.702   2.530   6.693 -1.7619  0.7556 -1.9019
 2805SOL    HW2 9315   1.603   2.418   6.759  0.6021  0.1853  0.8995
 2806SOL     OW 9316   6.052   0.916   0.376  0.2603 -0.8349 -0.1510
 2806SOL    HW1 9317   5.990   0.867   0.314  1.1486  0.1596 -1.9083
 2806SOL    HW2 9318   6.136   0.862   0.387 -1.2139 -2.7260  3.1196
 2807SOL     OW 9319   5.618   0.684   6.941  0.6692 -0.4292 -0.5184
 2807SOL    HW1 9320   5.662   0.773   6.953  0.1006  0.0250 -1.6622
 2807SOL    HW2 9321   5.521   0.697   6.919  0.6958 -1.3035 -1.2314
 2808SOL     OW 9322   5.680   4.276   2.086  0.0974  0.5485  0.2453
 2808SOL    HW1 9323   5.730   4.355   2.052 -0.4094  1.1092  0.7743
 2808SOL    HW2 9324   5.739   4.222   2.146  0.3917  0.6144  0.0171
 2809SOL     OW 9325   4.935   6.842   3.546  0.1608  0.1510  0.1597
 2809SOL    HW1 9326   4.880   6.794   3.476  0.6399 -1.1206  0.6264
 2809SOL    HW2 9327   4.877   6.863   3.625  0.0507 -0.0806  0.1426
 2810SOL     OW 9328   4.119   0.554   6.059  0.1837  0.0498 -0.2031
 2810SOL    HW1 9329   4.108   0.643   6.014 -2.8391 -1.2421 -2.3249
 2810SOL    HW2 9330   4.042   0.538   6.120  0.6503 -1.1531  0.0908
 2811SOL     OW 9331   0.220   6.212   5.834  0.2434 -0.3409 -0.6236
 2811SOL    HW1 9332   0.248   6.289   5.891  1.9911 -1.2394 -0.2085
 2811SOL    HW2 9333   0.148   6.161   5.881  0.8041 -0.3724  0.2212
 2812SOL     OW 9334   1.391   6.467   6.687 -0.1178  0.6984 -0.2779
 2812SOL    HW1 9335   1.326   6.425   6.751 -0.1952  0.4009 -0.5515
 2812SOL    HW2 9336   1.355   6.555   6.656 -0.7458  0.1961 -1.0056
 2813SOL     OW 9337   4.013   6.583   6.813  0.3511  0.1807  0.1872
 2813SOL    HW1 9338   3.999   6.488   6.839  1.6519 -0.0361  0.1509
 2813SOL    HW2 9339   3.992   6.643   6.890  0.2732 -0.1862  0.4523
 2814SOL     OW 9340   5.460   2.532   4.759  0.8091 -0.5830 -0.0553
 2814SOL    HW1 9341   5.435   2.628   4.771  0.1574 -0.6503 -0.7704
 2814SOL    HW2 9342   5.551   2.525   4.719  2.2849 -0.3299  2.9649
 2815SOL     OW 9343   4.863   3.009   4.040 -0.4552  0.1397 -0.2880
 2815SOL    HW1 9344   4.834   2.967   4.125  0.9217  0.4021  0.3428
 2815SOL    HW2 9345   4.814   2.968   3.963 -0.0080 -1.7852  0.4103
 2816SOL     OW 9346   1.662   5.237   3.356 -0.2673 -0.6147  0.2958
 2816SOL    HW1 9347   1.573   5.202   3.327  0.5695 -1.5972 -1.1937
 2816SOL    HW2 9348   1.734   5.180   3.317  1.0715  1.0993  0.1992
 2817SOL     OW 9349   2.300   0.797   5.031  0.1163  0.1464  0.8543
 2817SOL    HW1 9350   2.373   0.744   5.073  0.1731 -2.2308 -1.9922
 2817SOL    HW2 9351   2.334   0.889   5.008  1.2750  0.0689  2.1736
 2818SOL     OW 9352   1.644   5.746   0.126  0.0713 -0.1475 -0.1279
 2818SOL    HW1 9353   1.597   5.827   0.163  2.0733  0.6798  0.7556
 2818SOL    HW2 9354   1.667   5.684   0.200  0.4239 -0.4946 -0.5237
 2819SOL     OW 9355   4.193   4.850   0.390 -0.3352  0.1910  0.1042
 2819SOL    HW1 9356   4.114   4.790   0.400 -0.8784  0.8843  0.0340
 2819SOL    HW2 9357   4.206   4.902   0.474  0.1578 -0.0476  0.1788
 2820SOL     OW 9358   5.798   1.060   3.390  0.0783 -0.8661  0.0468
 2820SOL    HW1 9359   5.805   0.971   3.345  1.0590 -0.9375  0.3412
 2820SOL    HW2 9360   5.800   1.132   3.320 -0.1759 -1.0421 -0.1474
 2821SOL     OW 9361   3.665   3.802   5.155 -0.2660  0.5627 -0.1560
 2821SOL    HW1 9362   3.683   3.774   5.249  1.8582  3.3108  0.4068
 2821SOL    HW2 9363   3.673   3.902   5.149  2.0484  0.3074 -3.6790
 2822SOL     OW 9364   0.207   6.463   5.993 -0.0721  0.6573 -0.8665
 2822SOL    HW1 9365   0.258   6.546   5.973 -0.9112  1.2844 -0.4603
 2822SOL    HW2 9366   0.144   6.480   6.069  1.4995 -1.0244  0.9525
 2823SOL     OW 9367   5.409   6.292   2.383 -0.2854 -0.5125 -0.6893
 2823SOL    HW1 9368   5.310   6.298   2.369 -0.4355 -0.7137  0.2363
 2823SOL    HW2 9369   5.456   6.325   2.301 -1.0878  2.5684 -0.0263
 2824SOL     OW 9370   5.921   2.114   2.993  0.2720  0.0985  0.2777
 2824SOL    HW1 9371   5.904   2.213   2.997  0.5368  0.1308  0.7291
 2824SOL    HW2 9372   5.892   2.079   2.904  0.8062  0.7015 -0.1469
 2825SOL     OW 9373   0.889   4.950   5.186 -0.0655  0.2917 -0.0388
 2825SOL    HW1 9374   0.796   4.967   5.155  0.3408  0.4353 -1.2386
 2825SOL    HW2 9375   0.952   5.009   5.136  0.8735 -1.2682 -0.7827
 2826SOL     OW 9376   0.631   1.198   5.708  0.0451 -0.4554 -0.0604
 2826SOL    HW1 9377   0.635   1.297   5.721  3.2843 -0.5554  0.6496
 2826SOL    HW2 9378   0.613   1.154   5.796 -0.2188 -0.5153 -0.1458
 2827SOL     OW 9379   2.906   1.777   6.781 -0.5406  0.0592 -0.1214
 2827SOL    HW1 9380   2.930   1.681   6.795 -0.5078 -0.1598 -1.5207
 2827SOL    HW2 9381   2.971   1.819   6.717 -0.3877  1.0990  0.6851
 2828SOL     OW 9382   5.017   4.526   1.489  0.6893 -0.0937 -0.1037
 2828SOL    HW1 9383   4.945   4.595   1.484 -0.1934 -1.0146 -0.8238
 2828SOL    HW2 9384   4.982   4.446   1.538  1.3238 -0.4379 -0.2078
 2829SOL     OW 9385   1.734   2.686   4.351 -0.2438  0.1668  0.5851
 2829SOL    HW1 9386   1.784   2.664   4.435  0.7341  0.1953  0.0166
 2829SOL    HW2 9387   1.656   2.746   4.374  0.5217  0.8973  1.3606
 2830SOL     OW 9388   0.568   1.081   3.607 -0.4802  0.1959 -0.1276
 2830SOL    HW1 9389   0.497   1.151   3.611  1.4253  2.2082  2.1253
 2830SOL    HW2 9390   0.565   1.026   3.691 -0.1040 -0.4392 -0.5258
 2831SOL     OW 9391   2.001   1.478   1.940 -0.0117  0.2073 -0.2933
 2831SOL    HW1 9392   2.060   1.532   2.000 -0.1580  0.9616 -0.8087
 2831SOL    HW2 9393   2.043   1.390   1.922  0.6352  0.4713 -0.0995
 2832SOL     OW 9394   4.981   4.699   1.181  0.0259 -0.2396  0.0140
 2832SOL    HW1 9395   5.075   4.699   1.216  0.8137 -0.0795 -2.0041
 2832SOL    HW2 9396   4.917   4.701   1.258  1.6627 -0.1903  1.4248
 2833SOL     OW 9397   2.015   6.300   3.816 -0.2406  0.3746  0.1373
 2833SOL    HW1 9398   2.110   6.287   3.846 -0.7323 -1.6352  1.0292
 2833SOL    HW2 9399   1.963   6.347   3.887  0.1343  1.8571 -0.5229
 2834SOL     OW 9400   1.792   3.733   1.227  0.5195  0.6696 -0.0880
 2834SOL    HW1 9401   1.777   3.826   1.193  0.6541  0.8599  0.3596
 2834SOL    HW2 9402   1.781   3.667   1.152 -0.2087  0.9896 -0.2692
 2835SOL     OW 9403   4.030   1.360   1.424  0.4693  0.4854  0.0784
 2835SOL    HW1 9404   4.011   1.343   1.521  0.7097  1.5660  0.3181
 2835SOL    HW2 9405   4.112   1.415   1.414 -1.5403  3.6208 -0.5196
 2836SOL     OW 9406   2.897   6.393   2.687  0.4124 -0.3521 -0.5112
 2836SOL    HW1 9407   2.971   6.439   2.639 -0.3476  2.2390  0.6538
 2836SOL    HW2 9408   2.810   6.414   2.643 -0.0366  0.0454  0.5380
 2837SOL     OW 9409   5.676   3.146   1.628 -0.1110  0.3504  0.0891
 2837SOL    HW1 9410   5.602   3.092   1.667 -0.2119 -0.3545 -1.0274
 2837SOL    HW2 9411   5.734   3.181   1.701 -1.2736  0.5271  0.9475
 2838SOL     OW 9412   4.588   4.879   2.154  0.4783 -0.7981 -0.5952
 2838SOL    HW1 9413   4.651   4.807   2.124  3.0762  1.5357 -1.0959
 2838SOL    HW2 9414   4.640   4.952   2.198 -1.6991  1.8639 -2.1707
 2839SOL     OW 9415   4.972   2.717   4.628 -0.3713  0.2423  0.5008
 2839SOL    HW1 9416   4.898   2.784   4.637 -1.2112 -0.7201  0.9744
 2839SOL    HW2 9417   4.945   2.632   4.673  0.7337 -0.3740  0.0296
 2840SOL     OW 9418   6.484   5.680   3.296 -0.2770 -0.2341  0.4890
 2840SOL    HW1 9419   6.556   5.668   3.228 -0.1573  1.2160  0.3234
 2840SOL    HW2 9420   6.397   5.694   3.249 -0.6009 -1.5005  0.6839
 2841SOL     OW 9421   5.925   6.481   1.935  0.1004 -0.0323 -0.1356
 2841SOL    HW1 9422   5.969   6.433   2.011 -0.2526 -0.5632 -0.2598
 2841SOL    HW2 9423   5.848   6.534   1.970  0.1041 -0.0607 -0.0850
 2842SOL     OW 9424   0.193   0.838   6.008 -0.2077 -0.0060 -0.8479
 2842SOL    HW1 9425   0.169   0.932   6.030  0.2654  0.2297 -1.3200
 2842SOL    HW2 9426   0.116   0.778   6.031  0.0704  0.2637  0.9905
 2843SOL     OW 9427   6.566   2.936   5.511 -0.0525  0.1555  0.1321
 2843SOL    HW1 9428   6.591   2.863   5.447  0.4390 -0.0023  0.4983
 2843SOL    HW2 9429   6.489   2.987   5.474  0.4727  0.3147 -0.7804
 2844SOL     OW 9430   0.154   6.797   5.322  0.5563 -0.2325 -0.0489
 2844SOL    HW1 9431   0.073   6.740   5.327  0.1737  0.2091 -1.0045
 2844SOL    HW2 9432   0.198   6.801   5.412  0.0883 -1.2774  0.2383
 2845SOL     OW 9433   6.987   3.118   1.161  0.1252 -0.6061  0.2163
 2845SOL    HW1 9434   6.912   3.137   1.098  1.3564  0.2935 -1.0230
 2845SOL    HW2 9435   7.060   3.070   1.114  0.2859 -1.6604  1.4624
 2846SOL     OW 9436   5.170   3.519   2.122  0.1212 -0.1691 -0.4869
 2846SOL    HW1 9437   5.224   3.462   2.060  0.1734 -0.4216 -0.2158
 2846SOL    HW2 9438   5.101   3.462   2.167  0.1876 -0.0231 -0.1964
 2847SOL     OW 9439   6.375   3.336   1.302 -0.0934  0.3402  0.3182
 2847SOL    HW1 9440   6.452   3.297   1.352  0.0125  1.1211  0.7710
 2847SOL    HW2 9441   6.309   3.376   1.366 -0.6451  0.1068 -0.0895
 2848SOL     OW 9442   2.512   2.707   1.484 -0.0557  0.3075  0.5131
 2848SOL    HW1 9443   2.477   2.613   1.481 -2.5145  1.1492  1.0769
 2848SOL    HW2 9444   2.552   2.724   1.574  1.3122 -0.4514  0.0874
 2849SOL     OW 9445   4.664   0.884   2.417 -0.2054  0.0347  0.2197
 2849SOL    HW1 9446   4.761   0.861   2.409  0.4542  1.7558  2.2761
 2849SOL    HW2 9447   4.643   0.962   2.357  0.1128  0.7281  0.9927
 2850SOL     OW 9448   5.957   2.827   0.263 -0.4426  0.0442  0.0348
 2850SOL    HW1 9449   5.898   2.869   0.194 -0.1613 -0.5562 -0.5824
 2850SOL    HW2 9450   6.028   2.773   0.218  0.2023  0.2461  0.7838
 2851SOL     OW 9451   0.926   5.456   2.543  0.1844  0.8805  0.8165
 2851SOL    HW1 9452   0.921   5.356   2.540 -0.0906  0.8768  1.2453
 2851SOL    HW2 9453   0.974   5.485   2.626  0.6172  1.0976  0.4924
 2852SOL     OW 9454   1.041   3.544   0.205  0.0310  0.1175  0.2081
 2852SOL    HW1 9455   1.006   3.478   0.271 -0.2653 -1.0950 -1.1117
 2852SOL    HW2 9456   1.135   3.521   0.181  1.0651  2.0580  2.0646
 2853SOL     OW 9457   2.702   5.927   6.902 -0.4931 -0.2174 -0.3700
 2853SOL    HW1 9458   2.682   5.905   6.998  0.1708  1.1241  0.0939
 2853SOL    HW2 9459   2.630   5.985   6.865  0.7617  1.8344  0.2845
 2854SOL     OW 9460   4.083   0.698   6.914  0.4085  0.0602  0.3744
 2854SOL    HW1 9461   4.030   0.694   6.999  2.0523  0.9546  1.4828
 2854SOL    HW2 9462   4.139   0.780   6.913  0.0190  0.3716 -1.8685
 2855SOL     OW 9463   3.882   0.349   3.766 -0.5916  0.0154  1.1018
 2855SOL    HW1 9464   3.785   0.333   3.745 -0.5730  1.4718 -0.3186
 2855SOL    HW2 9465   3.926   0.262   3.787 -1.4377 -1.2320 -1.7817
 2856SOL     OW 9466   0.132   3.689   1.514 -0.3894 -0.1877 -0.0265
 2856SOL    HW1 9467   0.183   3.667   1.431 -0.7785 -0.6023 -0.1661
 2856SOL    HW2 9468   0.035   3.698   1.491 -0.5204 -0.4699  0.4073
 2857SOL     OW 9469   5.444   6.988   2.802  0.5644  0.1506 -0.1319
 2857SOL    HW1 9470   5.414   7.005   2.708  2.4352 -0.9411 -0.9710
 2857SOL    HW2 9471   5.392   6.911   2.839 -0.1949  0.5951 -0.2450
 2858SOL     OW 9472   0.056   5.128   2.925  0.2600  0.5941  0.3757
 2858SOL    HW1 9473  -0.030   5.123   2.874  1.0915  2.4014 -1.3123
 2858SOL    HW2 9474   0.055   5.209   2.983  1.0885  1.0198 -0.1954
 2859SOL     OW 9475   6.010   3.409   2.317 -0.0270  0.4753 -0.2989
 2859SOL    HW1 9476   5.914   3.427   2.338  0.2254  1.2828  0.2134
 2859SOL    HW2 9477   6.050   3.353   2.390  0.1305  0.9522 -0.0100
 2860SOL     OW 9478   6.716   3.186   5.522 -0.0983  0.2758 -0.1611
 2860SOL    HW1 9479   6.630   3.144   5.491 -0.3734 -0.5363  1.6194
 2860SOL    HW2 9480   6.732   3.164   5.618  1.6336  1.2315 -0.1870
 2861SOL     OW 9481   3.567   5.286   5.125 -0.3101 -0.0211  0.1129
 2861SOL    HW1 9482   3.637   5.344   5.166 -1.1009  0.5963  0.6189
 2861SOL    HW2 9483   3.531   5.222   5.194  0.0100 -0.5942 -0.2408
 2862SOL     OW 9484   6.983   2.679   1.256  0.1593 -0.4186  0.6338
 2862SOL    HW1 9485   7.021   2.663   1.347  0.6312 -0.6666  0.3948
 2862SOL    HW2 9486   6.947   2.772   1.250  1.8972  0.2754  0.4575
 2863SOL     OW 9487   4.315   4.613   5.950  0.2520  0.1207 -0.3151
 2863SOL    HW1 9488   4.291   4.516   5.961  1.8598 -0.5617 -2.1473
 2863SOL    HW2 9489   4.360   4.626   5.861 -1.4850  2.8979 -0.9043
 2864SOL     OW 9490   0.064   5.522   4.550  0.0331 -0.7681  0.0231
 2864SOL    HW1 9491  -0.002   5.460   4.593 -0.6266 -0.0266  0.0982
 2864SOL    HW2 9492   0.150   5.518   4.599  0.7881 -3.3563 -1.3111
 2865SOL     OW 9493   6.884   6.244   5.218  0.3877 -0.0691 -0.1120
 2865SOL    HW1 9494   6.916   6.163   5.169 -1.7173 -0.1914 -1.3645
 2865SOL    HW2 9495   6.915   6.326   5.170 -1.9819 -0.1836 -2.0074
 2866SOL     OW 9496   3.852   5.390   2.484  0.2925 -0.3031 -0.4402
 2866SOL    HW1 9497   3.847   5.351   2.576  0.4492  0.1676 -0.2258
 2866SOL    HW2 9498   3.913   5.335   2.427 -1.1878 -1.6251 -0.8026
 2867SOL     OW 9499   3.698   5.877   0.673  0.0859 -0.2329  0.5502
 2867SOL    HW1 9500   3.710   5.842   0.766 -1.6519  0.2365  0.9761
 2867SOL    HW2 9501   3.675   5.801   0.612 -3.9831 -0.0126  1.5260
 2868SOL     OW 9502   5.840   5.063   3.698 -0.1314  0.3355  0.4968
 2868SOL    HW1 9503   5.932   5.069   3.660  0.2520 -0.2663  1.2776
 2868SOL    HW2 9504   5.801   4.973   3.676 -0.3786  0.4459  0.4872
 2869SOL     OW 9505   3.298   0.989   6.366  0.5301  0.4807  0.1753
 2869SOL    HW1 9506   3.295   0.978   6.266 -0.8146  2.5890 -0.0725
 2869SOL    HW2 9507   3.252   0.911   6.409  0.5517 -0.1361 -0.8731
 2870SOL     OW 9508   0.821   6.869   1.161 -0.1553  0.1184  0.3350
 2870SOL    HW1 9509   0.913   6.885   1.126  0.4317  0.1147  1.8210
 2870SOL    HW2 9510   0.798   6.772   1.153  0.7098 -0.2143  1.6354
 2871SOL     OW 9511   6.592   3.485   5.945  0.3209  0.2630 -0.0936
 2871SOL    HW1 9512   6.560   3.449   5.858 -0.2877 -1.3984  0.7808
 2871SOL    HW2 9513   6.601   3.585   5.938 -1.5155  0.3942 -1.4866
 2872SOL     OW 9514   0.972   3.518   2.640 -0.2644  0.6293  0.1371
 2872SOL    HW1 9515   0.908   3.474   2.577  0.2128  0.3909 -0.1822
 2872SOL    HW2 9516   1.061   3.529   2.595  0.1780  0.1465  0.8898
 2873SOL     OW 9517   2.647   6.869   4.854  0.6461 -0.1364  0.2120
 2873SOL    HW1 9518   2.744   6.846   4.841  0.8429  0.4596  0.5872
 2873SOL    HW2 9519   2.607   6.893   4.766  1.4409  1.8546  0.3467
 2874SOL     OW 9520   5.283   5.806   0.039  0.0380  0.0506  0.1069
 2874SOL    HW1 9521   5.347   5.867  -0.007  1.2354 -1.6816 -0.6186
 2874SOL    HW2 9522   5.288   5.821   0.138  0.1837  1.2169 -0.0652
 2875SOL     OW 9523   6.349   4.096   1.608 -0.3415  0.2533 -0.3024
 2875SOL    HW1 9524   6.253   4.126   1.610 -0.1723  0.8131 -0.5210
 2875SOL    HW2 9525   6.395   4.138   1.530 -0.1348 -0.6948 -0.7017
 2876SOL     OW 9526   4.047   1.480   4.380 -0.1297  0.1506  0.2236
 2876SOL    HW1 9527   4.027   1.578   4.374  1.3189  0.3983 -1.6619
 2876SOL    HW2 9528   3.973   1.434   4.428 -1.2178  2.0533  0.4878
 2877SOL     OW 9529   6.846   6.994   3.285 -0.1672 -0.2852  0.2424
 2877SOL    HW1 9530   6.913   6.962   3.353  0.9264  2.0053  0.3541
 2877SOL    HW2 9531   6.754   6.966   3.313  0.6827 -4.6334 -0.5531
 2878SOL     OW 9532   2.139   2.010   6.753 -0.3918  0.3099  0.3808
 2878SOL    HW1 9533   2.177   2.011   6.845  0.0586 -1.2405  0.2415
 2878SOL    HW2 9534   2.172   2.090   6.702  1.8486 -0.4077  0.5943
 2879SOL     OW 9535   3.005   5.111   1.689  0.3387  0.2307 -0.9058
 2879SOL    HW1 9536   2.977   5.195   1.641 -0.7608  0.3104 -0.1536
 2879SOL    HW2 9537   2.965   5.032   1.643  1.5998  0.0580 -1.7825
 2880SOL     OW 9538   2.760   0.158   6.818  0.0033 -0.5634 -0.0648
 2880SOL    HW1 9539   2.826   0.220   6.776  0.7068  0.3053  2.1420
 2880SOL    HW2 9540   2.758   0.072   6.769 -0.5334  0.9448 -2.8686
 2881SOL     OW 9541   2.695   4.552   6.361  0.3531  0.3379 -0.2604
 2881SOL    HW1 9542   2.743   4.482   6.309  1.5144 -0.6720  2.0030
 2881SOL    HW2 9543   2.698   4.528   6.458 -0.0638  3.0494  0.4969
 2882SOL     OW 9544   1.001   6.787   6.821 -0.4172  0.1113  0.2258
 2882SOL    HW1 9545   0.942   6.811   6.898 -1.4070 -1.4005 -0.0174
 2882SOL    HW2 9546   0.945   6.754   6.745  0.6811 -0.4887 -0.3476
 2883SOL     OW 9547   6.212   4.552   4.036  0.0231 -0.6085  0.0017
 2883SOL    HW1 9548   6.113   4.555   4.033  0.0297 -0.1483  0.1511
 2883SOL    HW2 9549   6.249   4.636   3.996  0.3335 -0.3767  0.7491
 2884SOL     OW 9550   4.592   3.251   0.023  0.7301 -0.6376  0.4855
 2884SOL    HW1 9551   4.521   3.318   0.046  1.3659  0.0118  0.5893
 2884SOL    HW2 9552   4.645   3.230   0.105  0.3535 -1.4952  0.5170
 2885SOL     OW 9553   6.791   6.880   0.559 -0.4252  0.0610 -0.6502
 2885SOL    HW1 9554   6.769   6.813   0.488 -1.6387 -1.6001  1.1818
 2885SOL    HW2 9555   6.706   6.919   0.595  0.0823 -0.0015  0.6678
 2886SOL     OW 9556   1.276   4.841   5.372 -0.4761 -0.1790 -0.2021
 2886SOL    HW1 9557   1.292   4.752   5.414  0.7817  0.9702  1.9908
 2886SOL    HW2 9558   1.199   4.886   5.417 -0.8327  0.0294 -0.9995
 2887SOL     OW 9559   3.012   0.049   2.957  0.2622 -0.0121 -0.1456
 2887SOL    HW1 9560   2.935   0.098   2.999 -0.6243 -1.3381 -0.1673
 2887SOL    HW2 9561   2.997   0.043   2.858  0.6162  0.1127 -0.2064
 2888SOL     OW 9562   6.772   4.814   6.288  0.1700  0.4579  0.0721
 2888SOL    HW1 9563   6.859   4.843   6.247 -0.9105 -0.3431 -3.0449
 2888SOL    HW2 9564   6.785   4.730   6.339  1.3337  0.6796  0.1616
 2889SOL     OW 9565   5.801   5.125   6.573 -0.1598 -0.6886 -0.2388
 2889SOL    HW1 9566   5.758   5.048   6.619  0.0508 -0.4501  0.3740
 2889SOL    HW2 9567   5.841   5.095   6.487 -0.7831 -1.0922 -0.3913
 2890SOL     OW 9568   6.085   5.641   3.432  0.1568 -0.5370  0.2980
 2890SOL    HW1 9569   6.150   5.635   3.356  1.9049  0.3478  1.6430
 2890SOL    HW2 9570   6.035   5.728   3.426 -0.3137 -0.8474 -0.2928
 2891SOL     OW 9571   5.008   5.161   5.528  0.3239 -0.0675  0.1681
 2891SOL    HW1 9572   4.970   5.254   5.527  0.6406  0.0731  0.5561
 2891SOL    HW2 9573   5.105   5.164   5.503  0.3718 -0.2704  0.3224
 2892SOL     OW 9574   6.264   0.971   2.579  0.5778 -0.6310  0.2912
 2892SOL    HW1 9575   6.291   1.067   2.589 -0.4634 -0.2541 -0.3526
 2892SOL    HW2 9576   6.221   0.939   2.664 -0.0468 -0.1858  0.1531
 2893SOL     OW 9577   5.072   6.863   4.663  0.3105 -0.0032  0.2154
 2893SOL    HW1 9578   5.010   6.813   4.722  1.3202 -2.4107 -0.6146
 2893SOL    HW2 9579   5.164   6.861   4.702  0.5993  0.1298 -0.4443
 2894SOL     OW 9580   4.576   2.631   3.646  0.3624 -0.0118 -0.2674
 2894SOL    HW1 9581   4.622   2.647   3.733 -0.8853 -1.1265  0.6454
 2894SOL    HW2 9582   4.632   2.667   3.571  2.6616 -1.2201  0.7644
 2895SOL     OW 9583   4.554   4.943   3.366  0.6965 -0.0714 -0.1297
 2895SOL    HW1 9584   4.492   4.963   3.442 -0.4136 -1.7638 -0.5491
 2895SOL    HW2 9585   4.610   4.863   3.388  2.1061  0.8640 -0.1516
 2896SOL     OW 9586   4.960   6.548   2.932 -0.0367 -0.4208  0.0561
 2896SOL    HW1 9587   5.010   6.487   2.870  0.5075  0.4190 -0.3425
 2896SOL    HW2 9588   4.994   6.535   3.025 -0.9716 -1.8088  0.2403
 2897SOL     OW 9589   2.492   5.372   4.634  0.1142  0.0899 -0.4185
 2897SOL    HW1 9590   2.393   5.360   4.645  0.3100 -2.0041 -0.5157
 2897SOL    HW2 9591   2.522   5.451   4.687 -1.7922  1.6302 -1.5009
 2898SOL     OW 9592   5.493   6.970   6.744  0.2987  0.6975 -0.3319
 2898SOL    HW1 9593   5.564   6.901   6.730 -0.6750 -0.4622  0.2997
 2898SOL    HW2 9594   5.414   6.949   6.687  0.6571  2.3523 -1.5432
 2899SOL     OW 9595   2.562   1.732   2.337 -0.1600  0.4653 -0.1206
 2899SOL    HW1 9596   2.532   1.824   2.313  0.0132  1.1624  2.0622
 2899SOL    HW2 9597   2.643   1.738   2.396 -0.3029 -1.0678  0.2822
 2900SOL     OW 9598   5.381   6.670   1.022  0.1247  0.0003 -0.1896
 2900SOL    HW1 9599   5.378   6.705   0.929 -2.2488  2.8818  0.8012
 2900SOL    HW2 9600   5.461   6.709   1.069  0.7131 -0.5914 -0.6768
 2901SOL     OW 9601   3.421   2.006   6.447 -0.4623 -0.0237  0.5551
 2901SOL    HW1 9602   3.355   1.943   6.406 -0.7049  0.6423 -0.0997
 2901SOL    HW2 9603   3.426   2.089   6.391  0.2431  0.3132  1.1175
 2902SOL     OW 9604   6.571   6.506   2.795 -0.1896 -0.3814  0.2843
 2902SOL    HW1 9605   6.622   6.509   2.882 -0.6329 -1.2064  0.5852
 2902SOL    HW2 9606   6.629   6.465   2.725  0.3687  0.7956  0.0397
 2903SOL     OW 9607   2.848   5.094   2.916 -0.3043  0.0028  0.4418
 2903SOL    HW1 9608   2.933   5.046   2.895 -0.0309  1.2673 -1.5675
 2903SOL    HW2 9609   2.858   5.145   3.001  1.3431  0.9953 -0.3152
 2904SOL     OW 9610   5.788   3.023   3.234 -0.2166 -0.3291  0.1812
 2904SOL    HW1 9611   5.743   3.030   3.323 -0.1978 -0.6695  0.2165
 2904SOL    HW2 9612   5.777   2.931   3.198 -0.3036 -0.1648 -0.2141
 2905SOL     OW 9613   0.638   4.649   0.023  0.4112  0.9345  0.0038
 2905SOL    HW1 9614   0.690   4.695  -0.049  0.5261  0.7400 -0.0395
 2905SOL    HW2 9615   0.612   4.558  -0.009  2.5467 -0.1119  1.0900
 2906SOL     OW 9616   1.038   0.707   3.960  0.2795 -1.0484  0.3471
 2906SOL    HW1 9617   1.071   0.777   3.896  1.7308  0.6538  2.7990
 2906SOL    HW2 9618   1.111   0.642   3.980 -0.4756 -2.1769 -0.4128
 2907SOL     OW 9619   6.637   3.363   5.076  0.1280  0.4137  0.2271
 2907SOL    HW1 9620   6.623   3.373   4.977  1.1267 -2.0622 -0.2423
 2907SOL    HW2 9621   6.552   3.384   5.124 -0.0605  2.7686 -1.0343
 2908SOL     OW 9622   2.000   4.389   1.746 -0.3104  0.1888  0.7153
 2908SOL    HW1 9623   2.052   4.472   1.765  0.2822 -0.2042  0.8386
 2908SOL    HW2 9624   2.063   4.315   1.722 -0.8507 -0.1464  0.3066
 2909SOL     OW 9625   3.927   3.264   4.942  0.2636 -0.2931 -0.6040
 2909SOL    HW1 9626   3.971   3.323   4.874 -2.8742  2.4981 -0.4898
 2909SOL    HW2 9627   3.934   3.169   4.913  2.4098  0.4056 -2.7487
 2910SOL     OW 9628   0.577   5.835   2.647 -0.9794  0.0459 -0.2674
 2910SOL    HW1 9629   0.611   5.788   2.566  0.0188 -0.5030  0.4311
 2910SOL    HW2 9630   0.590   5.776   2.727 -1.2009  0.8846  0.4082
 2911SOL     OW 9631   0.047   2.651   1.925  0.8380 -0.4841  0.4852
 2911SOL    HW1 9632   0.086   2.602   1.847 -0.2905 -0.0453 -0.3786
 2911SOL    HW2 9633   0.003   2.585   1.987 -0.0335 -0.6478 -0.2950
 2912SOL     OW 9634   0.937   6.488   5.844 -0.6173  0.3026 -0.5067
 2912SOL    HW1 9635   1.003   6.462   5.773 -0.3232  2.8373 -1.2697
 2912SOL    HW2 9636   0.845   6.487   5.805 -0.4727  1.5336 -0.9305
 2913SOL     OW 9637   2.978   2.828   5.633  0.7390  0.6640 -0.8544
 2913SOL    HW1 9638   2.896   2.881   5.656  0.6519  0.6889 -1.2197
 2913SOL    HW2 9639   3.012   2.856   5.544 -0.2231 -0.9796 -1.7868
 2914SOL     OW 9640   0.023   4.868   3.293 -0.1036 -0.1301 -0.6658
 2914SOL    HW1 9641  -0.033   4.786   3.286  1.9338 -1.5435 -1.3082
 2914SOL    HW2 9642   0.080   4.863   3.375 -0.9559  1.3436  0.0602
 2915SOL     OW 9643   0.786   2.394   5.239 -0.4526  0.7517 -0.5631
 2915SOL    HW1 9644   0.793   2.317   5.175  0.0147  0.9084 -0.7036
 2915SOL    HW2 9645   0.702   2.384   5.293 -1.7644  1.4918 -2.3434
 2916SOL     OW 9646   0.088   6.183   6.458  0.0425 -0.0194 -0.2154
 2916SOL    HW1 9647   0.005   6.184   6.513 -1.1296 -1.3851 -1.8630
 2916SOL    HW2 9648   0.150   6.112   6.493  1.1420  1.8153  1.7789
 2917SOL     OW 9649   1.775   0.665   4.440  0.4011  0.4505  0.1675
 2917SOL    HW1 9650   1.710   0.732   4.473 -1.5011 -0.8399 -0.8038
 2917SOL    HW2 9651   1.766   0.581   4.494 -1.4676 -1.0470 -2.2864
 2918SOL     OW 9652   4.958   4.885   6.182  0.0981 -0.0602  0.3168
 2918SOL    HW1 9653   5.041   4.857   6.230  0.0714 -1.8137 -0.5809
 2918SOL    HW2 9654   4.882   4.827   6.212 -0.2015 -0.2976 -0.8601
 2919SOL     OW 9655   2.436   5.294   6.535  0.1007  0.0742  0.3884
 2919SOL    HW1 9656   2.442   5.390   6.564  1.1873  0.7698 -1.9509
 2919SOL    HW2 9657   2.466   5.235   6.610  0.6296  1.6264  1.4460
 2920SOL     OW 9658   5.925   5.674   1.891  0.7490 -0.0699  0.0920
 2920SOL    HW1 9659   5.851   5.737   1.914 -0.1732 -0.6489 -1.1653
 2920SOL    HW2 9660   5.943   5.678   1.793  0.7540 -1.6709  0.0115
 2921SOL     OW 9661   4.589   5.661   4.992 -0.4752 -0.3408  0.4906
 2921SOL    HW1 9662   4.614   5.599   4.918  2.8403  1.7305 -0.3174
 2921SOL    HW2 9663   4.513   5.719   4.963 -1.5161 -1.8363  0.1070
 2922SOL     OW 9664   3.240   1.850   0.172  0.1469  0.0653  0.0415
 2922SOL    HW1 9665   3.175   1.926   0.173 -0.3418 -0.3415 -0.5780
 2922SOL    HW2 9666   3.197   1.770   0.131  0.8173 -0.4102  0.2599
 2923SOL     OW 9667   2.045   1.012   2.095  0.6602  0.0620  0.2910
 2923SOL    HW1 9668   2.021   0.954   2.017  0.8380 -0.8689  0.9137
 2923SOL    HW2 9669   1.961   1.048   2.137  0.5691  0.6676 -0.3931
 2924SOL     OW 9670   5.142   1.520   4.219  0.8382  0.2249  0.2989
 2924SOL    HW1 9671   5.093   1.465   4.152  0.4152  0.6272  0.2795
 2924SOL    HW2 9672   5.204   1.461   4.271  0.5527 -0.2308  0.1281
 2925SOL     OW 9673   4.207   2.297   4.140  0.2685 -0.6376 -0.0219
 2925SOL    HW1 9674   4.253   2.219   4.183 -1.3045 -0.0871  2.9957
 2925SOL    HW2 9675   4.114   2.305   4.178 -0.7358  0.8846 -2.5752
 2926SOL     OW 9676   2.693   6.401   3.695 -0.3947 -0.0313 -0.2048
 2926SOL    HW1 9677   2.762   6.444   3.638 -0.8047  0.2385 -0.5027
 2926SOL    HW2 9678   2.636   6.341   3.639 -1.1308  0.6397 -0.1932
 2927SOL     OW 9679   0.747   5.186   0.650 -0.1431 -0.2705  0.3270
 2927SOL    HW1 9680   0.770   5.121   0.577 -0.5982 -1.4578  1.1965
 2927SOL    HW2 9681   0.829   5.205   0.704 -0.2585 -1.1531  0.8406
 2928SOL     OW 9682   0.744   6.115   1.136 -0.2531  0.2241 -0.4145
 2928SOL    HW1 9683   0.692   6.030   1.132 -0.1838  0.1369  0.4427
 2928SOL    HW2 9684   0.841   6.094   1.152 -0.6204  0.5245  2.7464
 2929SOL     OW 9685   2.871   1.783   4.911  0.3491 -0.5985 -0.1561
 2929SOL    HW1 9686   2.878   1.698   4.962 -1.0235 -1.0139 -0.6284
 2929SOL    HW2 9687   2.906   1.770   4.819  0.3583 -0.5749 -0.1564
 2930SOL     OW 9688   5.190   4.453   3.476  0.0638 -0.1306 -0.0914
 2930SOL    HW1 9689   5.149   4.513   3.545  2.0554  0.6816  0.4524
 2930SOL    HW2 9690   5.275   4.494   3.442  0.0949 -1.4076 -1.6883
 2931SOL     OW 9691   3.597   5.123   1.649 -0.1273 -0.2784  0.5450
 2931SOL    HW1 9692   3.593   5.083   1.741 -2.5473  0.0579  0.6489
 2931SOL    HW2 9693   3.543   5.067   1.586  1.8409 -0.7405 -0.8194
 2932SOL     OW 9694   3.355   6.613   5.166  0.1166  0.1201 -0.9728
 2932SOL    HW1 9695   3.381   6.523   5.203  0.4172  0.6668  0.1764
 2932SOL    HW2 9696   3.383   6.685   5.230 -2.2235  0.8922 -0.7055
 2933SOL     OW 9697   4.747   1.757   0.502  0.1230  0.3614 -0.1448
 2933SOL    HW1 9698   4.799   1.842   0.500 -2.0940  1.8023 -2.1362
 2933SOL    HW2 9699   4.679   1.762   0.576  0.6821 -0.1837  0.4242
 2934SOL     OW 9700   0.028   4.378   5.701  0.5212 -0.7574 -0.1917
 2934SOL    HW1 9701   0.052   4.354   5.607  0.7001 -1.1453 -0.0513
 2934SOL    HW2 9702   0.111   4.388   5.755  0.4724  0.7172 -0.3640
 2935SOL     OW 9703   2.463   5.362   4.346  0.2621 -0.3611 -0.3183
 2935SOL    HW1 9704   2.384   5.384   4.289  1.7528  0.3615 -2.2266
 2935SOL    HW2 9705   2.453   5.406   4.435 -0.1974  2.1768 -1.5177
 2936SOL     OW 9706   2.905   5.930   3.878  0.2902 -0.2706 -0.0818
 2936SOL    HW1 9707   2.950   6.019   3.871 -1.0827  0.7052  2.1457
 2936SOL    HW2 9708   2.846   5.916   3.798  1.3018  0.3396 -0.9515
 2937SOL     OW 9709   1.526   2.014   1.287  0.3022 -0.1644 -0.0621
 2937SOL    HW1 9710   1.586   1.972   1.220 -0.2693 -2.0044  0.5153
 2937SOL    HW2 9711   1.580   2.071   1.350  1.2124 -0.6067 -0.4350
 2938SOL     OW 9712   1.080   2.263   3.765  0.2843  0.7551  0.1986
 2938SOL    HW1 9713   1.120   2.334   3.708 -0.2601 -0.2339 -1.4697
 2938SOL    HW2 9714   0.996   2.230   3.723  0.1138 -0.3314  1.3503
 2939SOL     OW 9715   2.430   4.841   1.520 -0.2336  0.4170  0.1538
 2939SOL    HW1 9716   2.508   4.832   1.460 -1.3290 -0.6872 -1.1683
 2939SOL    HW2 9717   2.420   4.758   1.575 -1.7984 -0.5145 -1.4133
 2940SOL     OW 9718   4.737   5.784   0.517  0.2044  0.1750  0.3681
 2940SOL    HW1 9719   4.706   5.689   0.508 -0.3939  0.2664  1.3511
 2940SOL    HW2 9720   4.781   5.796   0.606  0.9732  0.6412 -0.0618
 2941SOL     OW 9721   3.215   4.872   5.392  0.1579 -0.0069 -0.2255
 2941SOL    HW1 9722   3.295   4.884   5.333  0.1865 -1.0831 -0.4174
 2941SOL    HW2 9723   3.136   4.846   5.337 -0.2848  0.8481 -0.0105
 2942SOL     OW 9724   6.038   0.539   2.139  0.5211 -0.1430  0.8572
 2942SOL    HW1 9725   5.965   0.479   2.172  1.6187 -2.1651 -0.1790
 2942SOL    HW2 9726   6.124   0.514   2.184  0.8963  1.0795  0.8350
 2943SOL     OW 9727   6.198   2.975   5.687 -0.0022  0.1561 -0.8356
 2943SOL    HW1 9728   6.107   2.946   5.717 -0.0824  0.3385 -0.9037
 2943SOL    HW2 9729   6.266   2.914   5.727 -0.0889  0.5459 -0.0844
 2944SOL     OW 9730   4.772   3.915   3.303 -0.1585 -0.3075 -0.2304
 2944SOL    HW1 9731   4.741   4.006   3.330  0.6044  0.4061 -1.6316
 2944SOL    HW2 9732   4.729   3.890   3.216  0.1840 -0.9791 -0.2143
 2945SOL     OW 9733   2.118   2.772   1.523  0.1223 -0.8380 -0.1176
 2945SOL    HW1 9734   2.094   2.856   1.572 -0.9523 -0.0747 -1.8598
 2945SOL    HW2 9735   2.174   2.714   1.583 -0.6220  0.2808  1.7739
 2946SOL     OW 9736   1.880   5.033   2.056  0.3011  0.2177 -0.4085
 2946SOL    HW1 9737   1.817   5.021   1.980 -0.5003 -0.2387  0.3152
 2946SOL    HW2 9738   1.928   4.947   2.073  1.4215  0.6485 -1.1816
 2947SOL     OW 9739   1.270   5.665   6.619 -0.1153 -0.0640 -0.4827
 2947SOL    HW1 9740   1.241   5.576   6.583  2.2365 -0.9788 -0.2624
 2947SOL    HW2 9741   1.264   5.733   6.546 -1.3239 -0.5068 -0.8280
 2948SOL     OW 9742   4.434   2.723   1.751  0.1485  0.4908 -0.0820
 2948SOL    HW1 9743   4.441   2.641   1.808 -0.5748  0.6315  0.2235
 2948SOL    HW2 9744   4.489   2.796   1.792  0.1982  0.3783  0.0558
 2949SOL     OW 9745   0.725   4.905   6.452 -0.1373  0.4777  0.1402
 2949SOL    HW1 9746   0.684   4.820   6.417 -0.2870  0.0103  1.3845
 2949SOL    HW2 9747   0.807   4.927   6.399 -0.4388 -0.1001 -0.5919
 2950SOL     OW 9748   6.838   1.503   5.084  0.3497  0.4744  0.3846
 2950SOL    HW1 9749   6.902   1.469   5.153 -0.2867  0.0856  0.7852
 2950SOL    HW2 9750   6.829   1.435   5.011  0.9623  0.8518 -0.0503
 2951SOL     OW 9751   5.684   0.407   2.799 -0.4796 -0.0997 -0.3311
 2951SOL    HW1 9752   5.676   0.443   2.706  2.3049 -0.9561 -0.9936
 2951SOL    HW2 9753   5.773   0.362   2.810 -1.2686 -1.1983  2.3670
 2952SOL     OW 9754   0.592   5.302   0.308  0.3271  0.4893  0.4375
 2952SOL    HW1 9755   0.688   5.274   0.304  0.7679  1.5625  2.2324
 2952SOL    HW2 9756   0.586   5.402   0.300 -0.5670  0.4978  0.9967
 2953SOL     OW 9757   4.208   5.120   1.900  0.4921  0.3672  0.5353
 2953SOL    HW1 9758   4.282   5.102   1.835  0.7290 -1.2290  1.2155
 2953SOL    HW2 9759   4.246   5.140   1.990  0.1729 -3.2094  1.6008
 2954SOL     OW 9760   1.725   2.366   0.788  0.5649 -0.0661 -0.1610
 2954SOL    HW1 9761   1.683   2.439   0.841  1.3324  1.2045 -1.2368
 2954SOL    HW2 9762   1.773   2.302   0.849 -1.6641 -0.7634  0.9579
 2955SOL     OW 9763   2.741   1.947   2.377 -0.2598 -0.3794 -1.3630
 2955SOL    HW1 9764   2.775   2.040   2.362  1.3356 -1.0226 -1.9589
 2955SOL    HW2 9765   2.817   1.887   2.401 -1.2889 -1.5170 -0.8126
 2956SOL     OW 9766   4.966   5.045   1.633 -0.1320 -0.3438 -0.4456
 2956SOL    HW1 9767   4.942   4.990   1.713  0.0988  0.6682  0.3304
 2956SOL    HW2 9768   4.921   5.007   1.552  0.0468 -1.6831  0.0631
 2957SOL     OW 9769   2.933   4.770   4.567  0.4499  0.2382 -0.4274
 2957SOL    HW1 9770   2.894   4.848   4.616  0.7470  1.7750 -2.4723
 2957SOL    HW2 9771   3.030   4.761   4.591  0.6943  1.2268 -0.9849
 2958SOL     OW 9772   4.301   6.427   4.080  0.0529 -0.1693  0.4045
 2958SOL    HW1 9773   4.206   6.411   4.051  0.2185  0.6034 -0.6179
 2958SOL    HW2 9774   4.304   6.501   4.146 -0.0865 -0.4346  0.7131
 2959SOL     OW 9775   4.517   0.399   5.495  0.1802 -0.0099  0.0897
 2959SOL    HW1 9776   4.507   0.364   5.588 -0.2496 -1.7788 -0.5752
 2959SOL    HW2 9777   4.609   0.376   5.462 -0.1803 -0.7561 -0.4294
 2960SOL     OW 9778   4.832   0.348   6.600 -0.5778 -0.5708 -0.2895
 2960SOL    HW1 9779   4.735   0.367   6.583 -0.4589 -0.0861 -0.4487
 2960SOL    HW2 9780   4.887   0.393   6.530 -0.0730  1.6749  1.4523
 2961SOL     OW 9781   1.104   1.012   5.130 -0.2167  0.3972 -0.4859
 2961SOL    HW1 9782   1.063   0.974   5.213  1.3167 -1.3708 -0.4799
 2961SOL    HW2 9783   1.141   1.103   5.150  0.2034 -0.0325  0.8121
 2962SOL     OW 9784   3.389   0.121   2.175 -0.3019  0.1647 -0.1792
 2962SOL    HW1 9785   3.443   0.170   2.107  0.6388  2.6825  2.2076
 2962SOL    HW2 9786   3.403   0.022   2.164  1.1640  0.5645 -2.4740
 2963SOL     OW 9787   2.790   1.524   3.683  0.0741 -0.0514 -0.0948
 2963SOL    HW1 9788   2.757   1.472   3.604 -2.8049  2.3465 -0.6591
 2963SOL    HW2 9789   2.757   1.481   3.767 -1.2742  0.1678 -0.4894
 2964SOL     OW 9790   1.769   6.756   0.736 -0.2112  0.3015 -0.4061
 2964SOL    HW1 9791   1.680   6.709   0.737 -0.0329 -0.0451  0.7320
 2964SOL    HW2 9792   1.805   6.758   0.643 -0.4597 -1.3827 -0.5625
 2965SOL     OW 9793   5.055   1.027   4.089  0.0734 -0.4089 -0.1665
 2965SOL    HW1 9794   5.136   0.998   4.038 -0.5231 -0.3491 -1.1710
 2965SOL    HW2 9795   5.012   0.948   4.131  0.7180 -0.4240  0.4988
 2966SOL     OW 9796   4.822   5.080   4.150 -0.4083  0.9422  0.4930
 2966SOL    HW1 9797   4.818   4.982   4.134 -0.4879  0.9366  0.5447
 2966SOL    HW2 9798   4.776   5.129   4.076  0.7814  1.0129 -0.2255
 2967SOL     OW 9799   5.537   5.154   5.896  0.0939  0.0184  0.1570
 2967SOL    HW1 9800   5.612   5.150   5.830 -1.8606 -1.1791 -2.1890
 2967SOL    HW2 9801   5.553   5.088   5.969  0.6337 -1.4205 -1.1953
 2968SOL     OW 9802   5.227   3.086   5.089  0.6659  0.2274 -0.3223
 2968SOL    HW1 9803   5.300   3.027   5.123  0.4636 -0.0035 -0.2849
 2968SOL    HW2 9804   5.140   3.037   5.092  0.7172  0.0133 -1.6732
 2969SOL     OW 9805   4.592   2.821   0.872  0.3252  0.3735 -0.0928
 2969SOL    HW1 9806   4.596   2.722   0.883  1.4782  0.4411  0.2277
 2969SOL    HW2 9807   4.504   2.847   0.832 -0.4981 -0.6589  0.9838
 2970SOL     OW 9808   5.450   2.784   5.419  0.4530 -0.1063  0.2200
 2970SOL    HW1 9809   5.358   2.795   5.383  0.7970  0.1181 -0.5967
 2970SOL    HW2 9810   5.454   2.820   5.512  0.1124  1.3574 -0.3191
 2971SOL     OW 9811   4.336   6.266   5.434 -0.1460 -0.8531  0.1012
 2971SOL    HW1 9812   4.244   6.305   5.433 -0.5329 -1.6813 -1.6359
 2971SOL    HW2 9813   4.332   6.172   5.469  0.5470  0.0459  2.8283
 2972SOL     OW 9814   5.487   2.675   6.806  0.4508 -0.7851 -0.3720
 2972SOL    HW1 9815   5.410   2.728   6.841 -0.6375 -2.0579 -0.7423
 2972SOL    HW2 9816   5.563   2.736   6.785 -0.3002  0.4597  0.3912
 2973SOL     OW 9817   3.944   6.387   0.939  0.6516 -0.0797  0.1541
 2973SOL    HW1 9818   4.008   6.362   0.866  1.5862  0.1409  0.8716
 2973SOL    HW2 9819   3.984   6.461   0.994 -0.3775  0.2934  0.4170
 2974SOL     OW 9820   4.770   1.766   4.583 -0.2261  0.3687 -0.2877
 2974SOL    HW1 9821   4.828   1.694   4.619 -0.8260 -1.3888 -2.5976
 2974SOL    HW2 9822   4.726   1.814   4.659 -0.3064 -2.1157  1.3549
 2975SOL     OW 9823   6.405   5.661   3.782 -0.2195  0.0455 -0.1640
 2975SOL    HW1 9824   6.472   5.589   3.797 -1.0760 -0.3292  2.4638
 2975SOL    HW2 9825   6.442   5.748   3.814 -0.3897  0.1340 -0.2097
 2976SOL     OW 9826   5.795   6.716   5.384  0.8349  0.2805  0.5939
 2976SOL    HW1 9827   5.765   6.806   5.417  3.5026  2.1233 -1.5641
 2976SOL    HW2 9828   5.753   6.698   5.295 -0.0449 -0.8904  1.2177
 2977SOL     OW 9829   6.189   6.481   1.779 -0.4282  0.2108 -0.5454
 2977SOL    HW1 9830   6.245   6.557   1.744  0.8174 -0.7333 -0.6855
 2977SOL    HW2 9831   6.159   6.502   1.872  0.4026  0.6278 -0.3611
 2978SOL     OW 9832   4.150   3.209   1.765  0.4091 -0.1736 -0.6536
 2978SOL    HW1 9833   4.101   3.149   1.828 -1.0762  0.7081 -0.9191
 2978SOL    HW2 9834   4.219   3.157   1.716  0.6286 -1.1823  0.6570
 2979SOL     OW 9835   6.642   1.970   4.973 -0.1290  0.8574  0.5888
 2979SOL    HW1 9836   6.733   1.939   4.944  0.7751  3.1043  0.8445
 2979SOL    HW2 9837   6.622   1.933   5.064  1.1095  1.3812  1.0918
 2980SOL     OW 9838   5.812   3.339   3.453  0.4186  0.1713  0.5132
 2980SOL    HW1 9839   5.781   3.432   3.472  1.5737  0.2404  2.2900
 2980SOL    HW2 9840   5.777   3.277   3.523 -0.9371 -0.9182 -1.0449
 2981SOL     OW 9841   0.890   5.862   2.210  0.5738 -0.0141 -0.0660
 2981SOL    HW1 9842   0.826   5.788   2.230  2.4407 -1.5239  0.6060
 2981SOL    HW2 9843   0.859   5.946   2.255 -1.3364 -0.4629 -0.4537
 2982SOL     OW 9844   5.619   6.551   3.083  0.2238 -0.2167  0.4031
 2982SOL    HW1 9845   5.539   6.579   3.136 -0.3659 -2.0941  0.5741
 2982SOL    HW2 9846   5.650   6.461   3.113  2.9492  0.7684  0.9015
 2983SOL     OW 9847   0.541   5.936   0.416 -0.3200 -0.2110 -0.1544
 2983SOL    HW1 9848   0.542   5.861   0.349  1.9934  0.3809 -0.8917
 2983SOL    HW2 9849   0.457   5.933   0.468 -1.0627 -2.2714 -1.3496
 2984SOL     OW 9850   3.670   3.072   5.236 -0.2739 -0.8637  0.3111
 2984SOL    HW1 9851   3.603   3.110   5.173 -1.8371 -1.0675  1.7701
 2984SOL    HW2 9852   3.729   3.007   5.188 -1.2674 -0.8542 -0.9586
 2985SOL     OW 9853   2.451   1.628   4.784 -0.4612  0.4934  0.1376
 2985SOL    HW1 9854   2.470   1.689   4.707 -1.2890  1.9260  1.0253
 2985SOL    HW2 9855   2.368   1.576   4.765 -0.8975  1.1458  0.2202
 2986SOL     OW 9856   1.293   0.708   3.361 -0.1698 -0.4262 -0.2544
 2986SOL    HW1 9857   1.281   0.627   3.417  2.3633  0.1638  1.3375
 2986SOL    HW2 9858   1.204   0.750   3.341 -1.5244 -3.4583 -1.0587
 2987SOL     OW 9859   5.470   3.473   3.361 -0.5842  0.5518 -0.7313
 2987SOL    HW1 9860   5.524   3.392   3.339 -2.3705 -1.2121  1.0086
 2987SOL    HW2 9861   5.524   3.532   3.422 -0.4205 -0.9829  0.6786
 2988SOL     OW 9862   1.981   4.779   2.023  0.3370 -0.0913 -0.1495
 2988SOL    HW1 9863   1.942   4.692   2.050 -1.2875  0.6264 -0.0744
 2988SOL    HW2 9864   2.051   4.764   1.953  0.6269 -1.4838  0.3991
 2989SOL     OW 9865   5.504   5.428   6.384  0.7598  0.0605 -0.4683
 2989SOL    HW1 9866   5.420   5.389   6.422  1.5260 -0.1839  1.0020
 2989SOL    HW2 9867   5.480   5.506   6.326 -0.5163 -0.3223 -0.4871
 2990SOL     OW 9868   0.651   0.920   4.372 -0.0008 -0.6474 -0.2712
 2990SOL    HW1 9869   0.579   0.854   4.349 -0.6840 -0.4679  1.2393
 2990SOL    HW2 9870   0.614   1.013   4.368 -0.0886 -0.5981  1.2244
 2991SOL     OW 9871   4.556   0.522   3.475  0.3150 -0.3298 -0.1248
 2991SOL    HW1 9872   4.477   0.584   3.472  0.2229 -0.4322  0.1665
 2991SOL    HW2 9873   4.544   0.449   3.408  1.0506  0.7101 -1.4430
 2992SOL     OW 9874   3.119   2.375   6.196 -0.1527 -0.0563 -0.4493
 2992SOL    HW1 9875   3.162   2.323   6.122 -1.2378  0.1995 -1.2912
 2992SOL    HW2 9876   3.019   2.371   6.186 -0.3340 -0.1073  1.0755
 2993SOL     OW 9877   1.686   4.776   6.362 -0.1498 -0.9718  0.0167
 2993SOL    HW1 9878   1.674   4.684   6.400 -1.3152 -0.1742  1.6984
 2993SOL    HW2 9879   1.629   4.786   6.280 -2.9575 -0.6700  1.8656
 2994SOL     OW 9880   5.027   6.289   4.465  0.3998  0.0559  0.1870
 2994SOL    HW1 9881   5.050   6.376   4.509  0.0033  0.3682 -0.2097
 2994SOL    HW2 9882   4.965   6.306   4.388  1.6517 -0.4083 -0.9543
 2995SOL     OW 9883   0.193   6.997   4.618 -0.0163  0.5108  0.4819
 2995SOL    HW1 9884   0.249   6.987   4.700 -0.6156  3.8743  1.4575
 2995SOL    HW2 9885   0.252   7.021   4.540  0.4812 -2.1137 -0.0537
 2996SOL     OW 9886   1.083   1.812   5.236  0.3077 -0.6027  0.6836
 2996SOL    HW1 9887   1.114   1.751   5.163 -0.1060  0.5830 -0.5256
 2996SOL    HW2 9888   0.996   1.853   5.210  0.1789 -0.1205  1.8369
 2997SOL     OW 9889   1.351   1.389   3.182  0.0866 -0.1323 -0.7164
 2997SOL    HW1 9890   1.385   1.341   3.262  2.5012  1.8232 -0.4188
 2997SOL    HW2 9891   1.270   1.443   3.206  0.0900 -0.4785  0.0838
 2998SOL     OW 9892   4.764   5.973   6.064  0.1423  0.2205 -0.0889
 2998SOL    HW1 9893   4.840   5.972   6.130 -2.3579 -0.0501  3.0705
 2998SOL    HW2 9894   4.710   5.890   6.075 -1.3465  0.9873 -1.3354
 2999SOL     OW 9895   4.379   3.827   0.707 -0.0934 -0.1509 -0.5338
 2999SOL    HW1 9896   4.340   3.735   0.699 -0.6805 -0.1346  1.6946
 2999SOL    HW2 9897   4.479   3.820   0.707 -0.0832 -1.1584  2.3757
 3000SOL     OW 9898   1.292   3.413   4.192 -0.1869  0.2593  0.5271
 3000SOL    HW1 9899   1.332   3.322   4.190 -0.1499  0.2905 -0.8626
 3000SOL    HW2 9900   1.208   3.411   4.247 -0.5268 -0.7517 -0.0044
 3001SOL     OW 9901   5.362   6.010   0.731  0.2754 -0.2610 -0.0275
 3001SOL    HW1 9902   5.331   6.053   0.815 -0.0039 -2.1755  0.8919
 3001SOL    HW2 9903   5.430   5.940   0.752 -0.3544 -1.3005 -1.3052
 3002SOL     OW 9904   2.357   6.588   4.828 -0.1612  0.6237 -0.1823
 3002SOL    HW1 9905   2.437   6.560   4.881 -0.8342  1.6359  1.4410
 3002SOL    HW2 9906   2.380   6.588   4.730  1.4641 -0.1680  0.1667
 3003SOL     OW 9907   0.312   4.422   2.796 -0.2576  0.5164 -0.0228
 3003SOL    HW1 9908   0.388   4.483   2.774 -0.6021  1.2278  0.6863
 3003SOL    HW2 9909   0.225   4.469   2.777 -0.5205  0.0389 -0.0076
 3004SOL     OW 9910   1.968   4.370   1.080 -0.3743 -0.2359 -0.9225
 3004SOL    HW1 9911   1.885   4.419   1.109 -1.2372 -0.4473 -2.9292
 3004SOL    HW2 9912   2.040   4.437   1.062 -0.1789 -0.0276  0.4685
 3005SOL     OW 9913   3.357   4.954   6.601  0.1058  0.0698  0.0973
 3005SOL    HW1 9914   3.274   5.009   6.592  1.9051  3.0719  0.7492
 3005SOL    HW2 9915   3.428   4.990   6.541  1.5362 -1.3164  0.8594
 3006SOL     OW 9916   2.290   4.138   6.844 -0.6911  0.1776 -0.0241
 3006SOL    HW1 9917   2.331   4.055   6.806  0.6481 -0.1154  1.8935
 3006SOL    HW2 9918   2.313   4.217   6.788  0.6213 -0.3241 -0.2135
 3007SOL     OW 9919   4.126   3.608   4.195  0.5832 -0.2285 -0.0406
 3007SOL    HW1 9920   4.224   3.598   4.181  0.9391  0.5104  1.6478
 3007SOL    HW2 9921   4.100   3.565   4.281 -0.6567 -0.7805 -0.6745
 3008SOL     OW 9922   1.897   2.102   0.354  0.8377 -0.2915 -0.2699
 3008SOL    HW1 9923   1.946   2.178   0.311  0.8873  0.0887  0.4505
 3008SOL    HW2 9924   1.946   2.072   0.436  0.2488 -0.3811  0.0573
 3009SOL     OW 9925   0.685   2.618   2.058  0.0904 -0.3695  0.5095
 3009SOL    HW1 9926   0.671   2.711   2.092  2.3441  0.9784 -1.8819
 3009SOL    HW2 9927   0.773   2.583   2.089 -0.1004 -1.1417  0.2299
 3010SOL     OW 9928   4.840   6.910   5.351 -0.5016 -0.3877  0.6429
 3010SOL    HW1 9929   4.915   6.849   5.323  0.1420  0.3669  0.7093
 3010SOL    HW2 9930   4.757   6.855   5.365  0.2375 -1.3556  1.3887
 3011SOL     OW 9931   2.871   0.540   2.864 -0.0366  0.4680 -0.0219
 3011SOL    HW1 9932   2.779   0.509   2.887  0.5821 -0.0729  1.8835
 3011SOL    HW2 9933   2.937   0.495   2.922  1.2325  2.6747  0.3726
 3012SOL     OW 9934   6.146   5.385   4.085 -0.3671 -0.2659  0.3299
 3012SOL    HW1 9935   6.189   5.322   4.149 -0.9799  1.0257  2.0915
 3012SOL    HW2 9936   6.048   5.367   4.080 -0.1086 -1.4284 -1.5831
 3013SOL     OW 9937   1.725   0.066   1.406 -0.1919 -0.1462  1.1398
 3013SOL    HW1 9938   1.797  -0.001   1.427 -1.2716 -0.6689  3.5878
 3013SOL    HW2 9939   1.708   0.067   1.308  4.0946  1.0275  0.1995
 3014SOL     OW 9940   1.408   1.965   2.975 -0.0610 -0.0981 -0.0916
 3014SOL    HW1 9941   1.401   2.063   2.994 -1.1497  0.6834 -3.7429
 3014SOL    HW2 9942   1.504   1.940   2.969  0.2753  1.2105 -0.7867
 3015SOL     OW 9943   6.051   5.704   2.192  0.3507  0.4254  0.1941
 3015SOL    HW1 9944   6.012   5.700   2.100  0.0600 -2.5545  0.3523
 3015SOL    HW2 9945   5.981   5.734   2.256 -0.9914 -2.0591  0.0418
 3016SOL     OW 9946   0.329   3.441   0.308  0.2220 -0.2195  0.8290
 3016SOL    HW1 9947   0.341   3.535   0.277 -1.1948 -0.1316  0.4431
 3016SOL    HW2 9948   0.377   3.379   0.246  1.6480  0.2647  1.4156
 3017SOL     OW 9949   5.461   2.778   1.585 -0.0611  0.4706 -0.1451
 3017SOL    HW1 9950   5.400   2.699   1.590  0.3597  0.1939  0.7735
 3017SOL    HW2 9951   5.495   2.788   1.491 -0.1746 -0.3990 -0.2857
 3018SOL     OW 9952   5.966   2.146   1.099  0.0476 -0.0862  0.3000
 3018SOL    HW1 9953   5.979   2.242   1.123  0.1698  0.1152 -0.5387
 3018SOL    HW2 9954   5.994   2.088   1.175 -2.5106  0.5850  1.8755
 3019SOL     OW 9955   5.247   4.734   5.348  0.4237 -0.4068  0.0174
 3019SOL    HW1 9956   5.153   4.761   5.368  0.6502 -0.2390  0.8764
 3019SOL    HW2 9957   5.272   4.656   5.404  1.0650  0.0638  0.4000
 3020SOL     OW 9958   3.726   3.345   2.864 -0.7892 -0.4823  0.8801
 3020SOL    HW1 9959   3.652   3.405   2.837 -0.6315 -0.6952 -0.0638
 3020SOL    HW2 9960   3.789   3.393   2.926  0.4736  1.0495 -1.4628
 3021SOL     OW 9961   0.398   6.790   2.678 -0.2918  0.4066  0.1532
 3021SOL    HW1 9962   0.378   6.726   2.604  0.5537 -1.1298  1.1822
 3021SOL    HW2 9963   0.494   6.819   2.672  0.6685 -1.9286  2.1022
 3022SOL     OW 9964   4.415   5.062   4.825 -0.0935  0.3826 -0.4077
 3022SOL    HW1 9965   4.416   4.975   4.874 -0.8170  0.7435  0.2810
 3022SOL    HW2 9966   4.467   5.053   4.741 -0.4768 -0.8296 -0.5406
 3023SOL     OW 9967   6.004   0.769   0.775 -0.0925 -0.5926 -0.4539
 3023SOL    HW1 9968   5.915   0.744   0.737 -0.5803 -0.2607  0.4481
 3023SOL    HW2 9969   6.035   0.698   0.838  0.8108 -1.2408 -1.5893
 3024SOL     OW 9970   6.374   2.186   6.480  0.3616  0.2455  0.3184
 3024SOL    HW1 9971   6.368   2.090   6.451  1.8207 -0.5560  2.4270
 3024SOL    HW2 9972   6.470   2.215   6.482 -0.0965  2.0606 -1.0500
 3025SOL     OW 9973   2.049   1.318   0.829  0.6760 -0.3926  0.9150
 3025SOL    HW1 9974   2.053   1.358   0.737  0.5971 -0.3330  0.9380
 3025SOL    HW2 9975   1.954   1.310   0.858  0.6984 -0.4650  0.9685
 3026SOL     OW 9976   3.235   5.394   6.947 -0.5658  0.3617  0.2437
 3026SOL    HW1 9977   3.164   5.337   6.907  0.8481 -0.7350 -0.8091
 3026SOL    HW2 9978   3.293   5.432   6.874  0.6560  0.2212  1.1000
 3027SOL     OW 9979   4.649   5.084   2.814  0.2964 -0.5809 -0.5637
 3027SOL    HW1 9980   4.645   5.011   2.882  1.6177  0.3564  0.5846
 3027SOL    HW2 9981   4.744   5.098   2.786  0.5396  2.3570  1.2279
 3028SOL     OW 9982   3.639   1.538   0.865 -0.7745 -0.4922 -0.3529
 3028SOL    HW1 9983   3.606   1.608   0.802 -2.5436 -1.1613 -0.2203
 3028SOL    HW2 9984   3.631   1.448   0.822 -0.1588 -0.7742  0.1134
 3029SOL     OW 9985   3.085   2.904   1.804 -0.5966 -0.5030 -0.4728
 3029SOL    HW1 9986   3.158   2.839   1.786 -0.7317 -0.6862 -0.3689
 3029SOL    HW2 9987   3.005   2.881   1.747 -1.5185 -1.9185  1.3066
 3030SOL     OW 9988   2.318   1.385   2.178 -0.3521  0.3022 -0.2743
 3030SOL    HW1 9989   2.299   1.445   2.101 -1.5963 -0.0150 -0.2264
 3030SOL    HW2 9990   2.315   1.437   2.263  1.1142  0.6716 -0.4146
 3031SOL     OW 9991   6.097   4.901   0.192 -0.0317  0.0331 -0.5445
 3031SOL    HW1 9992   6.141   4.871   0.277  0.7577 -0.0356 -0.9620
 3031SOL    HW2 9993   6.081   5.000   0.197 -0.4845 -0.0596 -0.1025
 3032SOL     OW 9994   3.335   6.094   4.490 -0.2272  0.5707 -0.4918
 3032SOL    HW1 9995   3.346   6.022   4.422  2.2361 -1.6887  2.0253
 3032SOL    HW2 9996   3.271   6.064   4.560  1.5079  0.3138  1.0686
 3033SOL     OW 9997   1.441   6.474   5.203  0.4119  0.5895  0.2806
 3033SOL    HW1 9998   1.474   6.403   5.140 -1.0830 -0.0113  0.1405
 3033SOL    HW2 9999   1.343   6.488   5.189 -0.0060  0.3437  2.5407
 3034SOL     OW10000   2.078   5.134   3.628  0.5980  0.0153 -0.1606
 3034SOL    HW110001   2.109   5.172   3.540  3.5305 -0.3548  0.6144
 3034SOL    HW210002   2.002   5.189   3.662  0.6468  1.3436 -2.0011
 3035SOL     OW10003   2.990   2.899   1.428 -0.4210  0.4078  0.0626
 3035SOL    HW110004   3.054   2.867   1.357  0.4764 -0.2957  1.1518
 3035SOL    HW210005   3.025   2.984   1.468  0.0715 -0.1938  0.9425
 3036SOL     OW10006   4.566   3.105   0.403  0.4178  0.0414  0.4293
 3036SOL    HW110007   4.605   3.102   0.495 -0.5782  0.1968  0.8669
 3036SOL    HW210008   4.640   3.114   0.336  1.2698 -1.5197  1.0949
 3037SOL     OW10009   4.843   4.588   3.903 -0.3775 -0.3934 -0.1864
 3037SOL    HW110010   4.769   4.529   3.933 -0.6384  0.7169  1.5428
 3037SOL    HW210011   4.923   4.533   3.879 -0.9045 -1.4720  0.4781
 3038SOL     OW10012   0.949   6.665   4.236  0.9388 -0.0525 -0.5337
 3038SOL    HW110013   0.892   6.668   4.154  2.2482 -3.1515 -1.7319
 3038SOL    HW210014   0.905   6.609   4.306  1.4230 -0.4647 -0.5492
 3039SOL     OW10015   5.414   4.270   3.158  0.4577 -0.2385 -0.2936
 3039SOL    HW110016   5.502   4.237   3.126  1.2219  0.9841  0.4543
 3039SOL    HW210017   5.383   4.216   3.236 -0.2907 -1.7260 -1.5530
 3040SOL     OW10018   3.965   2.000   5.754  0.4263  0.5863 -0.3337
 3040SOL    HW110019   3.883   1.949   5.780 -0.3773  0.8831 -2.1053
 3040SOL    HW210020   3.942   2.097   5.748  1.2593  0.8374  0.4161
 3041SOL     OW10021   4.486   2.281   1.749  0.1442  0.3496 -0.5853
 3041SOL    HW110022   4.449   2.197   1.788 -2.1384  1.1861 -0.8408
 3041SOL    HW210023   4.565   2.259   1.692 -0.5563 -1.6401 -0.8578
 3042SOL     OW10024   1.521   0.526   4.960 -0.1468  0.8755  0.0571
 3042SOL    HW110025   1.564   0.607   5.002 -0.3414  1.3636 -0.6639
 3042SOL    HW210026   1.469   0.555   4.880  0.0077 -0.0123 -0.3675
 3043SOL     OW10027   0.321   3.999   6.117  0.0668 -0.1296  0.0106
 3043SOL    HW110028   0.322   3.918   6.177 -0.7053  0.5758  1.0049
 3043SOL    HW210029   0.415   4.021   6.090  0.6804  0.5897  2.4505
 3044SOL     OW10030   2.909   6.412   1.339  0.2082 -0.5720 -0.3436
 3044SOL    HW110031   2.992   6.444   1.293  0.7100 -0.6811  0.4644
 3044SOL    HW210032   2.829   6.442   1.287  0.6678  1.3768 -0.0276
 3045SOL     OW10033   3.074   0.975   2.258  0.3788  0.4558  0.3560
 3045SOL    HW110034   3.003   0.906   2.271  2.1709 -1.5377  0.2729
 3045SOL    HW210035   3.080   0.999   2.161 -0.3973  0.9180  0.4152
 3046SOL     OW10036   5.436   3.014   6.772  0.7574 -0.1075 -0.1964
 3046SOL    HW110037   5.367   2.966   6.827 -0.6368 -0.1454 -1.9175
 3046SOL    HW210038   5.524   2.966   6.781 -0.0681 -1.6762 -0.0976
 3047SOL     OW10039   3.710   1.393   3.940  0.4847  0.0420 -0.1473
 3047SOL    HW110040   3.764   1.413   3.859  0.0521  0.5990 -0.3045
 3047SOL    HW210041   3.726   1.463   4.010  1.2736 -0.7294  0.4663
 3048SOL     OW10042   5.666   0.779   2.057 -0.1981  0.2637  0.1720
 3048SOL    HW110043   5.647   0.693   2.008  0.2057 -0.2609  0.9156
 3048SOL    HW210044   5.582   0.812   2.100 -0.5942  0.8133 -0.9823
 3049SOL     OW10045   1.280   5.968   5.376 -0.1317 -0.2101 -0.0342
 3049SOL    HW110046   1.379   5.972   5.365  0.1834 -1.3877  2.0179
 3049SOL    HW210047   1.236   6.021   5.303  1.9773  0.1510 -1.0962
 3050SOL     OW10048   1.537   0.845   1.665  0.3158 -0.2530 -0.5876
 3050SOL    HW110049   1.441   0.827   1.646 -0.1120  1.4512 -0.1780
 3050SOL    HW210050   1.584   0.865   1.579  0.0741 -0.0738 -0.6789
 3051SOL     OW10051   1.190   1.288   1.562 -0.3985 -0.5010 -0.0814
 3051SOL    HW110052   1.176   1.201   1.610 -1.4948  0.1470  0.8195
 3051SOL    HW210053   1.287   1.299   1.542 -0.4828 -3.1560 -2.6228
 3052SOL     OW10054   4.951   0.863   2.429  0.5294 -0.0625  0.3517
 3052SOL    HW110055   4.980   0.849   2.523  2.6745  2.1034  0.1009
 3052SOL    HW210056   4.971   0.781   2.375  2.6461 -0.0778  1.0677
 3053SOL     OW10057   1.299   3.532   4.860 -0.0945  0.8646  1.0196
 3053SOL    HW110058   1.360   3.455   4.878  0.0440  0.2279 -1.7748
 3053SOL    HW210059   1.321   3.607   4.922  3.2735  0.5150  0.4367
 3054SOL     OW10060   5.686   0.630   4.020 -0.0974  0.0116  0.4907
 3054SOL    HW110061   5.760   0.668   3.964 -0.3940  0.1392  0.1827
 3054SOL    HW210062   5.638   0.705   4.066  0.2087 -0.0979  1.0055
 3055SOL     OW10063   4.652   5.521   0.554  0.9145  0.1065  0.2860
 3055SOL    HW110064   4.562   5.505   0.515  0.7734 -0.9675  1.0031
 3055SOL    HW210065   4.672   5.451   0.623  3.1506 -0.9502 -1.3079
 3056SOL     OW10066   2.507   1.061   4.071  0.6230 -0.3127 -0.0646
 3056SOL    HW110067   2.455   0.976   4.065  2.0652 -1.1639 -1.1061
 3056SOL    HW210068   2.603   1.043   4.050  0.8885  1.6573 -0.7085
 3057SOL     OW10069   0.388   3.121   1.039 -0.0924  0.3169 -0.7251
 3057SOL    HW110070   0.340   3.209   1.047  1.2422  1.0698 -0.7646
 3057SOL    HW210071   0.322   3.050   1.014 -1.2886  1.2003 -0.2216
 3058SOL     OW10072   6.370   2.148   5.634 -0.0108  0.0383  0.6051
 3058SOL    HW110073   6.293   2.147   5.697  0.2628  0.5137  0.9615
 3058SOL    HW210074   6.403   2.243   5.623 -0.4421  0.0550 -0.7359
 3059SOL     OW10075   0.827   1.165   4.834 -0.6383  0.2267  0.1167
 3059SOL    HW110076   0.760   1.181   4.907 -0.6508 -2.4800  0.8293
 3059SOL    HW210077   0.812   1.230   4.759 -1.3928  2.3157  1.9692
 3060SOL     OW10078   1.214   0.503   4.005  0.0058  0.1150  0.4620
 3060SOL    HW110079   1.302   0.497   4.053  0.1458  2.1009  0.5567
 3060SOL    HW210080   1.168   0.414   4.008  1.1429 -0.4761  2.0797
 3061SOL     OW10081   5.482   3.201   3.200  0.5202 -0.1264 -0.3069
 3061SOL    HW110082   5.570   3.223   3.158  0.4282  1.2499  0.1817
 3061SOL    HW210083   5.497   3.159   3.290  0.7028 -2.5052 -1.3842
 3062SOL     OW10084   4.502   6.567   2.173  0.7268  0.3546  0.0499
 3062SOL    HW110085   4.488   6.665   2.167  2.1829  0.5004 -1.6925
 3062SOL    HW210086   4.498   6.526   2.082  1.1721 -1.0476  0.6283
 3063SOL     OW10087   4.267   1.472   3.751  0.1581  0.6263  0.1125
 3063SOL    HW110088   4.270   1.374   3.768  0.1668  0.3528 -1.3570
 3063SOL    HW210089   4.198   1.514   3.810 -0.8238 -0.4754 -0.2135
 3064SOL     OW10090   6.169   3.681   2.323 -0.3417 -0.4686 -0.0024
 3064SOL    HW110091   6.080   3.648   2.291 -0.1037 -0.2916 -0.8821
 3064SOL    HW210092   6.168   3.781   2.328 -0.3798 -0.4949  0.5734
 3065SOL     OW10093   5.983   3.388   2.636 -0.2160 -0.0178  0.0026
 3065SOL    HW110094   6.060   3.452   2.643  1.0986 -1.5375  0.2320
 3065SOL    HW210095   5.900   3.438   2.610  0.8220  1.6936 -0.2171
 3066SOL     OW10096   5.195   2.726   5.583 -0.2250  0.4008 -0.0189
 3066SOL    HW110097   5.276   2.700   5.530  0.1738  1.8205 -0.1320
 3066SOL    HW210098   5.177   2.656   5.653  0.5350 -0.3923 -0.6021
 3067SOL     OW10099   0.336   5.582   6.194  0.0094 -0.4080 -0.8140
 3067SOL    HW110100   0.363   5.602   6.099 -0.0428 -0.7715 -0.9046
 3067SOL    HW210101   0.281   5.499   6.196 -0.7724  0.1026 -0.5857
 3068SOL     OW10102   2.970   3.204   4.699  0.5312 -0.3560 -0.1031
 3068SOL    HW110103   2.972   3.121   4.753  1.6631  0.4603  1.1580
 3068SOL    HW210104   2.907   3.192   4.622 -0.6543 -1.7434  1.0370
 3069SOL     OW10105   2.994   3.240   4.369  0.3000 -0.3728  0.4532
 3069SOL    HW110106   2.929   3.261   4.295 -1.4243 -0.1103  1.9682
 3069SOL    HW210107   3.059   3.171   4.338 -1.6039 -1.7460 -0.7150
 3070SOL     OW10108   3.153   3.499   3.535 -0.2695 -0.3863 -0.3851
 3070SOL    HW110109   3.213   3.562   3.584 -0.3712 -2.1404  2.1904
 3070SOL    HW210110   3.082   3.551   3.488  0.1139  1.4671  0.9553
 3071SOL     OW10111   3.781   0.357   0.498 -0.3663 -0.3708 -0.5327
 3071SOL    HW110112   3.696   0.343   0.448  0.0687 -1.2020 -1.0709
 3071SOL    HW210113   3.797   0.280   0.560 -0.9383  0.6807  0.9992
 3072SOL     OW10114   2.172   3.205   3.864  0.3772  0.0857  0.0609
 3072SOL    HW110115   2.174   3.193   3.765 -0.3470 -1.2485  0.1867
 3072SOL    HW210116   2.242   3.271   3.891  0.6918  0.3432 -1.3172
 3073SOL     OW10117   0.991   1.389   5.456 -0.6634 -0.4710  0.4554
 3073SOL    HW110118   1.035   1.343   5.378 -0.2612  1.4377 -0.4988
 3073SOL    HW210119   0.895   1.407   5.434 -0.2307  1.2317 -0.1864
 3074SOL     OW10120   4.585   6.801   3.537  0.3822  0.4397  0.1037
 3074SOL    HW110121   4.641   6.784   3.457  2.4849  0.2383  1.5264
 3074SOL    HW210122   4.604   6.733   3.607 -1.4127  0.5904  0.8066
 3075SOL     OW10123   3.007   5.554   5.938 -0.1178 -0.3542 -0.3359
 3075SOL    HW110124   3.033   5.627   6.000 -0.5489 -0.7876  0.3630
 3075SOL    HW210125   3.062   5.473   5.955 -1.8782 -1.2991  1.1991
 3076SOL     OW10126   6.480   1.246   5.209 -0.6569 -0.3998 -0.5623
 3076SOL    HW110127   6.554   1.201   5.259  0.1361  1.7719  0.3358
 3076SOL    HW210128   6.496   1.238   5.111 -0.6369 -2.1338 -0.4572
 3077SOL     OW10129   4.383   6.174   4.616 -0.2523  0.6694 -0.1618
 3077SOL    HW110130   4.444   6.170   4.695 -0.5579  1.9316  0.1503
 3077SOL    HW210131   4.438   6.174   4.532  0.0582 -1.3179 -0.0132
 3078SOL     OW10132   3.179   0.132   4.221 -0.1912 -0.0672  0.0642
 3078SOL    HW110133   3.121   0.182   4.157 -0.8987  0.0670  0.7946
 3078SOL    HW210134   3.140   0.139   4.313  0.6376 -0.5232  0.4546
 3079SOL     OW10135   2.761   4.474   5.635 -0.2727 -0.2484  0.5235
 3079SOL    HW110136   2.703   4.395   5.615 -0.4531 -0.4602  1.8112
 3079SOL    HW210137   2.763   4.535   5.556 -0.9319 -1.0434 -0.1249
 3080SOL     OW10138   4.685   2.210   5.527  0.2468 -0.2827 -0.6917
 3080SOL    HW110139   4.716   2.235   5.619 -1.6681  0.0956 -0.1052
 3080SOL    HW210140   4.638   2.121   5.530  1.1125 -0.7915 -1.5243
 3081SOL     OW10141   4.427   2.439   3.786  0.0372  0.1981 -0.1488
 3081SOL    HW110142   4.482   2.514   3.749  2.5883 -1.6050 -0.3181
 3081SOL    HW210143   4.405   2.375   3.713 -1.2254  0.2384  0.1764
 3082SOL     OW10144   3.754   1.531   5.321 -0.1434  0.2692  0.3618
 3082SOL    HW110145   3.665   1.577   5.328 -0.1229  0.2912  0.4755
 3082SOL    HW210146   3.821   1.594   5.280 -0.2295  0.1853  0.0905
 3083SOL     OW10147   5.411   5.216   3.145  0.2034  0.0976 -0.2180
 3083SOL    HW110148   5.333   5.272   3.175 -0.0711 -0.7420  0.7138
 3083SOL    HW210149   5.426   5.143   3.212  1.5044 -0.0332 -0.6368
 3084SOL     OW10150   3.074   0.356   3.408  0.3707  0.1007 -0.0111
 3084SOL    HW110151   3.084   0.282   3.342  0.2206  0.5987 -0.6022
 3084SOL    HW210152   3.059   0.442   3.360 -3.2614  0.0048  0.6587
 3085SOL     OW10153   3.231   2.641   6.241 -0.0182 -0.1258 -0.1420
 3085SOL    HW110154   3.316   2.593   6.219 -0.2385 -0.3082 -0.6206
 3085SOL    HW210155   3.155   2.577   6.235 -0.2651  0.1870 -0.3671
 3086SOL     OW10156   6.873   0.321   5.664  0.2124  0.3561  0.3576
 3086SOL    HW110157   6.802   0.288   5.726 -0.4092  0.2836 -0.3778
 3086SOL    HW210158   6.963   0.313   5.708 -0.1155 -0.6270  0.8710
 3087SOL     OW10159   3.666   6.197   6.338  0.0817  0.0922 -0.7704
 3087SOL    HW110160   3.649   6.118   6.396  1.7576 -0.2082 -0.6317
 3087SOL    HW210161   3.623   6.183   6.248 -0.4393 -0.5346 -0.4274
 3088SOL     OW10162   0.781   5.673   0.370 -0.1756 -0.3891  0.1882
 3088SOL    HW110163   0.735   5.715   0.448  0.9071 -0.0137  0.6598
 3088SOL    HW210164   0.876   5.654   0.395 -0.2913 -1.9281 -0.4631
 3089SOL     OW10165   6.787   3.473   6.145  0.3484 -0.5037  0.1314
 3089SOL    HW110166   6.868   3.415   6.145  0.5275 -0.2910 -1.0453
 3089SOL    HW210167   6.719   3.437   6.081 -0.0005 -0.0385  0.2277
 3090SOL     OW10168   5.639   3.205   0.256 -0.2075 -0.0794  0.8590
 3090SOL    HW110169   5.608   3.221   0.162  1.5056 -0.1453  0.2541
 3090SOL    HW210170   5.561   3.214   0.318 -1.0467  1.7220 -0.3646
 3091SOL     OW10171   1.100   2.036   3.898  0.6813  0.3013  0.0886
 3091SOL    HW110172   1.089   2.124   3.853 -0.7903  0.0333 -0.1414
 3091SOL    HW210173   1.057   1.965   3.843  1.0726 -0.4189  0.7013
 3092SOL     OW10174   4.642   5.866   0.856  0.2096  0.0150 -0.4011
 3092SOL    HW110175   4.563   5.865   0.795  0.0777 -1.5405 -0.2547
 3092SOL    HW210176   4.614   5.901   0.946 -0.7451 -1.9104  0.1171
 3093SOL     OW10177   0.582   2.490   4.185 -0.8590 -0.0960 -0.3944
 3093SOL    HW110178   0.640   2.566   4.215 -0.8058 -0.2787 -0.0355
 3093SOL    HW210179   0.487   2.511   4.207 -1.0054  0.4450 -1.4645
 3094SOL     OW10180   6.568   5.217   3.992  0.6373  0.0628 -0.2496
 3094SOL    HW110181   6.631   5.140   4.003  1.9358  0.8598 -1.7685
 3094SOL    HW210182   6.558   5.265   4.080  1.1406 -0.8195  0.3025
 3095SOL     OW10183   4.649   6.889   2.649  0.2195 -0.2882 -0.5525
 3095SOL    HW110184   4.680   6.798   2.623 -1.1680 -0.6685 -0.9610
 3095SOL    HW210185   4.663   6.953   2.573  2.4165  0.1772  0.1881
 3096SOL     OW10186   3.142   0.167   6.530 -0.1112 -0.6077 -0.2922
 3096SOL    HW110187   3.200   0.248   6.528 -0.3270 -0.4608 -0.6069
 3096SOL    HW210188   3.199   0.085   6.537  0.1401 -0.4779 -0.7920
 3097SOL     OW10189   6.357   6.738   3.765  0.3245 -0.4160  0.7068
 3097SOL    HW110190   6.333   6.827   3.804  0.9868 -0.1458  0.5143
 3097SOL    HW210191   6.281   6.674   3.778 -0.2047  0.2110  0.7326
 3098SOL     OW10192   3.844   3.357   6.538  0.4239 -0.6633 -0.6117
 3098SOL    HW110193   3.808   3.264   6.541 -0.4318 -0.3486 -0.8370
 3098SOL    HW210194   3.773   3.419   6.506 -0.1507  0.6191  2.7292
 3099SOL     OW10195   0.275   2.016   0.784  0.0075 -0.5227 -0.1608
 3099SOL    HW110196   0.370   2.038   0.759  0.4409 -2.0687  0.0303
 3099SOL    HW210197   0.272   1.987   0.880 -0.6213 -0.7189 -0.2391
 3100SOL     OW10198   3.419   5.524   0.644 -0.5427 -0.2163 -0.5459
 3100SOL    HW110199   3.340   5.548   0.702 -1.2542 -2.0441 -0.6900
 3100SOL    HW210200   3.386   5.486   0.558  0.5133 -0.8258 -0.6936
 3101SOL     OW10201   3.845   5.198   2.685  0.2290  0.1091 -0.0182
 3101SOL    HW110202   3.941   5.170   2.673  0.1234  0.8223 -3.6781
 3101SOL    HW210203   3.790   5.119   2.711  1.7724 -0.2429  2.5424
 3102SOL     OW10204   4.444   5.839   4.391 -0.1875 -0.2128  0.4745
 3102SOL    HW110205   4.525   5.876   4.345  0.5113 -0.8826  1.1335
 3102SOL    HW210206   4.471   5.763   4.451 -1.2710 -0.2939  0.8874
 3103SOL     OW10207   1.338   2.386   4.709  0.5197 -0.3494  0.7189
 3103SOL    HW110208   1.406   2.441   4.758 -1.5782  2.2438  0.9525
 3103SOL    HW210209   1.362   2.381   4.612  0.9198  0.7750  0.7510
 3104SOL     OW10210   5.322   2.124   4.914 -0.2241 -0.0937 -0.6213
 3104SOL    HW110211   5.280   2.038   4.944  0.7022  0.3165  2.1770
 3104SOL    HW210212   5.281   2.200   4.965  1.3466  0.7055 -0.5125
 3105SOL     OW10213   2.610   6.659   4.163  0.0140  0.6307 -0.2568
 3105SOL    HW110214   2.616   6.692   4.069 -3.2449 -0.6515 -1.0743
 3105SOL    HW210215   2.671   6.580   4.175 -0.1526  0.2851 -1.5645
 3106SOL     OW10216   2.446   0.636   6.481  0.0008 -0.1313 -0.2850
 3106SOL    HW110217   2.522   0.589   6.436  1.9544  1.7023  0.8990
 3106SOL    HW210218   2.390   0.682   6.412  0.7688 -0.3815 -1.1016
 3107SOL     OW10219   3.850   1.094   1.127 -0.1220  0.0003  0.1231
 3107SOL    HW110220   3.753   1.071   1.135  0.1281 -1.7063 -1.1274
 3107SOL    HW210221   3.886   1.120   1.216 -1.7244  0.7177  0.5993
 3108SOL     OW10222   6.674   5.351   1.929  0.4258  0.3609 -0.3921
 3108SOL    HW110223   6.574   5.353   1.933  0.4762  0.8633  1.3263
 3108SOL    HW210224   6.709   5.444   1.929  0.9173  0.1782 -0.1893
 3109SOL     OW10225   4.957   4.315   4.926 -0.2002  0.4215  0.1470
 3109SOL    HW110226   4.959   4.412   4.901 -2.5031  0.8974  1.5592
 3109SOL    HW210227   4.865   4.279   4.913  0.6026 -1.6393 -0.3635
 3110SOL     OW10228   4.644   6.961   2.387 -0.3028 -0.3451  0.0564
 3110SOL    HW110229   4.568   7.026   2.379  0.4000  0.4044 -0.8501
 3110SOL    HW210230   4.722   6.995   2.335  0.1635 -1.8300 -0.2689
 3111SOL     OW10231   4.951   2.626   2.040  0.2764 -0.1305 -0.4303
 3111SOL    HW110232   4.994   2.602   1.953  0.5638  0.7728 -0.5505
 3111SOL    HW210233   4.982   2.717   2.068  1.2970 -0.9579  1.3169
 3112SOL     OW10234   4.534   0.310   5.765 -0.2235  0.7043 -0.1982
 3112SOL    HW110235   4.531   0.210   5.759  0.9524  0.6038  0.5464
 3112SOL    HW210236   4.453   0.343   5.814 -0.1872  0.0478  0.3157
 3113SOL     OW10237   5.837   6.156   5.624 -0.1173  0.2416 -0.5062
 3113SOL    HW110238   5.886   6.069   5.635 -2.0639 -0.9542 -0.7420
 3113SOL    HW210239   5.858   6.216   5.700 -0.1651 -1.1921  0.6793
 3114SOL     OW10240   2.746   1.418   1.190  0.6068  0.2642 -0.1174
 3114SOL    HW110241   2.743   1.479   1.270  2.1063  0.6644 -0.3366
 3114SOL    HW210242   2.659   1.370   1.182 -0.2291  1.5733  0.6985
 3115SOL     OW10243   4.273   0.796   0.205  0.0366  0.2872  0.1140
 3115SOL    HW110244   4.334   0.752   0.271 -0.4244  1.4504  1.3726
 3115SOL    HW210245   4.311   0.884   0.177 -0.4725  0.4603 -0.0496
 3116SOL     OW10246   0.847   2.998   2.622 -0.0560  0.2266  0.4010
 3116SOL    HW110247   0.756   3.036   2.639  0.1003  1.7004 -1.7222
 3116SOL    HW210248   0.840   2.898   2.614 -1.5673  0.3644 -0.2435
 3117SOL     OW10249   6.255   6.467   1.396 -0.4444  0.3340  0.0491
 3117SOL    HW110250   6.352   6.487   1.411 -0.2345  0.9110 -1.8863
 3117SOL    HW210251   6.204   6.553   1.391 -0.9101  0.0625  0.0750
 3118SOL     OW10252   0.316   3.761   2.228 -0.2452  0.0073  0.4416
 3118SOL    HW110253   0.295   3.664   2.229  2.1387 -0.6633 -2.4779
 3118SOL    HW210254   0.401   3.777   2.279  2.1419 -0.3896 -3.0978
 3119SOL     OW10255   4.611   5.301   3.687 -0.1436  0.3788 -0.0415
 3119SOL    HW110256   4.688   5.311   3.750 -1.3089 -1.0424  1.7209
 3119SOL    HW210257   4.541   5.368   3.710 -0.1880  0.4861 -0.4776
 3120SOL     OW10258   6.518   1.940   3.827 -0.1721  0.2264  0.7872
 3120SOL    HW110259   6.600   1.969   3.776 -0.7169  1.5010  0.6003
 3120SOL    HW210260   6.538   1.940   3.925  0.3881 -0.6166  0.6848
 3121SOL     OW10261   6.458   5.248   7.014  0.2264  0.6863 -0.0845
 3121SOL    HW110262   6.432   5.178   6.948 -1.8813  2.0237 -0.7808
 3121SOL    HW210263   6.423   5.223   7.105  1.6502 -0.3248  0.2153
 3122SOL     OW10264   2.993   1.851   2.448  0.7295 -0.5834  0.5689
 3122SOL    HW110265   3.072   1.911   2.453 -0.4889  1.2001 -0.5865
 3122SOL    HW210266   2.986   1.811   2.357 -0.4359  0.3681  0.2168
 3123SOL     OW10267   2.442   3.428   5.570  0.1562  0.9227  0.1657
 3123SOL    HW110268   2.357   3.477   5.585 -0.5543 -0.1939 -0.1177
 3123SOL    HW210269   2.496   3.474   5.499  0.3543  2.2921  1.1570
 3124SOL     OW10270   2.475   6.386   2.864 -0.1746 -0.2259  0.5675
 3124SOL    HW110271   2.511   6.476   2.841 -0.8651  0.0827  0.6772
 3124SOL    HW210272   2.541   6.337   2.921  2.3238 -1.6231 -3.1538
 3125SOL     OW10273   3.988   3.166   4.223  0.0271 -0.7307 -0.1067
 3125SOL    HW110274   4.062   3.213   4.176  0.1029 -1.0886 -0.3502
 3125SOL    HW210275   3.925   3.233   4.262  0.8720 -0.4055  0.7370
 3126SOL     OW10276   1.939   3.314   4.633 -0.3474  0.5142  0.5660
 3126SOL    HW110277   1.915   3.316   4.536 -1.7475  0.8552  0.8913
 3126SOL    HW210278   2.007   3.242   4.649  0.6806  1.1359 -0.8089
 3127SOL     OW10279   5.291   2.847   0.165 -0.1362 -0.2043 -0.1652
 3127SOL    HW110280   5.276   2.885   0.256 -1.5015  1.3040 -0.9769
 3127SOL    HW210281   5.382   2.804   0.162  1.2353  2.3679  1.0525
 3128SOL     OW10282   6.791   0.667   5.151 -0.0636 -0.0848 -0.2084
 3128SOL    HW110283   6.745   0.713   5.227  1.0185  3.1530 -1.3396
 3128SOL    HW210284   6.756   0.703   5.064  0.6158 -1.7416 -1.2128
 3129SOL     OW10285   3.426   1.196   5.969 -0.2168  0.2574 -0.8508
 3129SOL    HW110286   3.415   1.162   6.062 -0.6749  0.4402 -0.8367
 3129SOL    HW210287   3.516   1.238   5.959  0.0136 -0.1774 -0.6217
 3130SOL     OW10288   3.639   6.085   1.662  0.6332 -0.8209 -0.4084
 3130SOL    HW110289   3.689   6.153   1.717 -0.5264 -0.0694 -0.2642
 3130SOL    HW210290   3.703   6.040   1.600  1.2462  1.2808 -1.4076
 3131SOL     OW10291   5.139   2.889   2.272  0.5281 -0.4357  0.0123
 3131SOL    HW110292   5.207   2.825   2.236 -0.0745 -1.3840  0.5178
 3131SOL    HW210293   5.182   2.947   2.341  0.4908 -2.1389  1.5421
 3132SOL     OW10294   5.696   4.140   3.638  0.0514 -0.7096  0.7151
 3132SOL    HW110295   5.792   4.111   3.645  0.7328  1.7021  2.2916
 3132SOL    HW210296   5.686   4.199   3.558  0.1599 -0.0001  1.2221
 3133SOL     OW10297   6.868   4.378   3.121 -0.3099  0.0883  0.1233
 3133SOL    HW110298   6.885   4.413   3.028  0.7885  0.9603  0.6270
 3133SOL    HW210299   6.875   4.279   3.121  0.1774  0.1141 -0.6391
 3134SOL     OW10300   0.658   1.547   0.280 -0.3687 -0.7163  0.0807
 3134SOL    HW110301   0.638   1.592   0.367 -0.1514 -0.3019 -0.0838
 3134SOL    HW210302   0.702   1.459   0.298 -1.2053 -1.0834  0.4143
 3135SOL     OW10303   1.538   1.886   5.552 -0.4982 -0.0978 -0.0763
 3135SOL    HW110304   1.469   1.813   5.547 -0.3638 -0.1726 -1.0022
 3135SOL    HW210305   1.616   1.855   5.606 -1.1577 -0.0339  0.9356
 3136SOL     OW10306   1.414   6.949   0.696 -0.4939  0.1186 -0.5116
 3136SOL    HW110307   1.331   6.917   0.651 -0.8046 -1.2426  0.9362
 3136SOL    HW210308   1.390   7.017   0.765 -0.3819 -0.0219 -0.3315
 3137SOL     OW10309   1.118   3.511   3.389 -0.5592 -0.8153  0.3381
 3137SOL    HW110310   1.063   3.546   3.313  0.9933 -0.2028 -0.5426
 3137SOL    HW210311   1.171   3.586   3.429 -1.3780 -1.1263  2.0658
 3138SOL     OW10312   0.902   6.973   5.953 -0.3203 -0.2996  0.1455
 3138SOL    HW110313   0.923   7.047   6.016 -2.3335  0.5222 -0.0788
 3138SOL    HW210314   0.860   6.897   6.003  0.7656 -0.8888  0.2061
 3139SOL     OW10315   2.442   5.411   0.108 -0.3104 -0.3064 -0.3001
 3139SOL    HW110316   2.518   5.380   0.165 -0.5785  0.2985  0.3917
 3139SOL    HW210317   2.478   5.446   0.021  0.0910 -1.3158 -0.5582
 3140SOL     OW10318   4.099   1.291   3.549  0.1549  0.1944  0.2140
 3140SOL    HW110319   4.130   1.197   3.530  0.6483  0.7061 -1.7180
 3140SOL    HW210320   4.159   1.356   3.503 -0.1102  1.5007  1.6292
 3141SOL     OW10321   5.280   5.124   6.063 -0.6979 -0.4469 -0.2356
 3141SOL    HW110322   5.231   5.045   6.027  0.0161 -1.0791  0.1357
 3141SOL    HW210323   5.324   5.173   5.988  2.3769 -2.8354 -0.1987
 3142SOL     OW10324   4.308   5.855   2.007  0.1170 -0.1072 -0.5379
 3142SOL    HW110325   4.384   5.819   1.953 -0.4144 -0.5014 -1.0354
 3142SOL    HW210326   4.317   5.955   2.015  1.5837 -0.3094  0.8324
 3143SOL     OW10327   0.908   6.207   0.608 -0.1377  0.3036 -0.4902
 3143SOL    HW110328   0.922   6.299   0.645 -0.6218  0.5898 -1.0065
 3143SOL    HW210329   0.991   6.154   0.619  0.2546  0.9091 -0.4760
 3144SOL     OW10330   4.423   2.103   4.876 -0.0571 -0.0939  0.0120
 3144SOL    HW110331   4.394   2.194   4.846  0.2369 -0.4567 -1.4480
 3144SOL    HW210332   4.412   2.096   4.976 -1.8882  0.8796 -0.0692
 3145SOL     OW10333   0.016   5.305   1.081  0.1182  0.3328  0.1027
 3145SOL    HW110334  -0.020   5.392   1.047  1.6643  0.6083 -0.9638
 3145SOL    HW210335   0.015   5.238   1.006  1.2170  0.1779  0.2181
 3146SOL     OW10336   0.574   1.925   3.607 -0.0702 -0.3850 -0.4281
 3146SOL    HW110337   0.534   2.015   3.625  2.4567  0.5763  0.7850
 3146SOL    HW210338   0.565   1.867   3.688 -1.9848 -1.4237 -1.3116
 3147SOL     OW10339   5.379   6.021   0.469  0.7877  0.4550 -0.2312
 3147SOL    HW110340   5.311   6.094   0.460  1.7351  1.2137 -1.6747
 3147SOL    HW210341   5.401   6.008   0.566 -1.0084  0.5301  0.2277
 3148SOL     OW10342   5.765   4.815   5.033  0.2319  0.1668  0.2673
 3148SOL    HW110343   5.776   4.745   4.962  0.5044 -0.5775  1.0276
 3148SOL    HW210344   5.742   4.902   4.990  1.6100  0.0271 -0.8389
 3149SOL     OW10345   5.824   2.407   0.983  0.7855  0.3472 -0.0906
 3149SOL    HW110346   5.921   2.426   0.997  1.0819 -0.4992 -0.8801
 3149SOL    HW210347   5.773   2.493   0.982  1.4533  0.7675  0.8014
 3150SOL     OW10348   2.078   1.399   1.462 -0.0032  0.8059  0.3815
 3150SOL    HW110349   2.173   1.417   1.486  1.8272 -2.6944 -3.1560
 3150SOL    HW210350   2.047   1.468   1.396  0.4452  1.3584  0.7453
 3151SOL     OW10351   5.379   2.494   5.390  0.3498 -0.2909 -0.2187
 3151SOL    HW110352   5.438   2.559   5.341 -1.0930  0.7354 -0.6583
 3151SOL    HW210353   5.288   2.494   5.349  0.0468 -1.8993  0.4028
 3152SOL     OW10354   1.285   1.148   2.572 -0.3743 -0.1111  0.2594
 3152SOL    HW110355   1.355   1.080   2.593  0.3009  1.0807  2.1032
 3152SOL    HW210356   1.249   1.132   2.480  2.4326 -0.6808 -0.8298
 3153SOL     OW10357   2.640   2.065   3.600  0.3258  0.4895  0.2865
 3153SOL    HW110358   2.675   2.156   3.621  0.9235  0.3414 -0.0533
 3153SOL    HW210359   2.715   1.999   3.601 -0.5541 -0.8025  4.6056
 3154SOL     OW10360   0.657   1.640   4.733  0.2299  0.4370  0.1258
 3154SOL    HW110361   0.623   1.566   4.790  0.0491  0.8340  0.5357
 3154SOL    HW210362   0.713   1.702   4.788 -1.6530  1.9895  0.4085
 3155SOL     OW10363   1.493   1.199   0.139  0.9486 -0.3394 -0.4181
 3155SOL    HW110364   1.579   1.249   0.150 -0.1536  1.6719 -0.4820
 3155SOL    HW210365   1.499   1.140   0.059  2.1722 -0.0308 -0.5751
 3156SOL     OW10366   3.764   4.952   6.961  0.2891 -0.4037  1.1815
 3156SOL    HW110367   3.697   4.925   6.892  0.9547 -0.2580  0.4611
 3156SOL    HW210368   3.718   4.969   7.048 -0.6254 -0.1108  0.6478
 3157SOL     OW10369   6.595   1.088   1.033 -0.5194  0.1991  0.1847
 3157SOL    HW110370   6.671   1.036   0.994  1.3236  2.6194  0.3175
 3157SOL    HW210371   6.574   1.054   1.125  1.5509  0.4671  0.8096
 3158SOL     OW10372   4.710   5.039   0.996  0.2128 -0.1526 -0.0227
 3158SOL    HW110373   4.790   5.012   0.942  0.1555  1.0460 -0.7522
 3158SOL    HW210374   4.740   5.096   1.073  0.0441  0.7522 -0.6055
 3159SOL     OW10375   4.746   1.429   1.631 -0.2760  0.1836  0.2796
 3159SOL    HW110376   4.647   1.436   1.638 -0.2730 -0.8269  1.9053
 3159SOL    HW210377   4.786   1.425   1.723  1.1268 -1.2537 -0.3398
 3160SOL     OW10378   3.461   2.133   3.353 -0.6224  0.0508 -0.0244
 3160SOL    HW110379   3.548   2.170   3.385 -0.4727  0.6872 -1.1069
 3160SOL    HW210380   3.397   2.127   3.429  0.0229  0.6203  0.5688
 3161SOL     OW10381   5.265   2.990   5.986  0.2756 -0.3919 -0.6850
 3161SOL    HW110382   5.289   3.087   5.989  1.3741 -0.6785  1.7010
 3161SOL    HW210383   5.308   2.943   6.063 -3.0517 -2.1311  0.2788
 3162SOL     OW10384   6.376   6.498   3.242  0.0400  0.1527  0.1543
 3162SOL    HW110385   6.370   6.570   3.312  0.7243  1.7274 -1.3429
 3162SOL    HW210386   6.454   6.439   3.262 -0.2481  0.0814  1.1447
 3163SOL     OW10387   0.658   3.415   0.029 -0.0509  0.2583  0.2865
 3163SOL    HW110388   0.659   3.342  -0.039 -0.5589 -0.1487  0.7101
 3163SOL    HW210389   0.715   3.390   0.107 -0.1223  0.3714  0.3764
 3164SOL     OW10390   2.119   6.162   5.611  0.0033 -0.1492  0.2728
 3164SOL    HW110391   2.038   6.135   5.560  1.4782 -0.3525 -2.1223
 3164SOL    HW210392   2.188   6.090   5.604  0.5435  0.1404  2.0242
 3165SOL     OW10393   6.576   4.633   1.898 -0.4971 -0.0292 -0.2561
 3165SOL    HW110394   6.520   4.665   1.823  1.0109  1.0911 -0.9583
 3165SOL    HW210395   6.637   4.706   1.929  1.1934 -1.4078 -0.1243
 3166SOL     OW10396   2.454   0.235   6.686  0.3510 -0.5445 -0.3733
 3166SOL    HW110397   2.501   0.173   6.749  0.8474 -0.7818 -0.9696
 3166SOL    HW210398   2.380   0.186   6.640 -0.9670 -0.0015  1.0554
 3167SOL     OW10399   2.194   1.888   0.252 -0.1224 -0.2934 -0.2434
 3167SOL    HW110400   2.278   1.876   0.200 -0.4228  0.6466 -0.9751
 3167SOL    HW210401   2.142   1.803   0.252 -0.0677 -0.3472 -1.4157
 3168SOL     OW10402   2.289   1.875   5.860 -0.0332 -0.0204 -1.0450
 3168SOL    HW110403   2.269   1.849   5.954  1.6060  3.8561  0.5754
 3168SOL    HW210404   2.383   1.852   5.838  0.5589  1.8019 -0.5660
 3169SOL     OW10405   0.491   4.393   7.006  0.3404 -0.5861 -0.0436
 3169SOL    HW110406   0.394   4.413   6.991  0.5899  2.0116  1.1222
 3169SOL    HW210407   0.501   4.339   7.090 -0.0899 -1.1288 -0.3323
 3170SOL     OW10408   5.722   0.546   5.198  0.6503 -0.6478  0.2195
 3170SOL    HW110409   5.702   0.585   5.109  0.3515 -0.5383  0.3347
 3170SOL    HW210410   5.653   0.477   5.221  1.6810 -1.9257 -0.3898
 3171SOL     OW10411   5.591   3.100   2.114  0.5823  0.0035 -0.6761
 3171SOL    HW110412   5.655   3.141   2.179 -0.9267 -0.1647  0.9602
 3171SOL    HW210413   5.520   3.166   2.091  0.1376 -0.5228 -0.8236
 3172SOL     OW10414   6.336   3.469   2.285  0.1846 -0.1651  0.0084
 3172SOL    HW110415   6.281   3.553   2.290 -0.0754 -0.2715 -0.9500
 3172SOL    HW210416   6.364   3.453   2.191  0.3149 -1.1059  0.1989
 3173SOL     OW10417   0.259   2.459   2.959  0.1295  0.5386 -0.6828
 3173SOL    HW110418   0.237   2.548   2.919  1.6109  1.0780 -0.3672
 3173SOL    HW210419   0.305   2.472   3.047  1.4634 -0.4834 -1.1819
 3174SOL     OW10420   6.776   4.133   4.549  0.2890  0.0397 -0.2923
 3174SOL    HW110421   6.725   4.127   4.635  1.2834 -1.0656  0.2612
 3174SOL    HW210422   6.832   4.216   4.548  1.4894 -0.7032  0.8796
 3175SOL     OW10423   6.551   4.972   6.251  0.0476 -0.2553 -0.1087
 3175SOL    HW110424   6.462   4.929   6.260 -0.0076 -0.1638 -0.2120
 3175SOL    HW210425   6.623   4.904   6.269 -0.0489 -0.1057  0.8806
 3176SOL     OW10426   1.807   2.763   2.069 -0.1730 -0.0333 -0.0221
 3176SOL    HW110427   1.843   2.815   2.146 -0.4683 -0.1745  0.2120
 3176SOL    HW210428   1.767   2.677   2.102 -3.0018  1.2238  0.0580
 3177SOL     OW10429   0.663   4.092   6.483  0.3149  0.1045  0.1266
 3177SOL    HW110430   0.763   4.089   6.482  0.3184 -3.7967 -0.9882
 3177SOL    HW210431   0.629   4.072   6.575  0.5641 -0.6317  0.0582
 3178SOL     OW10432   6.521   5.797   2.574 -0.3837  0.2532 -0.0722
 3178SOL    HW110433   6.534   5.863   2.501  0.5229  0.3753  0.1915
 3178SOL    HW210434   6.602   5.740   2.583 -1.0659 -0.7565 -0.1414
 3179SOL     OW10435   4.050   0.127   2.437  0.2317 -0.5383  0.2727
 3179SOL    HW110436   4.123   0.119   2.505  1.6054  0.1708 -1.0542
 3179SOL    HW210437   3.969   0.078   2.469  1.8001 -2.7487  1.0756
 3180SOL     OW10438   3.878   4.475   6.391 -0.0652  0.3243  0.1561
 3180SOL    HW110439   3.835   4.507   6.475 -1.8955  0.1780 -0.6713
 3180SOL    HW210440   3.869   4.546   6.321  0.4214  0.0036 -0.2312
 3181SOL     OW10441   3.062   0.768   1.972  0.0962 -0.2952  0.2022
 3181SOL    HW110442   2.965   0.789   1.987  0.0132 -0.4512 -0.1164
 3181SOL    HW210443   3.070   0.694   1.905  0.4818  0.5881 -0.7513
 3182SOL     OW10444   6.794   2.098   3.493  0.4817  0.3306  0.3701
 3182SOL    HW110445   6.873   2.158   3.500 -0.5409  1.8055 -0.1527
 3182SOL    HW210446   6.712   2.149   3.519 -1.0247  0.5496 -3.9432
 3183SOL     OW10447   0.974   3.019   0.328 -1.0918 -0.2005 -0.1922
 3183SOL    HW110448   0.910   3.000   0.253 -0.6394  0.1484 -0.6782
 3183SOL    HW210449   0.985   2.937   0.384 -1.5894 -0.4069 -0.3902
 3184SOL     OW10450   0.094   6.495   2.766 -0.0977  0.1200 -0.0605
 3184SOL    HW110451   0.080   6.544   2.680 -0.7396  0.5535  0.2814
 3184SOL    HW210452   0.176   6.529   2.812 -0.0093  0.2032 -0.2784
 3185SOL     OW10453   5.120   0.002   5.401  0.2698 -0.5505  0.5558
 3185SOL    HW110454   5.112  -0.097   5.386  2.3186 -0.3532 -2.9420
 3185SOL    HW210455   5.054   0.050   5.344  0.6957  0.1385  0.6339
 3186SOL     OW10456   4.338   1.718   5.457 -0.1011 -0.6488 -0.3748
 3186SOL    HW110457   4.351   1.650   5.384  1.9296 -0.9026  0.1747
 3186SOL    HW210458   4.319   1.807   5.416  1.6523 -0.6564 -1.2766
 3187SOL     OW10459   1.700   1.414   3.732  0.0924 -0.1308  0.1335
 3187SOL    HW110460   1.756   1.364   3.799  0.7431  0.3120 -0.0656
 3187SOL    HW210461   1.704   1.368   3.644  1.5425  0.8029 -0.3247
 3188SOL     OW10462   5.523   2.413   6.403  0.3348 -0.1688 -0.2723
 3188SOL    HW110463   5.496   2.325   6.364 -0.6755 -0.4427  1.0035
 3188SOL    HW210464   5.457   2.483   6.374  1.1620  0.2146 -1.3242
 3189SOL     OW10465   3.130   1.052   3.133 -0.6576 -0.3641 -0.2612
 3189SOL    HW110466   3.129   0.953   3.139 -2.2200 -0.3687 -0.0868
 3189SOL    HW210467   3.041   1.085   3.101 -0.6843  1.0459  1.1090
 3190SOL     OW10468   3.392   1.570   0.297  0.0235  0.1490 -0.1938
 3190SOL    HW110469   3.377   1.605   0.389 -0.6358  0.0557 -0.2624
 3190SOL    HW210470   3.455   1.630   0.248 -0.3456  0.7069  0.0086
 3191SOL     OW10471   4.606   4.984   1.428 -0.1967 -0.4686 -0.4256
 3191SOL    HW110472   4.703   4.999   1.409 -0.3716  0.8371 -0.3227
 3191SOL    HW210473   4.596   4.931   1.513  0.3975  0.8855  0.5165
 3192SOL     OW10474   0.767   6.258   0.146  0.6036  0.1093 -0.5760
 3192SOL    HW110475   0.744   6.317   0.068  1.2915  0.1904 -0.7252
 3192SOL    HW210476   0.784   6.315   0.226  2.1199  0.1970 -0.9310
 3193SOL     OW10477   3.490   1.651   5.404  0.1028  0.1416 -0.3237
 3193SOL    HW110478   3.474   1.560   5.441 -1.7201  1.2159  1.7598
 3193SOL    HW210479   3.436   1.663   5.320 -1.3643 -0.0347  0.5570
 3194SOL     OW10480   6.057   2.262   4.602 -0.0486  0.6009  0.8731
 3194SOL    HW110481   5.979   2.208   4.571 -0.0794 -0.0638  2.0506
 3194SOL    HW210482   6.050   2.355   4.565 -0.9410  0.3119  0.2810
 3195SOL     OW10483   0.798   2.857   0.843 -0.3543  0.3205  0.0238
 3195SOL    HW110484   0.820   2.762   0.820  1.5130  0.4779  0.9697
 3195SOL    HW210485   0.724   2.858   0.910  0.0273 -0.5287  0.4871
 3196SOL     OW10486   5.614   6.523   5.769  0.1742 -0.3700 -0.2593
 3196SOL    HW110487   5.553   6.599   5.748  0.1665 -0.2355  0.2271
 3196SOL    HW210488   5.601   6.495   5.864  1.6420  0.3897  0.2010
 3197SOL     OW10489   1.708   1.817   0.714 -0.2276 -0.2436 -0.0737
 3197SOL    HW110490   1.666   1.898   0.754  0.8516  1.1748 -1.6522
 3197SOL    HW210491   1.659   1.791   0.631 -0.3248 -0.9584  0.2055
 3198SOL     OW10492   4.810   1.042   5.363 -0.6463 -0.0312  0.2657
 3198SOL    HW110493   4.828   1.126   5.312  0.5051  0.3677  1.2638
 3198SOL    HW210494   4.858   0.966   5.319  0.2404  0.2881  0.6416
 3199SOL     OW10495   3.916   1.961   5.277 -0.3306  0.1271 -0.4066
 3199SOL    HW110496   3.846   2.023   5.243 -0.5983  0.1135  0.1081
 3199SOL    HW210497   3.968   2.005   5.350 -0.2824 -0.1219 -0.2885
 3200SOL     OW10498   0.566   1.313   1.829  0.0200 -0.5143  0.0806
 3200SOL    HW110499   0.577   1.363   1.743 -0.7024 -2.0706 -0.9734
 3200SOL    HW210500   0.470   1.314   1.856  0.1565 -0.5070  0.5701
 3201SOL     OW10501   0.659   1.383   3.161 -0.2139  0.0932 -0.1436
 3201SOL    HW110502   0.751   1.350   3.183  0.0568  1.2009  0.4443
 3201SOL    HW210503   0.646   1.474   3.199 -2.1261 -0.6620  1.1982
 3202SOL     OW10504   3.712   5.608   3.232  0.3746 -0.2442  0.7652
 3202SOL    HW110505   3.615   5.629   3.236  0.3316 -0.3239  0.1178
 3202SOL    HW210506   3.764   5.689   3.206  0.4000 -0.4210  0.2641
 3203SOL     OW10507   3.549   4.953   2.548 -0.0495 -0.2828  0.3743
 3203SOL    HW110508   3.488   5.031   2.558 -0.6778 -0.6880 -0.2225
 3203SOL    HW210509   3.518   4.896   2.472  0.1175 -1.3623  1.0913
 3204SOL     OW10510   5.148   0.611   2.104 -0.1822 -0.0779 -0.0353
 3204SOL    HW110511   5.213   0.535   2.100 -1.1876 -1.0052 -4.8049
 3204SOL    HW210512   5.187   0.691   2.060 -0.6090  0.9772  1.4064
 3205SOL     OW10513   4.786   6.348   2.123  0.4496 -0.7715  0.0130
 3205SOL    HW110514   4.815   6.427   2.069  0.8383 -1.4444 -0.7745
 3205SOL    HW210515   4.800   6.264   2.071 -1.0263 -1.2889  0.3944
 3206SOL     OW10516   0.719   3.205   0.242 -0.2258 -0.3695 -0.0407
 3206SOL    HW110517   0.670   3.128   0.284 -3.1633  0.3750 -1.8411
 3206SOL    HW210518   0.768   3.173   0.161 -3.0001 -0.1881 -1.9200
 3207SOL     OW10519   1.270   4.425   1.292  0.4562  0.1641  0.1780
 3207SOL    HW110520   1.303   4.467   1.377  0.6422  0.0551  0.1609
 3207SOL    HW210521   1.197   4.360   1.312  0.2113  0.4503  0.2111
 3208SOL     OW10522   0.364   0.046   4.388  0.0701  0.6478  0.4774
 3208SOL    HW110523   0.338   0.127   4.335  0.0768 -1.1051 -2.4004
 3208SOL    HW210524   0.459   0.054   4.418  1.2480  0.3680 -2.7697
 3209SOL     OW10525   5.738   5.161   5.720  0.1593 -0.2401 -0.3162
 3209SOL    HW110526   5.827   5.121   5.696  0.4566  0.6311 -0.7291
 3209SOL    HW210527   5.739   5.259   5.699  0.4181  0.6464  3.2014
 3210SOL     OW10528   6.397   2.131   2.776 -0.2900 -0.1770 -0.5343
 3210SOL    HW110529   6.398   2.230   2.766  0.5436  0.1660  2.1273
 3210SOL    HW210530   6.317   2.104   2.830  0.1315 -0.7974 -0.2019
 3211SOL     OW10531   1.966   2.759   1.086  0.0919 -0.4612 -0.7650
 3211SOL    HW110532   2.061   2.728   1.080 -0.0275 -0.9557 -0.2046
 3211SOL    HW210533   1.924   2.719   1.167 -0.2365  0.7254 -0.3319
 3212SOL     OW10534   1.245   1.416   2.904 -0.2275 -0.2546  0.1626
 3212SOL    HW110535   1.294   1.419   2.991 -2.0927 -0.9956  1.2951
 3212SOL    HW210536   1.239   1.322   2.872 -0.8655 -0.1715  0.0253
 3213SOL     OW10537   0.926   1.277   5.693  0.5661 -0.1928 -0.2919
 3213SOL    HW110538   0.839   1.250   5.652  0.2852 -0.8068  0.6692
 3213SOL    HW210539   0.967   1.350   5.639 -0.9084  0.6336 -0.3389
 3214SOL     OW10540   6.057   0.076   2.084  0.2864  0.6794  0.3372
 3214SOL    HW110541   5.978   0.105   2.138 -0.0934  2.3788 -1.0250
 3214SOL    HW210542   6.138   0.128   2.111  0.7329 -0.3853  1.0842
 3215SOL     OW10543   0.802   4.436   4.060 -0.6226  0.0113  0.0648
 3215SOL    HW110544   0.835   4.511   4.004  0.6968  0.6514  1.6060
 3215SOL    HW210545   0.811   4.460   4.157 -1.7211 -1.4943  0.5901
 3216SOL     OW10546   0.940   6.127   6.102 -0.2435  0.0816 -0.1482
 3216SOL    HW110547   0.958   6.224   6.117 -0.4528  0.1164 -0.1268
 3216SOL    HW210548   0.959   6.077   6.187 -0.3259  0.1303 -0.1001
 3217SOL     OW10549   0.738   1.515   0.980 -0.2428 -0.1748 -0.4324
 3217SOL    HW110550   0.830   1.552   0.964 -1.0555  1.5581 -1.4541
 3217SOL    HW210551   0.711   1.532   1.075  1.1370 -2.3485  0.4297
 3218SOL     OW10552   2.655   2.927   5.394 -0.1526 -0.7273  0.6455
 3218SOL    HW110553   2.600   2.970   5.322 -0.7773 -0.2376  1.3988
 3218SOL    HW210554   2.742   2.896   5.356  0.4109  1.3606  0.0823
 3219SOL     OW10555   1.938   3.077   1.069 -0.2528  0.1864  0.3241
 3219SOL    HW110556   1.922   2.980   1.052 -3.4346  0.4488  1.1858
 3219SOL    HW210557   1.920   3.098   1.165  2.7775  1.2731  0.7482
 3220SOL     OW10558   3.195   5.033   0.022 -0.1262  0.5799 -0.6015
 3220SOL    HW110559   3.221   4.955   0.079 -0.4396  0.3635 -0.7491
 3220SOL    HW210560   3.268   5.101   0.023 -1.0434  1.6429  1.8985
 3221SOL     OW10561   0.879   1.169   4.401  0.0404 -0.5142 -0.5266
 3221SOL    HW110562   0.858   1.235   4.473 -0.7162 -0.2896 -0.9460
 3221SOL    HW210563   0.951   1.107   4.432  0.9537  0.6641 -0.2194
 3222SOL     OW10564   1.162   3.607   4.009  0.4344  0.2664  0.1509
 3222SOL    HW110565   1.208   3.526   4.044  2.2129  0.4108 -1.6344
 3222SOL    HW210566   1.177   3.613   3.910  0.8699  3.0523  0.3066
 3223SOL     OW10567   3.557   4.924   2.232  0.2439  0.5813  0.3109
 3223SOL    HW110568   3.588   4.893   2.142 -1.1932  0.1743 -0.0666
 3223SOL    HW210569   3.608   5.006   2.258  2.1140 -0.4531  0.0638
 3224SOL     OW10570   5.436   4.834   6.034 -0.3153  0.2682 -0.0271
 3224SOL    HW110571   5.435   4.853   6.132 -1.3746 -0.2992  0.0932
 3224SOL    HW210572   5.356   4.876   5.991 -0.1581  0.0354 -0.5598
 3225SOL     OW10573   5.018   6.643   2.498  0.0734  0.1266 -0.8925
 3225SOL    HW110574   5.021   6.544   2.496  0.2263 -0.0156  2.1922
 3225SOL    HW210575   5.108   6.679   2.526 -0.0305  1.1535 -1.7762
 3226SOL     OW10576   0.450   3.809   4.008 -0.2308  0.4509  0.1119
 3226SOL    HW110577   0.405   3.733   4.055 -1.6128  1.0354 -0.2066
 3226SOL    HW210578   0.399   3.831   3.925  0.6314  1.1908 -0.2341
 3227SOL     OW10579   1.462   1.369   6.002 -0.7606 -0.5042  0.7528
 3227SOL    HW110580   1.401   1.293   6.026 -1.5613  0.1633  0.8856
 3227SOL    HW210581   1.500   1.408   6.086 -0.7912 -0.4064  0.7209
 3228SOL     OW10582   1.677   0.236   0.520 -0.0874  0.6074 -0.4798
 3228SOL    HW110583   1.772   0.231   0.487  0.1489  2.3300 -0.1402
 3228SOL    HW210584   1.628   0.307   0.469 -0.3075  1.8435  1.3690
 3229SOL     OW10585   4.504   2.933   6.708 -0.4464 -0.0683  0.3240
 3229SOL    HW110586   4.517   2.937   6.609  1.5442 -1.4782  0.4619
 3229SOL    HW210587   4.460   2.847   6.733 -1.3129  0.4613  0.6393
 3230SOL     OW10588   5.421   1.693   2.215 -0.1273  0.0760 -0.0415
 3230SOL    HW110589   5.493   1.652   2.159  0.5575 -0.7631  1.3970
 3230SOL    HW210590   5.393   1.780   2.174  2.3179  0.8769 -0.2059
 3231SOL     OW10591   1.518   2.696   5.200 -0.2647 -0.1682 -0.0856
 3231SOL    HW110592   1.527   2.706   5.101  0.5663  0.9585  0.0836
 3231SOL    HW210593   1.533   2.601   5.225  0.1182 -0.3540 -0.9790
 3232SOL     OW10594   1.485   6.198   2.679  0.1551 -0.0334 -0.6273
 3232SOL    HW110595   1.422   6.128   2.712 -2.1929  2.9899  1.9090
 3232SOL    HW210596   1.576   6.158   2.668 -1.2097 -3.6209 -0.2906
 3233SOL     OW10597   2.327   2.929   0.820 -0.2719 -0.3390  0.3442
 3233SOL    HW110598   2.280   2.852   0.863 -2.5701  0.3551 -0.7113
 3233SOL    HW210599   2.403   2.896   0.765 -0.4745 -1.7269  0.8812
 3234SOL     OW10600   3.075   5.173   4.312 -0.4363  0.1522  0.4385
 3234SOL    HW110601   3.061   5.120   4.228 -0.9554  0.3739  0.3814
 3234SOL    HW210602   2.988   5.188   4.358 -0.5697  2.3143 -0.3803
 3235SOL     OW10603   0.194   0.354   4.655 -0.4375 -0.3436  0.0481
 3235SOL    HW110604   0.242   0.440   4.634  1.0652 -0.9359  0.8684
 3235SOL    HW210605   0.120   0.341   4.589 -1.3154  2.0216  0.4619
 3236SOL     OW10606   2.153   3.983   2.277  0.4376  0.3405  0.1823
 3236SOL    HW110607   2.136   4.016   2.184 -0.4211  0.7923  0.4962
 3236SOL    HW210608   2.158   4.060   2.340  0.9944  0.0346  0.5201
 3237SOL     OW10609   4.605   2.181   3.839  0.0975 -0.6368  0.3525
 3237SOL    HW110610   4.525   2.238   3.822 -2.5711 -4.0865  0.1308
 3237SOL    HW210611   4.625   2.178   3.937 -0.1109  0.1370  0.4214
 3238SOL     OW10612   6.072   2.602   5.703  0.3341 -0.5675 -0.4567
 3238SOL    HW110613   6.029   2.586   5.792  1.3787  2.0364  0.5891
 3238SOL    HW210614   6.026   2.677   5.656  1.1960 -0.4567 -1.1489
 3239SOL     OW10615   5.182   3.761   1.522 -0.3546 -0.0882 -0.7578
 3239SOL    HW110616   5.100   3.792   1.474  1.1419  1.4672 -2.4992
 3239SOL    HW210617   5.247   3.838   1.529  0.9797 -1.2743  0.5069
 3240SOL     OW10618   6.082   2.612   6.646 -0.2964  0.5455  0.3495
 3240SOL    HW110619   6.017   2.538   6.632  0.8907 -0.2484 -1.3909
 3240SOL    HW210620   6.062   2.687   6.583  0.2011  0.4724  0.0960
 3241SOL     OW10621   0.648   5.860   6.919  0.2736  0.2518 -0.1596
 3241SOL    HW110622   0.597   5.779   6.890 -0.2478  0.9503 -1.2445
 3241SOL    HW210623   0.675   5.849   7.015  0.5857 -1.3838 -0.3913
 3242SOL     OW10624   2.988   5.657   2.233 -0.2514 -0.8475  0.2661
 3242SOL    HW110625   3.016   5.596   2.307 -0.1099  0.0586  0.9751
 3242SOL    HW210626   2.924   5.725   2.268 -0.7793 -0.8727 -0.6212
 3243SOL     OW10627   4.092   3.150   0.327 -0.1237 -0.2462  0.1788
 3243SOL    HW110628   4.003   3.193   0.346 -0.3023 -0.5407  0.0153
 3243SOL    HW210629   4.079   3.071   0.267  0.5579  1.4602 -2.3766
 3244SOL     OW10630   6.204   0.352   5.835  0.3370 -0.7639 -0.4432
 3244SOL    HW110631   6.211   0.378   5.931 -0.4955 -1.3623 -0.2101
 3244SOL    HW210632   6.181   0.433   5.780 -1.1226 -0.7677  0.1245
 3245SOL     OW10633   0.767   2.406   4.459 -0.4499 -0.3501 -0.4737
 3245SOL    HW110634   0.734   2.497   4.484 -1.6650 -0.1356 -2.6199
 3245SOL    HW210635   0.825   2.413   4.378 -0.4669 -1.4862 -0.6010
 3246SOL     OW10636   4.599   2.859   5.637  0.2902 -0.3262 -0.3267
 3246SOL    HW110637   4.521   2.853   5.575 -0.2078 -0.7740  0.3221
 3246SOL    HW210638   4.565   2.861   5.732  1.0654 -0.4572 -0.0415
 3247SOL     OW10639   1.364   1.699   3.733 -0.3901 -0.0677 -0.3495
 3247SOL    HW110640   1.286   1.713   3.794 -0.4588  1.7024 -0.7858
 3247SOL    HW210641   1.338   1.723   3.640  0.4763 -0.1515 -0.6232
 3248SOL     OW10642   5.388   4.569   1.932  0.2165 -0.5682  1.1840
 3248SOL    HW110643   5.437   4.499   1.882 -0.3377 -0.7428  0.8735
 3248SOL    HW210644   5.453   4.629   1.978  0.6954 -1.3246  1.5128
 3249SOL     OW10645   3.892   3.396   1.760 -0.2627 -0.5102 -0.1191
 3249SOL    HW110646   3.865   3.492   1.750  1.4861 -0.0334 -0.6512
 3249SOL    HW210647   3.973   3.390   1.818  0.2432 -1.5413 -0.8902
 3250SOL     OW10648   5.302   0.890   5.440 -0.2889  0.2717 -0.0071
 3250SOL    HW110649   5.378   0.954   5.447 -0.0983 -0.1424  2.9230
 3250SOL    HW210650   5.333   0.808   5.392  1.0331  0.2735  0.7736
 3251SOL     OW10651   2.298   4.478   6.109  0.0356 -0.0894  0.5427
 3251SOL    HW110652   2.351   4.561   6.092 -2.0110  0.7976 -2.1763
 3251SOL    HW210653   2.343   4.400   6.066 -0.3766  0.5165 -1.0475
 3252SOL     OW10654   5.612   6.556   6.286 -0.2325  0.2712  0.1950
 3252SOL    HW110655   5.708   6.534   6.303  0.1232  1.7591  0.2183
 3252SOL    HW210656   5.554   6.487   6.331  0.7997  0.1725  1.4326
 3253SOL     OW10657   0.885   3.751   6.566  0.1793 -0.7327  0.1951
 3253SOL    HW110658   0.794   3.728   6.534  0.2242 -3.0960  1.5680
 3253SOL    HW210659   0.948   3.758   6.488 -0.3220 -3.3104 -0.5187
 3254SOL     OW10660   0.531   2.870   5.253 -0.3707  0.0225 -0.0871
 3254SOL    HW110661   0.517   2.777   5.287  0.5117  0.5327  1.8583
 3254SOL    HW210662   0.606   2.913   5.304 -0.0342  1.4464 -1.6890
 3255SOL     OW10663   1.050   5.638   0.446  0.4632 -0.1462  0.1624
 3255SOL    HW110664   1.114   5.667   0.517 -0.2831 -0.3910  0.9601
 3255SOL    HW210665   1.048   5.538   0.443  0.8027 -0.1396 -0.5063
 3256SOL     OW10666   5.011   6.436   1.887  0.2016 -0.0873 -0.3137
 3256SOL    HW110667   4.955   6.510   1.925  0.2648  1.0804 -2.2844
 3256SOL    HW210668   5.037   6.372   1.959 -2.1704  0.2985  0.9819
 3257SOL     OW10669   4.029   2.388   0.234  0.2245 -0.4305  0.3479
 3257SOL    HW110670   4.005   2.448   0.158  0.4168  0.3086  0.8636
 3257SOL    HW210671   4.085   2.438   0.300  0.2886 -1.1415  0.8462
 3258SOL     OW10672   3.373   6.493   6.383 -0.7192  0.1308 -0.1433
 3258SOL    HW110673   3.398   6.557   6.455 -2.4096 -0.0144  0.6149
 3258SOL    HW210674   3.451   6.480   6.322  1.1181 -0.4571  2.1550
 3259SOL     OW10675   1.440   6.936   6.524  0.0463  0.0724 -0.9064
 3259SOL    HW110676   1.407   6.861   6.582  1.5230 -0.5838 -0.8720
 3259SOL    HW210677   1.455   7.017   6.580 -0.8409  0.1853 -0.8141
 3260SOL     OW10678   2.717   5.917   5.094  0.0715  0.1970 -0.0563
 3260SOL    HW110679   2.750   5.885   5.005 -0.7083  3.0108 -1.4672
 3260SOL    HW210680   2.770   5.996   5.123 -0.7735  0.3418  1.1845
 3261SOL     OW10681   4.420   4.275   5.663 -0.5544 -0.0857 -0.6674
 3261SOL    HW110682   4.421   4.181   5.631 -0.5069 -1.1375  2.1365
 3261SOL    HW210683   4.327   4.311   5.658 -0.3302  0.3076 -3.1285
 3262SOL     OW10684   6.517   0.927   1.686 -0.6510  0.2993  0.3401
 3262SOL    HW110685   6.478   1.007   1.733 -0.0198  0.4965  0.5375
 3262SOL    HW210686   6.465   0.909   1.602 -1.0968  0.6236  0.5443
 3263SOL     OW10687   2.270   2.948   3.946 -0.6527 -0.3097 -0.0189
 3263SOL    HW110688   2.254   3.044   3.922 -1.5415 -0.7015 -1.0994
 3263SOL    HW210689   2.332   2.907   3.879 -0.3486 -0.5138  0.3848
 3264SOL     OW10690   5.197   4.212   4.967 -0.2792 -0.2784  0.0237
 3264SOL    HW110691   5.225   4.215   5.063  1.7658  0.6390 -0.5537
 3264SOL    HW210692   5.114   4.268   4.955 -0.4877 -0.3080  1.2226
 3265SOL     OW10693   3.386   1.489   6.473 -0.0538 -0.1448  0.3965
 3265SOL    HW110694   3.298   1.460   6.510 -0.2516 -1.2668 -0.8456
 3265SOL    HW210695   3.436   1.541   6.542 -0.8441 -1.1923  1.8151
 3266SOL     OW10696   3.085   0.785   3.117 -0.4324  0.2272 -0.6147
 3266SOL    HW110697   2.993   0.806   3.084 -0.1636  0.1025 -1.4757
 3266SOL    HW210698   3.079   0.719   3.192 -1.1122  1.2275  0.2341
 3267SOL     OW10699   3.973   5.073   3.626  0.2208 -0.2182 -0.0956
 3267SOL    HW110700   3.985   5.103   3.531  2.5543  0.8615  0.4814
 3267SOL    HW210701   4.037   4.998   3.645 -0.8241 -1.0012  0.4113
 3268SOL     OW10702   2.010   4.841   3.757  0.0369 -0.3143 -0.2776
 3268SOL    HW110703   2.059   4.923   3.727 -0.7810 -0.1408 -1.1963
 3268SOL    HW210704   1.977   4.855   3.851  1.2192 -0.2134  0.1381
 3269SOL     OW10705   3.806   6.425   0.351  0.2236 -0.6090  0.0709
 3269SOL    HW110706   3.776   6.515   0.385  1.1557 -0.3897  0.3665
 3269SOL    HW210707   3.772   6.353   0.411 -0.8345 -0.4920 -0.3706
 3270SOL     OW10708   0.727   4.194   3.958  0.0970  0.6970 -0.0864
 3270SOL    HW110709   0.775   4.267   4.007 -0.3894 -0.0135  1.5195
 3270SOL    HW210710   0.682   4.133   4.024  1.3487 -1.6895 -1.2878
 3271SOL     OW10711   4.375   5.363   4.566  0.2193  0.2445  0.4811
 3271SOL    HW110712   4.281   5.349   4.596  0.1998  0.6895  0.6261
 3271SOL    HW210713   4.433   5.380   4.645  0.2532  0.9318  0.3097
 3272SOL     OW10714   4.817   5.364   5.518  0.1796 -0.3125 -0.2784
 3272SOL    HW110715   4.753   5.291   5.494 -0.3459 -0.4688  1.4204
 3272SOL    HW210716   4.816   5.434   5.447 -0.1975 -1.3740 -1.3599
 3273SOL     OW10717   1.759   5.732   4.758 -0.3288  0.3662 -0.0990
 3273SOL    HW110718   1.699   5.702   4.832 -0.3302 -2.6190 -1.1458
 3273SOL    HW210719   1.833   5.788   4.795 -0.9700 -0.0757  1.9741
 3274SOL     OW10720   0.778   1.469   5.095 -0.2148 -0.0850  0.2763
 3274SOL    HW110721   0.842   1.541   5.067 -0.8730  0.1097 -0.7307
 3274SOL    HW210722   0.712   1.452   5.023  0.8147 -2.7544 -0.1479
 3275SOL     OW10723   5.917   3.246   6.628  0.3306 -0.4080 -0.2838
 3275SOL    HW110724   6.011   3.218   6.609  0.7401 -1.2703  2.5166
 3275SOL    HW210725   5.914   3.297   6.714 -1.8332 -0.9021 -0.0117
 3276SOL     OW10726   5.983   1.522   4.199 -0.6212 -0.0127 -0.4305
 3276SOL    HW110727   5.927   1.603   4.214  0.0622  0.2682  0.6860
 3276SOL    HW210728   5.963   1.454   4.269  3.0231  1.5335  2.4345
 3277SOL     OW10729   3.928   0.948   3.961  0.5060  0.1869 -0.3629
 3277SOL    HW110730   3.961   1.042   3.955  0.3491  0.1825 -1.4899
 3277SOL    HW210731   4.001   0.889   3.994  0.5104  0.7417  0.6650
 3278SOL     OW10732   3.377   6.349   3.113 -0.4293  0.6831 -0.5729
 3278SOL    HW110733   3.320   6.384   3.039 -1.1684 -0.5007 -0.6037
 3278SOL    HW210734   3.364   6.250   3.120  2.2008  0.2312 -1.0720
 3279SOL     OW10735   4.971   4.407   6.749  0.9810  0.5772  0.1021
 3279SOL    HW110736   5.007   4.499   6.741  0.2743  0.9912  1.3342
 3279SOL    HW210737   4.959   4.384   6.846  0.8235 -0.6776 -0.1918
 3280SOL     OW10738   5.193   2.137   0.020 -0.2206  0.6812  0.8620
 3280SOL    HW110739   5.142   2.097   0.096 -2.2175 -2.6650 -1.8842
 3280SOL    HW210740   5.129   2.183  -0.042  0.1806 -1.7967 -1.6150
 3281SOL     OW10741   0.710   0.764   2.588 -0.0515  0.0046  0.3320
 3281SOL    HW110742   0.759   0.709   2.656  0.9774  2.5961  1.8405
 3281SOL    HW210743   0.630   0.806   2.630  0.2214  1.1180 -0.2264
 3282SOL     OW10744   4.056   2.776   1.322 -0.0249 -0.5082 -0.0845
 3282SOL    HW110745   4.146   2.733   1.318 -0.2083 -0.7915 -1.5246
 3282SOL    HW210746   3.989   2.710   1.356  0.1776 -0.4973  0.3504
 3283SOL     OW10747   1.277   0.619   6.500  0.5901 -0.3700  1.0177
 3283SOL    HW110748   1.201   0.610   6.566 -0.2071 -1.6884 -0.0331
 3283SOL    HW210749   1.271   0.546   6.433  2.6679 -0.3267  0.7371
 3284SOL     OW10750   6.931   3.890   4.070  0.5013 -0.5459  0.0600
 3284SOL    HW110751   6.912   3.974   4.019 -2.3410 -0.6210  0.8477
 3284SOL    HW210752   7.029   3.886   4.092  1.1548  1.2910 -2.1176
 3285SOL     OW10753   4.788   0.726   6.205  0.0311  0.0237  0.2087
 3285SOL    HW110754   4.748   0.636   6.185 -1.2870  0.2632  1.5248
 3285SOL    HW210755   4.826   0.725   6.298 -1.3676  1.2256  0.8358
 3286SOL     OW10756   5.542   5.948   2.762 -0.0653 -0.3668  0.0855
 3286SOL    HW110757   5.637   5.932   2.734 -0.6487 -1.5086 -1.3484
 3286SOL    HW210758   5.481   5.891   2.708 -1.4718 -0.9333  2.1619
 3287SOL     OW10759   4.348   3.134   5.512 -0.1760  0.6279 -0.1856
 3287SOL    HW110760   4.437   3.176   5.494  0.4123 -0.8500 -0.8045
 3287SOL    HW210761   4.340   3.049   5.461 -2.2558  1.0961 -0.7207
 3288SOL     OW10762   1.178   4.882   1.110 -0.4315 -0.4903 -0.0466
 3288SOL    HW110763   1.263   4.842   1.144 -0.0585  0.7193  0.4829
 3288SOL    HW210764   1.185   4.981   1.111 -1.0963 -0.3768 -1.9422
 3289SOL     OW10765   1.227   4.669   3.448 -0.3658 -0.6392  0.2133
 3289SOL    HW110766   1.225   4.609   3.368 -1.0957 -0.7837  0.3327
 3289SOL    HW210767   1.224   4.614   3.532  1.0543 -0.5206  0.3642
 3290SOL     OW10768   1.300   3.267   2.463 -0.2796 -0.0044  0.8387
 3290SOL    HW110769   1.314   3.308   2.553  3.2057 -1.9260  1.3318
 3290SOL    HW210770   1.230   3.195   2.470 -0.6597  0.4447  1.7839
 3291SOL     OW10771   4.807   4.507   5.448  0.1726 -0.3479  0.5080
 3291SOL    HW110772   4.837   4.566   5.373  1.8850 -1.1600  0.5031
 3291SOL    HW210773   4.807   4.558   5.533  0.9083 -0.1257  0.3797
 3292SOL     OW10774   3.105   5.757   0.406 -0.0557 -0.1879  0.4773
 3292SOL    HW110775   3.133   5.841   0.360 -0.5535 -0.2862 -0.0111
 3292SOL    HW210776   3.024   5.720   0.362 -1.2762  0.3456  2.1676
 3293SOL     OW10777   2.278   5.431   0.641  0.8268 -0.3963  0.3048
 3293SOL    HW110778   2.207   5.489   0.682  0.7317 -0.1747 -0.1750
 3293SOL    HW210779   2.271   5.434   0.542  0.4951 -1.6501  0.2818
 3294SOL     OW10780   6.929   2.083   0.152  0.3808  0.4248 -0.4867
 3294SOL    HW110781   6.991   2.131   0.213 -0.2934  1.1873 -0.3911
 3294SOL    HW210782   6.913   2.138   0.070  1.1506 -0.5166 -1.2992
 3295SOL     OW10783   2.926   0.160   0.581  0.5993  0.5182  0.2764
 3295SOL    HW110784   2.835   0.201   0.580 -0.5306 -1.8009 -2.0731
 3295SOL    HW210785   2.923   0.073   0.629  1.6527  0.4672  0.2868
 3296SOL     OW10786   1.854   2.087   6.747 -0.0903  0.2636  0.6443
 3296SOL    HW110787   1.826   2.001   6.704  0.4845 -0.1280  1.0395
 3296SOL    HW210788   1.953   2.087   6.761 -0.1086  0.9193  0.8092
 3297SOL     OW10789   0.372   4.116   4.314  0.5002  0.0858  0.5596
 3297SOL    HW110790   0.434   4.077   4.246  2.2935  0.2216  2.0424
 3297SOL    HW210791   0.341   4.044   4.376  2.3448  0.5706  2.1706
 3298SOL     OW10792   1.283   3.692   3.506  0.1693  0.3250  0.2090
 3298SOL    HW110793   1.213   3.724   3.569  0.6609  0.9338  0.4585
 3298SOL    HW210794   1.364   3.664   3.557 -0.3926 -1.8118  0.0509
 3299SOL     OW10795   1.958   5.109   4.347  0.0436  0.6062 -0.1272
 3299SOL    HW110796   2.048   5.141   4.377 -0.4057 -0.0762  2.1672
 3299SOL    HW210797   1.937   5.022   4.392 -0.7752 -0.5083 -2.5094
 3300SOL     OW10798   5.557   4.131   0.591 -0.3876  0.2218  0.1203
 3300SOL    HW110799   5.540   4.101   0.685  0.5380  2.0381  0.9096
 3300SOL    HW210800   5.488   4.198   0.564 -0.5210 -0.1302 -0.4242
 3301SOL     OW10801   0.869   6.675   2.217 -0.0012 -0.3674  0.8265
 3301SOL    HW110802   0.771   6.692   2.222 -0.3339 -1.9607  0.4769
 3301SOL    HW210803   0.912   6.699   2.304 -1.2589 -2.7049  2.2014
 3302SOL     OW10804   6.320   3.860   1.749  0.0799  0.1423 -0.2057
 3302SOL    HW110805   6.334   3.880   1.846 -3.1607  1.3546  0.1502
 3302SOL    HW210806   6.344   3.941   1.695  3.4563 -1.0442 -0.7411
 3303SOL     OW10807   3.983   3.765   1.507 -0.4569  0.0828 -0.3812
 3303SOL    HW110808   4.054   3.807   1.563  0.5986  1.3278 -2.5027
 3303SOL    HW210809   3.900   3.752   1.561  0.1843  2.1079  1.1884
 3304SOL     OW10810   2.939   6.746   3.139  0.0153  0.3386 -0.1482
 3304SOL    HW110811   2.966   6.832   3.095  0.1572  1.5372  2.1071
 3304SOL    HW210812   2.982   6.669   3.092 -0.2447  1.4546 -2.3415
 3305SOL     OW10813   4.699   6.561   1.586  0.1459 -0.6260 -0.3134
 3305SOL    HW110814   4.610   6.524   1.560 -0.7517  0.5572  0.9568
 3305SOL    HW210815   4.727   6.630   1.520 -0.4005 -0.2285 -0.1355
 3306SOL     OW10816   4.335   5.408   6.180 -0.5698 -0.0487 -0.2432
 3306SOL    HW110817   4.366   5.465   6.104 -0.3318 -1.3847 -1.1934
 3306SOL    HW210818   4.385   5.432   6.263  0.5809  0.1318 -0.9683
 3307SOL     OW10819   6.448   4.283   6.164 -0.1589  0.7504 -0.0857
 3307SOL    HW110820   6.352   4.291   6.140 -0.0488  0.6544 -0.5741
 3307SOL    HW210821   6.471   4.186   6.174 -0.2171  0.7945  0.4596
 3308SOL     OW10822   6.039   6.279   1.438  0.1585  0.0156  0.0509
 3308SOL    HW110823   6.115   6.344   1.437 -1.3349  1.8481  0.3712
 3308SOL    HW210824   6.005   6.269   1.532 -0.5832 -0.0383 -0.2143
 3309SOL     OW10825   0.295   1.183   5.928 -0.2891  0.1144  0.3307
 3309SOL    HW110826   0.225   1.151   5.993  0.9309 -0.0393  1.6006
 3309SOL    HW210827   0.250   1.211   5.843 -2.1993  2.3736  1.9475
 3310SOL     OW10828   6.262   5.197   1.177  0.2034 -0.1449 -0.0518
 3310SOL    HW110829   6.268   5.297   1.177 -0.0939 -0.1218 -0.6071
 3310SOL    HW210830   6.195   5.168   1.108  2.3462 -0.8425 -1.9421
 3311SOL     OW10831   4.034   4.843   6.985 -0.1530  0.1663  0.5193
 3311SOL    HW110832   3.938   4.849   6.958  0.3332  1.6673 -1.0388
 3311SOL    HW210833   4.056   4.921   7.044  0.0887 -0.2357  0.9623
 3312SOL     OW10834   3.926   5.224   5.831 -0.3195 -0.5699 -0.2185
 3312SOL    HW110835   3.976   5.309   5.842 -1.0486 -0.1700  0.1001
 3312SOL    HW210836   3.985   5.147   5.853  0.3351 -0.1461 -0.4720
 3313SOL     OW10837   0.512   5.070   2.699  0.0888 -0.1451  0.0957
 3313SOL    HW110838   0.476   5.155   2.662 -0.6019 -1.4051 -2.3602
 3313SOL    HW210839   0.453   5.037   2.772 -0.7021  0.5402 -0.2200
 3314SOL     OW10840   4.950   0.838   0.020  0.0305 -0.5244 -0.3138
 3314SOL    HW110841   4.923   0.751   0.060 -2.2280  0.4733  0.4774
 3314SOL    HW210842   4.882   0.866  -0.048 -0.6469  1.7314  1.1901
 3315SOL     OW10843   5.112   5.364   4.753 -0.1370 -0.3796 -0.2594
 3315SOL    HW110844   5.154   5.362   4.844 -0.0306 -2.3737 -0.3031
 3315SOL    HW210845   5.056   5.446   4.743  3.4298  2.3685 -0.0725
 3316SOL     OW10846   1.439   4.452   3.799 -0.2342  0.3033 -0.1822
 3316SOL    HW110847   1.469   4.368   3.843 -0.4391 -0.0596 -0.7248
 3316SOL    HW210848   1.481   4.530   3.844 -2.3068  0.1254  2.2737
 3317SOL     OW10849   1.612   1.018   5.163  0.0406  1.0895 -0.3521
 3317SOL    HW110850   1.688   1.007   5.227  0.0862  0.9037 -0.4397
 3317SOL    HW210851   1.539   0.954   5.187  0.5435  0.1664 -1.2198
 3318SOL     OW10852   0.525   6.202   2.140 -0.1070  0.5466 -0.1691
 3318SOL    HW110853   0.539   6.213   2.042 -1.9307  0.4700 -0.4768
 3318SOL    HW210854   0.610   6.221   2.189  2.0288 -3.3115 -1.9670
 3319SOL     OW10855   5.066   2.162   5.539  0.1390 -0.4319  0.2313
 3319SOL    HW110856   5.011   2.246   5.537  0.8568  0.0751  0.8450
 3319SOL    HW210857   5.053   2.111   5.455  0.4437  0.7964 -0.5844
 3320SOL     OW10858   4.259   6.953   1.406  0.0788  0.0187  0.2942
 3320SOL    HW110859   4.270   7.002   1.493  0.6401  3.1120 -1.3780
 3320SOL    HW210860   4.239   7.018   1.333 -2.7476 -2.7013 -1.5858
 3321SOL     OW10861   5.197   3.811   4.908  0.5487  0.4045  0.1616
 3321SOL    HW110862   5.178   3.897   4.860 -0.1452  0.6685  0.8755
 3321SOL    HW210863   5.294   3.804   4.928  0.3242  2.3280  2.4348
 3322SOL     OW10864   3.709   6.677   5.050  0.2136 -0.0880 -0.1893
 3322SOL    HW110865   3.780   6.729   5.002  0.8964 -0.3267  0.5402
 3322SOL    HW210866   3.736   6.663   5.145  0.4954 -2.5633 -0.5763
 3323SOL     OW10867   2.568   6.191   3.562 -0.7045 -0.6218 -0.2807
 3323SOL    HW110868   2.484   6.154   3.522 -2.6989  2.6638  0.5044
 3323SOL    HW210869   2.602   6.128   3.632 -3.2678 -1.4906  0.3097
 3324SOL     OW10870   5.882   2.283   6.697 -0.1782 -0.3294  0.1883
 3324SOL    HW110871   5.823   2.225   6.752  1.5276 -3.1439 -0.6987
 3324SOL    HW210872   5.854   2.278   6.601 -1.3069  2.1391  0.3218
 3325SOL     OW10873   1.467   4.944   4.571  0.1691 -0.3044  0.0898
 3325SOL    HW110874   1.432   4.853   4.593 -0.0707 -0.6420 -1.5196
 3325SOL    HW210875   1.392   5.003   4.543  0.5773 -0.3267 -1.1178
 3326SOL     OW10876   3.404   0.281   3.213 -0.0392  0.2810  0.0953
 3326SOL    HW110877   3.412   0.215   3.138  1.5780  0.1904  0.3139
 3326SOL    HW210878   3.446   0.367   3.185 -3.2675  1.7459 -0.6854
 3327SOL     OW10879   1.149   3.080   3.842  0.0586  0.1537  0.0005
 3327SOL    HW110880   1.242   3.116   3.842 -0.2763  1.1679 -1.9142
 3327SOL    HW210881   1.084   3.155   3.856 -0.5333 -0.1186 -1.1319
 3328SOL     OW10882   0.928   5.949   5.117 -0.2120  0.0922 -0.4452
 3328SOL    HW110883   0.871   5.946   5.035  1.9054  1.4805 -2.0729
 3328SOL    HW210884   0.956   5.856   5.142 -3.2930 -0.6809  0.6084
 3329SOL     OW10885   2.085   4.048   4.542  0.5226  0.4357 -0.1518
 3329SOL    HW110886   2.152   4.122   4.531  1.0870  0.0521  0.6131
 3329SOL    HW210887   1.999   4.086   4.576  1.1616  0.6214  1.3482
 3330SOL     OW10888   1.889   5.000   0.124 -0.4889  0.6984  0.2166
 3330SOL    HW110889   1.798   4.983   0.162 -0.0240 -0.5747  0.8225
 3330SOL    HW210890   1.923   5.089   0.156 -1.0905  0.7086  0.8459
 3331SOL     OW10891   2.770   1.959   6.145 -0.0582 -0.1359  0.2689
 3331SOL    HW110892   2.761   2.013   6.062  1.6154  2.2222  1.5091
 3331SOL    HW210893   2.696   1.982   6.208  1.4091  1.9388  1.3575
 3332SOL     OW10894   3.248   2.919   4.748 -0.4874 -0.3265 -0.3616
 3332SOL    HW110895   3.201   2.831   4.752  0.4800 -0.8895 -1.0348
 3332SOL    HW210896   3.215   2.978   4.822  0.0560 -1.8601  1.1652
 3333SOL     OW10897   5.623   3.997   0.355 -0.3901  0.0090 -0.1893
 3333SOL    HW110898   5.656   4.003   0.450 -0.0089  0.6292 -0.3593
 3333SOL    HW210899   5.633   4.086   0.310 -0.0220 -0.4260 -0.9911
 3334SOL     OW10900   1.010   4.050   5.124 -0.4230  0.1032  0.1522
 3334SOL    HW110901   1.011   3.950   5.134  0.4853  0.0241 -0.5753
 3334SOL    HW210902   0.916   4.083   5.125 -0.7363 -0.7690  0.3231
 3335SOL     OW10903   1.803   4.134   2.736 -0.2246  0.3914 -0.1942
 3335SOL    HW110904   1.854   4.053   2.766 -2.2596 -0.5778  0.8628
 3335SOL    HW210905   1.762   4.116   2.646  0.8105  0.9715 -0.8009
 3336SOL     OW10906   5.922   5.359   0.054 -0.0626  0.2075  0.1631
 3336SOL    HW110907   5.918   5.327  -0.040  1.2623  0.3748  0.0376
 3336SOL    HW210908   5.973   5.445   0.058  3.3395 -1.6645  1.4460
 3337SOL     OW10909   3.793   5.114   3.857 -0.0074 -0.1783  0.1909
 3337SOL    HW110910   3.741   5.032   3.833  0.9745 -0.5624 -0.6901
 3337SOL    HW210911   3.854   5.138   3.782 -0.0787  1.2110  0.5528
 3338SOL     OW10912   6.239   6.123   4.144 -0.2146 -0.5146 -0.1080
 3338SOL    HW110913   6.152   6.140   4.097 -0.7658  2.3746  1.7359
 3338SOL    HW210914   6.310   6.180   4.103  0.0894 -0.5327  0.3895
 3339SOL     OW10915   1.828   3.513   1.592  0.4389 -0.3347 -0.4696
 3339SOL    HW110916   1.769   3.445   1.636 -0.9311  1.7928  1.1609
 3339SOL    HW210917   1.921   3.503   1.627 -0.2353  0.0912  1.6066
 3340SOL     OW10918   2.414   3.968   1.416  0.0137 -0.1076  0.2052
 3340SOL    HW110919   2.476   3.909   1.467  0.2645  1.0306  1.2577
 3340SOL    HW210920   2.330   3.981   1.468  0.4932  1.5156  0.6392
 3341SOL     OW10921   5.425   3.672   2.627  0.1206 -0.0957 -0.1979
 3341SOL    HW110922   5.465   3.603   2.686 -2.5809 -0.0653  1.8671
 3341SOL    HW210923   5.368   3.627   2.558 -1.0359 -0.0302  0.6779
 3342SOL     OW10924   2.317   6.027   4.443  0.2410 -0.6048 -0.7479
 3342SOL    HW110925   2.391   5.959   4.443 -0.6223 -1.5970 -2.3631
 3342SOL    HW210926   2.255   6.008   4.519  0.4525 -1.1134 -0.6952
 3343SOL     OW10927   3.831   1.895   1.737 -0.2387 -0.4092 -0.3699
 3343SOL    HW110928   3.860   1.921   1.829 -0.9175 -0.5196 -0.1254
 3343SOL    HW210929   3.762   1.959   1.704 -0.6016 -0.8549 -0.4765
 3344SOL     OW10930   2.553   5.712   5.148  0.1978 -0.0930 -0.0102
 3344SOL    HW110931   2.493   5.707   5.069 -0.0953 -0.4933  0.2355
 3344SOL    HW210932   2.624   5.781   5.132  0.0570 -0.0753 -0.5601
 3345SOL     OW10933   6.838   4.512   6.384  0.2879 -0.5802 -0.2116
 3345SOL    HW110934   6.775   4.437   6.365  0.7998 -0.8294 -0.9712
 3345SOL    HW210935   6.839   4.531   6.482  0.3737 -1.7610  0.0342
 3346SOL     OW10936   6.381   1.423   3.620 -0.5799  0.0441  0.4748
 3346SOL    HW110937   6.400   1.500   3.681 -1.3740  0.0986  0.6617
 3346SOL    HW210938   6.392   1.452   3.525 -1.1213  0.4570  0.5381
 3347SOL     OW10939   1.877   0.979   5.242 -0.2928 -0.9046 -0.5082
 3347SOL    HW110940   1.936   0.959   5.320 -0.3425  0.0205 -0.2203
 3347SOL    HW210941   1.920   0.944   5.158  0.4071 -0.7277 -0.2329
 3348SOL     OW10942   3.870   0.744   1.647  0.4499 -0.0540 -0.4525
 3348SOL    HW110943   3.819   0.829   1.631  1.1020  0.7650  1.5579
 3348SOL    HW210944   3.829   0.693   1.723  3.2911  1.3622  2.2754
 3349SOL     OW10945   6.666   0.322   2.879  0.0562 -0.4075  0.4867
 3349SOL    HW110946   6.686   0.296   2.785 -1.7330  0.7564 -0.2703
 3349SOL    HW210947   6.663   0.240   2.936  1.7449 -1.0720 -0.3235
 3350SOL     OW10948   1.266   2.387   5.852 -0.5536 -0.7856  0.1053
 3350SOL    HW110949   1.344   2.396   5.791 -0.9287 -0.0789 -0.2839
 3350SOL    HW210950   1.298   2.357   5.942  0.4392  1.4286  0.5473
 3351SOL     OW10951   4.331   5.786   5.998  0.3689  0.0555 -0.0010
 3351SOL    HW110952   4.419   5.741   5.987  0.1679 -0.7061  1.3113
 3351SOL    HW210953   4.341   5.883   5.974  1.6741  0.0822  0.5408
 3352SOL     OW10954   5.195   0.499   4.454 -0.1456  0.4001  0.0836
 3352SOL    HW110955   5.232   0.424   4.508 -0.0568 -0.9048 -1.7151
 3352SOL    HW210956   5.137   0.463   4.381  0.7047  1.9807 -1.4480
 3353SOL     OW10957   6.570   5.044   1.637  0.0531  0.0109  0.0250
 3353SOL    HW110958   6.641   5.024   1.704 -0.3292  1.1038  0.7895
 3353SOL    HW210959   6.482   5.011   1.671  0.2308 -1.6825 -1.0894
 3354SOL     OW10960   3.488   2.832   5.095  0.1632  0.1839  1.1062
 3354SOL    HW110961   3.501   2.931   5.104  3.4611 -0.1457  0.9865
 3354SOL    HW210962   3.530   2.801   5.010 -1.7724 -1.2580  0.5927
 3355SOL     OW10963   0.995   6.769   0.790 -0.1357 -0.4117 -0.3982
 3355SOL    HW110964   1.009   6.715   0.874  0.2437  0.1890 -0.0685
 3355SOL    HW210965   0.947   6.853   0.812 -0.2103 -0.3417 -0.8220
 3356SOL     OW10966   0.106   5.517   0.763 -0.2004  0.0265  0.1946
 3356SOL    HW110967   0.059   5.451   0.705  0.6779  0.2676 -0.8438
 3356SOL    HW210968   0.187   5.474   0.804 -0.5794 -0.0192  0.9129
 3357SOL     OW10969   4.628   4.699   2.873 -0.2674  0.6308 -0.0563
 3357SOL    HW110970   4.700   4.766   2.894  0.5460  0.0648 -0.9745
 3357SOL    HW210971   4.669   4.611   2.853 -1.3679 -0.5732  2.4339
 3358SOL     OW10972   4.285   1.921   3.398 -0.7820  0.2537 -0.6021
 3358SOL    HW110973   4.228   2.003   3.394 -1.0134  0.0984 -0.5326
 3358SOL    HW210974   4.372   1.943   3.443 -0.3155  0.7575 -1.7332
 3359SOL     OW10975   1.832   0.756   5.871 -0.4984  0.7916  0.6936
 3359SOL    HW110976   1.894   0.699   5.926 -1.7816 -0.6538  0.6820
 3359SOL    HW210977   1.858   0.751   5.775 -0.3773  0.5230  0.7395
 3360SOL     OW10978   5.669   4.220   5.335  0.3379  0.3224  0.2016
 3360SOL    HW110979   5.721   4.261   5.410 -0.9656  0.7897  0.8727
 3360SOL    HW210980   5.662   4.122   5.348  0.0336  0.4163  0.7408
 3361SOL     OW10981   0.520   3.601   4.386 -0.3847 -0.3936 -0.4231
 3361SOL    HW110982   0.489   3.515   4.427 -0.1361 -0.9205 -1.3208
 3361SOL    HW210983   0.450   3.636   4.324  0.6885 -1.5069 -2.3412
 3362SOL     OW10984   5.540   2.197   1.676  0.0441 -0.3564 -0.0368
 3362SOL    HW110985   5.592   2.279   1.701  1.1559 -0.8537 -0.6288
 3362SOL    HW210986   5.554   2.178   1.579 -0.4236 -1.1032  0.0380
 3363SOL     OW10987   3.906   0.103   5.412 -0.5645 -0.4096 -0.3605
 3363SOL    HW110988   3.937   0.061   5.326  0.6367  2.2346 -1.3398
 3363SOL    HW210989   3.830   0.166   5.393 -2.2118 -1.8757  1.0253
 3364SOL     OW10990   2.808   6.572   4.598 -0.8508  0.0406 -0.0494
 3364SOL    HW110991   2.827   6.474   4.587 -1.8270  0.0765 -3.2720
 3364SOL    HW210992   2.776   6.590   4.691  0.5952 -2.4325  1.0258
 3365SOL     OW10993   5.342   2.958   1.009  0.1473 -0.4244 -0.3980
 3365SOL    HW110994   5.303   3.033   0.956 -2.4314 -0.5246  1.1905
 3365SOL    HW210995   5.419   2.991   1.063  1.5462  0.1119 -2.5635
 3366SOL     OW10996   0.686   3.211   6.877  0.4103 -0.4874  0.6005
 3366SOL    HW110997   0.660   3.114   6.870 -0.4579 -0.2978  1.0361
 3366SOL    HW210998   0.767   3.228   6.822  1.6308 -1.8403  1.9141
 3367SOL     OW10999   4.233   6.790   1.895  0.3068 -0.4803  0.1025
 3367SOL    HW111000   4.295   6.723   1.855  2.2196  0.1223  1.8949
 3367SOL    HW211001   4.139   6.757   1.885  1.0731 -2.8233 -0.1594
 3368SOL     OW11002   4.196   4.759   2.525 -0.1822  0.1213 -0.2195
 3368SOL    HW111003   4.173   4.852   2.498  0.9832  1.0388  1.7655
 3368SOL    HW211004   4.273   4.726   2.471 -1.2560 -0.1496 -1.6641
 3369SOL     OW11005   4.215   0.392   1.000  0.3776 -0.6255  0.0854
 3369SOL    HW111006   4.302   0.346   0.984  1.5182  1.5587 -0.3350
 3369SOL    HW211007   4.209   0.422   1.095 -0.1656 -1.1881  0.2423
 3370SOL     OW11008   0.223   1.799   6.160 -0.6937 -0.4840  0.7944
 3370SOL    HW111009   0.247   1.796   6.063 -2.0899  0.9287  0.3631
 3370SOL    HW211010   0.272   1.727   6.209  2.0616  0.3864 -0.4846
 3371SOL     OW11011   5.671   6.151   0.878  0.4110 -0.3041  0.0870
 3371SOL    HW111012   5.605   6.129   0.950 -0.5832  1.1908 -0.3365
 3371SOL    HW211013   5.709   6.066   0.841 -1.0638 -1.1868  0.5365
 3372SOL     OW11014   5.866   2.235   5.440 -0.3563 -0.5636  0.2105
 3372SOL    HW111015   5.855   2.278   5.530 -1.2179 -0.7887  0.2280
 3372SOL    HW211016   5.812   2.287   5.373  1.3451  0.4096 -0.4612
 3373SOL     OW11017   1.422   3.851   5.601  0.1113  0.3839  0.2595
 3373SOL    HW111018   1.466   3.782   5.659 -0.5275  0.1523  0.4811
 3373SOL    HW211019   1.486   3.926   5.584  0.4884  0.1963  0.8225
 3374SOL     OW11020   6.882   6.359   6.279  0.1707  0.0045  0.5618
 3374SOL    HW111021   6.867   6.421   6.357 -0.9673  0.6182 -0.1188
 3374SOL    HW211022   6.962   6.389   6.227  0.8204 -0.2931  1.3629
 3375SOL     OW11023   6.800   2.665   6.967  0.8101  0.3475 -0.0246
 3375SOL    HW111024   6.774   2.734   7.034  0.5409  1.0836 -0.8684
 3375SOL    HW211025   6.801   2.575   7.011  0.2748  0.7627  0.8687
 3376SOL     OW11026   6.129   5.717   6.985  0.1294 -0.0641 -0.2274
 3376SOL    HW111027   6.227   5.728   7.002  0.1675 -2.7629  2.0311
 3376SOL    HW211028   6.114   5.642   6.922 -0.4689 -1.3079  1.3216
 3377SOL     OW11029   6.993   0.976   3.034 -0.6779  0.1839 -0.1308
 3377SOL    HW111030   6.993   1.061   3.087  3.2482  0.1014  0.3366
 3377SOL    HW211031   7.007   0.998   2.937 -1.0247  0.1263 -0.1926
 3378SOL     OW11032   2.106   0.429   5.524 -0.0126 -0.2833  0.5604
 3378SOL    HW111033   2.122   0.336   5.558  0.7314  0.1523  1.4236
 3378SOL    HW211034   2.059   0.424   5.436  0.7947 -1.5145  0.1714
 3379SOL     OW11035   1.827   6.501   2.823 -0.1224 -0.2230 -0.0088
 3379SOL    HW111036   1.785   6.456   2.744  2.2383 -1.1854 -0.8064
 3379SOL    HW211037   1.894   6.568   2.792 -1.6006  1.9328  1.2143
 3380SOL     OW11038   2.313   3.521   1.611  0.0187  0.0570 -0.1243
 3380SOL    HW111039   2.396   3.520   1.557 -0.1140 -3.0897 -0.4398
 3380SOL    HW211040   2.331   3.482   1.702 -0.9740 -0.1773 -0.0068
 3381SOL     OW11041   5.938   0.186   4.997 -0.0883 -0.3097  0.0826
 3381SOL    HW111042   6.031   0.202   4.965 -0.6083  1.4145 -0.6814
 3381SOL    HW211043   5.941   0.141   5.087  1.5701  2.1013  1.3623
 3382SOL     OW11044   3.878   4.593   1.638 -0.1099 -0.3056  0.1309
 3382SOL    HW111045   3.972   4.582   1.672  0.1615  0.0091 -0.4997
 3382SOL    HW211046   3.865   4.536   1.557  1.0938  3.1305 -2.7500
 3383SOL     OW11047   1.172   6.841   0.595 -0.2781  0.3686  0.0709
 3383SOL    HW111048   1.117   6.849   0.512 -0.5307 -1.7952 -0.0379
 3383SOL    HW211049   1.111   6.844   0.675 -0.5137 -1.2860 -0.0178
 3384SOL     OW11050   2.960   3.356   3.014  0.0053 -0.7668 -0.0417
 3384SOL    HW111051   2.891   3.404   2.960  0.4195  0.6267  0.6360
 3384SOL    HW211052   3.051   3.380   2.981  0.2262 -2.8621 -1.1611
 3385SOL     OW11053   6.685   4.113   5.468 -0.7362  0.0705  0.0542
 3385SOL    HW111054   6.713   4.064   5.551  0.2456  1.3923  0.5210
 3385SOL    HW211055   6.726   4.068   5.388  0.1697  0.1266  0.4753
 3386SOL     OW11056   0.049   1.079   6.871 -0.0108  0.4347  0.3149
 3386SOL    HW111057   0.105   1.128   6.937 -0.1506 -0.3487  1.0333
 3386SOL    HW211058  -0.035   1.130   6.853  0.0553  0.6787  0.7006
 3387SOL     OW11059   4.853   3.522   1.824 -0.4723  0.1729  0.1819
 3387SOL    HW111060   4.777   3.499   1.764 -0.2667  0.6777 -0.2768
 3387SOL    HW211061   4.879   3.441   1.878 -1.0834 -0.1002  0.0732
 3388SOL     OW11062   0.281   2.977   5.188 -0.5060  0.2327  1.0178
 3388SOL    HW111063   0.239   2.905   5.244  1.4421 -2.5533 -0.8521
 3388SOL    HW211064   0.378   2.957   5.176 -0.3671  1.9985 -1.3949
 3389SOL     OW11065   4.753   5.648   0.162  0.1641  0.4006 -0.2834
 3389SOL    HW111066   4.671   5.702   0.141 -0.3939 -0.7498 -1.1642
 3389SOL    HW211067   4.746   5.559   0.118  1.8537  0.2410 -0.2816
 3390SOL     OW11068   4.725   1.751   4.286  0.5566  0.5127  0.1258
 3390SOL    HW111069   4.785   1.675   4.309  0.5416  1.2560  3.0640
 3390SOL    HW211070   4.772   1.838   4.303  0.4931  1.2498 -2.9136
 3391SOL     OW11071   5.691   0.932   6.994 -0.5167  0.2157 -0.4639
 3391SOL    HW111072   5.629   1.006   7.019 -0.1720  0.1258  0.7486
 3391SOL    HW211073   5.768   0.969   6.942 -0.4676  0.6817 -0.0685
 3392SOL     OW11074   6.007   3.367   0.977  0.4053  0.4342  0.3869
 3392SOL    HW111075   5.930   3.388   0.917  0.0537  0.4109  0.8216
 3392SOL    HW211076   6.066   3.299   0.933  0.2428  0.5427 -0.0013
 3393SOL     OW11077   5.273   1.110   2.182 -0.0525 -0.5162  0.1501
 3393SOL    HW111078   5.202   1.108   2.253 -0.0242 -0.4508  0.1804
 3393SOL    HW211079   5.352   1.162   2.215 -0.8859  1.3976 -0.7075
 3394SOL     OW11080   3.935   6.017   5.297  0.2639  0.2132 -0.3955
 3394SOL    HW111081   3.874   6.082   5.251  0.6110  1.5120  0.9284
 3394SOL    HW211082   3.911   6.011   5.393  1.2198 -0.4848 -0.1850
 3395SOL     OW11083   4.848   6.221   5.251  0.2891  0.2728 -0.2442
 3395SOL    HW111084   4.838   6.257   5.344  0.2915  2.0616 -0.8947
 3395SOL    HW211085   4.757   6.204   5.212  0.2491  0.6755 -0.3309
 3396SOL     OW11086   2.008   3.120   5.428 -0.2049  0.5817  0.4744
 3396SOL    HW111087   2.070   3.055   5.384  1.4148  2.1394  0.3506
 3396SOL    HW211088   1.950   3.163   5.358  0.8305  1.4441  0.1226
 3397SOL     OW11089   1.541   2.815   0.808 -0.6764  0.0383  0.8590
 3397SOL    HW111090   1.478   2.892   0.797  0.6667  0.9068 -1.8419
 3397SOL    HW211091   1.634   2.850   0.816  0.3295 -1.1035 -3.1884
 3398SOL     OW11092   0.927   5.303   6.354  0.5031  0.3744  0.2231
 3398SOL    HW111093   0.867   5.378   6.326 -0.3385 -0.9262 -1.6700
 3398SOL    HW211094   0.955   5.316   6.449 -2.2939  1.3600  1.0002
 3399SOL     OW11095   1.646   6.231   4.541 -0.5351 -0.3309 -0.4971
 3399SOL    HW111096   1.717   6.295   4.511 -1.2031  0.1127 -1.1558
 3399SOL    HW211097   1.580   6.278   4.599  0.4490 -1.0631  1.2989
 3400SOL     OW11098   2.374   4.349   6.676 -0.0126 -0.0854 -0.8374
 3400SOL    HW111099   2.357   4.404   6.758  1.3211 -1.3952  0.3778
 3400SOL    HW211100   2.324   4.388   6.598 -0.5742  1.7302  0.3793
 3401SOL     OW11101   4.894   1.344   2.101 -0.2679  0.3721  0.6599
 3401SOL    HW111102   4.891   1.411   2.027 -0.9138  1.4430  1.6249
 3401SOL    HW211103   4.933   1.259   2.067 -1.1892  0.6046 -1.0886
 3402SOL     OW11104   6.861   6.181   4.415 -0.5144 -0.4634  0.0805
 3402SOL    HW111105   6.940   6.120   4.425 -0.9617 -0.9823  0.5537
 3402SOL    HW211106   6.809   6.183   4.500 -1.1611 -0.3386 -0.3043
 3403SOL     OW11107   4.507   6.047   0.120  0.1175  0.3230  0.2792
 3403SOL    HW111108   4.604   6.040   0.145  0.2056 -0.4186 -0.2385
 3403SOL    HW211109   4.471   6.135   0.151  1.2418  1.0810 -0.4589
 3404SOL     OW11110   2.417   5.544   3.103 -0.3380  0.9691 -0.1540
 3404SOL    HW111111   2.446   5.475   3.170 -0.0264 -0.2552 -1.4908
 3404SOL    HW211112   2.319   5.560   3.113 -0.9288 -1.4818 -1.3351
 3405SOL     OW11113   3.074   6.588   0.040 -0.3670 -0.1949  0.1028
 3405SOL    HW111114   3.022   6.594   0.125  0.2796 -1.0555  0.5654
 3405SOL    HW211115   3.012   6.562  -0.034 -0.5807 -1.3745  0.6775
 3406SOL     OW11116   3.409   6.658   1.063  0.5669 -0.1566 -0.2092
 3406SOL    HW111117   3.480   6.717   1.102 -0.0479  0.3238  0.2038
 3406SOL    HW211118   3.449   6.570   1.037  1.8414  0.9409 -2.2578
 3407SOL     OW11119   3.088   1.217   1.942 -0.0038 -0.6301 -0.2384
 3407SOL    HW111120   3.116   1.285   1.874 -1.8282 -0.8601 -1.2960
 3407SOL    HW211121   3.075   1.262   2.031 -1.3225  0.4689 -0.9495
 3408SOL     OW11122   2.133   0.383   6.347 -0.2559  0.2967  0.0137
 3408SOL    HW111123   2.149   0.307   6.410 -1.6704 -1.0258 -1.1519
 3408SOL    HW211124   2.068   0.448   6.388 -0.4069 -0.0317  0.2977
 3409SOL     OW11125   3.517   1.812   3.933  0.3066  0.1909  0.2340
 3409SOL    HW111126   3.524   1.717   3.901  0.5284  0.2604  0.0731
 3409SOL    HW211127   3.496   1.812   4.031  0.6966 -0.0296  0.3222
 3410SOL     OW11128   3.174   0.979   4.344 -0.4578  0.3732  0.5702
 3410SOL    HW111129   3.089   0.973   4.292 -0.5261 -1.2099  0.8176
 3410SOL    HW211130   3.152   0.995   4.441 -0.5635 -1.0841  0.8147
 3411SOL     OW11131   0.562   4.304   6.319  0.5894 -0.3628 -0.4131
 3411SOL    HW111132   0.580   4.224   6.376  0.0245 -0.0766  0.1794
 3411SOL    HW211133   0.483   4.354   6.355 -0.3605 -0.6827 -1.9558
 3412SOL     OW11134   5.612   1.944   2.261  0.2288  0.3600  0.2854
 3412SOL    HW111135   5.513   1.937   2.246 -0.1228  1.0274  1.9771
 3412SOL    HW211136   5.644   1.860   2.306  0.6566 -0.2934 -1.1852
 3413SOL     OW11137   0.564   5.919   6.244  0.1666  0.1534 -0.4932
 3413SOL    HW111138   0.467   5.899   6.227  0.4540  0.4081 -2.8347
 3413SOL    HW211139   0.616   5.900   6.161  2.4677 -1.7732  1.2432
 3414SOL     OW11140   1.262   6.654   1.655 -0.3636  0.1545 -0.0397
 3414SOL    HW111141   1.227   6.720   1.721 -2.0690  1.3010 -1.9744
 3414SOL    HW211142   1.251   6.561   1.691 -1.2498  0.7359  1.2554
 3415SOL     OW11143   1.265   0.652   0.089 -0.4035 -0.3532 -0.6472
 3415SOL    HW111144   1.185   0.592   0.103  0.1498 -0.8985  0.2639
 3415SOL    HW211145   1.308   0.628   0.002 -0.1464 -1.3538 -0.2654
 3416SOL     OW11146   5.589   1.746   4.718 -0.7480 -0.3189 -0.4637
 3416SOL    HW111147   5.504   1.791   4.745 -0.0451  0.0016  1.4249
 3416SOL    HW211148   5.569   1.659   4.674 -2.0725  0.6291 -1.8222
 3417SOL     OW11149   4.438   1.070   2.003  0.1331 -0.1112 -0.5161
 3417SOL    HW111150   4.369   1.133   1.967 -0.0574  0.1366  0.2654
 3417SOL    HW211151   4.514   1.064   1.938 -0.8057 -0.7310 -1.6084
 3418SOL     OW11152   6.844   4.726   6.574 -0.0402  0.2358  0.3287
 3418SOL    HW111153   6.745   4.727   6.588  0.0226  1.3528  0.7848
 3418SOL    HW211154   6.890   4.747   6.660  0.5407  1.2479 -0.2149
 3419SOL     OW11155   1.696   5.903   1.004  0.1466 -0.4028 -0.3042
 3419SOL    HW111156   1.746   5.941   1.082  0.6036 -1.0593 -0.2682
 3419SOL    HW211157   1.662   5.812   1.027  4.0233 -2.6138 -2.1847
 3420SOL     OW11158   5.511   1.186   1.124 -0.5672 -0.1583 -0.6110
 3420SOL    HW111159   5.503   1.286   1.115 -1.3899 -0.2954 -1.5474
 3420SOL    HW211160   5.605   1.163   1.149  0.1512  0.7607 -2.2758
 3421SOL     OW11161   6.345   0.818   5.421 -0.1494 -0.1646 -0.5664
 3421SOL    HW111162   6.260   0.810   5.474 -1.5833  1.5719 -2.4702
 3421SOL    HW211163   6.364   0.732   5.374  1.4475 -1.9602  2.9544
 3422SOL     OW11164   6.936   2.441   0.945 -0.0687  0.1420  0.3475
 3422SOL    HW111165   6.892   2.502   1.011  1.8471  0.1672  1.6719
 3422SOL    HW211166   6.868   2.376   0.910 -1.6922  1.7263  0.3966
 3423SOL     OW11167   1.645   2.064   0.451 -0.1416 -0.7124  0.2487
 3423SOL    HW111168   1.725   2.074   0.393  0.4650 -0.7338  1.0675
 3423SOL    HW211169   1.645   1.973   0.492 -1.5600 -1.3952 -1.1584
 3424SOL     OW11170   0.943   5.950   6.416 -0.1819 -0.0498  0.2474
 3424SOL    HW111171   0.865   5.993   6.463 -1.1427  0.1188 -1.4156
 3424SOL    HW211172   0.946   5.853   6.439 -0.4621  0.0838  0.8747
 3425SOL     OW11173   6.104   2.158   4.131  0.2697 -0.1521 -0.2212
 3425SOL    HW111174   6.188   2.182   4.179  0.7812 -0.0857 -1.1267
 3425SOL    HW211175   6.127   2.102   4.051 -0.5723 -0.3731 -0.3127
 3426SOL     OW11176   1.030   1.632   1.243  0.4692 -0.5303 -0.0423
 3426SOL    HW111177   0.959   1.573   1.281  0.0400 -0.4259 -0.6562
 3426SOL    HW211178   1.006   1.657   1.149  0.9480  0.1227 -0.0032
 3427SOL     OW11179   4.152   6.060   0.451 -0.3776 -0.4228  0.1682
 3427SOL    HW111180   4.064   6.025   0.485 -0.8730  0.4165 -0.2079
 3427SOL    HW211181   4.141   6.156   0.424  0.3216 -0.7049 -1.1763
 3428SOL     OW11182   0.926   4.817   1.113 -0.0406 -0.5808  0.1949
 3428SOL    HW111183   0.869   4.876   1.055  0.4803 -1.3463 -1.1287
 3428SOL    HW211184   1.020   4.851   1.113  0.1586 -1.1126 -0.1797
 3429SOL     OW11185   3.928   1.712   5.192  0.4853 -0.4102  0.3289
 3429SOL    HW111186   3.925   1.812   5.192 -0.3878 -0.4131  1.6129
 3429SOL    HW211187   4.022   1.681   5.203  0.8441  0.2513 -0.7357
 3430SOL     OW11188   5.577   0.866   4.465  0.7569 -0.1227  0.8417
 3430SOL    HW111189   5.660   0.837   4.417  0.3845  0.3049 -0.0767
 3430SOL    HW211190   5.503   0.801   4.445  0.6231  0.0073  0.9155
 3431SOL     OW11191   6.952   0.588   5.408  0.3145 -0.2372  0.2103
 3431SOL    HW111192   6.978   0.499   5.371  1.5335  0.6983 -1.2831
 3431SOL    HW211193   6.896   0.636   5.342  0.2324  0.3773  0.7221
 3432SOL     OW11194   2.079   6.738   6.189  0.0534 -0.6206  0.3682
 3432SOL    HW111195   2.017   6.667   6.155 -0.1583 -0.6136  0.7330
 3432SOL    HW211196   2.113   6.712   6.279  0.5605 -0.6102  0.1858
 3433SOL     OW11197   5.835   5.947   0.686  0.0501 -0.0807 -0.3762
 3433SOL    HW111198   5.910   5.998   0.644  0.6500 -0.6450 -0.0044
 3433SOL    HW211199   5.771   5.917   0.616 -0.4534  1.3886 -0.5865
 3434SOL     OW11200   5.941   2.213   3.289 -0.0258 -0.5710 -0.9238
 3434SOL    HW111201   6.002   2.263   3.227 -0.2019 -0.5763 -1.0990
 3434SOL    HW211202   5.847   2.223   3.259 -0.0574 -1.0458 -0.9818
 3435SOL     OW11203   2.917   5.461   2.878 -0.1789 -0.2512 -0.1392
 3435SOL    HW111204   2.861   5.408   2.815 -1.1809 -0.4327  0.8731
 3435SOL    HW211205   3.009   5.420   2.883 -0.1092 -0.2944 -1.3651
 3436SOL     OW11206   4.835   0.298   1.238 -0.7858  0.3773 -0.4006
 3436SOL    HW111207   4.821   0.207   1.275 -0.9577  0.5215 -0.1081
 3436SOL    HW211208   4.768   0.315   1.166 -1.6272  0.7647  0.4490
 3437SOL     OW11209   1.076   2.064   2.413 -0.2473 -0.3231 -0.2754
 3437SOL    HW111210   1.149   2.058   2.345  0.6304 -1.6650  0.7377
 3437SOL    HW211211   1.076   2.155   2.455 -2.4881  1.5250 -3.7863
 3438SOL     OW11212   2.556   2.974   6.284 -0.3696 -0.0021 -0.0151
 3438SOL    HW111213   2.462   2.939   6.284 -0.6328  0.6935 -0.2144
 3438SOL    HW211214   2.595   2.963   6.193 -0.6805  0.8113 -0.2534
 3439SOL     OW11215   1.098   1.078   3.032  0.1988  0.2527 -0.1126
 3439SOL    HW111216   1.071   1.113   2.942  2.9048  3.9379  0.2526
 3439SOL    HW211217   1.188   1.035   3.026  0.6615  1.0303  0.8484
 3440SOL     OW11218   2.857   5.185   6.398  0.0220 -0.3420 -0.3152
 3440SOL    HW111219   2.908   5.106   6.363  0.7567 -0.0525  0.0616
 3440SOL    HW211220   2.784   5.209   6.335  0.0557 -1.0675 -0.6401
 3441SOL     OW11221   5.132   6.583   4.192  0.2320 -0.5564 -0.0173
 3441SOL    HW111222   5.085   6.496   4.206  2.1148 -1.4678  1.1518
 3441SOL    HW211223   5.099   6.650   4.257 -0.9398 -0.5103 -0.6443
 3442SOL     OW11224   4.942   4.325   0.591  0.2515  0.5545  0.2639
 3442SOL    HW111225   4.973   4.230   0.601  2.0114  0.9701 -0.9829
 3442SOL    HW211226   4.909   4.358   0.680  0.5071 -0.8991  0.9319
 3443SOL     OW11227   2.460   6.647   1.829 -0.4626 -0.5629 -0.0395
 3443SOL    HW111228   2.517   6.728   1.842 -1.1801  0.0533 -0.6269
 3443SOL    HW211229   2.459   6.593   1.913  3.7745 -2.4691 -0.9670
 3444SOL     OW11230   2.316   2.654   2.031  0.4832  0.0217  0.1177
 3444SOL    HW111231   2.229   2.622   2.069  0.4215  2.3260  2.2254
 3444SOL    HW211232   2.389   2.637   2.097  1.2417 -0.0019 -0.7197
 3445SOL     OW11233   0.703   1.721   4.443 -0.1697 -0.4188 -0.1237
 3445SOL    HW111234   0.692   1.703   4.540 -0.0611  0.7029  0.1126
 3445SOL    HW211235   0.616   1.753   4.405  0.0587  0.1635 -0.1590
 3446SOL     OW11236   5.992   1.347   5.800 -0.0459 -0.6515  0.1051
 3446SOL    HW111237   6.040   1.267   5.765 -1.6693 -0.5115 -2.7069
 3446SOL    HW211238   5.927   1.318   5.870  0.0872 -1.6425 -0.1599
 3447SOL     OW11239   6.057   5.467   1.408  0.3921  0.1244  0.1223
 3447SOL    HW111240   5.990   5.541   1.415  1.6413  1.5542 -1.9315
 3447SOL    HW211241   6.131   5.494   1.345  0.7957 -2.9705 -0.9193
 3448SOL     OW11242   2.437   3.406   6.130 -1.1354  0.3541 -0.1778
 3448SOL    HW111243   2.501   3.483   6.121  2.3512 -2.2915 -0.4514
 3448SOL    HW211244   2.418   3.368   6.039 -0.1620 -0.9649  0.1269
 3449SOL     OW11245   2.634   0.903   6.085  0.2937 -0.5204  0.4632
 3449SOL    HW111246   2.680   0.991   6.095  0.2345 -0.4645  0.2530
 3449SOL    HW211247   2.535   0.917   6.086  0.2822 -0.5163 -0.1036
 3450SOL     OW11248   4.546   4.431   5.455  0.1582 -0.3701  0.6017
 3450SOL    HW111249   4.635   4.447   5.496 -0.9591  1.2516  2.6017
 3450SOL    HW211250   4.485   4.388   5.522 -0.3517 -2.3566 -1.0171
 3451SOL     OW11251   6.204   3.972   4.868  0.1182  0.2038 -0.3186
 3451SOL    HW111252   6.161   4.009   4.950  0.7112  0.8218 -0.2746
 3451SOL    HW211253   6.304   3.970   4.880  0.4465  2.6185 -1.8898
 3452SOL     OW11254   5.307   6.768   4.013  0.6357  0.1603 -0.1180
 3452SOL    HW111255   5.405   6.784   4.026  1.1441 -2.5136 -0.0037
 3452SOL    HW211256   5.269   6.726   4.095 -0.0473 -0.9790 -0.9805
 3453SOL     OW11257   3.829   6.381   2.179  0.1527 -0.1260 -0.2459
 3453SOL    HW111258   3.766   6.339   2.243 -1.2174  0.2436 -1.2850
 3453SOL    HW211259   3.920   6.387   2.219 -0.5224 -0.4689  1.3923
 3454SOL     OW11260   6.107   6.071   3.263 -0.2326  0.1693  0.0912
 3454SOL    HW111261   6.127   6.008   3.188 -0.0423 -0.7460  0.8847
 3454SOL    HW211262   6.175   6.145   3.263 -0.6328  0.5535 -1.0271
 3455SOL     OW11263   0.768   0.200   0.134 -0.4076 -0.3456 -0.4825
 3455SOL    HW111264   0.792   0.283   0.186 -0.3728  0.8126 -2.2455
 3455SOL    HW211265   0.842   0.134   0.142 -1.3085 -1.1398  2.6457
 3456SOL     OW11266   0.438   0.696   3.607 -0.5111 -0.4405  0.3008
 3456SOL    HW111267   0.428   0.651   3.695  1.4544 -0.5819  0.5019
 3456SOL    HW211268   0.348   0.708   3.564 -1.6968  1.0199  2.9814
 3457SOL     OW11269   5.766   2.564   3.813  0.3276 -0.2152 -0.1581
 3457SOL    HW111270   5.778   2.512   3.728  0.8310  1.2406 -1.0117
 3457SOL    HW211271   5.792   2.507   3.891 -1.6744 -2.1547 -0.8034
 3458SOL     OW11272   1.240   1.304   4.414 -0.0035  0.2477  0.2592
 3458SOL    HW111273   1.216   1.385   4.361  2.2045 -0.0761 -1.3553
 3458SOL    HW211274   1.276   1.233   4.353  0.3612 -1.0747  1.9225
 3459SOL     OW11275   6.006   3.905   1.084  0.3343 -0.1912 -0.3299
 3459SOL    HW111276   6.029   3.931   0.990 -1.0973  2.1291 -0.1222
 3459SOL    HW211277   5.922   3.850   1.084 -1.5755  2.5028 -0.3362
 3460SOL     OW11278   5.719   5.152   0.684  0.9125 -0.2122 -0.5033
 3460SOL    HW111279   5.772   5.070   0.663  1.3938 -0.2729  0.7936
 3460SOL    HW211280   5.717   5.165   0.784 -0.5000  0.4722 -0.5946
 3461SOL     OW11281   1.891   6.132   0.692 -0.1214 -0.1485  0.1106
 3461SOL    HW111282   1.961   6.087   0.748  2.5923  2.8142 -0.5905
 3461SOL    HW211283   1.838   6.195   0.749 -1.4177 -1.4465  0.3880
 3462SOL     OW11284   0.338   1.836   5.893  0.1191  0.1717 -0.4660
 3462SOL    HW111285   0.291   1.898   5.830  0.8181 -0.0733 -1.2465
 3462SOL    HW211286   0.380   1.761   5.841  2.8476  1.2983 -0.0371
 3463SOL     OW11287   1.738   1.535   4.022 -0.3238  0.2875 -0.7649
 3463SOL    HW111288   1.720   1.451   4.073  2.6273 -0.8797 -1.4539
 3463SOL    HW211289   1.797   1.595   4.076 -0.4180  0.8323 -1.2545
 3464SOL     OW11290   4.987   0.638   5.836 -0.4316 -0.5780 -0.3343
 3464SOL    HW111291   4.962   0.732   5.811  1.1427 -0.0373  0.0451
 3464SOL    HW211292   4.912   0.577   5.811 -0.3166  0.3534 -3.3734
 3465SOL     OW11293   3.407   2.401   5.370  0.4720  0.2297 -1.0162
 3465SOL    HW111294   3.411   2.485   5.423 -1.9764  0.0237 -0.4026
 3465SOL    HW211295   3.324   2.399   5.314  0.5643 -1.6746 -1.1777
 3466SOL     OW11296   0.295   4.341   1.631 -0.2662 -0.6861  0.1684
 3466SOL    HW111297   0.327   4.427   1.672 -0.4086  0.4069 -1.8922
 3466SOL    HW211298   0.248   4.286   1.700 -1.5819  1.6127  1.1951
 3467SOL     OW11299   6.758   3.820   4.631 -0.1059 -0.4375  0.2368
 3467SOL    HW111300   6.824   3.805   4.705  1.5087  0.0098 -1.0388
 3467SOL    HW211301   6.704   3.902   4.650 -0.3478 -0.8312  1.3266
 3468SOL     OW11302   1.311   0.985   3.521  0.2610 -0.3077 -0.3738
 3468SOL    HW111303   1.230   1.003   3.578  0.8617 -2.4682  1.2962
 3468SOL    HW211304   1.291   1.011   3.427 -2.8981 -1.8803 -0.3016
 3469SOL     OW11305   1.194   6.578   1.232 -1.1753 -0.3921  0.0507
 3469SOL    HW111306   1.167   6.631   1.312  0.5391  0.0873  0.3564
 3469SOL    HW211307   1.268   6.515   1.257 -0.2172  0.1596 -1.2537
 3470SOL     OW11308   5.103   3.582   6.163  0.2394 -0.0642 -0.3531
 3470SOL    HW111309   5.183   3.602   6.221  0.8072 -0.3717 -1.0156
 3470SOL    HW211310   5.133   3.535   6.080 -0.8720 -2.3095  0.4309
 3471SOL     OW11311   1.047   4.949   6.842  0.1159  0.1139  0.6765
 3471SOL    HW111312   1.077   4.940   6.747 -3.9114  0.0922 -0.7870
 3471SOL    HW211313   1.052   5.045   6.869  1.4708  0.0942  0.5608
 3472SOL     OW11314   0.212   6.743   6.631 -0.2803  0.1704  0.3593
 3472SOL    HW111315   0.283   6.788   6.685 -0.3364  0.4423  0.2059
 3472SOL    HW211316   0.195   6.652   6.669  0.2257  0.0602  0.3312
 3473SOL     OW11317   2.003   0.548   5.933  0.2673  0.0112  0.4166
 3473SOL    HW111318   2.050   0.527   6.019  1.3012  1.6178  0.2985
 3473SOL    HW211319   2.071   0.562   5.861 -0.5934 -1.5384 -0.7510
 3474SOL     OW11320   2.142   2.765   4.626  0.2027 -0.5161 -0.1040
 3474SOL    HW111321   2.174   2.775   4.720 -0.4902  1.1902 -0.0249
 3474SOL    HW211322   2.179   2.838   4.569 -0.9528 -0.3878 -0.7226
 3475SOL     OW11323   5.053   5.558   4.964  0.5563 -0.0671  0.4696
 3475SOL    HW111324   5.032   5.500   5.043  1.7100 -1.0348  0.1037
 3475SOL    HW211325   5.137   5.609   4.981  1.3316 -0.9878 -0.4536
 3476SOL     OW11326   5.176   5.084   3.297  0.2495  0.0593  0.1406
 3476SOL    HW111327   5.162   4.993   3.337 -2.6988  0.8618  1.2401
 3476SOL    HW211328   5.163   5.079   3.198 -1.7999 -0.4834  0.3862
 3477SOL     OW11329   1.108   2.190   4.329 -0.0693  0.4660 -0.0383
 3477SOL    HW111330   1.099   2.239   4.416  0.2513  2.0190 -0.8394
 3477SOL    HW211331   1.061   2.240   4.257 -0.7957 -1.0817 -0.6901
 3478SOL     OW11332   4.364   3.589   6.823  0.5516  0.2895 -0.2431
 3478SOL    HW111333   4.400   3.511   6.771  1.3157 -0.4682  1.3591
 3478SOL    HW211334   4.417   3.600   6.907  0.7113  2.8043 -0.5909
 3479SOL     OW11335   3.833   5.711   6.080 -0.4567  0.1634  0.7330
 3479SOL    HW111336   3.800   5.762   6.160 -1.5534 -0.4170  0.6619
 3479SOL    HW211337   3.756   5.678   6.027  0.2489 -0.7932  0.2724
 3480SOL     OW11338   4.820   0.288   4.104 -0.4812 -0.1217 -0.4355
 3480SOL    HW111339   4.785   0.201   4.068 -1.4294 -0.7245  1.7933
 3480SOL    HW211340   4.748   0.333   4.156  0.7113  0.8688  0.3930
 3481SOL     OW11341   2.735   1.380   6.147 -0.0414  0.3988  0.1003
 3481SOL    HW111342   2.678   1.384   6.229 -0.5530 -0.1840 -0.2158
 3481SOL    HW211343   2.825   1.418   6.167 -0.2729  0.5800  0.8347
 3482SOL     OW11344   6.201   1.289   1.738  0.4093  0.1829  0.1495
 3482SOL    HW111345   6.233   1.217   1.677  0.3916  0.4326 -0.1576
 3482SOL    HW211346   6.279   1.344   1.768  0.0792  2.4408 -2.6898
 3483SOL     OW11347   5.220   6.708   1.265 -0.0424 -0.2237  0.2933
 3483SOL    HW111348   5.146   6.642   1.247 -0.0555 -0.3054  0.6379
 3483SOL    HW211349   5.276   6.719   1.183 -0.1065 -0.5829  0.2003
 3484SOL     OW11350   0.295   0.019   1.990 -0.1164  0.2704  0.5092
 3484SOL    HW111351   0.213  -0.022   2.032  0.3170 -1.2568 -0.0831
 3484SOL    HW211352   0.267   0.073   1.911 -0.7296  1.4548  1.4885
 3485SOL     OW11353   4.394   1.676   2.277 -0.2805  0.6036  0.6615
 3485SOL    HW111354   4.340   1.680   2.362 -0.9321  1.2030  0.2278
 3485SOL    HW211355   4.468   1.743   2.282  0.5410 -0.3200  1.3178
 3486SOL     OW11356   6.567   5.671   1.778  0.0689  0.6339 -0.0153
 3486SOL    HW111357   6.546   5.767   1.799 -1.5017  0.2692  0.2077
 3486SOL    HW211358   6.528   5.648   1.689  0.0814  0.0892  0.1196
 3487SOL     OW11359   6.957   1.373   4.050 -0.3701 -0.6966 -0.5815
 3487SOL    HW111360   6.985   1.423   4.132 -1.2907 -2.4941  0.9049
 3487SOL    HW211361   6.883   1.422   4.005 -0.5512 -0.1757  0.2506
 3488SOL     OW11362   2.994   4.404   5.745 -0.1342  0.0570 -0.2312
 3488SOL    HW111363   2.897   4.409   5.721  0.0850  0.1009 -1.1302
 3488SOL    HW211364   3.026   4.494   5.773 -0.9901 -0.4523  2.7012
 3489SOL     OW11365   5.611   6.898   3.887  0.3152  0.3102  0.1625
 3489SOL    HW111366   5.540   6.968   3.883  0.6115  0.5580 -1.7032
 3489SOL    HW211367   5.697   6.938   3.917  1.1731  1.4861 -3.3512
 3490SOL     OW11368   6.483   0.722   1.257 -0.3522 -0.3425 -0.0205
 3490SOL    HW111369   6.518   0.675   1.176  0.9160  0.6681 -0.0804
 3490SOL    HW211370   6.542   0.704   1.336 -0.6080  0.0565  0.2718
 3491SOL     OW11371   6.301   1.441   6.070  0.1987 -0.2714 -0.3959
 3491SOL    HW111372   6.395   1.430   6.102  0.1902  0.2048 -0.1925
 3491SOL    HW211373   6.296   1.417   5.973  0.7171  0.5274 -0.6339
 3492SOL     OW11374   2.667   6.704   3.912 -0.4189 -0.3516  0.2340
 3492SOL    HW111375   2.744   6.652   3.877  0.1253 -0.5067  1.5957
 3492SOL    HW211376   2.585   6.685   3.857  0.7639  0.8365 -2.0787
 3493SOL     OW11377   4.937   1.053   3.558  0.1868 -0.0864 -0.1909
 3493SOL    HW111378   4.943   1.103   3.472  2.4446 -0.0202 -0.0696
 3493SOL    HW211379   5.021   1.000   3.571 -1.5938 -3.0141  0.2669
 3494SOL     OW11380   5.659   2.118   3.876 -0.5158 -0.3409  0.2701
 3494SOL    HW111381   5.716   2.084   3.801 -0.8090  0.3853 -0.3082
 3494SOL    HW211382   5.580   2.059   3.888 -0.6235 -0.2964 -0.2051
 3495SOL     OW11383   4.276   6.712   0.681 -0.1310 -0.2780  0.1499
 3495SOL    HW111384   4.292   6.780   0.754  0.5352 -0.4281  0.1467
 3495SOL    HW211385   4.195   6.739   0.629 -0.2986  0.1277  0.6035
 3496SOL     OW11386   2.005   3.976   6.247 -0.1437  0.2320 -0.0549
 3496SOL    HW111387   1.940   3.925   6.190  1.0327 -2.4334  0.8430
 3496SOL    HW211388   2.071   3.913   6.288  1.0451  2.4435  1.6876
 3497SOL     OW11389   0.306   2.208   0.226 -0.0838  0.6686  0.4630
 3497SOL    HW111390   0.217   2.215   0.272 -0.0283 -1.5662  1.0286
 3497SOL    HW211391   0.292   2.208   0.127 -0.9701 -1.4432  0.5333
 3498SOL     OW11392   0.045   6.832   6.004 -0.0157 -0.0000 -0.3564
 3498SOL    HW111393   0.083   6.853   6.094  2.7938 -1.4656 -1.0740
 3498SOL    HW211394  -0.054   6.826   6.010  0.1520 -1.1851  2.8853
 3499SOL     OW11395   5.476   0.278   6.955 -0.0532 -0.2054  0.3335
 3499SOL    HW111396   5.465   0.179   6.962  0.0152 -0.2905 -0.6479
 3499SOL    HW211397   5.481   0.318   7.047 -2.5242 -0.8282  0.8272
 3500SOL     OW11398   6.762   0.276   6.078 -0.0173  0.1267 -0.2750
 3500SOL    HW111399   6.707   0.274   5.995  0.0236  0.6475 -0.3160
 3500SOL    HW211400   6.773   0.182   6.112 -0.6444 -0.0212 -0.4512
 3501SOL     OW11401   1.069   5.115   2.863 -0.1678 -0.0191 -0.6120
 3501SOL    HW111402   1.073   5.033   2.920  0.4053  0.4052 -0.0280
 3501SOL    HW211403   0.988   5.110   2.804 -0.6349 -0.5865  0.0535
 3502SOL     OW11404   6.236   6.807   0.363 -0.1781 -0.4383  0.2517
 3502SOL    HW111405   6.158   6.861   0.396  0.6125  0.9115 -0.0188
 3502SOL    HW211406   6.215   6.770   0.273  0.1048  1.3694 -0.5976
 3503SOL     OW11407   1.357   5.425   0.044 -0.1869 -0.0084  0.7014
 3503SOL    HW111408   1.400   5.473  -0.033  1.2396 -1.3535  0.6014
 3503SOL    HW211409   1.419   5.428   0.122 -0.3012 -1.2190  0.8511
 3504SOL     OW11410   0.529   5.509   1.404  0.1690  0.1571  0.1135
 3504SOL    HW111411   0.464   5.500   1.479 -0.6244  1.9920 -0.2921
 3504SOL    HW211412   0.621   5.523   1.441 -0.5447  3.5956  0.9190
 3505SOL     OW11413   0.763   0.258   6.880 -0.6553 -0.7429  0.0191
 3505SOL    HW111414   0.766   0.215   6.970  0.6839 -1.0214 -0.1397
 3505SOL    HW211415   0.736   0.191   6.811 -0.0383 -0.9662 -0.0138
 3506SOL     OW11416   2.167   2.077   3.395 -0.3860 -0.2787 -0.2359
 3506SOL    HW111417   2.264   2.064   3.376 -0.1062  0.5561  0.5637
 3506SOL    HW211418   2.113   2.053   3.314  0.6347  1.3456 -1.4564
 3507SOL     OW11419   1.711   5.506   2.122  0.8503  0.4685 -0.0140
 3507SOL    HW111420   1.663   5.559   2.051  1.1109 -0.0062 -0.5541
 3507SOL    HW211421   1.801   5.479   2.088  0.8923  0.0485  0.4264
 3508SOL     OW11422   1.376   5.402   4.156 -0.6042  0.0118 -0.1602
 3508SOL    HW111423   1.374   5.302   4.162  0.6055 -0.0509 -0.4274
 3508SOL    HW211424   1.394   5.428   4.061 -1.8369  0.5174 -0.2673
 3509SOL     OW11425   3.665   0.493   5.119  0.0756 -1.2775 -0.3827
 3509SOL    HW111426   3.722   0.416   5.089  0.4829 -0.9096 -0.5704
 3509SOL    HW211427   3.724   0.568   5.148 -0.3199 -1.0694 -0.1150
 3510SOL     OW11428   2.373   4.810   2.852 -0.1530 -0.1079 -0.2584
 3510SOL    HW111429   2.398   4.906   2.864 -1.5801  0.2230  0.2779
 3510SOL    HW211430   2.334   4.798   2.760  0.2582 -0.2202 -0.4159
 3511SOL     OW11431   6.096   5.102   6.686 -0.1299  0.3298  0.3072
 3511SOL    HW111432   6.006   5.126   6.649 -0.4785 -0.4051  0.6587
 3511SOL    HW211433   6.093   5.107   6.785  1.1931  3.6897  0.2961
 3512SOL     OW11434   3.806   3.003   6.268 -0.0558  0.1999  0.1192
 3512SOL    HW111435   3.808   3.089   6.320  0.7944  0.6173 -0.5811
 3512SOL    HW211436   3.853   3.016   6.181 -0.8514 -0.6888 -0.4637
 3513SOL     OW11437   6.846   2.653   3.034 -0.0226  0.3401 -0.2765
 3513SOL    HW111438   6.902   2.572   3.013 -0.1882  0.5810 -1.8112
 3513SOL    HW211439   6.858   2.678   3.130 -0.6356 -2.0186  0.4779
 3514SOL     OW11440   1.729   2.101   4.088  0.3445  0.6840 -0.2668
 3514SOL    HW111441   1.690   2.027   4.143 -0.2669  0.2921 -1.2019
 3514SOL    HW211442   1.655   2.159   4.053  0.3974 -0.8207 -3.1501
 3515SOL     OW11443   6.062   0.111   2.847 -0.1599  0.5808  0.3856
 3515SOL    HW111444   6.047   0.108   2.946 -1.5398 -2.4809  0.1797
 3515SOL    HW211445   6.084   0.020   2.813  0.1616  1.5297 -2.1888
 3516SOL     OW11446   0.395   4.243   3.753  0.1821 -0.2533  0.9261
 3516SOL    HW111447   0.347   4.294   3.825 -0.7357 -1.0465  0.8909
 3516SOL    HW211448   0.492   4.267   3.755 -0.0667  0.7795  1.5228
 3517SOL     OW11449   5.058   2.715   0.161  0.0993 -0.1664  0.0837
 3517SOL    HW111450   5.022   2.720   0.067  1.3404 -2.6697 -0.6310
 3517SOL    HW211451   5.153   2.748   0.161  1.2724 -3.1935 -0.3775
 3518SOL     OW11452   1.664   3.372   0.183 -0.2296  0.7853  0.7325
 3518SOL    HW111453   1.741   3.434   0.196  1.0183 -0.5945  0.2465
 3518SOL    HW211454   1.603   3.409   0.113 -0.2561  2.0966  1.4139
 3519SOL     OW11455   2.016   4.950   4.022  0.3243 -0.0198  0.0254
 3519SOL    HW111456   1.930   5.002   4.027 -0.6271 -1.0783 -2.8581
 3519SOL    HW211457   2.089   5.002   4.065 -1.1861  2.2942 -0.0332
 3520SOL     OW11458   4.565   2.630   4.183  0.3454  0.2998 -0.0645
 3520SOL    HW111459   4.486   2.585   4.142 -1.5789 -0.2141  3.7975
 3520SOL    HW211460   4.639   2.563   4.195 -0.1865 -0.2839  0.0230
 3521SOL     OW11461   0.814   4.029   3.769  0.0912  0.3506  0.1648
 3521SOL    HW111462   0.803   4.104   3.834 -2.2468  0.1863  0.0470
 3521SOL    HW211463   0.762   4.050   3.686  0.3879 -0.8619 -0.3462
 3522SOL     OW11464   6.030   0.648   1.897 -0.1903 -0.2276 -0.1934
 3522SOL    HW111465   6.034   0.619   1.992 -0.0872 -0.9744 -0.4230
 3522SOL    HW211466   6.030   0.568   1.837  0.9244  0.2459 -0.8681
 3523SOL     OW11467   4.123   3.310   4.022 -0.7405 -0.4578  0.2422
 3523SOL    HW111468   4.153   3.380   3.957 -0.5331 -0.0451  0.7696
 3523SOL    HW211469   4.090   3.230   3.973  1.3522 -1.0001 -0.4006
 3524SOL     OW11470   0.770   0.557   3.207  0.4768  0.3052  0.4817
 3524SOL    HW111471   0.686   0.514   3.241  1.4711 -0.9542  1.4312
 3524SOL    HW211472   0.769   0.654   3.229  0.0527 -0.0422  2.1001
 3525SOL     OW11473   6.553   6.939   6.569  0.8049  0.0123  0.0768
 3525SOL    HW111474   6.632   7.001   6.579  0.2465  0.9332 -0.9339
 3525SOL    HW211475   6.543   6.915   6.472  0.0192 -0.3243  0.2397
 3526SOL     OW11476   0.249   0.786   2.861  0.2499 -0.5310 -0.2910
 3526SOL    HW111477   0.167   0.834   2.830  0.3877 -0.5842 -0.7526
 3526SOL    HW211478   0.261   0.703   2.805  0.3124 -0.8131  0.1395
 3527SOL     OW11479   1.670   2.374   4.578  0.3974  0.1972  0.1168
 3527SOL    HW111480   1.650   2.441   4.649 -0.2378 -0.6404  0.7396
 3527SOL    HW211481   1.769   2.363   4.569  0.5006  0.9701  0.2252
 3528SOL     OW11482   3.310   0.776   0.406  0.0371 -0.4291  0.1188
 3528SOL    HW111483   3.380   0.823   0.460 -1.0260  2.1153 -0.5801
 3528SOL    HW211484   3.353   0.703   0.353  1.5148 -1.3178  2.3760
 3529SOL     OW11485   2.000   2.812   5.016  0.0932 -0.1599  0.3297
 3529SOL    HW111486   2.071   2.816   4.945 -0.8617  0.0232 -0.6420
 3529SOL    HW211487   2.001   2.722   5.060  2.6814  0.6750  2.2263
 3530SOL     OW11488   5.853   5.104   3.990  0.5410 -0.1136 -0.0588
 3530SOL    HW111489   5.939   5.065   3.956  1.2370  1.8239 -0.6781
 3530SOL    HW211490   5.785   5.104   3.917  1.5138  2.5267 -1.0753
 3531SOL     OW11491   1.008   1.834   6.801  0.2748 -0.0774 -0.1890
 3531SOL    HW111492   1.064   1.851   6.720 -0.6117  0.4975 -0.6959
 3531SOL    HW211493   0.970   1.742   6.797  0.0898  0.0138 -0.5172
 3532SOL     OW11494   0.615   5.152   3.889 -0.0676  0.6415 -0.3143
 3532SOL    HW111495   0.547   5.225   3.886  0.0654  0.8310  0.9429
 3532SOL    HW211496   0.638   5.131   3.984 -1.1148 -1.9986 -0.5671
 3533SOL     OW11497   5.893   0.809   2.995  0.0476  0.3443 -0.0994
 3533SOL    HW111498   5.946   0.761   2.925  0.8279 -0.3387  0.9414
 3533SOL    HW211499   5.932   0.900   3.010 -1.4817  1.4524 -2.1315
 3534SOL     OW11500   6.916   3.162   3.935 -0.0653 -0.2348 -0.0926
 3534SOL    HW111501   6.870   3.250   3.921  0.5987  0.1801  0.2599
 3534SOL    HW211502   7.000   3.160   3.880  0.3348 -0.3225  0.5124
 3535SOL     OW11503   1.315   2.129   0.778  0.3111 -0.0016  0.5133
 3535SOL    HW111504   1.367   2.133   0.864 -0.0292  0.5519  0.7000
 3535SOL    HW211505   1.358   2.189   0.711  0.1744  0.1012  0.5190
 3536SOL     OW11506   6.367   2.464   3.053 -0.1727 -0.0575  1.0925
 3536SOL    HW111507   6.322   2.375   3.042  2.3232 -1.3342  0.3977
 3536SOL    HW211508   6.464   2.449   3.074  0.3002  2.5250  0.9864
 3537SOL     OW11509   6.592   2.581   3.916 -0.2098  0.1399 -0.0103
 3537SOL    HW111510   6.557   2.510   3.978 -2.1017 -0.7353 -1.9314
 3537SOL    HW211511   6.534   2.662   3.922 -1.0284 -0.3160 -1.2649
 3538SOL     OW11512   4.949   3.739   0.909  0.0464  0.0429  0.1810
 3538SOL    HW111513   5.024   3.677   0.883  0.3321  0.4750 -0.0524
 3538SOL    HW211514   4.913   3.713   0.998 -0.1959 -0.7891 -0.1547
 3539SOL     OW11515   5.080   2.881   1.490  0.3984  0.3102  0.4268
 3539SOL    HW111516   5.047   2.939   1.565  0.5018  0.0134  0.7045
 3539SOL    HW211517   5.062   2.926   1.403 -0.3827  0.3316  0.5931
 3540SOL     OW11518   3.171   1.505   1.411  0.0154 -0.2110 -0.1364
 3540SOL    HW111519   3.262   1.523   1.449 -0.8898 -0.7559  2.5628
 3540SOL    HW211520   3.120   1.590   1.404  0.3468 -0.0459 -0.5753
 3541SOL     OW11521   0.769   5.668   6.069  0.2261  0.1370 -0.2974
 3541SOL    HW111522   0.775   5.634   6.163 -0.2478  1.0237  0.0607
 3541SOL    HW211523   0.751   5.766   6.070  1.1398  0.3268 -1.3202
 3542SOL     OW11524   5.672   4.403   3.331  0.3232 -0.4909  0.1825
 3542SOL    HW111525   5.738   4.475   3.309 -0.6544  0.3577 -0.0407
 3542SOL    HW211526   5.701   4.317   3.289  0.7481  0.1040 -0.7745
 3543SOL     OW11527   4.916   0.837   1.122 -0.0958  0.3017 -0.1530
 3543SOL    HW111528   4.984   0.905   1.146 -1.5752  0.9289  2.7002
 3543SOL    HW211529   4.824   0.875   1.134 -1.0226 -2.3851  2.7554
 3544SOL     OW11530   6.855   2.626   1.642 -0.6646  0.1078  0.0976
 3544SOL    HW111531   6.861   2.564   1.721  0.9424  0.8887  0.6174
 3544SOL    HW211532   6.941   2.626   1.592  0.5817  4.1354  1.8534
 3545SOL     OW11533   0.735   6.986   3.543  0.0229 -0.0241  0.0040
 3545SOL    HW111534   0.793   6.909   3.572 -2.1820 -1.5946  0.4731
 3545SOL    HW211535   0.669   6.954   3.475 -1.1107  1.4018  0.3841
 3546SOL     OW11536   1.157   6.391   2.338  0.2424  0.6103  0.5720
 3546SOL    HW111537   1.255   6.374   2.327  0.9970  4.3671  0.1224
 3546SOL    HW211538   1.120   6.428   2.253 -0.7779  2.2761  1.6876
 3547SOL     OW11539   0.178   5.037   5.420 -0.1568  0.2040 -0.2840
 3547SOL    HW111540   0.123   5.103   5.469 -0.4646 -1.9624  2.5147
 3547SOL    HW211541   0.273   5.069   5.416 -0.9708  2.7873 -2.9986
 3548SOL     OW11542   4.381   5.442   0.384  0.1263 -0.2619 -0.0551
 3548SOL    HW111543   4.355   5.354   0.422 -2.0926  0.3461 -0.0253
 3548SOL    HW211544   4.351   5.448   0.289 -0.1792  0.6408  0.0910
 3549SOL     OW11545   6.285   5.085   4.583 -0.4758 -0.1894  0.1652
 3549SOL    HW111546   6.286   5.065   4.485  0.4803 -2.7863  0.6290
 3549SOL    HW211547   6.325   5.175   4.599  1.5512 -0.6902 -1.6617
 3550SOL     OW11548   1.216   3.742   5.250 -0.6438  0.8335 -0.3968
 3550SOL    HW111549   1.222   3.651   5.292 -0.2292  1.8468  1.8779
 3550SOL    HW211550   1.280   3.747   5.173  0.8276 -0.1924  0.6870
 3551SOL     OW11551   5.480   4.066   0.851  0.4121  0.1581 -0.0212
 3551SOL    HW111552   5.403   4.003   0.856  0.6469 -0.1443 -0.1890
 3551SOL    HW211553   5.557   4.029   0.902  0.3794  0.5607  0.3290
 3552SOL     OW11554   0.408   2.462   2.543  0.3801  0.2268 -0.3783
 3552SOL    HW111555   0.484   2.399   2.528  1.4023  1.2711  0.1501
 3552SOL    HW211556   0.418   2.541   2.482  0.1095  0.6840  0.1532
 3553SOL     OW11557   1.151   3.298   6.632  0.4408 -0.1929  0.1245
 3553SOL    HW111558   1.187   3.226   6.691  2.0468 -0.2050 -0.8062
 3553SOL    HW211559   1.191   3.386   6.660 -1.0679  0.2886  0.8923
 3554SOL     OW11560   0.911   0.666   5.799  0.0117 -0.0938  0.1241
 3554SOL    HW111561   0.943   0.760   5.806  0.2873  0.1048 -2.5984
 3554SOL    HW211562   0.828   0.663   5.742  0.4802 -1.5553 -0.5547
 3555SOL     OW11563   2.412   5.156   2.224 -0.2402 -0.0975  0.1495
 3555SOL    HW111564   2.459   5.171   2.137 -0.7592 -1.2068 -0.3433
 3555SOL    HW211565   2.427   5.234   2.284  0.4307  0.5214 -0.7996
 3556SOL     OW11566   1.042   2.214   3.074  0.0114 -0.0990  0.6621
 3556SOL    HW111567   1.134   2.253   3.075  0.4087 -1.0201  0.4014
 3556SOL    HW211568   1.039   2.133   3.133 -1.2750  1.3251  2.6813
 3557SOL     OW11569   1.714   6.715   2.393 -0.0072 -0.5214  0.2377
 3557SOL    HW111570   1.767   6.760   2.321  1.3951  0.8812  2.0537
 3557SOL    HW211571   1.751   6.624   2.410  0.0029 -0.6463 -0.4217
 3558SOL     OW11572   4.455   2.455   1.524  0.3969  0.0606 -0.3013
 3558SOL    HW111573   4.455   2.402   1.609  0.2559  1.0772  0.3499
 3558SOL    HW211574   4.508   2.539   1.537 -0.7441  0.8829 -0.7878
 3559SOL     OW11575   2.695   0.861   5.639  0.5398 -0.5438 -0.1410
 3559SOL    HW111576   2.700   0.795   5.714  0.7305 -2.9789 -2.1447
 3559SOL    HW211577   2.773   0.923   5.644  2.6116 -2.9686 -0.2691
 3560SOL     OW11578   3.361   5.166   6.290 -0.3155  0.2099 -0.1045
 3560SOL    HW111579   3.382   5.091   6.228 -0.7486 -1.0554  1.2286
 3560SOL    HW211580   3.446   5.214   6.315  0.3838 -1.6125  1.1982
 3561SOL     OW11581   4.773   6.943   3.744  0.4890  0.8466  0.1851
 3561SOL    HW111582   4.768   6.984   3.835 -0.9534 -1.1665  1.0915
 3561SOL    HW211583   4.732   7.005   3.677 -1.9309  0.8351  1.5508
 3562SOL     OW11584   6.999   3.296   6.891  0.2601 -0.0674 -0.1548
 3562SOL    HW111585   6.977   3.278   6.795 -0.1216  0.4414 -0.1667
 3562SOL    HW211586   6.923   3.343   6.935  0.7643  0.4557  0.1795
 3563SOL     OW11587   3.046   6.837   3.535 -0.1146 -0.0451  0.0253
 3563SOL    HW111588   2.992   6.760   3.569 -0.0565  0.2432  0.7831
 3563SOL    HW211589   2.996   6.880   3.459  1.4254 -2.9215 -2.8518
 3564SOL     OW11590   3.467   0.574   0.672  0.9637 -0.4982  0.4416
 3564SOL    HW111591   3.380   0.577   0.720  0.2362 -3.2696 -0.5301
 3564SOL    HW211592   3.537   0.534   0.731  0.0090 -4.1530 -0.6526
 3565SOL     OW11593   2.842   3.496   1.372 -0.2618  0.2121 -0.2683
 3565SOL    HW111594   2.849   3.578   1.316 -0.7286  0.6410  0.2847
 3565SOL    HW211595   2.750   3.490   1.412 -0.6052 -1.1810 -1.2050
 3566SOL     OW11596   0.593   1.449   4.887 -0.1355  0.5889  0.0072
 3566SOL    HW111597   0.508   1.477   4.933  0.1727 -0.1955  1.0898
 3566SOL    HW211598   0.588   1.352   4.863 -0.2513  0.9597 -1.5786
 3567SOL     OW11599   1.122   6.348   5.173  0.1520  0.0313  0.5201
 3567SOL    HW111600   1.117   6.248   5.163  0.7169  0.1155 -0.8867
 3567SOL    HW211601   1.116   6.372   5.269 -0.7109 -1.3172  0.8452
 3568SOL     OW11602   1.811   6.028   6.909  0.1012 -0.1258  0.1670
 3568SOL    HW111603   1.736   5.964   6.890  0.4257 -0.1451 -1.1516
 3568SOL    HW211604   1.785   6.119   6.878  0.9611 -0.3144 -1.2051
 3569SOL     OW11605   4.501   3.524   6.202 -0.0722 -0.7299 -0.1727
 3569SOL    HW111606   4.416   3.544   6.250 -0.8934 -0.2825 -1.7367
 3569SOL    HW211607   4.498   3.430   6.168 -1.0812  0.0101 -2.3385
 3570SOL     OW11608   6.074   4.201   4.347  0.0998 -0.5346  0.3810
 3570SOL    HW111609   6.092   4.283   4.293  1.3112  0.9964  2.9406
 3570SOL    HW211610   6.158   4.170   4.390 -0.6343 -2.2772  0.6446
 3571SOL     OW11611   2.397   6.995   4.095 -0.0131 -0.5363 -0.7218
 3571SOL    HW111612   2.381   6.911   4.146 -0.3835 -0.7952 -1.2462
 3571SOL    HW211613   2.492   6.999   4.065  0.1933 -0.4051 -0.0655
 3572SOL     OW11614   4.751   4.708   3.180 -0.6552  0.1796  0.0327
 3572SOL    HW111615   4.733   4.673   3.272 -0.2061  0.5437  0.2633
 3572SOL    HW211616   4.732   4.637   3.113  2.0722 -1.2361  0.6014
 3573SOL     OW11617   2.747   1.850   2.090 -0.4586 -0.3103 -0.0509
 3573SOL    HW111618   2.745   1.913   2.168  1.5678 -1.5022  1.0479
 3573SOL    HW211619   2.827   1.870   2.033 -2.0036  0.6670 -2.0202
 3574SOL     OW11620   4.124   5.056   1.225  0.3043 -0.8362 -0.0925
 3574SOL    HW111621   4.123   5.125   1.298  0.2068  0.1520 -1.0126
 3574SOL    HW211622   4.038   5.006   1.226  0.9569 -1.9993  1.5417
 3575SOL     OW11623   4.525   6.171   4.381  0.1321  0.2676 -0.1192
 3575SOL    HW111624   4.493   6.182   4.287  0.0910 -1.8510 -0.3941
 3575SOL    HW211625   4.619   6.204   4.388  0.0980  0.5371 -0.8749
 3576SOL     OW11626   6.200   2.060   2.604  0.2037 -0.4793  0.6736
 3576SOL    HW111627   6.207   2.035   2.508 -0.2150 -0.6805  0.6938
 3576SOL    HW211628   6.292   2.072   2.642  0.3777 -0.6906  0.3256
 3577SOL     OW11629   3.541   1.426   3.371  0.0446 -0.6326 -0.1781
 3577SOL    HW111630   3.604   1.391   3.302  0.7571 -0.2022  0.2440
 3577SOL    HW211631   3.458   1.460   3.325  0.0986 -1.2355 -0.7311
 3578SOL     OW11632   6.296   2.416   0.235  0.0063 -0.0574  0.1459
 3578SOL    HW111633   6.351   2.364   0.170  1.1961 -0.4152  1.4007
 3578SOL    HW211634   6.318   2.388   0.328 -1.1482  0.9431  0.7601
 3579SOL     OW11635   5.215   6.967   2.492 -0.0475 -0.3602 -0.1698
 3579SOL    HW111636   5.163   6.994   2.572  1.5622 -0.4154  0.9332
 3579SOL    HW211637   5.157   6.972   2.411 -2.0311 -1.3793  1.1265
 3580SOL     OW11638   2.090   6.860   0.603  0.0423 -0.0522  0.3639
 3580SOL    HW111639   2.065   6.763   0.593  0.7960 -0.1599 -0.6647
 3580SOL    HW211640   2.044   6.914   0.532 -2.4851  0.8088  2.5033
 3581SOL     OW11641   3.289   0.650   3.565 -0.3024 -0.4588 -0.0322
 3581SOL    HW111642   3.337   0.731   3.531 -1.4553  0.3890  0.3076
 3581SOL    HW211643   3.350   0.571   3.560  0.4459  0.1735 -1.5100
 3582SOL     OW11644   6.916   2.052   6.410  0.2596 -0.0636 -0.8136
 3582SOL    HW111645   6.991   2.115   6.390 -1.0216  2.5592  1.8751
 3582SOL    HW211646   6.946   1.984   6.477  1.1976 -1.4989 -2.5799
 3583SOL     OW11647   6.316   4.167   0.906  0.4671  1.0078  0.2775
 3583SOL    HW111648   6.323   4.067   0.899 -0.6476  0.9703 -0.7625
 3583SOL    HW211649   6.402   4.205   0.939  1.1347 -0.2408  0.0179
 3584SOL     OW11650   5.050   1.880   1.508  0.1716  0.4625  0.9042
 3584SOL    HW111651   5.053   1.783   1.484 -0.0344  0.6953 -0.0818
 3584SOL    HW211652   4.957   1.905   1.535 -0.0258  0.6403  0.0670
 3585SOL     OW11653   1.600   6.272   2.236 -0.5379  0.1746 -0.7257
 3585SOL    HW111654   1.598   6.265   2.136 -0.7033 -0.0417 -0.7069
 3585SOL    HW211655   1.546   6.352   2.265 -1.0563 -0.1554 -0.7716
 3586SOL     OW11656   5.726   5.354   0.483  0.6037 -0.7622  0.7339
 3586SOL    HW111657   5.729   5.303   0.568  1.6505 -2.1899 -0.1108
 3586SOL    HW211658   5.643   5.332   0.432 -0.4728  0.7820  1.7553
 3587SOL     OW11659   0.734   5.953   6.019 -0.4631  0.0238 -0.0084
 3587SOL    HW111660   0.806   6.019   6.035  0.7510 -1.7078  2.2940
 3587SOL    HW211661   0.718   5.944   5.921  0.3888  2.5283 -0.4442
 3588SOL     OW11662   3.609   0.989   3.985 -0.0515  0.1305 -0.4397
 3588SOL    HW111663   3.693   0.936   3.992 -0.7758 -0.8309  1.8247
 3588SOL    HW211664   3.559   0.983   4.071 -2.5901  0.4361 -1.8099
 3589SOL     OW11665   3.630   2.773   1.474  0.0351 -0.2176  0.1376
 3589SOL    HW111666   3.647   2.861   1.428 -0.8489  0.0377  0.2723
 3589SOL    HW211667   3.693   2.704   1.439 -0.4638  0.0229 -1.3076
 3590SOL     OW11668   1.724   4.604   4.132 -0.3861  0.3515  0.1748
 3590SOL    HW111669   1.804   4.641   4.181 -0.5736  0.4786  0.3892
 3590SOL    HW211670   1.641   4.651   4.164 -0.8858 -1.5250  1.8355
 3591SOL     OW11671   6.501   3.130   5.869  0.6777 -0.2767  0.3322
 3591SOL    HW111672   6.474   3.134   5.965  1.2889  0.8546  0.4726
 3591SOL    HW211673   6.495   3.035   5.837  1.9487 -0.9447  1.9130
 3592SOL     OW11674   2.796   0.147   3.061 -0.1002  0.6165 -0.6980
 3592SOL    HW111675   2.791   0.241   3.095 -0.2400  0.1014  0.7735
 3592SOL    HW211676   2.752   0.141   2.971  1.2254  2.2444 -1.5125
 3593SOL     OW11677   3.756   5.292   6.626 -0.4370 -0.4202 -0.2167
 3593SOL    HW111678   3.711   5.290   6.716  0.0983  0.6736  0.0917
 3593SOL    HW211679   3.852   5.269   6.637 -0.1394  0.7308 -0.3552
 3594SOL     OW11680   6.917   4.692   4.920 -0.0990  0.1908  0.2086
 3594SOL    HW111681   6.910   4.790   4.933 -0.1237 -0.0765  2.7130
 3594SOL    HW211682   7.009   4.669   4.888 -0.3673  1.0724 -1.2343
 3595SOL     OW11683   0.388   5.567   0.041 -0.3384  0.1390  0.1312
 3595SOL    HW111684   0.398   5.468   0.032 -1.5624  0.0948 -0.8401
 3595SOL    HW211685   0.399   5.610  -0.048  2.5231  1.1427  0.8613
 3596SOL     OW11686   1.702   1.241   4.689 -0.4915  0.1411 -0.7793
 3596SOL    HW111687   1.706   1.216   4.786 -2.0171  1.0950 -0.4505
 3596SOL    HW211688   1.679   1.160   4.635 -1.3644 -0.0379 -0.1582
 3597SOL     OW11689   4.225   6.297   1.774  0.1831  0.1228  0.1857
 3597SOL    HW111690   4.311   6.330   1.813  1.0089 -1.2428 -0.3793
 3597SOL    HW211691   4.183   6.231   1.836 -0.2891  0.5212  0.2980
 3598SOL     OW11692   6.191   0.844   2.808 -0.3663 -0.4157  0.0148
 3598SOL    HW111693   6.146   0.896   2.881 -1.3428 -1.6134  0.2801
 3598SOL    HW211694   6.261   0.785   2.847 -0.8636 -1.0303 -0.0108
 3599SOL     OW11695   6.824   2.363   3.336 -0.0142  0.1484  0.8010
 3599SOL    HW111696   6.902   2.421   3.362  0.4666 -0.4978  0.8262
 3599SOL    HW211697   6.857   2.283   3.285 -0.6672 -0.1221  0.7885
 3600SOL     OW11698   2.501   1.469   3.891 -0.1188  0.2354  0.5482
 3600SOL    HW111699   2.513   1.548   3.831 -3.5747  1.1451  0.8431
 3600SOL    HW211700   2.588   1.448   3.936  1.1865  3.2220 -0.3219
 3601SOL     OW11701   1.043   0.492   0.140  0.3485  0.1949 -0.0674
 3601SOL    HW111702   0.969   0.556   0.161  1.3889  0.9304  1.5301
 3601SOL    HW211703   1.004   0.409   0.099 -1.6025 -0.1290  2.2327
 3602SOL     OW11704   6.651   2.379   0.223  0.0125  0.3505 -0.1599
 3602SOL    HW111705   6.616   2.467   0.253  0.2865  1.0121 -1.6983
 3602SOL    HW211706   6.744   2.390   0.188 -0.4583 -0.2666 -1.6870
 3603SOL     OW11707   0.657   5.694   2.393  0.0600  0.1685 -0.5665
 3603SOL    HW111708   0.628   5.680   2.299  0.5477  1.2879 -0.9023
 3603SOL    HW211709   0.644   5.610   2.446  0.5752 -0.7331 -1.8347
 3604SOL     OW11710   1.260   6.032   3.673 -0.5893 -0.0014  0.5625
 3604SOL    HW111711   1.288   6.056   3.580  0.7402  0.0878  0.9731
 3604SOL    HW211712   1.255   5.932   3.681  1.0033 -0.0797  0.8552
 3605SOL     OW11713   3.181   6.361   1.547  0.7600  0.0649 -0.4346
 3605SOL    HW111714   3.146   6.342   1.639  0.3317  0.3864 -0.5264
 3605SOL    HW211715   3.257   6.299   1.527  0.9032  0.0352  0.1603
 3606SOL     OW11716   1.642   1.016   2.284 -0.8293 -0.2775 -0.3517
 3606SOL    HW111717   1.654   0.940   2.348 -1.9519  2.0096  2.8231
 3606SOL    HW211718   1.728   1.065   2.275 -0.2118 -1.5928 -2.0814
 3607SOL     OW11719   4.335   3.936   0.428 -0.2033  0.2006  0.6090
 3607SOL    HW111720   4.291   3.944   0.517 -0.3588 -1.2168  0.6946
 3607SOL    HW211721   4.341   3.839   0.403  0.3822  0.5398 -0.6513
 3608SOL     OW11722   1.503   0.764   3.911  0.1179  0.1125 -0.6443
 3608SOL    HW111723   1.430   0.753   3.844  1.0315 -1.0672 -1.4970
 3608SOL    HW211724   1.579   0.703   3.888  1.5849  1.6144 -0.0722
 3609SOL     OW11725   2.709   2.180   0.764 -0.0702 -0.3649  0.2867
 3609SOL    HW111726   2.626   2.236   0.760 -0.9359 -1.6488 -0.6032
 3609SOL    HW211727   2.721   2.145   0.857  0.0487  0.6420  0.6618
 3610SOL     OW11728   2.340   0.420   4.294 -0.1370 -0.1711  0.5187
 3610SOL    HW111729   2.254   0.458   4.261 -0.5731 -0.8690  0.8276
 3610SOL    HW211730   2.360   0.336   4.243  0.2165 -0.1630  0.6454
 3611SOL     OW11731   6.089   6.766   5.308 -0.1628 -0.0199  0.1369
 3611SOL    HW111732   6.147   6.765   5.390 -0.0710 -0.7061  0.0676
 3611SOL    HW211733   5.993   6.778   5.336 -0.0167  0.9630  0.2603
 3612SOL     OW11734   1.336   6.711   3.603  0.1335  0.3683  0.4434
 3612SOL    HW111735   1.370   6.771   3.676  0.6431  0.0036  0.5075
 3612SOL    HW211736   1.360   6.616   3.623  2.7718  0.5058 -1.5353
 3613SOL     OW11737   5.113   5.988   3.684  0.4718  0.2313  0.1209
 3613SOL    HW111738   5.047   6.019   3.615  0.7172 -0.1763 -0.3014
 3613SOL    HW211739   5.120   6.056   3.757 -0.0962  0.4752 -0.0505
 3614SOL     OW11740   4.456   1.663   3.669  0.2025  0.2260 -0.1484
 3614SOL    HW111741   4.538   1.609   3.651 -0.2730 -0.3626 -0.6534
 3614SOL    HW211742   4.385   1.603   3.706  0.0279  0.7452  0.3716
 3615SOL     OW11743   2.421   3.772   1.687 -0.2319  0.2947 -0.0308
 3615SOL    HW111744   2.417   3.674   1.670 -0.9117  0.4375 -0.7336
 3615SOL    HW211745   2.344   3.800   1.745 -0.6729  0.5811 -0.7411
 3616SOL     OW11746   5.430   3.688   3.132 -0.3336 -0.0796 -0.3256
 3616SOL    HW111747   5.454   3.659   3.039  0.6732 -3.0170  0.7410
 3616SOL    HW211748   5.419   3.607   3.190 -3.0922  1.5781  1.6648
 3617SOL     OW11749   6.883   3.231   2.102  0.8200 -0.0431  0.3399
 3617SOL    HW111750   6.845   3.175   2.029 -0.2114 -0.7787  1.4034
 3617SOL    HW211751   6.809   3.276   2.151  1.5106  0.6245  0.7917
 3618SOL     OW11752   2.077   1.649   0.763 -0.3908  0.1518  0.1304
 3618SOL    HW111753   2.012   1.602   0.822 -0.6337 -0.3087 -0.4904
 3618SOL    HW211754   2.045   1.743   0.747 -1.4458 -0.3687 -0.9674
 3619SOL     OW11755   1.494   2.531   4.878  0.3322 -0.0889 -0.1351
 3619SOL    HW111756   1.460   2.626   4.877 -2.0563 -0.8581  0.8070
 3619SOL    HW211757   1.489   2.495   4.971  2.7486 -0.6852 -0.1797
 3620SOL     OW11758   6.948   0.150   0.448  0.3822 -0.3997 -0.0765
 3620SOL    HW111759   6.905   0.060   0.448 -0.1877 -0.1341 -0.4870
 3620SOL    HW211760   7.019   0.153   0.519  0.9890 -1.4353 -0.6288
 3621SOL     OW11761   3.933   6.813   3.715 -0.6955 -0.5069 -0.2629
 3621SOL    HW111762   3.834   6.818   3.699 -0.6768 -1.9889 -0.9758
 3621SOL    HW211763   3.955   6.728   3.762 -0.2578  1.7970  4.3459
 3622SOL     OW11764   4.160   1.047   5.935 -0.2721  0.2230  0.1772
 3622SOL    HW111765   4.166   1.089   6.025  1.7215  0.0400  0.1627
 3622SOL    HW211766   4.244   1.065   5.884 -0.4366 -1.5777 -0.7977
 3623SOL     OW11767   3.493   4.695   6.512 -0.9196  0.0298 -0.2226
 3623SOL    HW111768   3.494   4.782   6.464  0.2273 -0.4704 -1.1332
 3623SOL    HW211769   3.546   4.627   6.461  0.7875 -0.3948  1.9782
 3624SOL     OW11770   5.354   0.442   2.061  0.1838  0.3637 -0.1894
 3624SOL    HW111771   5.337   0.350   2.097 -1.4136  0.2234 -1.2487
 3624SOL    HW211772   5.441   0.476   2.099  1.0838 -1.7639 -0.1852
 3625SOL     OW11773   5.528   3.105   3.436 -0.1095  0.3169  0.4559
 3625SOL    HW111774   5.483   3.016   3.439  0.7377 -0.1487 -0.2860
 3625SOL    HW211775   5.483   3.167   3.501 -0.9675 -0.5162  0.6833
 3626SOL     OW11776   2.931   4.897   0.557 -0.1758 -0.0235 -0.0396
 3626SOL    HW111777   2.990   4.921   0.634 -1.0139  1.1527  0.2689
 3626SOL    HW211778   2.854   4.961   0.553 -0.0733  0.0502 -1.9441
 3627SOL     OW11779   6.148   1.789   0.125 -0.2940 -0.1262  0.3577
 3627SOL    HW111780   6.164   1.696   0.156  0.9120 -0.2392 -0.5203
 3627SOL    HW211781   6.206   1.852   0.178 -0.6570  0.0609  0.5388
 3628SOL     OW11782   4.926   6.493   3.817 -0.2822 -0.7602 -0.6357
 3628SOL    HW111783   4.916   6.591   3.837  0.5416 -0.5643 -1.1320
 3628SOL    HW211784   4.953   6.481   3.722  0.6660 -1.4055 -0.3003
 3629SOL     OW11785   6.961   5.121   3.407 -0.3584  0.4245 -0.1577
 3629SOL    HW111786   7.003   5.040   3.364  1.7028  1.3959 -0.1146
 3629SOL    HW211787   6.902   5.166   3.341  0.6552  0.3991 -1.1263
 3630SOL     OW11788   5.113   5.940   1.751  0.3724 -0.3418 -0.1422
 3630SOL    HW111789   5.119   5.979   1.843 -0.0760 -0.3512 -0.1081
 3630SOL    HW211790   5.176   5.863   1.743  0.4866 -0.2775  0.1231
 3631SOL     OW11791   6.536   6.111   2.049 -0.7605  0.1257  0.0688
 3631SOL    HW111792   6.440   6.103   2.075 -0.5178 -0.5556  0.7981
 3631SOL    HW211793   6.593   6.113   2.131 -0.2649  2.6374 -0.2596
 3632SOL     OW11794   5.946   2.837   3.622 -0.0473 -0.5418 -0.3685
 3632SOL    HW111795   5.927   2.935   3.634 -0.0919 -0.2617 -2.3287
 3632SOL    HW211796   5.861   2.789   3.601 -0.1394 -1.1579  1.2896
 3633SOL     OW11797   0.896   5.178   6.901  0.7422 -0.1686 -0.2147
 3633SOL    HW111798   0.829   5.131   6.958  0.1744  1.2276  0.3349
 3633SOL    HW211799   0.849   5.219   6.822  1.3529 -1.1852 -1.1398
 3634SOL     OW11800   5.612   3.462   3.703  0.3291 -0.0039  0.4809
 3634SOL    HW111801   5.608   3.522   3.623  3.0144 -0.3080  0.0503
 3634SOL    HW211802   5.646   3.514   3.782 -2.1769  0.2648  1.4932
 3635SOL     OW11803   6.840   5.000   3.877 -0.5789  0.1348  0.7395
 3635SOL    HW111804   6.874   5.015   3.784  0.0124  1.5323  1.1567
 3635SOL    HW211805   6.891   5.058   3.941 -1.7954  0.1146  1.7725
 3636SOL     OW11806   4.931   1.962   3.748 -0.2793  0.2142  0.2335
 3636SOL    HW111807   4.850   1.904   3.755  0.5404 -1.2465 -1.5341
 3636SOL    HW211808   5.003   1.925   3.806 -0.7271  1.3508  1.5823
 3637SOL     OW11809   5.071   1.783   6.522  0.2126 -0.0240  0.1655
 3637SOL    HW111810   5.166   1.812   6.531  0.5162 -0.9989  0.1957
 3637SOL    HW211811   5.011   1.853   6.562  0.9085  0.5967  0.1460
 3638SOL     OW11812   2.251   4.978   2.347  0.6790 -0.3881  0.0248
 3638SOL    HW111813   2.155   4.994   2.325  0.9481 -1.9098 -2.7275
 3638SOL    HW211814   2.306   5.054   2.314  0.6098 -0.5219 -0.4084
 3639SOL     OW11815   3.709   4.246   1.452  0.3599 -0.2293 -0.0845
 3639SOL    HW111816   3.725   4.233   1.550  3.9594 -0.1832 -0.4990
 3639SOL    HW211817   3.702   4.156   1.408  0.9562 -0.3207 -0.0102
 3640SOL     OW11818   0.117   6.379   4.922 -0.5288 -0.3674 -0.1274
 3640SOL    HW111819   0.207   6.399   4.962 -1.0619 -1.1527  1.5519
 3640SOL    HW211820   0.123   6.294   4.869 -0.4673 -0.9268  0.7489
 3641SOL     OW11821   5.968   4.475   0.322  0.4409 -0.0042 -0.1702
 3641SOL    HW111822   5.907   4.541   0.278 -3.1834 -3.4695 -0.8425
 3641SOL    HW211823   6.015   4.421   0.252  1.3402  0.0685  0.3553
 3642SOL     OW11824   6.370   6.113   6.316  0.4664  0.2422  0.0469
 3642SOL    HW111825   6.323   6.027   6.335  2.6291 -0.6052  2.1227
 3642SOL    HW211826   6.421   6.104   6.230 -1.0092  0.2791 -0.8719
 3643SOL     OW11827   2.744   6.838   2.774  0.3406 -0.1644 -0.3531
 3643SOL    HW111828   2.831   6.789   2.777 -0.0278 -0.8551 -0.6122
 3643SOL    HW211829   2.690   6.814   2.855 -0.1348 -0.7660 -0.8356
 3644SOL     OW11830   1.094   6.288   5.691 -0.3028 -0.1851 -0.1101
 3644SOL    HW111831   1.181   6.259   5.651 -0.3974  1.1105 -1.3369
 3644SOL    HW211832   1.060   6.216   5.751  0.2282 -1.9328 -1.7958
 3645SOL     OW11833   0.221   2.024   3.134  0.0269 -0.2659  0.0200
 3645SOL    HW111834   0.190   2.071   3.051  2.1859 -0.8762 -1.2149
 3645SOL    HW211835   0.300   2.072   3.171 -0.7042 -0.2056  1.5815
 3646SOL     OW11836   6.191   3.811   3.897  0.2829  0.1897 -0.0223
 3646SOL    HW111837   6.108   3.837   3.848  1.3126  0.1600 -1.8732
 3646SOL    HW211838   6.267   3.805   3.833  1.7624  0.3234  1.6396
 3647SOL     OW11839   0.890   6.599   0.606 -0.0257  0.1906 -0.0802
 3647SOL    HW111840   0.901   6.610   0.507 -2.0634 -0.0365 -0.3784
 3647SOL    HW211841   0.937   6.673   0.653  0.6642  0.5136 -1.2441
 3648SOL     OW11842   5.499   4.990   6.886  0.2289 -0.0663 -0.2797
 3648SOL    HW111843   5.417   5.041   6.912  1.2943  0.7348  1.7252
 3648SOL    HW211844   5.506   4.986   6.787 -0.6559  2.5067 -0.5053
 3649SOL     OW11845   6.360   3.017   1.030 -0.0226  0.1551 -0.0654
 3649SOL    HW111846   6.282   3.078   1.043  0.7265  1.0676  0.2667
 3649SOL    HW211847   6.395   2.988   1.119 -0.4990 -0.9538 -0.2191
 3650SOL     OW11848   0.673   5.369   0.032  0.1931 -0.4847  0.2227
 3650SOL    HW111849   0.582   5.346  -0.001 -0.0199 -1.0002  1.1238
 3650SOL    HW211850   0.708   5.294   0.088  1.6886 -0.8274 -1.0911
 3651SOL     OW11851   6.107   6.784   1.599 -0.6373 -0.5060 -0.3824
 3651SOL    HW111852   6.192   6.750   1.638 -0.3034  0.7348  0.0233
 3651SOL    HW211853   6.031   6.765   1.661 -0.0606  1.7873  1.1588
 3652SOL     OW11854   6.703   6.309   5.632  0.2662 -0.1071  0.2145
 3652SOL    HW111855   6.796   6.344   5.647  0.0951  0.4085  0.0686
 3652SOL    HW211856   6.637   6.369   5.676 -0.0333 -0.2302 -0.0651
 3653SOL     OW11857   5.881   5.262   1.340 -0.9120  0.4949 -0.6093
 3653SOL    HW111858   5.964   5.316   1.358 -1.0444  1.2677 -2.1681
 3653SOL    HW211859   5.801   5.312   1.374 -0.8010 -0.0881  0.5712
 3654SOL     OW11860   1.652   4.008   5.939  0.2153  0.5635  0.3221
 3654SOL    HW111861   1.714   4.086   5.944  0.5020  0.2981  1.2252
 3654SOL    HW211862   1.684   3.944   5.870  0.5746  0.7466  0.3190
 3655SOL     OW11863   1.157   3.436   2.934  0.1955 -0.2731  0.0566
 3655SOL    HW111864   1.137   3.495   3.012  2.0378 -1.2458  1.3304
 3655SOL    HW211865   1.071   3.401   2.896 -0.7318 -0.4303  2.1733
 3656SOL     OW11866   4.020   6.887   4.290 -0.1869 -0.0892 -0.2302
 3656SOL    HW111867   4.084   6.921   4.221  0.2793  1.6577  1.0081
 3656SOL    HW211868   3.947   6.835   4.245  0.6556  0.1271 -1.9147
 3657SOL     OW11869   6.394   6.312   6.004 -0.1846  0.2912  0.0463
 3657SOL    HW111870   6.400   6.287   5.907 -0.0701 -0.0220  0.1337
 3657SOL    HW211871   6.484   6.302   6.046 -0.2368  0.4175  0.1872
 3658SOL     OW11872   2.960   6.789   6.748  0.1183  0.1419  0.1017
 3658SOL    HW111873   2.989   6.854   6.819  1.0196 -0.2555  0.1073
 3658SOL    HW211874   2.882   6.827   6.699 -1.6958 -0.3180  2.4400
 3659SOL     OW11875   2.568   5.016   6.718 -0.1734 -0.4707  0.0717
 3659SOL    HW111876   2.609   5.020   6.809  0.8290  1.0133 -0.4172
 3659SOL    HW211877   2.624   4.957   6.660  0.2547  0.0709 -0.0794
 3660SOL     OW11878   4.290   6.413   5.678 -0.1459 -0.1700 -0.5003
 3660SOL    HW111879   4.372   6.424   5.735 -1.4259 -0.9461  1.6513
 3660SOL    HW211880   4.309   6.350   5.603  1.2433 -0.2776 -0.0742
 3661SOL     OW11881   1.355   0.035   4.027  0.3771  0.1321  0.0843
 3661SOL    HW111882   1.370  -0.008   3.938  2.3093  0.4280  0.2271
 3661SOL    HW211883   1.291   0.111   4.017  0.0433 -0.2663 -0.9167
 3662SOL     OW11884   0.900   0.094   3.011  0.0263  0.2826  0.2153
 3662SOL    HW111885   0.966   0.167   3.030  1.4470 -1.1492  1.0071
 3662SOL    HW211886   0.949   0.009   2.992 -1.6040 -0.9299  1.1889
 3663SOL     OW11887   0.599   3.765   4.871  0.1097 -0.7156 -0.3278
 3663SOL    HW111888   0.645   3.744   4.784  0.4871  1.2789 -0.6671
 3663SOL    HW211889   0.622   3.695   4.939  1.7510 -1.0471 -1.1686
 3664SOL     OW11890   3.593   2.868   3.633  0.1211  0.4901 -0.0430
 3664SOL    HW111891   3.519   2.920   3.591 -0.2249 -1.0271 -1.4538
 3664SOL    HW211892   3.670   2.861   3.569  0.2090 -0.5854  0.1550
 3665SOL     OW11893   1.040   6.409   2.818 -0.5088  0.2382 -0.3012
 3665SOL    HW111894   1.103   6.470   2.866  0.5824 -0.1876 -1.1511
 3665SOL    HW211895   1.083   6.319   2.806 -1.0172  0.1386 -1.4910
 3666SOL     OW11896   2.170   4.479   3.876 -0.5058  0.3003 -0.6193
 3666SOL    HW111897   2.240   4.413   3.848  0.1083 -0.7052  2.8218
 3666SOL    HW211898   2.210   4.545   3.940 -2.2225  1.0612 -0.2679
 3667SOL     OW11899   4.562   4.762   3.771 -0.2568 -0.0145 -0.4943
 3667SOL    HW111900   4.649   4.764   3.721  0.1189  0.0312  0.1590
 3667SOL    HW211901   4.562   4.834   3.840 -1.5778  1.2393 -1.7393
 3668SOL     OW11902   5.920   4.441   1.986  0.2751 -0.3826  0.0704
 3668SOL    HW111903   5.976   4.522   2.003  1.4101 -0.6898 -1.9562
 3668SOL    HW211904   5.855   4.461   1.913  1.6816 -1.7282 -1.6294
 3669SOL     OW11905   1.990   4.903   1.485 -0.0781  0.6996 -0.2605
 3669SOL    HW111906   1.963   4.809   1.462 -0.8827  0.9490 -0.3800
 3669SOL    HW211907   1.974   4.919   1.583 -1.5247  1.2053 -0.5516
 3670SOL     OW11908   5.022   1.568   3.930  0.4147  0.0648  0.0567
 3670SOL    HW111909   5.086   1.644   3.916  0.3901  0.2689  0.9682
 3670SOL    HW211910   4.940   1.583   3.875  1.6072 -0.7981 -2.0709
 3671SOL     OW11911   3.703   3.378   0.593 -0.2424 -0.1289 -0.1377
 3671SOL    HW111912   3.746   3.467   0.603 -0.5629 -0.0368  0.4710
 3671SOL    HW211913   3.612   3.389   0.554 -1.5155  0.1389  2.7094
 3672SOL     OW11914   6.812   0.999   1.718 -0.1294 -0.1904  0.0146
 3672SOL    HW111915   6.719   0.975   1.691  0.3748 -0.2379 -1.7910
 3672SOL    HW211916   6.854   1.055   1.647  1.4399 -0.6954  0.4984
 3673SOL     OW11917   4.283   5.440   0.733  0.4613  0.1823  0.1787
 3673SOL    HW111918   4.329   5.435   0.822 -0.9194  0.6786  0.9424
 3673SOL    HW211919   4.192   5.401   0.739  0.6499 -0.5679 -1.2611
 3674SOL     OW11920   1.953   6.968   2.208  0.1670  0.2489  0.2645
 3674SOL    HW111921   1.910   6.896   2.154 -1.3596 -0.3794  2.1836
 3674SOL    HW211922   1.977   7.045   2.149 -1.5165 -0.3343 -1.2668
 3675SOL     OW11923   6.285   5.044   3.118  0.5908 -0.3105  0.3055
 3675SOL    HW111924   6.377   5.012   3.140  0.8513  1.3253  1.7614
 3675SOL    HW211925   6.268   5.130   3.164 -1.8326 -0.7627  0.3493
 3676SOL     OW11926   4.810   3.263   1.501  0.2758 -0.7146  0.2609
 3676SOL    HW111927   4.724   3.216   1.483  0.5991 -1.0413 -0.4618
 3676SOL    HW211928   4.794   3.341   1.562 -0.3682 -1.3570  0.9262
 3677SOL     OW11929   6.940   3.116   0.356  0.4697 -0.2058 -0.4583
 3677SOL    HW111930   6.979   3.207   0.346 -0.3530  0.3540  1.0638
 3677SOL    HW211931   7.009   3.055   0.395  0.3249  0.3803  0.7504
 3678SOL     OW11932   1.070   6.611   3.813  0.1292  0.6245  0.3235
 3678SOL    HW111933   1.063   6.701   3.856 -0.8621  0.1230  1.2611
 3678SOL    HW211934   1.110   6.546   3.877  1.5376  0.5450 -0.6044
 3679SOL     OW11935   5.623   4.411   5.902 -0.0227  0.3514  0.3824
 3679SOL    HW111936   5.697   4.347   5.882  1.1060  1.2919  1.3279
 3679SOL    HW211937   5.555   4.367   5.959  1.0373  0.1312  1.5220
 3680SOL     OW11938   6.749   3.408   6.926  0.0160  0.3499 -0.1787
 3680SOL    HW111939   6.671   3.380   6.981  0.7123 -1.4181 -0.0223
 3680SOL    HW211940   6.717   3.445   6.839 -1.0213  1.0166  0.4711
 3681SOL     OW11941   2.691   4.645   3.936  0.3903 -0.1131 -0.3095
 3681SOL    HW111942   2.746   4.725   3.913 -1.5470  1.2215 -0.5322
 3681SOL    HW211943   2.662   4.600   3.852  3.0593 -2.3048 -0.2026
 3682SOL     OW11944   5.525   1.829   0.983 -0.1040  0.0292  0.8136
 3682SOL    HW111945   5.448   1.765   0.981  0.0533 -0.1627  0.8218
 3682SOL    HW211946   5.597   1.791   1.041  1.6402 -1.6758 -2.2299
 3683SOL     OW11947   6.723   5.409   6.410  0.3991  0.0711  0.4952
 3683SOL    HW111948   6.699   5.345   6.336  0.2084  0.5808  0.1092
 3683SOL    HW211949   6.666   5.491   6.402  2.3758  1.4186 -0.5520
 3684SOL     OW11950   0.592   2.837   5.777  0.6430  0.0492  0.6003
 3684SOL    HW111951   0.524   2.858   5.706  1.0741  2.3057  0.7973
 3684SOL    HW211952   0.677   2.808   5.733  1.2814  2.5248  0.0403
 3685SOL     OW11953   5.677   2.069   6.011  0.5495 -0.6447 -0.0977
 3685SOL    HW111954   5.693   1.975   6.042 -0.3069 -0.2124  1.8074
 3685SOL    HW211955   5.592   2.072   5.958  0.3215 -0.8823  0.2437
 3686SOL     OW11956   6.669   2.894   5.142 -0.3106 -0.1128 -0.0603
 3686SOL    HW111957   6.614   2.824   5.188 -0.2821 -0.3388 -0.3628
 3686SOL    HW211958   6.748   2.917   5.199 -0.3632 -0.2726  0.0773
 3687SOL     OW11959   5.692   6.978   2.944 -0.0896  0.4801 -0.2464
 3687SOL    HW111960   5.602   6.978   2.901 -0.6199 -0.6611  0.8215
 3687SOL    HW211961   5.696   6.908   3.015  2.5977 -1.6087 -2.2220
 3688SOL     OW11962   3.873   3.013   4.831  0.0104 -0.5160 -0.0342
 3688SOL    HW111963   3.777   2.989   4.815 -0.3641  1.6571 -1.3779
 3688SOL    HW211964   3.931   2.961   4.769 -0.4039 -0.8216 -0.1720
 3689SOL     OW11965   0.397   0.287   5.828 -0.5692  0.7377  0.0303
 3689SOL    HW111966   0.350   0.204   5.857 -0.0231 -0.3889 -2.0846
 3689SOL    HW211967   0.347   0.329   5.752  1.7975 -0.6651 -2.4985
 3690SOL     OW11968   1.102   5.223   5.464  0.3085  0.4279  0.4810
 3690SOL    HW111969   1.075   5.238   5.559  1.0090 -2.4099  1.2341
 3690SOL    HW211970   1.197   5.251   5.452  1.1263 -1.6730  1.4555
 3691SOL     OW11971   3.695   1.179   2.320  0.1074 -0.3564 -0.1482
 3691SOL    HW111972   3.790   1.199   2.344  0.3474 -0.6284 -0.8605
 3691SOL    HW211973   3.676   1.082   2.337 -0.6384  0.0778  1.9082
 3692SOL     OW11974   6.269   5.326   6.282  0.5038  0.5835 -0.3045
 3692SOL    HW111975   6.179   5.315   6.324  1.6105  1.2168  2.4514
 3692SOL    HW211976   6.334   5.265   6.327  1.6079  0.5815 -1.8309
 3693SOL     OW11977   1.952   0.073   2.668 -0.0505  0.0023  0.2544
 3693SOL    HW111978   2.051   0.081   2.664 -0.0260  0.7014  1.5349
 3693SOL    HW211979   1.912   0.102   2.581  0.9256 -1.8615 -0.8724
 3694SOL     OW11980   5.668   3.468   5.092  0.6674  0.4703  0.2944
 3694SOL    HW111981   5.592   3.464   5.027  0.4497  0.4396  0.5444
 3694SOL    HW211982   5.642   3.526   5.170  0.6077 -0.1386  0.7406
 3695SOL     OW11983   4.844   0.453   0.851  0.2902  0.0628 -0.2004
 3695SOL    HW111984   4.879   0.545   0.831 -0.3339  0.1221 -1.1181
 3695SOL    HW211985   4.860   0.394   0.772 -0.7282 -0.1818 -0.2359
 3696SOL     OW11986   3.994   2.558   0.020 -0.2472  0.3909 -0.0407
 3696SOL    HW111987   3.965   2.651  -0.005 -0.6656  0.4070  0.5059
 3696SOL    HW211988   4.008   2.505  -0.064  1.4455  1.3674 -0.4339
 3697SOL     OW11989   3.616   2.041   2.769  0.5233  0.2878  0.5012
 3697SOL    HW111990   3.526   2.005   2.791  0.2083  1.4968  1.2841
 3697SOL    HW211991   3.683   2.008   2.836  0.3697  0.5860  0.8040
 3698SOL     OW11992   6.333   6.850   5.581 -0.0159  0.3422 -0.2954
 3698SOL    HW111993   6.414   6.819   5.531 -0.1749  1.4894 -1.3140
 3698SOL    HW211994   6.262   6.780   5.577  0.6196 -0.3184 -0.1239
 3699SOL     OW11995   4.624   6.325   3.693  0.2173 -0.4715 -0.1344
 3699SOL    HW111996   4.697   6.266   3.727  0.9673 -0.0002 -0.8820
 3699SOL    HW211997   4.582   6.283   3.613  0.9148  0.1012 -0.8138
 3700SOL     OW11998   2.320   0.429   6.791 -0.0134 -0.0282  0.3055
 3700SOL    HW111999   2.376   0.365   6.739  2.2017  2.3979 -0.5280
 3700SOL    HW212000   2.293   0.505   6.732 -2.1936  0.0915  1.3571
 3701SOL     OW12001   6.079   0.219   4.646 -1.1548  0.2756  0.4907
 3701SOL    HW112002   6.134   0.147   4.689  0.7330  0.2365 -1.7732
 3701SOL    HW212003   6.076   0.299   4.706  2.1241  0.5556  0.4989
 3702SOL     OW12004   5.562   6.911   1.886 -0.5701  0.5499 -0.2168
 3702SOL    HW112005   5.577   6.990   1.946 -0.2873 -0.0033  0.4588
 3702SOL    HW212006   5.633   6.908   1.816 -1.1831  1.4779 -0.9051
 3703SOL     OW12007   0.645   2.672   5.004 -0.3431  0.2174 -0.0919
 3703SOL    HW112008   0.582   2.746   5.031  0.2976  0.9175 -0.5015
 3703SOL    HW212009   0.602   2.584   5.025 -2.4998  0.5647 -2.4729
 3704SOL     OW12010   6.200   0.694   4.566  0.3578  0.3148  0.4283
 3704SOL    HW112011   6.243   0.708   4.655  2.2282 -0.3518 -0.3240
 3704SOL    HW212012   6.155   0.779   4.538 -1.0016  0.2989  2.3359
 3705SOL     OW12013   4.472   5.780   2.411 -0.3232  0.1222  0.0919
 3705SOL    HW112014   4.489   5.875   2.386 -0.8431 -0.1007 -1.1724
 3705SOL    HW212015   4.375   5.769   2.434 -0.8635 -0.5884 -2.2666
 3706SOL     OW12016   2.027   4.728   4.241 -0.3971  0.4123 -0.2561
 3706SOL    HW112017   2.069   4.778   4.165 -0.9855  0.8693 -0.2933
 3706SOL    HW212018   2.020   4.789   4.320  1.3740 -0.4337  0.5921
 3707SOL     OW12019   2.268   6.236   3.899 -0.7665 -0.4968 -0.7061
 3707SOL    HW112020   2.361   6.273   3.902 -1.1154  0.3513  1.9640
 3707SOL    HW212021   2.270   6.138   3.920 -0.5609 -0.2042  0.7240
 3708SOL     OW12022   0.356   1.044   3.273  0.0364  0.4317  0.4427
 3708SOL    HW112023   0.432   1.093   3.316  1.7856 -2.2447  0.6342
 3708SOL    HW212024   0.316   0.980   3.338 -1.0040  0.3098 -0.2908
 3709SOL     OW12025   6.827   5.085   4.443  0.7853 -0.5948 -0.1594
 3709SOL    HW112026   6.738   5.044   4.459  0.5373  0.5474  1.6440
 3709SOL    HW212027   6.886   5.069   4.522  1.4979  0.3626 -0.4743
 3710SOL     OW12028   1.416   2.796   3.529  0.6291  0.2885 -0.8240
 3710SOL    HW112029   1.323   2.762   3.542  0.4581  0.6841 -0.9793
 3710SOL    HW212030   1.478   2.750   3.593  0.2432  0.3797 -0.3810
 3711SOL     OW12031   1.389   2.119   3.854  0.3647 -0.1386  0.3489
 3711SOL    HW112032   1.440   2.185   3.909  0.3861  1.9930 -2.0309
 3711SOL    HW212033   1.305   2.094   3.901  1.4494 -0.2498  2.3338
 3712SOL     OW12034   2.098   5.381   5.443 -0.3451  0.4231  0.3543
 3712SOL    HW112035   2.102   5.455   5.376  0.3866 -1.3224 -1.6326
 3712SOL    HW212036   2.005   5.346   5.448 -0.5244  0.9434  0.6979
 3713SOL     OW12037   1.840   1.154   0.325  0.0786 -0.1931  0.0614
 3713SOL    HW112038   1.834   1.117   0.417 -0.8694  0.2014  0.1727
 3713SOL    HW212039   1.915   1.111   0.276 -0.9263 -2.1961  0.2000
 3714SOL     OW12040   1.659   3.644   0.277  0.2539  0.4001  0.0178
 3714SOL    HW112041   1.626   3.676   0.188  0.2317 -1.0585 -0.5279
 3714SOL    HW212042   1.757   3.663   0.285  0.1617  0.9555 -0.1142
 3715SOL     OW12043   4.772   5.973   6.663  0.9718 -0.2872  0.0975
 3715SOL    HW112044   4.760   6.051   6.602  0.6149  0.1944  0.7710
 3715SOL    HW212045   4.840   5.994   6.732  0.5404 -0.3890  0.5643
 3716SOL     OW12046   5.093   4.647   4.231 -0.0497 -0.2808 -0.4518
 3716SOL    HW112047   5.017   4.708   4.253  1.9719  1.3829  2.5550
 3716SOL    HW212048   5.069   4.554   4.257 -1.1794  0.1387  0.1082
 3717SOL     OW12049   4.802   5.209   5.071  0.7470  0.0791 -0.0707
 3717SOL    HW112050   4.883   5.266   5.085 -0.6815  1.9310  0.9979
 3717SOL    HW212051   4.772   5.217   4.977  2.0161 -0.9848 -0.6062
 3718SOL     OW12052   5.964   2.529   1.757  0.0479 -0.6351  0.3562
 3718SOL    HW112053   6.015   2.587   1.693  0.3798 -2.5586 -1.2025
 3718SOL    HW212054   6.028   2.488   1.822  0.2650 -1.6103 -0.4528
 3719SOL     OW12055   6.615   0.442   1.253  0.3570 -0.3430  0.0392
 3719SOL    HW112056   6.710   0.414   1.238  0.4788 -0.0371  0.2193
 3719SOL    HW212057   6.612   0.507   1.329 -0.0594 -0.7542  0.3840
 3720SOL     OW12058   4.288   6.720   5.345  0.2824 -0.2067 -0.4061
 3720SOL    HW112059   4.196   6.684   5.364 -1.0229  0.8760 -3.8942
 3720SOL    HW212060   4.286   6.820   5.350  1.2592 -0.1705 -0.6311
 3721SOL     OW12061   2.785   5.209   6.658  0.8197 -0.9984 -0.0515
 3721SOL    HW112062   2.694   5.171   6.673  1.1621 -1.7019  0.2717
 3721SOL    HW212063   2.807   5.205   6.561 -0.2809  1.0052 -0.4404
 3722SOL     OW12064   1.241   5.074   6.512  0.1103 -0.6322 -0.0888
 3722SOL    HW112065   1.202   5.123   6.434  1.5179  0.4169 -0.1605
 3722SOL    HW212066   1.292   5.138   6.569 -1.5798 -1.1850  2.2071
 3723SOL     OW12067   1.685   0.550   3.852  0.2105  0.8418 -0.0633
 3723SOL    HW112068   1.785   0.547   3.861  0.2332  0.8345 -0.3228
 3723SOL    HW212069   1.644   0.495   3.924  0.4151  0.2930 -0.3640
 3724SOL     OW12070   0.373   2.429   6.690 -0.3681 -0.4324  0.0828
 3724SOL    HW112071   0.435   2.372   6.635 -1.1284 -0.7427 -0.4714
 3724SOL    HW212072   0.331   2.373   6.761 -0.2767 -0.3028  0.2390
 3725SOL     OW12073   0.046   1.003   2.765  0.1342  0.2478  0.1704
 3725SOL    HW112074   0.116   1.031   2.699 -0.5093  3.4817  0.6659
 3725SOL    HW212075  -0.041   0.988   2.717 -0.4648  3.0892  0.1411
 3726SOL     OW12076   5.342   3.782   5.242  0.4803  0.3285  0.3942
 3726SOL    HW112077   5.428   3.733   5.248 -1.8636 -4.1760  1.4580
 3726SOL    HW212078   5.324   3.807   5.147  1.8332 -0.8665 -0.2105
 3727SOL     OW12079   6.360   1.649   2.129 -0.0254 -0.3919 -0.3446
 3727SOL    HW112080   6.356   1.550   2.138 -0.3778 -0.4774 -1.3282
 3727SOL    HW212081   6.364   1.674   2.032  0.7100  0.5332 -0.0895
 3728SOL     OW12082   0.909   3.355   0.367 -0.5860 -0.1504  0.2274
 3728SOL    HW112083   0.953   3.309   0.444 -0.4075 -0.1420  0.1328
 3728SOL    HW212084   0.829   3.302   0.338 -0.0925 -0.6832 -0.2033
 3729SOL     OW12085   0.626   5.043   5.102 -0.4604  0.1740 -0.4182
 3729SOL    HW112086   0.581   4.979   5.165 -1.1383  1.0724  0.0329
 3729SOL    HW212087   0.587   5.033   5.011  1.4853 -2.1399 -1.1272
 3730SOL     OW12088   5.567   4.670   3.963 -0.3683  0.4266 -0.0552
 3730SOL    HW112089   5.637   4.681   4.032  0.4187 -2.3343 -0.2903
 3730SOL    HW212090   5.506   4.595   3.989 -0.5754 -0.1013 -1.8945
 3731SOL     OW12091   3.422   5.091   5.743 -0.2053 -0.3819 -0.1226
 3731SOL    HW112092   3.492   5.021   5.731 -1.2354 -1.1490 -2.0153
 3731SOL    HW212093   3.460   5.167   5.796  1.2552 -1.8596  1.0523
 3732SOL     OW12094   6.087   1.025   3.081 -0.0165  0.0764  0.1047
 3732SOL    HW112095   6.090   0.944   3.140 -0.9157 -0.3201 -0.3729
 3732SOL    HW212096   6.166   1.083   3.100 -0.5869  0.2763  2.1469
 3733SOL     OW12097   2.044   5.798   0.522 -0.6820  0.3195 -0.3829
 3733SOL    HW112098   1.947   5.824   0.521 -0.6645  0.6478  1.9141
 3733SOL    HW212099   2.053   5.703   0.552 -0.3208 -0.0647 -1.6384
 3734SOL     OW12100   4.762   1.308   4.213  0.0290  0.2856  0.2666
 3734SOL    HW112101   4.719   1.228   4.256  1.4414 -0.3953  0.4751
 3734SOL    HW212102   4.769   1.292   4.114 -1.7722  1.1747 -0.0554
 3735SOL     OW12103   6.113   1.802   3.474 -0.2315 -0.2213 -0.3509
 3735SOL    HW112104   6.148   1.851   3.553 -1.6097  0.3598 -0.0724
 3735SOL    HW212105   6.015   1.783   3.486 -0.1979 -1.2096 -1.3739
 3736SOL     OW12106   4.051   3.744   2.446 -0.1425 -0.1315 -0.5016
 3736SOL    HW112107   4.031   3.836   2.412 -3.1290 -0.6558 -0.4541
 3736SOL    HW212108   4.057   3.680   2.370  2.6540  0.1526 -0.5883
 3737SOL     OW12109   6.272   2.892   2.303  0.0291 -0.7462  0.3912
 3737SOL    HW112110   6.300   2.971   2.358  1.1546  1.0324 -2.4664
 3737SOL    HW212111   6.257   2.813   2.363  0.8321  1.0617  3.1977
 3738SOL     OW12112   4.535   4.505   4.464 -0.0819  0.7183 -0.5118
 3738SOL    HW112113   4.594   4.578   4.428  1.1837  0.0297  0.0944
 3738SOL    HW212114   4.454   4.496   4.406  0.0711  2.1383 -0.9857
 3739SOL     OW12115   6.279   3.226   2.799 -0.8370 -0.5354  0.0148
 3739SOL    HW112116   6.256   3.228   2.897 -2.0417 -0.9507 -0.2386
 3739SOL    HW212117   6.343   3.152   2.782 -0.7476 -0.5684  0.4695
 3740SOL     OW12118   5.962   5.862   4.269  0.2308 -0.4256 -0.1419
 3740SOL    HW112119   5.951   5.776   4.220  2.1222 -1.3418  0.9365
 3740SOL    HW212120   5.965   5.845   4.368 -0.0808  0.9638  0.1369
 3741SOL     OW12121   6.115   2.663   3.782  0.0073 -0.1209 -0.4279
 3741SOL    HW112122   6.065   2.645   3.867  1.5585  3.2380  1.3904
 3741SOL    HW212123   6.062   2.724   3.724  1.2996  2.5356  1.0027
 3742SOL     OW12124   5.401   2.380   2.294  0.1792 -0.2625 -0.4921
 3742SOL    HW112125   5.404   2.385   2.194  1.5525  1.7008 -0.4194
 3742SOL    HW212126   5.494   2.367   2.329 -0.2590 -0.6737  0.5655
 3743SOL     OW12127   0.747   1.313   4.636  0.3405  0.1057 -0.2572
 3743SOL    HW112128   0.755   1.410   4.659 -1.2806  0.2194 -0.0885
 3743SOL    HW212129   0.675   1.301   4.567  1.3172 -0.8610 -1.1468
 3744SOL     OW12130   3.962   6.579   6.114  0.3076 -0.0253 -0.0598
 3744SOL    HW112131   3.932   6.491   6.077  1.7416  0.1564 -1.7676
 3744SOL    HW212132   3.888   6.618   6.169 -0.3918 -2.2335  0.6968
 3745SOL     OW12133   0.835   4.455   5.736 -0.8612  0.3943 -0.0534
 3745SOL    HW112134   0.820   4.492   5.644  1.2332 -0.5130 -0.8364
 3745SOL    HW212135   0.853   4.356   5.729 -1.4992  0.1422  1.4446
 3746SOL     OW12136   3.146   1.225   5.864  0.4622 -0.6914  0.0044
 3746SOL    HW112137   3.149   1.292   5.790  0.2926 -0.7107 -0.0199
 3746SOL    HW212138   3.234   1.225   5.912 -0.3043  1.3043  1.5597
 3747SOL     OW12139   2.468   2.600   6.335 -0.3880 -0.0404  0.2140
 3747SOL    HW112140   2.431   2.693   6.339  1.5682  0.8855 -1.2756
 3747SOL    HW212141   2.485   2.574   6.240  1.4755 -0.8730  0.7103
 3748SOL     OW12142   5.400   6.511   3.699  0.0331 -0.3556 -0.0025
 3748SOL    HW112143   5.319   6.501   3.757 -0.5487 -1.2424 -0.9315
 3748SOL    HW212144   5.425   6.608   3.693  0.3467 -0.2860  2.0190
 3749SOL     OW12145   6.828   6.249   1.987  0.1116 -0.0204 -0.3274
 3749SOL    HW112146   6.854   6.229   2.082 -0.4039  0.6587 -0.0315
 3749SOL    HW212147   6.907   6.238   1.927  0.6864  0.4811  0.3204
 3750SOL     OW12148   5.677   2.879   6.789  0.2578 -0.2888 -0.2543
 3750SOL    HW112149   5.702   2.931   6.707  0.8073  0.6832  0.4953
 3750SOL    HW212150   5.756   2.828   6.821 -0.4372 -2.1069 -1.3162
 3751SOL     OW12151   0.907   3.656   0.006  0.5512  0.0537 -0.2860
 3751SOL    HW112152   0.927   3.623  -0.086 -3.3848 -3.3498 -0.2223
 3751SOL    HW212153   0.955   3.598   0.073 -0.3613 -0.6255 -0.2085
 3752SOL     OW12154   6.589   1.166   4.728  0.5609 -0.1304  0.0886
 3752SOL    HW112155   6.524   1.140   4.656 -0.0261  0.9875  0.2019
 3752SOL    HW212156   6.568   1.114   4.811 -0.0831  0.0959  0.0738
 3753SOL     OW12157   5.162   6.804   4.402  0.7653  0.2360  0.0926
 3753SOL    HW112158   5.238   6.853   4.360 -0.1017  0.7753 -0.9082
 3753SOL    HW212159   5.131   6.853   4.484  0.1452  1.1846 -0.6932
 3754SOL     OW12160   2.561   1.939   6.364  0.1818 -0.0537 -0.4914
 3754SOL    HW112161   2.502   1.885   6.424 -0.8543 -0.7448 -2.0507
 3754SOL    HW212162   2.505   1.992   6.301  1.2197  1.5917 -0.0863
 3755SOL     OW12163   2.845   0.594   5.637 -0.1000 -0.4029 -0.0732
 3755SOL    HW112164   2.924   0.640   5.679  0.6075 -1.9664  0.3813
 3755SOL    HW212165   2.806   0.529   5.702 -1.7583  0.2930 -0.3221
 3756SOL     OW12166   0.151   5.561   2.269  0.4580  0.2026  0.1483
 3756SOL    HW112167   0.071   5.621   2.269  0.4168  0.1562 -0.4114
 3756SOL    HW212168   0.224   5.604   2.217  0.3550 -0.3222 -0.4429
 3757SOL     OW12169   2.893   3.626   3.719  0.0151 -0.0021 -0.0561
 3757SOL    HW112170   2.886   3.655   3.623  1.0049 -0.5447 -0.3059
 3757SOL    HW212171   2.938   3.537   3.723  2.0762  1.0150  1.0284
 3758SOL     OW12172   5.104   5.365   1.348 -0.5912  0.2576  0.1703
 3758SOL    HW112173   5.145   5.285   1.304 -0.3943  0.1206  0.5997
 3758SOL    HW212174   5.160   5.446   1.329  0.1042  0.0064  1.0660
 3759SOL     OW12175   4.135   3.562   0.992 -0.1319  0.6974  0.3156
 3759SOL    HW112176   4.114   3.588   1.086  1.1152  2.0800  0.2737
 3759SOL    HW212177   4.234   3.549   0.983 -0.0875  1.6623 -1.0080
 3760SOL     OW12178   1.154   1.151   0.338 -0.5165  0.6354  0.2125
 3760SOL    HW112179   1.212   1.080   0.299 -1.0642  0.0032  0.5357
 3760SOL    HW212180   1.090   1.184   0.269 -0.4711  0.5959  0.1511
 3761SOL     OW12181   6.349   1.089   3.966  0.6840  0.4265 -0.4490
 3761SOL    HW112182   6.350   1.112   4.063 -0.5810  0.9912 -0.5513
 3761SOL    HW212183   6.304   1.162   3.914  0.4994 -0.2909 -1.3353
 3762SOL     OW12184   5.361   5.148   0.094  0.0563 -1.0987 -0.0982
 3762SOL    HW112185   5.280   5.204   0.115 -1.8103 -2.9875 -1.7941
 3762SOL    HW212186   5.429   5.160   0.166 -1.8686  0.3136  1.6142
 3763SOL     OW12187   5.405   1.451   1.111 -0.3387 -0.2884 -0.4226
 3763SOL    HW112188   5.380   1.515   1.038 -1.7826 -0.6475 -0.2654
 3763SOL    HW212189   5.378   1.488   1.200 -1.3594 -1.1701 -0.3423
 3764SOL     OW12190   1.457   2.976   1.706  0.2823  0.2697 -0.2445
 3764SOL    HW112191   1.521   2.932   1.769 -0.2726 -0.2204 -0.0055
 3764SOL    HW212192   1.419   3.058   1.750 -1.7538 -1.2465  1.0048
 3765SOL     OW12193   3.179   0.658   1.070 -0.4600 -0.3526 -0.4366
 3765SOL    HW112194   3.268   0.701   1.052 -0.9211  0.5531 -0.5791
 3765SOL    HW212195   3.151   0.677   1.164 -0.5715 -0.5124 -0.4379
 3766SOL     OW12196   6.691   0.928   3.938  0.6894  0.2409 -0.2826
 3766SOL    HW112197   6.641   0.894   4.018 -0.7759  1.1950 -0.7405
 3766SOL    HW212198   6.702   1.027   3.945  0.5101  0.3417 -1.2704
 3767SOL     OW12199   0.945   4.275   0.479  0.3315  0.7337 -0.5778
 3767SOL    HW112200   0.934   4.292   0.381  1.8372  2.1449 -0.5525
 3767SOL    HW212201   1.031   4.316   0.510  0.3786 -0.5573  1.1501
 3768SOL     OW12202   5.440   4.226   5.631  0.2045  0.0006  0.9469
 3768SOL    HW112203   5.397   4.137   5.616  0.7413 -0.0474 -0.5360
 3768SOL    HW212204   5.382   4.298   5.594  0.3910  0.1338  0.9104
 3769SOL     OW12205   1.045   3.227   6.405 -0.0044 -0.1653  0.3710
 3769SOL    HW112206   1.090   3.241   6.493 -2.7199  0.5023  1.7410
 3769SOL    HW212207   0.968   3.289   6.397  0.4603  0.1728 -2.7645
 3770SOL     OW12208   0.755   5.943   6.668  0.4811  0.2281 -0.2772
 3770SOL    HW112209   0.668   5.942   6.618  0.7123  1.8068 -0.7622
 3770SOL    HW212210   0.738   5.932   6.766 -0.2463  0.4214 -0.3789
 3771SOL     OW12211   6.712   6.290   1.114 -0.1202 -0.1316 -0.0787
 3771SOL    HW112212   6.626   6.287   1.063 -0.3922 -1.6613  0.4277
 3771SOL    HW212213   6.784   6.245   1.061  0.4405  1.2645 -0.5625
 3772SOL     OW12214   3.361   0.838   4.119 -0.0845 -0.1040  0.0551
 3772SOL    HW112215   3.359   0.813   4.022  1.4303  1.0913 -0.3264
 3772SOL    HW212216   3.268   0.851   4.152 -0.6077 -0.1002 -1.3545
 3773SOL     OW12217   6.838   6.853   3.681  0.3055  0.3265 -0.2548
 3773SOL    HW112218   6.928   6.843   3.639  1.7183 -0.5562  2.6648
 3773SOL    HW212219   6.784   6.771   3.663  0.6956  0.1730 -0.7550
 3774SOL     OW12220   2.028   6.221   0.926  0.0658 -0.4056  0.2164
 3774SOL    HW112221   1.975   6.298   0.964 -1.7236 -1.0731 -0.7882
 3774SOL    HW212222   2.011   6.139   0.980 -1.0157 -0.9241 -0.8562
 3775SOL     OW12223   6.087   4.158   1.215  0.2491 -0.1413 -1.2116
 3775SOL    HW112224   6.043   4.222   1.152 -1.3981 -1.4740 -1.4658
 3775SOL    HW212225   6.068   4.064   1.187  1.2058 -0.7587  0.1067
 3776SOL     OW12226   1.509   4.835   6.656  0.3369 -1.1672  0.1949
 3776SOL    HW112227   1.413   4.814   6.638  0.1558 -0.3204  0.1384
 3776SOL    HW212228   1.523   4.848   6.755  0.5603 -2.0506  0.2915
 3777SOL     OW12229   5.526   4.329   1.849  0.1459  0.0729 -0.0717
 3777SOL    HW112230   5.572   4.302   1.933  0.7273  0.1770 -0.3504
 3777SOL    HW212231   5.503   4.247   1.796  0.5046  0.0394 -0.1831
 3778SOL     OW12232   1.183   5.445   6.483  0.1340 -0.5592  0.3324
 3778SOL    HW112233   1.253   5.399   6.536 -0.2279 -1.0118  0.4261
 3778SOL    HW212234   1.095   5.437   6.529 -0.2094 -1.0631 -0.3822
 3779SOL     OW12235   1.498   5.402   0.275  0.0781 -0.4046 -0.3426
 3779SOL    HW112236   1.515   5.334   0.346 -1.7819  0.9011  1.4673
 3779SOL    HW212237   1.556   5.482   0.290 -0.5637  0.0170 -0.0731
 3780SOL     OW12238   1.023   3.014   3.580  0.1284 -0.0568 -0.5069
 3780SOL    HW112239   1.021   3.109   3.547 -0.7848  0.4691  0.9560
 3780SOL    HW212240   1.080   3.009   3.661 -0.7535 -0.5085  0.1019
 3781SOL     OW12241   2.569   6.724   5.284 -1.0524 -0.5259 -0.0213
 3781SOL    HW112242   2.571   6.821   5.260 -2.2566 -0.9745 -2.1793
 3781SOL    HW212243   2.531   6.713   5.376  2.5466  1.1957  1.9024
 3782SOL     OW12244   2.474   0.817   6.911 -0.0446  0.0386 -0.3291
 3782SOL    HW112245   2.431   0.727   6.919  0.3639 -0.1377 -0.1085
 3782SOL    HW212246   2.513   0.844   6.999 -1.0207  0.8709 -0.1307
 3783SOL     OW12247   1.792   3.535   6.405 -0.6641 -0.3730  0.1564
 3783SOL    HW112248   1.827   3.441   6.396 -0.7270 -0.2576 -1.8005
 3783SOL    HW212249   1.852   3.586   6.467  0.4306 -1.2267 -0.1468
 3784SOL     OW12250   0.125   5.580   6.591  0.3593 -0.6220  0.4164
 3784SOL    HW112251   0.074   5.566   6.676 -1.1819 -0.5240 -0.4539
 3784SOL    HW212252   0.061   5.584   6.514  1.5913  0.6459 -0.6029
 3785SOL     OW12253   0.026   6.211   1.825  0.1881  0.5022 -0.2307
 3785SOL    HW112254   0.028   6.232   1.727  2.2595 -0.7784 -0.5197
 3785SOL    HW212255   0.049   6.115   1.839 -0.3463  0.6008  1.5164
 3786SOL     OW12256   1.681   0.603   2.674 -0.9240 -0.1466 -0.2094
 3786SOL    HW112257   1.703   0.508   2.696 -2.2843 -0.1853  1.1565
 3786SOL    HW212258   1.745   0.664   2.721 -2.2980 -0.3211  2.0635
 3787SOL     OW12259   5.371   4.848   0.704 -0.1528 -0.3334 -0.2222
 3787SOL    HW112260   5.434   4.895   0.642 -0.5878 -0.8483 -1.0660
 3787SOL    HW212261   5.359   4.754   0.674 -0.6014 -0.5080  0.4842
 3788SOL     OW12262   0.865   2.118   3.435 -0.0279 -0.2580 -0.7073
 3788SOL    HW112263   0.828   2.078   3.351  0.2996  1.3570 -1.6772
 3788SOL    HW212264   0.954   2.076   3.455  0.6939  0.4801 -2.1591
 3789SOL     OW12265   4.357   1.133   0.854 -0.0905 -0.2557  0.1258
 3789SOL    HW112266   4.322   1.180   0.774  1.7609  0.8233 -0.1170
 3789SOL    HW212267   4.290   1.067   0.886 -1.5714  0.4943 -1.2758
 3790SOL     OW12268   2.516   2.437   0.433  0.2839 -0.1894 -0.4673
 3790SOL    HW112269   2.486   2.530   0.458  0.9079  0.0936 -0.7395
 3790SOL    HW212270   2.613   2.427   0.455  0.5540 -0.3266 -1.6564
 3791SOL     OW12271   0.081   4.944   4.260  0.6548  0.2943 -0.1365
 3791SOL    HW112272   0.110   4.940   4.355  2.3904 -3.1516 -0.6565
 3791SOL    HW212273  -0.019   4.940   4.256  0.6055 -1.5092  1.5541
 3792SOL     OW12274   0.392   3.844   3.353 -0.2560  0.2454 -0.8412
 3792SOL    HW112275   0.460   3.912   3.379  0.7124 -0.5037 -1.3713
 3792SOL    HW212276   0.317   3.889   3.304 -1.0420  1.3438  1.2273
 3793SOL     OW12277   1.917   2.441   3.167 -0.1366 -0.0371 -0.8718
 3793SOL    HW112278   1.918   2.473   3.072  0.6192 -1.1158 -1.2431
 3793SOL    HW212279   2.004   2.465   3.210 -1.3676  2.6645  0.3564
 3794SOL     OW12280   4.904   3.706   2.209 -0.0998 -0.0197 -0.0833
 3794SOL    HW112281   4.951   3.726   2.123 -0.3837 -0.5677 -0.3672
 3794SOL    HW212282   4.841   3.630   2.196 -1.9524  1.4175 -0.0274
 3795SOL     OW12283   4.724   6.234   2.837  0.5271  0.3174  0.2903
 3795SOL    HW112284   4.735   6.157   2.899  1.0071 -0.1186 -0.3229
 3795SOL    HW212285   4.704   6.317   2.889  1.7495  0.1363  1.0953
 3796SOL     OW12286   1.130   1.187   6.784 -0.0047  0.2047 -0.8114
 3796SOL    HW112287   1.214   1.240   6.796  0.2414 -0.5044  0.8262
 3796SOL    HW212288   1.052   1.249   6.785  0.3453  0.6428 -0.0480
 3797SOL     OW12289   4.685   0.074   3.963 -0.6160  0.0314  0.1755
 3797SOL    HW112290   4.621   0.146   3.991  1.8759  2.1181  0.9293
 3797SOL    HW212291   4.681  -0.001   4.030 -1.8719  0.3364  0.4790
 3798SOL     OW12292   2.029   4.370   5.601  0.0226  0.3113 -0.0920
 3798SOL    HW112293   2.115   4.361   5.651  0.8196  1.6225 -1.1668
 3798SOL    HW212294   1.968   4.295   5.626  1.2864 -0.3725  1.0526
 3799SOL     OW12295   3.803   0.736   0.730  0.3832 -0.0688  0.6492
 3799SOL    HW112296   3.841   0.699   0.646  1.9413 -1.7001  1.9947
 3799SOL    HW212297   3.851   0.821   0.753 -0.3843  0.6525 -0.3125
 3800SOL     OW12298   0.297   2.617   1.340 -0.0333  0.5765 -0.0284
 3800SOL    HW112299   0.268   2.604   1.245  0.1243  1.3031 -0.1860
 3800SOL    HW212300   0.363   2.692   1.345 -0.2666  0.7446  0.6918
 3801SOL     OW12301   4.982   1.222   1.712 -0.2592  0.2385 -0.3774
 3801SOL    HW112302   5.025   1.307   1.743 -1.9441  0.4357  1.5629
 3801SOL    HW212303   5.050   1.148   1.715  0.5296  0.9692  0.4945
 3802SOL     OW12304   6.486   5.579   1.504  0.3139 -0.3242  0.1915
 3802SOL    HW112305   6.580   5.553   1.525  0.2929 -1.0385 -0.5662
 3802SOL    HW212306   6.428   5.497   1.506  0.1360 -0.2858 -1.6497
 3803SOL     OW12307   2.892   6.747   5.997  0.5392 -0.3087 -0.6047
 3803SOL    HW112308   2.816   6.812   5.994  1.0236  0.3584  0.7245
 3803SOL    HW212309   2.978   6.795   5.983  0.7579 -1.0604 -2.0900
 3804SOL     OW12310   2.403   3.956   0.649  0.3045  0.7247  0.1469
 3804SOL    HW112311   2.370   3.915   0.564  2.1821  0.0432 -0.2869
 3804SOL    HW212312   2.360   4.045   0.661 -0.1172  0.7642 -1.4226
 3805SOL     OW12313   2.445   6.559   1.140 -0.0870 -0.1787  0.5883
 3805SOL    HW112314   2.432   6.655   1.118  0.7294  0.0209  0.9386
 3805SOL    HW212315   2.383   6.533   1.214 -1.0574 -0.2087 -0.2155
 3806SOL     OW12316   4.342   4.419   1.050 -0.0624 -0.2612 -0.1330
 3806SOL    HW112317   4.296   4.507   1.036  1.7048  0.9476  1.2684
 3806SOL    HW212318   4.400   4.399   0.971 -1.5159 -0.9029 -1.0826
 3807SOL     OW12319   0.047   2.926   2.666  0.1468  0.1696 -0.1257
 3807SOL    HW112320   0.009   2.932   2.758 -1.2335 -3.4879 -0.2714
 3807SOL    HW212321   0.051   2.830   2.639  2.5723  0.9680 -3.0949
 3808SOL     OW12322   2.455   6.746   5.551 -0.0446 -0.2081  0.2906
 3808SOL    HW112323   2.491   6.659   5.584 -0.3983 -0.7713 -0.7698
 3808SOL    HW212324   2.375   6.772   5.605 -0.2049 -0.7725  0.3296
 3809SOL     OW12325   4.008   6.698   2.065 -0.0165  0.0857 -0.3156
 3809SOL    HW112326   4.056   6.782   2.090  0.1263 -0.1535  0.2351
 3809SOL    HW212327   3.935   6.719   2.000  1.6673  0.2751 -2.2285
 3810SOL     OW12328   0.390   6.645   1.652 -0.0886  0.1472 -0.5448
 3810SOL    HW112329   0.433   6.699   1.580  1.2376  0.1210  0.1945
 3810SOL    HW212330   0.372   6.553   1.619 -1.6361  0.7675 -1.5627
 3811SOL     OW12331   4.354   1.556   0.321  0.0632 -0.3027  0.1548
 3811SOL    HW112332   4.285   1.622   0.351 -0.9539 -0.7777 -0.9883
 3811SOL    HW212333   4.403   1.593   0.242 -0.4009 -0.8084 -0.3890
 3812SOL     OW12334   1.406   0.039   6.289  0.1641 -0.1867  0.0537
 3812SOL    HW112335   1.437  -0.018   6.365 -0.1985  0.3717  0.6238
 3812SOL    HW212336   1.414  -0.013   6.204 -1.6718 -1.6912  0.7312
 3813SOL     OW12337   6.672   1.574   2.952 -0.1237  0.0715  0.0252
 3813SOL    HW112338   6.582   1.609   2.980  0.1406  1.0612 -0.3140
 3813SOL    HW212339   6.670   1.553   2.854 -0.5433 -1.7623  0.3932
 3814SOL     OW12340   6.924   5.542   0.967  0.1106 -0.6529 -0.0128
 3814SOL    HW112341   6.994   5.528   0.897  1.7277  2.0519  0.9135
 3814SOL    HW212342   6.846   5.590   0.928  1.1341  1.1166  0.0021
 3815SOL     OW12343   4.700   4.661   5.623 -0.2632  0.1073  0.2558
 3815SOL    HW112344   4.691   4.737   5.558  1.5248  0.0625 -0.1114
 3815SOL    HW212345   4.761   4.690   5.698  0.1329 -0.8420  0.3057
 3816SOL     OW12346   2.805   4.763   3.570  0.2837 -0.6467 -1.0461
 3816SOL    HW112347   2.804   4.783   3.668  1.5210  1.8112 -1.4551
 3816SOL    HW212348   2.720   4.797   3.529  0.6003  0.0588 -1.1170
 3817SOL     OW12349   4.181   4.765   3.252  0.7201  0.0803 -0.6318
 3817SOL    HW112350   4.216   4.674   3.272 -0.3005 -0.1755  0.0920
 3817SOL    HW212351   4.249   4.817   3.202  0.9423 -1.4114 -1.9406
 3818SOL     OW12352   6.874   1.133   5.960  0.6334  0.0503 -0.3901
 3818SOL    HW112353   6.921   1.190   5.892 -0.4649  1.9290  0.3701
 3818SOL    HW212354   6.791   1.095   5.919 -1.1063  2.7827  0.3404
 3819SOL     OW12355   3.167   1.097   2.792 -0.0977 -0.4973  0.0246
 3819SOL    HW112356   3.244   1.132   2.845 -0.5729  0.8097 -0.1129
 3819SOL    HW212357   3.086   1.090   2.851 -0.5373  0.6310 -0.4226
 3820SOL     OW12358   6.086   6.998   6.362  0.3236 -0.1167  0.2337
 3820SOL    HW112359   6.060   6.911   6.320  0.5313  0.4979 -1.2486
 3820SOL    HW212360   6.129   7.056   6.293  0.7245  0.9437  1.3404
 3821SOL     OW12361   0.675   4.473   4.401  1.1635 -0.5244 -0.2266
 3821SOL    HW112362   0.636   4.520   4.322 -1.6931  0.9805  1.9104
 3821SOL    HW212363   0.678   4.374   4.383  0.4181 -0.2331 -2.1095
 3822SOL     OW12364   3.948   2.078   1.964 -0.1708  0.0866 -0.3168
 3822SOL    HW112365   3.999   2.137   1.901  0.1506  0.8852  0.6533
 3822SOL    HW212366   3.862   2.121   1.989 -0.1634 -0.0775  0.0072
 3823SOL     OW12367   6.453   5.919   2.940 -0.2062  0.4195 -0.3821
 3823SOL    HW112368   6.531   5.858   2.928  0.5882  1.7100 -2.2240
 3823SOL    HW212369   6.378   5.890   2.881  1.2916  2.8530 -3.8532
 3824SOL     OW12370   3.644   6.514   2.998  0.2364 -0.0143 -0.2627
 3824SOL    HW112371   3.559   6.566   3.005  0.6643  0.7194 -0.3825
 3824SOL    HW212372   3.720   6.572   3.027  0.7939 -0.3799 -0.9734
 3825SOL     OW12373   4.688   5.480   2.921 -0.5085 -0.6633  0.3321
 3825SOL    HW112374   4.754   5.427   2.869  0.5623  0.6031  0.3555
 3825SOL    HW212375   4.640   5.543   2.859 -1.7474 -1.5968  0.3057
 3826SOL     OW12376   6.951   1.327   5.792 -0.2108 -0.2702 -0.1180
 3826SOL    HW112377   6.853   1.347   5.797  0.2057  1.9575  0.4947
 3826SOL    HW212378   7.002   1.413   5.781  1.5940 -1.5189 -2.2892
 3827SOL     OW12379   4.711   2.548   5.644 -0.8193  0.0881  0.4427
 3827SOL    HW112380   4.698   2.522   5.740 -0.8550  0.2633  0.4850
 3827SOL    HW212381   4.667   2.636   5.627 -1.3383 -0.2343  0.1148
 3828SOL     OW12382   3.403   2.059   0.286  0.1666  0.2096  0.5018
 3828SOL    HW112383   3.334   1.986   0.286 -0.3937  0.7237  1.1291
 3828SOL    HW212384   3.358   2.147   0.267  0.7766  0.4509  0.1515
 3829SOL     OW12385   6.072   5.512   5.622  0.4738  0.1499  0.3288
 3829SOL    HW112386   6.068   5.481   5.527  0.5633  2.0679 -0.3379
 3829SOL    HW212387   6.146   5.464   5.670  0.1029 -1.2066 -0.4011
 3830SOL     OW12388   1.483   5.359   1.458 -0.0244 -0.1165 -0.0379
 3830SOL    HW112389   1.485   5.331   1.554 -0.0998 -0.3915 -0.1172
 3830SOL    HW212390   1.536   5.294   1.404 -2.9198 -2.0239 -0.7420
 3831SOL     OW12391   2.632   5.292   0.922 -0.0869 -0.0644 -0.1955
 3831SOL    HW112392   2.548   5.340   0.947 -0.0565  0.1571 -0.5118
 3831SOL    HW212393   2.711   5.349   0.943  0.0772 -0.8691  1.5091
 3832SOL     OW12394   4.628   0.074   0.315  0.2287 -0.6472  0.1096
 3832SOL    HW112395   4.686   0.150   0.343  0.5272 -0.1210 -1.8228
 3832SOL    HW212396   4.564   0.104   0.245 -0.9974 -1.7282  0.7206
 3833SOL     OW12397   3.763   2.356   5.571 -0.2608 -0.2539 -0.3729
 3833SOL    HW112398   3.685   2.302   5.539 -0.0564 -2.1548  2.0953
 3833SOL    HW212399   3.826   2.298   5.622  1.7589  1.6664 -0.5225
 3834SOL     OW12400   2.164   2.930   0.437  0.2074 -0.2694  1.3010
 3834SOL    HW112401   2.074   2.973   0.447  0.8727  1.2701  0.9926
 3834SOL    HW212402   2.219   2.982   0.372  0.1424 -3.1850 -1.3051
 3835SOL     OW12403   6.402   4.043   0.029  0.0262 -0.5143  0.6088
 3835SOL    HW112404   6.384   4.134   0.066  1.7935  0.3733 -0.5556
 3835SOL    HW212405   6.326   3.982   0.051 -1.2219  1.2346  1.3823
 3836SOL     OW12406   1.390   3.924   1.016  0.4306  0.4937 -0.2715
 3836SOL    HW112407   1.469   3.953   1.070 -0.6775  2.3874  0.4367
 3836SOL    HW212408   1.307   3.934   1.071 -0.5835  1.1316 -1.8549
 3837SOL     OW12409   4.806   6.345   4.288  0.3388  0.3730  0.5640
 3837SOL    HW112410   4.873   6.367   4.217  1.0222  2.5767  1.8003
 3837SOL    HW212411   4.724   6.401   4.275 -2.0769 -3.2099 -1.7373
 3838SOL     OW12412   5.783   1.110   5.627  0.0272  0.3614  0.1651
 3838SOL    HW112413   5.787   1.159   5.540  1.0412  1.1127  0.6100
 3838SOL    HW212414   5.737   1.166   5.695  0.9264  0.5917  0.5996
 3839SOL     OW12415   2.966   5.883   4.228  0.4586  0.4241 -0.0324
 3839SOL    HW112416   2.870   5.905   4.213  0.2505 -1.7634 -2.6617
 3839SOL    HW212417   3.023   5.959   4.196 -0.3313  1.4316  0.8737
 3840SOL     OW12418   6.174   0.989   0.785 -0.2617  0.7357  0.1334
 3840SOL    HW112419   6.106   0.916   0.780 -0.7254  1.2078 -0.5793
 3840SOL    HW212420   6.249   0.961   0.845 -0.3722 -0.3662 -0.2380
 3841SOL     OW12421   1.017   1.404   0.053 -0.0919 -0.1075 -0.2592
 3841SOL    HW112422   0.996   1.308   0.066 -0.5631  0.2079  1.6324
 3841SOL    HW212423   1.114   1.415   0.032 -0.4079 -1.0995 -2.4086
 3842SOL     OW12424   6.552   3.520   2.770  0.2709 -0.3863  0.2598
 3842SOL    HW112425   6.567   3.473   2.857 -0.9489 -0.2120  0.5760
 3842SOL    HW212426   6.506   3.459   2.706  1.4394 -0.6181 -0.3947
 3843SOL     OW12427   3.857   1.724   2.811  0.1792 -0.2987  0.2111
 3843SOL    HW112428   3.858   1.795   2.741 -0.9656 -0.0421  0.4328
 3843SOL    HW212429   3.853   1.634   2.768 -0.6363 -0.1383 -0.0700
 3844SOL     OW12430   1.276   0.948   1.075 -0.1293 -0.3847 -0.1978
 3844SOL    HW112431   1.365   0.994   1.075  0.0566 -0.7348 -0.8650
 3844SOL    HW212432   1.266   0.893   0.992 -1.6192  0.8886 -0.9143
 3845SOL     OW12433   0.437   3.738   1.975 -0.1841 -0.9505  0.7368
 3845SOL    HW112434   0.389   3.699   1.896 -0.1403  0.4106  0.0074
 3845SOL    HW212435   0.376   3.738   2.054 -0.0966 -2.6977  0.8401
 3846SOL     OW12436   1.537   2.331   5.158 -0.0172 -0.0312  0.0244
 3846SOL    HW112437   1.581   2.290   5.238  1.3986  2.6230  0.7058
 3846SOL    HW212438   1.446   2.364   5.183 -0.5308 -1.2842 -0.1217
 3847SOL     OW12439   4.565   5.617   4.491  0.0761  0.4273  0.9588
 3847SOL    HW112440   4.590   5.565   4.409 -0.3517  1.5324  0.0997
 3847SOL    HW212441   4.591   5.565   4.572  2.5644  0.2487  0.1467
 3848SOL     OW12442   1.775   5.449   4.756  0.7076 -0.4812  0.8590
 3848SOL    HW112443   1.683   5.413   4.738  0.9569 -0.3186 -0.8295
 3848SOL    HW212444   1.778   5.547   4.733  1.8544 -0.9571 -1.2437
 3849SOL     OW12445   0.125   3.582   1.124  0.2026 -0.6754 -0.0080
 3849SOL    HW112446   0.150   3.628   1.039  0.2863 -1.6743 -0.5402
 3849SOL    HW212447   0.027   3.561   1.124  0.1386 -0.3784  0.2894
 3850SOL     OW12448   2.734   0.405   5.819  0.0281  0.0907 -0.1738
 3850SOL    HW112449   2.681   0.332   5.775  0.9277 -0.5106 -0.2907
 3850SOL    HW212450   2.832   0.384   5.812  0.3246  1.4605 -0.4738
 3851SOL     OW12451   0.345   5.114   3.319 -0.7221  0.1228  0.5405
 3851SOL    HW112452   0.268   5.065   3.279 -0.8460  0.8410 -0.1330
 3851SOL    HW212453   0.335   5.212   3.301  1.4962  0.0594 -1.5907
 3852SOL     OW12454   2.058   4.246   0.498 -0.0769 -0.6060 -0.4708
 3852SOL    HW112455   1.962   4.220   0.506  0.1157 -1.3184 -0.3768
 3852SOL    HW212456   2.066   4.345   0.493 -0.7658 -0.5084  0.2585
 3853SOL     OW12457   0.422   4.582   5.355  0.3071 -0.4131  0.1922
 3853SOL    HW112458   0.415   4.581   5.255 -0.2774 -0.7316  0.2306
 3853SOL    HW212459   0.514   4.611   5.382  1.1511 -2.3190 -0.4630
 3854SOL     OW12460   1.119   5.803   3.449  0.2922 -0.6856  0.2619
 3854SOL    HW112461   1.178   5.879   3.422  0.4203 -0.5511  0.9014
 3854SOL    HW212462   1.150   5.766   3.536 -0.7057 -0.4513  0.7334
 3855SOL     OW12463   4.439   5.460   3.840 -0.4051  0.1942 -0.5481
 3855SOL    HW112464   4.401   5.396   3.906 -1.1133  0.3888 -0.7509
 3855SOL    HW212465   4.515   5.511   3.881 -0.1411 -0.4432 -0.2407
 3856SOL     OW12466   5.738   0.547   4.402 -0.3802 -0.1879  0.0001
 3856SOL    HW112467   5.643   0.558   4.372  0.1080  0.7875 -1.3007
 3856SOL    HW212468   5.775   0.461   4.365  0.1991  0.9767 -2.2952
 3857SOL     OW12469   6.840   0.961   2.578  0.7231  0.0720 -0.3935
 3857SOL    HW112470   6.865   0.869   2.547  0.4605 -0.0781 -0.1725
 3857SOL    HW212471   6.768   0.954   2.647 -0.7479  0.5289 -1.8217
 3858SOL     OW12472   0.671   0.944   4.715 -0.2841 -0.5359 -0.3041
 3858SOL    HW112473   0.728   1.021   4.743  0.2418 -1.5673  1.5808
 3858SOL    HW212474   0.725   0.883   4.656  0.4362 -1.2383  1.0463
 3859SOL     OW12475   5.635   4.083   4.996 -0.4808 -0.4914 -0.0700
 3859SOL    HW112476   5.539   4.059   4.979 -0.1261 -1.5613 -0.6817
 3859SOL    HW212477   5.689   4.064   4.914  0.0939  1.1200 -0.0950
 3860SOL     OW12478   6.714   4.280   2.246 -0.8492  0.3059  0.2826
 3860SOL    HW112479   6.721   4.380   2.242 -0.3761  0.2635  0.0091
 3860SOL    HW212480   6.620   4.253   2.228 -1.1447  0.7388  1.0950
 3861SOL     OW12481   6.404   5.742   6.977 -0.0226  0.0755 -0.3394
 3861SOL    HW112482   6.469   5.817   6.965 -0.6142  0.7483  0.5255
 3861SOL    HW212483   6.433   5.684   7.054  0.4670 -0.6289 -1.0453
 3862SOL     OW12484   4.932   1.553   4.640  0.2203 -0.4000 -0.1761
 3862SOL    HW112485   4.928   1.554   4.540  1.4426 -0.8676 -0.2513
 3862SOL    HW212486   4.968   1.465   4.672  3.1644  0.8724  0.4506
 3863SOL     OW12487   1.516   0.393   4.046 -0.1995  0.2614  0.6398
 3863SOL    HW112488   1.477   0.335   3.974 -0.1736  1.5930 -0.4849
 3863SOL    HW212489   1.582   0.340   4.099  0.3716 -0.5563 -0.8270
 3864SOL     OW12490   5.851   6.713   0.951 -0.0860 -0.6967 -0.7076
 3864SOL    HW112491   5.807   6.782   0.894  1.0451  0.5836 -0.0843
 3864SOL    HW212492   5.788   6.686   1.025  0.3930  1.7814  0.7207
 3865SOL     OW12493   6.673   5.919   0.848 -0.1577  0.4819  0.0745
 3865SOL    HW112494   6.723   6.005   0.861  0.4397 -0.1254  2.2777
 3865SOL    HW212495   6.578   5.931   0.878 -0.8333  1.0570 -2.1372
 3866SOL     OW12496   4.843   0.275   5.440 -0.6619 -0.4746 -0.4556
 3866SOL    HW112497   4.866   0.275   5.343 -1.6081  0.0859 -0.6847
 3866SOL    HW212498   4.768   0.211   5.457 -2.8239  1.8448 -0.6972
 3867SOL     OW12499   5.515   4.047   4.733 -0.3886  0.0885 -0.4470
 3867SOL    HW112500   5.433   4.046   4.675 -0.7885  3.5571 -0.1935
 3867SOL    HW212501   5.594   4.070   4.676  0.3469 -2.3477 -0.5252
 3868SOL     OW12502   2.027   2.460   3.580 -0.1545 -0.1027 -0.4113
 3868SOL    HW112503   1.946   2.459   3.522 -0.1645 -0.4760 -0.3944
 3868SOL    HW212504   2.000   2.444   3.675 -0.1340  0.4633 -0.3060
 3869SOL     OW12505   2.244   4.573   2.910 -0.0727  0.2197  0.2641
 3869SOL    HW112506   2.152   4.592   2.945 -0.5504  0.5286 -1.0876
 3869SOL    HW212507   2.289   4.659   2.886 -0.0279  0.0033 -0.4776
 3870SOL     OW12508   6.891   1.258   4.932  0.2473  0.0696 -0.0434
 3870SOL    HW112509   6.976   1.261   4.985 -0.3834  2.5992  1.0058
 3870SOL    HW212510   6.903   1.199   4.853  2.5357 -0.6974  0.7898
 3871SOL     OW12511   2.090   1.046   6.071 -0.0455  0.0631 -0.0587
 3871SOL    HW112512   2.127   1.139   6.082 -0.3947  0.5511 -2.3813
 3871SOL    HW212513   2.034   1.043   5.988  1.7922 -2.7690 -1.3269
 3872SOL     OW12514   5.216   1.159   3.645 -0.6028 -0.2414  0.0914
 3872SOL    HW112515   5.138   1.218   3.663 -1.4908 -0.4540 -2.5565
 3872SOL    HW212516   5.195   1.065   3.673  0.0775  0.2669  2.5166
 3873SOL     OW12517   4.781   2.015   0.395  0.6069 -0.1462  0.2972
 3873SOL    HW112518   4.781   2.064   0.307 -0.5849 -1.0263 -0.2281
 3873SOL    HW212519   4.778   2.082   0.470 -1.3993  0.6402 -0.4048
 3874SOL     OW12520   2.321   1.869   4.068  0.0096 -0.1566 -0.5734
 3874SOL    HW112521   2.388   1.871   3.994  1.5787 -1.1105  0.7662
 3874SOL    HW212522   2.332   1.951   4.125 -0.3379 -0.0445 -0.6664
 3875SOL     OW12523   4.235   0.554   2.366 -0.1164 -0.1508 -0.1097
 3875SOL    HW112524   4.237   0.481   2.297 -0.3142 -0.6723  0.4286
 3875SOL    HW212525   4.165   0.621   2.340 -0.8019 -0.7969  0.0230
 3876SOL     OW12526   5.670   2.349   4.032  0.2548  0.3449  0.2292
 3876SOL    HW112527   5.770   2.341   4.025  0.3135  0.1623  1.1904
 3876SOL    HW212528   5.628   2.273   3.982  0.6079  0.1685  0.1931
 3877SOL     OW12529   0.378   0.447   3.433  0.3726  0.6436  0.4768
 3877SOL    HW112530   0.309   0.492   3.491  0.7400 -0.4027  1.7801
 3877SOL    HW212531   0.415   0.513   3.368 -1.4927  1.3617  0.0668
 3878SOL     OW12532   5.594   2.458   6.673 -0.3820  0.1971  0.1139
 3878SOL    HW112533   5.596   2.459   6.573 -1.2908 -0.7196  0.0689
 3878SOL    HW212534   5.545   2.538   6.706  0.3868  0.7833 -0.1493
 3879SOL     OW12535   4.834   1.764   1.023 -0.1279 -0.0007 -0.0871
 3879SOL    HW112536   4.808   1.860   1.016  1.7065  0.4783 -1.0490
 3879SOL    HW212537   4.753   1.708   1.039 -1.5400  1.4951 -1.6143
 3880SOL     OW12538   1.733   6.111   5.706  0.6251  0.7492 -0.6513
 3880SOL    HW112539   1.799   6.036   5.699  0.8481  1.0535 -2.5645
 3880SOL    HW212540   1.777   6.191   5.747  0.5881  0.0706  0.7428
 3881SOL     OW12541   5.163   5.749   6.552 -0.9640 -0.3663  0.2944
 3881SOL    HW112542   5.167   5.824   6.619  0.0829  1.3182 -1.5554
 3881SOL    HW212543   5.231   5.680   6.575  0.1496  0.7293  0.4001
 3882SOL     OW12544   3.736   6.224   4.445  0.6502  0.1818 -0.4277
 3882SOL    HW112545   3.824   6.195   4.484  0.6444 -1.3836 -1.5047
 3882SOL    HW212546   3.722   6.179   4.357 -0.4770  1.7228 -1.0811
 3883SOL     OW12547   0.805   4.668   0.711 -0.1547 -0.7017  0.1790
 3883SOL    HW112548   0.779   4.585   0.662 -1.2940 -0.8740  1.0572
 3883SOL    HW212549   0.900   4.691   0.687 -0.8007 -0.4608 -2.5178
 3884SOL     OW12550   2.317   6.322   6.846 -0.2095  0.2293  0.4421
 3884SOL    HW112551   2.413   6.331   6.872 -0.0541  0.3193 -0.1526
 3884SOL    HW212552   2.310   6.263   6.765 -0.5241  1.4093 -0.4113
 3885SOL     OW12553   5.161   5.955   6.754 -0.2642  0.1226  0.1491
 3885SOL    HW112554   5.241   5.981   6.808  0.7043  1.0037 -1.6144
 3885SOL    HW212555   5.085   6.015   6.778  0.1376  0.4810  0.5693
 3886SOL     OW12556   1.513   3.368   5.209  0.3190  0.4170 -0.5163
 3886SOL    HW112557   1.510   3.465   5.182  0.1514 -0.2535 -3.1731
 3886SOL    HW212558   1.592   3.353   5.269  0.7484  2.0638 -0.6031
 3887SOL     OW12559   0.061   6.817   4.358 -0.1728  0.0147  0.5080
 3887SOL    HW112560   0.103   6.864   4.436  1.7808  0.4569 -0.7152
 3887SOL    HW212561   0.035   6.884   4.289  0.2969 -0.5037 -0.1915
 3888SOL     OW12562   2.525   5.584   4.797  0.8245 -0.4535 -0.2999
 3888SOL    HW112563   2.454   5.611   4.863  0.6163 -1.9738  0.1468
 3888SOL    HW212564   2.607   5.640   4.812  0.2892  0.1985  0.2920
 3889SOL     OW12565   2.978   2.066   1.991 -0.2681  0.0566 -0.1063
 3889SOL    HW112566   2.930   2.065   1.904 -1.7675 -0.9909  0.6685
 3889SOL    HW212567   2.953   2.148   2.042 -0.8440 -0.2233  0.0725
 3890SOL     OW12568   2.514   6.721   6.803  0.7407  0.5867 -0.0421
 3890SOL    HW112569   2.582   6.732   6.875  0.3760  0.4241  0.3308
 3890SOL    HW212570   2.433   6.674   6.839 -0.0204  1.7371 -0.1826
 3891SOL     OW12571   6.788   4.533   3.553  0.4404 -0.4772 -0.1573
 3891SOL    HW112572   6.790   4.435   3.534  1.3410 -0.4551 -0.2373
 3891SOL    HW212573   6.704   4.556   3.602  1.0453 -1.6068  1.5226
 3892SOL     OW12574   4.274   5.809   0.288 -0.4112 -0.1830 -0.0119
 3892SOL    HW112575   4.304   5.719   0.255 -0.1959 -0.8268  1.8502
 3892SOL    HW212576   4.251   5.803   0.385  2.1672  2.3566  0.8937
 3893SOL     OW12577   4.233   0.367   2.642  0.4607 -0.2034  0.2125
 3893SOL    HW112578   4.178   0.384   2.560 -0.6636 -0.6390  0.8537
 3893SOL    HW212579   4.303   0.438   2.650 -0.5516  0.8775 -0.1644
 3894SOL     OW12580   2.699   5.925   5.620  0.1507 -0.3613  0.0697
 3894SOL    HW112581   2.623   5.884   5.569  0.3146 -0.5939  0.0115
 3894SOL    HW212582   2.710   5.878   5.708 -0.3206  0.2305  0.4507
 3895SOL     OW12583   3.891   0.557   2.365  0.1619 -0.0541  0.5506
 3895SOL    HW112584   3.955   0.632   2.353  0.9593 -0.9303 -0.9646
 3895SOL    HW212585   3.810   0.573   2.308 -0.0220  0.0297  0.8334
 3896SOL     OW12586   2.278   0.694   0.982 -0.0458  0.2468  0.2144
 3896SOL    HW112587   2.264   0.634   0.903  1.1977  0.0253  0.1394
 3896SOL    HW212588   2.254   0.644   1.066 -0.6167  0.2173  0.0370
 3897SOL     OW12589   1.671   0.306   2.709  0.5740  0.0384 -0.0828
 3897SOL    HW112590   1.656   0.207   2.701  1.5137 -0.0285 -1.3554
 3897SOL    HW212591   1.647   0.336   2.801 -0.0249 -1.3225  0.2288
 3898SOL     OW12592   6.000   3.844   6.385 -0.1983 -0.0043  0.0330
 3898SOL    HW112593   5.921   3.819   6.441  0.7281  0.7278  1.7639
 3898SOL    HW212594   6.067   3.770   6.386  1.1258  1.0952  2.4816
 3899SOL     OW12595   3.846   6.044   4.697  0.5784  0.6513  0.5429
 3899SOL    HW112596   3.812   5.978   4.765 -1.3299 -0.0559 -1.0141
 3899SOL    HW212597   3.946   6.043   4.698  0.6104  0.2647  2.9340
 3900SOL     OW12598   5.723   0.621   3.368 -0.1139  0.3805  0.4744
 3900SOL    HW112599   5.647   0.564   3.340  0.3579 -0.6312  1.1944
 3900SOL    HW212600   5.729   0.701   3.308  0.1359 -1.0794 -1.5272
 3901SOL     OW12601   6.489   6.143   0.457 -0.5909 -0.2926  0.1090
 3901SOL    HW112602   6.397   6.113   0.431 -0.6239  1.2603 -1.8077
 3901SOL    HW212603   6.555   6.115   0.388  0.0581  0.2785  0.4784
 3902SOL     OW12604   1.398   2.776   3.948  0.1655 -0.5673  0.3851
 3902SOL    HW112605   1.472   2.741   3.891 -0.1070  0.0404 -0.3592
 3902SOL    HW212606   1.312   2.771   3.899  0.1363  1.2645  0.1598
 3903SOL     OW12607   4.489   6.350   1.852  0.5107 -0.3164  0.7343
 3903SOL    HW112608   4.585   6.355   1.825 -0.1365 -0.0760 -1.8200
 3903SOL    HW212609   4.482   6.313   1.945  2.9381 -3.1607 -0.0623
 3904SOL     OW12610   2.162   5.496   2.256 -0.6597  0.4061  0.0718
 3904SOL    HW112611   2.181   5.428   2.186  0.7650 -1.1171  1.8539
 3904SOL    HW212612   2.097   5.459   2.322  0.5130  0.5368  1.3429
 3905SOL     OW12613   6.413   1.684   3.026  0.1466  0.3971  0.2389
 3905SOL    HW112614   6.393   1.780   3.045 -1.5231  0.5191 -1.7603
 3905SOL    HW212615   6.330   1.630   3.039  1.1275 -0.8744  1.5998
 3906SOL     OW12616   0.776   3.866   4.234  0.1446 -0.2658  0.4159
 3906SOL    HW112617   0.800   3.814   4.152 -0.7085 -0.2975  0.1787
 3906SOL    HW212618   0.773   3.804   4.312 -0.1195 -0.4347  0.2721
 3907SOL     OW12619   0.702   0.508   2.432 -0.2804  0.0743 -0.1131
 3907SOL    HW112620   0.604   0.498   2.453 -0.6634  0.7496 -1.4506
 3907SOL    HW212621   0.753   0.523   2.517 -0.9972 -2.5638  0.8920
 3908SOL     OW12622   3.836   3.779   3.326  0.3186  0.1751  0.1535
 3908SOL    HW112623   3.920   3.751   3.373 -0.4297 -0.6152  1.0690
 3908SOL    HW212624   3.760   3.779   3.391 -0.2879  1.4689 -0.5216
 3909SOL     OW12625   0.641   6.905   3.108  0.3813 -0.8331  0.4436
 3909SOL    HW112626   0.707   6.973   3.076 -0.7290  0.0116 -0.1205
 3909SOL    HW212627   0.590   6.868   3.030 -1.5442  0.3859  1.0419
 3910SOL     OW12628   6.873   1.875   3.382 -0.1287  0.7530  0.1208
 3910SOL    HW112629   6.842   1.960   3.425 -1.5355  0.6978 -0.7363
 3910SOL    HW212630   6.863   1.882   3.283  1.6711  0.3157 -0.1373
 3911SOL     OW12631   5.378   5.580   3.670 -0.2772 -0.7220 -0.0394
 3911SOL    HW112632   5.456   5.629   3.709 -1.1008 -1.3730  2.5786
 3911SOL    HW212633   5.294   5.630   3.688 -0.8984 -2.0266  0.8427
 3912SOL     OW12634   4.904   2.203   0.164 -0.2788 -0.2331  0.1857
 3912SOL    HW112635   4.943   2.291   0.135 -0.9087 -0.3322 -1.0139
 3912SOL    HW212636   4.971   2.155   0.221  1.6378 -0.6056 -2.1737
 3913SOL     OW12637   4.500   4.709   4.638 -0.5108 -0.2751 -0.6730
 3913SOL    HW112638   4.577   4.717   4.702 -0.2435  1.1953 -1.1348
 3913SOL    HW212639   4.518   4.635   4.574  0.2654 -0.3222 -0.4152
 3914SOL     OW12640   6.081   6.821   4.112  0.3076 -0.0610  0.2130
 3914SOL    HW112641   6.057   6.729   4.143  1.6037  0.0600  1.7547
 3914SOL    HW212642   6.107   6.876   4.192  0.5405  1.3385 -0.7994
 3915SOL     OW12643   4.362   1.289   6.036 -0.0193  0.6940  0.0500
 3915SOL    HW112644   4.306   1.359   5.990 -1.0346 -1.4947 -2.3310
 3915SOL    HW212645   4.313   1.254   6.116 -1.1170  0.3274 -0.7559
 3916SOL     OW12646   3.371   1.466   4.830 -0.1119 -0.0272  0.2040
 3916SOL    HW112647   3.376   1.442   4.927  0.3628  1.1509  0.4863
 3916SOL    HW212648   3.429   1.545   4.812  1.3376 -1.3458 -1.4089
 3917SOL     OW12649   2.539   5.442   1.182  0.2471  0.1490  0.2255
 3917SOL    HW112650   2.448   5.421   1.218  0.3047 -0.8739 -0.2009
 3917SOL    HW212651   2.599   5.363   1.193  1.1234  0.8489  0.5974
 3918SOL     OW12652   0.680   1.662   0.773 -0.4519 -0.3729 -0.1612
 3918SOL    HW112653   0.678   1.623   0.681  0.0374 -0.2951 -0.2067
 3918SOL    HW212654   0.693   1.589   0.840  0.2384 -0.3186 -0.2304
 3919SOL     OW12655   3.964   0.437   3.995  0.2504  0.1347  0.2156
 3919SOL    HW112656   3.920   0.399   3.913  0.4494 -0.9143  0.5751
 3919SOL    HW212657   3.894   0.472   4.058  0.0054 -0.3195  0.2021
 3920SOL     OW12658   0.896   5.976   3.588 -0.2042 -0.1740 -0.4665
 3920SOL    HW112659   0.964   5.926   3.535 -1.4535 -1.8393 -0.5842
 3920SOL    HW212660   0.809   5.976   3.539 -0.6320  0.8457  0.2483
 3921SOL     OW12661   5.306   3.916   3.154 -0.3518 -0.9924 -0.4910
 3921SOL    HW112662   5.357   3.833   3.135 -1.8871 -1.7836 -1.3585
 3921SOL    HW212663   5.209   3.894   3.165 -0.6100  0.5149  0.6178
 3922SOL     OW12664   0.825   5.016   0.442  0.0172 -0.2927  0.6699
 3922SOL    HW112665   0.733   4.981   0.428  0.2298 -0.6691  0.1572
 3922SOL    HW212666   0.890   4.958   0.392  0.4693  0.2959  0.5682
 3923SOL     OW12667   6.963   5.717   3.868  0.9446  0.2988 -0.0609
 3923SOL    HW112668   6.952   5.647   3.939 -2.0828  1.9859  1.3303
 3923SOL    HW212669   6.929   5.681   3.781  1.3437 -0.6031  0.1414
 3924SOL     OW12670   0.187   0.740   5.181 -0.3671 -0.2341 -0.1174
 3924SOL    HW112671   0.144   0.658   5.142 -0.6463  0.0999 -0.5175
 3924SOL    HW212672   0.124   0.817   5.174  0.1014  0.1397 -0.2384
 3925SOL     OW12673   4.809   5.428   3.439 -0.2857 -0.4116 -0.0473
 3925SOL    HW112674   4.745   5.369   3.390 -0.8956 -0.7368  1.0936
 3925SOL    HW212675   4.783   5.432   3.535  3.2044 -3.1270  1.2131
 3926SOL     OW12676   5.358   4.519   3.101  0.2631  0.2230 -0.0983
 3926SOL    HW112677   5.358   4.419   3.113 -0.3325  0.1409 -0.7302
 3926SOL    HW212678   5.355   4.563   3.190 -0.0417 -0.3278  0.1704
 3927SOL     OW12679   2.914   1.509   6.513 -0.3809 -0.4729  0.5990
 3927SOL    HW112680   2.856   1.587   6.537  0.4912  0.2988  0.2594
 3927SOL    HW212681   2.863   1.424   6.527 -1.0384  0.1060  1.8699
 3928SOL     OW12682   0.167   4.561   4.942  0.0273  0.1862 -0.0140
 3928SOL    HW112683   0.183   4.476   4.893  1.5958  0.8504 -0.7167
 3928SOL    HW212684   0.209   4.637   4.893  0.5677  1.0636  1.6986
 3929SOL     OW12685   5.945   0.828   4.864 -0.2622  0.2812 -0.2830
 3929SOL    HW112686   5.886   0.816   4.784 -0.7231  1.0828 -0.0757
 3929SOL    HW212687   5.889   0.843   4.945  0.2169  1.8796 -0.2140
 3930SOL     OW12688   6.286   6.434   0.420 -0.0299  0.0649 -0.3302
 3930SOL    HW112689   6.283   6.344   0.375 -1.3272  0.5405 -1.2387
 3930SOL    HW212690   6.222   6.435   0.497  1.2499 -0.3226  0.7877
 3931SOL     OW12691   2.406   5.097   4.361 -0.3619  0.0339  0.0516
 3931SOL    HW112692   2.457   5.183   4.359 -1.1864  0.5570  0.7011
 3931SOL    HW212693   2.412   5.057   4.453 -0.2126 -0.4604 -0.1731
 3932SOL     OW12694   5.446   3.539   1.254  0.0571  0.0611 -0.4545
 3932SOL    HW112695   5.358   3.522   1.298  0.2786 -0.9408 -0.3748
 3932SOL    HW212696   5.492   3.615   1.301 -1.0356  1.0242 -0.9194
 3933SOL     OW12697   1.132   2.734   1.516  0.2217  0.3192  0.3519
 3933SOL    HW112698   1.185   2.814   1.490 -1.5679  0.6713 -2.6787
 3933SOL    HW212699   1.081   2.700   1.437 -1.0647 -2.3176  2.1436
 3934SOL     OW12700   1.469   6.480   0.930 -0.4498 -0.1865 -0.1229
 3934SOL    HW112701   1.492   6.549   0.999 -0.4214 -0.0828 -0.2357
 3934SOL    HW212702   1.514   6.393   0.954  2.2675  0.6609 -1.7004
 3935SOL     OW12703   6.291   5.784   2.723 -0.1512  0.3455 -0.0792
 3935SOL    HW112704   6.206   5.807   2.677 -0.2441  1.5761  0.6584
 3935SOL    HW212705   6.367   5.792   2.659 -0.6813 -1.8248 -1.0277
 3936SOL     OW12706   4.973   6.319   4.039  0.3582 -0.2019  0.2855
 3936SOL    HW112707   4.986   6.391   3.971  0.3693 -1.1217 -0.7122
 3936SOL    HW212708   5.061   6.285   4.070  0.3518 -0.0683  0.4501
 3937SOL     OW12709   0.625   1.124   3.356  0.1952 -0.1157 -0.1124
 3937SOL    HW112710   0.596   1.086   3.444 -1.5532  0.2957 -0.4632
 3937SOL    HW212711   0.666   1.214   3.370  0.5618 -0.3475  0.3356
 3938SOL     OW12712   3.386   2.404   1.711 -0.4710  0.0549 -0.5180
 3938SOL    HW112713   3.456   2.385   1.779  1.2045 -2.3279 -2.6918
 3938SOL    HW212714   3.397   2.496   1.676 -0.0746  0.5839  0.9350
 3939SOL     OW12715   1.064   1.122   1.146  0.6382  1.0664 -0.7514
 3939SOL    HW112716   1.141   1.068   1.112  0.8852  0.5764  0.5300
 3939SOL    HW212717   1.099   1.198   1.201  0.2231  1.2760 -0.7740
 3940SOL     OW12718   2.637   1.854   1.122  0.4262  0.3808  0.0657
 3940SOL    HW112719   2.666   1.946   1.094 -1.6228  0.4721 -2.0862
 3940SOL    HW212720   2.703   1.786   1.090  0.4670  0.8910 -0.9699
 3941SOL     OW12721   3.648   2.939   2.704 -0.3525 -0.4481 -0.1336
 3941SOL    HW112722   3.612   2.884   2.780 -1.0351 -0.9891 -0.8408
 3941SOL    HW212723   3.733   2.983   2.733 -0.7408 -0.4314  1.0320
 3942SOL     OW12724   0.408   4.223   3.384 -0.0274 -0.4694  0.8861
 3942SOL    HW112725   0.338   4.235   3.314  1.1339 -0.7420 -0.3591
 3942SOL    HW212726   0.414   4.307   3.439  0.0836  0.3464 -0.3298
 3943SOL     OW12727   0.235   2.730   5.512  0.4557 -0.4204 -0.6831
 3943SOL    HW112728   0.313   2.793   5.507  0.1563  0.0293  0.1413
 3943SOL    HW212729   0.256   2.647   5.461  2.3453 -1.2502  1.3026
 3944SOL     OW12730   2.856   2.582   5.645 -0.2401  0.4540  0.2021
 3944SOL    HW112731   2.810   2.593   5.556  0.6475  0.5168 -0.2614
 3944SOL    HW212732   2.909   2.665   5.665 -0.5635  0.5023  0.8676
 3945SOL     OW12733   5.753   2.048   6.493  0.1769 -0.1261 -0.2908
 3945SOL    HW112734   5.765   2.143   6.467 -2.1570  0.4758  0.6186
 3945SOL    HW212735   5.805   1.989   6.431  0.9064  1.6565 -1.4365
 3946SOL     OW12736   4.699   0.157   6.047  0.5534 -0.3557 -0.0044
 3946SOL    HW112737   4.734   0.165   5.953 -0.7510 -0.5561 -0.5213
 3946SOL    HW212738   4.736   0.074   6.089  1.8472  0.1840 -0.0058
 3947SOL     OW12739   0.538   5.753   3.246  0.1909  0.1320  0.2313
 3947SOL    HW112740   0.449   5.710   3.232  0.4309 -0.6525  0.9977
 3947SOL    HW212741   0.598   5.733   3.169  0.7963 -2.2726  1.2096
 3948SOL     OW12742   2.464   4.429   4.030 -0.4336 -0.0795 -0.0326
 3948SOL    HW112743   2.559   4.435   3.997  0.1944  0.7595  1.8158
 3948SOL    HW212744   2.422   4.520   4.027 -0.5752 -0.1090  0.8018
 3949SOL     OW12745   5.952   4.327   3.258 -0.3200 -0.5324 -0.1534
 3949SOL    HW112746   5.934   4.385   3.179 -1.3279 -3.1437 -1.9791
 3949SOL    HW212747   6.051   4.322   3.273 -0.1558  0.6236 -0.7601
 3950SOL     OW12748   5.263   3.213   4.857  0.0046 -0.4180 -0.6756
 3950SOL    HW112749   5.300   3.151   4.788  0.8587 -1.4481  0.6742
 3950SOL    HW212750   5.241   3.162   4.940  2.0943  1.2597  1.0193
 3951SOL     OW12751   1.049   3.781   1.615  1.1076 -0.1386  0.3463
 3951SOL    HW112752   0.951   3.784   1.600  0.9296 -0.1189  1.4135
 3951SOL    HW212753   1.074   3.694   1.657  1.4721  0.0370  0.5005
 3952SOL     OW12754   3.836   5.259   0.024  0.4119 -0.1520 -0.4957
 3952SOL    HW112755   3.834   5.183   0.090  1.6121 -0.0728 -0.3431
 3952SOL    HW212756   3.866   5.342   0.071 -0.7355  0.3897 -0.7017
 3953SOL     OW12757   5.078   3.783   3.224  0.0884 -0.5343 -0.3079
 3953SOL    HW112758   5.132   3.730   3.289  0.4315  0.3549  0.1474
 3953SOL    HW212759   5.030   3.856   3.272 -0.3472 -0.4102 -0.9268
 3954SOL     OW12760   5.712   0.865   1.252  0.3166  0.4599 -0.2859
 3954SOL    HW112761   5.616   0.837   1.241  0.1859 -0.0737  1.7799
 3954SOL    HW212762   5.761   0.795   1.304  1.8852  0.6689 -1.4159
 3955SOL     OW12763   4.684   4.681   0.375 -0.0617 -0.4420  0.7286
 3955SOL    HW112764   4.702   4.583   0.377  0.3692 -0.4913 -1.7538
 3955SOL    HW212765   4.594   4.697   0.334 -0.2849  0.1952  1.4586
 3956SOL     OW12766   6.066   5.489   3.099 -0.0244  0.6864 -0.2696
 3956SOL    HW112767   6.095   5.543   3.020  0.2544  1.7421  0.5403
 3956SOL    HW212768   5.974   5.515   3.126  0.4591  1.4566  0.6987
 3957SOL     OW12769   6.495   6.664   1.919  0.3247 -0.1518 -0.2253
 3957SOL    HW112770   6.593   6.680   1.904  0.5213 -0.1683  0.9496
 3957SOL    HW212771   6.454   6.747   1.957 -0.2080 -0.0216 -1.0547
 3958SOL     OW12772   1.116   5.766   5.224 -0.1998 -0.4943  0.1551
 3958SOL    HW112773   1.162   5.815   5.298 -0.4198 -1.1202  0.7312
 3958SOL    HW212774   1.095   5.673   5.255  0.7925 -1.1761 -1.1214
 3959SOL     OW12775   3.997   3.971   5.636 -0.4454 -0.6223  0.2807
 3959SOL    HW112776   4.077   4.002   5.586 -0.1935 -0.7771  0.5877
 3959SOL    HW212777   3.926   3.941   5.571 -0.0958 -0.8851  0.0177
 3960SOL     OW12778   6.397   4.278   4.411  0.0780 -0.3872 -0.3292
 3960SOL    HW112779   6.345   4.325   4.340 -3.7396 -0.7393  1.9920
 3960SOL    HW212780   6.400   4.180   4.392 -2.9112 -0.8186  0.9217
 3961SOL     OW12781   6.168   5.956   2.053  0.3905 -0.7796 -1.0343
 3961SOL    HW112782   6.219   5.885   2.005  0.8805 -1.0348 -0.1713
 3961SOL    HW212783   6.231   6.010   2.108 -0.1519 -0.5125 -0.6663
 3962SOL     OW12784   5.439   4.354   0.491  0.6250 -0.4057 -0.0472
 3962SOL    HW112785   5.404   4.430   0.545 -0.9860 -1.6325  0.7437
 3962SOL    HW212786   5.528   4.378   0.452  0.4953  1.5739  0.7703
 3963SOL     OW12787   4.260   3.675   0.310  0.3274  0.0916 -0.4307
 3963SOL    HW112788   4.224   3.719   0.228 -1.7226  0.9471  0.8404
 3963SOL    HW212789   4.191   3.612   0.347  1.2183 -0.2989  0.6089
 3964SOL     OW12790   5.653   2.738   1.755 -0.4040  0.4505 -0.8144
 3964SOL    HW112791   5.657   2.820   1.812  0.1105  0.2983 -0.6277
 3964SOL    HW212792   5.583   2.750   1.684 -0.8854  0.7337 -0.2989
 3965SOL     OW12793   6.655   5.265   5.497 -0.8596 -0.2565  0.0177
 3965SOL    HW112794   6.614   5.174   5.488  0.9267 -1.1447  0.3614
 3965SOL    HW212795   6.683   5.298   5.406 -1.6477  0.0510 -0.1274
 3966SOL     OW12796   1.743   0.887   4.269 -0.8702 -0.2860  0.6271
 3966SOL    HW112797   1.820   0.951   4.266  0.5520 -1.8474  1.4345
 3966SOL    HW212798   1.746   0.829   4.187 -1.7193  0.1903  0.2483
 3967SOL     OW12799   4.898   5.290   3.092  0.5255  0.2706  0.2859
 3967SOL    HW112800   4.856   5.377   3.067 -1.2503 -0.6807 -0.2924
 3967SOL    HW212801   4.886   5.225   3.016  0.6452 -0.8501  1.2033
 3968SOL     OW12802   6.009   0.825   5.205 -0.3542  0.3188  0.3390
 3968SOL    HW112803   6.051   0.838   5.295 -0.7908 -3.0927  1.1810
 3968SOL    HW212804   5.909   0.830   5.214 -0.4005 -0.0974  0.0529
 3969SOL     OW12805   6.730   0.805   6.233 -0.3785 -0.4671  0.2896
 3969SOL    HW112806   6.785   0.822   6.315  1.0698 -1.3400 -0.4537
 3969SOL    HW212807   6.658   0.739   6.255 -0.3596 -0.2719  0.9844
 3970SOL     OW12808   6.983   6.957   5.157 -0.3101  0.0141  0.0640
 3970SOL    HW112809   7.038   6.902   5.219 -1.4706 -0.3065  0.8477
 3970SOL    HW212810   7.000   6.928   5.063 -0.0491 -0.9027  0.3788
 3971SOL     OW12811   1.162   0.217   3.670  0.0803  0.0132 -0.0933
 3971SOL    HW112812   1.160   0.118   3.662 -1.2029  0.0875 -1.0845
 3971SOL    HW212813   1.068   0.252   3.677  0.5264  1.1230  0.8692
 3972SOL     OW12814   4.224   2.301   4.566 -0.7450 -0.3355 -0.0376
 3972SOL    HW112815   4.274   2.320   4.651  0.5343 -2.6097 -0.2208
 3972SOL    HW212816   4.131   2.273   4.588 -0.3326 -1.1989  0.6532
 3973SOL     OW12817   6.728   2.213   1.727 -0.4447 -0.4069 -0.9463
 3973SOL    HW112818   6.746   2.134   1.785 -0.7092 -0.6452 -1.1828
 3973SOL    HW212819   6.781   2.205   1.642 -0.2883 -0.2095 -0.8694
 3974SOL     OW12820   1.812   4.106   4.558 -0.7867 -0.0541 -0.3299
 3974SOL    HW112821   1.789   4.169   4.484  0.2049  0.2310 -0.4042
 3974SOL    HW212822   1.797   4.012   4.527  1.2122 -0.0429 -1.5224
 3975SOL     OW12823   0.898   0.200   1.426  0.6620  0.2791 -0.5131
 3975SOL    HW112824   0.953   0.155   1.496  0.4608 -0.9233 -1.0937
 3975SOL    HW212825   0.950   0.275   1.385  0.4022  1.6851  1.5929
 3976SOL     OW12826   1.924   4.641   1.413  0.0668  0.1337  0.7528
 3976SOL    HW112827   1.995   4.581   1.377  0.0774  0.8420 -0.4631
 3976SOL    HW212828   1.863   4.588   1.472  0.6461 -0.8448  0.5040
 3977SOL     OW12829   0.231   2.489   5.441 -0.2689 -0.5380  0.7899
 3977SOL    HW112830   0.302   2.466   5.507  0.2290 -0.5519  0.2469
 3977SOL    HW212831   0.237   2.428   5.362  0.6282  0.9765 -0.3520
 3978SOL     OW12832   3.836   0.548   1.142  0.1057  0.4632 -0.1862
 3978SOL    HW112833   3.798   0.584   1.227 -1.1869 -1.3806  0.0759
 3978SOL    HW212834   3.891   0.466   1.163 -1.4957 -0.9447 -1.2050
 3979SOL     OW12835   5.402   5.619   5.163 -0.4001  0.3115  0.2772
 3979SOL    HW112836   5.373   5.559   5.088 -3.2808  3.1323 -1.1144
 3979SOL    HW212837   5.451   5.697   5.125  2.0861 -0.3579  1.9095
 3980SOL     OW12838   0.295   4.810   6.489 -0.2521 -0.0325  0.0971
 3980SOL    HW112839   0.361   4.865   6.541 -0.1935 -1.0301  1.1204
 3980SOL    HW212840   0.217   4.867   6.465  0.0029  0.6190  0.7666
 3981SOL     OW12841   1.243   3.842   2.004 -0.3758 -0.5173  0.6399
 3981SOL    HW112842   1.222   3.886   1.917 -0.1478 -1.9993 -0.1962
 3981SOL    HW212843   1.338   3.862   2.030  0.1399 -1.5095 -0.3883
 3982SOL     OW12844   3.680   5.062   0.620  0.3756  0.1169 -0.1047
 3982SOL    HW112845   3.620   5.136   0.588  0.4812 -0.1776 -1.0096
 3982SOL    HW212846   3.625   4.981   0.639  0.2671  0.3977  0.8334
 3983SOL     OW12847   3.053   1.338   2.179 -0.2588  0.3294 -0.2022
 3983SOL    HW112848   2.989   1.353   2.253 -0.0793 -0.6429  0.1630
 3983SOL    HW212849   3.146   1.335   2.215 -0.1634 -0.0802 -0.4743
 3984SOL     OW12850   0.309   2.386   5.731  0.6603  0.1712  0.0810
 3984SOL    HW112851   0.349   2.442   5.804 -1.5390  2.8060 -0.5932
 3984SOL    HW212852   0.263   2.307   5.771  1.7734  0.0768  1.2657
 3985SOL     OW12853   5.088   0.810   5.005  0.2536  0.1768  0.3047
 3985SOL    HW112854   5.117   0.904   5.022  0.6543 -0.3762  3.1898
 3985SOL    HW212855   5.157   0.747   5.039  0.0167 -1.2113 -1.6434
 3986SOL     OW12856   5.170   0.873   1.343  0.2483  0.8524  0.1609
 3986SOL    HW112857   5.195   0.890   1.248  0.9633 -0.9080 -0.0087
 3986SOL    HW212858   5.140   0.958   1.385 -2.0661  1.3312 -2.1951
 3987SOL     OW12859   1.740   6.485   0.581 -0.1411  0.1646  0.4440
 3987SOL    HW112860   1.772   6.448   0.494  0.5823 -0.9921  1.1653
 3987SOL    HW212861   1.726   6.583   0.573  1.1877  0.2983 -0.6205
 3988SOL     OW12862   3.085   4.925   0.774  0.0706  0.1887 -0.1654
 3988SOL    HW112863   3.031   5.009   0.769  0.5319  0.5111  0.1918
 3988SOL    HW212864   3.097   4.899   0.870 -1.3681 -1.1476 -0.3019
 3989SOL     OW12865   2.744   3.392   6.517 -0.2578 -0.2177 -0.4014
 3989SOL    HW112866   2.744   3.292   6.506  0.0778 -0.1777 -0.7698
 3989SOL    HW212867   2.692   3.416   6.599 -1.2035 -0.6351 -0.8655
 3990SOL     OW12868   2.436   4.837   3.250  0.1943 -0.1537 -0.0189
 3990SOL    HW112869   2.509   4.882   3.200  1.1542  1.6297  2.7479
 3990SOL    HW212870   2.472   4.754   3.294  0.1936 -0.0449  0.1905
 3991SOL     OW12871   6.817   0.718   0.141  0.4685  0.5789  0.2332
 3991SOL    HW112872   6.783   0.812   0.132  1.0020  0.6089 -1.8979
 3991SOL    HW212873   6.811   0.690   0.237 -0.7741  2.3671  0.7309
 3992SOL     OW12874   3.115   2.709   0.318  0.1732  0.2968  0.2430
 3992SOL    HW112875   3.170   2.657   0.253 -0.7502  0.3552 -0.6175
 3992SOL    HW212876   3.018   2.691   0.301 -0.0733 -0.7853  2.5388
 3993SOL     OW12877   4.183   3.381   1.561 -0.1493 -0.4790  0.2286
 3993SOL    HW112878   4.109   3.359   1.498  0.0840 -0.9657  0.1221
 3993SOL    HW212879   4.173   3.328   1.645 -1.1453  1.0385  1.1286
 3994SOL     OW12880   2.332   2.335   6.366 -0.3514 -0.6627 -0.1778
 3994SOL    HW112881   2.248   2.387   6.347  0.2162  1.2119  1.9801
 3994SOL    HW212882   2.411   2.396   6.363  0.6978 -1.9531 -0.0407
 3995SOL     OW12883   2.076   0.164   2.082  0.1975 -0.1026 -0.0822
 3995SOL    HW112884   2.038   0.242   2.033 -1.6512 -1.1185 -0.3800
 3995SOL    HW212885   2.158   0.131   2.035  0.3354  0.9454 -0.5967
 3996SOL     OW12886   6.194   0.327   6.643  0.8319  0.1884  0.4222
 3996SOL    HW112887   6.195   0.229   6.624 -0.5849 -0.0354  1.2981
 3996SOL    HW212888   6.194   0.378   6.557 -0.8031 -0.6670 -0.1312
 3997SOL     OW12889   6.427   0.849   4.649 -0.3752  0.0179  0.2868
 3997SOL    HW112890   6.406   0.785   4.723 -3.3695 -1.2750 -1.4806
 3997SOL    HW212891   6.479   0.801   4.577  0.2448  0.5327  0.3819
 3998SOL     OW12892   1.900   0.366   4.765 -0.0677 -0.0815 -0.2808
 3998SOL    HW112893   1.994   0.398   4.777  0.2160 -1.1090  0.4213
 3998SOL    HW212894   1.890   0.276   4.808 -1.1651 -0.3473 -1.0515
 3999SOL     OW12895   2.121   1.719   2.535 -0.0410  1.2399  0.2230
 3999SOL    HW112896   2.185   1.674   2.473 -0.2873  1.1925 -0.0008
 3999SOL    HW212897   2.169   1.791   2.587  0.3522  0.7299  0.5796
 4000SOL     OW12898   0.647   2.264   6.266 -0.3807  0.2557 -0.1573
 4000SOL    HW112899   0.643   2.265   6.166 -0.1239 -0.2915 -0.1756
 4000SOL    HW212900   0.702   2.186   6.297 -1.4523 -0.2859  0.4504
 4001SOL     OW12901   6.618   6.398   1.741 -0.2413 -0.6247  0.0941
 4001SOL    HW112902   6.535   6.343   1.737 -2.4125  2.1899  2.3376
 4001SOL    HW212903   6.635   6.426   1.836  1.0021  2.0747 -0.8285
 4002SOL     OW12904   0.357   3.611   4.670 -0.7917  0.5976 -0.1393
 4002SOL    HW112905   0.443   3.661   4.681  0.1274 -1.1576  1.1846
 4002SOL    HW212906   0.371   3.531   4.612 -1.0934 -0.5566  1.3047
 4003SOL     OW12907   0.705   5.456   0.798 -0.8230  0.2781  0.3410
 4003SOL    HW112908   0.662   5.529   0.747  2.8503  1.5488 -1.2602
 4003SOL    HW212909   0.687   5.368   0.754 -1.8859  0.7211 -0.1193
 4004SOL     OW12910   0.771   0.789   6.245 -0.4463  0.0030  0.1763
 4004SOL    HW112911   0.734   0.752   6.159 -1.5296  3.5846 -1.0661
 4004SOL    HW212912   0.861   0.749   6.261  0.1950 -0.2222 -3.1198
 4005SOL     OW12913   6.746   1.349   1.834 -0.0245  0.7245  0.1430
 4005SOL    HW112914   6.821   1.320   1.894  1.6814  0.7628 -1.8521
 4005SOL    HW212915   6.727   1.446   1.849  0.7879  0.8836  0.2137
 4006SOL     OW12916   5.060   4.848   2.034  0.0381  0.5303  0.5790
 4006SOL    HW112917   5.104   4.923   1.984 -1.4753  2.1343  1.5375
 4006SOL    HW212918   5.088   4.761   1.995  1.6655  1.5877 -0.7482
 4007SOL     OW12919   3.851   4.953   1.314  0.6409 -0.0264 -0.4869
 4007SOL    HW112920   3.794   4.942   1.232 -0.2651 -0.2468  0.1558
 4007SOL    HW212921   3.830   5.041   1.357 -0.3092 -0.7198  0.5490
 4008SOL     OW12922   3.379   1.720   3.056 -0.6337  0.0468 -0.0649
 4008SOL    HW112923   3.369   1.752   3.150 -2.5844  1.0566 -0.5542
 4008SOL    HW212924   3.376   1.620   3.054 -0.0030 -0.0024  0.9840
 4009SOL     OW12925   1.501   1.726   1.411 -0.7098 -0.3795  0.6040
 4009SOL    HW112926   1.431   1.781   1.366 -0.8091  0.0800  1.3102
 4009SOL    HW212927   1.535   1.657   1.348  0.4343  1.3714 -0.8262
 4010SOL     OW12928   0.091   3.033   0.137 -0.3509 -0.1047  0.3742
 4010SOL    HW112929   0.147   3.116   0.135 -0.3001 -0.1413 -1.4923
 4010SOL    HW212930   0.027   3.038   0.214 -0.9169  2.0608 -0.1685
 4011SOL     OW12931   4.394   4.808   5.429 -0.6626 -0.5049  0.1908
 4011SOL    HW112932   4.445   4.746   5.370 -0.0295  1.1645 -1.0549
 4011SOL    HW212933   4.457   4.855   5.491 -1.0380 -0.4827  0.5618
 4012SOL     OW12934   2.195   1.748   3.363  0.1096 -0.3269 -0.1093
 4012SOL    HW112935   2.209   1.820   3.431  0.9343 -0.0181 -0.5807
 4012SOL    HW212936   2.105   1.707   3.375 -0.7127  1.3126 -0.3044
 4013SOL     OW12937   4.569   6.483   3.305  0.0488 -0.2894  0.1854
 4013SOL    HW112938   4.603   6.445   3.219 -1.5226  0.0088 -0.6031
 4013SOL    HW212939   4.485   6.436   3.331 -0.9911  1.4374  0.0986
 4014SOL     OW12940   4.181   0.991   3.649  0.5431  0.1839 -0.2091
 4014SOL    HW112941   4.254   0.969   3.585  0.1271  2.0364 -1.4168
 4014SOL    HW212942   4.104   0.928   3.636  0.8606 -0.0767 -0.8509
 4015SOL     OW12943   6.739   3.614   2.077 -0.0091  0.1491  0.0508
 4015SOL    HW112944   6.741   3.673   2.158 -0.1599 -0.4129  0.4702
 4015SOL    HW212945   6.709   3.523   2.103  1.4082 -0.4700 -0.3638
 4016SOL     OW12946   0.014   2.665   2.552 -0.2855  0.5949 -0.0574
 4016SOL    HW112947  -0.013   2.587   2.608  0.4073  1.4619  1.5504
 4016SOL    HW212948   0.091   2.639   2.494 -0.6225 -0.1518 -0.1816
 4017SOL     OW12949   6.524   4.984   3.246  0.0374 -0.5493 -0.5336
 4017SOL    HW112950   6.606   4.961   3.194  0.5356  1.4034 -0.7068
 4017SOL    HW212951   6.501   4.909   3.308  2.1879 -1.0011 -0.2096
 4018SOL     OW12952   5.658   6.146   1.216 -0.3159  0.1457  0.3083
 4018SOL    HW112953   5.688   6.108   1.303 -1.3114  0.0252  0.6168
 4018SOL    HW212954   5.737   6.166   1.159  0.3333 -0.0893  1.1072
 4019SOL     OW12955   2.155   2.241   4.303 -0.0145  0.3172  0.4157
 4019SOL    HW112956   2.061   2.218   4.329 -0.1104  1.3626  1.0426
 4019SOL    HW212957   2.169   2.340   4.313  0.2157  0.7071 -2.6619
 4020SOL     OW12958   6.818   1.346   2.985 -0.4595 -0.3777 -0.1712
 4020SOL    HW112959   6.783   1.296   2.906 -1.5071  1.0806 -0.6879
 4020SOL    HW212960   6.768   1.432   2.994 -2.0046 -1.4306  3.3981
 4021SOL     OW12961   3.671   6.043   6.948  0.0081  0.3079  0.0434
 4021SOL    HW112962   3.711   6.048   7.040 -0.2709 -2.7825  0.4417
 4021SOL    HW212963   3.658   5.947   6.922 -2.0135  1.1008 -2.3412
 4022SOL     OW12964   4.777   6.183   4.815 -0.2021 -0.1103  0.0896
 4022SOL    HW112965   4.819   6.271   4.791  0.5604  0.0832  1.9655
 4022SOL    HW212966   4.681   6.198   4.838  0.1899  0.4831  1.4996
 4023SOL     OW12967   3.961   6.319   6.925 -0.4126 -0.1050 -0.0531
 4023SOL    HW112968   3.869   6.308   6.887 -0.6040  0.8550  0.0978
 4023SOL    HW212969   3.983   6.241   6.983 -1.3645 -0.0843  0.3578
 4024SOL     OW12970   5.158   5.095   1.914 -0.0287 -0.2210  0.7272
 4024SOL    HW112971   5.236   5.088   1.977  0.3597  1.5439  0.4948
 4024SOL    HW212972   5.159   5.185   1.871 -0.6995 -1.1268 -1.2801
 4025SOL     OW12973   5.051   1.101   2.339 -0.0003 -0.7592  0.1248
 4025SOL    HW112974   4.992   1.177   2.366 -1.2550 -2.0297  1.1394
 4025SOL    HW212975   5.003   1.015   2.353 -0.4733 -1.7396 -5.3582
 4026SOL     OW12976   2.083   6.078   6.502  0.0025  0.0009  0.2784
 4026SOL    HW112977   2.132   6.063   6.416  2.0396 -1.1415  1.5437
 4026SOL    HW212978   2.135   6.140   6.560 -0.0304 -1.1712  1.6348
 4027SOL     OW12979   3.940   1.031   5.785  0.1439  0.4705 -0.3748
 4027SOL    HW112980   4.022   1.040   5.841  1.1078  0.2348 -1.7246
 4027SOL    HW212981   3.931   0.937   5.753 -0.1395  0.7038 -1.0018
 4028SOL     OW12982   5.247   2.981   0.416 -0.4482 -0.4275 -0.2464
 4028SOL    HW112983   5.159   2.992   0.461 -1.4560 -1.2516 -1.8854
 4028SOL    HW212984   5.319   2.965   0.484 -1.8746 -1.6258  1.0310
 4029SOL     OW12985   0.617   4.339   3.090  0.0634  0.7769 -0.3085
 4029SOL    HW112986   0.711   4.315   3.115  0.0283  0.1322 -0.7826
 4029SOL    HW212987   0.573   4.383   3.168  1.0746  2.0239 -0.3997
 4030SOL     OW12988   1.076   0.017   6.722  0.1809  0.3265 -0.7870
 4030SOL    HW112989   0.995   0.069   6.696  0.3876  2.0643  1.7605
 4030SOL    HW212990   1.047  -0.069   6.764 -0.3844  0.9669  0.1787
 4031SOL     OW12991   2.463   2.019   2.404 -0.3687 -0.2164 -0.5676
 4031SOL    HW112992   2.438   2.044   2.311  0.9654  0.0986 -0.8558
 4031SOL    HW212993   2.561   1.997   2.408 -0.9731 -3.3211  0.0946
 4032SOL     OW12994   3.347   3.296   3.456  0.2712  0.0205  0.3123
 4032SOL    HW112995   3.433   3.345   3.440  1.1452 -1.7061 -0.5287
 4032SOL    HW212996   3.273   3.362   3.465  0.6134  1.6072 -4.9175
 4033SOL     OW12997   6.483   2.291   0.026  0.3778  0.3261 -0.1734
 4033SOL    HW112998   6.543   2.259  -0.048  1.0031  2.2292 -0.5460
 4033SOL    HW212999   6.539   2.323   0.103 -0.2210  0.1446  0.3433
 4034SOL     OW13000   1.396   1.429   4.137  0.3286 -0.0132 -0.1120
 4034SOL    HW113001   1.453   1.355   4.172  2.2136  2.4330  2.4363
 4034SOL    HW213002   1.408   1.436   4.038  0.7232 -2.5042 -0.3006
 4035SOL     OW13003   0.498   4.665   4.235  0.1933 -0.0782 -0.1166
 4035SOL    HW113004   0.481   4.750   4.184 -0.2681  0.8416  1.4949
 4035SOL    HW213005   0.465   4.587   4.182  1.4433  0.6302 -2.0380
 4036SOL     OW13006   5.923   6.787   3.794  0.2388 -0.6693 -0.0898
 4036SOL    HW113007   5.896   6.826   3.706  1.2279 -2.2762 -1.1610
 4036SOL    HW213008   5.915   6.857   3.866  0.8333  1.1173 -1.6921
 4037SOL     OW13009   5.975   6.156   5.383 -0.0902  0.2087  0.5117
 4037SOL    HW113010   5.957   6.070   5.336 -1.6292 -0.5645  2.3530
 4037SOL    HW213011   5.906   6.169   5.455  1.1746  2.1052  1.4535
 4038SOL     OW13012   1.460   6.373   0.457  0.7913 -0.3199 -0.4619
 4038SOL    HW113013   1.517   6.444   0.498  0.7662  0.0693 -1.0839
 4038SOL    HW213014   1.371   6.371   0.503  0.5956  0.4259 -0.8013
 4039SOL     OW13015   6.696   2.493   2.540 -0.6298  0.1924 -0.2675
 4039SOL    HW113016   6.704   2.564   2.610 -3.0226 -0.6095  0.9721
 4039SOL    HW213017   6.718   2.531   2.450 -0.4372  2.1011  0.5395
 4040SOL     OW13018   0.689   5.048   0.021  0.0579 -0.1378 -0.4428
 4040SOL    HW113019   0.598   5.030   0.058 -0.0267  1.4173  0.1863
 4040SOL    HW213020   0.722   4.967  -0.027 -1.6264 -0.7478 -0.6378
 4041SOL     OW13021   5.409   1.476   3.920 -0.0292  0.1074 -0.1496
 4041SOL    HW113022   5.376   1.549   3.979 -0.2690 -0.1050 -0.0205
 4041SOL    HW213023   5.460   1.409   3.974 -0.8389 -0.4490 -0.0552
 4042SOL     OW13024   3.474   0.409   1.622  0.0109  0.4074  0.1036
 4042SOL    HW113025   3.570   0.384   1.637  1.1360  3.2445 -1.5854
 4042SOL    HW213026   3.456   0.498   1.665 -2.2221 -0.5488  1.2823
 4043SOL     OW13027   2.986   3.529   2.254  0.4202  0.2472 -0.1654
 4043SOL    HW113028   3.016   3.444   2.210  0.7282  0.9539 -1.3703
 4043SOL    HW213029   2.891   3.519   2.285  1.1733 -1.3503  1.9347
 4044SOL     OW13030   0.215   4.041   5.374  0.0163 -0.0375 -0.4313
 4044SOL    HW113031   0.285   3.996   5.430  0.2626  2.0335  1.0367
 4044SOL    HW213032   0.253   4.125   5.334 -1.1005  0.1435 -1.1612
 4045SOL     OW13033   3.954   0.322   0.014 -0.6985  0.0593  0.6618
 4045SOL    HW113034   3.943   0.421   0.028  0.2002  0.2875 -0.1504
 4045SOL    HW213035   4.051   0.300   0.011 -0.8922 -0.6935 -0.3008
 4046SOL     OW13036   1.805   4.743   6.695 -0.5775  0.2292 -0.2502
 4046SOL    HW113037   1.837   4.829   6.735 -1.8220  0.1094  1.0878
 4046SOL    HW213038   1.740   4.763   6.621 -0.4834  0.4509 -0.2731
 4047SOL     OW13039   1.579   3.187   0.911 -0.1209  0.2140  0.2050
 4047SOL    HW113040   1.498   3.129   0.899  0.4283 -0.4694 -0.3554
 4047SOL    HW213041   1.623   3.164   0.998 -0.5780  0.6557  0.5564
 4048SOL     OW13042   6.708   3.735   4.179 -0.0101  0.8411  0.1100
 4048SOL    HW113043   6.771   3.799   4.136  0.0005 -0.1844 -1.4979
 4048SOL    HW213044   6.748   3.644   4.179 -1.0977  0.3385 -0.1108
 4049SOL     OW13045   1.183   2.235   5.511  0.6165  0.5605 -0.2835
 4049SOL    HW113046   1.134   2.276   5.588 -0.7865  1.3320 -1.5482
 4049SOL    HW213047   1.172   2.136   5.514  1.7135  0.4445  1.2344
 4050SOL     OW13048   5.545   5.018   4.838  0.2259 -0.6175  0.1317
 4050SOL    HW113049   5.644   5.010   4.853  0.5703  0.8471 -1.1451
 4050SOL    HW213050   5.497   4.999   4.924  1.7683  1.2692  1.5094
 4051SOL     OW13051   5.443   5.934   1.231 -0.1252  0.3159  0.3645
 4051SOL    HW113052   5.384   5.974   1.301  1.3527  0.6182  1.4853
 4051SOL    HW213053   5.520   5.996   1.213  0.3210 -0.4486 -0.4576
 4052SOL     OW13054   6.642   2.323   1.358 -0.5791  0.2061  0.4025
 4052SOL    HW113055   6.713   2.265   1.318 -0.4370 -1.0945  2.3642
 4052SOL    HW213056   6.555   2.308   1.310  0.1601  0.8998 -1.2330
 4053SOL     OW13057   6.450   6.196   5.725  0.0172  0.0779 -0.0096
 4053SOL    HW113058   6.461   6.248   5.641 -0.2993 -1.0402 -0.7653
 4053SOL    HW213059   6.525   6.131   5.734  0.0769  0.2265  0.6006
 4054SOL     OW13060   2.883   5.989   0.230  0.2999 -0.0850  0.0880
 4054SOL    HW113061   2.954   6.007   0.297 -2.6187  0.8964  3.1982
 4054SOL    HW213062   2.917   6.012   0.138  3.8877  0.2579  1.3679
 4055SOL     OW13063   1.482   4.547   0.290  0.2379  0.1148  0.5119
 4055SOL    HW113064   1.526   4.572   0.204  0.5917  1.1741  0.9789
 4055SOL    HW213065   1.546   4.565   0.365  0.0008 -0.9576  0.9961
 4056SOL     OW13066   1.454   4.548   1.050  0.1550 -0.1967 -0.5870
 4056SOL    HW113067   1.356   4.536   1.062  0.4284 -2.0999  0.0055
 4056SOL    HW213068   1.493   4.587   1.134 -0.3470  2.5788 -1.5583
 4057SOL     OW13069   1.304   4.726   2.248  0.0435 -0.2582 -0.1277
 4057SOL    HW113070   1.308   4.633   2.212 -1.4078 -0.8867  1.2030
 4057SOL    HW213071   1.367   4.734   2.325  2.7180  0.9190 -2.2719
 4058SOL     OW13072   4.447   0.373   5.135  0.2035  0.3546 -0.0493
 4058SOL    HW113073   4.398   0.453   5.103 -1.0348 -0.4510 -0.2478
 4058SOL    HW213074   4.384   0.313   5.186  1.4170  0.1664  1.2993
 4059SOL     OW13075   1.027   1.750   5.967  0.7009  0.0320 -0.6096
 4059SOL    HW113076   1.104   1.801   5.927  1.3971 -1.6136 -1.4656
 4059SOL    HW213077   1.061   1.662   6.002 -0.2712  0.5226  1.7662
 4060SOL     OW13078   0.589   6.458   5.782  0.3815  0.2637 -0.2937
 4060SOL    HW113079   0.601   6.371   5.733 -0.8863 -0.2345  0.2488
 4060SOL    HW213080   0.528   6.517   5.730  2.5507  1.5361 -1.4974
 4061SOL     OW13081   0.402   2.350   4.880 -0.5721  0.4551 -0.3513
 4061SOL    HW113082   0.438   2.398   4.800  2.2378 -1.5324 -0.3942
 4061SOL    HW213083   0.401   2.412   4.958 -0.9948  1.7218 -1.3283
 4062SOL     OW13084   1.258   5.484   0.779 -0.2533 -0.1152 -0.0909
 4062SOL    HW113085   1.184   5.546   0.756 -1.0733 -1.0316  0.0023
 4062SOL    HW213086   1.308   5.518   0.858 -0.7878  0.3386  0.0543
 4063SOL     OW13087   4.821   2.991   5.579  0.4648 -0.0508 -0.2947
 4063SOL    HW113088   4.848   3.049   5.655 -1.2591  3.1586 -1.9265
 4063SOL    HW213089   4.749   2.927   5.609  0.3497  0.6376  0.9360
 4064SOL     OW13090   4.888   5.351   6.924 -0.3299 -0.4468 -0.1830
 4064SOL    HW113091   4.961   5.419   6.934 -2.1274  1.4523  0.8560
 4064SOL    HW213092   4.868   5.310   7.013 -0.6826 -0.7663 -0.4082
 4065SOL     OW13093   0.233   5.188   6.833  0.3591 -0.2817 -0.5890
 4065SOL    HW113094   0.145   5.236   6.833  0.7817  0.5355  0.7112
 4065SOL    HW213095   0.221   5.098   6.791 -1.2124 -0.3901  0.0095
 4066SOL     OW13096   5.066   7.009   1.833  0.0744 -0.0259  0.2564
 4066SOL    HW113097   5.094   7.048   1.746  1.1599 -1.1394  0.0830
 4066SOL    HW213098   5.140   6.952   1.870 -1.0181 -0.9890  1.0424
 4067SOL     OW13099   1.853   6.732   5.311 -0.3007 -0.5061  0.2411
 4067SOL    HW113100   1.953   6.732   5.302 -0.3146 -1.0207  0.0738
 4067SOL    HW213101   1.819   6.638   5.305 -0.8021 -0.3250  0.2320
 4068SOL     OW13102   5.603   3.091   2.576 -0.4712 -0.4169  0.0912
 4068SOL    HW113103   5.687   3.063   2.621  0.4388 -2.2845 -2.5532
 4068SOL    HW213104   5.526   3.038   2.613 -0.2883  0.2166  1.4490
 4069SOL     OW13105   1.366   6.432   3.682 -0.5239  0.5551 -0.3514
 4069SOL    HW113106   1.273   6.406   3.706 -0.7331  0.4248 -1.2632
 4069SOL    HW213107   1.415   6.352   3.647 -0.3409  0.8127 -0.6887
 4070SOL     OW13108   1.719   3.396   0.825 -0.1784  0.3997 -0.2512
 4070SOL    HW113109   1.671   3.316   0.862  0.5091  0.0984  0.0075
 4070SOL    HW213110   1.685   3.414   0.732 -0.0893 -0.4202 -0.4555
 4071SOL     OW13111   1.604   3.579   6.113 -0.4207 -0.2845  0.4614
 4071SOL    HW113112   1.645   3.491   6.135 -1.4409 -0.7054  0.6974
 4071SOL    HW213113   1.515   3.566   6.070 -0.8283  0.6350  0.9823
 4072SOL     OW13114   4.791   4.220   4.442  0.3464 -0.3334  0.3712
 4072SOL    HW113115   4.767   4.137   4.391  0.5878  0.7585 -1.5952
 4072SOL    HW213116   4.735   4.296   4.411  0.4764  0.3823  1.8060
 4073SOL     OW13117   5.717   1.686   1.115 -0.1984 -0.6705  0.0164
 4073SOL    HW113118   5.724   1.647   1.024 -0.3692 -2.0644  0.5746
 4073SOL    HW213119   5.786   1.644   1.175  1.6317  2.0110 -0.0273
 4074SOL     OW13120   2.807   4.111   6.812  0.0943 -0.5175 -0.4411
 4074SOL    HW113121   2.849   4.107   6.721 -0.4300 -1.4614 -0.6533
 4074SOL    HW213122   2.848   4.186   6.864 -0.0749  0.4801 -1.6878
 4075SOL     OW13123   6.452   3.829   0.876  0.1650  0.4197  0.1765
 4075SOL    HW113124   6.393   3.844   0.955 -0.2763  1.2481 -0.2913
 4075SOL    HW213125   6.544   3.805   0.906 -0.9768 -3.6375  0.9558
 4076SOL     OW13126   4.940   3.340   0.722 -0.0506 -0.1337  0.2568
 4076SOL    HW113127   4.961   3.420   0.665  0.8913 -0.1574  0.5469
 4076SOL    HW213128   4.908   3.370   0.811 -1.4121 -0.0962 -0.2241
 4077SOL     OW13129   4.979   6.260   0.545  0.6906  0.2369 -0.2344
 4077SOL    HW113130   4.916   6.232   0.473  1.6276  0.2455 -1.0745
 4077SOL    HW213131   4.929   6.310   0.616 -0.3590 -0.3764 -0.5232
 4078SOL     OW13132   4.889   4.037   4.648 -0.0285  0.0275  0.1581
 4078SOL    HW113133   4.925   3.957   4.601 -2.0341 -1.0531  0.3406
 4078SOL    HW213134   4.878   4.112   4.582 -0.3445 -0.6177 -0.5298
 4079SOL     OW13135   1.380   5.653   2.856 -0.3472 -0.3890  0.0615
 4079SOL    HW113136   1.459   5.709   2.881 -0.5195 -0.3112  0.4265
 4079SOL    HW213137   1.409   5.558   2.847  0.0345 -0.1880 -0.9736
 4080SOL     OW13138   0.793   1.471   0.592 -0.0247  0.2077  1.1407
 4080SOL    HW113139   0.879   1.443   0.634 -0.2808 -0.0569  1.4884
 4080SOL    HW213140   0.810   1.547   0.529  0.3986  0.4206  1.5117
 4081SOL     OW13141   0.510   0.578   6.379  0.1757  0.1814  0.3097
 4081SOL    HW113142   0.552   0.510   6.319  0.0996  0.6820 -0.3217
 4081SOL    HW213143   0.473   0.653   6.324 -1.2563 -0.0789  0.8809
 4082SOL     OW13144   4.517   0.689   2.279  0.7889 -0.1266  0.2018
 4082SOL    HW113145   4.584   0.745   2.327  1.3913 -2.1986  1.9611
 4082SOL    HW213146   4.430   0.693   2.327  0.1384  1.0841 -1.0132
 4083SOL     OW13147   1.447   2.716   4.221 -0.0447  0.2751 -0.0698
 4083SOL    HW113148   1.427   2.752   4.130  0.1105  0.9609  0.1598
 4083SOL    HW213149   1.515   2.643   4.215 -0.1065  0.2547 -0.5117
 4084SOL     OW13150   3.583   6.037   1.271 -0.5780 -0.0182  0.1710
 4084SOL    HW113151   3.492   6.008   1.240  0.6200 -3.2312 -0.8078
 4084SOL    HW213152   3.633   5.957   1.306  1.5739  1.8176  1.5612
 4085SOL     OW13153   4.389   2.059   0.932  0.2436  0.3069  0.1320
 4085SOL    HW113154   4.314   2.044   0.867 -2.3163  1.0379  2.7149
 4085SOL    HW213155   4.424   2.152   0.921 -0.8221  0.7495  0.4064
 4086SOL     OW13156   5.328   5.365   4.063  0.3121 -0.0637  0.7589
 4086SOL    HW113157   5.356   5.310   3.984  0.9075 -1.3743  1.8202
 4086SOL    HW213158   5.365   5.457   4.054  1.6535 -0.6179  0.2068
 4087SOL     OW13159   6.392   4.405   1.865 -0.4485 -0.5883 -0.0544
 4087SOL    HW113160   6.425   4.483   1.918 -0.3940 -0.9622  0.4585
 4087SOL    HW213161   6.469   4.352   1.831 -0.4942 -0.6868 -0.0057
 4088SOL     OW13162   2.697   1.624   0.044  0.1574  0.8107 -0.0783
 4088SOL    HW113163   2.610   1.581   0.070  1.0107 -0.3970  0.9047
 4088SOL    HW213164   2.687   1.724   0.047 -1.2271  0.6940 -0.1209
 4089SOL     OW13165   0.988   1.136   0.058 -0.5588  0.8929 -0.4347
 4089SOL    HW113166   0.908   1.076   0.056 -1.1430  1.4666  2.1677
 4089SOL    HW213167   1.064   1.092   0.010 -0.9069 -2.0797  1.4453
 4090SOL     OW13168   3.813   5.176   1.488 -0.4031  0.2302  0.1455
 4090SOL    HW113169   3.740   5.183   1.556  1.2007  1.9801  1.8043
 4090SOL    HW213170   3.901   5.191   1.533  0.7683  0.9930 -2.2813
 4091SOL     OW13171   2.480   0.328   2.261 -0.1436  0.2602  0.3059
 4091SOL    HW113172   2.559   0.269   2.277  0.3016  0.4935 -0.8897
 4091SOL    HW213173   2.397   0.283   2.293  0.3640 -0.3790  0.7399
 4092SOL     OW13174   3.348   1.829   5.166 -0.4143  0.0135 -0.2935
 4092SOL    HW113175   3.289   1.894   5.213 -0.2969 -0.8767  1.1328
 4092SOL    HW213176   3.439   1.869   5.155 -0.7803  0.7036 -0.9045
 4093SOL     OW13177   6.584   4.457   1.297 -0.3812 -0.5322 -0.3765
 4093SOL    HW113178   6.575   4.452   1.397  1.6352  2.8301  0.1250
 4093SOL    HW213179   6.660   4.399   1.268  0.3511  0.0279  0.3604
 4094SOL     OW13180   0.516   6.675   6.824 -0.6030  0.3636  0.6795
 4094SOL    HW113181   0.497   6.577   6.817  1.4088  0.0024 -0.4860
 4094SOL    HW213182   0.576   6.692   6.902 -0.0560  0.4961  0.2380
 4095SOL     OW13183   1.908   2.924   2.277  0.0195 -0.7174  0.1643
 4095SOL    HW113184   1.968   2.931   2.198 -0.4252 -0.2589 -0.1396
 4095SOL    HW213185   1.838   2.996   2.273  0.1928 -0.4807  1.1418
 4096SOL     OW13186   2.670   5.424   6.915 -0.4505  0.0159  0.9146
 4096SOL    HW113187   2.603   5.436   6.842  0.1841  3.8981  0.8114
 4096SOL    HW213188   2.751   5.378   6.879 -1.1121 -0.3771 -0.1328
 4097SOL     OW13189   1.386   0.843   5.088  0.7669  0.6752 -0.1899
 4097SOL    HW113190   1.455   0.849   5.017  0.3895  1.0424 -0.5315
 4097SOL    HW213191   1.295   0.850   5.047  0.5297  0.3028  0.2637
 4098SOL     OW13192   5.049   5.161   3.943 -0.4544  0.3927  0.2409
 4098SOL    HW113193   5.025   5.066   3.922 -2.0744  1.2261 -1.9832
 4098SOL    HW213194   5.019   5.183   4.036  0.9964 -1.5532  1.2322
 4099SOL     OW13195   2.520   5.096   2.866  0.1846 -0.2168 -0.0464
 4099SOL    HW113196   2.542   5.055   2.777 -1.1682 -0.3172 -0.3560
 4099SOL    HW213197   2.497   5.192   2.853  0.2496 -0.1630  0.2362
 4100SOL     OW13198   5.370   1.495   1.597 -0.0577 -0.2912  0.4002
 4100SOL    HW113199   5.447   1.492   1.661  0.9835  0.2904 -0.7840
 4100SOL    HW213200   5.357   1.404   1.556 -0.3171 -0.5069  0.9516
 4101SOL     OW13201   6.790   4.278   5.014  0.4340 -0.0150 -0.5495
 4101SOL    HW113202   6.745   4.189   5.017 -1.3662  0.7711 -1.9252
 4101SOL    HW213203   6.807   4.304   4.918  1.4508  0.8804 -0.1532
 4102SOL     OW13204   2.832   3.035   0.485  0.2818 -0.0546 -0.0905
 4102SOL    HW113205   2.842   2.950   0.536 -0.3424 -0.1409 -0.1134
 4102SOL    HW213206   2.888   3.031   0.401 -0.6235 -0.8884 -0.6671
 4103SOL     OW13207   2.270   6.137   1.969  0.6083 -0.7240  0.0135
 4103SOL    HW113208   2.295   6.229   2.001 -0.2141 -0.1276 -1.0161
 4103SOL    HW213209   2.351   6.093   1.931  0.7982 -0.0235 -0.4189
 4104SOL     OW13210   3.226   0.143   5.174  0.1645  0.6582  0.4079
 4104SOL    HW113211   3.269   0.073   5.118 -3.4569  0.8800 -3.1142
 4104SOL    HW213212   3.290   0.217   5.190  2.2107 -0.6605 -1.1914
 4105SOL     OW13213   1.782   5.923   0.565  0.4264 -0.5647 -0.3247
 4105SOL    HW113214   1.817   5.993   0.627  2.3643 -2.1546  0.4994
 4105SOL    HW213215   1.769   5.962   0.474 -0.4209  1.2961  0.5462
 4106SOL     OW13216   3.643   3.096   1.465  0.0024 -0.2679  0.0551
 4106SOL    HW113217   3.727   3.121   1.514  0.7691 -1.3665 -0.6629
 4106SOL    HW213218   3.666   3.053   1.378 -1.3369  1.1563 -1.0660
 4107SOL     OW13219   2.124   5.393   1.398  0.5607 -0.0172  0.3400
 4107SOL    HW113220   2.179   5.451   1.458 -0.2851  1.2496 -0.0711
 4107SOL    HW213221   2.066   5.332   1.453 -1.7706  2.5638  0.9613
 4108SOL     OW13222   1.953   1.920   4.824  0.3308  0.0652 -0.6423
 4108SOL    HW113223   2.042   1.931   4.868 -0.6224  2.2307  0.9373
 4108SOL    HW213224   1.952   1.970   4.737  0.5052  0.5348 -0.3813
 4109SOL     OW13225   4.403   6.522   6.992 -0.5101  0.7919 -0.1381
 4109SOL    HW113226   4.438   6.586   6.923 -1.3818  0.7568 -0.6398
 4109SOL    HW213227   4.364   6.442   6.945  4.4759 -2.4361  0.4405
 4110SOL     OW13228   3.482   0.575   2.785  0.1951 -0.1805  0.5142
 4110SOL    HW113229   3.390   0.590   2.819  1.0799 -0.8147  3.4472
 4110SOL    HW213230   3.483   0.584   2.685 -2.7312  1.1394  0.5221
 4111SOL     OW13231   4.407   2.102   1.302  0.5098  0.1990  0.6704
 4111SOL    HW113232   4.460   2.180   1.269  0.1838 -0.0535 -0.4880
 4111SOL    HW213233   4.461   2.019   1.293  0.1615  0.0288  0.0639
 4112SOL     OW13234   5.118   4.280   0.923 -0.5305  0.0233 -1.0513
 4112SOL    HW113235   5.178   4.254   0.999  1.5965  1.8057 -2.0201
 4112SOL    HW213236   5.028   4.240   0.937 -0.1542  0.0547  2.2551
 4113SOL     OW13237   5.739   2.844   5.762  1.0773  0.4019  0.3667
 4113SOL    HW113238   5.806   2.819   5.692  0.9925 -0.7835  0.6951
 4113SOL    HW213239   5.656   2.878   5.717  1.5693  1.0818 -0.0574
 4114SOL     OW13240   2.100   0.109   5.842  0.7686  0.3168  0.7682
 4114SOL    HW113241   2.081   0.010   5.845 -1.0149  0.6467  1.7817
 4114SOL    HW213242   2.182   0.128   5.895  1.0791 -0.6083  0.6517
 4115SOL     OW13243   5.721   0.753   3.642  0.0503 -0.1788 -0.0791
 4115SOL    HW113244   5.624   0.741   3.661 -0.0821  0.2287 -0.4937
 4115SOL    HW213245   5.735   0.760   3.544  0.2081  2.1370  0.0510
 4116SOL     OW13246   2.326   4.287   2.377 -0.0259 -0.0496 -0.5289
 4116SOL    HW113247   2.385   4.351   2.427  0.9693 -0.1875 -1.4958
 4116SOL    HW213248   2.313   4.204   2.432 -0.2466  0.4446  0.1702
 4117SOL     OW13249   2.547   5.304   1.442 -0.1084  0.3086  0.0403
 4117SOL    HW113250   2.607   5.231   1.409  1.7373  1.4346  0.7567
 4117SOL    HW213251   2.459   5.297   1.396  0.4873 -1.5112 -0.9423
 4118SOL     OW13252   5.309   6.643   2.223 -0.1225  0.3933  0.3151
 4118SOL    HW113253   5.281   6.735   2.197  1.2073  1.0486  1.1033
 4118SOL    HW213254   5.317   6.637   2.322 -0.5830 -0.6963  0.2999
 4119SOL     OW13255   3.756   4.340   6.898  0.0400 -0.7154 -0.0165
 4119SOL    HW113256   3.786   4.381   6.985 -0.3411  1.1719 -0.7338
 4119SOL    HW213257   3.678   4.280   6.915 -1.0201  0.8261  0.7811
 4120SOL     OW13258   4.904   5.231   4.346 -0.3395  0.4828  0.3037
 4120SOL    HW113259   4.843   5.189   4.279  0.2562  0.7152 -0.3868
 4120SOL    HW213260   4.999   5.212   4.322 -0.1076 -0.8786  2.0065
 4121SOL     OW13261   6.674   0.042   0.936  0.3298  0.1721  0.4105
 4121SOL    HW113262   6.711   0.076   1.022  3.3356 -0.1472 -0.6507
 4121SOL    HW213263   6.707   0.099   0.860 -1.1108 -0.3724 -0.6810
 4122SOL     OW13264   4.942   0.557   1.929  0.0901 -0.6212 -0.0109
 4122SOL    HW113265   4.990   0.552   1.841 -1.4188  0.8393 -0.9877
 4122SOL    HW213266   5.008   0.571   2.003  1.2539  0.0951 -1.1446
 4123SOL     OW13267   2.661   2.181   2.045  0.2239 -0.2009 -0.0822
 4123SOL    HW113268   2.667   2.157   1.948  0.1116  0.7182 -0.3257
 4123SOL    HW213269   2.752   2.209   2.077  0.0947  0.3078 -0.1488
 4124SOL     OW13270   0.675   4.981   4.124 -0.0386 -0.0882 -0.2067
 4124SOL    HW113271   0.708   5.063   4.172  0.2168 -0.6130  0.5320
 4124SOL    HW213272   0.749   4.915   4.116 -0.4782 -0.6248  0.0347
 4125SOL     OW13273   6.505   0.674   3.561 -0.2726  0.0215  0.2333
 4125SOL    HW113274   6.538   0.765   3.586 -0.6527  0.5602 -1.1060
 4125SOL    HW213275   6.408   0.666   3.582 -0.3210  0.0518  0.0203
 4126SOL     OW13276   1.275   1.457   1.820  0.1089  0.5183  0.1434
 4126SOL    HW113277   1.343   1.512   1.772  0.3587 -1.3373 -1.7748
 4126SOL    HW213278   1.192   1.449   1.765 -0.8013  0.8015  1.4072
 4127SOL     OW13279   6.312   6.438   2.728 -0.1786  0.4749  0.1395
 4127SOL    HW113280   6.266   6.407   2.811 -2.7541  0.6706 -1.1318
 4127SOL    HW213281   6.408   6.457   2.749 -0.3924 -0.8018  2.7233
 4128SOL     OW13282   4.070   6.873   1.155 -0.9807 -0.1308  0.3171
 4128SOL    HW113283   4.112   6.963   1.148 -1.5975  0.0873 -1.0447
 4128SOL    HW213284   4.093   6.831   1.243  2.8568 -0.4475 -0.6622
 4129SOL     OW13285   4.467   5.371   2.645  0.2850  0.2209  0.0917
 4129SOL    HW113286   4.507   5.279   2.641  0.2099  0.0919  1.7324
 4129SOL    HW213287   4.529   5.436   2.601  0.7957 -0.4595 -0.2157
 4130SOL     OW13288   2.037   2.168   1.219  0.3737 -0.0108 -0.4284
 4130SOL    HW113289   2.113   2.110   1.191  0.1419  0.2021 -1.5316
 4130SOL    HW213290   1.977   2.185   1.141 -1.0597 -0.5315  0.5213
 4131SOL     OW13291   0.709   5.758   1.522 -0.0790 -0.2196  0.0630
 4131SOL    HW113292   0.772   5.828   1.489 -1.6387  0.2333 -2.1240
 4131SOL    HW213293   0.672   5.787   1.611 -0.5632  1.6941 -0.7037
 4132SOL     OW13294   4.866   2.910   1.106  0.5082  0.9397 -0.1392
 4132SOL    HW113295   4.839   2.995   1.060  0.5612  0.5437 -0.9166
 4132SOL    HW213296   4.921   2.854   1.043 -1.2338 -0.5916 -0.3614
 4133SOL     OW13297   5.230   4.856   0.422 -0.0415 -0.4878  0.0541
 4133SOL    HW113298   5.175   4.863   0.505 -0.9131  1.1112 -0.6231
 4133SOL    HW213299   5.175   4.817   0.348 -0.3492  1.2508 -0.6652
 4134SOL     OW13300   6.390   6.146   3.092 -0.0327 -0.1036 -0.2443
 4134SOL    HW113301   6.406   6.059   3.045 -0.2984 -0.3245  0.0661
 4134SOL    HW213302   6.325   6.200   3.039  2.0343  1.0093 -1.7582
 4135SOL     OW13303   3.524   0.290   0.405  0.3413 -0.6248  0.5513
 4135SOL    HW113304   3.481   0.239   0.479  4.4076 -2.6365  1.8138
 4135SOL    HW213305   3.484   0.382   0.400 -1.4470 -1.0705  3.9184
 4136SOL     OW13306   2.429   0.079   1.262 -0.5865  0.1761  0.2485
 4136SOL    HW113307   2.452   0.147   1.331  0.2041 -1.9359  2.1810
 4136SOL    HW213308   2.487  -0.002   1.274 -2.9824 -1.7698 -0.4719
 4137SOL     OW13309   4.968   1.506   5.774  0.2220  0.1710 -0.2448
 4137SOL    HW113310   4.936   1.479   5.683  0.4610  1.0457 -0.6005
 4137SOL    HW213311   5.064   1.534   5.768  0.2601  0.1673  0.2897
 4138SOL     OW13312   2.934   2.193   1.751 -0.3946 -0.3070  0.1524
 4138SOL    HW113313   2.886   2.187   1.663  1.2817  1.8097 -0.9984
 4138SOL    HW213314   2.905   2.276   1.799  0.5713 -0.0928  0.3869
 4139SOL     OW13315   6.315   1.695   5.091  0.4016 -0.3996 -0.0252
 4139SOL    HW113316   6.294   1.788   5.122 -0.0846 -1.1343  2.0331
 4139SOL    HW213317   6.415   1.683   5.085  0.4582  0.4184 -0.9445
 4140SOL     OW13318   2.341   1.541   2.400 -0.0147  0.5240  0.2895
 4140SOL    HW113319   2.389   1.492   2.473  1.0613  0.0399 -0.7128
 4140SOL    HW213320   2.404   1.603   2.354 -0.4550  0.2051 -0.7778
 4141SOL     OW13321   4.869   1.056   0.318  0.1913 -0.0373 -0.4181
 4141SOL    HW113322   4.904   1.107   0.239  2.6015 -0.9532 -0.0338
 4141SOL    HW213323   4.797   0.993   0.287 -0.0694  0.7867 -1.5645
 4142SOL     OW13324   4.650   4.769   1.213 -0.0765  0.3254  0.8031
 4142SOL    HW113325   4.559   4.808   1.229 -1.6619 -2.0004 -1.6269
 4142SOL    HW213326   4.682   4.796   1.122  1.0459 -0.0022  1.0827
 4143SOL     OW13327   1.735   3.293   3.203 -0.6724  0.0566 -0.4462
 4143SOL    HW113328   1.646   3.327   3.234  0.6305  1.5402  2.0425
 4143SOL    HW213329   1.763   3.216   3.261  1.0801  1.7773  1.1111
 4144SOL     OW13330   6.816   3.338   3.008  0.1083  0.1523  0.8122
 4144SOL    HW113331   6.859   3.426   2.991 -1.5355  0.9920  0.7511
 4144SOL    HW213332   6.807   3.288   2.922 -0.1505  0.5131  0.6257
 4145SOL     OW13333   4.135   1.299   0.110 -0.1635  0.4638  0.4720
 4145SOL    HW113334   4.072   1.241   0.163  0.3373  0.9346  1.6209
 4145SOL    HW213335   4.229   1.281   0.140  0.1091  0.9141 -0.1027
 4146SOL     OW13336   5.495   4.631   4.884  1.1502 -0.3372  0.1363
 4146SOL    HW113337   5.583   4.665   4.851  0.2821  2.1991  0.1587
 4146SOL    HW213338   5.499   4.621   4.983  1.9918 -2.2367 -0.0596
 4147SOL     OW13339   6.828   2.798   1.945 -0.6493 -0.6825 -0.4378
 4147SOL    HW113340   6.901   2.732   1.926 -0.6450 -0.9018  0.3191
 4147SOL    HW213341   6.739   2.755   1.927 -0.6099 -0.4018 -1.4012
 4148SOL     OW13342   6.520   1.016   1.314  0.2368  0.4279 -0.1652
 4148SOL    HW113343   6.457   0.942   1.287  0.2981  0.9389 -1.8533
 4148SOL    HW213344   6.614   0.982   1.307  0.2533  0.5618 -0.6684
 4149SOL     OW13345   1.617   5.678   6.052  0.3273 -0.0864  0.3297
 4149SOL    HW113346   1.633   5.579   6.059  2.1290  0.1892  0.4148
 4149SOL    HW213347   1.537   5.702   6.108  1.5109 -1.1009  2.6109
 4150SOL     OW13348   3.260   2.686   0.838  0.5714 -0.1584  0.3087
 4150SOL    HW113349   3.273   2.785   0.827  2.0928 -0.3391  0.2960
 4150SOL    HW213350   3.173   2.659   0.796  0.6217  1.0180 -0.6034
 4151SOL     OW13351   1.107   6.110   2.355  0.1081  0.4652  0.6149
 4151SOL    HW113352   1.158   6.060   2.284  1.1524 -0.8280  2.1962
 4151SOL    HW213353   1.116   6.208   2.340  3.1895  0.3272  0.8164
 4152SOL     OW13354   2.251   3.623   5.614 -0.3714 -0.2159 -0.8820
 4152SOL    HW113355   2.230   3.721   5.618  0.6599 -0.0258  0.2220
 4152SOL    HW213356   2.190   3.579   5.548 -1.3521  1.0354 -0.8487
 4153SOL     OW13357   2.132   1.504   6.829 -0.1873 -0.0840  0.1536
 4153SOL    HW113358   2.172   1.539   6.745 -1.0501  1.3774  0.3216
 4153SOL    HW213359   2.188   1.428   6.863  0.8458  0.0876 -1.0758
 4154SOL     OW13360   3.281   3.370   3.975  0.1329 -0.2772 -0.9396
 4154SOL    HW113361   3.314   3.280   4.007  0.4469 -0.0379 -0.5820
 4154SOL    HW213362   3.253   3.425   4.053 -1.7048 -0.6899 -1.2803
 4155SOL     OW13363   6.204   6.585   2.066  0.6922 -0.1514 -0.3308
 4155SOL    HW113364   6.152   6.668   2.085  1.0408  0.5653 -2.2846
 4155SOL    HW213365   6.301   6.601   2.085  0.9648  0.3946 -2.0359
 4156SOL     OW13366   0.744   2.764   6.281  0.5438 -0.1790 -0.1963
 4156SOL    HW113367   0.766   2.676   6.323  0.4086 -0.5571 -0.9121
 4156SOL    HW213368   0.822   2.826   6.291  0.0727  0.1662  1.7168
 4157SOL     OW13369   1.118   3.656   4.275  0.9346  0.6561 -0.2149
 4157SOL    HW113370   1.132   3.672   4.177 -0.1649  0.1102 -0.4773
 4157SOL    HW213371   1.191   3.598   4.310 -0.2567 -1.7454 -1.4267
 4158SOL     OW13372   3.631   0.771   5.592 -0.6308  0.4580 -0.0543
 4158SOL    HW113373   3.575   0.783   5.509 -0.9137  1.7902  0.3137
 4158SOL    HW213374   3.608   0.842   5.658  1.7937  1.3462 -0.0551
 4159SOL     OW13375   6.893   6.489   6.784 -0.4805  0.5101 -0.3041
 4159SOL    HW113376   6.854   6.572   6.824  2.0118 -0.0163  3.9118
 4159SOL    HW213377   6.991   6.504   6.768 -0.0816 -1.4496  0.1339
 4160SOL     OW13378   3.436   5.393   3.185  0.6984  0.1113 -0.5267
 4160SOL    HW113379   3.520   5.340   3.169  0.4121 -0.2757 -0.7758
 4160SOL    HW213380   3.447   5.484   3.144  0.6932 -0.2214 -1.2998
 4161SOL     OW13381   1.985   1.747   6.077 -0.1970  0.0511 -0.3440
 4161SOL    HW113382   2.083   1.766   6.078 -0.1734 -0.0054 -1.1031
 4161SOL    HW213383   1.969   1.651   6.096 -0.0384 -0.1614 -1.2429
 4162SOL     OW13384   0.257   2.912   3.759  0.1102  0.2349  0.2732
 4162SOL    HW113385   0.239   3.010   3.766 -0.2642  0.1152  1.0015
 4162SOL    HW213386   0.299   2.893   3.670 -2.3152  0.6738 -1.0480
 4163SOL     OW13387   5.593   3.421   0.006  0.5353  0.7697 -0.0819
 4163SOL    HW113388   5.570   3.466   0.092 -0.0530 -1.0695  0.7735
 4163SOL    HW213389   5.517   3.361  -0.022  2.2511 -1.7529  0.2818
 4164SOL     OW13390   0.194   1.533   2.976  0.0211  1.0502 -0.1689
 4164SOL    HW113391   0.197   1.607   3.043 -0.8048  0.3285  0.6819
 4164SOL    HW213392   0.245   1.454   3.011  0.2754  0.9437 -0.7549
 4165SOL     OW13393   0.843   6.606   1.444 -0.2339 -0.1096 -0.5985
 4165SOL    HW113394   0.859   6.507   1.448 -1.7273 -0.3727 -0.0665
 4165SOL    HW213395   0.928   6.654   1.423  0.7719 -1.4247  0.3231
 4166SOL     OW13396   7.002   3.349   0.755  0.7583 -0.3559 -0.4798
 4166SOL    HW113397   7.029   3.255   0.740 -2.8824 -1.7442  0.5686
 4166SOL    HW213398   6.994   3.367   0.853 -0.7525  0.2756 -0.6829
 4167SOL     OW13399   2.211   0.434   1.853  0.5125 -0.3398  0.7952
 4167SOL    HW113400   2.175   0.390   1.770 -0.7946 -0.3256  1.3224
 4167SOL    HW213401   2.257   0.366   1.909  0.4435 -0.5810  0.5653
 4168SOL     OW13402   2.590   2.306   1.649  0.2583  0.4599  0.5218
 4168SOL    HW113403   2.572   2.216   1.687 -1.7300  0.9544  0.8535
 4168SOL    HW213404   2.621   2.367   1.722  3.0198 -0.2227  0.0632
 4169SOL     OW13405   6.183   4.034   5.152 -0.0500 -0.8960  0.2809
 4169SOL    HW113406   6.176   4.078   5.242  0.5115 -0.3341  0.0581
 4169SOL    HW213407   6.249   3.959   5.158 -0.8326 -1.5788  0.6019
 4170SOL     OW13408   5.876   3.675   5.812 -0.2956 -0.0280  0.5425
 4170SOL    HW113409   5.783   3.640   5.824 -0.8824  1.5654  0.7473
 4170SOL    HW213410   5.909   3.651   5.721 -1.9603  1.7268 -0.5797
 4171SOL     OW13411   1.693   0.849   2.520 -0.3676  0.3451 -0.0815
 4171SOL    HW113412   1.755   0.780   2.484  0.1446 -0.9478  2.9670
 4171SOL    HW213413   1.734   0.940   2.511  0.0782  0.0122 -1.8060
 4172SOL     OW13414   0.019   6.330   5.437 -0.5473 -0.3843  0.2657
 4172SOL    HW113415   0.072   6.410   5.409  1.2607 -1.6566 -0.1392
 4172SOL    HW213416  -0.064   6.324   5.381  0.5000 -0.1062 -1.3876
 4173SOL     OW13417   6.882   1.816   0.120 -0.4395  0.1302 -0.0151
 4173SOL    HW113418   6.932   1.778   0.199 -1.0037 -0.8607 -0.1170
 4173SOL    HW213419   6.882   1.916   0.126  1.4093  0.1741  0.0756
 4174SOL     OW13420   6.979   4.054   0.886 -0.0476  0.3920  0.0846
 4174SOL    HW113421   6.940   4.145   0.902  0.0170  0.3789  0.3203
 4174SOL    HW213422   7.023   4.022   0.970  0.0535  0.2036 -0.0410
 4175SOL     OW13423   2.647   5.263   0.252 -0.1579 -0.3963  0.6437
 4175SOL    HW113424   2.746   5.277   0.252  0.1315 -1.7794 -1.7918
 4175SOL    HW213425   2.626   5.179   0.301 -0.1626 -0.0265  1.2877
 4176SOL     OW13426   5.723   0.393   2.013 -0.2313 -0.7203 -0.2942
 4176SOL    HW113427   5.798   0.443   2.055 -0.2704 -1.5643  0.8357
 4176SOL    HW213428   5.670   0.454   1.956  1.2985 -0.0986 -1.1150
 4177SOL     OW13429   3.390   3.243   1.481  0.4675 -0.4942 -0.3273
 4177SOL    HW113430   3.300   3.200   1.481  0.1337  0.1529  0.8529
 4177SOL    HW213431   3.455   3.185   1.434 -0.5925 -0.9118 -1.3368
 4178SOL     OW13432   3.326   4.024   0.710  0.0165  0.4987 -0.6729
 4178SOL    HW113433   3.228   4.041   0.717  0.0820  0.3920  0.7155
 4178SOL    HW213434   3.372   4.059   0.791  1.0945  0.2494 -1.1570
 4179SOL     OW13435   5.709   2.949   1.941  0.3841 -0.2609  0.0175
 4179SOL    HW113436   5.759   3.026   1.902 -0.7376  1.5403  1.9114
 4179SOL    HW213437   5.646   2.982   2.012 -1.6291 -2.6873 -0.4709
 4180SOL     OW13438   5.084   2.581   3.604 -0.0793 -0.4774  0.1695
 4180SOL    HW113439   5.018   2.541   3.541  0.7841  0.3842 -1.3531
 4180SOL    HW213440   5.102   2.518   3.679 -2.2642 -0.9121  0.3797
 4181SOL     OW13441   0.213   1.272   2.834 -0.3927 -0.2597 -0.2671
 4181SOL    HW113442   0.157   1.190   2.842 -0.0438 -0.6102 -1.2104
 4181SOL    HW213443   0.283   1.273   2.906  0.3457 -1.4044 -0.9343
 4182SOL     OW13444   6.152   1.112   5.729 -0.0062 -0.2001  0.0655
 4182SOL    HW113445   6.102   1.050   5.668 -1.7740  0.7506  0.4926
 4182SOL    HW213446   6.190   1.187   5.675 -2.0442  0.9467  0.1111
 4183SOL     OW13447   0.149   4.631   4.473 -0.1964 -0.4928 -0.0714
 4183SOL    HW113448   0.226   4.694   4.485 -1.6386  1.1153  1.5059
 4183SOL    HW213449   0.154   4.589   4.383  0.0887  3.0343 -1.8857
 4184SOL     OW13450   5.330   4.365   0.236 -0.6538 -0.2908  0.1681
 4184SOL    HW113451   5.352   4.315   0.319  0.5626  1.7606  1.1545
 4184SOL    HW213452   5.233   4.388   0.235 -0.6808 -0.3393  1.0352
 4185SOL     OW13453   6.826   1.192   6.801 -0.5646 -0.2962 -0.5704
 4185SOL    HW113454   6.780   1.197   6.712 -1.6671  0.8783  0.0242
 4185SOL    HW213455   6.794   1.267   6.859  1.2973 -0.1129  0.2951
 4186SOL     OW13456   3.556   1.902   0.013 -0.0873 -0.6354 -0.0896
 4186SOL    HW113457   3.528   1.968   0.082 -0.0408 -0.3539 -0.3362
 4186SOL    HW213458   3.475   1.870  -0.037 -0.0196 -0.0612 -0.5893
 4187SOL     OW13459   0.519   1.974   4.641  0.5057  0.1059  0.2190
 4187SOL    HW113460   0.487   2.017   4.557 -0.6462 -3.5619 -1.4264
 4187SOL    HW213461   0.619   1.968   4.639  0.5034  0.2359 -0.8129
 4188SOL     OW13462   3.197   2.467   0.153 -0.3133 -0.3910  0.4611
 4188SOL    HW113463   3.277   2.494   0.100 -0.2151  2.0453  1.6726
 4188SOL    HW213464   3.221   2.392   0.215  0.6465 -0.5921 -0.1371
 4189SOL     OW13465   4.707   6.545   6.823 -0.0468  0.3752  0.2291
 4189SOL    HW113466   4.614   6.574   6.845 -0.2135  0.8416 -1.0362
 4189SOL    HW213467   4.760   6.535   6.908 -1.0266  0.8401  0.9077
 4190SOL     OW13468   6.744   3.905   6.671 -0.2386  0.1537 -0.0427
 4190SOL    HW113469   6.704   3.904   6.763  0.4732 -1.4300  0.2907
 4190SOL    HW213470   6.673   3.893   6.603 -0.5173 -1.2313  0.4635
 4191SOL     OW13471   4.012   0.229   2.035 -0.0521  0.5251 -0.1477
 4191SOL    HW113472   3.986   0.316   1.995  0.0081  1.4773  1.7760
 4191SOL    HW213473   3.936   0.192   2.089  0.8163  0.8390  1.3691
 4192SOL     OW13474   5.732   0.420   5.614  0.8940 -0.2636  0.4901
 4192SOL    HW113475   5.654   0.481   5.631 -1.3655 -3.2294  1.6510
 4192SOL    HW213476   5.799   0.430   5.687  1.9472  2.6164 -0.7261
 4193SOL     OW13477   2.589   4.793   4.164 -0.3437  0.2132 -0.3619
 4193SOL    HW113478   2.510   4.828   4.113 -0.9446  0.6671  0.8375
 4193SOL    HW213479   2.613   4.702   4.129 -2.0267 -0.3640 -0.1014
 4194SOL     OW13480   0.011   5.286   7.013 -0.4766 -0.1911  0.2331
 4194SOL    HW113481   0.035   5.328   7.100  0.2086  0.8325 -0.4223
 4194SOL    HW213482  -0.026   5.195   7.028 -2.3424  0.7473  1.7597
 4195SOL     OW13483   5.962   1.818   2.588  0.6905  0.5314 -0.4161
 4195SOL    HW113484   5.884   1.791   2.532  0.1111  0.5899  0.3315
 4195SOL    HW213485   5.929   1.848   2.678  1.5291  1.1748 -0.3100
 4196SOL     OW13486   3.068   1.753   2.200  0.4358 -0.0540  0.2625
 4196SOL    HW113487   3.103   1.841   2.169 -0.6711 -0.0216 -0.9374
 4196SOL    HW213488   3.103   1.680   2.142 -1.1578 -0.0544 -0.7610
 4197SOL     OW13489   0.661   5.295   5.958  0.1558 -0.5298  0.1558
 4197SOL    HW113490   0.760   5.295   5.948  0.1832 -0.1279  0.4274
 4197SOL    HW213491   0.637   5.305   6.054 -0.1335 -2.5837  0.3489
 4198SOL     OW13492   6.350   0.447   2.229 -0.2502  0.5152 -0.0348
 4198SOL    HW113493   6.358   0.404   2.139  1.6833 -1.1242  0.8329
 4198SOL    HW213494   6.415   0.522   2.236 -1.5912  1.7746 -0.5369
 4199SOL     OW13495   0.251   1.851   1.011  0.3610 -0.7781 -0.8712
 4199SOL    HW113496   0.213   1.773   1.060  1.1265  0.2624  1.4852
 4199SOL    HW213497   0.306   1.819   0.934  2.0549 -2.6988  1.0213
 4200SOL     OW13498   0.695   0.048   6.243  0.0630 -0.3652  0.4318
 4200SOL    HW113499   0.788   0.023   6.216 -0.3408 -2.1993  0.6148
 4200SOL    HW213500   0.639   0.058   6.160 -0.2546 -2.2093  0.3776
 4201SOL     OW13501   6.794   3.395   6.448 -0.4381 -0.2436  0.0699
 4201SOL    HW113502   6.829   3.489   6.444  0.4058 -0.5731 -0.6667
 4201SOL    HW213503   6.747   3.373   6.363 -1.1248 -0.3155  0.4608
 4202SOL     OW13504   1.054   6.922   1.026  0.4100  0.6929  0.1726
 4202SOL    HW113505   1.083   7.018   1.025  0.9232  0.5400 -0.9464
 4202SOL    HW213506   1.131   6.864   1.052  0.2566  0.5246  0.2578
 4203SOL     OW13507   6.626   1.433   2.086  0.3084 -0.2002 -0.0146
 4203SOL    HW113508   6.704   1.495   2.082 -0.3803  0.6839 -0.0067
 4203SOL    HW213509   6.588   1.432   2.178  0.3349 -0.6626 -0.0062
 4204SOL     OW13510   2.022   0.286   4.236 -0.1824  0.0146  0.1779
 4204SOL    HW113511   2.055   0.380   4.244 -1.6086  0.4723  0.9864
 4204SOL    HW213512   2.005   0.265   4.140  1.2857  0.1427 -0.1459
 4205SOL     OW13513   2.856   0.146   3.498 -0.6763 -0.3866 -0.1074
 4205SOL    HW113514   2.848   0.073   3.430 -0.5902  0.0184 -0.5616
 4205SOL    HW213515   2.951   0.176   3.503 -0.5726 -0.8338  0.6418
 4206SOL     OW13516   2.809   4.192   0.513 -0.5897  0.0996 -0.2569
 4206SOL    HW113517   2.845   4.266   0.455 -0.1576  0.8878  0.9642
 4206SOL    HW213518   2.733   4.147   0.466  0.3212  0.0989 -1.8056
 4207SOL     OW13519   2.093   2.479   5.835 -0.6395  0.2471 -0.0961
 4207SOL    HW113520   2.066   2.484   5.931 -2.0132  0.0807 -0.4571
 4207SOL    HW213521   2.083   2.385   5.803  1.5217 -0.0806  0.0502
 4208SOL     OW13522   6.082   6.414   5.719 -0.3705 -0.2056 -0.4728
 4208SOL    HW113523   6.062   6.435   5.623 -0.6585  0.7751 -0.2164
 4208SOL    HW213524   6.124   6.494   5.762 -0.9992 -0.3440  0.4291
 4209SOL     OW13525   3.357   1.251   1.575  0.5544  0.1185  0.5008
 4209SOL    HW113526   3.378   1.197   1.494  1.2011  0.7821  0.2186
 4209SOL    HW213527   3.422   1.228   1.648  0.1131 -0.3127  0.7677
 4210SOL     OW13528   3.691   3.082   0.480  0.3175 -0.3482 -0.8247
 4210SOL    HW113529   3.773   3.138   0.471 -0.8894  1.4136 -1.3939
 4210SOL    HW213530   3.628   3.101   0.404 -2.1777  1.1023  1.4333
 4211SOL     OW13531   2.233   0.682   3.119  0.4199  0.5412  0.8031
 4211SOL    HW113532   2.168   0.607   3.118  1.5264 -0.5612 -2.8219
 4211SOL    HW213533   2.190   0.765   3.083  0.8765 -0.1716 -1.5344
 4212SOL     OW13534   3.170   5.594   2.567  0.2129 -0.7347  0.9450
 4212SOL    HW113535   3.195   5.690   2.580 -1.6219  0.0453 -0.8414
 4212SOL    HW213536   3.249   5.536   2.588  3.2381  1.4327 -3.0970
 4213SOL     OW13537   4.943   6.365   6.498 -0.7147 -0.5109 -0.0304
 4213SOL    HW113538   4.892   6.295   6.549 -1.5744 -0.1277 -0.3487
 4213SOL    HW213539   4.939   6.452   6.546  1.4672 -0.9252  1.0566
 4214SOL     OW13540   6.016   3.684   6.084 -0.7394  0.4757  0.1707
 4214SOL    HW113541   5.992   3.652   6.175  0.1166  1.1610  0.6411
 4214SOL    HW213542   5.958   3.637   6.016 -1.1828 -0.2392  1.0284
 4215SOL     OW13543   2.511   6.227   2.197 -0.0936  0.1228 -0.6145
 4215SOL    HW113544   2.580   6.156   2.207  0.4196  0.5922 -0.8175
 4215SOL    HW213545   2.439   6.213   2.266 -0.1294 -0.7332 -0.8149
 4216SOL     OW13546   1.054   4.947   5.468 -0.1682 -0.2454 -0.2117
 4216SOL    HW113547   0.985   4.909   5.408 -0.2214 -0.0957 -0.2451
 4216SOL    HW213548   1.070   5.043   5.445 -2.5877  0.8450  2.1028
 4217SOL     OW13549   2.158   0.336   4.499 -0.0583 -0.3030  0.1822
 4217SOL    HW113550   2.229   0.363   4.435 -1.0171  0.6507 -0.5118
 4217SOL    HW213551   2.068   0.346   4.456 -0.7186  0.2907  1.6316
 4218SOL     OW13552   2.133   3.228   3.589 -0.6264  0.4587  0.0886
 4218SOL    HW113553   2.137   3.140   3.541 -0.6894  1.0104 -0.9536
 4218SOL    HW213554   2.146   3.303   3.524 -0.6510  1.2344  0.9469
 4219SOL     OW13555   1.249   5.640   2.021 -0.9448  0.1342 -0.1663
 4219SOL    HW113556   1.266   5.560   2.079 -2.0397  0.7494  1.0560
 4219SOL    HW213557   1.216   5.715   2.077 -1.8602  0.8304 -1.5798
 4220SOL     OW13558   3.530   5.616   4.215 -0.1919 -0.3633 -0.8928
 4220SOL    HW113559   3.552   5.629   4.312  0.9636  2.4172 -1.4404
 4220SOL    HW213560   3.431   5.623   4.202 -0.3397 -0.5769  0.0299
 4221SOL     OW13561   5.126   1.521   6.158  0.0523  0.4043 -0.1741
 4221SOL    HW113562   5.141   1.427   6.189  2.7270  0.9362  0.4431
 4221SOL    HW213563   5.179   1.536   6.074  0.5000  1.6200  0.3027
 4222SOL     OW13564   2.675   4.391   6.961 -0.0167 -0.1703  0.4223
 4222SOL    HW113565   2.772   4.410   6.945 -0.1927  1.4562  1.0758
 4222SOL    HW213566   2.621   4.472   6.938 -0.9761 -0.1945  2.3997
 4223SOL     OW13567   1.371   5.062   1.908  0.9498  0.1729  0.2188
 4223SOL    HW113568   1.274   5.068   1.931  0.3845 -0.7244 -1.7193
 4223SOL    HW213569   1.426   5.075   1.991 -0.8263  0.0287  1.4750
 4224SOL     OW13570   5.757   2.709   1.422 -0.3731  0.1655 -0.6221
 4224SOL    HW113571   5.841   2.749   1.459 -1.5833  1.9776  0.3170
 4224SOL    HW213572   5.724   2.765   1.346 -1.7169  0.5900  0.2419
 4225SOL     OW13573   6.820   6.334   4.175  0.2468  1.0147  0.2356
 4225SOL    HW113574   6.820   6.274   4.254  0.2747  1.3010  0.4530
 4225SOL    HW213575   6.733   6.385   4.170  0.0435  0.6383 -0.1928
 4226SOL     OW13576   5.606   6.658   4.139 -0.3400  0.7339 -0.5734
 4226SOL    HW113577   5.607   6.680   4.236 -0.3071 -1.4998 -0.0043
 4226SOL    HW213578   5.700   6.652   4.105 -0.2436 -0.9487 -0.0821
 4227SOL     OW13579   4.664   0.854   4.092  0.1138 -0.6193  0.2472
 4227SOL    HW113580   4.699   0.930   4.037  2.0920 -1.6905 -0.0668
 4227SOL    HW213581   4.730   0.779   4.093 -2.2490 -2.8866 -0.4574
 4228SOL     OW13582   6.840   5.288   4.261  0.3234 -0.4403 -0.6220
 4228SOL    HW113583   6.841   5.221   4.335  1.3575 -0.0080 -0.2341
 4228SOL    HW213584   6.891   5.369   4.288 -1.5942  0.8677 -0.7769
 4229SOL     OW13585   1.316   6.020   3.416 -0.2912 -0.1441 -0.1966
 4229SOL    HW113586   1.394   5.973   3.375 -0.2926  0.3375 -0.7570
 4229SOL    HW213587   1.304   6.110   3.373 -0.6902  0.0998  0.4089
 4230SOL     OW13588   4.726   4.154   5.121 -0.0543  0.0655 -0.1044
 4230SOL    HW113589   4.640   4.155   5.173 -0.2948  0.2087 -0.5013
 4230SOL    HW213590   4.708   4.181   5.027  0.2389 -0.9950 -0.4841
 4231SOL     OW13591   3.723   1.300   3.198  0.0271  0.1262 -0.2514
 4231SOL    HW113592   3.781   1.232   3.245 -2.7614 -1.2271  1.4857
 4231SOL    HW213593   3.779   1.351   3.133  2.6622 -2.6564 -0.4212
 4232SOL     OW13594   5.949   1.964   1.915 -0.0842  0.2434  0.0916
 4232SOL    HW113595   6.041   1.942   1.883 -0.2614 -1.9742  0.9121
 4232SOL    HW213596   5.916   2.047   1.869  1.8859  0.4707 -1.0051
 4233SOL     OW13597   1.645   0.268   0.817 -0.1011 -0.8530  0.2873
 4233SOL    HW113598   1.627   0.361   0.848 -0.5014 -1.0688  0.7351
 4233SOL    HW213599   1.666   0.268   0.720  0.6626 -0.2108  0.4394
 4234SOL     OW13600   6.565   6.499   4.019  0.0263  0.6040 -0.1888
 4234SOL    HW113601   6.564   6.586   3.970 -0.3974  0.7182  0.0173
 4234SOL    HW213602   6.570   6.516   4.117 -0.4277  0.4062 -0.1305
 4235SOL     OW13603   7.013   0.729   3.263  0.0262 -0.5285 -0.1769
 4235SOL    HW113604   6.985   0.814   3.219  1.7170  0.2299  0.1463
 4235SOL    HW213605   7.066   0.674   3.199  1.6522  0.1307  0.5638
 4236SOL     OW13606   5.688   1.698   4.115 -0.3301  0.2263 -0.1082
 4236SOL    HW113607   5.754   1.773   4.104  0.5424 -0.4038  0.7375
 4236SOL    HW213608   5.703   1.630   4.044  0.2331 -0.1388  0.3615
 4237SOL     OW13609   5.552   4.274   2.830  0.1455 -0.4414 -0.3832
 4237SOL    HW113610   5.543   4.194   2.889 -1.4375 -2.1433 -2.7131
 4237SOL    HW213611   5.461   4.301   2.798  0.7958  1.4822 -0.7042
 4238SOL     OW13612   1.436   4.199   0.000  0.4288 -0.0740 -0.6448
 4238SOL    HW113613   1.520   4.164  -0.040  0.6210 -0.3110 -0.0480
 4238SOL    HW213614   1.452   4.226   0.095  0.4174  2.1384 -1.2049
 4239SOL     OW13615   1.673   6.223   1.422  0.4116  0.2841  0.1797
 4239SOL    HW113616   1.603   6.275   1.470 -1.3412 -2.0265  0.3190
 4239SOL    HW213617   1.756   6.279   1.412 -0.2662  1.9590  2.9471
 4240SOL     OW13618   5.467   6.800   6.210 -0.0638 -0.4658 -0.4230
 4240SOL    HW113619   5.406   6.835   6.282  2.1034  1.5875  0.5534
 4240SOL    HW213620   5.510   6.715   6.242 -2.3803 -2.0188 -1.1799
 4241SOL     OW13621   7.002   3.665   5.819  0.3044 -0.3382  1.1937
 4241SOL    HW113622   6.957   3.576   5.806 -0.5667  0.2610 -0.1045
 4241SOL    HW213623   7.093   3.661   5.776 -0.9460  0.3103 -1.7438
 4242SOL     OW13624   5.070   3.229   5.478  0.3706 -0.0149 -0.0338
 4242SOL    HW113625   5.070   3.253   5.381  2.5306  0.2900 -0.0101
 4242SOL    HW213626   5.056   3.131   5.488  0.5135 -0.1046 -0.6792
 4243SOL     OW13627   3.252   0.199   6.190 -0.3919 -0.0561  0.5485
 4243SOL    HW113628   3.226   0.294   6.177  2.6267  1.1608  2.4084
 4243SOL    HW213629   3.196   0.159   6.262 -1.2147  0.4846  0.2287
 4244SOL     OW13630   1.369   1.604   2.553 -0.4895  0.2369 -0.3878
 4244SOL    HW113631   1.428   1.682   2.572  0.9077 -0.1393 -2.8184
 4244SOL    HW213632   1.402   1.524   2.603  0.0027  0.4549 -0.3623
 4245SOL     OW13633   6.286   1.674   0.920 -0.8426  0.3473  0.1512
 4245SOL    HW113634   6.216   1.689   0.990 -0.3669 -2.9304  1.5028
 4245SOL    HW213635   6.376   1.690   0.958 -0.6696  0.9558 -0.4915
 4246SOL     OW13636   4.824   3.017   2.906  0.0188  0.3871 -0.5583
 4246SOL    HW113637   4.865   3.056   2.823 -1.1853  0.0535 -1.3401
 4246SOL    HW213638   4.742   2.965   2.881  0.3809 -0.8426  0.7059
 4247SOL     OW13639   4.769   4.914   3.009  0.0853 -0.2093  0.2017
 4247SOL    HW113640   4.863   4.946   3.022 -0.3093  0.9901  0.1705
 4247SOL    HW213641   4.757   4.827   3.057  1.2869 -0.5359 -0.0392
 4248SOL     OW13642   2.267   6.584   0.379  0.2591  0.2592 -0.1489
 4248SOL    HW113643   2.219   6.570   0.465 -0.6721  1.0499 -0.5211
 4248SOL    HW213644   2.241   6.673   0.340  2.8439  1.2713  0.1835
 4249SOL     OW13645   5.561   4.509   0.118 -0.3250  0.1956 -0.0877
 4249SOL    HW113646   5.558   4.583   0.050 -0.4090  1.1628  0.9332
 4249SOL    HW213647   5.472   4.503   0.165  0.5372  1.4299  1.8394
 4250SOL     OW13648   6.520   4.927   0.170 -0.1681  0.5621  0.1198
 4250SOL    HW113649   6.452   4.855   0.184 -0.9049  1.2534  0.1601
 4250SOL    HW213650   6.478   5.017   0.184  0.3793  1.0783 -1.2807
 4251SOL     OW13651   2.412   1.205   3.850  0.5140 -0.2020 -0.3261
 4251SOL    HW113652   2.454   1.296   3.847 -0.2397  0.2817  1.7955
 4251SOL    HW213653   2.447   1.155   3.930 -0.5316 -1.0194 -0.3586
 4252SOL     OW13654   0.116   4.787   5.450 -0.6118 -0.0820 -0.3022
 4252SOL    HW113655   0.187   4.730   5.409 -0.4896  0.3501 -0.7132
 4252SOL    HW213656   0.140   4.884   5.436 -0.4497  0.0803  0.9946
 4253SOL     OW13657   5.385   3.291   2.005  0.2000  0.7388 -0.0338
 4253SOL    HW113658   5.318   3.218   2.016 -0.9282  1.8420  0.6705
 4253SOL    HW213659   5.397   3.312   1.908  0.3205 -0.1723 -0.2203
 4254SOL     OW13660   3.471   6.608   5.524  0.3257  0.2017  0.4468
 4254SOL    HW113661   3.491   6.686   5.583 -2.4674  0.5973  0.9725
 4254SOL    HW213662   3.425   6.537   5.576  1.2791 -1.1095 -0.4366
 4255SOL     OW13663   4.452   0.431   6.340 -0.6765 -0.2658 -0.4033
 4255SOL    HW113664   4.385   0.506   6.342  0.5103  0.8254  0.2857
 4255SOL    HW213665   4.462   0.398   6.247 -2.3418 -0.6287 -0.4869
 4256SOL     OW13666   5.399   6.221   6.665 -0.2148  0.3879  0.0429
 4256SOL    HW113667   5.458   6.289   6.708 -0.4753  0.8679 -0.3525
 4256SOL    HW213668   5.308   6.260   6.650 -0.6263 -0.3245  0.5919
 4257SOL     OW13669   5.013   0.456   4.959 -0.4366  0.3409 -0.1110
 4257SOL    HW113670   5.086   0.510   5.002 -0.0431  0.5780 -1.0715
 4257SOL    HW213671   5.046   0.363   4.943 -0.8608  0.0160  0.8399
 4258SOL     OW13672   2.561   0.300   3.284 -0.0342  0.1236  0.3864
 4258SOL    HW113673   2.541   0.389   3.243 -1.4649  0.2680  1.3276
 4258SOL    HW213674   2.639   0.310   3.346  3.1029 -0.3886 -3.1151
 4259SOL     OW13675   4.385   5.572   2.225 -0.8489 -0.0136 -0.3291
 4259SOL    HW113676   4.384   5.657   2.277  0.7182 -0.0738 -0.1450
 4259SOL    HW213677   4.303   5.518   2.246 -0.1063 -0.2262  2.4061
 4260SOL     OW13678   4.739   3.775   6.699  0.0457  0.1046  0.3240
 4260SOL    HW113679   4.746   3.696   6.759  0.9911  0.2172  0.3747
 4260SOL    HW213680   4.656   3.766   6.642 -0.7608 -0.0785  1.4994
 4261SOL     OW13681   6.491   0.264   0.615 -0.3863  0.6676 -0.1492
 4261SOL    HW113682   6.433   0.250   0.536 -0.4713  1.1306 -0.1757
 4261SOL    HW213683   6.534   0.355   0.609 -0.4656  0.7434  0.3766
 4262SOL     OW13684   2.107   2.503   6.670  0.0910  0.0362 -0.5360
 4262SOL    HW113685   2.072   2.527   6.760  1.7621  0.5793 -0.0050
 4262SOL    HW213686   2.200   2.537   6.660  0.2837 -0.8649 -2.1089
 4263SOL     OW13687   4.338   0.717   3.465  0.3223  0.0099  0.1416
 4263SOL    HW113688   4.305   0.800   3.420 -0.1686  0.7718  1.8193
 4263SOL    HW213689   4.303   0.636   3.417  0.5090  0.7483 -1.2947
 4264SOL     OW13690   5.138   3.486   4.934  0.7208 -0.4364 -0.0826
 4264SOL    HW113691   5.167   3.470   4.839  1.5553  0.0259  0.0776
 4264SOL    HW213692   5.203   3.441   4.996 -0.3056 -1.4678  0.2628
 4265SOL     OW13693   1.509   6.408   4.672  1.1168 -0.0877  0.7678
 4265SOL    HW113694   1.418   6.450   4.667 -0.0587 -2.3401  1.5620
 4265SOL    HW213695   1.578   6.479   4.685 -0.7063  1.5845  1.9521
 4266SOL     OW13696   1.672   0.958   3.645  0.0037  0.3301  0.2495
 4266SOL    HW113697   1.605   0.965   3.718 -0.3827 -0.6240 -0.0046
 4266SOL    HW213698   1.677   1.045   3.596  0.1981  0.9439  1.3375
 4267SOL     OW13699   0.684   0.201   5.507  0.7518  0.2529 -0.1911
 4267SOL    HW113700   0.767   0.177   5.558  1.3632 -0.5608 -1.5167
 4267SOL    HW213701   0.604   0.194   5.568  1.6378  1.1426  1.1231
 4268SOL     OW13702   4.475   6.313   0.213  0.0333  0.0037  0.8051
 4268SOL    HW113703   4.453   6.402   0.174 -3.3196 -1.3229 -0.6773
 4268SOL    HW213704   4.458   6.314   0.311 -1.8113  0.5245  0.5067
 4269SOL     OW13705   3.071   5.742   6.131  0.2985 -0.1402  0.3436
 4269SOL    HW113706   3.058   5.755   6.229  0.4224  1.4046  0.1802
 4269SOL    HW213707   3.017   5.809   6.081 -1.5775 -2.3131 -0.7665
 4270SOL     OW13708   6.547   5.616   4.146 -0.0168  1.0248 -0.0956
 4270SOL    HW113709   6.595   5.701   4.167 -0.6768  1.7450 -1.3667
 4270SOL    HW213710   6.485   5.631   4.069 -0.1906 -0.6021 -0.3102
 4271SOL     OW13711   0.858   1.731   4.170  0.0543  0.4236 -0.8185
 4271SOL    HW113712   0.886   1.825   4.150  0.3264  0.2757 -1.1530
 4271SOL    HW213713   0.821   1.726   4.262 -1.0306  1.0938 -1.1979
 4272SOL     OW13714   1.381   5.733   2.595 -0.6029 -0.6258  0.0902
 4272SOL    HW113715   1.380   5.698   2.689 -1.0258 -1.3225 -0.1648
 4272SOL    HW213716   1.405   5.659   2.533 -2.5014 -0.7533 -0.5585
 4273SOL     OW13717   5.635   1.164   5.206 -0.6576 -0.1968  0.3409
 4273SOL    HW113718   5.641   1.262   5.226 -1.2219 -0.1711  0.4104
 4273SOL    HW213719   5.641   1.112   5.290 -2.0137 -0.1370  0.4918
 4274SOL     OW13720   3.770   2.892   3.430  0.1789  0.2094 -0.2134
 4274SOL    HW113721   3.828   2.839   3.368 -0.1540 -0.0639 -0.2933
 4274SOL    HW213722   3.778   2.989   3.408  1.1587  0.2397  0.2441
 4275SOL     OW13723   1.052   2.437   5.689 -0.8628 -0.5134 -0.1085
 4275SOL    HW113724   1.049   2.520   5.634 -0.6937  1.2173  2.3191
 4275SOL    HW213725   1.130   2.441   5.751 -2.0371 -1.4695  1.5102
 4276SOL     OW13726   1.062   6.679   5.510  0.1186  0.1073 -0.2444
 4276SOL    HW113727   1.137   6.700   5.448 -0.3018  3.2037  0.1570
 4276SOL    HW213728   1.067   6.737   5.591 -2.4315  0.1028  0.0011
 4277SOL     OW13729   3.310   6.238   6.382 -0.4970  1.0612  0.0416
 4277SOL    HW113730   3.343   6.333   6.390  2.3574  0.2435 -0.7131
 4277SOL    HW213731   3.325   6.206   6.289 -0.7998 -0.3525  0.4672
 4278SOL     OW13732   2.332   5.640   4.012 -0.1096 -0.7236  0.0607
 4278SOL    HW113733   2.400   5.608   3.947  1.6213  0.5386  1.1641
 4278SOL    HW213734   2.259   5.688   3.963  1.7520  1.2544 -0.9519
 4279SOL     OW13735   3.786   1.633   4.652 -0.0859  0.0840  0.3581
 4279SOL    HW113736   3.751   1.715   4.607  1.8574  0.1154 -1.2314
 4279SOL    HW213737   3.724   1.557   4.635  0.1696  0.2928 -1.7504
 4280SOL     OW13738   6.473   4.015   6.232  0.1282 -0.3346  0.0870
 4280SOL    HW113739   6.459   4.014   6.331  0.7179 -2.6909  0.1894
 4280SOL    HW213740   6.452   3.925   6.194  0.2943  0.4176 -1.8938
 4281SOL     OW13741   6.002   2.231   2.596  0.3894 -0.8626  0.8374
 4281SOL    HW113742   6.085   2.177   2.590  1.0985  0.3436 -1.4097
 4281SOL    HW213743   5.927   2.184   2.548  0.2785 -1.0793  1.2211
 4282SOL     OW13744   6.437   6.467   2.343  0.1294  0.5696  0.4896
 4282SOL    HW113745   6.489   6.543   2.381  0.3929  0.1815  0.9183
 4282SOL    HW213746   6.471   6.446   2.251 -0.2040  1.2139  0.2114
 4283SOL     OW13747   4.077   2.260   5.989 -0.3058  0.7403 -0.3216
 4283SOL    HW113748   4.034   2.172   6.007  0.7687  0.2690  0.0512
 4283SOL    HW213749   4.068   2.283   5.892  0.9450 -0.6657 -0.8195
 4284SOL     OW13750   6.239   5.906   5.529 -0.1335  0.2504  0.2315
 4284SOL    HW113751   6.140   5.903   5.545  0.2917  0.3218  3.6763
 4284SOL    HW213752   6.277   5.986   5.575  1.8285 -1.2692  1.3781
 4285SOL     OW13753   2.395   2.268   2.528  0.2680  0.0186 -0.0453
 4285SOL    HW113754   2.397   2.171   2.505 -0.4826 -0.1644  0.5772
 4285SOL    HW213755   2.327   2.283   2.601  0.4215  0.9964 -0.0886
 4286SOL     OW13756   0.173   1.351   6.654  0.1922 -0.2744  0.1327
 4286SOL    HW113757   0.227   1.270   6.630  1.7354  0.5464  0.6951
 4286SOL    HW213758   0.184   1.370   6.752 -0.1779  0.6045  0.0118
 4287SOL     OW13759   3.498   3.573   0.317  0.6793  0.0227  0.0847
 4287SOL    HW113760   3.595   3.580   0.292  1.1577 -0.6145  1.6235
 4287SOL    HW213761   3.482   3.487   0.365 -0.1469  1.1117  1.8825
 4288SOL     OW13762   6.926   3.587   2.994 -0.2017 -0.2343 -0.0297
 4288SOL    HW113763   6.984   3.618   2.918 -2.4535  3.5020 -0.4287
 4288SOL    HW213764   6.980   3.587   3.078  1.3000 -0.5963 -0.9321
 4289SOL     OW13765   2.895   6.217   2.481  0.0893 -0.3589 -0.0216
 4289SOL    HW113766   2.871   6.284   2.410  0.6964 -1.1822 -1.0250
 4289SOL    HW213767   2.887   6.260   2.571 -0.1105  0.8824 -0.6099
 4290SOL     OW13768   6.555   1.223   3.234 -0.2116  0.1893 -0.0830
 4290SOL    HW113769   6.625   1.263   3.292 -1.6851  3.1309 -0.1118
 4290SOL    HW213770   6.568   1.124   3.229  2.3196  0.3018  1.9660
 4291SOL     OW13771   0.333   3.584   4.168  0.3776  0.2404  0.3497
 4291SOL    HW113772   0.331   3.497   4.119 -1.0843  0.6733 -0.4466
 4291SOL    HW213773   0.249   3.594   4.221  0.4276  1.2456  0.2621
 4292SOL     OW13774   4.763   4.551   2.212 -0.2696 -0.8065 -0.6663
 4292SOL    HW113775   4.741   4.532   2.117 -0.0153 -0.3860 -0.8092
 4292SOL    HW213776   4.810   4.639   2.219 -0.7360 -0.5918 -0.0983
 4293SOL     OW13777   3.165   3.696   4.940 -0.2613  0.3431  0.3259
 4293SOL    HW113778   3.146   3.681   4.843 -0.5438  1.3173  0.2214
 4293SOL    HW213779   3.096   3.649   4.995  1.1828 -2.1840  0.1629
 4294SOL     OW13780   5.084   1.072   4.441  0.1517 -0.2615  0.0504
 4294SOL    HW113781   5.121   0.988   4.402 -0.5000 -0.1618 -0.7969
 4294SOL    HW213782   5.075   1.141   4.370 -1.5941 -0.2605  0.2467
 4295SOL     OW13783   2.273   6.204   2.827 -0.2567  0.5572  0.2093
 4295SOL    HW113784   2.348   6.270   2.839 -0.4831  0.6148  1.4830
 4295SOL    HW213785   2.308   6.112   2.845 -0.0219  0.3383 -1.2357
 4296SOL     OW13786   0.461   3.854   6.847  0.6287 -0.7578  0.1224
 4296SOL    HW113787   0.520   3.789   6.895  0.0316 -0.5075  1.2241
 4296SOL    HW213788   0.390   3.887   6.909  1.7631  2.0403  0.0498
 4297SOL     OW13789   1.106   2.314   4.049  0.5826  0.4911 -0.3021
 4297SOL    HW113790   1.203   2.291   4.048  0.7530  0.9021  1.5136
 4297SOL    HW213791   1.076   2.337   3.957  2.0266 -0.3068 -1.0168
 4298SOL     OW13792   6.450   0.046   3.551 -0.1163  0.7765  0.3361
 4298SOL    HW113793   6.426   0.087   3.639  0.8837  1.1788  0.4360
 4298SOL    HW213794   6.374   0.057   3.487 -1.0056  0.1110  1.2629
 4299SOL     OW13795   2.970   6.707   2.815  0.4276  0.3598  0.2191
 4299SOL    HW113796   2.936   6.621   2.851 -0.8248  1.3161  1.4475
 4299SOL    HW213797   3.054   6.733   2.864  0.1586  0.3875  0.6778
 4300SOL     OW13798   1.412   3.999   6.350  0.3109 -0.4064 -0.2478
 4300SOL    HW113799   1.508   4.017   6.367 -0.4932  2.7795  1.6884
 4300SOL    HW213800   1.363   3.997   6.437 -1.9171  2.0210 -1.3064
 4301SOL     OW13801   3.673   1.250   5.021  0.3073  0.8423  0.0317
 4301SOL    HW113802   3.574   1.251   5.011  0.2700 -0.4776  0.0244
 4301SOL    HW213803   3.697   1.259   5.118  0.0914 -0.5931  0.2397
 4302SOL     OW13804   3.698   0.037   1.827 -0.3583  0.0998 -0.0035
 4302SOL    HW113805   3.691   0.104   1.753  0.3469 -0.4321 -0.5612
 4302SOL    HW213806   3.615  -0.019   1.829  0.3905 -1.1802 -1.6878
 4303SOL     OW13807   5.430   5.823   6.041 -0.2496  0.0087  0.4544
 4303SOL    HW113808   5.406   5.729   6.067  1.0298 -0.2323  0.8507
 4303SOL    HW213809   5.353   5.883   6.059 -1.7574 -1.2226 -1.4614
 4304SOL     OW13810   0.641   3.758   5.861  0.4147  1.0446 -0.1781
 4304SOL    HW113811   0.543   3.773   5.877  0.0895 -0.5655 -0.5000
 4304SOL    HW213812   0.685   3.846   5.841 -1.2423  1.6420 -1.4517
 4305SOL     OW13813   1.696   0.495   0.242  0.2140 -0.2432 -0.1908
 4305SOL    HW113814   1.615   0.551   0.222  1.1910  0.5911 -2.1684
 4305SOL    HW213815   1.709   0.430   0.167  1.0310 -0.7701  0.4054
 4306SOL     OW13816   4.285   4.393   0.719  0.2816 -0.0868  0.1737
 4306SOL    HW113817   4.305   4.341   0.636  1.0036  0.9945 -0.3625
 4306SOL    HW213818   4.186   4.401   0.730  0.1644  0.3406 -0.9937
 4307SOL     OW13819   1.458   2.693   1.366  0.2784 -0.1940  0.3407
 4307SOL    HW113820   1.407   2.752   1.303  0.2214  0.0768  0.6330
 4307SOL    HW213821   1.414   2.603   1.371  0.4159 -0.2884 -0.1753
 4308SOL     OW13822   0.549   2.066   0.715 -0.0441  0.1569 -0.1693
 4308SOL    HW113823   0.629   2.008   0.701  1.1582  1.8158 -0.3895
 4308SOL    HW213824   0.562   2.122   0.796 -0.5009  1.1980 -0.7949
 4309SOL     OW13825   1.499   2.123   4.957  0.5702  0.6273 -0.5953
 4309SOL    HW113826   1.432   2.082   5.020  2.8142 -0.6675  1.1051
 4309SOL    HW213827   1.511   2.220   4.980  0.1726  0.5699 -0.1102
 4310SOL     OW13828   5.537   6.919   5.985  0.1133  0.7996 -0.1484
 4310SOL    HW113829   5.520   6.880   6.076  0.0275 -1.3631 -1.0253
 4310SOL    HW213830   5.479   6.999   5.972 -0.8867  0.3388  1.2072
 4311SOL     OW13831   0.179   2.463   3.683  0.0307 -0.3052 -0.3563
 4311SOL    HW113832   0.265   2.490   3.725 -0.3870  0.0546  0.2888
 4311SOL    HW213833   0.125   2.409   3.748 -1.4889  1.9239  0.3635
 4312SOL     OW13834   2.000   0.266   2.867  0.0007  0.1554 -0.2463
 4312SOL    HW113835   1.969   0.206   2.794 -1.4022  0.6534 -0.0826
 4312SOL    HW213836   2.059   0.214   2.930 -1.6173 -1.2206  0.1970
 4313SOL     OW13837   5.188   4.705   1.406  0.5272 -0.1495 -0.5222
 4313SOL    HW113838   5.123   4.640   1.448  0.1593 -1.2133 -2.6167
 4313SOL    HW213839   5.262   4.654   1.363  0.6288  0.8611 -1.5665
 4314SOL     OW13840   2.357   6.407   2.054 -0.0919  0.0964 -0.0001
 4314SOL    HW113841   2.343   6.489   2.109 -0.6594  1.2896 -1.8503
 4314SOL    HW213842   2.420   6.345   2.101  1.3152  2.1217  0.8958
 4315SOL     OW13843   4.213   5.741   2.528 -0.1352  0.0952 -0.7591
 4315SOL    HW113844   4.206   5.650   2.569  1.2387 -0.2953 -1.3196
 4315SOL    HW213845   4.122   5.774   2.503 -0.6717 -1.0344 -0.3583
 4316SOL     OW13846   5.122   4.931   6.413 -0.4057 -0.4041 -0.2453
 4316SOL    HW113847   5.029   4.915   6.444 -0.5645 -0.8901 -0.9629
 4316SOL    HW213848   5.131   5.026   6.383 -0.9743 -0.6599 -1.2295
 4317SOL     OW13849   0.113   6.511   4.689 -0.3003 -0.0963  0.0448
 4317SOL    HW113850   0.109   6.463   4.776 -0.5003  0.3937  0.3082
 4317SOL    HW213851   0.070   6.455   4.618 -0.8197 -0.1688  0.4120
 4318SOL     OW13852   4.461   5.375   1.498  0.6022 -0.4929  0.5103
 4318SOL    HW113853   4.505   5.314   1.432 -0.2497  0.8313 -1.3922
 4318SOL    HW213854   4.522   5.452   1.518  0.7053 -0.6917  0.9593
 4319SOL     OW13855   0.889   1.660   3.056 -0.4187 -0.3903 -0.2724
 4319SOL    HW113856   0.893   1.581   3.118 -0.4572 -1.1390 -1.2037
 4319SOL    HW213857   0.822   1.642   2.984 -1.1767  0.9238  0.0717
 4320SOL     OW13858   6.545   0.566   0.557 -0.1078 -0.3211  0.1358
 4320SOL    HW113859   6.476   0.612   0.612 -0.9672  0.0303 -1.1790
 4320SOL    HW213860   6.512   0.557   0.463  0.9974 -1.5754 -0.1640
 4321SOL     OW13861   5.310   5.729   5.400  0.4559 -0.5353  0.3786
 4321SOL    HW113862   5.332   5.710   5.304 -2.2040  1.1586 -0.6701
 4321SOL    HW213863   5.325   5.826   5.418 -1.6861 -0.2603  0.8485
 4322SOL     OW13864   5.014   1.488   2.738 -0.0372  0.4531  0.1764
 4322SOL    HW113865   5.044   1.494   2.643  2.4687  1.4381  0.9729
 4322SOL    HW213866   4.925   1.443   2.741 -0.4646  0.9154 -2.6653
 4323SOL     OW13867   0.082   3.659   2.801  0.0879 -0.2411 -0.2256
 4323SOL    HW113868   0.145   3.737   2.797  1.5919 -1.3633  0.4588
 4323SOL    HW213869   0.122   3.581   2.753 -1.1285 -0.7807 -0.4019
 4324SOL     OW13870   4.959   0.086   0.787  0.0963  0.2058  1.1552
 4324SOL    HW113871   4.978   0.152   0.860  1.0805 -0.6093  1.6682
 4324SOL    HW213872   4.889   0.123   0.726 -0.7911  0.8898  2.5386
 4325SOL     OW13873   4.085   6.619   1.040  0.2896  0.5821  0.3535
 4325SOL    HW113874   4.105   6.700   0.986  2.3609 -0.5808 -0.7434
 4325SOL    HW213875   3.998   6.631   1.088 -1.3637  1.9246 -2.6985
 4326SOL     OW13876   3.171   3.600   2.672  0.0633  0.3854  0.6353
 4326SOL    HW113877   3.106   3.658   2.623  1.0057  1.1733  0.2796
 4326SOL    HW213878   3.201   3.526   2.612  0.9228  1.1275  0.1242
 4327SOL     OW13879   5.373   6.052   2.128 -0.0144 -0.3532 -0.2601
 4327SOL    HW113880   5.300   6.004   2.080  0.4907  0.1195 -1.5441
 4327SOL    HW213881   5.339   6.141   2.160  0.0948  0.0438 -1.2156
 4328SOL     OW13882   1.747   2.149   6.224  0.2677  0.7076  0.1602
 4328SOL    HW113883   1.793   2.136   6.312  0.1118  0.4567  0.2039
 4328SOL    HW213884   1.814   2.142   6.150  0.1409 -0.7284  0.1501
 4329SOL     OW13885   0.741   0.312   4.381 -0.2918 -0.2475  0.4214
 4329SOL    HW113886   0.773   0.401   4.349 -0.4584 -0.2370  0.2841
 4329SOL    HW213887   0.674   0.276   4.317 -0.1430 -0.5228  0.4194
 4330SOL     OW13888   2.172   3.757   5.068 -0.5396  0.5228  0.4772
 4330SOL    HW113889   2.200   3.848   5.038 -2.8290  0.9291 -0.6092
 4330SOL    HW213890   2.160   3.698   4.987 -2.6805  0.3815  0.8423
 4331SOL     OW13891   1.223   3.550   1.966  0.2801  0.6888 -0.2464
 4331SOL    HW113892   1.253   3.515   2.055 -0.0835 -0.1825 -0.4554
 4331SOL    HW213893   1.214   3.649   1.971 -0.9016  0.5533  1.0625
 4332SOL     OW13894   5.561   2.444   0.300  0.5064  0.3925  0.2302
 4332SOL    HW113895   5.606   2.459   0.212  0.2658 -0.6533 -0.0913
 4332SOL    HW213896   5.617   2.383   0.357  0.3633  0.5549  0.5518
 4333SOL     OW13897   3.481   3.424   1.675 -0.0651  0.2263 -0.2217
 4333SOL    HW113898   3.449   3.362   1.603  0.0179  0.7450 -0.7116
 4333SOL    HW213899   3.538   3.373   1.740  1.3175  0.0903 -1.4749
 4334SOL     OW13900   0.292   4.027   2.135  0.4678  0.4753 -0.1313
 4334SOL    HW113901   0.205   4.063   2.100 -0.6389 -0.3462  1.5830
 4334SOL    HW213902   0.277   3.934   2.170  1.9970  0.4067  0.4079
 4335SOL     OW13903   6.842   1.624   0.620  0.2511  0.0776  0.3208
 4335SOL    HW113904   6.869   1.585   0.708 -1.4990  0.3666  1.0350
 4335SOL    HW213905   6.890   1.576   0.546  1.5846 -0.3142  1.4046
 4336SOL     OW13906   2.195   1.397   3.145  0.2033 -0.5167 -0.1965
 4336SOL    HW113907   2.157   1.418   3.236 -1.2404  0.1408 -0.9135
 4336SOL    HW213908   2.162   1.308   3.115 -1.7188  0.4942 -1.2557
 4337SOL     OW13909   0.334   2.791   3.221  0.2161  0.0948 -0.6303
 4337SOL    HW113910   0.272   2.865   3.248 -0.6580 -1.2209  1.2228
 4337SOL    HW213911   0.425   2.828   3.203 -0.0265  1.5615  0.9007
 4338SOL     OW13912   3.488   4.169   3.148  0.0749 -0.3412 -0.0711
 4338SOL    HW113913   3.566   4.161   3.086  0.1721  2.4013 -0.4305
 4338SOL    HW213914   3.404   4.176   3.094 -0.3988 -2.4721  0.2965
 4339SOL     OW13915   4.910   4.551   4.723 -0.5563  0.4565  0.2030
 4339SOL    HW113916   4.919   4.641   4.680  0.0102  0.2889 -0.0496
 4339SOL    HW213917   4.816   4.520   4.717 -0.7796  1.0854  0.3941
 4340SOL     OW13918   1.775   2.631   6.146  0.1194 -0.4177  0.3228
 4340SOL    HW113919   1.710   2.609   6.218 -1.7251  0.6919 -0.9204
 4340SOL    HW213920   1.858   2.670   6.186 -0.7497 -0.0767  1.8530
 4341SOL     OW13921   2.355   5.075   5.763  0.8780  0.1798  0.1864
 4341SOL    HW113922   2.391   5.031   5.681  0.6698 -1.5393  0.9815
 4341SOL    HW213923   2.256   5.085   5.755  0.6373 -1.4323  0.8446
 4342SOL     OW13924   5.861   3.409   6.102  0.0057 -0.7292  0.7231
 4342SOL    HW113925   5.792   3.365   6.159 -0.0868 -1.3418  0.1564
 4342SOL    HW213926   5.927   3.457   6.159  0.1910 -1.7314  1.3646
 4343SOL     OW13927   1.891   4.602   0.853  0.1067 -1.0278  0.5369
 4343SOL    HW113928   1.950   4.635   0.927 -3.1632  0.0607  2.8894
 4343SOL    HW213929   1.890   4.669   0.778  0.2554 -0.0305  1.4011
 4344SOL     OW13930   4.235   4.860   6.507 -0.2053 -0.0175 -0.4848
 4344SOL    HW113931   4.189   4.817   6.584 -1.4252  0.7105 -0.7748
 4344SOL    HW213932   4.289   4.792   6.458 -0.1211 -0.6696  0.4946
 4345SOL     OW13933   1.134   1.523   4.307 -0.2574  0.5894 -0.2841
 4345SOL    HW113934   1.046   1.528   4.260 -0.5534 -1.1350  0.0223
 4345SOL    HW213935   1.174   1.615   4.313 -0.7025  1.0151 -2.8742
 4346SOL     OW13936   6.343   5.215   2.481  0.7902  0.2453  0.4914
 4346SOL    HW113937   6.259   5.191   2.528  0.6488  0.6278  0.4410
 4346SOL    HW213938   6.377   5.303   2.516  2.1383 -0.7432  1.7893
 4347SOL     OW13939   0.892   4.218   5.602  0.2075  0.0056  0.3343
 4347SOL    HW113940   0.965   4.225   5.670  0.4061  0.7028  0.0661
 4347SOL    HW213941   0.884   4.124   5.570  0.6121 -0.1816  0.7792
 4348SOL     OW13942   1.477   4.500   2.735  0.3417  0.0187  0.4788
 4348SOL    HW113943   1.452   4.596   2.745  0.5737  0.3335 -1.5639
 4348SOL    HW213944   1.567   4.493   2.692 -0.5488 -1.0670 -1.3364
 4349SOL     OW13945   6.981   0.704   2.738 -0.0368  0.8953 -0.0329
 4349SOL    HW113946   6.929   0.644   2.798 -1.1469  0.4797 -1.3533
 4349SOL    HW213947   6.939   0.705   2.647 -0.2671  3.9698  0.0371
 4350SOL     OW13948   5.655   2.879   4.756  0.2533 -1.2527  0.5642
 4350SOL    HW113949   5.753   2.860   4.751  0.3911 -0.7503  1.1922
 4350SOL    HW213950   5.622   2.906   4.666  0.8685 -0.6341  0.5112
 4351SOL     OW13951   0.330   3.972   1.803  0.3506  0.3132  0.0105
 4351SOL    HW113952   0.306   3.981   1.706  0.6096  1.5784  0.0469
 4351SOL    HW213953   0.292   3.887   1.839  0.4238 -0.2839 -1.2517
 4352SOL     OW13954   1.166   5.725   1.318  0.2048 -0.7701 -0.0195
 4352SOL    HW113955   1.183   5.806   1.261  3.6481 -1.1250  0.2917
 4352SOL    HW213956   1.153   5.754   1.413 -0.0347 -0.5249 -0.1231
 4353SOL     OW13957   3.457   6.205   4.941 -0.1874  0.1990  0.1483
 4353SOL    HW113958   3.486   6.124   4.992  0.0227 -1.2073 -2.0595
 4353SOL    HW213959   3.530   6.233   4.878 -1.0556  0.7910 -0.6236
 4354SOL     OW13960   3.658   4.267   0.223  0.3472  0.1040  0.0980
 4354SOL    HW113961   3.602   4.290   0.303 -1.1291 -0.7676 -0.6487
 4354SOL    HW213962   3.689   4.352   0.180 -0.7162  0.6426  0.3309
 4355SOL     OW13963   3.774   0.557   4.157  0.1229  0.3199  0.2599
 4355SOL    HW113964   3.676   0.578   4.165  0.2279  1.0056 -0.1665
 4355SOL    HW213965   3.816   0.562   4.247 -0.2927 -0.2752  0.4902
 4356SOL     OW13966   3.289   6.303   2.638  0.4496 -0.3409  0.0144
 4356SOL    HW113967   3.373   6.357   2.630  0.3095  0.1052  1.3064
 4356SOL    HW213968   3.313   6.207   2.651  0.7382 -0.3079 -0.2402
 4357SOL     OW13969   0.646   3.160   1.662 -0.0099  0.5115  0.3647
 4357SOL    HW113970   0.628   3.249   1.619 -1.4505 -0.3375 -0.9013
 4357SOL    HW213971   0.576   3.143   1.732 -1.7398 -0.9604 -1.6163
 4358SOL     OW13972   1.012   6.297   3.076 -0.1324 -0.2145  0.2367
 4358SOL    HW113973   0.974   6.333   2.991 -1.3058  1.4510  1.4210
 4358SOL    HW213974   0.966   6.212   3.100  0.2942 -0.7655 -0.8296
 4359SOL     OW13975   6.654   4.747   5.420 -0.7587  0.3778  0.2932
 4359SOL    HW113976   6.614   4.753   5.329 -0.0170  1.0266 -0.0058
 4359SOL    HW213977   6.751   4.722   5.412  0.4477  4.2823  0.5763
 4360SOL     OW13978   1.338   0.290   6.373  0.2211 -0.1111 -0.0229
 4360SOL    HW113979   1.294   0.287   6.463  2.3974 -0.1509  1.0896
 4360SOL    HW213980   1.358   0.197   6.342  0.6888 -0.0355  0.0587
 4361SOL     OW13981   0.977   5.940   1.210  0.5566 -0.2385  0.0242
 4361SOL    HW113982   1.050   5.940   1.142  0.6248  0.4480  0.0915
 4361SOL    HW213983   0.924   5.855   1.202  0.4025 -0.0576 -1.0633
 4362SOL     OW13984   6.370   0.514   0.330 -0.0009  0.0601  0.1091
 4362SOL    HW113985   6.467   0.517   0.303 -0.5784  0.1435 -2.1506
 4362SOL    HW213986   6.336   0.420   0.320 -0.6350  0.3959 -1.0527
 4363SOL     OW13987   4.460   4.293   1.263  0.0188  0.5028  0.8028
 4363SOL    HW113988   4.549   4.333   1.284  1.0850 -0.3419 -1.8134
 4363SOL    HW213989   4.414   4.349   1.195 -1.0562  0.3804  1.4010
 4364SOL     OW13990   3.553   4.724   5.351  0.4392  0.0770  0.1451
 4364SOL    HW113991   3.489   4.784   5.303 -0.2944  0.5572  1.6363
 4364SOL    HW213992   3.644   4.766   5.352 -0.3116  1.8495  2.2089
 4365SOL     OW13993   6.790   3.209   2.642 -0.0987  0.5417 -0.4783
 4365SOL    HW113994   6.746   3.151   2.710 -0.2668  0.7336 -0.4229
 4365SOL    HW213995   6.827   3.152   2.568 -1.5843  0.4566 -1.1984
 4366SOL     OW13996   5.242   6.525   5.662  0.1246  0.3582  0.0509
 4366SOL    HW113997   5.265   6.455   5.730 -0.3876  1.3628  1.2902
 4366SOL    HW213998   5.167   6.491   5.604  0.5213 -0.4806  0.0151
 4367SOL     OW13999   2.416   3.261   0.866 -0.2914 -0.4275 -0.2712
 4367SOL    HW114000   2.443   3.349   0.903  1.2647 -0.1494 -1.9074
 4367SOL    HW214001   2.470   3.189   0.909 -0.2131 -0.3697 -0.2729
 4368SOL     OW14002   5.165   3.986   2.189 -0.1494  0.0481 -0.1419
 4368SOL    HW114003   5.149   4.025   2.280 -3.1507 -1.2175 -0.0316
 4368SOL    HW214004   5.154   4.057   2.120 -1.8423  0.2397  0.2795
 4369SOL     OW14005   3.409   2.078   4.096 -0.3795 -1.3698  0.5344
 4369SOL    HW114006   3.494   2.066   4.044 -0.4909 -1.8124  0.4548
 4369SOL    HW214007   3.431   2.092   4.192 -0.0802  0.9989  0.1816
 4370SOL     OW14008   6.099   0.951   3.803  0.1576 -0.1858  0.6663
 4370SOL    HW114009   6.116   1.006   3.721 -0.5779  1.1123  1.3559
 4370SOL    HW214010   6.186   0.916   3.839  0.4402 -1.2787 -0.9706
 4371SOL     OW14011   5.598   2.108   1.002 -0.1539  0.1908  0.3985
 4371SOL    HW114012   5.576   2.015   1.032 -1.2260  0.0990 -0.6056
 4371SOL    HW214013   5.516   2.165   1.005  0.4645  1.0779  0.8724
 4372SOL     OW14014   0.442   1.635   6.742 -0.1992 -0.1265  0.2315
 4372SOL    HW114015   0.379   1.562   6.716 -1.7394  0.9182  0.8705
 4372SOL    HW214016   0.512   1.599   6.804 -1.6006 -0.8483  1.4389
 4373SOL     OW14017   1.999   6.689   2.730 -0.6111  0.0009 -0.1606
 4373SOL    HW114018   1.944   6.768   2.757  0.5398  0.3555  1.3510
 4373SOL    HW214019   2.092   6.720   2.707 -0.4476 -0.7954 -0.6028
 4374SOL     OW14020   2.532   5.659   3.792 -0.5320  0.2949  0.1611
 4374SOL    HW114021   2.616   5.693   3.834  1.0533 -1.3390 -1.4836
 4374SOL    HW214022   2.495   5.730   3.731  0.0744  0.7747  0.3311
 4375SOL     OW14023   0.179   6.536   0.795  0.2295 -0.0117 -0.6156
 4375SOL    HW114024   0.087   6.535   0.833  0.3182 -1.3221 -0.3940
 4375SOL    HW214025   0.216   6.443   0.795  1.4828  0.4729 -0.8740
 4376SOL     OW14026   5.452   6.409   0.354 -0.0367  0.5317 -0.2058
 4376SOL    HW114027   5.421   6.381   0.444  1.1556 -0.4785 -0.0850
 4376SOL    HW214028   5.522   6.346   0.321  0.0742  1.2947 -1.5309
 4377SOL     OW14029   3.165   6.230   1.022  0.1450 -0.4008  0.3405
 4377SOL    HW114030   3.191   6.316   1.065 -3.5068  1.1230 -0.1428
 4377SOL    HW214031   3.206   6.224   0.931 -0.0643  1.1760  0.1241
 4378SOL     OW14032   2.742   1.586   4.707  0.2001 -0.1755  0.0891
 4378SOL    HW114033   2.797   1.503   4.714 -0.4100 -0.5380  0.7278
 4378SOL    HW214034   2.664   1.579   4.769 -0.3764  0.4685 -0.5484
 4379SOL     OW14035   6.147   4.739   1.024  0.2659 -0.1691  0.2906
 4379SOL    HW114036   6.209   4.662   1.013  0.7155  0.1257  0.6939
 4379SOL    HW214037   6.159   4.779   1.115  1.9061  1.9810 -0.7722
 4380SOL     OW14038   4.682   2.566   0.461  0.8841  0.5120 -0.7013
 4380SOL    HW114039   4.637   2.502   0.399  1.4736  0.1282 -0.7472
 4380SOL    HW214040   4.722   2.641   0.409 -0.4771  1.3639 -0.5828
 4381SOL     OW14041   4.004   6.894   5.275 -0.2184  0.2217 -0.3607
 4381SOL    HW114042   4.018   6.812   5.332 -0.5143  0.5518  0.1923
 4381SOL    HW214043   4.085   6.908   5.218  0.5754  0.5221  0.7982
 4382SOL     OW14044   3.136   4.028   2.124  0.2661 -0.1536 -0.2552
 4382SOL    HW114045   3.218   4.044   2.178  0.1895  0.1267 -0.2178
 4382SOL    HW214046   3.057   4.019   2.185  0.1271  0.4899 -0.3254
 4383SOL     OW14047   5.624   1.278   1.421  0.3124  0.0882  0.3028
 4383SOL    HW114048   5.643   1.274   1.519  1.6682  0.0287  0.0654
 4383SOL    HW214049   5.599   1.372   1.396 -0.5020  0.0067  0.7684
 4384SOL     OW14050   3.722   6.565   5.773 -0.1918  0.7970 -0.3887
 4384SOL    HW114051   3.626   6.596   5.777 -0.4086  0.0251  0.7914
 4384SOL    HW214052   3.781   6.644   5.755 -0.9825  1.3990 -0.4370
 4385SOL     OW14053   5.222   6.467   0.782  0.7349  0.0882 -0.1312
 4385SOL    HW114054   5.199   6.424   0.870 -0.4783 -0.6131 -0.7650
 4385SOL    HW214055   5.195   6.563   0.783 -0.2869 -0.1867 -0.0978
 4386SOL     OW14056   4.310   4.261   0.469  0.6688  0.1272  0.1144
 4386SOL    HW114057   4.345   4.174   0.434  0.4486  0.1429 -0.1491
 4386SOL    HW214058   4.337   4.335   0.408 -0.0434  0.1057 -0.2400
 4387SOL     OW14059   0.390   0.222   0.640 -0.7289  0.3073  0.3764
 4387SOL    HW114060   0.301   0.268   0.634 -1.6102 -1.2733  0.8456
 4387SOL    HW214061   0.391   0.143   0.579  0.4102  0.3663  0.2983
 4388SOL     OW14062   3.620   2.058   3.571  0.4281  0.3310  1.0553
 4388SOL    HW114063   3.665   2.003   3.641 -2.5292  0.2892  3.1399
 4388SOL    HW214064   3.523   2.033   3.565  0.0587  1.9278 -1.4916
 4389SOL     OW14065   2.493   6.392   5.926 -0.2297 -0.0075  0.2457
 4389SOL    HW114066   2.530   6.484   5.938  1.0684 -0.4237 -0.2852
 4389SOL    HW214067   2.508   6.339   6.010  0.2972 -0.1355  0.0771
 4390SOL     OW14068   1.614   2.833   6.454  0.2226 -0.5788 -0.7206
 4390SOL    HW114069   1.601   2.887   6.371  1.2376 -1.6468 -1.6053
 4390SOL    HW214070   1.606   2.736   6.433 -2.9890 -0.8564  1.0915
 4391SOL     OW14071   6.704   5.368   0.113  0.0392 -0.3336 -0.3260
 4391SOL    HW114072   6.775   5.334   0.051 -0.5941 -1.2229 -0.5870
 4391SOL    HW214073   6.621   5.314   0.100  0.0609 -0.9377  1.7155
 4392SOL     OW14074   1.577   1.952   6.143  0.4249  0.2390 -0.2446
 4392SOL    HW114075   1.630   2.030   6.178 -0.6534  1.2436 -0.7721
 4392SOL    HW214076   1.541   1.975   6.052  0.0837 -0.8869 -0.4069
 4393SOL     OW14077   4.702   5.329   6.179 -0.0762  0.0973 -0.6140
 4393SOL    HW114078   4.682   5.371   6.267  0.2211  0.1040 -0.5480
 4393SOL    HW214079   4.784   5.370   6.140  0.9344 -1.2409  0.0110
 4394SOL     OW14080   5.811   1.368   4.650 -0.2127  0.2583 -0.1618
 4394SOL    HW114081   5.803   1.300   4.723 -0.8947 -0.3019 -0.7462
 4394SOL    HW214082   5.838   1.456   4.689 -2.6392  0.5236  1.0799
 4395SOL     OW14083   3.384   0.476   2.214  0.4236  0.0389 -0.3387
 4395SOL    HW114084   3.470   0.447   2.173  1.3265  1.0040  0.7946
 4395SOL    HW214085   3.344   0.551   2.160  1.5295  1.2039  0.4096
 4396SOL     OW14086   6.333   1.491   6.698  0.2455 -0.3720 -0.3847
 4396SOL    HW114087   6.342   1.500   6.797  0.0166  2.3590 -0.5402
 4396SOL    HW214088   6.250   1.537   6.667 -1.0383 -3.3101 -1.6654
 4397SOL     OW14089   6.302   0.145   1.791  0.5517  0.0020  0.1505
 4397SOL    HW114090   6.243   0.065   1.797 -1.0600  1.1669  0.4178
 4397SOL    HW214091   6.263   0.211   1.727  1.0909  1.1979  1.0104
 4398SOL     OW14092   1.957   1.195   3.347 -0.6784 -0.1820  0.0049
 4398SOL    HW114093   1.870   1.236   3.320 -0.5179 -0.7164 -1.4088
 4398SOL    HW214094   2.016   1.265   3.386 -0.4177  0.9873 -2.3343
 4399SOL     OW14095   3.336   0.748   4.446  0.1950 -0.4354 -0.2902
 4399SOL    HW114096   3.385   0.776   4.528  0.9330 -0.5452 -0.6879
 4399SOL    HW214097   3.286   0.826   4.408  0.5898 -0.1622 -0.2504
 4400SOL     OW14098   4.275   6.823   0.945  0.2125 -0.5234  0.1517
 4400SOL    HW114099   4.253   6.919   0.930 -0.8550 -0.8980 -0.8689
 4400SOL    HW214100   4.275   6.804   1.043  0.7592  0.5764  0.3770
 4401SOL     OW14101   1.100   5.556   3.937  0.1071  0.0156 -0.2664
 4401SOL    HW114102   1.016   5.503   3.953  0.7666 -1.1991 -0.7123
 4401SOL    HW214103   1.168   5.533   4.006 -0.2615  1.8050  0.7453
 4402SOL     OW14104   5.417   1.436   5.518  0.5343  0.4497 -0.1484
 4402SOL    HW114105   5.424   1.453   5.420 -1.1904  0.0555 -0.3784
 4402SOL    HW214106   5.325   1.459   5.549  0.2659 -1.7583  0.8677
 4403SOL     OW14107   5.708   1.594   1.555 -0.4969 -0.2687  0.0027
 4403SOL    HW114108   5.784   1.631   1.608  1.2568  0.8087 -2.9664
 4403SOL    HW214109   5.688   1.656   1.478 -2.1763 -2.1609 -1.1923
 4404SOL     OW14110   3.492   1.557   3.842 -0.0795 -0.2732 -0.5186
 4404SOL    HW114111   3.569   1.506   3.880 -0.6793 -0.8457 -0.0683
 4404SOL    HW214112   3.459   1.512   3.759 -1.3491 -1.3056  0.5052
 4405SOL     OW14113   4.493   1.463   4.786  0.4012 -0.6135  0.1111
 4405SOL    HW114114   4.532   1.509   4.706  0.3748 -0.6009  0.1059
 4405SOL    HW214115   4.406   1.505   4.810 -0.5145 -1.8377 -0.9901
 4406SOL     OW14116   5.461   6.854   0.349  0.3265 -0.5136 -0.3359
 4406SOL    HW114117   5.371   6.839   0.391  1.4371 -2.8647  1.4045
 4406SOL    HW214118   5.480   6.780   0.285  1.0246  0.0034 -0.7453
 4407SOL     OW14119   4.810   1.553   4.985 -0.0738 -0.2072  0.2015
 4407SOL    HW114120   4.750   1.473   4.985 -0.5797  0.1760  0.1520
 4407SOL    HW214121   4.888   1.534   4.925 -0.1035 -0.7273  0.3165
 4408SOL     OW14122   6.173   0.910   1.309  0.2196 -0.4774 -0.1883
 4408SOL    HW114123   6.140   0.926   1.216  1.3665 -0.7082 -0.6457
 4408SOL    HW214124   6.113   0.844   1.354 -0.3175 -0.4007 -0.7790
 4409SOL     OW14125   2.544   5.143   3.673  0.6250 -0.4267  0.5917
 4409SOL    HW114126   2.594   5.114   3.754  0.2495 -0.5311  0.7865
 4409SOL    HW214127   2.567   5.238   3.653  0.3073 -0.2295  1.1374
 4410SOL     OW14128   5.067   2.995   1.259  0.6613 -0.2657  0.1935
 4410SOL    HW114129   4.974   3.007   1.224  0.7352  0.3746  0.2075
 4410SOL    HW214130   5.122   2.947   1.191  0.3473 -0.5796  0.1533
 4411SOL     OW14131   4.624   4.331   3.714  0.4264 -0.9764  0.4481
 4411SOL    HW114132   4.630   4.330   3.814  1.2206  1.0220  0.4752
 4411SOL    HW214133   4.708   4.370   3.676  0.6706 -2.8718 -1.1004
 4412SOL     OW14134   1.389   3.568   1.503 -0.1096  0.2333  0.5274
 4412SOL    HW114135   1.477   3.605   1.475  0.4384 -1.1007  0.4322
 4412SOL    HW214136   1.387   3.560   1.603 -0.3307  0.7270  0.5689
 4413SOL     OW14137   3.096   6.306   4.180  0.1009 -0.2912 -0.0811
 4413SOL    HW114138   3.009   6.263   4.155  0.6672 -0.9306 -0.9909
 4413SOL    HW214139   3.166   6.283   4.113  1.2639 -0.6936  1.2093
 4414SOL     OW14140   3.256   5.718   1.613  0.2130 -0.0782 -0.8829
 4414SOL    HW114141   3.168   5.727   1.566 -1.5895  1.2369  2.4413
 4414SOL    HW214142   3.286   5.807   1.646  2.0978 -0.7350 -0.7004
 4415SOL     OW14143   3.035   4.512   1.393 -0.3645  0.1043 -0.5286
 4415SOL    HW114144   3.077   4.590   1.348  0.2606 -1.1473 -2.1937
 4415SOL    HW214145   3.043   4.523   1.492 -0.4968  2.2298 -0.7003
 4416SOL     OW14146   6.494   2.575   3.324  0.1739  0.4071 -0.1359
 4416SOL    HW114147   6.473   2.478   3.336 -1.3097  0.7516  0.2164
 4416SOL    HW214148   6.529   2.590   3.232  0.1921 -0.4318 -0.2740
 4417SOL     OW14149   4.809   2.243   2.576 -0.5192  0.8284 -0.0783
 4417SOL    HW114150   4.895   2.235   2.627 -0.8219 -0.4128  0.2694
 4417SOL    HW214151   4.733   2.226   2.638 -0.8571 -1.9398 -1.1189
 4418SOL     OW14152   1.437   6.028   2.370  0.3981 -0.4012  0.1778
 4418SOL    HW114153   1.411   6.068   2.458 -0.3222 -0.7405  0.1234
 4418SOL    HW214154   1.453   6.102   2.305 -3.0904 -0.1095 -0.5486
 4419SOL     OW14155   5.218   5.460   0.971 -0.6805  0.0241  0.7425
 4419SOL    HW114156   5.215   5.482   0.873  0.8517 -0.7205  0.4882
 4419SOL    HW214157   5.201   5.542   1.024  0.1196  0.8133 -0.1692
 4420SOL     OW14158   6.171   4.360   6.543  0.3666  0.7571 -0.7185
 4420SOL    HW114159   6.101   4.396   6.605  0.1311 -0.8606  0.0024
 4420SOL    HW214160   6.145   4.268   6.512  1.7910  0.4348 -1.0499
 4421SOL     OW14161   3.614   1.392   4.703 -0.0492 -0.0126  0.4228
 4421SOL    HW114162   3.635   1.295   4.703 -0.1236 -0.0332  1.3242
 4421SOL    HW214163   3.521   1.406   4.736 -0.1299  0.3497  0.0540
 4422SOL     OW14164   6.126   1.705   6.287  0.0819  0.4848  0.1134
 4422SOL    HW114165   6.051   1.644   6.261  1.0264 -1.1508  1.0649
 4422SOL    HW214166   6.169   1.742   6.204 -0.2064 -0.5560 -0.5144
 4423SOL     OW14167   5.017   3.608   5.205  0.4148  0.8552 -0.4427
 4423SOL    HW114168   5.035   3.619   5.303  0.3110 -2.5167  0.0804
 4423SOL    HW214169   4.918   3.611   5.189  0.3141 -0.3200 -0.1265
 4424SOL     OW14170   0.079   1.253   3.846  0.4129  0.4601  0.0390
 4424SOL    HW114171   0.011   1.231   3.776 -0.5274 -1.2373  1.4172
 4424SOL    HW214172   0.036   1.304   3.920  1.0369  0.8784  0.1167
 4425SOL     OW14173   0.387   2.291   1.065 -0.1598 -0.4832  0.2594
 4425SOL    HW114174   0.414   2.206   1.111 -0.7324 -0.0021  1.5243
 4425SOL    HW214175   0.300   2.278   1.019  0.3459 -0.9257 -0.6037
 4426SOL     OW14176   6.739   6.034   4.884  0.2211  0.7584  0.3711
 4426SOL    HW114177   6.744   5.950   4.830 -1.0719  0.0145  1.3801
 4426SOL    HW214178   6.776   6.018   4.975 -0.2108  1.2423  0.6362
 4427SOL     OW14179   0.978   2.199   5.835 -0.4014  0.1487  0.2494
 4427SOL    HW114180   1.054   2.134   5.830  0.3951  1.1754 -1.8266
 4427SOL    HW214181   1.012   2.291   5.817 -1.7880  0.9610  1.5851
 4428SOL     OW14182   4.312   1.564   3.038  0.1916  0.1501  0.1384
 4428SOL    HW114183   4.264   1.630   3.097  1.9785 -0.2022  2.1316
 4428SOL    HW214184   4.408   1.591   3.030  0.8776 -1.9427  0.6506
 4429SOL     OW14185   2.189   5.928   5.085  0.5821 -0.0152  0.3187
 4429SOL    HW114186   2.100   5.944   5.127  1.3771 -1.0638  2.6076
 4429SOL    HW214187   2.240   6.014   5.079  0.2777  0.2265  1.1489
 4430SOL     OW14188   2.785   3.494   5.725  0.4268  0.0171  0.5233
 4430SOL    HW114189   2.725   3.539   5.659  1.2222 -1.4695 -1.2824
 4430SOL    HW214190   2.864   3.553   5.743 -0.4364  1.0090  1.2268
 4431SOL     OW14191   2.173   6.811   3.583  0.8503  0.0613 -0.2285
 4431SOL    HW114192   2.115   6.890   3.563  0.1902  0.2431  2.1871
 4431SOL    HW214193   2.213   6.820   3.673 -0.2836 -2.9088  0.7066
 4432SOL     OW14194   6.984   3.951   3.656 -0.5124 -0.5914  0.7011
 4432SOL    HW114195   6.920   3.996   3.717  1.2832  0.4311  1.9028
 4432SOL    HW214196   7.023   4.018   3.593  0.9264 -0.7519  1.3873
 4433SOL     OW14197   2.844   1.413   5.798 -0.1261 -0.0351 -0.4602
 4433SOL    HW114198   2.754   1.374   5.782  0.2473 -0.0639 -2.9561
 4433SOL    HW214199   2.912   1.364   5.744  1.3818  0.0910  1.2437
 4434SOL     OW14200   0.341   3.048   0.393 -0.3463 -0.4389 -0.1845
 4434SOL    HW114201   0.440   3.033   0.386 -0.2790 -0.4086  0.6540
 4434SOL    HW214202   0.323   3.146   0.404 -0.6135 -0.1599 -2.6181
 4435SOL     OW14203   2.449   0.012   5.041  0.5170  0.1088  0.3459
 4435SOL    HW114204   2.515  -0.054   5.005 -0.6226 -1.7245  1.4312
 4435SOL    HW214205   2.469   0.029   5.138 -0.2549 -0.0371  0.5379
 4436SOL     OW14206   3.970   0.943   0.746 -0.0363 -0.6888 -0.3210
 4436SOL    HW114207   4.021   0.979   0.824 -0.9451 -0.5063  0.2104
 4436SOL    HW214208   4.018   0.963   0.662  1.4554 -1.7266  0.2510
 4437SOL     OW14209   2.147   3.579   4.797 -0.3926 -0.2364  0.0295
 4437SOL    HW114210   2.094   3.581   4.712  1.0830 -1.3123 -0.9752
 4437SOL    HW214211   2.227   3.638   4.787 -0.5468  0.1457  0.9429
 4438SOL     OW14212   0.708   4.838   3.447 -0.6878  0.6066 -0.1338
 4438SOL    HW114213   0.801   4.874   3.455 -0.3831  0.0954 -1.1153
 4438SOL    HW214214   0.687   4.783   3.528 -0.6380  1.8007  0.7071
 4439SOL     OW14215   2.435   6.077   4.194  0.0330  0.2855  0.4705
 4439SOL    HW114216   2.466   5.989   4.158  1.6574  0.9093  0.2608
 4439SOL    HW214217   2.388   6.063   4.282 -1.5959 -0.9699 -0.5370
 4440SOL     OW14218   5.819   1.932   0.886 -0.7442 -0.0337  0.5751
 4440SOL    HW114219   5.755   1.855   0.886  0.1376 -0.8137 -0.6551
 4440SOL    HW214220   5.878   1.925   0.806  2.4292 -0.6351  2.8133
 4441SOL     OW14221   0.095   6.720   2.163 -0.2471  0.2122  0.6704
 4441SOL    HW114222   0.002   6.731   2.198 -0.7439 -0.8539 -0.2588
 4441SOL    HW214223   0.102   6.763   2.073  0.1797  0.3612  0.7737
 4442SOL     OW14224   4.147   2.372   0.850  0.5542  0.3799 -0.1084
 4442SOL    HW114225   4.069   2.324   0.811 -0.5394  1.2830  0.8659
 4442SOL    HW214226   4.144   2.365   0.950  2.2157 -0.2940 -0.0753
 4443SOL     OW14227   0.249   0.413   2.183 -0.0311  0.1076 -0.7614
 4443SOL    HW114228   0.160   0.381   2.215  0.6144  0.4352  1.5714
 4443SOL    HW214229   0.297   0.338   2.136  0.1581 -1.4468  1.7512
 4444SOL     OW14230   6.627   0.036   0.065  0.2370 -0.1764  0.6459
 4444SOL    HW114231   6.698   0.022  -0.004 -1.7162 -1.7526 -1.2029
 4444SOL    HW214232   6.538   0.011   0.026 -1.7740  3.9979  2.0156
 4445SOL     OW14233   2.608   4.587   2.208  0.2553 -0.2552  0.3169
 4445SOL    HW114234   2.657   4.508   2.246  0.3551 -0.7086 -0.7288
 4445SOL    HW214235   2.668   4.638   2.147 -0.6455 -1.0280 -1.2761
 4446SOL     OW14236   3.277   3.934   1.089 -0.5920  0.2331  0.0135
 4446SOL    HW114237   3.338   3.978   1.024  0.2027  0.3137  0.7961
 4446SOL    HW214238   3.201   3.995   1.110 -1.7512 -0.4202 -2.0442
 4447SOL     OW14239   3.315   2.317   6.430 -0.1412  0.3207  0.0594
 4447SOL    HW114240   3.229   2.327   6.380 -0.4879  0.9225  0.7493
 4447SOL    HW214241   3.392   2.333   6.369 -0.5350  0.2106 -0.4671
 4448SOL     OW14242   4.873   2.797   6.186 -0.1977 -0.1709  0.2422
 4448SOL    HW114243   4.801   2.732   6.208 -0.5001  0.2241  0.4541
 4448SOL    HW214244   4.927   2.815   6.268  0.9000 -1.3641 -0.1909
 4449SOL     OW14245   5.546   5.737   4.881  0.7742  0.3352 -0.4416
 4449SOL    HW114246   5.446   5.746   4.880  0.9275  3.9851 -3.0460
 4449SOL    HW214247   5.572   5.658   4.825 -0.6894  0.5508 -1.5052
 4450SOL     OW14248   2.957   3.253   3.603  0.3077  0.0597 -0.1364
 4450SOL    HW114249   3.018   3.180   3.571 -0.5864 -0.1030 -1.5191
 4450SOL    HW214250   2.911   3.294   3.525  0.2449  1.6291  0.7012
 4451SOL     OW14251   2.362   0.008   4.426 -0.2664 -0.4018  0.1062
 4451SOL    HW114252   2.273   0.021   4.470 -1.1458 -2.1689 -1.0401
 4451SOL    HW214253   2.348  -0.023   4.332  1.5687 -0.6499 -0.1089
 4452SOL     OW14254   0.662   0.935   3.881  0.1163  0.1075  0.8044
 4452SOL    HW114255   0.732   0.956   3.949 -0.6958  1.4543  1.2736
 4452SOL    HW214256   0.589   0.882   3.923  0.4794 -0.6270  0.5142
 4453SOL     OW14257   2.423   1.213   2.917 -0.1173  0.2317  0.3639
 4453SOL    HW114258   2.468   1.134   2.875 -0.8191 -0.3424  0.6688
 4453SOL    HW214259   2.409   1.284   2.848 -0.1507 -0.2057 -0.0886
 4454SOL     OW14260   1.949   4.446   4.853  0.5091  0.0312 -0.2817
 4454SOL    HW114261   2.042   4.456   4.889  0.5885  1.5694 -0.8453
 4454SOL    HW214262   1.936   4.353   4.819  2.0858  0.0054 -0.8671
 4455SOL     OW14263   4.661   3.835   0.719 -0.5106  0.0395 -0.3038
 4455SOL    HW114264   4.734   3.863   0.782  0.5289 -2.1272 -0.4428
 4455SOL    HW214265   4.678   3.874   0.628 -1.6971  2.6928  0.5018
 4456SOL     OW14266   4.385   6.999   0.582  0.5237 -0.3328  0.3202
 4456SOL    HW114267   4.390   6.942   0.500 -0.0398  0.0887 -0.0117
 4456SOL    HW214268   4.374   7.095   0.556  0.1006 -0.2194  0.8924
 4457SOL     OW14269   0.803   4.469   5.273 -0.3219  0.5216 -0.1327
 4457SOL    HW114270   0.735   4.400   5.298  0.3837  0.2082  0.9837
 4457SOL    HW214271   0.857   4.437   5.195  1.3668 -1.1572  1.6210
 4458SOL     OW14272   2.380   3.938   0.309  0.3712  0.2635 -0.0777
 4458SOL    HW114273   2.348   3.987   0.227 -0.7747 -0.1298  0.1114
 4458SOL    HW214274   2.301   3.911   0.364  1.1546  1.2509  1.5959
 4459SOL     OW14275   4.945   6.496   1.397 -0.4565 -0.7567 -0.1606
 4459SOL    HW114276   4.898   6.408   1.395 -3.2145  0.5996  0.1020
 4459SOL    HW214277   4.914   6.552   1.320 -1.2126  1.1057  1.4249
 4460SOL     OW14278   3.314   5.263   3.699 -0.2394  0.0110  0.2414
 4460SOL    HW114279   3.264   5.313   3.628 -0.1036  0.6118  0.5625
 4460SOL    HW214280   3.412   5.282   3.689 -0.1182 -0.7026 -0.0263
 4461SOL     OW14281   0.746   2.952   2.920  0.5215  0.5950  0.0079
 4461SOL    HW114282   0.673   2.911   2.866 -0.3363  1.1543  0.7124
 4461SOL    HW214283   0.833   2.939   2.873 -0.0168 -0.1224 -0.8285
 4462SOL     OW14284   4.464   0.756   3.714  0.0683  0.6841  0.3431
 4462SOL    HW114285   4.409   0.755   3.630 -2.0646  2.0962  1.6143
 4462SOL    HW214286   4.542   0.817   3.702 -0.5663  1.3742 -0.4457
 4463SOL     OW14287   5.935   0.067   6.962  0.7750  0.2671  0.0990
 4463SOL    HW114288   5.983   0.020   6.888  0.3505 -0.5559  0.3375
 4463SOL    HW214289   5.954   0.165   6.957  0.7083  0.2325 -1.1329
 4464SOL     OW14290   3.652   5.812   3.929  0.1691 -0.0828 -0.3817
 4464SOL    HW114291   3.671   5.850   4.019 -1.2223 -1.9439  0.7829
 4464SOL    HW214292   3.733   5.821   3.871  1.1282  1.0840  1.0517
 4465SOL     OW14293   5.274   4.465   4.525 -0.0561 -0.6552 -0.3780
 4465SOL    HW114294   5.322   4.432   4.606  0.2258  0.2946 -0.1422
 4465SOL    HW214295   5.294   4.405   4.447  1.4214 -0.3527 -0.2587
 4466SOL     OW14296   4.907   5.525   6.625 -0.1691 -0.1135  0.0579
 4466SOL    HW114297   4.889   5.428   6.642  0.4068 -0.2204  0.0602
 4466SOL    HW214298   4.909   5.575   6.712  1.3464 -0.4166  0.2199
 4467SOL     OW14299   6.414   3.075   0.764 -0.6996  0.8679 -0.0958
 4467SOL    HW114300   6.382   3.071   0.859  0.2493  0.0325  0.2059
 4467SOL    HW214301   6.487   3.143   0.757  0.9080 -0.7488  0.3251
 4468SOL     OW14302   4.824   5.890   5.356 -0.4252 -0.1189  0.8018
 4468SOL    HW114303   4.868   5.971   5.316  0.6883 -1.0405  0.0989
 4468SOL    HW214304   4.856   5.877   5.450 -0.2218 -0.0191  0.7472
 4469SOL     OW14305   1.936   3.628   5.154 -0.3962 -0.2532  0.4033
 4469SOL    HW114306   2.030   3.656   5.135  0.1253 -2.4206 -0.5970
 4469SOL    HW214307   1.919   3.539   5.110 -2.0934 -1.1446  2.7038
 4470SOL     OW14308   3.825   0.532   4.422  0.1531 -0.3790  0.3437
 4470SOL    HW114309   3.900   0.475   4.455  0.5696  0.7084  1.3572
 4470SOL    HW214310   3.780   0.576   4.499 -1.2739 -0.6772 -0.2872
 4471SOL     OW14311   5.370   2.438   5.679 -0.6833  0.1479 -0.5497
 4471SOL    HW114312   5.372   2.497   5.598  1.8189  1.4036  0.3110
 4471SOL    HW214313   5.461   2.434   5.720 -1.3466 -2.3368  0.9135
 4472SOL     OW14314   1.616   3.225   6.564  0.5341  0.1264 -0.0008
 4472SOL    HW114315   1.581   3.309   6.605  0.7113  0.6655 -0.9103
 4472SOL    HW214316   1.630   3.240   6.466 -1.0466 -1.4756 -0.5265
 4473SOL     OW14317   2.330   2.042   5.650  0.1146  0.4854  0.1311
 4473SOL    HW114318   2.404   1.993   5.604  0.3573  0.5001  0.5060
 4473SOL    HW214319   2.288   1.984   5.719 -1.2227 -0.0634 -1.0869
 4474SOL     OW14320   5.178   6.962   5.016 -0.3094  0.9512  0.2563
 4474SOL    HW114321   5.086   6.989   5.043 -0.2989 -0.6878  2.1269
 4474SOL    HW214322   5.221   6.909   5.089  2.0434  1.4301 -0.6680
 4475SOL     OW14323   0.340   1.460   0.504 -0.5677  0.0372 -0.6172
 4475SOL    HW114324   0.241   1.449   0.496 -0.4673 -0.6634 -0.9357
 4475SOL    HW214325   0.385   1.409   0.431 -0.0013  1.0235 -0.9663
 4476SOL     OW14326   6.833   2.432   6.043 -0.4091 -0.4045 -0.0085
 4476SOL    HW114327   6.867   2.518   6.005 -3.6766  0.9319 -0.2563
 4476SOL    HW214328   6.752   2.450   6.099  0.2014 -3.1174  1.9534
 4477SOL     OW14329   2.905   3.601   6.420  0.5450  0.0885  0.7357
 4477SOL    HW114330   2.841   3.531   6.450 -0.9277  1.0013 -0.1175
 4477SOL    HW214331   2.997   3.578   6.450 -0.2310 -1.0793  2.3381
 4478SOL     OW14332   2.545   1.039   5.799  0.4674 -0.5549  0.0594
 4478SOL    HW114333   2.455   0.996   5.789  0.6003 -0.6626 -0.6754
 4478SOL    HW214334   2.608   1.001   5.732  0.6437  0.6263 -0.4705
 4479SOL     OW14335   0.846   4.092   3.342  0.1602 -0.1053 -0.3795
 4479SOL    HW114336   0.769   4.102   3.405  0.8323  1.5112  0.2504
 4479SOL    HW214337   0.912   4.027   3.381  0.9754  1.5102  1.0770
 4480SOL     OW14338   0.135   4.655   0.644 -0.3118 -0.4592  0.2396
 4480SOL    HW114339   0.111   4.733   0.702  2.7263  1.6290 -1.0980
 4480SOL    HW214340   0.092   4.665   0.554  0.9283  0.2783 -0.2848
 4481SOL     OW14341   2.365   0.041   0.345 -0.0953 -0.0955  0.2959
 4481SOL    HW114342   2.461   0.035   0.316 -0.2132 -0.5128 -0.0232
 4481SOL    HW214343   2.306   0.051   0.265 -0.3190  0.1456  0.4899
 4482SOL     OW14344   1.310   1.730   5.624 -0.1857 -0.4533 -0.2403
 4482SOL    HW114345   1.256   1.670   5.565 -1.5265  0.3782  0.0944
 4482SOL    HW214346   1.315   1.691   5.716  2.7355 -2.2513 -1.0344
 4483SOL     OW14347   7.012   2.908   2.947  0.4229 -0.8728  0.1206
 4483SOL    HW114348   6.968   2.819   2.961 -0.1017 -0.8254 -1.1299
 4483SOL    HW214349   6.976   2.973   3.015 -2.0258 -0.6563 -1.2500
 4484SOL     OW14350   6.716   4.312   4.236 -0.0107 -0.0674  0.4342
 4484SOL    HW114351   6.692   4.359   4.321  0.7777  0.3077  0.4586
 4484SOL    HW214352   6.719   4.213   4.253 -0.2330 -0.0220  0.7515
 4485SOL     OW14353   1.646   1.403   5.212 -0.1548 -0.1081 -0.3064
 4485SOL    HW114354   1.590   1.443   5.139  1.4390 -0.3883 -1.7345
 4485SOL    HW214355   1.600   1.322   5.249 -1.2768  0.4087 -0.5181
 4486SOL     OW14356   3.684   0.378   6.119 -0.1292  0.4043  0.4220
 4486SOL    HW114357   3.725   0.289   6.098  1.3969  1.5640 -1.8611
 4486SOL    HW214358   3.601   0.390   6.063  0.2088  0.7916 -0.0023
 4487SOL     OW14359   3.741   4.136   4.523 -0.2260 -0.3299  0.3158
 4487SOL    HW114360   3.803   4.058   4.532  0.6156  0.0182 -1.8881
 4487SOL    HW214361   3.764   4.205   4.591 -0.4407 -1.6019  1.7475
 4488SOL     OW14362   4.408   0.768   4.042 -0.4201 -0.0360 -0.4775
 4488SOL    HW114363   4.508   0.772   4.051 -0.4171 -1.4678  0.5904
 4488SOL    HW214364   4.383   0.771   3.945  0.6378  0.6340 -0.7471
 4489SOL     OW14365   2.227   3.839   1.866  0.0661  0.1800  0.5667
 4489SOL    HW114366   2.192   3.759   1.916  1.6481 -0.4718  0.7135
 4489SOL    HW214367   2.232   3.917   1.928 -1.8886  0.5418  0.3162
 4490SOL     OW14368   6.833   2.655   0.745  0.5279 -0.3686  0.3566
 4490SOL    HW114369   6.829   2.580   0.679  1.4519 -0.6570  0.6210
 4490SOL    HW214370   6.753   2.714   0.733  1.0598  0.0305 -1.5575
 4491SOL     OW14371   0.324   0.380   6.480 -0.3299 -0.2624 -0.3584
 4491SOL    HW114372   0.233   0.411   6.506  0.0265 -0.0052  0.6050
 4491SOL    HW214373   0.384   0.459   6.465 -0.6649 -0.3603 -2.6115
 4492SOL     OW14374   5.601   0.656   4.939 -0.0497 -0.8137  0.2251
 4492SOL    HW114375   5.503   0.674   4.949 -0.0278 -0.3046 -0.3966
 4492SOL    HW214376   5.620   0.620   4.848  0.3429 -0.9227  0.3448
 4493SOL     OW14377   0.709   3.081   6.226 -0.1176 -0.8902 -0.5250
 4493SOL    HW114378   0.654   3.023   6.165 -1.9857  0.5516 -0.2911
 4493SOL    HW214379   0.745   3.158   6.174  0.3778 -0.9806 -0.3186
 4494SOL     OW14380   2.665   1.117   0.496 -0.2648 -1.0833  0.4937
 4494SOL    HW114381   2.649   1.021   0.520 -0.7099 -1.3013 -0.6154
 4494SOL    HW214382   2.665   1.127   0.396 -0.1879  0.0682  0.5944
 4495SOL     OW14383   4.780   3.449   0.934  0.2330  0.5080 -0.0885
 4495SOL    HW114384   4.710   3.520   0.921 -0.9397 -0.7432 -0.9387
 4495SOL    HW214385   4.796   3.436   1.032 -1.0136  0.5844  0.1541
 4496SOL     OW14386   0.175   4.100   6.632  0.4505 -0.2732 -0.8363
 4496SOL    HW114387   0.259   4.056   6.664  0.9810  0.1397 -1.6373
 4496SOL    HW214388   0.122   4.035   6.578  0.5006 -0.3891 -0.7457
 4497SOL     OW14389   6.026   5.228   5.882 -0.3036  0.5082 -0.4452
 4497SOL    HW114390   6.088   5.225   5.804  1.3320 -0.0352  0.8379
 4497SOL    HW214391   6.001   5.135   5.909  2.1117  0.4178  1.8971
 4498SOL     OW14392   5.822   2.575   2.552 -0.1099  0.1922 -0.3983
 4498SOL    HW114393   5.875   2.548   2.472 -0.1285  0.9148 -0.6576
 4498SOL    HW214394   5.725   2.583   2.528  0.0829  1.9657 -0.7219
 4499SOL     OW14395   6.909   0.203   1.897  0.3297  0.3226 -0.0278
 4499SOL    HW114396   6.951   0.291   1.873 -1.0585  0.6097 -1.5759
 4499SOL    HW214397   6.834   0.184   1.834 -0.4262 -1.2344  1.2883
 4500SOL     OW14398   3.277   3.358   2.586 -0.1122  0.1260  0.7010
 4500SOL    HW114399   3.232   3.306   2.513 -0.5801  1.7225 -0.2079
 4500SOL    HW214400   3.375   3.341   2.583 -0.1693 -0.1182 -0.0770
 4501SOL     OW14401   4.790   3.213   5.185  0.2634  0.4365  0.3194
 4501SOL    HW114402   4.858   3.279   5.218 -1.4137  2.1796  0.5041
 4501SOL    HW214403   4.780   3.223   5.086 -0.6112  1.1193  0.4635
 4502SOL     OW14404   5.662   2.166   2.054 -0.4259 -0.0293  0.5581
 4502SOL    HW114405   5.570   2.199   2.029  0.2262  0.2119 -1.7278
 4502SOL    HW214406   5.653   2.079   2.102 -1.8310 -0.6701 -0.7598
 4503SOL     OW14407   5.788   1.426   0.395  0.1838  0.4586  0.2263
 4503SOL    HW114408   5.702   1.427   0.345  1.0898  0.2371 -1.4132
 4503SOL    HW214409   5.818   1.332   0.409 -0.4448  0.4749  1.9535
 4504SOL     OW14410   2.893   1.573   4.230 -0.1811 -0.1126 -0.4433
 4504SOL    HW114411   2.872   1.641   4.160  1.5684  0.8338 -0.0917
 4504SOL    HW214412   2.864   1.607   4.320  0.7497  0.2326 -0.2593
 4505SOL     OW14413   4.099   2.044   5.517  0.2633 -0.1220  0.2441
 4505SOL    HW114414   4.044   2.019   5.597 -3.3201 -2.2957 -2.5930
 4505SOL    HW214415   4.107   2.144   5.512 -1.3001  0.1604  2.1659
 4506SOL     OW14416   0.170   3.279   0.076  0.0154  0.3889  0.9668
 4506SOL    HW114417   0.101   3.275   0.004 -0.4331  0.7403  1.3685
 4506SOL    HW214418   0.262   3.277   0.035 -0.2242  1.8805  0.2841
 4507SOL     OW14419   3.597   6.175   5.877 -0.3743 -0.2018  0.4707
 4507SOL    HW114420   3.639   6.084   5.874  0.0461  0.0182 -0.8898
 4507SOL    HW214421   3.498   6.166   5.885 -0.2831 -0.7527  1.1531
 4508SOL     OW14422   4.186   2.010   0.754 -0.0675  0.0539  0.6942
 4508SOL    HW114423   4.134   1.930   0.785  0.4921 -0.1630  1.0833
 4508SOL    HW214424   4.169   2.024   0.657 -0.4473 -0.3258  0.6993
 4509SOL     OW14425   6.225   1.287   3.818 -0.6011 -0.3840 -0.2644
 4509SOL    HW114426   6.213   1.364   3.880 -1.0125 -0.5786 -0.1016
 4509SOL    HW214427   6.285   1.314   3.743  0.1201 -0.2202  0.3467
 4510SOL     OW14428   4.465   4.980   5.641 -0.1066  0.3848 -0.4042
 4510SOL    HW114429   4.446   5.072   5.609  0.6870  0.0786 -1.8373
 4510SOL    HW214430   4.394   4.951   5.706 -1.3177  1.3380 -1.2806
 4511SOL     OW14431   5.209   6.452   1.072  0.5279  0.0354  0.9165
 4511SOL    HW114432   5.273   6.393   1.121  1.3723 -0.3701 -0.6139
 4511SOL    HW214433   5.259   6.530   1.034 -0.2493  0.7419  1.3194
 4512SOL     OW14434   3.968   6.295   3.232 -0.0514 -0.1771  0.6873
 4512SOL    HW114435   3.872   6.275   3.216  0.1130  0.6910 -1.7012
 4512SOL    HW214436   4.025   6.231   3.181  0.6066  0.5060  0.5466
 4513SOL     OW14437   5.373   3.702   6.249 -0.1094 -0.0600  0.1421
 4513SOL    HW114438   5.365   3.793   6.209 -1.7114  0.0496  0.6290
 4513SOL    HW214439   5.449   3.654   6.207  0.9548  1.5946  0.0791
 4514SOL     OW14440   4.555   5.005   4.351  0.1642  0.3224  0.3364
 4514SOL    HW114441   4.590   4.989   4.258  1.7858  1.3659  0.7330
 4514SOL    HW214442   4.499   4.927   4.379 -1.4415  0.5530 -1.9781
 4515SOL     OW14443   0.410   0.743   6.200 -0.1791 -0.4444  0.0779
 4515SOL    HW114444   0.485   0.768   6.139 -1.2212 -2.2834 -2.0728
 4515SOL    HW214445   0.327   0.791   6.171 -0.6345 -1.1685  0.1577
 4516SOL     OW14446   4.041   5.313   6.453 -0.3831  0.0087  0.1159
 4516SOL    HW114447   4.029   5.374   6.532 -0.1494 -0.1293  0.2602
 4516SOL    HW214448   4.127   5.263   6.463  1.3306  2.3528 -1.7871
 4517SOL     OW14449   0.014   0.487   1.806  0.1791  0.4295  0.3508
 4517SOL    HW114450   0.078   0.496   1.882  0.9348  1.9040 -0.4196
 4517SOL    HW214451  -0.011   0.578   1.773 -1.2103 -0.1582 -0.2970
 4518SOL     OW14452   4.748   4.416   0.422  0.2246  0.2458  0.6726
 4518SOL    HW114453   4.758   4.376   0.331  0.5371  1.1021  0.3261
 4518SOL    HW214454   4.804   4.364   0.487 -2.1908 -2.1764  0.9782
 4519SOL     OW14455   0.870   3.302   6.661  0.1020  0.5912  0.3443
 4519SOL    HW114456   0.969   3.292   6.651  0.1362  0.9849  0.2844
 4519SOL    HW214457   0.825   3.223   6.620  0.4378 -0.2403  1.5343
 4520SOL     OW14458   1.201   6.174   1.500  0.2156 -0.1826 -0.2699
 4520SOL    HW114459   1.157   6.235   1.434  0.1358 -2.4467 -2.4617
 4520SOL    HW214460   1.296   6.156   1.471  1.3043  1.2864  2.0754
 4521SOL     OW14461   6.852   6.147   3.169 -0.0432  0.2647 -0.2112
 4521SOL    HW114462   6.849   6.052   3.197  0.4719  0.5554  0.8819
 4521SOL    HW214463   6.771   6.169   3.115 -0.1263 -0.8000 -0.5284
 4522SOL     OW14464   5.013   5.878   0.467  0.1957 -0.0863  0.2741
 4522SOL    HW114465   4.959   5.938   0.407 -2.6195 -3.2220 -0.6607
 4522SOL    HW214466   4.984   5.893   0.562 -1.3090 -0.6492 -0.0597
 4523SOL     OW14467   2.053   4.364   0.091  0.5983 -0.6515 -0.3525
 4523SOL    HW114468   2.108   4.314   0.158  0.2605 -0.2373  0.2375
 4523SOL    HW214469   2.083   4.339  -0.002  0.9920 -1.3117 -0.0557
 4524SOL     OW14470   0.611   0.585   6.625 -0.1885  0.4257  0.0160
 4524SOL    HW114471   0.599   0.588   6.526 -0.6167  0.5589  0.0703
 4524SOL    HW214472   0.571   0.667   6.666  1.1140  1.0119  0.1847
 4525SOL     OW14473   2.677   0.388   5.079  0.1671 -0.2508 -0.1644
 4525SOL    HW114474   2.693   0.290   5.078  1.7643 -0.0217 -0.4696
 4525SOL    HW214475   2.722   0.430   5.000 -2.2956  0.5074 -1.2603
 4526SOL     OW14476   3.030   5.380   3.261  0.5322 -0.4701  0.2857
 4526SOL    HW114477   3.013   5.296   3.209 -0.5804  0.1796 -0.4328
 4526SOL    HW214478   3.098   5.362   3.333  0.4347 -1.9308  0.0326
 4527SOL     OW14479   4.536   6.424   6.500  0.5331  0.1024  0.3688
 4527SOL    HW114480   4.439   6.447   6.506 -0.2779 -2.2893 -1.9798
 4527SOL    HW214481   4.560   6.364   6.576 -0.1429 -0.2835  0.2882
 4528SOL     OW14482   4.467   3.273   0.827  0.2028  0.3351  0.2180
 4528SOL    HW114483   4.420   3.206   0.884 -0.7730 -0.0007 -0.9490
 4528SOL    HW214484   4.544   3.229   0.781  0.8304  0.5425  1.0475
 4529SOL     OW14485   0.401   3.263   6.888 -0.0170 -0.7365 -0.2475
 4529SOL    HW114486   0.474   3.215   6.839  0.2999 -0.9578  0.4383
 4529SOL    HW214487   0.385   3.352   6.845  1.8542  0.0761  0.6228
 4530SOL     OW14488   2.017   2.438   5.466 -0.6273 -0.0402  0.0399
 4530SOL    HW114489   2.116   2.428   5.454 -0.9710 -2.1082 -1.8164
 4530SOL    HW214490   1.989   2.393   5.551 -0.1454 -0.9993 -0.2926
 4531SOL     OW14491   1.925   3.910   2.755  0.4792  0.7773 -0.1902
 4531SOL    HW114492   1.894   3.837   2.817 -0.6063  0.9272 -0.5276
 4531SOL    HW214493   1.960   3.869   2.671  0.4218  0.6202 -0.1389
 4532SOL     OW14494   6.094   3.040   0.408 -0.4987 -0.0930  0.3833
 4532SOL    HW114495   6.063   2.989   0.329  0.6257  0.8872 -0.7305
 4532SOL    HW214496   6.194   3.032   0.417 -0.2237  2.0943 -0.0371
 4533SOL     OW14497   5.915   1.988   4.460 -0.2270 -0.4316  0.0017
 4533SOL    HW114498   5.983   1.937   4.407  2.6591  1.1821  1.8639
 4533SOL    HW214499   5.896   2.074   4.414  0.2651 -0.1726  0.2770
 4534SOL     OW14500   0.502   2.249   5.614 -0.0630  0.1860  0.1686
 4534SOL    HW114501   0.427   2.302   5.655  0.6446  0.5728  1.0068
 4534SOL    HW214502   0.528   2.175   5.675  2.0285  1.6822  1.2371
 4535SOL     OW14503   6.483   3.948   0.474 -0.4712 -0.4604 -0.0987
 4535SOL    HW114504   6.561   4.010   0.468 -1.3230  0.6651  0.2030
 4535SOL    HW214505   6.399   4.000   0.487 -1.4800 -1.5546 -1.7923
 4536SOL     OW14506   4.051   6.595   3.815  0.2087 -0.6687 -0.4059
 4536SOL    HW114507   4.067   6.508   3.861 -1.3325 -0.8520 -0.1720
 4536SOL    HW214508   4.139   6.640   3.798  0.8789  0.2312  4.2187
 4537SOL     OW14509   2.849   5.258   2.674 -0.1654  0.5994  0.3642
 4537SOL    HW114510   2.918   5.220   2.613  1.9540  1.3522  2.1507
 4537SOL    HW214511   2.819   5.187   2.738 -1.7066  0.0597 -0.8953
 4538SOL     OW14512   5.421   3.897   2.428  0.4908 -0.1123  0.3620
 4538SOL    HW114513   5.448   3.819   2.485 -3.3413 -1.4392  0.7034
 4538SOL    HW214514   5.399   3.864   2.336 -1.5992  0.3622  0.6309
 4539SOL     OW14515   5.287   4.660   0.097 -0.1915 -0.0448 -0.0607
 4539SOL    HW114516   5.319   4.650   0.192 -0.7420 -2.1468 -0.0549
 4539SOL    HW214517   5.360   4.701   0.042  0.3510  0.6471  1.1202
 4540SOL     OW14518   4.434   2.572   5.888 -0.0712  0.5033 -0.0664
 4540SOL    HW114519   4.440   2.486   5.939  0.3780  0.2879 -0.4699
 4540SOL    HW214520   4.472   2.558   5.797  2.9397  1.9232  0.8581
 4541SOL     OW14521   3.094   1.875   0.404 -0.0207 -0.2812 -0.1075
 4541SOL    HW114522   3.042   1.863   0.319  0.6347 -0.7830 -0.4469
 4541SOL    HW214523   3.102   1.787   0.450  1.0134 -0.3216 -0.3503
 4542SOL     OW14524   5.165   3.835   1.794 -0.2027 -0.2159  0.5326
 4542SOL    HW114525   5.201   3.774   1.724  0.1699 -0.5816  1.0356
 4542SOL    HW214526   5.214   3.922   1.792  0.4143 -0.5504  0.9224
 4543SOL     OW14527   5.326   4.657   3.349 -0.4662  0.3463  0.2434
 4543SOL    HW114528   5.237   4.700   3.368  0.0168  1.8055 -0.6380
 4543SOL    HW214529   5.394   4.728   3.333  0.6848 -0.7694  0.0853
 4544SOL     OW14530   4.716   2.238   4.997 -0.0070 -0.6854 -0.0402
 4544SOL    HW114531   4.708   2.208   5.092 -0.1900  0.7751  0.4234
 4544SOL    HW214532   4.708   2.159   4.937  0.3710 -1.6742  1.1625
 4545SOL     OW14533   2.282   6.858   4.817 -0.6078  0.3331 -0.6161
 4545SOL    HW114534   2.278   6.759   4.830  0.1549 -0.2484 -3.9673
 4545SOL    HW214535   2.375   6.885   4.792 -0.9285  1.8399 -0.2831
 4546SOL     OW14536   6.097   1.235   5.292  0.0139 -0.0643  0.4034
 4546SOL    HW114537   6.159   1.158   5.273  1.0843  0.8743 -0.0405
 4546SOL    HW214538   6.144   1.321   5.271 -1.1645  0.7165  0.8847
 4547SOL     OW14539   1.537   4.392   4.239  0.2159  0.2099 -0.3678
 4547SOL    HW114540   1.491   4.408   4.326 -2.2307  0.4926 -1.6084
 4547SOL    HW214541   1.603   4.465   4.222 -0.7047  1.2456  0.3719
 4548SOL     OW14542   0.267   4.785   1.895  0.4461  0.2439 -0.5587
 4548SOL    HW114543   0.182   4.828   1.866  1.7538  2.7137 -1.0140
 4548SOL    HW214544   0.293   4.820   1.985  1.4771  0.3236 -0.8711
 4549SOL     OW14545   0.375   5.673   2.131 -0.2670 -0.1658 -0.3251
 4549SOL    HW114546   0.472   5.671   2.156 -0.2584  0.0871 -0.3364
 4549SOL    HW214547   0.367   5.677   2.031 -0.2967 -0.7921 -0.3513
 4550SOL     OW14548   1.900   1.001   1.545  0.3540  0.3068 -0.0724
 4550SOL    HW114549   1.952   1.039   1.622  0.8320 -1.4793  0.5331
 4550SOL    HW214550   1.941   1.031   1.459  1.3539  0.3069  0.3941
 4551SOL     OW14551   4.577   5.669   2.676 -0.6428 -0.2761  0.2031
 4551SOL    HW114552   4.500   5.705   2.623 -0.0451  0.4697 -0.1802
 4551SOL    HW214553   4.657   5.728   2.663  0.1559 -1.3401  0.1494
 4552SOL     OW14554   6.026   2.462   5.948  0.1678 -0.1938  0.5210
 4552SOL    HW114555   6.116   2.441   5.985  0.7695 -3.1839 -2.2078
 4552SOL    HW214556   5.956   2.426   6.010  0.8312  0.6255  1.8083
 4553SOL     OW14557   2.556   5.029   6.165 -0.3894  0.4107  0.4761
 4553SOL    HW114558   2.566   4.943   6.215 -1.3232  1.4373  2.5376
 4553SOL    HW214559   2.470   5.073   6.190  0.7678  2.7005  0.6763
 4554SOL     OW14560   0.968   0.569   1.392  0.0255  0.0049 -0.2005
 4554SOL    HW114561   0.871   0.566   1.366  0.5415 -0.1125 -2.2897
 4554SOL    HW214562   1.017   0.633   1.332  0.9901  1.3544  1.8911
 4555SOL     OW14563   2.498   1.531   1.732  0.3835  0.0514 -0.3627
 4555SOL    HW114564   2.483   1.525   1.831 -0.4798 -0.5575 -0.5180
 4555SOL    HW214565   2.531   1.443   1.698  1.1501  0.4012 -0.5555
 4556SOL     OW14566   6.857   5.835   3.272  0.1945 -0.4646  0.2791
 4556SOL    HW114567   6.819   5.753   3.229 -1.0816 -0.1953  0.8606
 4556SOL    HW214568   6.806   5.856   3.355  0.3156  1.0833 -0.0053
 4557SOL     OW14569   5.460   6.786   3.699  0.0143  0.1900  0.0966
 4557SOL    HW114570   5.394   6.858   3.679 -0.2757 -0.2011 -0.3912
 4557SOL    HW214571   5.516   6.812   3.777 -1.1818  0.2437  0.9640
 4558SOL     OW14572   1.862   2.238   4.349 -0.1838  0.4370 -0.4828
 4558SOL    HW114573   1.863   2.249   4.249  1.5396 -0.9536 -0.6682
 4558SOL    HW214574   1.884   2.325   4.392 -1.7721  1.2625 -1.2499
 4559SOL     OW14575   0.730   6.321   3.383  0.1301  0.1337 -0.2640
 4559SOL    HW114576   0.806   6.316   3.447  0.9256  2.9004 -0.8922
 4559SOL    HW214577   0.670   6.396   3.408  0.3058  1.1098 -2.5434
 4560SOL     OW14578   6.824   2.968   3.393 -0.1240  0.0027 -0.2457
 4560SOL    HW114579   6.793   3.002   3.482  0.0842 -0.4605  0.0051
 4560SOL    HW214580   6.759   2.901   3.358 -0.1307  0.0761 -0.3733
 4561SOL     OW14581   3.059   6.670   5.163 -0.1009  0.1046  0.5354
 4561SOL    HW114582   3.064   6.654   5.261  0.0094 -0.8063  0.3876
 4561SOL    HW214583   3.146   6.646   5.120  0.2783  1.6867  0.3646
 4562SOL     OW14584   5.464   3.380   5.322  0.6795 -0.2513  0.0972
 4562SOL    HW114585   5.426   3.288   5.321 -0.3374  0.1550 -1.2000
 4562SOL    HW214586   5.469   3.413   5.417 -1.9950 -0.4461  0.3846
 4563SOL     OW14587   3.108   0.410   1.878 -0.0042  0.2204 -0.1881
 4563SOL    HW114588   3.138   0.483   1.816 -1.8765 -0.2239 -1.7034
 4563SOL    HW214589   3.116   0.322   1.831  0.6893 -0.3986  1.0520
 4564SOL     OW14590   3.811   2.864   6.646 -0.2066 -0.0787 -0.0714
 4564SOL    HW114591   3.907   2.867   6.674 -1.1161 -2.0617  3.9648
 4564SOL    HW214592   3.788   2.772   6.616 -1.3396 -0.2828  1.3242
 4565SOL     OW14593   1.315   5.507   1.253 -0.0858 -0.4494  0.5601
 4565SOL    HW114594   1.262   5.591   1.267  0.1741 -0.1432 -0.2308
 4565SOL    HW214595   1.318   5.455   1.339  0.0249  0.5097  1.1574
 4566SOL     OW14596   3.514   7.000   2.657  0.7067 -0.1981  0.3200
 4566SOL    HW114597   3.487   6.970   2.565  0.2586 -0.9189  0.6791
 4566SOL    HW214598   3.442   6.977   2.722  0.9792  0.4000  0.8451
 4567SOL     OW14599   3.332   1.919   4.901  0.5836 -0.0863 -0.7581
 4567SOL    HW114600   3.334   1.914   5.001 -0.2372  0.2864 -0.7095
 4567SOL    HW214601   3.394   1.851   4.863  0.9046 -0.2363  0.0032
 4568SOL     OW14602   5.716   5.280   5.022  0.2650 -0.5089 -0.8621
 4568SOL    HW114603   5.667   5.253   4.939  0.3814 -1.6793 -0.5782
 4568SOL    HW214604   5.656   5.269   5.101  0.4711 -0.3685 -0.6847
 4569SOL     OW14605   6.367   6.861   2.068  0.1094 -0.0741 -0.3350
 4569SOL    HW114606   6.433   6.888   2.138 -0.4654 -0.7842  0.5026
 4569SOL    HW214607   6.276   6.860   2.108 -0.3582  0.4814 -1.3720
 4570SOL     OW14608   3.297   5.558   6.140 -0.4570  0.0568 -0.0688
 4570SOL    HW114609   3.285   5.592   6.233  1.2773  0.5570 -0.0036
 4570SOL    HW214610   3.232   5.484   6.123 -1.0918  0.2564  1.3721
 4571SOL     OW14611   3.455   5.541   2.634  0.2833 -0.1356 -0.0567
 4571SOL    HW114612   3.530   5.482   2.665  0.3750 -0.3780 -0.7285
 4571SOL    HW214613   3.484   5.594   2.554  0.1012  0.6009  0.3544
 4572SOL     OW14614   3.860   5.696   4.624  0.5723 -0.6879 -0.2940
 4572SOL    HW114615   3.867   5.609   4.575  0.4375 -0.3964 -0.8398
 4572SOL    HW214616   3.941   5.751   4.605  0.1057 -0.2037 -0.9302
 4573SOL     OW14617   2.380   6.954   0.872  0.6731  0.9057  0.6846
 4573SOL    HW114618   2.315   6.881   0.896  2.0832 -0.9371 -0.7489
 4573SOL    HW214619   2.367   6.980   0.777  0.3838  2.3818  1.1032
 4574SOL     OW14620   1.420   3.517   1.773 -0.6197 -0.3136 -0.7245
 4574SOL    HW114621   1.464   3.428   1.769 -0.5343 -0.3565  0.7554
 4574SOL    HW214622   1.340   3.512   1.833 -3.2577 -0.4615 -3.9504
 4575SOL     OW14623   3.037   5.763   1.476  0.3389 -0.1913 -0.2665
 4575SOL    HW114624   3.023   5.859   1.497  0.0959 -0.3813  0.4545
 4575SOL    HW214625   3.057   5.753   1.378 -0.0970  0.5405 -0.4369
 4576SOL     OW14626   2.889   6.895   5.127  0.6970  0.2848  0.2005
 4576SOL    HW114627   2.907   6.797   5.119  0.6975  0.2167  0.9435
 4576SOL    HW214628   2.896   6.922   5.223 -2.2405  0.4338  0.4586
 4577SOL     OW14629   1.617   2.925   6.210  0.6233  0.2714 -0.1679
 4577SOL    HW114630   1.526   2.937   6.171  0.2326 -1.4970  0.0999
 4577SOL    HW214631   1.678   2.885   6.142  1.6855  2.8467 -0.8437
 4578SOL     OW14632   0.481   4.237   2.889  0.3333  0.6386  0.1519
 4578SOL    HW114633   0.409   4.302   2.863 -0.2331  0.0084  0.1133
 4578SOL    HW214634   0.532   4.273   2.967  0.1474  1.2097  0.0182
 4579SOL     OW14635   2.474   5.365   2.870 -0.2539  0.7109  0.6685
 4579SOL    HW114636   2.445   5.432   2.938  1.5031  0.9289  1.2512
 4579SOL    HW214637   2.457   5.401   2.778 -2.8397  0.3274  0.9307
 4580SOL     OW14638   0.419   6.310   4.572  0.6475  0.0488  0.3898
 4580SOL    HW114639   0.384   6.332   4.481 -0.0389 -0.8078  0.4305
 4580SOL    HW214640   0.445   6.394   4.619 -0.8918  0.6854  0.1576
 4581SOL     OW14641   0.978   5.806   3.097 -0.2079  0.1670 -0.1911
 4581SOL    HW114642   1.059   5.848   3.055 -0.9945  0.9034 -0.9929
 4581SOL    HW214643   0.916   5.877   3.128 -1.2442 -0.4005 -0.9327
 4582SOL     OW14644   3.184   4.886   1.634 -0.1691 -0.0415  0.0861
 4582SOL    HW114645   3.110   4.945   1.601 -0.2525 -0.9390 -1.4685
 4582SOL    HW214646   3.145   4.808   1.683 -0.0299  1.4674  2.7393
 4583SOL     OW14647   6.954   5.814   6.239 -0.0807  0.4923 -0.4027
 4583SOL    HW114648   6.997   5.899   6.210 -0.3387 -0.3035 -3.4238
 4583SOL    HW214649   6.865   5.834   6.281  0.8502  1.7896  1.0557
 4584SOL     OW14650   2.614   6.237   5.552 -0.1789 -0.1474  0.4879
 4584SOL    HW114651   2.689   6.233   5.618 -0.1004 -3.8698  0.3904
 4584SOL    HW214652   2.651   6.234   5.459 -0.4014  2.6879  0.1971
 4585SOL     OW14653   6.097   6.968   0.686  0.5117 -0.3079 -0.2229
 4585SOL    HW114654   6.126   7.023   0.765  2.2545 -1.2992 -0.1280
 4585SOL    HW214655   6.035   7.022   0.629  1.2683  1.3528  0.4625
 4586SOL     OW14656   4.843   3.686   1.170 -0.0822  0.1793 -0.5036
 4586SOL    HW114657   4.819   3.603   1.219 -0.7060  0.6964  0.0850
 4586SOL    HW214658   4.761   3.743   1.158  0.3631  0.7821 -0.7648
 4587SOL     OW14659   0.967   1.411   6.770  0.3246 -0.1128 -0.4781
 4587SOL    HW114660   0.960   1.457   6.682 -1.3374 -1.0166 -0.8594
 4587SOL    HW214661   0.943   1.475   6.843 -1.3603 -0.1788 -0.9489
 4588SOL     OW14662   5.151   4.104   6.733 -0.2678  0.4019  1.1885
 4588SOL    HW114663   5.092   4.141   6.804  0.4693  0.3900  1.8304
 4588SOL    HW214664   5.096   4.063   6.661 -1.0606  1.4816  1.1617
 4589SOL     OW14665   1.407   0.955   4.534  0.3702  0.0948 -0.8591
 4589SOL    HW114666   1.376   0.860   4.534 -1.8371  0.7754 -1.1845
 4589SOL    HW214667   1.388   0.998   4.622 -0.2363  0.6999 -1.2695
 4590SOL     OW14668   4.857   4.098   2.069 -0.1275  0.4762  0.4061
 4590SOL    HW114669   4.907   4.155   2.134  0.1592  1.2763 -0.4851
 4590SOL    HW214670   4.867   4.002   2.093  3.3743  0.4171 -0.7090
 4591SOL     OW14671   2.715   4.639   1.667  0.1734  0.0979 -0.2554
 4591SOL    HW114672   2.772   4.605   1.742  1.1532  0.5303 -0.7794
 4591SOL    HW214673   2.700   4.737   1.679 -1.0379 -0.1250  0.2264
 4592SOL     OW14674   5.686   4.238   0.169  0.0481  0.4120  0.2841
 4592SOL    HW114675   5.618   4.199   0.106  0.3387  0.8962 -0.3336
 4592SOL    HW214676   5.659   4.331   0.194 -0.3204  0.0503  1.2684
 4593SOL     OW14677   6.379   1.699   6.437  0.1331  0.2583  0.0512
 4593SOL    HW114678   6.447   1.627   6.451  0.9071  1.0501  0.5087
 4593SOL    HW214679   6.298   1.661   6.393  0.1901 -1.0521  1.0278
 4594SOL     OW14680   4.181   5.358   4.249 -0.1801  0.1028  0.5605
 4594SOL    HW114681   4.102   5.419   4.254  0.0159  0.2656  2.8899
 4594SOL    HW214682   4.261   5.406   4.287  0.7829 -0.4789 -0.6560
 4595SOL     OW14683   4.169   2.018   6.676 -0.0624 -0.1169 -0.0306
 4595SOL    HW114684   4.119   1.945   6.628 -0.3987  0.1651 -0.1089
 4595SOL    HW214685   4.126   2.035   6.765  0.6507 -0.7456  0.4542
 4596SOL     OW14686   1.576   5.871   5.397 -0.2906  0.6408 -0.1117
 4596SOL    HW114687   1.661   5.873   5.344  0.0556 -0.4039  0.3650
 4596SOL    HW214688   1.595   5.840   5.490 -1.4650 -2.1196 -0.6600
 4597SOL     OW14689   5.531   5.250   5.209  0.0999  0.3417 -0.1406
 4597SOL    HW114690   5.604   5.200   5.257 -1.0895 -1.3442  0.0201
 4597SOL    HW214691   5.498   5.325   5.267  1.0099  0.4849  0.2068
 4598SOL     OW14692   3.102   6.495   2.541  0.0127 -0.1658 -0.0275
 4598SOL    HW114693   3.070   6.482   2.447 -1.4246 -0.5435  0.4965
 4598SOL    HW214694   3.180   6.435   2.558 -0.6162 -1.1463 -0.5423
 4599SOL     OW14695   6.304   1.519   6.954 -0.1397  0.6602 -0.5380
 4599SOL    HW114696   6.359   1.509   7.037  0.1039  1.5851 -0.5680
 4599SOL    HW214697   6.208   1.505   6.976 -0.2652  2.5203  0.2771
 4600SOL     OW14698   5.350   2.957   2.639  0.5174  0.0220  0.0978
 4600SOL    HW114699   5.262   2.911   2.626  1.7659 -1.9767 -1.8518
 4600SOL    HW214700   5.378   2.949   2.734 -0.3445 -1.3398  0.2643
 4601SOL     OW14701   6.891   1.636   2.574  0.7343  0.0345 -0.0540
 4601SOL    HW114702   6.882   1.571   2.499  3.4108 -0.4155 -0.0764
 4601SOL    HW214703   6.948   1.597   2.646 -0.0655  1.2528  1.2986
 4602SOL     OW14704   6.550   3.785   6.514  0.0950  0.1314 -0.0984
 4602SOL    HW114705   6.457   3.823   6.505  0.5353  1.0199 -1.1967
 4602SOL    HW214706   6.567   3.723   6.438  0.0946 -0.7345  0.5987
 4603SOL     OW14707   1.571   0.600   5.422 -0.4027 -0.0082  0.4044
 4603SOL    HW114708   1.550   0.537   5.346 -2.2580  0.9303  0.0737
 4603SOL    HW214709   1.661   0.578   5.459 -0.0294 -1.3893 -1.1661
 4604SOL     OW14710   0.887   5.458   4.547 -0.1118  0.1190 -0.0387
 4604SOL    HW114711   0.923   5.534   4.493 -2.0693  0.7824 -0.5014
 4604SOL    HW214712   0.963   5.407   4.589  1.2680  1.9433 -0.2108
 4605SOL     OW14713   2.330   1.258   1.693 -0.0385 -0.6039  0.6137
 4605SOL    HW114714   2.427   1.242   1.677  0.1421  0.7447  0.1921
 4605SOL    HW214715   2.293   1.314   1.619 -1.5462 -2.4419 -0.1158
 4606SOL     OW14716   3.124   6.886   5.970  0.7760 -0.3251  0.2819
 4606SOL    HW114717   3.112   6.985   5.978  1.9384 -0.1383 -0.0592
 4606SOL    HW214718   3.212   6.860   6.010  0.4099 -1.2417  0.5061
 4607SOL     OW14719   2.616   4.404   0.847 -0.3262  0.4235  0.0259
 4607SOL    HW114720   2.552   4.421   0.772 -0.4874  1.9312  0.4535
 4607SOL    HW214721   2.705   4.378   0.810 -1.0384 -1.2604 -0.5865
 4608SOL     OW14722   2.932   4.223   0.942  0.6674  0.1344  0.5001
 4608SOL    HW114723   2.991   4.165   0.886 -1.6026 -2.0438  0.2124
 4608SOL    HW214724   2.871   4.166   0.997 -2.5022  2.1497 -0.6349
 4609SOL     OW14725   0.080   0.356   1.574 -0.3331  0.0601  0.3467
 4609SOL    HW114726   0.164   0.384   1.526 -0.3836  0.2865  0.3873
 4609SOL    HW214727   0.071   0.410   1.658  0.7549 -1.6305  1.6168
 4610SOL     OW14728   5.192   2.168   3.093 -0.4953  0.1340 -0.2122
 4610SOL    HW114729   5.105   2.129   3.126  0.1659 -1.7902 -0.5928
 4610SOL    HW214730   5.222   2.118   3.012  0.1202  1.9327 -1.1473
 4611SOL     OW14731   5.080   3.149   4.064 -0.0987  0.0062  0.3421
 4611SOL    HW114732   4.987   3.119   4.039 -0.5036  2.1762 -1.0874
 4611SOL    HW214733   5.146   3.098   4.010 -0.5454 -0.6200  0.3751
 4612SOL     OW14734   6.098   0.643   4.989  0.3242  0.1952 -0.0526
 4612SOL    HW114735   6.032   0.705   4.947  0.0530  1.0268  1.5254
 4612SOL    HW214736   6.125   0.679   5.078  2.0885 -0.6942 -0.1866
 4613SOL     OW14737   6.912   5.357   4.697 -0.4991  0.3953  0.5899
 4613SOL    HW114738   6.861   5.282   4.656 -0.5510 -0.0697  1.4790
 4613SOL    HW214739   6.858   5.399   4.770  0.4801 -0.3393  1.7979
 4614SOL     OW14740   1.746   6.336   0.818 -0.0318  0.5302  0.1243
 4614SOL    HW114741   1.764   6.404   0.889 -1.2797  0.0435  0.9519
 4614SOL    HW214742   1.735   6.381   0.730 -0.5578  1.3677  0.6079
 4615SOL     OW14743   3.881   0.997   2.091  0.4705  0.2742  0.1088
 4615SOL    HW114744   3.897   1.080   2.144  0.3113  0.1056  0.4242
 4615SOL    HW214745   3.948   0.990   2.018  1.0664  0.1976  0.6581
 4616SOL     OW14746   3.402   6.121   2.129 -0.3430  0.2929  0.3188
 4616SOL    HW114747   3.483   6.062   2.132 -0.9589 -0.5347  2.0468
 4616SOL    HW214748   3.329   6.075   2.079 -0.4192  0.1190  0.5874
 4617SOL     OW14749   5.060   6.727   5.317  0.2554 -0.0419 -0.0105
 4617SOL    HW114750   5.083   6.649   5.259 -0.4003 -0.5505  0.3916
 4617SOL    HW214751   5.078   6.704   5.413 -2.3004 -0.6922  0.4048
 4618SOL     OW14752   0.696   6.662   5.577  0.1853 -0.2200 -0.2286
 4618SOL    HW114753   0.723   6.739   5.518 -0.2137 -0.6002 -0.9175
 4618SOL    HW214754   0.605   6.679   5.615 -0.5350 -0.9975 -1.5491
 4619SOL     OW14755   3.610   2.611   1.146 -0.2376 -0.1468 -0.3186
 4619SOL    HW114756   3.665   2.686   1.109  0.6750  0.0056  1.2314
 4619SOL    HW214757   3.522   2.608   1.099 -0.3235  1.9362 -0.4148
 4620SOL     OW14758   6.096   2.169   3.802 -0.2930 -0.0128 -0.2633
 4620SOL    HW114759   6.109   2.195   3.706  0.2176  2.2742  0.3593
 4620SOL    HW214760   5.998   2.163   3.822 -0.4095 -1.3802 -1.0946
 4621SOL     OW14761   6.589   1.475   4.074  0.1088  0.1629  0.4005
 4621SOL    HW114762   6.598   1.552   4.012 -2.3189  0.6191  0.5116
 4621SOL    HW214763   6.615   1.503   4.166 -2.1334  1.3975  0.7458
 4622SOL     OW14764   5.825   2.419   3.598  0.1300  0.4273 -0.0367
 4622SOL    HW114765   5.905   2.362   3.620  1.1088  2.0620  0.9013
 4622SOL    HW214766   5.855   2.499   3.547 -0.8966  1.1738  0.5029
 4623SOL     OW14767   0.368   6.326   1.728  0.7437 -0.1669 -0.0454
 4623SOL    HW114768   0.288   6.266   1.735  0.5503  0.0468 -0.3503
 4623SOL    HW214769   0.438   6.282   1.672  0.5521 -0.0629 -0.3729
 4624SOL     OW14770   0.396   5.510   6.628  0.2356 -0.7410 -0.4172
 4624SOL    HW114771   0.411   5.558   6.714 -1.0150  0.2207 -0.7112
 4624SOL    HW214772   0.298   5.503   6.610  0.4395 -1.8856 -1.2515
 4625SOL     OW14773   0.257   2.226   2.228  0.3698 -0.6788  0.0356
 4625SOL    HW114774   0.299   2.315   2.243 -1.5113  0.2830 -0.0299
 4625SOL    HW214775   0.245   2.179   2.315  2.5672 -1.5093 -0.0466
 4626SOL     OW14776   2.319   3.476   1.286 -0.4486  0.1293 -0.3054
 4626SOL    HW114777   2.232   3.468   1.335 -0.8230  1.1989 -0.7602
 4626SOL    HW214778   2.358   3.567   1.302  0.3042 -0.1385 -0.5738
 4627SOL     OW14779   2.132   3.493   3.721 -0.1293 -0.3399  0.0419
 4627SOL    HW114780   2.130   3.406   3.671 -0.3172 -0.5561  0.4211
 4627SOL    HW214781   2.209   3.547   3.690  0.1234 -0.7416 -0.0385
 4628SOL     OW14782   0.049   0.543   6.725 -0.5272 -0.1767 -0.5180
 4628SOL    HW114783  -0.017   0.551   6.800 -0.5667  0.3531 -0.6062
 4628SOL    HW214784   0.113   0.620   6.730  1.3965 -1.7583  0.8362
 4629SOL     OW14785   4.970   6.360   2.472  0.1517 -0.0006 -0.0238
 4629SOL    HW114786   5.048   6.316   2.518  1.5066 -0.2795 -2.4273
 4629SOL    HW214787   4.886   6.314   2.499  1.2312 -2.2317 -0.2214
 4630SOL     OW14788   2.950   4.323   6.944  0.3215 -0.2617 -0.2410
 4630SOL    HW114789   3.036   4.349   6.900  1.2320 -1.0535  0.9842
 4630SOL    HW214790   2.966   4.243   7.002 -1.2522 -0.4037  0.0221
 4631SOL     OW14791   4.293   2.054   4.226 -0.2947 -0.0843  0.7126
 4631SOL    HW114792   4.240   2.003   4.293  3.0818 -1.3579  2.6993
 4631SOL    HW214793   4.328   1.991   4.156 -0.2907  0.4523  0.2242
 4632SOL     OW14794   5.624   1.228   2.962  0.3893 -0.2592 -0.3679
 4632SOL    HW114795   5.716   1.192   2.952  0.7106  0.5426 -0.3429
 4632SOL    HW214796   5.558   1.156   2.941  1.0157 -0.7288 -0.7639
 4633SOL     OW14797   5.731   5.885   4.750 -0.2275 -0.1461 -0.5721
 4633SOL    HW114798   5.656   5.828   4.784  0.5280 -0.9017 -0.1366
 4633SOL    HW214799   5.708   5.982   4.763 -0.7538 -0.3876  0.3514
 4634SOL     OW14800   6.206   2.318   6.910 -0.0994 -0.6964 -0.4750
 4634SOL    HW114801   6.291   2.314   6.962  0.0624  0.5233 -0.6131
 4634SOL    HW214802   6.223   2.357   6.820 -1.0815  1.4721  0.2026
 4635SOL     OW14803   1.247   5.929   6.514  0.0890 -0.1444 -0.3693
 4635SOL    HW114804   1.261   5.965   6.607  0.3616  0.4475 -0.6329
 4635SOL    HW214805   1.157   5.956   6.481 -0.1676 -0.6921 -0.1319
 4636SOL     OW14806   3.772   1.628   1.378 -0.9979  0.0130 -0.0773
 4636SOL    HW114807   3.840   1.689   1.418  0.2328 -1.6061  0.4161
 4636SOL    HW214808   3.808   1.589   1.293 -2.4668  1.2428 -1.3453
 4637SOL     OW14809   3.847   0.243   4.232  0.1275  0.1771 -0.2053
 4637SOL    HW114810   3.818   0.253   4.137  0.1358  1.5150 -0.0774
 4637SOL    HW214811   3.945   0.225   4.236 -0.0550 -0.9938 -0.4793
 4638SOL     OW14812   1.289   5.810   0.907  0.1076  0.2906  0.5829
 4638SOL    HW114813   1.308   5.881   0.975 -0.4735 -0.0564  1.1269
 4638SOL    HW214814   1.326   5.723   0.940 -0.7853 -0.0192  0.7853
 4639SOL     OW14815   1.399   1.801   6.928  0.2253  0.6945 -0.0923
 4639SOL    HW114816   1.475   1.762   6.980 -1.1894 -1.5221  0.4246
 4639SOL    HW214817   1.350   1.866   6.986  1.4615  1.8807 -0.3170
 4640SOL     OW14818   5.319   2.293   4.681  0.3254 -0.2008 -0.1503
 4640SOL    HW114819   5.361   2.227   4.744  1.2524  0.7027  0.2093
 4640SOL    HW214820   5.343   2.385   4.710  0.6113  0.2403 -1.7441
 4641SOL     OW14821   0.496   1.895   3.148  0.0236 -1.0052 -0.2989
 4641SOL    HW114822   0.510   1.945   3.234  0.8962 -2.8061  0.6610
 4641SOL    HW214823   0.404   1.857   3.147  0.0509 -1.0796 -0.1097
 4642SOL     OW14824   2.576   4.579   3.705 -0.1887 -0.4175  0.0236
 4642SOL    HW114825   2.648   4.601   3.639 -0.9296  2.4598  0.0737
 4642SOL    HW214826   2.494   4.632   3.685 -0.4748  0.5744  3.1948
 4643SOL     OW14827   1.111   4.929   2.539 -0.0648  0.6438 -0.5159
 4643SOL    HW114828   1.022   4.900   2.576 -0.5480  1.5270 -0.9266
 4643SOL    HW214829   1.183   4.910   2.605 -0.4166 -0.9587 -0.5577
 4644SOL     OW14830   4.658   2.259   6.076  0.4356 -0.0219 -0.3602
 4644SOL    HW114831   4.708   2.214   6.150  1.6096  1.1966 -0.3914
 4644SOL    HW214832   4.570   2.212   6.062  1.1629 -1.6418  0.2906
 4645SOL     OW14833   4.375   2.607   6.441 -0.0778 -0.4564 -0.7006
 4645SOL    HW114834   4.408   2.539   6.376 -0.0351 -1.3657  0.2269
 4645SOL    HW214835   4.301   2.566   6.496 -0.1868  0.3168 -0.2595
 4646SOL     OW14836   5.784   0.181   6.174  0.3157 -0.3572  0.1621
 4646SOL    HW114837   5.794   0.102   6.234  0.0973 -0.1814  0.4338
 4646SOL    HW214838   5.858   0.247   6.192  2.4054 -1.8697 -2.2377
 4647SOL     OW14839   5.185   6.889   0.737  0.1473 -0.7866  0.0728
 4647SOL    HW114840   5.188   6.829   0.817  4.7132  1.2704  1.8019
 4647SOL    HW214841   5.123   6.966   0.754  0.9582 -0.4465  1.6347
 4648SOL     OW14842   3.660   6.388   0.098 -0.1360 -0.1932 -0.1385
 4648SOL    HW114843   3.723   6.389   0.176  0.3187 -0.2411 -0.4950
 4648SOL    HW214844   3.611   6.475   0.094  0.3103  0.0639 -0.1689
 4649SOL     OW14845   5.678   3.738   2.534  0.1471  0.4128 -0.3217
 4649SOL    HW114846   5.711   3.833   2.534  0.5909  0.2699  0.4055
 4649SOL    HW214847   5.600   3.730   2.596 -0.7095  0.5502 -1.3344
 4650SOL     OW14848   5.488   5.487   1.837  0.4785  0.5007  0.2949
 4650SOL    HW114849   5.428   5.458   1.912 -0.5702  0.1213 -0.6521
 4650SOL    HW214850   5.556   5.416   1.819  0.4587  0.4035  0.6030
 4651SOL     OW14851   6.792   1.248   4.573 -0.5906  0.1601  0.1547
 4651SOL    HW114852   6.868   1.303   4.608  0.5787 -0.4915 -1.2594
 4651SOL    HW214853   6.716   1.253   4.637  1.1044 -0.2678  2.3460
 4652SOL     OW14854   1.029   6.956   3.428 -0.2754 -0.5775  0.1228
 4652SOL    HW114855   1.031   6.865   3.385  0.9934 -0.0752 -0.9535
 4652SOL    HW214856   0.955   6.960   3.495  0.0857 -2.6298  0.6991
 4653SOL     OW14857   5.796   0.380   3.097  0.5910 -1.2785 -0.2970
 4653SOL    HW114858   5.810   0.281   3.108  1.8063 -1.0958 -0.0969
 4653SOL    HW214859   5.865   0.417   3.035 -0.5536 -0.7277 -1.2788
 4654SOL     OW14860   6.364   6.859   2.879 -0.4697  0.4428 -0.5005
 4654SOL    HW114861   6.448   6.818   2.843 -0.7805  0.0744 -0.8145
 4654SOL    HW214862   6.381   6.894   2.971 -0.4359 -1.2760  0.2010
 4655SOL     OW14863   1.605   4.564   0.020 -0.0808 -0.3882 -0.1927
 4655SOL    HW114864   1.625   4.539  -0.075  3.6413  2.1545 -0.2852
 4655SOL    HW214865   1.664   4.513   0.082  1.0927  1.3991  0.2607
 4656SOL     OW14866   1.733   5.218   6.865  0.3615 -0.6058 -0.4324
 4656SOL    HW114867   1.707   5.164   6.785  1.7644 -0.9688 -0.6659
 4656SOL    HW214868   1.668   5.202   6.939 -0.2089 -1.2746 -1.0658
 4657SOL     OW14869   4.087   1.770   6.844  0.0984 -0.5993 -0.1360
 4657SOL    HW114870   4.018   1.784   6.914  0.1826  1.1835 -0.3747
 4657SOL    HW214871   4.043   1.770   6.754  0.3279 -0.1485 -0.2477
 4658SOL     OW14872   3.858   2.906   0.382 -0.1383  0.1830  0.0582
 4658SOL    HW114873   3.925   2.894   0.454 -1.4583 -0.5198  1.2213
 4658SOL    HW214874   3.777   2.951   0.419  0.2227  2.4009 -1.6484
 4659SOL     OW14875   3.064   3.262   2.142 -0.4315 -0.1590 -0.0844
 4659SOL    HW114876   3.155   3.234   2.111 -0.6945 -0.5298 -0.5585
 4659SOL    HW214877   2.995   3.218   2.084 -0.9077  0.2254  0.1825
 4660SOL     OW14878   1.366   6.786   2.796 -0.8290  0.1539  0.2429
 4660SOL    HW114879   1.295   6.842   2.753  0.5220  3.1401  1.6244
 4660SOL    HW214880   1.421   6.842   2.858  3.4520 -1.6576 -1.4710
 4661SOL     OW14881   3.244   2.282   0.348  0.2655 -0.2765  0.1946
 4661SOL    HW114882   3.302   2.289   0.429 -1.0846  0.5906  1.1315
 4661SOL    HW214883   3.158   2.237   0.373 -1.6931  3.1712  0.1767
 4662SOL     OW14884   0.861   4.427   6.377 -0.6878 -0.6652  0.1733
 4662SOL    HW114885   0.900   4.506   6.329 -0.3639 -1.2331 -0.5240
 4662SOL    HW214886   0.766   4.416   6.348 -1.1182  0.1852  1.1976
 4663SOL     OW14887   0.027   0.956   5.146 -0.5977  0.6317  0.2686
 4663SOL    HW114888  -0.028   1.019   5.201 -0.5586  1.4022 -0.5635
 4663SOL    HW214889  -0.019   0.939   5.058 -0.1489  0.2338  0.1066
 4664SOL     OW14890   4.504   5.626   6.585 -0.5093 -0.8227 -0.4692
 4664SOL    HW114891   4.430   5.687   6.559 -0.2197  0.1943  0.9754
 4664SOL    HW214892   4.541   5.653   6.674 -0.4898 -3.2194  0.3359
 4665SOL     OW14893   3.659   4.662   0.838 -0.2301  0.2136  0.0034
 4665SOL    HW114894   3.609   4.635   0.921  1.7600 -0.8352  0.9391
 4665SOL    HW214895   3.677   4.581   0.782 -0.0438  0.6545 -0.5863
 4666SOL     OW14896   4.353   4.471   1.799 -1.0228 -0.3199 -0.1184
 4666SOL    HW114897   4.382   4.377   1.813 -0.5327 -0.1550  0.0037
 4666SOL    HW214898   4.390   4.529   1.872 -1.3595 -0.0444 -0.1647
 4667SOL     OW14899   1.956   0.016   4.366 -0.1016  0.5265  0.0495
 4667SOL    HW114900   1.972   0.103   4.320 -0.1824  0.3662 -0.2894
 4667SOL    HW214901   1.980  -0.059   4.304  0.0728  0.3091  0.3789
 4668SOL     OW14902   3.075   4.655   5.830 -0.2686  0.0058  0.6296
 4668SOL    HW114903   3.143   4.717   5.792  0.4017  1.1080  3.4019
 4668SOL    HW214904   2.986   4.701   5.831 -0.0546  0.4116  1.4129
 4669SOL     OW14905   4.680   1.066   6.603 -0.3365  0.2587 -0.0036
 4669SOL    HW114906   4.604   1.084   6.665 -1.4994  2.2810 -1.8966
 4669SOL    HW214907   4.766   1.088   6.649 -0.7197 -2.3569  2.2841
 4670SOL     OW14908   6.159   6.050   4.411  0.1188  0.0991 -0.2151
 4670SOL    HW114909   6.125   6.135   4.452 -1.4239 -0.2481 -0.7000
 4670SOL    HW214910   6.168   6.062   4.312 -1.9819 -0.8181 -0.5788
 4671SOL     OW14911   4.084   1.590   0.094 -0.5477 -0.2225  0.2853
 4671SOL    HW114912   4.169   1.640   0.080 -0.6853 -0.5571 -2.3084
 4671SOL    HW214913   4.099   1.493   0.072 -1.5077 -0.3421  0.1062
 4672SOL     OW14914   3.193   0.620   0.799 -0.4159  0.2718 -0.3173
 4672SOL    HW114915   3.192   0.645   0.896 -0.0110  0.7996 -0.4447
 4672SOL    HW214916   3.123   0.550   0.782  0.6616 -1.0877  0.6710
 4673SOL     OW14917   5.521   0.187   1.079 -0.5913  0.1245  0.4211
 4673SOL    HW114918   5.488   0.276   1.048 -0.5782 -0.5038 -1.5493
 4673SOL    HW214919   5.575   0.145   1.006 -1.5623 -2.0041  0.8583
 4674SOL     OW14920   5.205   2.787   5.287  0.3851  0.2148  0.3266
 4674SOL    HW114921   5.174   2.695   5.307  0.5874 -0.1615 -0.9969
 4674SOL    HW214922   5.128   2.842   5.254  0.1381  0.7102  1.6771
 4675SOL     OW14923   6.386   6.671   6.500 -0.0524 -0.5905  0.1579
 4675SOL    HW114924   6.479   6.641   6.525 -0.2890 -2.0739 -0.5889
 4675SOL    HW214925   6.385   6.698   6.404 -0.9629 -3.5241 -0.7618
 4676SOL     OW14926   1.469   2.998   2.489 -0.3319  0.7350 -0.0537
 4676SOL    HW114927   1.480   3.097   2.497 -1.0248  0.7219  1.7314
 4676SOL    HW214928   1.372   2.975   2.501 -0.0948 -0.1943  0.1203
 4677SOL     OW14929   0.610   6.158   3.156 -0.1192  0.2929  0.2716
 4677SOL    HW114930   0.518   6.125   3.178 -0.4610 -0.5618 -2.1824
 4677SOL    HW214931   0.653   6.194   3.239 -1.6693 -1.6525  2.0173
 4678SOL     OW14932   6.019   4.942   1.749  0.2082 -0.7210 -0.1881
 4678SOL    HW114933   5.948   4.990   1.697  1.9466  0.7488 -1.3090
 4678SOL    HW214934   5.992   4.937   1.846 -1.6562 -0.7238 -0.6762
 4679SOL     OW14935   1.130   1.109   5.863 -0.2090  0.4731 -0.1459
 4679SOL    HW114936   1.050   1.141   5.811 -0.0695 -0.2276 -0.7990
 4679SOL    HW214937   1.166   1.026   5.821 -0.0012 -0.0254  0.9901
 4680SOL     OW14938   2.982   1.273   1.182 -0.1874 -0.5875  0.4752
 4680SOL    HW114939   2.893   1.318   1.185  0.7779  1.6569 -1.3375
 4680SOL    HW214940   3.054   1.340   1.204  1.2250 -1.5384 -0.9914
 4681SOL     OW14941   4.901   2.044   3.474  0.5367  0.3663  0.2299
 4681SOL    HW114942   4.896   2.024   3.572 -1.2730  2.0747  0.5384
 4681SOL    HW214943   4.822   2.098   3.447  1.3930  0.5781 -2.0465
 4682SOL     OW14944   0.709   2.436   3.658  0.3828 -0.4823 -1.0363
 4682SOL    HW114945   0.778   2.468   3.593  0.3265  1.2215 -0.3186
 4682SOL    HW214946   0.740   2.351   3.701  1.3317 -0.5525 -1.8351
 4683SOL     OW14947   4.926   5.811   3.449  0.6019  0.1850  0.3273
 4683SOL    HW114948   4.912   5.899   3.492 -1.8843  0.8770 -1.6614
 4683SOL    HW214949   5.020   5.806   3.412  1.0518  1.6048  1.2240
 4684SOL     OW14950   6.686   6.604   5.215  0.2506 -0.4299 -0.0107
 4684SOL    HW114951   6.662   6.509   5.235 -0.8143 -0.3777 -0.9550
 4684SOL    HW214952   6.683   6.619   5.116  0.3426  0.6096  0.1332
 4685SOL     OW14953   0.466   2.014   0.334 -0.3399  0.1941 -0.2471
 4685SOL    HW114954   0.472   2.052   0.426 -1.3417 -0.6706  0.1879
 4685SOL    HW214955   0.394   2.062   0.283 -2.1295 -1.5387  0.5474
 4686SOL     OW14956   0.107   2.210   3.836  0.4743  0.5542 -0.1883
 4686SOL    HW114957   0.161   2.229   3.918  0.0908  1.6912 -0.1855
 4686SOL    HW214958   0.070   2.117   3.841  1.3338  0.2384  0.4208
 4687SOL     OW14959   6.703   0.550   6.027  0.0194  0.8642  0.1952
 4687SOL    HW114960   6.771   0.477   6.019 -1.9134 -1.0062 -0.0482
 4687SOL    HW214961   6.665   0.551   6.119 -2.4326 -0.8488 -0.7018
 4688SOL     OW14962   6.509   4.531   2.685 -0.2556 -0.6910 -0.0041
 4688SOL    HW114963   6.473   4.440   2.704 -1.4558 -0.5431 -1.3843
 4688SOL    HW214964   6.529   4.578   2.771 -2.4378 -1.1507  0.8051
 4689SOL     OW14965   1.582   5.217   2.101 -0.7863  0.5627  0.0346
 4689SOL    HW114966   1.535   5.194   2.186 -0.3934 -1.5782 -0.2623
 4689SOL    HW214967   1.607   5.314   2.101 -1.1292  0.6922  2.1775
 4690SOL     OW14968   1.803   6.143   5.036  0.1971 -0.0677 -0.0272
 4690SOL    HW114969   1.897   6.145   5.000  0.3940 -4.9353 -0.4893
 4690SOL    HW214970   1.738   6.143   4.960  0.2026 -1.8347 -0.0906
 4691SOL     OW14971   3.823   2.177   5.134 -0.2762  0.4276 -0.0326
 4691SOL    HW114972   3.911   2.187   5.086 -1.3079  2.1967 -1.6646
 4691SOL    HW214973   3.807   2.257   5.191 -3.1111  2.9335 -3.8352
 4692SOL     OW14974   1.184   5.245   6.295  0.6768  0.6902 -0.3333
 4692SOL    HW114975   1.233   5.329   6.319  1.3224 -0.0671  1.1797
 4692SOL    HW214976   1.085   5.262   6.300  0.7243  2.0120 -2.6050
 4693SOL     OW14977   3.639   5.836   0.950  0.1582  0.6145  0.7396
 4693SOL    HW114978   3.549   5.833   0.906  0.1742 -0.2893  0.7510
 4693SOL    HW214979   3.629   5.854   1.047  0.0419  1.2791  0.6103
 4694SOL     OW14980   1.213   1.775   4.325  0.2777 -0.3560  0.7810
 4694SOL    HW114981   1.122   1.808   4.302  0.4068 -0.5824 -0.0721
 4694SOL    HW214982   1.266   1.849   4.368  0.9692  0.9773 -2.1481
 4695SOL     OW14983   2.155   2.150   4.771  0.2595  0.1369 -0.2514
 4695SOL    HW114984   2.228   2.206   4.733  0.8454 -0.6144 -0.2333
 4695SOL    HW214985   2.150   2.063   4.723 -1.2673  0.5534 -0.9147
 4696SOL     OW14986   2.376   6.446   1.660 -0.1506  0.1407  0.5270
 4696SOL    HW114987   2.425   6.511   1.718 -1.0161  1.6567 -0.3761
 4696SOL    HW214988   2.411   6.353   1.678  2.4070  1.0171  0.5450
 4697SOL     OW14989   0.600   3.236   0.859  0.7129  0.0649 -0.0771
 4697SOL    HW114990   0.549   3.203   0.939  0.5233 -2.3155 -1.0805
 4697SOL    HW214991   0.696   3.211   0.869  0.5033 -1.2261 -1.0144
 4698SOL     OW14992   4.821   5.728   4.184 -0.6636 -0.6206  0.1967
 4698SOL    HW114993   4.782   5.636   4.182  1.7690 -1.7313 -1.5706
 4698SOL    HW214994   4.757   5.791   4.227 -4.0571 -2.3374 -1.9524
 4699SOL     OW14995   6.353   0.686   0.723 -0.2295 -0.1379 -0.2838
 4699SOL    HW114996   6.356   0.605   0.783  1.0702  0.4209  0.4628
 4699SOL    HW214997   6.393   0.764   0.771  1.1092  0.2737 -1.9612
 4700SOL     OW14998   5.991   4.739   5.723 -0.4257 -0.0006  0.2107
 4700SOL    HW114999   6.020   4.703   5.812 -0.2099  0.0104  0.1449
 4700SOL    HW215000   6.059   4.716   5.654 -0.5472  0.0735  0.0652
 4701SOL     OW15001   0.136   4.191   4.100 -0.4316 -0.1665 -0.1599
 4701SOL    HW115002   0.230   4.219   4.116  0.2295 -2.1170 -0.3157
 4701SOL    HW215003   0.097   4.152   4.183  0.3726 -3.1703 -1.0720
 4702SOL     OW15004   6.808   2.170   0.447 -0.1065  0.4244 -0.5465
 4702SOL    HW115005   6.716   2.170   0.486  0.3405  0.1258  0.5519
 4702SOL    HW215006   6.817   2.094   0.382 -0.9078  1.0207 -1.3712
 4703SOL     OW15007   2.286   0.189   5.279 -0.5733 -0.7846 -0.3443
 4703SOL    HW115008   2.253   0.097   5.299 -1.5034 -1.3369 -3.8415
 4703SOL    HW215009   2.209   0.251   5.270 -0.1137 -0.2342 -0.5662
 4704SOL     OW15010   4.310   5.899   4.656  0.1180 -0.1318 -0.4737
 4704SOL    HW115011   4.358   5.866   4.575  1.3921 -1.4071  0.7413
 4704SOL    HW215012   4.307   5.999   4.655  0.2432 -0.1216 -1.9953
 4705SOL     OW15013   5.384   2.363   3.823  0.4855 -0.6975 -0.0778
 4705SOL    HW115014   5.410   2.433   3.890 -2.5470  0.4216  0.0538
 4705SOL    HW215015   5.431   2.381   3.737 -0.7982  2.0719 -0.2964
 4706SOL     OW15016   5.727   4.806   5.296  0.3061  0.1959  0.0488
 4706SOL    HW115017   5.712   4.713   5.330 -1.2523 -0.1409 -1.4110
 4706SOL    HW215018   5.744   4.802   5.197  1.9499  1.3469  0.2501
 4707SOL     OW15019   6.611   1.866   5.248 -0.0988  0.0984 -0.0843
 4707SOL    HW115020   6.701   1.863   5.291  0.4694  1.1312 -1.1454
 4707SOL    HW215021   6.562   1.947   5.279 -0.4480 -0.1705  0.0708
 4708SOL     OW15022   2.981   1.692   1.406  0.0362  0.0649  0.2391
 4708SOL    HW115023   2.885   1.699   1.379 -0.6253  1.3467  2.6341
 4708SOL    HW215024   3.009   1.777   1.451  1.7087 -1.0447  1.3743
 4709SOL     OW15025   5.004   5.876   2.851  0.0842 -0.0485 -0.0297
 4709SOL    HW115026   4.936   5.830   2.908 -0.4248 -0.9480 -1.3137
 4709SOL    HW215027   5.092   5.830   2.860 -0.3523 -1.1498 -1.0816
 4710SOL     OW15028   4.919   5.153   6.092 -0.1607 -0.1495  0.6617
 4710SOL    HW115029   4.927   5.055   6.112  0.1983 -0.4887 -0.9860
 4710SOL    HW215030   4.822   5.179   6.092 -0.1850 -0.1057  2.7418
 4711SOL     OW15031   2.882   2.785   0.593 -0.8284  0.5351  0.2993
 4711SOL    HW115032   2.826   2.759   0.515 -0.6725  1.6114 -0.1945
 4711SOL    HW215033   2.861   2.726   0.671 -0.2713 -1.2012 -0.8256
 4712SOL     OW15034   0.415   0.982   5.609  0.2991 -0.4962 -0.0654
 4712SOL    HW115035   0.484   1.018   5.672 -0.4877  1.3539 -0.1842
 4712SOL    HW215036   0.340   0.942   5.660  0.1656  0.0306  0.1593
 4713SOL     OW15037   2.529   4.849   0.479 -0.4549  0.2298  0.6117
 4713SOL    HW115038   2.518   4.817   0.573  1.4987  0.3738  0.9286
 4713SOL    HW215039   2.441   4.882   0.445 -1.1531  0.4469  2.4871
 4714SOL     OW15040   0.433   6.854   1.465  0.2846  0.0080  0.1757
 4714SOL    HW115041   0.507   6.899   1.416  1.2523 -2.2263 -0.5436
 4714SOL    HW215042   0.352   6.849   1.406 -0.3501  2.0194  0.7916
 4715SOL     OW15043   0.874   5.963   1.467  0.2207 -0.9504  0.1490
 4715SOL    HW115044   0.952   5.926   1.516  0.2162 -0.8353  0.2456
 4715SOL    HW215045   0.898   5.979   1.372  1.1301  1.4828  0.7245
 4716SOL     OW15046   0.872   3.708   4.018 -0.0098  0.8081  0.6479
 4716SOL    HW115047   0.941   3.778   3.997  0.3916  0.7994  1.8586
 4716SOL    HW215048   0.823   3.684   3.934  1.5533  0.6960 -0.2779
 4717SOL     OW15049   6.154   4.475   2.810  0.1245 -0.2922  0.1433
 4717SOL    HW115050   6.150   4.407   2.736  0.2848 -0.2483  0.0934
 4717SOL    HW215051   6.149   4.567   2.770 -1.0855 -0.2882  0.2806
 4718SOL     OW15052   5.099   2.777   2.661 -0.3078  0.7115  0.0655
 4718SOL    HW115053   5.010   2.737   2.636  0.1581 -1.1256  1.1820
 4718SOL    HW215054   5.126   2.745   2.751  1.3447  1.5190 -0.1081
 4719SOL     OW15055   1.536   1.253   5.782  0.2027  0.5679  0.6251
 4719SOL    HW115056   1.500   1.160   5.780 -1.4242  1.1953 -1.1756
 4719SOL    HW215057   1.525   1.291   5.874  0.0316 -0.6878  1.1349
 4720SOL     OW15058   4.861   5.479   1.959  0.5790  0.0207  0.0727
 4720SOL    HW115059   4.779   5.532   1.979  0.6593 -0.4906  1.8761
 4720SOL    HW215060   4.936   5.507   2.019  1.3334 -0.4527 -0.6171
 4721SOL     OW15061   5.502   4.876   2.781 -0.3584  0.1414 -0.5809
 4721SOL    HW115062   5.503   4.798   2.844  0.6072  0.1745 -0.5540
 4721SOL    HW215063   5.413   4.921   2.787 -1.2213 -1.4013 -1.1606
 4722SOL     OW15064   3.489   6.408   1.019  0.0064 -0.0794 -0.0991
 4722SOL    HW115065   3.576   6.392   1.066  0.8399  0.2269 -1.4537
 4722SOL    HW215066   3.468   6.330   0.959 -0.1144  0.2850 -0.5417
 4723SOL     OW15067   1.947   4.171   4.814 -0.0566  0.5634 -0.1447
 4723SOL    HW115068   1.893   4.178   4.731 -1.4241  0.7667  0.7344
 4723SOL    HW215069   1.961   4.075   4.837 -1.3081  0.4916  0.3947
 4724SOL     OW15070   1.905   3.594   3.310  0.0357 -0.2370  0.2081
 4724SOL    HW115071   1.859   3.511   3.340 -0.0836  0.0383  0.8037
 4724SOL    HW215072   1.839   3.669   3.303 -0.1827 -0.5877 -2.0060
 4725SOL     OW15073   5.673   2.200   3.185 -0.5736 -0.1887  0.5703
 4725SOL    HW115074   5.704   2.120   3.133  1.2194  0.6876  0.2079
 4725SOL    HW215075   5.574   2.197   3.195 -0.6627 -1.8481 -0.4418
 4726SOL     OW15076   3.410   2.892   1.083  0.0876 -0.3161  0.0445
 4726SOL    HW115077   3.363   2.918   0.999  1.0712  1.8332  0.0817
 4726SOL    HW215078   3.400   2.794   1.099 -0.9921 -0.5798 -2.0092
 4727SOL     OW15079   1.929   0.251   6.722  0.0520  0.0471 -0.1137
 4727SOL    HW115080   1.979   0.203   6.650  0.2305  1.9021 -1.2686
 4727SOL    HW215081   1.847   0.292   6.684 -0.0925  0.6696  0.8391
 4728SOL     OW15082   3.598   1.017   2.810 -0.3716  0.0058 -0.2066
 4728SOL    HW115083   3.680   0.960   2.798 -0.1468  0.1924  0.3995
 4728SOL    HW215084   3.594   1.050   2.904 -0.3523  1.2157 -0.6139
 4729SOL     OW15085   0.316   3.743   6.227  0.3771 -0.4642  0.4244
 4729SOL    HW115086   0.385   3.725   6.298  0.0220  1.4071  1.3215
 4729SOL    HW215087   0.225   3.736   6.267  0.1280 -0.5890 -0.1623
 4730SOL     OW15088   4.324   1.149   3.830  0.4474 -0.3618 -0.1619
 4730SOL    HW115089   4.269   1.077   3.787  0.6782 -0.2998 -0.5644
 4730SOL    HW215090   4.273   1.188   3.907 -1.1458  1.3169 -1.9464
 4731SOL     OW15091   6.634   4.476   6.112 -0.0097 -0.2333 -0.3580
 4731SOL    HW115092   6.573   4.402   6.142  1.8438 -1.7620 -0.1812
 4731SOL    HW215093   6.589   4.529   6.040 -1.5526 -1.2498 -0.2018
 4732SOL     OW15094   0.190   0.576   1.106 -0.2154 -0.5362  0.4941
 4732SOL    HW115095   0.142   0.606   1.189 -0.2252 -1.9107  1.0051
 4732SOL    HW215096   0.132   0.513   1.055  0.9696 -2.1268  1.0545
 4733SOL     OW15097   6.960   5.049   4.671 -0.1207  0.5707  0.7278
 4733SOL    HW115098   6.994   4.961   4.704 -0.3762  0.1434 -0.1018
 4733SOL    HW215099   6.962   5.116   4.745 -0.4977 -0.2955  1.5494
 4734SOL     OW15100   3.309   0.703   2.079  0.7331 -0.6465 -0.3915
 4734SOL    HW115101   3.216   0.697   2.044  1.0061 -0.3387 -1.1929
 4734SOL    HW215102   3.328   0.796   2.111  0.4218 -0.9708  0.7915
 4735SOL     OW15103   1.858   5.199   2.590  0.1161  0.5239  0.2160
 4735SOL    HW115104   1.768   5.212   2.632  0.1456 -1.4058  0.9917
 4735SOL    HW215105   1.929   5.208   2.659  0.2671 -1.2208  0.3287
 4736SOL     OW15106   3.807   6.840   5.911  0.2396 -0.1578  0.6084
 4736SOL    HW115107   3.770   6.892   5.834  0.4434  0.7002  1.0765
 4736SOL    HW215108   3.732   6.795   5.960 -0.1145  0.9388  1.0923
 4737SOL     OW15109   4.453   6.801   5.636  0.2316 -0.2654 -0.2177
 4737SOL    HW115110   4.378   6.790   5.571  1.0827  0.1469 -1.3078
 4737SOL    HW215111   4.443   6.736   5.710  0.0518 -1.8328 -1.5576
 4738SOL     OW15112   2.521   1.167   1.287 -0.1085  0.5972  0.1827
 4738SOL    HW115113   2.519   1.198   1.192  1.3926  0.3664  0.0497
 4738SOL    HW215114   2.466   1.083   1.297  0.2409  0.2669 -0.6272
 4739SOL     OW15115   2.658   6.968   4.076  0.4162  0.1173  0.2344
 4739SOL    HW115116   2.726   7.032   4.113  0.5792  1.1519 -1.7247
 4739SOL    HW215117   2.701   6.879   4.060  0.7559  0.1464  0.9351
 4740SOL     OW15118   1.697   1.581   5.393  0.0774 -0.0078 -0.2463
 4740SOL    HW115119   1.679   1.550   5.486 -0.5079  0.5319 -0.1765
 4740SOL    HW215120   1.673   1.509   5.329  1.1436 -0.6477  0.0465
 4741SOL     OW15121   3.873   5.792   2.069  0.1291 -0.1010  0.1345
 4741SOL    HW115122   3.858   5.701   2.107  1.5542 -0.2175  0.4794
 4741SOL    HW215123   3.803   5.812   2.001  0.0779 -1.6633 -0.3090
 4742SOL     OW15124   2.459   6.929   0.017 -0.1018 -1.0238 -0.2084
 4742SOL    HW115125   2.537   6.875   0.048 -1.4949 -1.4028  3.0585
 4742SOL    HW215126   2.490   7.021  -0.006  1.3551 -1.2484  0.7257
 4743SOL     OW15127   4.290   6.691   3.718 -0.4526 -0.0580  0.1862
 4743SOL    HW115128   4.306   6.764   3.651 -1.8184  0.5271  0.4625
 4743SOL    HW215129   4.353   6.616   3.701  1.5506  1.4870  0.3704
 4744SOL     OW15130   1.091   4.527   4.858  0.3056 -0.0064  0.1776
 4744SOL    HW115131   1.170   4.559   4.910  0.1570 -0.9569  1.0367
 4744SOL    HW215132   1.021   4.598   4.856  0.4208  0.1454  1.0857
 4745SOL     OW15133   1.324   0.309   2.899  0.5978  0.4480  0.2597
 4745SOL    HW115134   1.307   0.333   2.804  1.4764 -2.3572 -0.6789
 4745SOL    HW215135   1.241   0.270   2.939  1.1468 -1.5410 -0.4547
 4746SOL     OW15136   0.929   1.904   1.077  0.2964  0.3217  0.6096
 4746SOL    HW115137   0.996   1.933   1.145 -0.6510  2.1162  0.8520
 4746SOL    HW215138   0.837   1.925   1.110 -0.4931 -2.5393  0.5124
 4747SOL     OW15139   2.292   1.454   4.060 -0.5797 -0.0292  0.1073
 4747SOL    HW115140   2.356   1.452   3.984  0.3059 -2.3502  0.8305
 4747SOL    HW215141   2.221   1.523   4.043 -0.7425 -0.8605 -3.0317
 4748SOL     OW15142   6.182   1.471   3.074  0.0268  0.4837  0.3103
 4748SOL    HW115143   6.122   1.544   3.107  0.2751  0.9311 -0.2117
 4748SOL    HW215144   6.203   1.487   2.977 -1.1592 -1.1128 -0.2461
 4749SOL     OW15145   6.157   4.598   5.516  0.1678  0.1017  0.6779
 4749SOL    HW115146   6.204   4.668   5.463 -0.0498  1.2437  1.9350
 4749SOL    HW215147   6.120   4.528   5.455  2.0788  0.0210 -0.4630
 4750SOL     OW15148   0.052   5.650   5.136 -0.1403 -0.3633 -0.5480
 4750SOL    HW115149   0.028   5.665   5.232  0.3312 -1.0014 -0.3211
 4750SOL    HW215150   0.141   5.692   5.117 -0.3692  0.0137 -0.7801
 4751SOL     OW15151   4.699   5.933   4.330  0.3069 -0.8026 -0.1765
 4751SOL    HW115152   4.737   5.969   4.416 -1.1643 -1.7867  0.9398
 4751SOL    HW215153   4.711   6.001   4.257  1.7103  0.0056  0.7543
 4752SOL     OW15154   1.778   5.121   4.103  0.3813 -0.5848  0.1358
 4752SOL    HW115155   1.846   5.128   4.176 -0.7555  1.5075  1.0951
 4752SOL    HW215156   1.695   5.080   4.140  0.7523 -2.2576 -0.7930
 4753SOL     OW15157   1.349   4.125   0.465  0.1082 -0.5886 -0.0939
 4753SOL    HW115158   1.324   4.175   0.548  0.1800  0.4305 -0.6654
 4753SOL    HW215159   1.398   4.042   0.490  0.2040 -0.2585  0.8842
 4754SOL     OW15160   5.833   1.739   4.540  0.0852 -0.1887  0.1931
 4754SOL    HW115161   5.866   1.833   4.535  0.7101 -0.4631 -1.7389
 4754SOL    HW215162   5.743   1.733   4.498  1.2415 -0.8824 -2.4022
 4755SOL     OW15163   0.875   0.453   6.605  0.5355 -0.4806 -0.1110
 4755SOL    HW115164   0.786   0.497   6.617  1.1428  0.7790 -0.1566
 4755SOL    HW215165   0.940   0.489   6.672  1.0176 -1.4106 -0.0588
 4756SOL     OW15166   2.253   1.464   5.615  0.0711 -0.0904 -0.3356
 4756SOL    HW115167   2.224   1.486   5.522 -0.7458 -1.9508 -0.5508
 4756SOL    HW215168   2.240   1.367   5.633  1.1686  0.0341  1.4016
 4757SOL     OW15169   0.290   2.224   4.064  0.2823 -0.4074  0.1831
 4757SOL    HW115170   0.297   2.125   4.058 -0.8116 -0.5026  0.1136
 4757SOL    HW215171   0.255   2.249   4.154 -1.8622 -0.2832 -0.6208
 4758SOL     OW15172   4.683   2.988   6.969 -0.7028  0.2305  0.2522
 4758SOL    HW115173   4.768   3.036   6.991 -0.9513  1.3826 -1.1905
 4758SOL    HW215174   4.606   3.052   6.974 -1.1645 -0.2230 -0.8222
 4759SOL     OW15175   4.884   4.232   5.357  0.6354 -0.2926 -0.5450
 4759SOL    HW115176   4.850   4.220   5.264  0.9482  2.3964 -1.1022
 4759SOL    HW215177   4.838   4.311   5.398  1.1949 -0.8604  1.2544
 4760SOL     OW15178   5.768   4.485   6.662 -0.0077  0.3659 -0.5743
 4760SOL    HW115179   5.752   4.416   6.591  0.7481 -1.6225  1.0729
 4760SOL    HW215180   5.682   4.532   6.683 -1.2132 -1.9459  0.0369
 4761SOL     OW15181   5.742   3.531   4.731 -0.0845  0.2812 -0.2548
 4761SOL    HW115182   5.769   3.536   4.827 -0.6956 -1.8246  0.0625
 4761SOL    HW215183   5.689   3.448   4.715  0.7464  0.1297 -2.6060
 4762SOL     OW15184   3.471   0.146   0.912  0.1552 -0.1320  0.3213
 4762SOL    HW115185   3.548   0.090   0.882 -0.4817 -1.4575  1.0782
 4762SOL    HW215186   3.504   0.235   0.943  1.1541  0.0626 -1.1858
 4763SOL     OW15187   3.436   5.547   5.459 -0.0774  0.1552  0.7365
 4763SOL    HW115188   3.383   5.607   5.399 -0.2894 -1.8206 -1.1823
 4763SOL    HW215189   3.376   5.507   5.529 -0.8176 -0.7554 -0.3782
 4764SOL     OW15190   5.495   6.639   0.549 -0.8293  0.5101  0.6048
 4764SOL    HW115191   5.432   6.676   0.481 -0.0778  0.9917  0.1607
 4764SOL    HW215192   5.492   6.539   0.546  0.0421  0.4957 -0.9704
 4765SOL     OW15193   4.808   2.470   0.153  0.2918 -0.6394  0.0557
 4765SOL    HW115194   4.729   2.486   0.212  1.0584 -0.4304  1.0492
 4765SOL    HW215195   4.855   2.557   0.136  0.7556 -0.8767  0.1151
 4766SOL     OW15196   6.893   3.761   4.396  0.0917 -0.5642  0.4053
 4766SOL    HW115197   6.819   3.729   4.337  0.4373  0.2831 -0.5035
 4766SOL    HW215198   6.858   3.773   4.489 -1.1945  0.8433 -0.2267
 4767SOL     OW15199   2.388   5.256   0.454  0.2081  0.4604 -0.2071
 4767SOL    HW115200   2.321   5.206   0.510 -0.6382  2.2274  0.4107
 4767SOL    HW215201   2.463   5.287   0.512  0.4345  0.4232 -0.4764
 4768SOL     OW15202   0.283   0.096   6.060 -0.3940  0.3027 -0.1163
 4768SOL    HW115203   0.214   0.031   6.094  0.4342 -0.3835  0.3060
 4768SOL    HW215204   0.246   0.189   6.063 -1.1515 -0.0057  0.4855
 4769SOL     OW15205   5.629   2.160   6.720 -0.0428  0.3609  0.1640
 4769SOL    HW115206   5.583   2.248   6.709 -3.3318 -1.0688  1.2626
 4769SOL    HW215207   5.659   2.126   6.630 -0.8089  1.5386 -0.5503
 4770SOL     OW15208   0.507   3.820   2.776  0.1006 -0.5405 -0.0883
 4770SOL    HW115209   0.575   3.758   2.738  0.0875 -0.1839 -0.7131
 4770SOL    HW215210   0.490   3.797   2.872  2.3848  0.4412  0.6384
 4771SOL     OW15211   4.605   0.525   3.793 -0.1621 -0.1894  0.6996
 4771SOL    HW115212   4.578   0.436   3.757  0.0219 -0.1740  0.5170
 4771SOL    HW215213   4.534   0.592   3.772 -1.0863 -0.6310  2.3117
 4772SOL     OW15214   1.342   5.510   3.468 -0.6236 -0.2563 -0.0044
 4772SOL    HW115215   1.379   5.466   3.385  1.2256  1.6419 -0.2677
 4772SOL    HW215216   1.243   5.499   3.470 -0.5595 -1.6008 -1.7145
 4773SOL     OW15217   3.770   2.152   6.478  0.1919 -0.0022  0.0557
 4773SOL    HW115218   3.763   2.245   6.514 -1.8234 -0.5565  1.2304
 4773SOL    HW215219   3.737   2.151   6.383  0.2885  0.4839  0.0129
 4774SOL     OW15220   4.061   1.690   2.554 -0.6782 -0.1276  0.1853
 4774SOL    HW115221   4.123   1.750   2.503  0.9116  0.3270  2.4763
 4774SOL    HW215222   3.983   1.744   2.588 -1.4640 -0.3229 -1.2284
 4775SOL     OW15223   2.292   2.224   0.788  0.4085 -0.2823  0.2427
 4775SOL    HW115224   2.216   2.275   0.828  0.4996  0.5346 -0.5998
 4775SOL    HW215225   2.260   2.133   0.761 -0.6810  0.5265 -1.3790
 4776SOL     OW15226   4.169   1.703   1.781  0.1997 -1.0272  0.2919
 4776SOL    HW115227   4.138   1.797   1.774  1.1000 -0.7046  0.4917
 4776SOL    HW215228   4.219   1.690   1.867  1.1805 -1.3338 -0.3007
 4777SOL     OW15229   5.306   2.683   3.976 -0.0908 -0.3096 -0.3945
 4777SOL    HW115230   5.388   2.713   3.927 -0.1145 -2.6895 -2.0807
 4777SOL    HW215231   5.225   2.711   3.925 -0.3962  1.6941  1.0667
 4778SOL     OW15232   1.592   1.076   0.703  0.9007 -1.0995 -0.5099
 4778SOL    HW115233   1.610   1.002   0.768 -0.9270 -2.8976 -1.9422
 4778SOL    HW215234   1.568   1.038   0.614  2.3757  1.2742 -2.0631
 4779SOL     OW15235   5.125   2.077   0.298 -0.0259  0.7529  0.2519
 4779SOL    HW115236   5.202   2.141   0.309  1.0836 -0.2468 -1.3221
 4779SOL    HW215237   5.144   1.994   0.350 -0.2336  0.6615  0.1802
 4780SOL     OW15238   6.047   0.158   3.687 -0.6990 -0.4328 -0.2238
 4780SOL    HW115239   6.072   0.066   3.718  0.5924  0.1004  0.3702
 4780SOL    HW215240   6.121   0.222   3.708 -1.8603  0.8920 -0.0012
 4781SOL     OW15241   5.082   4.808   3.382 -0.3251 -0.1759  0.2637
 4781SOL    HW115242   5.129   4.851   3.460  0.2097  1.5543 -0.9586
 4781SOL    HW215243   4.998   4.858   3.362 -2.1109 -2.4545  1.5880
 4782SOL     OW15244   4.338   2.004   3.791 -0.2910 -0.2259  1.0463
 4782SOL    HW115245   4.285   1.940   3.735  2.1006  0.5206 -2.3937
 4782SOL    HW215246   4.281   2.083   3.815 -1.7747 -1.1984  0.8793
 4783SOL     OW15247   5.526   2.656   5.154 -0.3794 -0.2013 -0.0571
 4783SOL    HW115248   5.620   2.681   5.133 -0.5661  0.8864  0.3423
 4783SOL    HW215249   5.500   2.575   5.101  1.0487 -1.0307  0.4643
 4784SOL     OW15250   1.224   1.124   0.609  0.2018 -0.3863  0.2938
 4784SOL    HW115251   1.218   1.025   0.623 -2.8621 -0.5543 -1.4896
 4784SOL    HW215252   1.206   1.145   0.513  0.9513  1.9524  0.6067
 4785SOL     OW15253   6.266   1.914   1.175 -0.0070  0.0542 -0.0060
 4785SOL    HW115254   6.210   1.931   1.094 -0.4369  0.0137  0.2780
 4785SOL    HW215255   6.221   1.845   1.232  1.1580 -1.2396 -0.6039
 4786SOL     OW15256   5.731   3.151   2.331 -0.4715 -0.1346 -0.0928
 4786SOL    HW115257   5.671   3.133   2.409 -0.8749 -0.7004 -0.5258
 4786SOL    HW215258   5.824   3.120   2.353 -0.7012 -0.8046 -0.0329
 4787SOL     OW15259   4.621   4.484   3.067 -0.1585 -0.1006  0.2336
 4787SOL    HW115260   4.540   4.537   3.043  0.2140  0.0905 -0.6339
 4787SOL    HW215261   4.625   4.402   3.010  0.1274 -0.2349  0.4443
 4788SOL     OW15262   0.168   2.048   4.670  0.1640  0.5595 -0.0328
 4788SOL    HW115263   0.169   1.977   4.599  0.7880  0.2241  0.3062
 4788SOL    HW215264   0.232   2.024   4.743  0.4943  1.5472  0.0190
 4789SOL     OW15265   2.907   4.335   0.283 -0.4377 -0.5037 -0.6797
 4789SOL    HW115266   2.887   4.284   0.200 -2.9870  0.1231 -0.5213
 4789SOL    HW215267   2.834   4.401   0.300  0.7372  0.3682  1.3104
 4790SOL     OW15268   4.171   1.043   2.408  0.5924  0.1379 -0.0540
 4790SOL    HW115269   4.249   1.105   2.405  0.4304  0.3239 -1.4652
 4790SOL    HW215270   4.169   0.988   2.324 -1.6689  1.2890 -0.8523
 4791SOL     OW15271   4.835   0.631   4.108  0.3901  0.1102  0.3244
 4791SOL    HW115272   4.827   0.577   4.024 -1.0742  0.3698  0.2742
 4791SOL    HW215273   4.775   0.593   4.178 -0.6411  1.6054  0.3066
 4792SOL     OW15274   4.485   3.280   6.088 -0.4364  0.4653 -0.0035
 4792SOL    HW115275   4.532   3.247   6.006  0.0274 -0.0092  0.4459
 4792SOL    HW215276   4.386   3.271   6.076 -0.3268 -1.9595  0.4400
 4793SOL     OW15277   6.761   0.917   1.328 -0.3809 -0.0027  0.3341
 4793SOL    HW115278   6.809   0.980   1.389  0.8488 -1.4898  0.9356
 4793SOL    HW215279   6.821   0.842   1.302 -1.2085  0.0230 -1.8923
 4794SOL     OW15280   4.228   4.043   5.863  0.0771 -0.0766  0.0211
 4794SOL    HW115281   4.147   4.088   5.823  0.5572  0.5172 -0.3127
 4794SOL    HW215282   4.294   4.024   5.790  1.5646  2.2525  0.6305
 4795SOL     OW15283   4.640   5.318   1.084 -0.0696  0.0027 -0.0821
 4795SOL    HW115284   4.739   5.318   1.079 -0.1346  1.4861 -3.0601
 4795SOL    HW215285   4.611   5.276   1.171  3.0711 -1.1925  0.5056
 4796SOL     OW15286   0.218   0.236   5.162  0.2973  0.2325 -0.3052
 4796SOL    HW115287   0.226   0.246   5.063  0.6346  1.0606 -0.1982
 4796SOL    HW215288   0.254   0.317   5.208 -0.9726  0.3825  0.4695
 4797SOL     OW15289   4.820   6.704   4.337  0.0154  0.6342  0.4364
 4797SOL    HW115290   4.753   6.637   4.372  1.9292 -1.0713  1.0162
 4797SOL    HW215291   4.840   6.772   4.407 -0.0199  0.2840  0.7876
 4798SOL     OW15292   3.067   0.037   6.853 -0.3437 -0.0645  0.1852
 4798SOL    HW115293   3.119   0.106   6.802 -2.9435  0.0890 -2.5657
 4798SOL    HW215294   2.999   0.083   6.911 -1.6526 -0.2185 -1.1679
 4799SOL     OW15295   0.365   2.056   1.200  0.3063  0.2022  0.1785
 4799SOL    HW115296   0.327   2.001   1.125 -0.7261  2.2066 -0.8624
 4799SOL    HW215297   0.316   2.035   1.285 -0.4195 -0.1161 -0.3122
 4800SOL     OW15298   2.150   3.844   3.626 -0.4026 -0.8397  0.1286
 4800SOL    HW115299   2.194   3.910   3.566 -1.4997 -1.6496 -1.6506
 4800SOL    HW215300   2.153   3.877   3.721 -0.0440  1.2253 -0.5643
 4801SOL     OW15301   0.282   0.888   6.417  0.2659 -0.0713 -0.2931
 4801SOL    HW115302   0.369   0.851   6.385  0.8308  2.0537 -1.4024
 4801SOL    HW215303   0.220   0.900   6.339 -0.9409 -1.2166  0.4328
 4802SOL     OW15304   6.501   6.768   6.004  0.0193 -0.8579  0.1333
 4802SOL    HW115305   6.490   6.678   5.963 -1.2409 -2.0295  2.8256
 4802SOL    HW215306   6.462   6.837   5.943 -0.0523 -2.2343 -1.4535
 4803SOL     OW15307   2.998   5.490   1.227  0.2681  0.5795 -0.2387
 4803SOL    HW115308   2.931   5.564   1.219  0.1084  0.5505  0.6810
 4803SOL    HW215309   2.980   5.420   1.158 -0.3058  0.8368 -0.3543
 4804SOL     OW15310   3.407   6.268   0.098  1.0240  0.1604  0.2443
 4804SOL    HW115311   3.500   6.300   0.079  1.4617 -0.6821  0.8815
 4804SOL    HW215312   3.388   6.186   0.044  1.0405 -0.2734  0.8823
 4805SOL     OW15313   5.624   2.796   3.949 -0.2973 -0.7092 -0.3400
 4805SOL    HW115314   5.651   2.710   3.906 -1.8696 -1.4078  0.0277
 4805SOL    HW215315   5.703   2.834   3.998  1.0635 -0.7484 -2.3776
 4806SOL     OW15316   4.892   6.172   3.789  0.0535 -0.3723 -0.2281
 4806SOL    HW115317   4.857   6.115   3.863  1.7215 -1.0994  0.0472
 4806SOL    HW215318   4.916   6.262   3.825  0.0113 -0.4269 -0.0639
 4807SOL     OW15319   5.466   2.917   0.578 -0.0266  0.5847 -0.1764
 4807SOL    HW115320   5.514   2.977   0.515 -0.9530 -1.0472 -2.5691
 4807SOL    HW215321   5.505   2.825   0.573 -0.4917  0.2770  1.2482
 4808SOL     OW15322   1.494   3.426   6.738 -0.2250  0.4630 -0.2457
 4808SOL    HW115323   1.395   3.411   6.747  0.1344 -1.3372  1.3817
 4808SOL    HW215324   1.511   3.523   6.722 -2.2682  0.7201 -1.2671
 4809SOL     OW15325   3.793   3.675   1.702 -0.0999 -0.8679 -0.0331
 4809SOL    HW115326   3.725   3.674   1.629  0.5930  1.1704 -0.8004
 4809SOL    HW215327   3.755   3.724   1.781  1.3187  3.2125 -1.5830
 4810SOL     OW15328   2.962   0.480   0.804  0.4381 -0.2124  0.6502
 4810SOL    HW115329   2.996   0.399   0.756 -0.5944  0.6010 -1.5724
 4810SOL    HW215330   2.864   0.471   0.820  0.8628 -0.8527  3.5803
 4811SOL     OW15331   2.817   0.400   4.601  0.5632  0.4814  0.1224
 4811SOL    HW115332   2.752   0.330   4.571  1.2283 -0.1543  0.1084
 4811SOL    HW215333   2.789   0.489   4.567  1.3285 -0.2088 -2.5676
 4812SOL     OW15334   4.856   2.527   4.799  0.6059 -0.1635 -0.3774
 4812SOL    HW115335   4.768   2.567   4.824  1.2736  0.1149  1.7284
 4812SOL    HW215336   4.841   2.436   4.759 -0.6228 -0.3854  0.5311
 4813SOL     OW15337   4.079   4.370   1.220  0.5951  0.0677  0.8706
 4813SOL    HW115338   4.149   4.438   1.198  1.6586 -1.3060 -0.1418
 4813SOL    HW215339   4.091   4.290   1.162 -1.1832 -0.6428  1.4168
 4814SOL     OW15340   1.665   2.219   2.350  0.0074  0.4572  0.9719
 4814SOL    HW115341   1.747   2.271   2.375  0.2071 -0.1938  1.7139
 4814SOL    HW215342   1.690   2.144   2.289  0.1788 -0.4781  2.1480
 4815SOL     OW15343   1.750   1.670   4.432 -0.0408  0.6495 -0.0568
 4815SOL    HW115344   1.771   1.718   4.346  0.0847  0.2575 -0.2454
 4815SOL    HW215345   1.675   1.607   4.417 -0.2447  0.8296  0.2091
 4816SOL     OW15346   3.210   5.179   5.343  0.2337  0.4877  0.2220
 4816SOL    HW115347   3.204   5.122   5.425 -0.0093 -0.2573 -0.3120
 4816SOL    HW215348   3.135   5.157   5.282  1.8869 -0.8920 -1.4280
 4817SOL     OW15349   0.635   1.594   6.168 -0.1545 -0.5104  0.0432
 4817SOL    HW115350   0.599   1.683   6.143  0.1130  0.0444  1.5487
 4817SOL    HW215351   0.563   1.539   6.210 -0.2419 -0.9065 -0.6078
 4818SOL     OW15352   1.115   1.374   1.308 -0.1106  0.1842 -0.3256
 4818SOL    HW115353   1.155   1.333   1.389  0.0796 -0.2502 -0.6348
 4818SOL    HW215354   1.109   1.473   1.320  0.5118  0.1929 -0.0369
 4819SOL     OW15355   6.890   5.868   5.671  0.2048 -0.2892  0.2235
 4819SOL    HW115356   6.895   5.786   5.728  0.9447  0.5095  1.3529
 4819SOL    HW215357   6.981   5.908   5.661 -0.1220  0.3241 -0.4270
 4820SOL     OW15358   4.969   0.581   3.518  0.1377  0.1880 -0.8205
 4820SOL    HW115359   5.051   0.549   3.564 -0.6696 -1.1129 -0.2070
 4820SOL    HW215360   4.912   0.633   3.582  0.3208  0.7932 -1.1456
 4821SOL     OW15361   5.010   5.379   2.388  0.0103 -0.2674 -0.2947
 4821SOL    HW115362   5.047   5.287   2.401  0.6278  0.2507  2.1075
 4821SOL    HW215363   4.916   5.374   2.355  0.4593 -1.6977 -1.4480
 4822SOL     OW15364   5.944   4.414   4.824  0.0815  0.1559 -0.1555
 4822SOL    HW115365   5.945   4.342   4.754  0.0072 -1.1909  1.2002
 4822SOL    HW215366   6.038   4.430   4.856 -0.2024 -1.5807  1.7367
 4823SOL     OW15367   6.581   2.176   0.607 -0.6284 -0.1753 -0.6558
 4823SOL    HW115368   6.565   2.231   0.690  4.1007  1.4558 -0.4846
 4823SOL    HW215369   6.582   2.079   0.631 -2.1103  0.0625  0.5531
 4824SOL     OW15370   3.075   3.081   2.677 -0.0920  0.3594 -0.2662
 4824SOL    HW115371   3.165   3.039   2.688  0.5351  1.5748 -0.4775
 4824SOL    HW215372   3.027   3.039   2.600  0.3744 -0.1637 -0.2764
 4825SOL     OW15373   4.897   6.860   0.350 -0.4111 -0.1435 -0.2433
 4825SOL    HW115374   4.805   6.899   0.345  0.2841  1.4675 -3.3063
 4825SOL    HW215375   4.959   6.925   0.394 -0.0269  0.6164 -1.8139
 4826SOL     OW15376   2.587   0.775   1.705 -0.7096 -0.0457  0.3226
 4826SOL    HW115377   2.664   0.720   1.674 -0.5663  0.2100  0.2198
 4826SOL    HW215378   2.621   0.863   1.739 -0.8805 -0.2285  0.9918
 4827SOL     OW15379   2.123   6.719   4.372  0.3182 -0.0940 -0.0306
 4827SOL    HW115380   2.041   6.707   4.428  1.0348  0.5069  1.1943
 4827SOL    HW215381   2.096   6.742   4.279 -0.9639  2.0825  0.7836
 4828SOL     OW15382   0.089   2.968   4.276 -0.0532  0.0927 -0.9057
 4828SOL    HW115383   0.111   3.065   4.275  1.2444 -0.1342  0.9097
 4828SOL    HW215384   0.143   2.920   4.207  1.7232  0.2546  0.3014
 4829SOL     OW15385   6.495   6.961   5.785  0.5730 -0.2001  0.1589
 4829SOL    HW115386   6.418   6.925   5.732 -2.5867  3.5059  1.6789
 4829SOL    HW215387   6.575   6.970   5.726 -1.5118 -0.0718 -2.8923
 4830SOL     OW15388   1.957   2.140   1.472 -0.3093  0.1327  0.2321
 4830SOL    HW115389   1.983   2.062   1.530  0.0277  0.4355  0.4913
 4830SOL    HW215390   2.013   2.140   1.390  2.9141  2.5897  2.1953
 4831SOL     OW15391   2.597   1.105   3.612  0.0866 -0.2142 -0.2911
 4831SOL    HW115392   2.541   1.078   3.690 -0.4452  2.6776  0.4521
 4831SOL    HW215393   2.683   1.144   3.644  0.3298  0.0186 -1.1915
 4832SOL     OW15394   2.572   6.839   0.638 -0.3242  0.6821  0.1334
 4832SOL    HW115395   2.489   6.784   0.648  0.3856 -0.4770 -0.0783
 4832SOL    HW215396   2.629   6.829   0.720  1.0273 -1.0648 -0.9454
 4833SOL     OW15397   3.122   0.745   1.332 -0.2034 -0.1796  0.1613
 4833SOL    HW115398   3.035   0.698   1.346  1.2479 -2.4860  2.0634
 4833SOL    HW215399   3.117   0.837   1.371 -1.0324 -1.2114  2.6872
 4834SOL     OW15400   3.264   4.194   5.760  0.2665 -0.2006 -0.1927
 4834SOL    HW115401   3.257   4.181   5.859 -1.9817  0.2815 -0.2206
 4834SOL    HW215402   3.307   4.282   5.741 -1.2151  0.7147  0.4736
 4835SOL     OW15403   4.299   6.019   3.621  0.1936  0.3708  0.3769
 4835SOL    HW115404   4.293   6.109   3.578  1.2203  0.7447  0.9841
 4835SOL    HW215405   4.392   6.005   3.656  0.1059 -1.0090  0.1148
 4836SOL     OW15406   2.704   5.945   4.597 -0.6653  0.1089  0.2280
 4836SOL    HW115407   2.686   5.952   4.499 -2.8610  0.4046  0.5981
 4836SOL    HW215408   2.650   6.014   4.645 -1.9200 -1.9133  1.8703
 4837SOL     OW15409   2.724   5.944   3.660  0.0510 -0.2121  0.1055
 4837SOL    HW115410   2.649   5.951   3.726  0.4675 -2.4434  0.9295
 4837SOL    HW215411   2.698   5.880   3.588  0.1397  1.1549 -1.1855
 4838SOL     OW15412   6.166   3.365   6.386  0.0848  0.5976  0.0738
 4838SOL    HW115413   6.219   3.321   6.314  1.4617  0.2593  1.2476
 4838SOL    HW215414   6.229   3.406   6.452 -1.1531  1.1361  0.9380
 4839SOL     OW15415   6.758   2.420   3.761  0.1014 -0.1294  0.5847
 4839SOL    HW115416   6.683   2.464   3.811  0.6322 -0.2850  1.5510
 4839SOL    HW215417   6.839   2.416   3.820  0.3355 -1.5945  0.2065
 4840SOL     OW15418   6.634   0.891   5.050  0.5005  0.3260  0.4803
 4840SOL    HW115419   6.643   0.860   4.955 -0.5074  0.9692  0.1544
 4840SOL    HW215420   6.553   0.850   5.091  1.2187 -0.3610  1.2537
 4841SOL     OW15421   2.822   5.489   6.464  0.0298  0.2270 -0.1806
 4841SOL    HW115422   2.766   5.411   6.491  0.1972  0.5852  1.2506
 4841SOL    HW215423   2.841   5.484   6.365 -1.9326 -0.2514 -0.5609
 4842SOL     OW15424   5.504   1.883   4.969  0.1613 -0.2384 -0.4944
 4842SOL    HW115425   5.527   1.951   5.038  0.2854 -1.5093  0.7745
 4842SOL    HW215426   5.587   1.851   4.924  0.1870 -0.1057 -0.5408
 4843SOL     OW15427   6.480   2.615   6.066  0.1678  0.1777  0.5006
 4843SOL    HW115428   6.519   2.536   6.020  1.5845  0.0601  1.8335
 4843SOL    HW215429   6.418   2.663   6.004 -0.4539 -1.7584 -0.4429
 4844SOL     OW15430   4.166   5.104   4.624  0.3087  0.1041  0.0811
 4844SOL    HW115431   4.115   5.188   4.643  0.8224  0.4308  0.0357
 4844SOL    HW215432   4.239   5.093   4.691  0.7079  0.0809 -0.3492
 4845SOL     OW15433   1.063   3.162   4.792 -0.7649  0.2923  0.0393
 4845SOL    HW115434   1.069   3.222   4.713 -0.6580  0.2984  0.0524
 4845SOL    HW215435   1.018   3.077   4.766 -0.5506  0.2143 -0.0763
 4846SOL     OW15436   1.138   1.454   4.978  0.3123  0.4080  0.5094
 4846SOL    HW115437   1.102   1.415   4.894 -1.6982  0.5189  1.2592
 4846SOL    HW215438   1.141   1.384   5.049 -0.1747  0.8339  0.9601
 4847SOL     OW15439   5.877   6.309   6.123  0.3313 -0.0070  0.3556
 4847SOL    HW115440   5.971   6.344   6.128  0.6744 -0.8537  0.0115
 4847SOL    HW215441   5.844   6.315   6.029  0.2234 -0.1859  0.3834
 4848SOL     OW15442   1.921   3.163   5.860  0.1772 -0.0364  0.1394
 4848SOL    HW115443   1.893   3.187   5.767 -0.5544 -2.7516 -0.4141
 4848SOL    HW215444   1.885   3.231   5.924 -2.4370 -0.0259 -1.1991
 4849SOL     OW15445   5.984   5.918   5.624  0.7103 -0.3354 -0.1317
 4849SOL    HW115446   5.992   5.933   5.723 -0.6045 -0.4054 -0.0003
 4849SOL    HW215447   5.926   5.839   5.606 -0.6474  0.7754 -0.9507
 4850SOL     OW15448   2.460   4.381   4.694 -0.1188  0.1677 -0.0864
 4850SOL    HW115449   2.517   4.314   4.742  1.0402  0.8103 -0.5106
 4850SOL    HW215450   2.387   4.412   4.755 -0.3810 -1.1169  0.2739
 4851SOL     OW15451   5.169   3.059   0.037 -0.3140  0.3423 -0.4562
 4851SOL    HW115452   5.210   2.994   0.101 -1.9579 -0.7420 -0.4520
 4851SOL    HW215453   5.224   3.142   0.035  0.1231  0.1893  1.9387
 4852SOL     OW15454   0.383   4.643   3.773 -0.3540 -0.2625  0.4842
 4852SOL    HW115455   0.289   4.669   3.750 -1.1938 -1.4757  2.3255
 4852SOL    HW215456   0.382   4.567   3.837  1.8986  0.3556  1.3505
 4853SOL     OW15457   0.302   3.606   5.146 -0.3068  0.1249  0.1091
 4853SOL    HW115458   0.230   3.570   5.206 -0.4760  1.4254  0.7257
 4853SOL    HW215459   0.358   3.670   5.198  1.8147 -1.4531 -0.1375
 4854SOL     OW15460   2.155   2.824   0.033 -0.3221  0.6642  0.3305
 4854SOL    HW115461   2.065   2.861   0.013 -1.1223 -1.4039 -0.0943
 4854SOL    HW215462   2.188   2.772  -0.046  0.2801 -0.4068  1.2642
 4855SOL     OW15463   0.394   4.556   6.408  0.0918  0.0793  0.1418
 4855SOL    HW115464   0.382   4.495   6.486 -1.3477 -0.0060 -0.1199
 4855SOL    HW215465   0.362   4.648   6.432 -1.4807 -0.2131 -0.6731
 4856SOL     OW15466   2.033   6.105   2.854  0.0777  0.1513  0.2882
 4856SOL    HW115467   1.964   6.170   2.886  0.1388  0.6499 -0.5494
 4856SOL    HW215468   2.122   6.150   2.851  0.5347 -0.6029  1.7339
 4857SOL     OW15469   5.652   0.349   4.039 -0.1051 -0.4890  0.3150
 4857SOL    HW115470   5.655   0.449   4.040 -2.6615 -0.1881 -3.1961
 4857SOL    HW215471   5.715   0.314   3.969 -1.8747 -0.9844 -1.1027
 4858SOL     OW15472   3.745   6.903   6.614  0.2861  0.1996 -0.4326
 4858SOL    HW115473   3.731   6.838   6.689 -0.9957  0.6019 -0.3054
 4858SOL    HW215474   3.833   6.885   6.571  0.4605 -0.8832  0.3374
 4859SOL     OW15475   3.688   0.560   0.890 -0.2574  0.1572 -0.0486
 4859SOL    HW115476   3.727   0.625   0.824 -0.6640  0.0174 -0.4310
 4859SOL    HW215477   3.753   0.544   0.963  0.3757 -0.0152 -0.6387
 4860SOL     OW15478   1.123   3.892   0.553  0.2231 -0.1108 -0.6576
 4860SOL    HW115479   1.131   3.954   0.632  2.1019 -0.0718 -0.8418
 4860SOL    HW215480   1.161   3.937   0.472 -1.9171 -0.0486 -1.6912
 4861SOL     OW15481   6.304   1.323   0.416  0.0345  0.1366 -0.4475
 4861SOL    HW115482   6.262   1.232   0.423 -1.9851  1.0029 -0.5663
 4861SOL    HW215483   6.368   1.336   0.492  2.1512 -2.1934 -1.6842
 4862SOL     OW15484   5.993   4.711   0.757  0.6991 -0.4910 -0.2775
 4862SOL    HW115485   6.079   4.690   0.803  1.0210  1.5930  0.1907
 4862SOL    HW215486   5.919   4.709   0.825  0.5860 -0.9158 -0.4081
 4863SOL     OW15487   0.225   3.370   5.795 -0.3166  0.8726 -0.0376
 4863SOL    HW115488   0.243   3.468   5.792 -0.4115  0.9906  1.9371
 4863SOL    HW215489   0.305   3.322   5.830 -0.4130  0.2823 -0.6086
 4864SOL     OW15490   0.160   4.199   1.815  0.0164 -0.3490  0.4351
 4864SOL    HW115491   0.204   4.111   1.828 -0.0500 -0.2926  1.0968
 4864SOL    HW215492   0.060   4.186   1.815 -0.0241 -0.1740  1.4790
 4865SOL     OW15493   5.606   0.946   3.952 -0.3196  0.0595 -0.2011
 4865SOL    HW115494   5.584   1.030   3.903 -0.2380 -0.6490 -1.4806
 4865SOL    HW215495   5.703   0.948   3.979 -0.0636 -0.0323 -1.0790
 4866SOL     OW15496   0.429   0.502   0.731 -0.3975 -0.3236 -0.2552
 4866SOL    HW115497   0.330   0.486   0.726 -0.1785 -1.9589  0.0961
 4866SOL    HW215498   0.475   0.417   0.759  0.9854  0.7732  0.9736
 4867SOL     OW15499   1.969   0.618   3.252 -0.1162 -0.3979 -0.0606
 4867SOL    HW115500   1.965   0.710   3.212  0.3170 -1.4584 -2.7305
 4867SOL    HW215501   1.881   0.573   3.241 -0.0181 -0.6858  0.3055
 4868SOL     OW15502   5.042   0.953   5.554 -0.0972  0.5032  0.3396
 4868SOL    HW115503   5.142   0.953   5.553 -0.0041 -2.5133 -0.5130
 4868SOL    HW215504   5.008   0.937   5.461 -1.2218 -1.7992  1.0728
 4869SOL     OW15505   1.131   2.079   0.417 -0.6596  0.8049  0.0411
 4869SOL    HW115506   1.178   2.158   0.378 -1.3407  0.9968 -0.4075
 4869SOL    HW215507   1.034   2.100   0.427 -1.0462 -0.3462 -1.0917
 4870SOL     OW15508   1.659   0.685   1.275 -0.3837  0.5591 -0.2742
 4870SOL    HW115509   1.576   0.629   1.272 -0.3104  0.4870 -1.2953
 4870SOL    HW215510   1.644   0.764   1.335  0.1891 -1.5831  2.9876
 4871SOL     OW15511   2.810   6.299   5.928 -0.2016  0.1575 -0.6356
 4871SOL    HW115512   2.857   6.236   5.866 -0.6329  1.0018 -1.8467
 4871SOL    HW215513   2.866   6.380   5.943  0.0569 -0.1948  0.3846
 4872SOL     OW15514   5.903   3.122   0.085 -0.2041 -0.3613  0.3761
 4872SOL    HW115515   5.873   3.201   0.138 -1.1704 -0.0800 -0.5640
 4872SOL    HW215516   5.995   3.095   0.114 -0.0619  0.7978  1.0362
 4873SOL     OW15517   4.821   6.753   2.286 -0.1174  0.6028 -0.4757
 4873SOL    HW115518   4.743   6.800   2.326  1.3936  2.8517  0.0300
 4873SOL    HW215519   4.860   6.689   2.353 -0.0408  1.3169  0.1706
 4874SOL     OW15520   2.731   0.362   1.806  0.3135 -0.2947 -0.3917
 4874SOL    HW115521   2.745   0.457   1.833 -1.0523 -0.1066 -0.2611
 4874SOL    HW215522   2.795   0.303   1.854  1.9787  0.6555 -1.3353
 4875SOL     OW15523   6.460   6.641   0.406 -0.4244 -0.2373 -0.3048
 4875SOL    HW115524   6.427   6.547   0.419 -0.4885 -0.3330 -1.0801
 4875SOL    HW215525   6.388   6.705   0.431 -0.0181 -0.3502  1.2649
 4876SOL     OW15526   1.279   1.924   0.612  0.2197 -0.3251  1.2515
 4876SOL    HW115527   1.304   1.991   0.682 -1.5252 -0.8493  2.4566
 4876SOL    HW215528   1.208   1.962   0.554  0.1411 -0.6690  1.1227
 4877SOL     OW15529   4.366   5.229   5.598 -0.5414  0.5598 -0.1841
 4877SOL    HW115530   4.270   5.208   5.620 -0.5711  0.8738  0.0003
 4877SOL    HW215531   4.381   5.328   5.609 -0.6349  0.7947 -1.8821
 4878SOL     OW15532   0.321   1.465   0.857  0.2713  0.6182  0.0881
 4878SOL    HW115533   0.373   1.550   0.853 -1.0988  1.4842  0.0165
 4878SOL    HW215534   0.356   1.401   0.789  1.3534  1.1017  0.1778
 4879SOL     OW15535   6.894   5.821   5.975  0.1870 -0.0649  0.0204
 4879SOL    HW115536   6.913   5.814   6.073 -4.4348 -2.1538  1.0082
 4879SOL    HW215537   6.929   5.740   5.928  0.8211  0.0800  0.2279
 4880SOL     OW15538   1.750   3.170   4.292 -0.5871 -0.1277 -0.5165
 4880SOL    HW115539   1.814   3.231   4.338 -3.8544  2.0797  1.5338
 4880SOL    HW215540   1.726   3.208   4.203  0.5894 -0.7453 -1.1106
 4881SOL     OW15541   0.239   2.079   5.240 -0.3841 -0.0088 -0.3645
 4881SOL    HW115542   0.312   2.054   5.305 -0.9807  0.7383  0.6166
 4881SOL    HW215543   0.189   1.996   5.215  0.9206 -0.5723 -1.2315
 4882SOL     OW15544   4.784   1.843   6.275  0.6626 -0.6338  0.1354
 4882SOL    HW115545   4.707   1.823   6.214  0.8444 -0.4864 -0.1430
 4882SOL    HW215546   4.761   1.814   6.368 -0.1585  0.3968  0.2743
 4883SOL     OW15547   0.797   0.920   5.534 -0.0020  0.1305 -0.5080
 4883SOL    HW115548   0.845   0.851   5.481  0.7035  0.8431 -0.8186
 4883SOL    HW215549   0.722   0.958   5.478  1.3756  1.6114 -1.4409
 4884SOL     OW15550   4.990   6.701   6.374  0.1160 -0.3680  0.1343
 4884SOL    HW115551   4.908   6.679   6.427  1.4058 -0.8281  2.0493
 4884SOL    HW215552   4.984   6.795   6.341 -0.1263  0.5032  2.4605
 4885SOL     OW15553   2.851   4.859   2.168  0.2278  0.8277 -0.7449
 4885SOL    HW115554   2.759   4.886   2.139 -0.9164 -2.1890 -0.2767
 4885SOL    HW215555   2.872   4.768   2.132  0.5408 -1.2433  3.9730
 4886SOL     OW15556   4.491   2.205   5.837  0.2025 -0.3218 -0.8126
 4886SOL    HW115557   4.464   2.244   5.749  1.2168  0.1928 -0.9141
 4886SOL    HW215558   4.522   2.111   5.823 -2.5260 -1.3328 -0.5223
 4887SOL     OW15559   3.000   1.828   3.377 -0.0187 -0.3278 -0.1246
 4887SOL    HW115560   2.912   1.797   3.340  0.7615 -0.3351 -2.0620
 4887SOL    HW215561   3.063   1.848   3.302  1.7802 -0.6912  1.2231
 4888SOL     OW15562   3.041   0.080   4.906 -0.2393 -0.2005 -0.0738
 4888SOL    HW115563   3.019   0.033   4.991  1.0621 -1.4010 -0.3590
 4888SOL    HW215564   2.963   0.137   4.878 -0.1292  1.5358  2.7316
 4889SOL     OW15565   0.330   5.718   5.117 -0.5464  0.1751  0.0520
 4889SOL    HW115566   0.415   5.743   5.162  0.0862  0.6084 -1.3310
 4889SOL    HW215567   0.345   5.638   5.059 -1.1112  0.1855 -0.1159
 4890SOL     OW15568   6.615   2.066   2.990  0.0327 -1.0549 -0.2184
 4890SOL    HW115569   6.518   2.043   2.996 -0.4607  0.2688 -2.0244
 4890SOL    HW215570   6.627   2.139   2.922  2.1057 -0.0253  1.1527
 4891SOL     OW15571   6.919   0.173   0.183  0.6183 -0.4630  0.1165
 4891SOL    HW115572   6.919   0.074   0.165  2.1329 -0.5301  0.3506
 4891SOL    HW215573   6.923   0.188   0.282  4.3393 -0.2936  0.0941
 4892SOL     OW15574   0.148   0.043   6.634 -0.0867  0.2353 -0.1585
 4892SOL    HW115575   0.241   0.014   6.658 -0.0805  0.1189 -0.3290
 4892SOL    HW215576   0.145   0.143   6.631  0.2995  0.2205 -1.2222
 4893SOL     OW15577   1.437   5.570   4.414  0.3646  0.5220  0.4399
 4893SOL    HW115578   1.525   5.548   4.372 -0.5795 -0.9502 -0.9080
 4893SOL    HW215579   1.398   5.487   4.454 -0.6473  1.0498  0.5679
 4894SOL     OW15580   0.327   5.444   5.646 -0.2633  0.4491  0.0628
 4894SOL    HW115581   0.329   5.541   5.625 -1.1637  0.4057 -0.2733
 4894SOL    HW215582   0.241   5.422   5.693  0.2434 -0.0602  0.7885
 4895SOL     OW15583   0.042   3.378   6.111 -0.1490  0.1323  0.3259
 4895SOL    HW115584   0.074   3.470   6.087  1.1320 -0.3341  0.2243
 4895SOL    HW215585   0.118   3.323   6.142 -1.1458 -0.4478  1.8816
 4896SOL     OW15586   6.527   0.574   1.021 -0.1671  0.1103  0.3629
 4896SOL    HW115587   6.473   0.505   0.973  1.8652 -0.3550 -1.3418
 4896SOL    HW215588   6.599   0.529   1.074  0.5263  0.8743  0.0763
 4897SOL     OW15589   2.208   0.895   0.061  0.2439 -0.9805 -0.8540
 4897SOL    HW115590   2.248   0.833   0.129  1.6060  0.3594 -0.3850
 4897SOL    HW215591   2.259   0.887  -0.025 -0.1335 -1.1340 -1.0663
 4898SOL     OW15592   5.591   3.687   1.696 -0.1392  0.5276  0.3445
 4898SOL    HW115593   5.582   3.608   1.635 -0.6326  1.2321 -0.5200
 4898SOL    HW215594   5.527   3.678   1.772 -0.6147  0.3609 -0.0659
 4899SOL     OW15595   0.023   3.536   2.409  0.2651 -0.1957  0.0969
 4899SOL    HW115596   0.055   3.625   2.442 -1.7689  1.3212 -1.7228
 4899SOL    HW215597  -0.077   3.531   2.418 -0.2278 -0.3915 -3.8318
 4900SOL     OW15598   0.592   6.980   5.699 -0.4008  0.5888 -0.3793
 4900SOL    HW115599   0.554   7.011   5.612  1.1019 -1.5097 -1.8945
 4900SOL    HW215600   0.691   6.969   5.690 -0.5300 -2.3839  0.6613
 4901SOL     OW15601   4.262   5.649   3.648  0.1726 -0.3910 -0.2872
 4901SOL    HW115602   4.292   5.576   3.709 -0.0381  1.3239  1.9885
 4901SOL    HW215603   4.341   5.700   3.615  0.1418  0.7817  1.3577
 4902SOL     OW15604   0.592   4.918   1.120  0.2621  1.0570  0.3913
 4902SOL    HW115605   0.545   5.003   1.141  1.2472  1.4991  0.8541
 4902SOL    HW215606   0.686   4.937   1.091 -0.0306  0.2388 -1.1987
 4903SOL     OW15607   1.810   3.314   2.529  0.7554 -0.2346 -0.0815
 4903SOL    HW115608   1.853   3.381   2.590  0.9772 -0.3466 -0.1111
 4903SOL    HW215609   1.881   3.255   2.490  0.8859  1.1560 -2.1035
 4904SOL     OW15610   2.634   5.797   2.064  0.2758 -0.1401  0.0205
 4904SOL    HW115611   2.564   5.761   2.002  1.2276 -0.4471 -0.8977
 4904SOL    HW215612   2.714   5.737   2.064 -0.0430 -0.6814  2.3059
 4905SOL     OW15613   1.775   2.512   2.154 -0.0161 -0.4318 -0.6781
 4905SOL    HW115614   1.838   2.438   2.128  1.1147  0.4111 -0.3982
 4905SOL    HW215615   1.765   2.514   2.253 -0.0723 -0.2298 -0.6872
 4906SOL     OW15616   5.559   1.989   0.700  0.1018  0.4430  0.0050
 4906SOL    HW115617   5.569   1.926   0.623  0.5795  0.6189 -0.0772
 4906SOL    HW215618   5.552   1.935   0.785  1.9262  0.2768  0.0971
 4907SOL     OW15619   0.625   3.853   1.811 -0.1332  0.0702  0.6655
 4907SOL    HW115620   0.547   3.813   1.858 -1.7004  0.1658 -1.7197
 4907SOL    HW215621   0.620   3.953   1.816 -0.6302  0.0934 -0.1727
 4908SOL     OW15622   2.452   2.646   2.397  0.4363 -0.7981  0.0717
 4908SOL    HW115623   2.546   2.661   2.364  0.3861  1.6597  0.9020
 4908SOL    HW215624   2.453   2.632   2.496 -0.1804  0.9701  0.3582
 4909SOL     OW15625   6.937   3.227   6.614 -0.1271  0.7014  0.4838
 4909SOL    HW115626   6.869   3.276   6.560 -1.3122 -1.6366 -0.2874
 4909SOL    HW215627   7.023   3.222   6.563 -0.9104 -0.5550 -0.7712
 4910SOL     OW15628   4.748   1.257   3.255 -0.0280 -0.2889  0.0375
 4910SOL    HW115629   4.651   1.240   3.272 -0.1065 -1.4341 -1.3408
 4910SOL    HW215630   4.761   1.291   3.161  0.8524  0.3765  0.3832
 4911SOL     OW15631   5.955   5.023   5.600 -0.0513 -0.5532 -0.3019
 4911SOL    HW115632   6.039   5.078   5.597 -1.2281  1.3211 -1.1277
 4911SOL    HW215633   5.974   4.935   5.643  2.5964 -0.6725 -1.5120
 4912SOL     OW15634   5.594   1.047   6.027  0.6724  0.2501 -0.0401
 4912SOL    HW115635   5.507   1.089   6.001  0.9788  0.7569 -0.2684
 4912SOL    HW215636   5.584   1.001   6.115  0.6084  1.7426  0.7572
 4913SOL     OW15637   3.010   2.552   1.686  0.3680  0.2616  0.7979
 4913SOL    HW115638   3.023   2.486   1.612  0.7519  1.0979  0.1053
 4913SOL    HW215639   2.970   2.506   1.765  1.8512 -1.0939  0.8056
 4914SOL     OW15640   1.622   4.514   6.379 -0.3228 -0.4131  0.9640
 4914SOL    HW115641   1.574   4.464   6.451 -3.3046  1.5900  0.5554
 4914SOL    HW215642   1.642   4.452   6.304  0.0784 -1.8831  2.2229
 4915SOL     OW15643   4.710   0.497   4.309  0.4694  0.7977 -0.0770
 4915SOL    HW115644   4.651   0.425   4.346  1.5756 -0.7705 -1.1932
 4915SOL    HW215645   4.732   0.562   4.381  0.5209 -0.7333  1.3705
 4916SOL     OW15646   4.525   4.889   4.009  0.2112  0.3685 -0.0877
 4916SOL    HW115647   4.438   4.880   3.959  0.7324  0.2448 -0.9907
 4916SOL    HW215648   4.540   4.985   4.032  1.3837  0.9447 -2.8389
 4917SOL     OW15649   6.588   3.292   0.864 -0.4809 -0.2126 -0.4584
 4917SOL    HW115650   6.513   3.355   0.885 -0.4979  0.1588 -1.5706
 4917SOL    HW215651   6.656   3.339   0.808  0.3259 -0.7123  0.0730
 4918SOL     OW15652   2.011   5.641   6.484  0.7157 -0.1817  0.0854
 4918SOL    HW115653   1.967   5.718   6.529 -0.1886 -1.2617  1.1206
 4918SOL    HW215654   1.947   5.599   6.420  0.5516 -1.1705  0.8788
 4919SOL     OW15655   2.397   2.625   6.666 -0.1399 -0.3514 -0.0960
 4919SOL    HW115656   2.406   2.571   6.582  0.8419  2.0410 -1.6036
 4919SOL    HW215657   2.367   2.717   6.643  0.2388  0.3931  2.2142
 4920SOL     OW15658   0.785   3.356   6.364  0.2503 -0.0603 -0.3222
 4920SOL    HW115659   0.793   3.350   6.264  1.0180 -0.4342 -0.2396
 4920SOL    HW215660   0.707   3.300   6.394 -0.8839  1.1927 -0.8347
 4921SOL     OW15661   0.042   5.029   5.766  0.4955 -0.0025 -0.1301
 4921SOL    HW115662   0.086   4.939   5.775  0.4359 -0.0681 -0.4918
 4921SOL    HW215663  -0.036   5.022   5.703  0.5802  0.3350 -0.2737
 4922SOL     OW15664   2.698   5.242   2.417  0.2481 -0.0660 -0.5893
 4922SOL    HW115665   2.750   5.180   2.359  0.6785  1.4272 -1.8548
 4922SOL    HW215666   2.761   5.299   2.470  0.0418  2.1482 -2.5518
 4923SOL     OW15667   1.028   4.821   6.525 -0.2558  0.0106  0.1337
 4923SOL    HW115668   1.015   4.769   6.441 -0.2882 -1.5168  1.0376
 4923SOL    HW215669   1.036   4.918   6.504  0.9616 -0.4428 -1.7397
 4924SOL     OW15670   6.968   5.579   6.394  0.1656  0.1560 -0.0840
 4924SOL    HW115671   6.881   5.532   6.407 -0.7644  2.3145  2.4737
 4924SOL    HW215672   6.951   5.674   6.367  1.7419  0.5917  0.3421
 4925SOL     OW15673   5.835   3.366   6.914 -0.1870  0.1480  0.4735
 4925SOL    HW115674   5.863   3.278   6.952 -0.9073 -0.2976  0.0105
 4925SOL    HW215675   5.743   3.388   6.946  0.6064  1.5469  1.9167
 4926SOL     OW15676   0.824   1.230   3.670  0.1629 -0.2140 -0.2674
 4926SOL    HW115677   0.776   1.142   3.661 -0.2188 -0.4849  3.1185
 4926SOL    HW215678   0.919   1.213   3.697  0.1422  0.3929  0.2014
 4927SOL     OW15679   1.992   6.439   4.932 -0.5205 -0.5725 -0.3527
 4927SOL    HW115680   1.893   6.451   4.931 -0.6537 -1.1620  1.6552
 4927SOL    HW215681   2.030   6.468   4.844 -2.4087  0.0498 -1.0109
 4928SOL     OW15682   1.169   2.719   3.634  0.6351 -0.1685 -0.6661
 4928SOL    HW115683   1.150   2.623   3.615  0.0238 -0.2005  0.0377
 4928SOL    HW215684   1.157   2.736   3.732  1.4660  0.4658 -0.6665
 4929SOL     OW15685   0.270   1.496   4.920 -0.3688  0.0991  0.4105
 4929SOL    HW115686   0.326   1.521   4.999 -1.8936  0.6974  1.3392
 4929SOL    HW215687   0.193   1.559   4.912 -1.5203 -1.3241 -0.1968
 4930SOL     OW15688   1.341   6.598   5.759 -0.7583 -0.6524  0.0241
 4930SOL    HW115689   1.379   6.560   5.675  2.1238 -1.5293  1.6040
 4930SOL    HW215690   1.317   6.524   5.822 -0.1488  0.0035  1.0720
 4931SOL     OW15691   1.682   5.050   1.371 -0.6602  0.1531  0.1429
 4931SOL    HW115692   1.778   5.026   1.382 -0.4368  0.5952 -0.7692
 4931SOL    HW215693   1.625   4.983   1.420  0.1153  0.1210  1.0257
 4932SOL     OW15694   4.557   3.649   0.031  0.1095 -0.5107  0.0266
 4932SOL    HW115695   4.629   3.604  -0.022  1.3297 -0.9364  1.9347
 4932SOL    HW215696   4.572   3.748   0.029  1.6904 -0.6743  1.5973
 4933SOL     OW15697   6.237   5.959   6.667 -0.5234 -0.0981  0.4053
 4933SOL    HW115698   6.245   5.931   6.571 -0.4979  0.1951  0.3206
 4933SOL    HW215699   6.161   6.024   6.677 -1.8277 -1.6464  0.9337
 4934SOL     OW15700   5.324   1.179   0.272  0.4191 -0.4408 -0.1088
 4934SOL    HW115701   5.392   1.202   0.342 -0.3497 -2.3257  1.3277
 4934SOL    HW215702   5.232   1.192   0.309 -0.0991  1.8380 -1.9441
 4935SOL     OW15703   4.864   4.102   5.637  0.3111  0.3248  0.1441
 4935SOL    HW115704   4.902   4.151   5.715  2.7329 -0.0051 -0.7333
 4935SOL    HW215705   4.850   4.165   5.561 -0.8997  0.4314  0.4417
 4936SOL     OW15706   2.167   6.796   0.876  0.2213  0.2181  0.3885
 4936SOL    HW115707   2.122   6.815   0.789  3.3325 -1.0236 -1.6925
 4936SOL    HW215708   2.136   6.708   0.911 -0.8477  0.5929  0.4160
 4937SOL     OW15709   6.580   2.174   3.272  0.4167  0.7867 -0.0278
 4937SOL    HW115710   6.674   2.150   3.298  1.2744  1.3586 -2.4059
 4937SOL    HW215711   6.578   2.208   3.179 -2.3546 -0.2628 -0.4675
 4938SOL     OW15712   2.862   1.099   3.677 -0.0019 -0.0777 -0.0075
 4938SOL    HW115713   2.873   1.161   3.600 -0.2698  0.5486  0.4535
 4938SOL    HW215714   2.899   1.141   3.759  0.1227 -0.6726  0.2428
 4939SOL     OW15715   0.636   3.248   3.419  0.0593 -0.2577 -0.0173
 4939SOL    HW115716   0.596   3.247   3.327 -0.0631  0.7932  0.0084
 4939SOL    HW215717   0.575   3.298   3.481 -0.7617 -2.4952  1.0923
 4940SOL     OW15718   2.389   4.672   6.637 -0.0384  0.3699  0.1329
 4940SOL    HW115719   2.487   4.656   6.652 -0.0534  0.2854  0.1391
 4940SOL    HW215720   2.343   4.686   6.724 -0.2177 -0.6427  0.2172
 4941SOL     OW15721   3.138   1.766   2.912 -0.2785 -0.0052 -0.0691
 4941SOL    HW115722   3.097   1.850   2.946 -0.8426 -0.2661 -0.0848
 4941SOL    HW215723   3.214   1.739   2.971  0.5672  1.0515 -0.6452
 4942SOL     OW15724   4.142   2.540   1.702 -0.1132 -0.3437  0.0667
 4942SOL    HW115725   4.233   2.544   1.743  0.2357  0.5505 -0.7571
 4942SOL    HW215726   4.098   2.630   1.710  0.9104  0.6099 -3.5318
 4943SOL     OW15727   0.334   4.397   4.397  0.2243 -0.1192 -0.2654
 4943SOL    HW115728   0.280   4.418   4.315  0.6128 -1.2914 -0.8486
 4943SOL    HW215729   0.346   4.298   4.404 -0.6159 -0.1227  1.7545
 4944SOL     OW15730   1.433   0.268   5.730 -0.1004  0.5509  0.1720
 4944SOL    HW115731   1.424   0.353   5.679  1.4353  2.2530  2.4890
 4944SOL    HW215732   1.520   0.268   5.780 -0.8357 -1.5984  1.6345
 4945SOL     OW15733   6.605   4.035   5.047  0.0311  0.3107  0.2398
 4945SOL    HW115734   6.526   3.982   5.080 -0.8222 -0.2269 -2.4237
 4945SOL    HW215735   6.685   4.012   5.102 -1.1475 -0.8935  1.5635
 4946SOL     OW15736   2.470   6.989   3.010 -0.0327  0.4800  0.7785
 4946SOL    HW115737   2.500   6.897   3.033 -0.4606  0.3906  0.9804
 4946SOL    HW215738   2.548   7.042   2.976  0.0758 -0.1732 -0.0313
 4947SOL     OW15739   3.655   2.392   0.101  0.7021  0.1808  0.1354
 4947SOL    HW115740   3.708   2.406   0.185  0.6399  0.9426  0.0508
 4947SOL    HW215741   3.653   2.476   0.048 -0.4379  0.1162  0.0451
 4948SOL     OW15742   2.982   5.200   5.613  0.0627 -0.2864 -0.0187
 4948SOL    HW115743   2.884   5.220   5.611  0.1329  0.1572 -2.8173
 4948SOL    HW215744   3.012   5.190   5.708 -2.6075 -0.1435  0.9255
 4949SOL     OW15745   6.663   6.169   6.608 -0.6239 -0.0460 -0.2844
 4949SOL    HW115746   6.726   6.185   6.684  0.3183  1.0423 -1.2633
 4949SOL    HW215747   6.569   6.172   6.642 -0.1996 -0.9597  1.0700
 4950SOL     OW15748   4.419   3.930   5.644 -0.0740  0.0026 -0.7541
 4950SOL    HW115749   4.497   3.903   5.701  1.1404  2.2388 -1.2405
 4950SOL    HW215750   4.448   3.937   5.549 -1.3410 -0.7722 -1.2206
 4951SOL     OW15751   5.174   1.744   6.845  0.7013 -0.0023  0.7440
 4951SOL    HW115752   5.226   1.825   6.817  0.9440 -0.1297  0.8204
 4951SOL    HW215753   5.215   1.706   6.928  0.7904 -0.3942  0.5212
 4952SOL     OW15754   4.735   1.081   1.553 -0.0771 -0.1720  0.0679
 4952SOL    HW115755   4.798   1.143   1.600 -1.8296  1.0903  0.8632
 4952SOL    HW215756   4.780   0.993   1.537  1.2951  0.0509  2.2684
 4953SOL     OW15757   2.427   5.282   4.918  0.2602 -0.3549 -0.5939
 4953SOL    HW115758   2.515   5.321   4.894 -0.3501  0.8132 -0.9843
 4953SOL    HW215759   2.371   5.271   4.836 -0.6567  0.6889 -0.1394
 4954SOL     OW15760   3.645   5.926   1.896 -0.1666  0.5288  0.4066
 4954SOL    HW115761   3.618   5.922   1.800 -0.6724  1.2220  0.5204
 4954SOL    HW215762   3.591   5.861   1.950  0.3484 -0.1060  0.1813
 4955SOL     OW15763   0.048   2.798   6.411 -0.2703 -0.0733  0.4399
 4955SOL    HW115764  -0.041   2.842   6.424 -1.1227 -1.9313  1.2383
 4955SOL    HW215765   0.078   2.757   6.497  0.5835 -0.8601 -0.2132
 4956SOL     OW15766   6.796   1.848   2.713 -0.2591  0.7647 -0.2706
 4956SOL    HW115767   6.845   1.831   2.799 -1.5365  1.3549  0.6090
 4956SOL    HW215768   6.825   1.782   2.644  1.9682  1.2743  0.1054
 4957SOL     OW15769   1.231   0.003   2.726 -0.1924 -0.2545 -0.1163
 4957SOL    HW115770   1.162  -0.047   2.779 -1.0706 -0.0121 -0.9897
 4957SOL    HW215771   1.188   0.040   2.643  0.9616  0.0455 -0.5951
 4958SOL     OW15772   0.596   4.723   1.327 -0.7486  0.2384 -0.8012
 4958SOL    HW115773   0.589   4.769   1.239  1.8120  0.3544 -1.0066
 4958SOL    HW215774   0.587   4.624   1.313  0.1546  0.2156 -1.2895
 4959SOL     OW15775   1.882   1.710   4.194 -0.5056 -0.0438  0.8243
 4959SOL    HW115776   1.902   1.790   4.138 -1.8060 -1.5136 -1.9275
 4959SOL    HW215777   1.965   1.684   4.245 -0.2429  3.3410  2.3928
 4960SOL     OW15778   5.731   5.769   0.319 -0.4508 -0.4486 -0.2236
 4960SOL    HW115779   5.637   5.740   0.300 -0.2008 -1.2534 -0.2308
 4960SOL    HW215780   5.788   5.754   0.239 -0.2770 -0.1040 -0.1672
 4961SOL     OW15781   4.892   4.123   3.938 -0.8930  0.4430 -0.2875
 4961SOL    HW115782   4.870   4.110   3.841 -1.3568  2.5961 -0.5305
 4961SOL    HW215783   4.992   4.122   3.949 -0.8229  0.5413 -0.8564
 4962SOL     OW15784   4.037   0.391   4.507  0.5273 -0.0869  0.3495
 4962SOL    HW115785   4.127   0.429   4.528  0.6682  0.5337 -1.2347
 4962SOL    HW215786   4.015   0.319   4.573  2.3336 -0.4914  0.5661
 4963SOL     OW15787   5.664   4.304   2.462  0.1631 -0.0206  0.4468
 4963SOL    HW115788   5.708   4.287   2.550  0.6272 -1.2995 -0.0061
 4963SOL    HW215789   5.631   4.398   2.459  0.9692  0.3249  1.6178
 4964SOL     OW15790   3.546   0.489   5.696  0.3870 -0.1653 -0.1996
 4964SOL    HW115791   3.503   0.478   5.606 -1.8172  0.4668  0.7180
 4964SOL    HW215792   3.622   0.554   5.688  0.4111 -0.3340 -1.6614
 4965SOL     OW15793   6.687   6.159   2.286  0.3900  0.1205 -0.1717
 4965SOL    HW115794   6.703   6.255   2.264  0.2785  0.1763 -0.0121
 4965SOL    HW215795   6.720   6.140   2.379 -0.3594  0.2109  0.1212
 4966SOL     OW15796   0.099   2.440   6.426 -0.3139 -0.4455  0.6356
 4966SOL    HW115797   0.171   2.474   6.486 -1.5116  3.2042  0.2417
 4966SOL    HW215798   0.095   2.495   6.343 -1.0969 -3.0495 -1.2153
 4967SOL     OW15799   4.596   5.233   6.533 -0.1631  0.5225  0.5233
 4967SOL    HW115800   4.581   5.262   6.627 -0.4917  1.6397  0.1373
 4967SOL    HW215801   4.566   5.138   6.522  1.1574 -0.0857  1.8703
 4968SOL     OW15802   3.760   6.412   1.578 -0.2603  0.1855  0.2863
 4968SOL    HW115803   3.718   6.502   1.567 -0.8447 -0.3389 -2.6768
 4968SOL    HW215804   3.843   6.420   1.634  0.2664  2.7373 -0.7362
 4969SOL     OW15805   3.039   4.952   3.497 -0.0855  0.0433  0.2134
 4969SOL    HW115806   2.994   4.892   3.564 -0.6920  0.2553  0.0048
 4969SOL    HW215807   3.015   4.922   3.405  0.1039  0.2366  0.1029
 4970SOL     OW15808   3.816   4.710   5.543  0.0919 -0.3511  0.3335
 4970SOL    HW115809   3.887   4.688   5.609  0.4777 -0.6102 -0.1608
 4970SOL    HW215810   3.842   4.676   5.453 -0.6436 -0.4251  0.1389
 4971SOL     OW15811   5.132   0.168   6.423  0.0188  0.3903 -0.2714
 4971SOL    HW115812   5.108   0.253   6.376  2.1369  0.1536 -1.9329
 4971SOL    HW215813   5.195   0.187   6.497 -0.9447  0.4269  0.5614
 4972SOL     OW15814   5.096   1.536   6.681 -0.0686  0.0174 -0.5001
 4972SOL    HW115815   5.122   1.571   6.772 -1.3250  0.5311 -0.3070
 4972SOL    HW215816   5.051   1.609   6.630 -2.0088 -1.0431 -0.4140
 4973SOL     OW15817   5.184   0.037   3.967  0.5210 -0.4209 -0.1915
 4973SOL    HW115818   5.172  -0.034   3.898  0.4822 -1.5142  0.8870
 4973SOL    HW215819   5.163  -0.001   4.057  2.5995  0.3535  0.6790
 4974SOL     OW15820   4.648   6.930   0.749 -0.5070 -0.4476  0.7727
 4974SOL    HW115821   4.682   6.837   0.762  2.9573  0.4538 -0.7312
 4974SOL    HW215822   4.568   6.929   0.691 -0.6285 -2.4848  0.9216
 4975SOL     OW15823   0.518   5.326   0.565 -0.5668 -0.0845 -0.3709
 4975SOL    HW115824   0.524   5.315   0.466 -0.0782 -0.5493 -0.2954
 4975SOL    HW215825   0.582   5.264   0.610 -0.4806  0.4147  0.2246
 4976SOL     OW15826   0.613   4.795   1.990  0.1857  0.8662 -0.0368
 4976SOL    HW115827   0.675   4.810   1.914  1.0353 -0.6902  0.3285
 4976SOL    HW215828   0.650   4.727   2.052  0.3756  3.2790  2.7591
 4977SOL     OW15829   0.991   4.563   1.959 -0.0177 -0.4189  0.5056
 4977SOL    HW115830   0.894   4.572   1.937 -0.0074  0.9715  0.9044
 4977SOL    HW215831   1.018   4.636   2.022  1.4001 -0.4434 -0.0158
 4978SOL     OW15832   6.234   6.314   2.478  0.6776 -0.3206  0.1862
 4978SOL    HW115833   6.234   6.342   2.574  1.2664 -1.0558  0.4087
 4978SOL    HW215834   6.296   6.373   2.426  2.0942 -1.2913  0.6957
 4979SOL     OW15835   4.270   5.998   5.569  0.3486 -0.0484  0.2254
 4979SOL    HW115836   4.357   5.989   5.519  0.6712  2.9553  0.0988
 4979SOL    HW215837   4.209   5.923   5.542  1.3154  0.1724 -3.0545
 4980SOL     OW15838   0.019   6.105   0.184  0.2768  1.2650  0.1089
 4980SOL    HW115839   0.021   6.088   0.282  0.4405  1.3600  0.1226
 4980SOL    HW215840   0.113   6.106   0.149  0.2403  1.6452  0.0223
 4981SOL     OW15841   6.900   2.891   0.878 -0.2688  0.1874 -0.2287
 4981SOL    HW115842   6.852   2.951   0.814 -1.1540  1.0259  1.1684
 4981SOL    HW215843   6.891   2.796   0.847  1.4499  0.7279 -2.6600
 4982SOL     OW15844   3.737   4.525   6.623  0.6070 -0.5261  0.4532
 4982SOL    HW115845   3.731   4.454   6.692  1.3809 -1.2723 -0.2297
 4982SOL    HW215846   3.673   4.599   6.645 -1.7952 -2.3648  0.0940
 4983SOL     OW15847   2.469   1.056   5.199  0.1749  0.3269 -0.5304
 4983SOL    HW115848   2.409   1.130   5.231  1.9244  1.2963  0.7122
 4983SOL    HW215849   2.482   0.990   5.273  1.2253  0.5579 -0.4900
 4984SOL     OW15850   0.600   0.627   4.617  0.1407 -0.0685 -0.0762
 4984SOL    HW115851   0.689   0.654   4.580  0.8089 -1.6935  0.2871
 4984SOL    HW215852   0.541   0.596   4.543  0.5494 -0.7848 -0.1088
 4985SOL     OW15853   5.023   5.536   1.745 -0.1852  0.3445  0.0089
 4985SOL    HW115854   4.979   5.509   1.659  0.4886  0.4793 -0.3927
 4985SOL    HW215855   4.973   5.498   1.822 -0.1811 -0.6913 -0.4834
 4986SOL     OW15856   4.849   3.405   6.504 -0.1504 -0.6308  0.1017
 4986SOL    HW115857   4.931   3.389   6.449  0.0949  2.2067 -0.5151
 4986SOL    HW215858   4.797   3.482   6.465 -2.0064 -1.0034  1.6791
 4987SOL     OW15859   0.430   6.011   1.798 -0.0128 -0.2817 -0.7943
 4987SOL    HW115860   0.455   6.103   1.829  1.0585 -0.7581 -0.1888
 4987SOL    HW215861   0.375   6.018   1.715  2.2350  0.8572 -2.2962
 4988SOL     OW15862   3.408   6.188   0.835  0.2962  0.3587  0.0996
 4988SOL    HW115863   3.336   6.221   0.774  0.2915  1.3738  0.6278
 4988SOL    HW215864   3.481   6.146   0.781  0.3338  1.3154 -0.6191
 4989SOL     OW15865   2.193   5.584   5.819  0.3493 -0.0982  0.3610
 4989SOL    HW115866   2.207   5.653   5.890  1.0584  2.4672 -2.0860
 4989SOL    HW215867   2.282   5.548   5.791  0.2711  0.4098 -0.5709
 4990SOL     OW15868   4.692   6.190   0.478 -0.0670 -0.0636 -0.4402
 4990SOL    HW115869   4.643   6.125   0.535 -0.8290 -1.2690 -2.3654
 4990SOL    HW215870   4.663   6.283   0.500 -0.1640 -0.4712  1.2400
 4991SOL     OW15871   1.168   5.409   4.996  1.1770  0.0575  0.2914
 4991SOL    HW115872   1.134   5.494   4.956  0.2286 -1.0170 -1.3004
 4991SOL    HW215873   1.265   5.397   4.972  1.1674  0.4349  0.0637
 4992SOL     OW15874   2.738   6.551   0.264  0.3736  0.4409 -0.6037
 4992SOL    HW115875   2.649   6.515   0.238  0.1143  1.1505 -0.7032
 4992SOL    HW215876   2.807   6.478   0.257 -0.2143 -0.1359 -0.4082
 4993SOL     OW15877   2.998   1.883   4.298 -0.0402  0.3469 -0.1015
 4993SOL    HW115878   3.035   1.848   4.212  0.8326  2.1265 -0.4955
 4993SOL    HW215879   2.929   1.819   4.333  0.3513 -0.9385 -1.5505
 4994SOL     OW15880   6.200   0.506   6.427  0.3617 -0.0173  0.3012
 4994SOL    HW115881   6.265   0.582   6.436  0.5480 -0.0683 -0.5617
 4994SOL    HW215882   6.107   0.541   6.439  0.3399  0.6215 -1.3626
 4995SOL     OW15883   6.423   2.710   3.565 -0.6315 -0.2671 -0.2150
 4995SOL    HW115884   6.373   2.628   3.594  1.5133 -0.7357  2.6566
 4995SOL    HW215885   6.507   2.683   3.518 -1.0375  0.3901 -1.3530
 4996SOL     OW15886   1.505   3.238   2.257 -0.2266 -0.1598 -0.4580
 4996SOL    HW115887   1.451   3.271   2.335  0.2297 -3.7990  1.6401
 4996SOL    HW215888   1.593   3.285   2.256 -0.2889  0.0577  1.1893
 4997SOL     OW15889   5.523   3.792   5.923 -0.1497 -0.1702  0.1925
 4997SOL    HW115890   5.429   3.764   5.944 -0.5446  2.0770  1.8578
 4997SOL    HW215891   5.522   3.865   5.856  0.4931 -0.7183 -0.4256
 4998SOL     OW15892   1.764   6.740   0.465  0.2246  0.2635  0.1850
 4998SOL    HW115893   1.730   6.830   0.492 -1.7973 -0.7786  1.3069
 4998SOL    HW215894   1.767   6.734   0.365  0.0102  1.4185  0.0972
 4999SOL     OW15895   1.402   0.256   3.435  0.7716 -0.4427 -0.0121
 4999SOL    HW115896   1.323   0.219   3.385 -0.4625 -1.3578  2.4469
 4999SOL    HW215897   1.378   0.346   3.471  0.6578 -0.9091  1.1131
 5000SOL     OW15898   2.161   4.158   1.693  0.8240  0.1393 -0.1283
 5000SOL    HW115899   2.170   4.072   1.643  1.1089  0.1036 -0.0140
 5000SOL    HW215900   2.245   4.211   1.685  0.0439  1.2324 -1.7096
 5001SOL     OW15901   5.571   3.289   4.691  0.5250 -0.4749 -0.2705
 5001SOL    HW115902   5.573   3.195   4.656 -3.3624 -1.3847  1.4196
 5001SOL    HW215903   5.535   3.350   4.620  0.7355 -0.7198 -0.5906
 5002SOL     OW15904   1.029   0.405   1.798  0.5075 -0.3105 -0.2772
 5002SOL    HW115905   0.958   0.337   1.813  0.8845 -0.9767 -1.4204
 5002SOL    HW215906   1.118   0.366   1.820  0.8950 -0.7592 -2.4421
 5003SOL     OW15907   5.001   4.603   6.359 -0.3880 -0.3178 -0.3645
 5003SOL    HW115908   4.938   4.659   6.414 -0.8769 -1.5754  0.3931
 5003SOL    HW215909   4.977   4.612   6.262 -3.3206 -2.5432  0.0088
 5004SOL     OW15910   5.152   3.547   0.394 -0.0306  0.8404 -0.0004
 5004SOL    HW115911   5.062   3.586   0.414 -0.0691  0.8575 -0.2043
 5004SOL    HW215912   5.190   3.506   0.477 -1.6090 -2.0084 -0.5586
 5005SOL     OW15913   0.840   2.399   3.426 -0.0822 -0.0159 -0.0006
 5005SOL    HW115914   0.853   2.302   3.445  1.6817  0.1985  0.1235
 5005SOL    HW215915   0.850   2.415   3.328  0.0902  0.0936  0.0342
 5006SOL     OW15916   3.427   0.136   2.985  0.3220  0.0248 -0.2942
 5006SOL    HW115917   3.374   0.112   2.904  0.7609 -3.5085  0.2989
 5006SOL    HW215918   3.503   0.195   2.959 -1.6297  2.0612 -1.7557
 5007SOL     OW15919   6.479   2.331   4.081  0.2964  0.4420 -0.1283
 5007SOL    HW115920   6.396   2.332   4.138  0.2749 -0.0687 -0.1474
 5007SOL    HW215921   6.560   2.336   4.140  0.2960 -0.9569  0.0040
 5008SOL     OW15922   5.141   0.872   3.671  0.3154 -0.0833  0.2945
 5008SOL    HW115923   5.227   0.869   3.619 -1.6859  0.0971 -3.3471
 5008SOL    HW215924   5.131   0.787   3.722  2.7031 -0.0167  1.0238
 5009SOL     OW15925   0.101   1.182   5.634  0.5543 -0.5220 -0.0027
 5009SOL    HW115926   0.038   1.227   5.697  2.1151  0.9913  0.5482
 5009SOL    HW215927   0.120   1.089   5.668 -0.3437 -0.5170  0.5393
 5010SOL     OW15928   5.108   1.114   1.426  0.4168  0.1553 -0.2969
 5010SOL    HW115929   5.191   1.162   1.396  0.8523  0.5824  1.4673
 5010SOL    HW215930   5.028   1.164   1.394  0.8394  0.6007 -0.6900
 5011SOL     OW15931   5.809   3.179   1.078 -0.2193  0.3068  0.0154
 5011SOL    HW115932   5.882   3.247   1.068 -0.3471  0.8508  2.1881
 5011SOL    HW215933   5.803   3.151   1.174 -2.1272 -0.5669 -0.3178
 5012SOL     OW15934   2.439   0.974   2.458  0.2468  0.0954 -0.3373
 5012SOL    HW115935   2.535   0.996   2.445  0.3916 -0.3079  0.0495
 5012SOL    HW215936   2.385   1.019   2.386  0.6840  0.5675 -0.3772
 5013SOL     OW15937   2.527   0.158   6.940 -0.0634  0.0550  0.3068
 5013SOL    HW115938   2.612   0.161   6.888  1.0039  0.4265  2.0190
 5013SOL    HW215939   2.534   0.216   7.021 -1.1598 -1.5226  1.6085
 5014SOL     OW15940   4.571   3.181   6.786  0.0862  0.0553  0.5001
 5014SOL    HW115941   4.541   3.087   6.773  0.6953 -0.1092  0.2531
 5014SOL    HW215942   4.582   3.200   6.883 -0.5013  0.0227  0.5764
 5015SOL     OW15943   3.432   1.318   2.778  0.0316 -0.0135 -0.1830
 5015SOL    HW115944   3.483   1.264   2.711  0.4351  0.3778 -0.1900
 5015SOL    HW215945   3.398   1.257   2.850  0.7709 -0.2336 -0.0126
 5016SOL     OW15946   4.281   6.593   3.434 -0.4737 -0.3451 -0.2452
 5016SOL    HW115947   4.353   6.610   3.366  0.7943 -0.0364  1.1097
 5016SOL    HW215948   4.235   6.679   3.456  0.7707  0.0334  1.0258
 5017SOL     OW15949   1.853   5.983   4.066  0.0395 -0.9236 -0.1318
 5017SOL    HW115950   1.828   6.052   3.998  0.0429 -2.1761 -1.4349
 5017SOL    HW215951   1.828   5.892   4.033 -0.3829 -1.5406  1.7480
 5018SOL     OW15952   3.642   5.865   5.938 -0.2482 -0.1419  0.6499
 5018SOL    HW115953   3.603   5.798   5.875  0.2980 -1.6155  1.8161
 5018SOL    HW215954   3.575   5.890   6.007  0.0706 -0.7968  1.2073
 5019SOL     OW15955   6.684   5.569   5.675  0.1385 -0.1115  0.1021
 5019SOL    HW115956   6.597   5.606   5.643  0.1580  0.5611  0.8122
 5019SOL    HW215957   6.669   5.515   5.757  0.7837  2.9389  2.3907
 5020SOL     OW15958   6.780   0.210   5.450  0.1577 -0.6058  0.3756
 5020SOL    HW115959   6.833   0.276   5.504  1.8058 -0.3611 -1.4320
 5020SOL    HW215960   6.703   0.257   5.406  0.8179 -0.0434 -0.2062
 5021SOL     OW15961   6.778   6.769   6.012  0.5478  0.2153  0.2925
 5021SOL    HW115962   6.807   6.683   5.968 -0.9486  0.1560 -0.6552
 5021SOL    HW215963   6.678   6.776   6.008  0.6827  2.7500 -1.1343
 5022SOL     OW15964   6.440   1.183   6.379 -0.4494  0.0948 -0.4828
 5022SOL    HW115965   6.360   1.224   6.335  0.4995  0.4738 -1.9180
 5022SOL    HW215966   6.457   1.093   6.339 -1.6179 -1.1409  1.5920
 5023SOL     OW15967   4.173   6.613   2.847 -0.1526 -0.5117 -0.2902
 5023SOL    HW115968   4.093   6.628   2.788  0.7688  0.5993 -1.3150
 5023SOL    HW215969   4.240   6.557   2.798  0.7930  0.7607 -0.4898
 5024SOL     OW15970   1.829   1.126   0.931  0.5162  0.4792  0.2854
 5024SOL    HW115971   1.733   1.129   0.903  0.6132 -0.3192 -0.1547
 5024SOL    HW215972   1.836   1.156   1.026  0.1511  2.8595 -0.3883
 5025SOL     OW15973   0.118   5.891   2.045  0.6543  0.0103 -0.1027
 5025SOL    HW115974   0.198   5.851   2.001  0.2057  0.3446 -1.2563
 5025SOL    HW215975   0.042   5.892   1.981  0.5243  2.3619  0.0147
 5026SOL     OW15976   0.355   1.923   3.968 -0.0490 -0.3919  0.0892
 5026SOL    HW115977   0.406   1.926   4.054 -0.2851  1.1543  0.2080
 5026SOL    HW215978   0.396   1.855   3.907  2.1689  0.7894  0.1745
 5027SOL     OW15979   6.585   1.957   1.411 -0.4915  0.0817  0.1613
 5027SOL    HW115980   6.534   1.974   1.327 -0.0801 -3.0992 -0.8723
 5027SOL    HW215981   6.664   2.018   1.415  1.0042 -1.3653 -3.2151
 5028SOL     OW15982   4.274   1.947   5.347  0.2297  0.4864 -0.2672
 5028SOL    HW115983   4.265   1.985   5.255 -1.9538 -0.0296 -0.3366
 5028SOL    HW215984   4.215   1.999   5.410  0.8105  0.1163  0.5967
 5029SOL     OW15985   1.496   3.794   1.786 -0.3318 -0.3705 -0.6010
 5029SOL    HW115986   1.480   3.840   1.699 -1.5195  1.7084  0.6268
 5029SOL    HW215987   1.497   3.695   1.772 -0.9462 -0.0992 -2.8962
 5030SOL     OW15988   3.205   3.296   7.012  0.8952 -0.0595  0.1871
 5030SOL    HW115989   3.295   3.339   7.021  1.1109 -0.0554 -1.5810
 5030SOL    HW215990   3.216   3.197   7.012  0.9042 -0.0583 -0.0745
 5031SOL     OW15991   4.598   1.056   5.122  0.0219  0.0128 -0.8088
 5031SOL    HW115992   4.613   1.105   5.036  0.7322 -0.6649 -1.0815
 5031SOL    HW215993   4.683   1.058   5.176 -0.6174  1.0515  0.2122
 5032SOL     OW15994   1.610   0.089   3.733 -0.4391 -0.3027 -0.3398
 5032SOL    HW115995   1.565   0.177   3.717 -1.7827 -1.1235 -1.2922
 5032SOL    HW215996   1.706   0.104   3.757 -0.3427  1.3778 -1.6122
 5033SOL     OW15997   1.675   0.837   6.407  0.1620 -0.0654  0.3984
 5033SOL    HW115998   1.670   0.873   6.314 -0.4065 -0.4438  0.2793
 5033SOL    HW215999   1.618   0.892   6.468  0.8389  0.4202  0.6090
 5034SOL     OW16000   1.941   2.136   0.017  0.0172  0.0003 -0.0766
 5034SOL    HW116001   2.033   2.141   0.057  1.4531  0.5003 -3.1337
 5034SOL    HW216002   1.905   2.228   0.006 -0.2827 -0.1205 -0.1051
 5035SOL     OW16003   5.250   2.930   4.117  0.1130 -0.0284  0.4325
 5035SOL    HW116004   5.173   2.920   4.180  0.2693 -0.0436  0.6202
 5035SOL    HW216005   5.277   2.840   4.083 -0.4232  0.0380 -0.2028
 5036SOL     OW16006   0.335   0.157   3.397  0.5806 -0.2988  1.0068
 5036SOL    HW116007   0.327   0.256   3.408  1.3735 -0.2838  1.5249
 5036SOL    HW216008   0.259   0.123   3.343  0.8574  0.7385 -0.0620
 5037SOL     OW16009   2.427   1.545   0.105 -0.6984  0.1310  0.4619
 5037SOL    HW116010   2.431   1.644   0.090 -1.8330  0.0834 -0.3113
 5037SOL    HW216011   2.338   1.511   0.076 -0.9930 -0.8637  2.3988
 5038SOL     OW16012   6.509   4.856   0.752  0.0960 -0.0364  0.1199
 5038SOL    HW116013   6.487   4.938   0.806 -0.6052 -0.4807  0.5285
 5038SOL    HW216014   6.541   4.783   0.813  4.7831  1.1290 -0.5571
 5039SOL     OW16015   3.167   0.450   6.166  0.2037  0.2140  0.0324
 5039SOL    HW116016   3.083   0.479   6.121 -0.4209 -0.9675  0.3864
 5039SOL    HW216017   3.237   0.520   6.155 -0.4326  0.6607 -1.3614
 5040SOL     OW16018   0.495   6.687   5.264  0.3532  0.7166 -0.1934
 5040SOL    HW116019   0.525   6.766   5.319  2.2022 -0.7093  0.9644
 5040SOL    HW216020   0.502   6.604   5.319 -1.5691 -0.2995 -1.3831
 5041SOL     OW16021   0.952   3.366   2.286  0.1548  0.3287 -0.0431
 5041SOL    HW116022   0.873   3.352   2.345 -0.0937 -1.5119 -0.7681
 5041SOL    HW216023   0.994   3.455   2.307 -1.7500  1.0848  0.7219
 5042SOL     OW16024   2.693   2.315   2.770 -0.3159 -0.1722 -0.0313
 5042SOL    HW116025   2.776   2.308   2.824  0.5730  0.6018 -1.2410
 5042SOL    HW216026   2.684   2.234   2.712 -0.5707 -0.3864  0.3003
 5043SOL     OW16027   6.584   3.573   1.557 -0.0368 -0.3736 -0.0996
 5043SOL    HW116028   6.581   3.669   1.527  0.9598  0.1010  1.2013
 5043SOL    HW216029   6.628   3.517   1.487 -2.8416 -0.3878 -1.9869
 5044SOL     OW16030   1.232   4.202   2.847 -0.8199  0.4258 -0.2780
 5044SOL    HW116031   1.266   4.160   2.763  2.1922  1.6298  0.2021
 5044SOL    HW216032   1.241   4.138   2.923 -0.6464  0.3557 -0.3570
 5045SOL     OW16033   1.645   3.673   1.457  0.2168 -0.2838  0.0526
 5045SOL    HW116034   1.688   3.697   1.370  1.5791 -0.5451  0.6177
 5045SOL    HW216035   1.697   3.599   1.500  0.2941  0.6489  1.6343
 5046SOL     OW16036   2.475   6.136   1.139  0.6113  0.3306 -0.2010
 5046SOL    HW116037   2.477   6.221   1.191 -0.6471  1.7171 -2.2530
 5046SOL    HW216038   2.403   6.076   1.175  0.2351  0.9624  0.1005
 5047SOL     OW16039   1.782   6.372   6.340  0.5668 -0.4428  0.1128
 5047SOL    HW116040   1.782   6.276   6.314  0.9509 -0.6077  0.6890
 5047SOL    HW216041   1.810   6.380   6.436 -1.1348  0.0962  0.6058
 5048SOL     OW16042   6.950   3.704   0.752 -0.0104 -0.1384  0.7461
 5048SOL    HW116043   7.032   3.682   0.805  0.9356 -1.2799 -1.0927
 5048SOL    HW216044   6.963   3.789   0.702  0.0877 -0.3378  0.4261
 5049SOL     OW16045   2.348   6.130   6.633 -0.0741 -0.2877 -0.0948
 5049SOL    HW116046   2.326   6.033   6.634 -0.0098 -0.3077  1.4434
 5049SOL    HW216047   2.439   6.143   6.594  0.8252 -1.0735  1.6667
 5050SOL     OW16048   0.859   1.306   4.126 -0.1106 -0.4344  0.4071
 5050SOL    HW116049   0.860   1.253   4.211 -1.5672 -1.8815 -0.4079
 5050SOL    HW216050   0.768   1.299   4.084  0.4786  0.5360 -1.1063
 5051SOL     OW16051   2.044   4.051   0.712 -0.3980  0.6129  0.1876
 5051SOL    HW116052   2.020   4.109   0.634 -2.7529 -0.7851 -0.2364
 5051SOL    HW216053   1.960   4.013   0.751  1.0176 -3.8399 -0.6120
 5052SOL     OW16054   6.302   3.095   3.355  0.9490 -0.0809 -0.1428
 5052SOL    HW116055   6.308   3.157   3.433  1.4819  1.2888 -1.2271
 5052SOL    HW216056   6.253   3.012   3.381  0.3832  0.7165  1.3988
 5053SOL     OW16057   5.425   4.636   5.156 -0.3518  0.0023  0.4004
 5053SOL    HW116058   5.362   4.674   5.225 -1.1218  0.2396 -0.4159
 5053SOL    HW216059   5.460   4.548   5.188 -0.2709  0.3591  1.3365
 5054SOL     OW16060   6.021   0.548   0.264  0.9168  0.1339 -0.1100
 5054SOL    HW116061   6.080   0.474   0.233 -1.6847 -2.4943  0.7404
 5054SOL    HW216062   5.942   0.555   0.202 -0.7657 -0.4402  1.8486
 5055SOL     OW16063   3.813   1.491   0.036 -0.1829  0.2231  0.1147
 5055SOL    HW116064   3.738   1.544   0.074  0.3076  1.3992 -0.4906
 5055SOL    HW216065   3.899   1.540   0.051  0.1161  0.3616 -1.7882
 5056SOL     OW16066   0.977   5.574   0.852 -0.4586  0.4810 -0.1804
 5056SOL    HW116067   0.971   5.667   0.815  2.1818  0.1039 -1.8577
 5056SOL    HW216068   0.906   5.518   0.811  0.5235  0.8304 -2.5556
 5057SOL     OW16069   5.369   6.556   1.848 -0.1064 -0.6783 -0.1046
 5057SOL    HW116070   5.405   6.528   1.938  0.9562  1.3421  0.1663
 5057SOL    HW216071   5.302   6.629   1.861  1.1694  0.7031 -0.9822
 5058SOL     OW16072   5.064   6.322   3.392 -0.0349  0.4090 -0.2710
 5058SOL    HW116073   5.118   6.238   3.396  1.9178  1.6556  1.4882
 5058SOL    HW216074   4.971   6.300   3.364 -0.2691 -2.7223  2.3856
 5059SOL     OW16075   0.424   5.349   1.869 -0.0519 -0.5333  0.2023
 5059SOL    HW116076   0.339   5.337   1.921  1.2030 -2.4083  1.9653
 5059SOL    HW216077   0.488   5.403   1.923  0.4130 -0.4001 -0.4747
 5060SOL     OW16078   6.497   5.103   0.884 -0.0536 -0.1684  0.6732
 5060SOL    HW116079   6.482   5.200   0.899 -0.8946 -0.1979  0.1170
 5060SOL    HW216080   6.478   5.052   0.968  0.8588  0.1808  1.1052
 5061SOL     OW16081   0.366   0.630   2.297  0.5148  0.0242 -0.1229
 5061SOL    HW116082   0.351   0.537   2.261 -0.4537  0.1456 -0.0657
 5061SOL    HW216083   0.463   0.653   2.289  0.6904 -0.8043 -0.5918
 5062SOL     OW16084   5.433   1.758   2.483 -0.7356  0.1381  0.1932
 5062SOL    HW116085   5.401   1.687   2.546 -0.1943  0.6244  1.0244
 5062SOL    HW216086   5.421   1.726   2.389  0.1399 -1.3587  0.5507
 5063SOL     OW16087   2.638   4.023   5.345 -0.2370  0.1526  0.1264
 5063SOL    HW116088   2.697   3.942   5.345 -1.3580 -0.7146  1.3597
 5063SOL    HW216089   2.560   4.007   5.284 -0.8341 -0.0107  0.9139
 5064SOL     OW16090   0.878   6.249   1.446  0.3905 -0.4722  0.2638
 5064SOL    HW116091   0.850   6.154   1.456 -1.2299 -0.1256 -0.6162
 5064SOL    HW216092   0.948   6.257   1.375 -0.3824 -0.8732 -0.5572
 5065SOL     OW16093   3.872   1.137   4.586 -1.0831 -0.1401  0.3582
 5065SOL    HW116094   3.843   1.054   4.634 -0.5705  0.6044  2.0304
 5065SOL    HW216095   3.971   1.136   4.574 -1.2437 -0.5063 -1.1139
 5066SOL     OW16096   5.140   4.359   3.849  0.0731 -0.3666  0.1240
 5066SOL    HW116097   5.126   4.309   3.934  0.8622 -2.4209 -0.8754
 5066SOL    HW216098   5.120   4.299   3.771  0.5704  1.0457 -1.1489
 5067SOL     OW16099   6.665   3.905   1.773 -0.6049 -0.2559 -0.1975
 5067SOL    HW116100   6.723   3.869   1.846 -1.9139  0.7144  1.3729
 5067SOL    HW216101   6.569   3.899   1.800 -1.2534 -1.1743 -2.4453
 5068SOL     OW16102   4.730   1.764   2.706 -0.2025 -0.0362  0.4653
 5068SOL    HW116103   4.823   1.764   2.668 -0.9188 -1.8117 -1.4643
 5068SOL    HW216104   4.682   1.847   2.678 -0.1082 -0.4532 -1.0085
 5069SOL     OW16105   1.427   4.256   1.133  0.1386 -0.3804 -0.6696
 5069SOL    HW116106   1.414   4.243   1.034 -1.3592  0.1273 -0.5688
 5069SOL    HW216107   1.364   4.328   1.165 -0.0495 -1.1777  0.8161
 5070SOL     OW16108   6.410   6.635   5.304  0.0333 -0.0539 -0.4100
 5070SOL    HW116109   6.508   6.650   5.296 -0.0555  0.0068 -1.5611
 5070SOL    HW216110   6.387   6.546   5.263 -0.2251 -0.7002  1.0657
 5071SOL     OW16111   3.280   5.902   2.416 -0.0195  0.1356 -0.3725
 5071SOL    HW116112   3.183   5.924   2.425  0.4231  1.8329  0.6004
 5071SOL    HW216113   3.335   5.979   2.447  1.6531 -1.4758  0.8805
 5072SOL     OW16114   3.584   5.656   4.990  0.1831 -0.1558 -0.2106
 5072SOL    HW116115   3.669   5.648   5.043 -0.1746  0.8001  0.5330
 5072SOL    HW216116   3.506   5.658   5.052 -0.2256  1.2726 -0.7347
 5073SOL     OW16117   4.467   4.529   3.650  0.1178  0.0020 -0.2560
 5073SOL    HW116118   4.504   4.436   3.656 -1.2871 -0.5241  0.7908
 5073SOL    HW216119   4.522   4.591   3.706 -0.2033 -0.6476  0.7962
 5074SOL     OW16120   3.931   4.403   1.441  0.3613 -0.3178 -0.0258
 5074SOL    HW116121   3.862   4.334   1.462  2.4988 -2.0202  1.7637
 5074SOL    HW216122   3.978   4.379   1.356  0.9565 -0.9712  0.4826
 5075SOL     OW16123   4.525   4.973   6.545 -0.5362 -0.4651 -0.0663
 5075SOL    HW116124   4.448   4.914   6.568  0.6102 -2.7530 -1.6504
 5075SOL    HW216125   4.593   4.969   6.618 -1.6603  1.2385  1.1452
 5076SOL     OW16126   6.271   4.353   0.715 -0.3781  0.2436 -0.3258
 5076SOL    HW116127   6.237   4.314   0.800 -1.3834  0.6174 -0.5347
 5076SOL    HW216128   6.371   4.350   0.714 -0.3770 -0.4032  0.5519
 5077SOL     OW16129   1.123   2.981   7.014  0.1742 -0.0813 -0.1608
 5077SOL    HW116130   1.116   3.024   7.104 -0.3846 -0.0488 -0.2155
 5077SOL    HW216131   1.207   2.927   7.009  0.2798  0.0362  0.3292
 5078SOL     OW16132   3.977   1.476   5.838  0.3363  0.0444  0.2672
 5078SOL    HW116133   3.954   1.530   5.919  0.6476  1.4350 -0.5423
 5078SOL    HW216134   3.953   1.527   5.755  0.2446 -1.2475 -0.5372
 5079SOL     OW16135   4.546   3.704   6.517 -0.6070  0.5003  0.5098
 5079SOL    HW116136   4.537   3.627   6.581 -1.9820  0.8033  0.7158
 5079SOL    HW216137   4.481   3.692   6.441 -0.9060  1.5000  0.5944
 5080SOL     OW16138   6.787   5.621   6.817  0.6944 -0.1122 -0.2919
 5080SOL    HW116139   6.710   5.566   6.849  1.9766 -1.3381  0.8294
 5080SOL    HW216140   6.755   5.688   6.750 -0.8554 -2.6964 -2.3315
 5081SOL     OW16141   1.145   6.622   7.014  0.1034 -0.1830  0.0482
 5081SOL    HW116142   1.220   6.651   7.073 -1.1067  0.9658  1.0923
 5081SOL    HW216143   1.121   6.696   6.951 -2.7505  1.1594  2.4632
 5082SOL     OW16144   6.253   1.911   5.241 -0.2732 -0.8297  0.4067
 5082SOL    HW116145   6.179   1.963   5.283 -0.5982 -0.9571  0.0032
 5082SOL    HW216146   6.341   1.946   5.272 -0.4402  0.9413 -0.9768
 5083SOL     OW16147   0.256   0.314   4.328 -0.5428  0.2282 -0.2068
 5083SOL    HW116148   0.182   0.344   4.388 -1.7049 -0.9563 -1.0136
 5083SOL    HW216149   0.218   0.278   4.243  0.9345 -0.9054 -0.4258
 5084SOL     OW16150   1.351   6.677   4.903  0.0138  0.6388 -0.1479
 5084SOL    HW116151   1.304   6.709   4.985 -0.7695 -0.0940 -0.3046
 5084SOL    HW216152   1.322   6.731   4.824  2.5317  2.9675  0.3791
 5085SOL     OW16153   1.349   0.732   0.896 -0.3144  0.7610 -0.1124
 5085SOL    HW116154   1.353   0.654   0.959 -0.4199  0.5280 -0.3905
 5085SOL    HW216155   1.288   0.710   0.819  1.3387  0.2580 -1.3495
 5086SOL     OW16156   5.863   6.119   4.241  0.4680 -0.1212 -0.1239
 5086SOL    HW116157   5.914   6.034   4.252  1.8265  0.5728 -0.8946
 5086SOL    HW216158   5.909   6.192   4.291 -0.2179  0.3510 -0.1688
 5087SOL     OW16159   0.009   6.756   6.458  0.0498  0.5136 -0.1761
 5087SOL    HW116160  -0.042   6.841   6.466  1.2841  1.3612 -1.0324
 5087SOL    HW216161   0.086   6.757   6.522  1.2291  0.9305 -1.5448
 5088SOL     OW16162   6.252   2.295   6.044 -0.5416  0.0528  0.6033
 5088SOL    HW116163   6.304   2.293   6.130  0.5647 -0.0238 -0.0491
 5088SOL    HW216164   6.288   2.227   5.981 -1.5291 -0.0830  0.1705
 5089SOL     OW16165   3.510   4.639   6.975 -0.2488  0.1285  0.7309
 5089SOL    HW116166   3.435   4.690   7.018 -0.7005  1.8063 -1.8663
 5089SOL    HW216167   3.490   4.541   6.979 -1.3136  0.3736  2.3179
 5090SOL     OW16168   5.688   1.336   2.054  0.1610 -0.0743 -0.4344
 5090SOL    HW116169   5.775   1.286   2.052  2.3535  3.3556 -3.2966
 5090SOL    HW216170   5.642   1.327   1.966 -1.9511 -0.8791  0.6629
 5091SOL     OW16171   1.769   2.927   5.943  0.3564 -0.2456  0.3547
 5091SOL    HW116172   1.777   2.871   5.860 -0.3998 -1.4854  1.0869
 5091SOL    HW216173   1.796   3.021   5.922  1.4110 -0.8014 -0.9809
 5092SOL     OW16174   5.506   1.049   6.522  0.5404  0.1382  0.4680
 5092SOL    HW116175   5.571   1.047   6.597  0.4928  2.2346  0.6123
 5092SOL    HW216176   5.540   0.992   6.447  0.8424 -1.5403  1.8142
 5093SOL     OW16177   4.170   2.466   5.784 -0.2817 -0.3267  0.0420
 5093SOL    HW116178   4.166   2.552   5.732 -1.7496 -0.3004  0.1472
 5093SOL    HW216179   4.260   2.423   5.771 -0.5643 -0.3026 -2.5200
 5094SOL     OW16180   6.340   3.682   5.617 -0.2323 -0.1747  0.3567
 5094SOL    HW116181   6.374   3.748   5.684  1.3014 -0.2350 -0.3082
 5094SOL    HW216182   6.348   3.721   5.525 -0.0704 -0.9840  0.0183
 5095SOL     OW16183   2.697   0.508   0.725 -0.7995 -0.7750  0.2153
 5095SOL    HW116184   2.650   0.432   0.681 -2.1820 -0.1720  0.6147
 5095SOL    HW216185   2.638   0.589   0.726  0.4600  0.1761  0.2258
 5096SOL     OW16186   6.532   6.172   3.321  0.5714 -0.0766 -0.4120
 5096SOL    HW116187   6.537   6.085   3.369  0.1007  0.4841  0.7011
 5096SOL    HW216188   6.495   6.159   3.229  0.1838 -1.0001 -0.1300
 5097SOL     OW16189   0.080   0.007   1.227 -0.1986  0.3368 -0.0423
 5097SOL    HW116190   0.137   0.072   1.277 -0.9837  0.9913  0.0193
 5097SOL    HW216191   0.088  -0.084   1.269 -0.5819  0.8036  1.0749
 5098SOL     OW16192   2.917   2.167   5.120  0.4561 -0.8179  0.0780
 5098SOL    HW116193   2.891   2.126   5.032  1.3076 -0.3281 -0.4131
 5098SOL    HW216194   3.007   2.209   5.112  0.9468 -1.5574  1.4517
 5099SOL     OW16195   3.372   6.146   3.383  0.4501  0.3546 -0.1844
 5099SOL    HW116196   3.297   6.121   3.445  1.5952 -0.1340  1.0540
 5099SOL    HW216197   3.430   6.214   3.427  1.0042  0.3762 -0.9403
 5100SOL     OW16198   5.072   0.450   1.318  0.0032 -0.0275 -0.8754
 5100SOL    HW116199   5.098   0.399   1.400 -0.8060  2.7062  1.2431
 5100SOL    HW216200   4.974   0.439   1.301 -0.2670  1.1278 -0.1329
 5101SOL     OW16201   3.673   5.923   4.401  0.0365  0.2322  0.1831
 5101SOL    HW116202   3.752   5.866   4.423  0.9265  1.4392  0.2228
 5101SOL    HW216203   3.631   5.957   4.486  1.1368  1.7768  0.1364
 5102SOL     OW16204   6.231   7.012   4.747 -0.8007 -0.6142  0.5801
 5102SOL    HW116205   6.189   7.032   4.836 -0.5858  0.8191  0.3911
 5102SOL    HW216206   6.329   6.996   4.760 -0.5188  0.8711  0.4899
 5103SOL     OW16207   5.996   1.933   5.860 -0.8218  0.3503  0.2830
 5103SOL    HW116208   5.998   1.982   5.948  1.0662  1.2072 -0.1796
 5103SOL    HW216209   6.039   1.844   5.871 -2.1931 -0.2991  0.5986
 5104SOL     OW16210   5.484   2.398   2.882  0.4231  0.5916 -0.8113
 5104SOL    HW116211   5.486   2.497   2.874  0.6265  0.7921  1.3473
 5104SOL    HW216212   5.429   2.371   2.960 -1.7232 -1.1583 -2.7737
 5105SOL     OW16213   3.489   6.897   2.984  0.2215  0.2015 -0.4368
 5105SOL    HW116214   3.474   6.996   2.989 -0.5085  0.1454 -1.2443
 5105SOL    HW216215   3.435   6.851   3.055 -0.2790  0.3068 -0.7441
 5106SOL     OW16216   2.139   6.283   3.143  0.2431  0.4967  0.8875
 5106SOL    HW116217   2.119   6.277   3.045 -0.1944 -1.5886  1.0577
 5106SOL    HW216218   2.062   6.325   3.190  0.3470  1.2695  0.4039
 5107SOL     OW16219   1.853   2.557   6.566 -0.2218 -0.1133  0.5329
 5107SOL    HW116220   1.921   2.532   6.636 -0.5900  1.4368  1.4892
 5107SOL    HW216221   1.883   2.640   6.519 -1.1450  0.2218  0.5259
 5108SOL     OW16222   4.266   1.511   5.881 -0.6899 -0.1256 -0.5727
 5108SOL    HW116223   4.286   1.597   5.833 -2.1474  1.5628  1.5778
 5108SOL    HW216224   4.168   1.493   5.875 -0.7656 -0.3247  0.9621
 5109SOL     OW16225   0.864   6.042   4.287 -0.1191  0.1215 -0.2900
 5109SOL    HW116226   0.838   5.956   4.243 -1.1719  0.1854  0.1861
 5109SOL    HW216227   0.939   6.084   4.235  2.1819 -2.2703  0.8613
 5110SOL     OW16228   3.138   6.287   4.439  0.7213 -0.1083  0.3954
 5110SOL    HW116229   3.110   6.309   4.346 -0.3371  1.3018  1.0114
 5110SOL    HW216230   3.213   6.221   4.437  1.0329  0.2650 -1.4500
 5111SOL     OW16231   5.656   3.009   4.463 -0.0371  0.1102 -0.3429
 5111SOL    HW116232   5.599   2.928   4.453 -0.1409  0.3163 -1.4849
 5111SOL    HW216233   5.737   3.000   4.407  0.0287  0.7300 -0.3523
 5112SOL     OW16234   0.248   3.710   1.777  0.1516 -0.5063 -0.4930
 5112SOL    HW116235   0.193   3.655   1.839 -0.4354  1.5670  0.9170
 5112SOL    HW216236   0.217   3.696   1.683 -0.9520 -1.4340 -0.0108
 5113SOL     OW16237   0.068   1.881   6.662  0.0669 -0.3323 -0.1021
 5113SOL    HW116238   0.092   1.868   6.565  0.9603  3.2652 -0.5229
 5113SOL    HW216239   0.151   1.877   6.717  0.2202  1.6251 -0.1135
 5114SOL     OW16240   4.557   4.058   0.313 -0.1764  0.0160  0.8346
 5114SOL    HW116241   4.476   4.012   0.349 -0.8214 -0.4584 -1.0991
 5114SOL    HW216242   4.531   4.147   0.275  0.4685  0.4693  1.4128
 5115SOL     OW16243   0.765   6.483   6.878 -0.0980  0.3995 -0.6265
 5115SOL    HW116244   0.809   6.545   6.943  2.6524 -0.1107 -1.8707
 5115SOL    HW216245   0.739   6.534   6.796  0.9226  0.1767 -1.0969
 5116SOL     OW16246   0.643   5.856   1.764  0.0173 -0.5834  0.8768
 5116SOL    HW116247   0.572   5.924   1.780  0.7421  0.6892 -0.8842
 5116SOL    HW216248   0.722   5.875   1.823  0.9127  1.2932 -0.7881
 5117SOL     OW16249   4.719   0.706   5.266 -0.2884  0.3704  0.3576
 5117SOL    HW116250   4.808   0.701   5.311  0.7906  0.3553 -1.6828
 5117SOL    HW216251   4.647   0.689   5.333  1.3367 -2.0573  1.6200
 5118SOL     OW16252   3.972   3.026   5.346  0.0082  0.2779 -0.2100
 5118SOL    HW116253   3.872   3.019   5.350 -0.1806  0.4819 -2.9114
 5118SOL    HW216254   4.011   2.936   5.325  0.5729 -0.1323  2.3061
 5119SOL     OW16255   4.693   3.174   6.517 -0.5392  0.6572 -0.4647
 5119SOL    HW116256   4.732   3.265   6.515  0.7872  0.0976 -1.1511
 5119SOL    HW216257   4.726   3.124   6.597 -1.9606  1.0509  0.3986
 5120SOL     OW16258   3.776   5.274   4.409  0.6029 -0.4472 -0.1091
 5120SOL    HW116259   3.821   5.188   4.385  1.2514 -0.4341  0.9613
 5120SOL    HW216260   3.733   5.314   4.328  2.6405 -0.3921 -1.2369
 5121SOL     OW16261   3.130   2.104   4.173  0.3577  0.2604  0.1349
 5121SOL    HW116262   3.092   2.033   4.232  0.5956  0.9081  1.0825
 5121SOL    HW216263   3.225   2.082   4.153  0.3956  0.2544  0.3220
 5122SOL     OW16264   6.668   5.456   1.081  0.2001 -0.2812  0.3377
 5122SOL    HW116265   6.760   5.486   1.054  0.3964 -0.0335  1.2250
 5122SOL    HW216266   6.603   5.530   1.065 -0.2972 -1.2295 -2.4691
 5123SOL     OW16267   3.818   4.223   5.457  0.2126 -0.1846 -0.0379
 5123SOL    HW116268   3.724   4.239   5.487  0.1780 -0.6016  0.0797
 5123SOL    HW216269   3.826   4.131   5.419  0.4488  0.0400 -0.5532
 5124SOL     OW16270   1.179   1.734   2.401 -0.0522  0.2399  0.0226
 5124SOL    HW116271   1.254   1.686   2.447  0.6775  0.0984 -1.2622
 5124SOL    HW216272   1.103   1.747   2.465  0.5883 -0.6947  1.0056
 5125SOL     OW16273   3.441   5.958   4.289 -0.4519  0.4540 -0.3273
 5125SOL    HW116274   3.524   5.912   4.320 -1.4639 -1.4340 -0.2997
 5125SOL    HW216275   3.463   6.016   4.210  0.5763 -1.4522 -1.5179
 5126SOL     OW16276   0.135   5.724   6.887 -0.4714 -0.1000  0.5259
 5126SOL    HW116277   0.090   5.801   6.841  0.4688 -0.0146 -0.3077
 5126SOL    HW216278   0.088   5.639   6.864 -0.3212  0.0043 -0.2077
 5127SOL     OW16279   1.962   6.882   5.516  0.1810  0.3545 -0.0664
 5127SOL    HW116280   1.889   6.857   5.452 -0.1374  1.0987 -0.0117
 5127SOL    HW216281   1.922   6.927   5.596  0.6220 -0.1140  0.4243
 5128SOL     OW16282   0.952   5.009   6.341 -0.8212  0.3323 -0.0594
 5128SOL    HW116283   1.038   4.996   6.293 -0.3510  1.2383  0.5209
 5128SOL    HW216284   0.913   5.098   6.318  0.2736  1.5676  2.4801
 5129SOL     OW16285   1.935   3.240   1.651 -0.3240 -0.3999  0.2276
 5129SOL    HW116286   2.033   3.246   1.672 -0.5233 -0.3935  1.1636
 5129SOL    HW216287   1.903   3.146   1.667 -0.7551 -0.0949  1.2016
 5130SOL     OW16288   4.429   2.762   1.349 -0.0791 -0.2831 -0.0202
 5130SOL    HW116289   4.513   2.719   1.381 -0.0966 -0.2379  0.0866
 5130SOL    HW216290   4.444   2.800   1.258  0.2052  0.2804  0.2537
 5131SOL     OW16291   4.704   6.846   6.498 -0.2712  0.0617 -0.0522
 5131SOL    HW116292   4.631   6.878   6.438  0.9443  2.0396 -0.5556
 5131SOL    HW216293   4.737   6.921   6.555 -0.1812 -1.3531  1.8683
 5132SOL     OW16294   3.862   6.612   1.221  0.1942  0.1234 -0.3553
 5132SOL    HW116295   3.912   6.531   1.251  2.3855  0.6746 -2.2238
 5132SOL    HW216296   3.871   6.684   1.290  2.1429  0.2339 -0.6672
 5133SOL     OW16297   1.042   4.581   4.158  0.6335 -0.1081 -0.0500
 5133SOL    HW116298   1.091   4.527   4.089  1.5110  1.1200 -0.4103
 5133SOL    HW216299   1.082   4.565   4.248 -0.5166 -1.7185  0.2248
 5134SOL     OW16300   0.885   1.498   2.037 -0.4898  0.6246 -0.7376
 5134SOL    HW116301   0.853   1.563   2.106 -0.1940  0.2066 -0.1959
 5134SOL    HW216302   0.884   1.542   1.947  0.9761  1.8465 -0.2208
 5135SOL     OW16303   1.123   4.802   4.816  0.1444 -0.0092  0.5533
 5135SOL    HW116304   1.132   4.806   4.717 -1.1714  1.9728  0.4606
 5135SOL    HW216305   1.211   4.777   4.856  0.5685 -1.3436 -1.1054
 5136SOL     OW16306   6.459   0.853   2.420  0.2542 -0.1253 -0.3600
 5136SOL    HW116307   6.399   0.911   2.474 -2.2454 -1.9642 -0.9959
 5136SOL    HW216308   6.480   0.770   2.471  0.9473 -0.2318 -0.7974
 5137SOL     OW16309   1.195   0.151   3.286 -0.2360 -0.1608 -0.6977
 5137SOL    HW116310   1.126   0.111   3.346  0.2525  0.0516  0.0282
 5137SOL    HW216311   1.258   0.079   3.256  1.8486  0.2575  2.2329
 5138SOL     OW16312   5.284   2.993   1.998  0.0113 -0.1219  0.0416
 5138SOL    HW116313   5.337   2.954   2.074  2.2157 -0.1927 -1.4496
 5138SOL    HW216314   5.187   2.972   2.012  0.5837 -2.0361  1.7201
 5139SOL     OW16315   6.732   2.630   3.558  0.1737  0.7162  0.7300
 5139SOL    HW116316   6.712   2.534   3.581 -0.7899  0.6156 -0.4271
 5139SOL    HW216317   6.782   2.673   3.634  1.8780 -1.0807  0.7071
 5140SOL     OW16318   3.130   1.068   0.078 -0.1143 -0.5146  0.1362
 5140SOL    HW116319   3.217   1.117   0.077  0.6348 -1.8089  0.0064
 5140SOL    HW216320   3.123   1.013   0.162 -1.9941  1.5721  1.4751
 5141SOL     OW16321   2.630   2.888   6.532  0.1780  0.2189  0.6549
 5141SOL    HW116322   2.604   2.922   6.442  0.9744 -1.7749 -0.3948
 5141SOL    HW216323   2.569   2.813   6.558  2.0346 -1.5675  0.1384
 5142SOL     OW16324   3.865   6.247   5.658  0.0383 -0.9700 -0.0864
 5142SOL    HW116325   3.952   6.233   5.705  0.4903  0.4273 -0.4804
 5142SOL    HW216326   3.809   6.312   5.709  0.4631  0.4231 -1.3418
 5143SOL     OW16327   0.583   4.008   4.124  0.0641  0.2049  0.2725
 5143SOL    HW116328   0.657   3.956   4.166 -2.0698 -1.2675  2.4812
 5143SOL    HW216329   0.519   3.945   4.081  0.0557  1.4544 -1.6409
 5144SOL     OW16330   4.367   4.848   5.062 -0.2726  0.8368 -0.2288
 5144SOL    HW116331   4.449   4.880   5.109 -0.6329  2.1250 -0.4479
 5144SOL    HW216332   4.381   4.754   5.030  1.5580  1.4232 -1.2855
 5145SOL     OW16333   5.288   3.156   5.663 -0.7294 -0.2492  0.1175
 5145SOL    HW116334   5.216   3.192   5.603  0.2186 -0.2309 -1.0485
 5145SOL    HW216335   5.345   3.232   5.695 -0.3654 -0.4211 -0.1283
 5146SOL     OW16336   4.043   2.343   6.310  0.7455 -0.6766  0.5994
 5146SOL    HW116337   4.068   2.265   6.367  0.8637 -0.6216  0.6247
 5146SOL    HW216338   4.079   2.330   6.217 -1.9742 -2.1835 -0.3463
 5147SOL     OW16339   4.059   3.208   3.156  0.1463 -0.3837 -0.1109
 5147SOL    HW116340   4.001   3.127   3.159 -0.2832 -0.1708 -1.9329
 5147SOL    HW216341   4.085   3.228   3.062  0.8896  1.1466  0.3798
 5148SOL     OW16342   0.541   0.641   4.323  0.2030 -0.2779  0.0537
 5148SOL    HW116343   0.501   0.663   4.234 -0.0064  3.4982  0.9060
 5148SOL    HW216344   0.634   0.606   4.309  0.4118  0.8123 -1.6826
 5149SOL     OW16345   5.861   6.353   5.867  0.4702  0.2412 -0.1669
 5149SOL    HW116346   5.781   6.407   5.839  0.1340  0.8614  1.8528
 5149SOL    HW216347   5.942   6.387   5.819  0.1423  2.1255  0.5112
 5150SOL     OW16348   0.714   6.406   3.817  0.1058 -0.3831 -0.0562
 5150SOL    HW116349   0.638   6.364   3.767 -0.9458 -0.6413  1.6835
 5150SOL    HW216350   0.783   6.436   3.752 -1.5982  0.1365 -1.7347
 5151SOL     OW16351   1.483   5.597   5.453 -0.0660  0.4384  0.1812
 5151SOL    HW116352   1.455   5.693   5.462 -0.0592  0.4254  0.3329
 5151SOL    HW216353   1.467   5.567   5.358 -1.7940  0.0530  0.5526
 5152SOL     OW16354   2.793   5.842   4.828  0.0984  0.6010  0.3379
 5152SOL    HW116355   2.869   5.790   4.791 -0.3499  0.8810 -1.0286
 5152SOL    HW216356   2.750   5.896   4.755 -2.6166 -1.0148  0.5861
 5153SOL     OW16357   6.335   4.811   3.868 -0.6432  0.5778  0.4793
 5153SOL    HW116358   6.295   4.775   3.784  0.6110  0.8827 -0.2738
 5153SOL    HW216359   6.367   4.904   3.853  0.2514  0.3761  1.0788
 5154SOL     OW16360   1.681   5.881   6.613 -0.4252 -0.1406 -0.1317
 5154SOL    HW116361   1.636   5.854   6.698  0.5089 -0.2264  0.3481
 5154SOL    HW216362   1.775   5.909   6.633 -0.4690  0.6713 -1.0227
 5155SOL     OW16363   1.973   3.961   4.165 -0.2008 -0.0594 -0.1896
 5155SOL    HW116364   2.038   4.034   4.144  1.0855 -1.5827 -1.8143
 5155SOL    HW216365   1.881   3.988   4.135  0.3663  0.6360 -1.3488
 5156SOL     OW16366   4.644   4.045   1.679  0.4143  0.3614  0.2380
 5156SOL    HW116367   4.598   4.124   1.721  1.7899  0.2620  2.0932
 5156SOL    HW216368   4.724   4.021   1.734  0.4191 -1.9265 -0.6756
 5157SOL     OW16369   4.100   3.639   0.729 -0.2929 -0.2247  0.7016
 5157SOL    HW116370   4.122   3.549   0.690  1.0628  0.7700 -0.9951
 5157SOL    HW216371   4.125   3.641   0.826  1.7964 -1.0148  0.2364
 5158SOL     OW16372   4.912   2.033   6.608  0.2580 -0.6846 -0.2140
 5158SOL    HW116373   4.833   1.980   6.578  0.0942 -0.3719 -0.3451
 5158SOL    HW216374   4.883   2.102   6.675  0.4620 -0.7447 -0.0632
 5159SOL     OW16375   4.854   2.991   5.926  0.1038  0.4533  0.8246
 5159SOL    HW116376   4.837   3.013   6.022 -1.0671 -0.2962  0.8038
 5159SOL    HW216377   4.878   2.894   5.918 -0.2774  0.3979  0.3103
 5160SOL     OW16378   4.901   3.742   5.813 -0.3731 -0.3615 -0.0207
 5160SOL    HW116379   4.898   3.818   5.879 -1.8111  0.4566 -0.9673
 5160SOL    HW216380   4.939   3.775   5.726 -1.5631 -0.5455 -0.6281
 5161SOL     OW16381   6.476   3.618   4.329  0.0708 -0.3272  0.1846
 5161SOL    HW116382   6.401   3.565   4.290  1.0450 -1.3380 -0.3748
 5161SOL    HW216383   6.531   3.657   4.255 -1.0942  2.2450  0.5593
 5162SOL     OW16384   5.207   5.115   6.673  0.3170 -0.2855  0.2184
 5162SOL    HW116385   5.205   5.015   6.673  0.9863 -0.3047  0.2072
 5162SOL    HW216386   5.115   5.151   6.689 -0.1779 -0.9001 -1.1151
 5163SOL     OW16387   1.057   4.190   1.828 -0.1852 -0.5976 -0.1818
 5163SOL    HW116388   0.990   4.213   1.757 -0.0983 -0.4745 -0.2239
 5163SOL    HW216389   1.119   4.119   1.794  0.4230  0.1060 -0.5549
 5164SOL     OW16390   2.314   0.032   1.583  0.2828  0.3516  0.0230
 5164SOL    HW116391   2.360  -0.056   1.578  0.5487  0.5428 -1.5026
 5164SOL    HW216392   2.367   0.095   1.640  0.2235 -0.3725  0.8990
 5165SOL     OW16393   4.549   5.640   6.012 -0.0043  0.6233 -0.5153
 5165SOL    HW116394   4.628   5.595   5.970  0.0524 -0.8323  1.0524
 5165SOL    HW216395   4.578   5.689   6.094 -0.4063  1.8953 -1.1092
 5166SOL     OW16396   0.666   5.683   5.772  0.1450  0.5278 -0.3396
 5166SOL    HW116397   0.665   5.774   5.732 -0.7740  0.3483 -0.7586
 5166SOL    HW216398   0.705   5.687   5.864 -3.6197  2.1248  1.3810
 5167SOL     OW16399   2.536   6.305   3.899  0.1168 -0.3471  0.0648
 5167SOL    HW116400   2.613   6.332   3.840 -2.1145  0.2753 -2.8119
 5167SOL    HW216401   2.535   6.362   3.981  1.0855  1.6339 -1.2073
 5168SOL     OW16402   6.057   3.870   1.561 -0.1587 -0.1306 -0.4970
 5168SOL    HW116403   5.995   3.816   1.505 -0.2637 -1.0240  0.4491
 5168SOL    HW216404   6.133   3.813   1.592 -1.4739 -0.4667  2.4582
 5169SOL     OW16405   3.799   2.712   5.996  0.0120 -0.0899 -0.0918
 5169SOL    HW116406   3.783   2.809   6.015  0.0174  0.4717 -2.6238
 5169SOL    HW216407   3.892   2.688   6.024  0.7290  1.1966 -1.2368
 5170SOL     OW16408   2.051   2.566   1.718  0.0817  0.2155 -0.4293
 5170SOL    HW116409   2.032   2.510   1.638 -0.7725  2.0520 -1.5877
 5170SOL    HW216410   2.142   2.544   1.754 -0.6104 -2.5812 -0.1584
 5171SOL     OW16411   2.918   3.315   3.313  0.6073  1.0790 -0.2077
 5171SOL    HW116412   2.897   3.357   3.224 -2.0248 -1.7606 -1.1333
 5171SOL    HW216413   3.007   3.269   3.308  0.6566  1.2605 -1.2661
 5172SOL     OW16414   5.414   5.101   1.684  0.8606  0.5274  0.3660
 5172SOL    HW116415   5.346   5.162   1.724  0.3902  0.1787  0.1060
 5172SOL    HW216416   5.370   5.015   1.659  1.2419  0.5780 -0.4924
 5173SOL     OW16417   3.762   5.362   5.646  0.1653  0.4847  0.2271
 5173SOL    HW116418   3.676   5.378   5.695  0.6576 -0.5148  1.4680
 5173SOL    HW216419   3.831   5.329   5.710  0.3241 -2.6833 -1.4158
 5174SOL     OW16420   1.184   5.188   4.011  0.3080  0.1839  0.0581
 5174SOL    HW116421   1.230   5.207   3.924  0.7254 -0.4499  0.1345
 5174SOL    HW216422   1.221   5.103   4.050  0.6183  0.8317  1.1984
 5175SOL     OW16423   3.215   1.435   1.158 -0.2242  0.0531 -0.5197
 5175SOL    HW116424   3.249   1.503   1.093 -2.3129  1.0732 -0.6434
 5175SOL    HW216425   3.220   1.473   1.250  0.0903 -0.2730 -0.3999
 5176SOL     OW16426   4.923   0.004   5.121 -0.2204  0.3939 -0.2164
 5176SOL    HW116427   4.914  -0.038   5.211  1.4754 -1.3093 -0.7817
 5176SOL    HW216428   4.834   0.039   5.092 -1.7367 -2.5840  0.4276
 5177SOL     OW16429   1.152   5.773   2.438  0.1125  0.3282 -0.0231
 5177SOL    HW116430   1.121   5.687   2.400 -0.0166  1.3062 -2.2715
 5177SOL    HW216431   1.228   5.756   2.502 -0.0944 -1.4319 -0.2008
 5178SOL     OW16432   6.822   4.841   1.698  0.1625 -0.1975 -0.1104
 5178SOL    HW116433   6.770   4.772   1.648  0.7721 -0.9480  0.2649
 5178SOL    HW216434   6.829   4.924   1.643 -0.6409 -0.4071 -0.5430
 5179SOL     OW16435   0.351   4.008   3.631 -0.1334  0.8180 -0.6315
 5179SOL    HW116436   0.380   4.101   3.651  1.9032  0.0020  0.4333
 5179SOL    HW216437   0.430   3.953   3.606 -0.8752 -1.2940  1.3925
 5180SOL     OW16438   5.414   0.240   5.516  1.1211 -0.2151  0.4340
 5180SOL    HW116439   5.437   0.254   5.612  2.2949  0.0592  0.1305
 5180SOL    HW216440   5.346   0.308   5.488  0.7538 -0.3105  1.0618
 5181SOL     OW16441   5.684   1.097   6.713  0.4105  0.3310  0.0934
 5181SOL    HW116442   5.683   1.154   6.795 -0.7368  0.1463  0.2263
 5181SOL    HW216443   5.778   1.077   6.687  0.8131  1.5953  0.5184
 5182SOL     OW16444   6.693   3.140   3.591  0.7666  0.1396 -0.0668
 5182SOL    HW116445   6.643   3.204   3.534  0.9445  0.6173  0.3088
 5182SOL    HW216446   6.629   3.077   3.636  0.5064  0.6841  0.3365
 5183SOL     OW16447   4.039   6.748   3.481 -0.9649  0.2753 -0.3696
 5183SOL    HW116448   4.014   6.768   3.576  1.3547  0.9251  0.1478
 5183SOL    HW216449   4.023   6.829   3.425 -2.3491 -0.1129 -0.5806
 5184SOL     OW16450   5.027   0.911   0.639 -0.4268 -0.2900 -0.0909
 5184SOL    HW116451   5.051   1.006   0.654 -1.0408 -0.2367  0.6749
 5184SOL    HW216452   5.044   0.886   0.544  2.2221 -0.1726  0.2718
 5185SOL     OW16453   1.933   4.384   6.287 -0.3429  0.2639 -0.0605
 5185SOL    HW116454   1.835   4.400   6.275 -0.3303  1.4167  1.1497
 5185SOL    HW216455   1.972   4.347   6.202 -1.8026 -0.1679 -0.5628
 5186SOL     OW16456   0.073   2.074   1.058 -0.1887  0.2643  0.4223
 5186SOL    HW116457  -0.027   2.071   1.064 -0.3133  0.7816 -1.1349
 5186SOL    HW216458   0.111   1.986   1.087 -1.1634 -0.3701 -0.1903
 5187SOL     OW16459   2.004   2.724   2.690  0.1055  0.1052 -0.1456
 5187SOL    HW116460   2.099   2.716   2.659 -0.4078  0.9358 -2.0667
 5187SOL    HW216461   1.970   2.816   2.670 -1.9355 -0.9790 -2.0837
 5188SOL     OW16462   0.760   6.083   0.861 -0.8180  0.0242 -0.5244
 5188SOL    HW116463   0.779   6.105   0.957  0.3423 -0.7495 -0.5556
 5188SOL    HW216464   0.804   6.151   0.802 -0.7164 -0.0458 -0.5293
 5189SOL     OW16465   0.643   1.736   1.809  0.0537  0.0282 -0.0390
 5189SOL    HW116466   0.685   1.826   1.803  2.0218 -0.6860  1.7572
 5189SOL    HW216467   0.714   1.665   1.805 -1.2546 -1.3734  0.4320
 5190SOL     OW16468   1.378   1.982   0.152 -0.1756  0.0526  0.2169
 5190SOL    HW116469   1.453   2.039   0.121 -0.5932  0.6101  0.2136
 5190SOL    HW216470   1.326   2.031   0.223 -1.1622  0.1059 -0.5253
 5191SOL     OW16471   2.362   1.385   4.506 -0.1186  0.0699 -0.3941
 5191SOL    HW116472   2.461   1.401   4.512 -0.1873  1.3774 -2.0917
 5191SOL    HW216473   2.337   1.369   4.411 -1.4537 -0.9980  0.1187
 5192SOL     OW16474   1.073   3.285   5.243 -0.2027  0.3074  0.2597
 5192SOL    HW116475   0.989   3.238   5.216  0.1327 -0.3805  0.3916
 5192SOL    HW216476   1.138   3.283   5.167  0.2990 -0.5921  0.7051
 5193SOL     OW16477   2.430   4.706   6.015  0.1286  0.1099  0.2515
 5193SOL    HW116478   2.483   4.668   5.939  0.6174 -2.2272  1.6591
 5193SOL    HW216479   2.491   4.719   6.094 -0.7308  0.6726  0.8372
 5194SOL     OW16480   1.696   6.204   3.922  0.1170 -0.3627 -0.4390
 5194SOL    HW116481   1.694   6.246   3.831  1.2033  0.6361 -0.0272
 5194SOL    HW216482   1.749   6.262   3.983 -0.1312 -1.3167  0.6981
 5195SOL     OW16483   5.557   1.745   1.331 -0.0504  0.8040  0.9337
 5195SOL    HW116484   5.621   1.819   1.351  1.1428 -0.2613  1.1411
 5195SOL    HW216485   5.594   1.687   1.258 -1.7601  1.3699 -0.4566
 5196SOL     OW16486   0.471   6.217   0.249 -0.2882 -0.2374  0.1943
 5196SOL    HW116487   0.568   6.209   0.226 -0.2824  1.8562 -0.7366
 5196SOL    HW216488   0.455   6.183   0.342  1.6809  1.0380  1.0586
 5197SOL     OW16489   1.244   4.362   2.630  0.3084  0.1241 -0.4902
 5197SOL    HW116490   1.334   4.384   2.667  0.0464 -0.7726  0.7679
 5197SOL    HW216491   1.174   4.418   2.675 -0.0161 -0.9944  0.4575
 5198SOL     OW16492   2.062   6.936   1.108 -0.0111  0.4464 -0.9039
 5198SOL    HW116493   2.099   6.928   1.016 -0.9275 -0.4089 -1.2269
 5198SOL    HW216494   1.970   6.895   1.110  1.0366 -2.0507  0.9996
 5199SOL     OW16495   1.223   6.998   5.889 -0.2127  0.5074  0.2852
 5199SOL    HW116496   1.141   7.015   5.944 -0.2853 -0.0016  0.3364
 5199SOL    HW216497   1.304   7.001   5.949 -0.1820  1.0515  0.2270
 5200SOL     OW16498   2.615   1.881   4.265 -0.2972 -0.0358 -0.3039
 5200SOL    HW116499   2.667   1.935   4.330  0.4250 -1.2640  0.1812
 5200SOL    HW216500   2.518   1.902   4.274 -0.4735 -1.5340  2.5834
 5201SOL     OW16501   3.492   1.150   6.246  0.6458  0.1408  0.1561
 5201SOL    HW116502   3.440   1.087   6.305  0.0088 -0.6235 -1.1845
 5201SOL    HW216503   3.542   1.214   6.304  0.3148 -0.7867  1.5493
 5202SOL     OW16504   3.947   0.761   1.014  0.5395  0.3114 -0.0345
 5202SOL    HW116505   3.923   0.673   1.055 -0.3234  0.2824 -0.5754
 5202SOL    HW216506   3.884   0.780   0.938 -0.0241  1.9272  0.8066
 5203SOL     OW16507   3.632   3.984   5.955  0.2139 -0.6854  0.0063
 5203SOL    HW116508   3.659   4.043   5.879  0.7534 -0.5988  0.2626
 5203SOL    HW216509   3.634   4.036   6.040  1.5099 -1.2688  0.3628
 5204SOL     OW16510   3.406   2.699   5.500  0.2938 -0.0056  0.5669
 5204SOL    HW116511   3.430   2.783   5.453 -0.5229 -1.6629 -3.1374
 5204SOL    HW216512   3.391   2.718   5.597  0.9569  3.8731  0.0571
 5205SOL     OW16513   3.389   2.665   0.139 -0.1937 -0.3175 -0.0444
 5205SOL    HW116514   3.451   2.650   0.215 -0.1858 -1.3654 -0.2490
 5205SOL    HW216515   3.441   2.668   0.054 -0.0744  1.8346  0.0421
 5206SOL     OW16516   3.924   1.275   3.749 -0.7753  0.2109 -0.0879
 5206SOL    HW116517   3.840   1.267   3.695 -0.1066 -0.1916 -1.1186
 5206SOL    HW216518   4.002   1.289   3.687  0.2088 -1.5832  0.6723
 5207SOL     OW16519   1.943   3.454   1.194  0.1324 -0.2788 -0.1419
 5207SOL    HW116520   1.972   3.358   1.190  0.3722 -0.1825 -0.9427
 5207SOL    HW216521   1.995   3.501   1.265 -1.1082 -1.0922  1.3899
 5208SOL     OW16522   1.980   3.283   6.460  0.2803 -0.1773 -0.4156
 5208SOL    HW116523   2.029   3.257   6.542 -0.2456  1.2501  0.3910
 5208SOL    HW216524   2.045   3.312   6.389  0.7068 -0.9233 -0.3370
 5209SOL     OW16525   0.622   4.280   5.364 -0.1344  0.1349  0.2392
 5209SOL    HW116526   0.528   4.285   5.331 -0.3221  0.7704  0.8393
 5209SOL    HW216527   0.622   4.279   5.464  0.5421  1.4054  0.2702
 5210SOL     OW16528   0.010   5.498   4.019  0.1456  0.8880 -0.5222
 5210SOL    HW116529   0.079   5.465   4.083  1.1407 -2.1945 -2.9246
 5210SOL    HW216530   0.053   5.517   3.930 -1.9431 -0.4009 -1.8968
 5211SOL     OW16531   5.678   1.397   6.151 -0.3574  0.4508  0.3582
 5211SOL    HW116532   5.601   1.348   6.192  0.0522 -2.3675 -1.9607
 5211SOL    HW216533   5.650   1.434   6.062  0.6049  0.5996  0.1152
 5212SOL     OW16534   4.750   6.937   6.180  0.1678  0.8141  0.8258
 5212SOL    HW116535   4.685   6.968   6.249  0.4686 -2.8265  3.0282
 5212SOL    HW216536   4.840   6.924   6.222  0.7059 -0.2326 -0.5549
 5213SOL     OW16537   5.156   0.618   0.709  0.3256 -0.7454  0.1182
 5213SOL    HW116538   5.067   0.663   0.716  0.9937  0.7822 -0.8590
 5213SOL    HW216539   5.149   0.539   0.648 -0.5992 -1.3427  0.9600
 5214SOL     OW16540   1.819   4.378   3.646  0.2707 -0.0678  0.8545
 5214SOL    HW116541   1.859   4.330   3.568  0.7156 -1.4070  1.8551
 5214SOL    HW216542   1.885   4.446   3.680  0.0562  0.5503  0.0568
 5215SOL     OW16543   2.356   0.818   4.094  0.3062 -0.0013 -0.2843
 5215SOL    HW116544   2.415   0.742   4.065 -0.8117 -1.1435  0.2998
 5215SOL    HW216545   2.262   0.799   4.066  0.2768  2.2018 -1.9934
 5216SOL     OW16546   6.853   3.510   5.256 -0.4075  0.0584 -0.3194
 5216SOL    HW116547   6.781   3.468   5.202  0.3697 -0.4582 -0.9732
 5216SOL    HW216548   6.898   3.440   5.311 -0.1162  0.3015 -0.2447
 5217SOL     OW16549   5.042   2.548   6.724 -0.2449  0.5348  0.3122
 5217SOL    HW116550   5.043   2.617   6.652  2.6217  0.4581  0.1539
 5217SOL    HW216551   5.007   2.461   6.687  1.1890  0.4874 -1.0713
 5218SOL     OW16552   4.492   5.609   3.489 -0.8409  0.2815 -0.0640
 5218SOL    HW116553   4.472   5.511   3.497  2.5594 -0.5501 -0.2258
 5218SOL    HW216554   4.511   5.631   3.393 -0.9361  0.9776  0.0722
 5219SOL     OW16555   0.352   5.556   3.400  0.4495  0.7650  0.0081
 5219SOL    HW116556   0.389   5.634   3.450 -0.8901  0.7355  1.0959
 5219SOL    HW216557   0.280   5.513   3.454  0.7433 -0.8652 -0.8426
 5220SOL     OW16558   6.105   4.909   1.313 -0.2954 -0.2481 -0.1601
 5220SOL    HW116559   6.041   4.868   1.377 -0.1287 -0.1531  0.0695
 5220SOL    HW216560   6.165   4.973   1.361  1.1910 -1.6779  0.0088
 5221SOL     OW16561   2.600   0.206   1.651 -0.2143 -0.2923 -0.0620
 5221SOL    HW116562   2.646   0.268   1.714 -3.2241  0.0873  1.9248
 5221SOL    HW216563   2.539   0.258   1.592 -0.3251 -1.0670 -0.6463
 5222SOL     OW16564   5.700   5.860   4.038  0.6794  0.2341 -0.3459
 5222SOL    HW116565   5.685   5.779   4.095 -1.2864 -0.0883 -1.2217
 5222SOL    HW216566   5.667   5.941   4.085 -0.3490  0.0569 -0.7439
 5223SOL     OW16567   2.215   0.117   3.778 -0.4629 -0.2888 -0.9431
 5223SOL    HW116568   2.260   0.028   3.790 -0.9690 -0.5123 -0.6784
 5223SOL    HW216569   2.284   0.188   3.767 -0.0450 -0.6493 -0.6842
 5224SOL     OW16570   0.097   3.510   1.917  0.1371 -0.0359 -0.2562
 5224SOL    HW116571   0.098   3.506   2.017  0.0055 -3.0247 -0.2823
 5224SOL    HW216572   0.004   3.491   1.884  0.1914  0.8531 -0.9653
 5225SOL     OW16573   6.543   1.335   6.184  0.1626  0.5262  0.5485
 5225SOL    HW116574   6.635   1.368   6.166  1.0185 -3.0147 -2.6298
 5225SOL    HW216575   6.541   1.287   6.272  1.1212  1.2010  0.9556
 5226SOL     OW16576   1.670   1.014   4.538 -0.2304 -0.4538 -0.0572
 5226SOL    HW116577   1.577   0.980   4.532 -0.5885  0.0290  1.9442
 5226SOL    HW216578   1.719   0.993   4.453 -1.5435 -2.4883 -0.3774
 5227SOL     OW16579   1.105   3.575   2.375 -0.9808 -0.2311  0.0944
 5227SOL    HW116580   1.169   3.563   2.299 -1.9169 -2.5156 -0.4149
 5227SOL    HW216581   1.098   3.672   2.398  3.3211  0.1078  0.7972
 5228SOL     OW16582   2.158   0.499   2.386 -0.5454 -0.7623 -0.4548
 5228SOL    HW116583   2.199   0.568   2.445 -1.9630 -0.3952  0.1480
 5228SOL    HW216584   2.094   0.543   2.322 -1.5161 -1.4990 -0.0177
 5229SOL     OW16585   5.537   1.306   4.078 -0.1246  0.5286 -0.5803
 5229SOL    HW116586   5.499   1.243   4.146 -1.6414 -0.4689 -2.2559
 5229SOL    HW216587   5.636   1.293   4.072 -0.0954  0.0236  0.8104
 5230SOL     OW16588   3.802   5.482   2.995 -0.4500 -0.0593 -0.1622
 5230SOL    HW116589   3.877   5.418   3.011  0.6066  1.5276  1.6511
 5230SOL    HW216590   3.759   5.505   3.082 -0.0729  2.4958 -0.5836
 5231SOL     OW16591   6.403   4.321   3.091  0.1498 -0.1065  0.5816
 5231SOL    HW116592   6.386   4.360   3.001  0.4698 -1.1056  0.0759
 5231SOL    HW216593   6.465   4.243   3.083 -0.0695 -0.4043  1.6232
 5232SOL     OW16594   2.807   0.385   2.262 -0.1832  0.1656  0.1403
 5232SOL    HW116595   2.738   0.450   2.229  0.2061  0.8597  0.6604
 5232SOL    HW216596   2.894   0.402   2.216 -0.1068 -0.0590  0.2012
 5233SOL     OW16597   3.728   1.711   5.865  0.4446 -0.4925 -1.0766
 5233SOL    HW116598   3.714   1.793   5.810 -2.6846  0.4239  0.8872
 5233SOL    HW216599   3.825   1.705   5.891  0.7459  2.7479 -1.0187
 5234SOL     OW16600   0.836   0.034   0.776 -0.1127  0.9345 -0.2505
 5234SOL    HW116601   0.747   0.065   0.810 -0.1405 -0.6503  1.2736
 5234SOL    HW216602   0.827   0.000   0.682 -1.8075 -1.8136  0.7761
 5235SOL     OW16603   3.721   4.967   4.709 -0.2909  0.4762 -0.2338
 5235SOL    HW116604   3.760   5.059   4.716 -1.4597  0.9463  0.3083
 5235SOL    HW216605   3.774   4.903   4.765 -0.9347  1.3308  1.4283
 5236SOL     OW16606   2.491   3.667   6.628  0.1845 -0.0719 -0.2926
 5236SOL    HW116607   2.562   3.724   6.588 -1.2014  2.3520  0.5255
 5236SOL    HW216608   2.455   3.604   6.558  0.7557  1.0523 -1.6426
 5237SOL     OW16609   2.334   0.224   3.462  0.1358 -0.3298  0.6997
 5237SOL    HW116610   2.373   0.242   3.552 -0.3903  0.3382  0.8006
 5237SOL    HW216611   2.398   0.255   3.391 -0.4482  1.3767  0.8667
 5238SOL     OW16612   3.276   4.147   3.858 -0.1864 -0.5436  0.0732
 5238SOL    HW116613   3.267   4.230   3.913  1.9688  0.0890 -0.4317
 5238SOL    HW216614   3.303   4.071   3.916  1.3891 -0.0354  0.0555
 5239SOL     OW16615   4.504   2.872   6.447  0.2502  0.0967 -0.5846
 5239SOL    HW116616   4.436   2.802   6.423 -0.0044  0.2371 -0.2666
 5239SOL    HW216617   4.481   2.958   6.400  1.5328 -0.4794 -2.3998
 5240SOL     OW16618   6.811   5.083   2.811  0.3776  0.0397 -0.2272
 5240SOL    HW116619   6.837   5.116   2.721 -0.7961  3.2702  0.4747
 5240SOL    HW216620   6.717   5.050   2.808  0.1495  0.6567 -0.1202
 5241SOL     OW16621   0.106   1.588   5.709  0.1308  0.1860 -0.1007
 5241SOL    HW116622   0.092   1.657   5.638  0.8087  3.0536  2.3384
 5241SOL    HW216623   0.192   1.540   5.692  0.2731  0.8045 -1.2265
 5242SOL     OW16624   3.799   6.014   0.241  0.5038 -0.5184  0.3365
 5242SOL    HW116625   3.700   6.022   0.251 -0.0479 -0.4302 -3.7295
 5242SOL    HW216626   3.827   5.919   0.260 -0.5148 -0.8062  0.4464
 5243SOL     OW16627   3.483   6.934   5.341  0.5443  0.2192  0.3482
 5243SOL    HW116628   3.553   6.864   5.348 -0.3276 -0.7499 -0.3763
 5243SOL    HW216629   3.477   6.967   5.247  0.5281  0.8310  0.5570
 5244SOL     OW16630   2.810   3.201   1.645 -0.5710 -0.4599 -0.4882
 5244SOL    HW116631   2.781   3.255   1.724 -1.3341 -0.0219 -1.0522
 5244SOL    HW216632   2.881   3.251   1.594 -1.5092  0.1904 -1.1938
 5245SOL     OW16633   6.105   5.619   4.224 -0.3687  0.3340  0.0570
 5245SOL    HW116634   6.135   5.539   4.172 -1.0217 -0.2697  0.5851
 5245SOL    HW216635   6.146   5.616   4.316 -1.3927 -0.0887  0.5154
 5246SOL     OW16636   0.688   0.065   6.695  0.5867 -0.0422  0.1577
 5246SOL    HW116637   0.761   0.054   6.628  0.5655  0.1119  0.1079
 5246SOL    HW216638   0.600   0.067   6.648  0.4713 -1.2124  0.3006
 5247SOL     OW16639   4.336   4.974   6.963 -0.6705 -0.2159 -0.4852
 5247SOL    HW116640   4.430   5.006   6.978 -0.5505 -0.9432  0.4112
 5247SOL    HW216641   4.275   5.053   6.958 -0.0128  0.2644 -1.1145
 5248SOL     OW16642   1.055   6.073   4.742  0.0777  0.5692 -0.3970
 5248SOL    HW116643   1.018   6.161   4.773 -0.9330  0.0518 -0.1127
 5248SOL    HW216644   0.989   6.029   4.681  0.7733  0.2002 -0.8994
 5249SOL     OW16645   0.382   5.715   5.560 -0.2494 -0.3536  0.1796
 5249SOL    HW116646   0.372   5.700   5.461 -2.4344 -0.5720  0.3921
 5249SOL    HW216647   0.423   5.805   5.575 -2.8684  1.1318 -0.9460
 5250SOL     OW16648   0.411   1.733   0.821  0.0185 -0.2737  0.2923
 5250SOL    HW116649   0.393   1.742   0.723 -1.4390  0.3200  0.5968
 5250SOL    HW216650   0.510   1.738   0.837  0.2309  0.2713 -1.0785
 5251SOL     OW16651   3.791   1.916   0.794  0.1215 -0.1607  0.1419
 5251SOL    HW116652   3.859   1.842   0.802  2.7377  2.0141 -0.4806
 5251SOL    HW216653   3.823   1.995   0.846 -1.5564  1.2733 -0.9230
 5252SOL     OW16654   5.107   2.177   1.544 -0.0002  0.3097 -0.3223
 5252SOL    HW116655   5.040   2.103   1.537 -0.8932  0.9378  1.2157
 5252SOL    HW216656   5.059   2.264   1.554  1.0028  1.2625 -2.8597
 5253SOL     OW16657   0.026   2.985   1.429  0.1811 -0.2937  0.7032
 5253SOL    HW116658   0.038   3.035   1.343 -1.0711  2.5750  2.0693
 5253SOL    HW216659  -0.059   2.932   1.424  0.6786 -1.0481 -0.1789
 5254SOL     OW16660   6.796   0.346   3.487 -0.7484  0.5721 -0.4777
 5254SOL    HW116661   6.854   0.327   3.408 -0.1935  1.5050 -0.3116
 5254SOL    HW216662   6.751   0.261   3.517 -0.1918  0.0190 -1.1770
 5255SOL     OW16663   1.874   5.080   1.078  0.2393  0.2184 -0.6164
 5255SOL    HW116664   1.971   5.058   1.089  0.4190  2.1882  3.2465
 5255SOL    HW216665   1.819   5.005   1.114  0.6133  1.4193  2.8064
 5256SOL     OW16666   2.237   6.700   2.634  0.0350 -0.2833 -0.2207
 5256SOL    HW116667   2.255   6.793   2.601  0.4606 -0.1328  0.4271
 5256SOL    HW216668   2.308   6.638   2.601 -0.2051 -0.3676 -0.5862
 5257SOL     OW16669   6.097   4.979   3.867 -0.5467  0.4696  0.9909
 5257SOL    HW116670   6.192   5.008   3.854 -0.4394  0.6568  2.0580
 5257SOL    HW216671   6.052   4.971   3.779  1.2435 -2.3157  0.1795
 5258SOL     OW16672   0.491   4.386   1.977 -0.4039  0.5347 -0.5618
 5258SOL    HW116673   0.591   4.386   1.978 -0.2522 -1.6059 -3.1750
 5258SOL    HW216674   0.459   4.448   1.906 -0.8430 -0.0175 -0.8505
 5259SOL     OW16675   2.163   1.675   4.494  0.7319 -0.1696 -0.0496
 5259SOL    HW116676   2.219   1.698   4.414 -0.3923  0.3029 -0.7164
 5259SOL    HW216677   2.095   1.606   4.468  1.0993 -0.8780  0.8051
 5260SOL     OW16678   1.075   3.498   5.835  0.3012  0.3292 -0.5487
 5260SOL    HW116679   1.133   3.421   5.864  0.7209 -0.6865 -3.5908
 5260SOL    HW216680   1.130   3.562   5.781 -0.6609  1.3057 -0.4070
 5261SOL     OW16681   5.027   2.201   2.762  0.6087  0.1581  0.2921
 5261SOL    HW116682   5.083   2.129   2.804  1.5064 -0.4100 -1.7366
 5261SOL    HW216683   5.083   2.283   2.749  0.3230  0.3540  0.2986
 5262SOL     OW16684   1.778   3.495   5.822  0.2282  0.1935 -0.3365
 5262SOL    HW116685   1.862   3.517   5.772  0.2027 -0.6816 -0.7708
 5262SOL    HW216686   1.801   3.451   5.909  0.2109 -1.6259 -1.2112
 5263SOL     OW16687   4.955   3.864   2.794  0.7701 -0.2203 -0.0664
 5263SOL    HW116688   4.880   3.917   2.754  0.1815 -0.5675  0.5574
 5263SOL    HW216689   4.984   3.793   2.730 -0.1363 -0.7478  0.1090
 5264SOL     OW16690   4.625   1.858   5.161  0.1080 -0.3605  0.2551
 5264SOL    HW116691   4.691   1.792   5.197  1.7590 -0.4045 -2.5656
 5264SOL    HW216692   4.665   1.950   5.166 -1.4810  0.2874  2.5534
 5265SOL     OW16693   0.086   2.556   4.747 -0.5081 -0.1803 -0.4058
 5265SOL    HW116694   0.120   2.627   4.809 -0.5209 -1.6314  1.3576
 5265SOL    HW216695  -0.013   2.563   4.740 -0.4281  0.5054 -0.9511
 5266SOL     OW16696   1.187   4.099   3.624 -0.4552  0.4120 -0.2585
 5266SOL    HW116697   1.213   4.087   3.720 -2.1411  0.5536  0.2573
 5266SOL    HW216698   1.197   4.195   3.599  0.3467  0.3095 -0.3463
 5267SOL     OW16699   0.042   4.155   4.358 -0.3598  0.5190  0.0255
 5267SOL    HW116700   0.038   4.245   4.401  0.3892  1.5026 -1.8117
 5267SOL    HW216701  -0.050   4.118   4.347 -0.6860  1.1446  0.6406
 5268SOL     OW16702   1.010   2.916   5.154  0.2714  0.0732 -0.0477
 5268SOL    HW116703   0.950   2.862   5.213  1.8082 -0.2652  1.2651
 5268SOL    HW216704   0.956   2.986   5.107 -1.1849 -0.3945  0.8569
 5269SOL     OW16705   1.033   0.574   6.039 -0.3975 -0.1479  0.1358
 5269SOL    HW116706   1.071   0.660   6.075 -0.0517 -0.0538 -0.4432
 5269SOL    HW216707   0.979   0.593   5.957 -2.7739 -0.1041  1.5923
 5270SOL     OW16708   4.916   2.483   0.577  0.1126  0.1244 -0.0145
 5270SOL    HW116709   4.835   2.514   0.528 -0.9619 -1.8409  0.3893
 5270SOL    HW216710   4.998   2.501   0.522 -0.5209  2.5257 -0.2463
 5271SOL     OW16711   5.882   1.982   3.427 -0.3295  0.5535  0.7368
 5271SOL    HW116712   5.917   2.064   3.382  0.9116 -0.5124 -0.3637
 5271SOL    HW216713   5.840   1.923   3.358  0.4565 -0.5486  1.1691
 5272SOL     OW16714   3.298   1.287   6.825 -0.4211  0.8003 -0.0988
 5272SOL    HW116715   3.363   1.355   6.858 -0.0572  1.3519 -1.8733
 5272SOL    HW216716   3.238   1.328   6.757 -2.3604  0.1722  1.1463
 5273SOL     OW16717   3.806   4.968   5.745  0.1861  0.0717  0.2782
 5273SOL    HW116718   3.853   4.936   5.827  0.4935 -0.1693  0.0116
 5273SOL    HW216719   3.721   4.916   5.733 -0.7754  1.3108  1.4104
 5274SOL     OW16720   0.644   1.733   0.492  0.0989 -0.4946 -0.2948
 5274SOL    HW116721   0.560   1.781   0.519  0.0219 -0.3797 -0.7234
 5274SOL    HW216722   0.709   1.798   0.455 -0.1069 -0.7380 -1.1299
 5275SOL     OW16723   6.577   0.915   3.680  0.0470  0.3534 -0.3366
 5275SOL    HW116724   6.651   0.914   3.748  0.2634  1.4748 -0.5405
 5275SOL    HW216725   6.578   1.002   3.631  0.3525 -0.7077 -2.2876
 5276SOL     OW16726   1.776   2.577   2.697 -0.0087 -0.4747 -0.1766
 5276SOL    HW116727   1.795   2.484   2.730  1.3255 -0.2969 -0.3737
 5276SOL    HW216728   1.862   2.628   2.689 -0.4613  0.0698 -2.1956
 5277SOL     OW16729   0.403   4.367   6.612 -0.6609 -0.6354 -0.2223
 5277SOL    HW116730   0.389   4.433   6.686 -1.7708  0.3190 -1.2277
 5277SOL    HW216731   0.394   4.274   6.647  0.3180 -0.2553  1.1076
 5278SOL     OW16732   0.174   4.167   0.687  0.0645 -0.3874 -0.4443
 5278SOL    HW116733   0.129   4.132   0.769 -1.0741  0.7676 -0.5462
 5278SOL    HW216734   0.127   4.250   0.655  1.9426  0.5690 -0.8808
 5279SOL     OW16735   6.323   4.978   4.965  0.2270 -0.1283  0.3310
 5279SOL    HW116736   6.260   5.052   4.945 -0.5195 -1.0405 -0.8203
 5279SOL    HW216737   6.306   4.901   4.903  0.8413 -1.3543  1.6166
 5280SOL     OW16738   6.533   6.927   1.651 -0.5046 -0.5141  0.5929
 5280SOL    HW116739   6.538   6.998   1.580 -1.3642  0.5402  1.5467
 5280SOL    HW216740   6.518   6.970   1.740  0.7535 -1.8012  1.4607
 5281SOL     OW16741   1.058   1.917   1.339 -0.1756  0.5740  0.5288
 5281SOL    HW116742   1.152   1.884   1.327 -0.2653 -0.2817  1.8988
 5281SOL    HW216743   1.000   1.840   1.364 -1.7701  0.6265 -2.5934
 5282SOL     OW16744   0.360   5.384   3.191 -0.2420 -0.7665  0.1055
 5282SOL    HW116745   0.451   5.347   3.174 -0.9907 -4.0831  2.4274
 5282SOL    HW216746   0.366   5.459   3.256  0.9074  0.2995 -1.1593
 5283SOL     OW16747   4.841   0.820   1.520 -0.1275  0.1643 -0.1002
 5283SOL    HW116748   4.913   0.816   1.589  1.5041  2.2276 -1.5526
 5283SOL    HW216749   4.867   0.765   1.440 -0.8715 -0.2551 -0.0692
 5284SOL     OW16750   1.036   2.237   1.813 -0.3713 -0.1779 -0.0200
 5284SOL    HW116751   1.042   2.171   1.738  0.7675 -1.1453  0.8949
 5284SOL    HW216752   1.069   2.195   1.898 -0.5676  1.2520  0.7966
 5285SOL     OW16753   0.614   1.271   0.930  0.2304 -0.0671 -0.6119
 5285SOL    HW116754   0.600   1.268   0.831 -3.1358  0.4811 -0.2532
 5285SOL    HW216755   0.643   1.363   0.956 -1.5947  0.6115 -0.8588
 5286SOL     OW16756   2.779   2.429   6.865  0.5877 -0.3053 -0.0868
 5286SOL    HW116757   2.820   2.372   6.793  0.8228 -0.0690 -0.1436
 5286SOL    HW216758   2.747   2.371   6.939  0.1999 -0.5671 -0.4536
 5287SOL     OW16759   1.522   6.284   4.969  0.8275  0.4008 -0.1251
 5287SOL    HW116760   1.561   6.210   4.915  1.5015  1.4757 -1.1722
 5287SOL    HW216761   1.452   6.331   4.916 -0.6359 -0.3467  1.0621
 5288SOL     OW16762   1.042   1.399   5.916  0.2002  0.5957 -0.0542
 5288SOL    HW116763   1.001   1.408   6.007  0.7572  1.3525  0.1330
 5288SOL    HW216764   0.976   1.358   5.853  0.2048 -1.0802  0.9668
 5289SOL     OW16765   1.760   3.369   2.271 -0.4661  0.1654  0.0464
 5289SOL    HW116766   1.836   3.331   2.217 -1.1555 -0.8509 -0.2444
 5289SOL    HW216767   1.779   3.358   2.368  0.2351  0.8962  0.0033
 5290SOL     OW16768   0.694   2.363   2.797  0.1971  0.5086 -0.0909
 5290SOL    HW116769   0.658   2.302   2.868  0.8967 -1.7658 -1.5682
 5290SOL    HW216770   0.652   2.453   2.806 -1.9553 -0.5485  1.3664
 5291SOL     OW16771   1.896   6.037   4.487 -0.3600  0.3025 -0.0629
 5291SOL    HW116772   1.824   6.106   4.488 -0.0797  0.6110  1.4232
 5291SOL    HW216773   1.957   6.054   4.410 -2.2660 -0.4237 -1.8069
 5292SOL     OW16774   4.276   1.237   1.834 -0.0495 -0.0600  0.0013
 5292SOL    HW116775   4.192   1.289   1.852  0.4120  0.9354 -0.6665
 5292SOL    HW216776   4.344   1.297   1.791  1.0794 -0.8097  0.7120
 5293SOL     OW16777   5.396   1.406   5.195  0.1820 -0.1197 -0.0115
 5293SOL    HW116778   5.298   1.386   5.192  0.2425 -0.9130  1.8459
 5293SOL    HW216779   5.429   1.430   5.104 -1.8157  0.5557 -0.6011
 5294SOL     OW16780   5.009   4.702   3.021  0.2476 -0.5150 -0.6254
 5294SOL    HW116781   4.996   4.612   2.979 -2.1020 -0.6234  0.2218
 5294SOL    HW216782   4.940   4.717   3.092 -1.0643  2.9179 -2.3735
 5295SOL     OW16783   6.548   2.618   0.326  0.4609  0.3560  0.1246
 5295SOL    HW116784   6.554   2.716   0.306  2.2711  0.1358 -0.6093
 5295SOL    HW216785   6.540   2.605   0.425  0.1339  1.2250  0.2298
 5296SOL     OW16786   3.795   3.436   3.736  0.0887 -0.2601 -0.4271
 5296SOL    HW116787   3.709   3.480   3.712 -0.0949  1.0080  2.2079
 5296SOL    HW216788   3.777   3.351   3.785  0.3479 -0.3891 -0.5529
 5297SOL     OW16789   0.364   6.575   3.126  0.1448 -0.0980  0.0467
 5297SOL    HW116790   0.421   6.621   3.194  0.0156 -1.0356  0.8106
 5297SOL    HW216791   0.321   6.495   3.167 -0.5003 -0.2862 -0.9536
 5298SOL     OW16792   4.486   2.055   0.528 -0.1273 -1.2031  0.6526
 5298SOL    HW116793   4.541   2.105   0.595 -0.8625 -0.2454  0.5618
 5298SOL    HW216794   4.466   1.964   0.562  0.2322 -1.0235  1.3580
 5299SOL     OW16795   2.886   0.737   0.611  0.5833  0.6296  0.8607
 5299SOL    HW116796   2.973   0.784   0.596  0.5946 -0.1862 -2.2503
 5299SOL    HW216797   2.903   0.639   0.623  0.0970  0.0413 -2.3083
 5300SOL     OW16798   3.459   6.792   5.764  0.2746 -0.2463 -0.0151
 5300SOL    HW116799   3.421   6.883   5.784 -1.0405 -0.6268 -0.6451
 5300SOL    HW216800   3.448   6.733   5.844 -0.5911 -0.3739 -0.2136
 5301SOL     OW16801   2.192   2.151   5.352  0.3056  0.4334  0.8544
 5301SOL    HW116802   2.117   2.097   5.314 -1.4328  1.1895  2.9937
 5301SOL    HW216803   2.212   2.228   5.290 -0.7439  0.2677  0.2862
 5302SOL     OW16804   1.804   3.821   6.123  0.3084  0.0776  0.4894
 5302SOL    HW116805   1.724   3.843   6.068  1.0296 -1.7315 -1.4160
 5302SOL    HW216806   1.795   3.728   6.160  1.0299  0.2787  1.2125
 5303SOL     OW16807   3.763   4.980   3.305  0.0638  0.7193  0.1177
 5303SOL    HW116808   3.827   4.923   3.356  0.2497  2.5739  2.1232
 5303SOL    HW216809   3.808   5.014   3.222  0.7781 -0.0896  0.1617
 5304SOL     OW16810   3.102   2.844   6.410 -0.5419 -0.0472 -0.0368
 5304SOL    HW116811   3.128   2.771   6.348  2.9250  0.8349  0.2029
 5304SOL    HW216812   3.060   2.804   6.492  1.0281 -1.8016 -0.0162
 5305SOL     OW16813   0.427   0.136   2.202  0.5821 -0.2776  0.2325
 5305SOL    HW116814   0.380   0.081   2.133 -0.0200 -1.5557  1.6023
 5305SOL    HW216815   0.515   0.166   2.166  0.0525 -0.4456 -1.2712
 5306SOL     OW16816   1.154   4.262   6.671 -0.6201 -0.5872  0.4099
 5306SOL    HW116817   1.085   4.292   6.737 -1.4481  0.3919 -0.8561
 5306SOL    HW216818   1.193   4.175   6.700 -2.2663 -1.0780  1.2456
 5307SOL     OW16819   0.683   5.943   3.440  0.4471  0.0856 -0.2984
 5307SOL    HW116820   0.640   5.968   3.353 -0.4068 -0.8108 -0.1456
 5307SOL    HW216821   0.681   5.844   3.451  0.3897  0.2009  0.8303
 5308SOL     OW16822   3.777   0.571   1.882 -0.3256  0.2711 -0.7009
 5308SOL    HW116823   3.696   0.613   1.923 -0.8185 -0.5664 -0.7852
 5308SOL    HW216824   3.752   0.482   1.843  0.5812  0.1219 -0.9631
 5309SOL     OW16825   1.976   1.972   5.268 -0.1010  0.4112  0.5887
 5309SOL    HW116826   1.931   1.896   5.314  0.7367 -1.9696 -2.2596
 5309SOL    HW216827   1.907   2.024   5.216 -0.3999  0.3927  0.9616
 5310SOL     OW16828   2.827   0.656   5.155 -0.5098  0.6238 -0.5790
 5310SOL    HW116829   2.788   0.628   5.243  0.1153 -0.3815 -0.6036
 5310SOL    HW216830   2.812   0.584   5.087  0.0491  0.8784 -0.9845
 5311SOL     OW16831   5.390   0.503   6.083 -0.6250 -0.5213  0.5955
 5311SOL    HW116832   5.327   0.426   6.091 -0.8032 -0.2950  1.5505
 5311SOL    HW216833   5.468   0.478   6.025 -1.0696 -1.1458  0.2581
 5312SOL     OW16834   3.859   1.789   3.089 -0.3192 -0.1471  0.0998
 5312SOL    HW116835   3.856   1.765   2.992 -0.8980  1.3232 -0.2782
 5312SOL    HW216836   3.835   1.885   3.100 -1.3882 -0.5607  1.8096
 5313SOL     OW16837   5.315   4.313   4.315  0.4195 -0.3695 -0.1729
 5313SOL    HW116838   5.233   4.319   4.257  1.2423  1.9976 -1.2053
 5313SOL    HW216839   5.366   4.230   4.291 -0.8507 -1.0627 -0.6035
 5314SOL     OW16840   3.691   4.167   0.528 -0.1993  0.5569 -0.5373
 5314SOL    HW116841   3.680   4.107   0.608  2.1176  0.6388 -0.0687
 5314SOL    HW216842   3.735   4.116   0.454  1.0575  1.4150 -0.4188
 5315SOL     OW16843   5.130   5.939   4.996  0.7985 -0.0138 -0.3723
 5315SOL    HW116844   5.038   5.938   4.956 -0.3565 -1.2991  2.1149
 5315SOL    HW216845   5.127   5.981   5.086  2.3864 -1.3330  0.3362
 5316SOL     OW16846   1.910   1.629   5.178 -0.6756 -1.0504  0.7083
 5316SOL    HW116847   1.826   1.682   5.184  0.1984  0.2187  3.1008
 5316SOL    HW216848   1.951   1.641   5.088 -2.2388 -0.4648  0.0331
 5317SOL     OW16849   2.616   4.734   4.845  0.1301  0.0433 -0.2304
 5317SOL    HW116850   2.694   4.682   4.879  1.4494  1.4398 -0.9405
 5317SOL    HW216851   2.601   4.712   4.748 -1.0922 -1.0234  0.1733
 5318SOL     OW16852   1.866   4.009   6.598  0.0648 -0.5428  0.2387
 5318SOL    HW116853   1.929   4.076   6.559 -0.5395 -0.5064 -0.6783
 5318SOL    HW216854   1.919   3.941   6.650  0.8257 -0.2808 -0.1709
 5319SOL     OW16855   2.607   5.731   3.197  0.0041 -0.3000  0.7789
 5319SOL    HW116856   2.535   5.666   3.174 -0.6441  0.5238  0.4418
 5319SOL    HW216857   2.680   5.724   3.129 -0.9128  0.6080 -0.3495
 5320SOL     OW16858   0.848   3.900   0.729 -0.2453 -0.3997 -0.2900
 5320SOL    HW116859   0.760   3.880   0.685  1.0452 -1.1163 -2.7246
 5320SOL    HW216860   0.881   3.990   0.698 -1.7597  1.7137  3.5534
 5321SOL     OW16861   1.211   5.080   4.507  0.5550  0.2748 -0.4113
 5321SOL    HW116862   1.195   5.153   4.573 -0.8814  0.8440 -1.3181
 5321SOL    HW216863   1.123   5.049   4.471  1.0880 -2.3020  0.3366
 5322SOL     OW16864   2.901   5.508   4.452  0.1521  0.4693  0.0596
 5322SOL    HW116865   2.876   5.418   4.417 -0.6092  1.3904 -1.9274
 5322SOL    HW216866   2.818   5.556   4.482  0.4259  0.9009  0.1339
 5323SOL     OW16867   5.385   6.882   3.467  0.4222  0.0320  0.5797
 5323SOL    HW116868   5.435   6.938   3.401  0.5180 -1.4043 -0.6205
 5323SOL    HW216869   5.449   6.841   3.532  0.5181  0.1883  0.5827
 5324SOL     OW16870   2.727   1.967   5.292  0.1066 -0.0622 -0.4347
 5324SOL    HW116871   2.775   2.050   5.263  0.5676 -0.3997 -0.6460
 5324SOL    HW216872   2.628   1.981   5.282 -0.0114  1.3909  1.9052
 5325SOL     OW16873   3.693   4.588   1.328 -0.1440  0.4117 -0.0432
 5325SOL    HW116874   3.682   4.663   1.393 -2.0314  0.1077  0.0225
 5325SOL    HW216875   3.753   4.518   1.368  0.7082  1.3472  0.3478
 5326SOL     OW16876   6.804   1.393   6.218  1.1935  0.6955 -0.5686
 5326SOL    HW116877   6.860   1.311   6.232  1.7039  0.9459 -1.1443
 5326SOL    HW216878   6.794   1.441   6.306  2.7019  1.1671 -0.6215
 5327SOL     OW16879   3.172   5.373   2.885  0.3712 -0.1042  0.2726
 5327SOL    HW116880   3.200   5.288   2.929 -0.8005 -0.9931 -0.6574
 5327SOL    HW216881   3.249   5.437   2.885  1.4342 -1.3478  0.4942
 5328SOL     OW16882   3.871   5.649   2.592 -0.0178  0.0229 -0.4863
 5328SOL    HW116883   3.869   5.557   2.552 -0.9475  0.3297 -1.1837
 5328SOL    HW216884   3.907   5.644   2.685  0.0020 -1.0343 -0.5386
 5329SOL     OW16885   2.409   5.979   3.170 -0.1169  0.3752  0.4967
 5329SOL    HW116886   2.487   5.917   3.183  1.4414  1.6010 -2.2103
 5329SOL    HW216887   2.423   6.061   3.224  1.3957  1.2911 -1.1799
 5330SOL     OW16888   3.149   4.020   4.107 -0.0957  0.2702 -0.0466
 5330SOL    HW116889   3.186   4.101   4.152 -1.9008  0.4346  1.2758
 5330SOL    HW216890   3.115   3.957   4.176 -0.6566 -0.6574 -1.1360
 5331SOL     OW16891   3.996   2.719   6.308  0.0156  0.2047  0.3096
 5331SOL    HW116892   4.030   2.813   6.314 -0.1635  0.5803 -2.8673
 5331SOL    HW216893   4.072   2.658   6.283 -0.2292 -0.2166  0.5828
 5332SOL     OW16894   6.959   2.680   5.976  0.0227 -0.5365 -0.5224
 5332SOL    HW116895   6.878   2.736   5.963  0.4739  0.8555  1.9281
 5332SOL    HW216896   7.027   2.702   5.906 -0.4122  0.8436 -0.5341
 5333SOL     OW16897   6.043   1.657   6.652 -0.0070 -0.1358 -0.3067
 5333SOL    HW116898   6.087   1.737   6.612  0.5874 -0.2675  0.0697
 5333SOL    HW216899   5.969   1.686   6.713 -0.3047  0.0957 -0.7831
 5334SOL     OW16900   3.636   0.799   3.666 -0.7634  0.2718 -0.3201
 5334SOL    HW116901   3.659   0.794   3.568 -1.2683  1.7456 -0.5553
 5334SOL    HW216902   3.687   0.730   3.716 -0.3380 -0.3839 -1.6042
 5335SOL     OW16903   3.440   2.772   6.379 -0.3760  0.0810  0.3726
 5335SOL    HW116904   3.494   2.815   6.307  0.4152 -1.5766 -0.0813
 5335SOL    HW216905   3.357   2.733   6.340  0.5059 -1.6510  0.1185
 5336SOL     OW16906   4.640   0.110   5.506 -0.0601  0.2478  0.7815
 5336SOL    HW116907   4.684   0.027   5.541  2.0523  0.3217 -1.3544
 5336SOL    HW216908   4.559   0.086   5.453  0.8874 -0.5725 -0.3421
 5337SOL     OW16909   5.950   2.343   0.286 -0.0915  0.3318  0.7597
 5337SOL    HW116910   6.036   2.387   0.260 -0.7323  1.2319  0.0595
 5337SOL    HW216911   5.944   2.253   0.243  0.1824  0.5742  0.1990
 5338SOL     OW16912   3.468   0.355   6.315 -0.1513  0.7607  0.5402
 5338SOL    HW116913   3.404   0.314   6.251 -0.1475  2.6483 -0.7701
 5338SOL    HW216914   3.545   0.396   6.264  0.3655  1.4420  1.8106
 5339SOL     OW16915   3.657   1.258   0.253 -0.1719  0.9038 -0.0420
 5339SOL    HW116916   3.733   1.315   0.285  0.6346 -0.4130  0.4675
 5339SOL    HW216917   3.634   1.284   0.159  0.5873  1.6502 -0.0339
 5340SOL     OW16918   4.805   2.934   3.562 -0.0978 -0.1748 -0.4707
 5340SOL    HW116919   4.826   3.022   3.518  0.5318 -0.2146 -0.2565
 5340SOL    HW216920   4.774   2.869   3.493  0.9197 -0.2456 -0.8633
 5341SOL     OW16921   0.960   6.714   2.965  0.2002 -0.2202 -0.1945
 5341SOL    HW116922   0.901   6.647   3.010  0.5519  0.3358  1.1702
 5341SOL    HW216923   1.053   6.677   2.959  0.2961 -0.0420  0.1513
 5342SOL     OW16924   1.774   2.941   3.340  0.3652  0.4666 -0.7835
 5342SOL    HW116925   1.793   3.022   3.395 -0.0950  0.0893 -0.0597
 5342SOL    HW216926   1.684   2.948   3.299  0.5922  0.6170 -1.2655
 5343SOL     OW16927   6.440   6.327   4.405 -0.3164  0.1160 -0.3499
 5343SOL    HW116928   6.407   6.365   4.492  0.2040 -0.2939  0.0347
 5343SOL    HW216929   6.461   6.230   4.417 -0.1411  0.0822 -0.9088
 5344SOL     OW16930   4.608   5.620   2.020 -0.0163 -0.4493 -0.0352
 5344SOL    HW116931   4.557   5.668   1.949 -1.9440 -0.2578  1.3780
 5344SOL    HW216932   4.547   5.600   2.097  2.2171  0.3340  2.0708
 5345SOL     OW16933   0.209   4.559   6.729 -0.2723 -0.2064 -0.6380
 5345SOL    HW116934   0.128   4.506   6.752 -0.5752 -0.3437 -1.9505
 5345SOL    HW216935   0.182   4.650   6.695  0.2598  1.4905  2.9999
 5346SOL     OW16936   6.642   3.174   1.265 -0.3838  0.0272  0.1865
 5346SOL    HW116937   6.699   3.174   1.182  0.7623  1.9052  0.9013
 5346SOL    HW216938   6.565   3.112   1.252 -0.2987  0.3166 -2.3206
 5347SOL     OW16939   1.665   5.615   1.099 -0.0829  0.1677  0.0260
 5347SOL    HW116940   1.596   5.663   1.153 -0.0696  0.5589 -0.2945
 5347SOL    HW216941   1.741   5.589   1.159 -0.7828 -0.8343  0.5054
 5348SOL     OW16942   6.230   1.572   5.518  0.5575 -0.3626  0.1698
 5348SOL    HW116943   6.285   1.595   5.438 -2.3145  0.3562 -1.7846
 5348SOL    HW216944   6.224   1.651   5.579 -0.7522  0.6768 -1.2154
 5349SOL     OW16945   3.451   4.940   4.702 -0.0446  0.4784  0.2993
 5349SOL    HW116946   3.548   4.946   4.677  0.3803 -2.0870  0.9995
 5349SOL    HW216947   3.441   4.882   4.784 -2.3485 -1.8856 -1.4712
 5350SOL     OW16948   5.387   3.231   6.117 -0.1800  0.2251  0.3034
 5350SOL    HW116949   5.443   3.199   6.193 -0.6111  0.0709  0.5635
 5350SOL    HW216950   5.294   3.248   6.150 -0.4013  0.0314 -0.2214
 5351SOL     OW16951   1.384   5.290   6.595  0.2907 -0.0679 -0.3481
 5351SOL    HW116952   1.478   5.320   6.608  0.6132 -0.7327 -1.0658
 5351SOL    HW216953   1.336   5.292   6.683  0.6458  1.3233 -0.1683
 5352SOL     OW16954   2.338   2.070   6.256  0.1915  0.1278  0.0436
 5352SOL    HW116955   2.241   2.046   6.252  0.1756  0.2831 -0.5488
 5352SOL    HW216956   2.347   2.165   6.288  0.0732  0.5581 -1.1293
 5353SOL     OW16957   6.986   6.993   2.436 -0.0747 -0.7233  0.0138
 5353SOL    HW116958   7.079   6.989   2.474  0.0958  1.4272 -0.0787
 5353SOL    HW216959   6.991   6.999   2.336 -0.1729  1.3890  0.0901
 5354SOL     OW16960   3.330   5.929   5.433 -0.1013  0.2613  0.2971
 5354SOL    HW116961   3.248   5.958   5.484 -0.0805  0.1964  0.3681
 5354SOL    HW216962   3.406   5.919   5.497 -0.6082 -1.9767  0.6251
 5355SOL     OW16963   2.546   4.771   6.290  0.1526 -0.5261  0.6893
 5355SOL    HW116964   2.462   4.791   6.340  0.1313 -0.9122  0.8145
 5355SOL    HW216965   2.584   4.684   6.323  0.9032 -0.0772  1.0335
 5356SOL     OW16966   6.869   6.747   2.277 -0.7667 -0.0892 -0.2774
 5356SOL    HW116967   6.793   6.696   2.237  0.2656 -1.5852 -0.4087
 5356SOL    HW216968   6.856   6.754   2.376 -0.7106 -1.0014 -0.1991
 5357SOL     OW16969   1.346   4.399   2.113 -0.2048 -0.5369  0.2326
 5357SOL    HW116970   1.271   4.379   2.051 -0.6770  0.9381  0.2862
 5357SOL    HW216971   1.333   4.351   2.199 -0.7690 -0.7709  0.0165
 5358SOL     OW16972   6.949   6.083   1.181 -0.0314  0.4621 -0.1469
 5358SOL    HW116973   6.862   6.038   1.203 -0.8872  1.6135 -1.0016
 5358SOL    HW216974   6.958   6.166   1.236  0.8626  0.0044  0.4167
 5359SOL     OW16975   2.227   6.574   3.816 -0.5186 -0.3743  0.1348
 5359SOL    HW116976   2.313   6.613   3.784 -1.1425  0.5814 -0.4450
 5359SOL    HW216977   2.240   6.478   3.840  0.5746 -0.3922 -0.4832
 5360SOL     OW16978   2.585   3.013   6.907  0.5623  0.1352 -0.7904
 5360SOL    HW116979   2.609   2.916   6.898  0.1363 -0.1529  0.8800
 5360SOL    HW216980   2.667   3.069   6.899  1.2005 -0.5507  0.6646
 5361SOL     OW16981   6.620   3.591   4.656  0.2733 -0.4515  0.4495
 5361SOL    HW116982   6.669   3.678   4.648  1.1552 -0.9143  0.6618
 5361SOL    HW216983   6.600   3.556   4.564 -0.9355  0.4186  0.3535
 5362SOL     OW16984   2.029   2.131   2.229 -0.0572  0.0388  0.2897
 5362SOL    HW116985   2.036   2.089   2.319  0.7154 -1.2535 -0.3543
 5362SOL    HW216986   2.005   2.062   2.161  3.4534  0.0350 -1.1696
 5363SOL     OW16987   4.219   4.468   5.381  0.8040 -0.0565  0.7682
 5363SOL    HW116988   4.198   4.557   5.340  1.2406 -0.2177  0.1706
 5363SOL    HW216989   4.266   4.411   5.313 -1.5070 -1.5962  0.3781
 5364SOL     OW16990   3.895   5.903   5.814  0.0315 -0.1118 -0.5414
 5364SOL    HW116991   3.803   5.888   5.851 -0.0520  0.2924 -0.5728
 5364SOL    HW216992   3.961   5.846   5.863  0.0118  0.8114  0.6139
 5365SOL     OW16993   3.054   1.046   6.029 -0.5217  0.1360 -0.0860
 5365SOL    HW116994   3.111   1.115   5.984  1.1480  0.3990  2.2398
 5365SOL    HW216995   2.961   1.081   6.038 -0.3284  1.0131 -1.1993
 5366SOL     OW16996   4.982   4.866   4.669 -0.1622 -0.2306  0.3484
 5366SOL    HW116997   5.001   4.963   4.655  0.0861 -0.0544  1.7799
 5366SOL    HW216998   5.064   4.813   4.649  0.8890  0.2162  3.0607
 5367SOL     OW16999   0.501   2.618   5.342 -0.0691 -0.0939  0.4182
 5367SOL    HW117000   0.539   2.599   5.432 -0.4895  0.2560  0.6671
 5367SOL    HW217001   0.465   2.533   5.303  0.4871 -0.3275  0.3970
 5368SOL     OW17002   1.095   1.208   4.821 -0.1043  0.0485  0.1876
 5368SOL    HW117003   1.156   1.131   4.805 -0.7500  0.0759 -3.0361
 5368SOL    HW217004   1.001   1.175   4.825 -0.1741  0.3822  1.7451
 5369SOL     OW17005   0.845   6.856   5.463  0.4650  0.7879 -0.2079
 5369SOL    HW117006   0.870   6.927   5.528  0.0076 -0.9231  1.9553
 5369SOL    HW217007   0.915   6.783   5.464  0.7438  0.9830 -2.0951
 5370SOL     OW17008   4.339   2.366   4.810  0.1335 -0.3674 -0.1168
 5370SOL    HW117009   4.297   2.386   4.899  0.0260 -0.2792 -0.1870
 5370SOL    HW217010   4.420   2.424   4.799 -0.7772  0.8194 -0.7708
 5371SOL     OW17011   0.176   6.804   3.135  0.0224 -0.3459  0.4644
 5371SOL    HW117012   0.256   6.745   3.150  1.0527  0.7967 -0.3088
 5371SOL    HW217013   0.149   6.799   3.039 -0.1339  0.1299  0.4831
 5372SOL     OW17014   6.588   6.525   4.275 -0.0247  0.1815  0.2666
 5372SOL    HW117015   6.580   6.435   4.316  2.8990 -0.4944 -0.3961
 5372SOL    HW217016   6.578   6.595   4.346  1.0657 -0.8077  1.4403
 5373SOL     OW17017   4.179   6.754   6.648  0.7286  0.2933  0.0151
 5373SOL    HW117018   4.210   6.849   6.643  1.3515  0.2953  2.5435
 5373SOL    HW217019   4.135   6.738   6.736  0.1070 -1.6239 -0.5958
 5374SOL     OW17020   5.882   6.198   2.339  0.0087  0.4971  0.2040
 5374SOL    HW117021   5.948   6.141   2.389 -0.9005 -1.1162 -0.3710
 5374SOL    HW217022   5.890   6.181   2.241 -1.3816  0.1069  0.1344
 5375SOL     OW17023   1.278   4.527   0.017 -0.0782 -0.0914 -0.6085
 5375SOL    HW117024   1.359   4.555   0.068 -1.5035  1.9360  0.6839
 5375SOL    HW217025   1.245   4.439   0.051  1.4031 -0.8404 -1.0148
 5376SOL     OW17026   5.342   2.487   3.376  0.4763  0.4604 -0.2098
 5376SOL    HW117027   5.333   2.577   3.335 -0.0661 -0.1114 -1.3673
 5376SOL    HW217028   5.276   2.478   3.451  2.1779  1.8836  1.5622
 5377SOL     OW17029   1.067   2.135   0.877 -0.7444  0.5967  0.3602
 5377SOL    HW117030   1.076   2.093   0.968 -0.8868  1.0510  0.5883
 5377SOL    HW217031   1.156   2.140   0.833 -0.9805 -1.9161 -0.5825
 5378SOL     OW17032   2.055   2.918   6.647  0.2308  0.5512  0.1514
 5378SOL    HW117033   2.125   2.868   6.595  1.2084  2.6004 -0.5874
 5378SOL    HW217034   1.988   2.957   6.584 -1.3998 -1.0178  0.8268
 5379SOL     OW17035   5.800   0.302   4.283  0.1853 -0.6096  0.6406
 5379SOL    HW117036   5.727   0.297   4.214  0.0500  0.0853  0.7272
 5379SOL    HW217037   5.881   0.254   4.248 -0.2294 -1.1828  0.4456
 5380SOL     OW17038   6.927   5.199   6.505 -0.2487  0.4727  0.1414
 5380SOL    HW117039   6.880   5.287   6.503  2.1561  1.8446 -0.1671
 5380SOL    HW217040   6.932   5.162   6.413 -0.2842  0.5761  0.0971
 5381SOL     OW17041   1.434   4.058   1.350 -0.0274 -0.1603  0.5036
 5381SOL    HW117042   1.489   3.984   1.311 -1.7222 -1.2565  0.0825
 5381SOL    HW217043   1.415   4.126   1.280 -1.3220 -1.0896 -0.1006
 5382SOL     OW17044   6.371   6.272   1.705 -0.2506  0.0385  0.2886
 5382SOL    HW117045   6.372   6.228   1.615 -1.6778  3.6212 -1.6845
 5382SOL    HW217046   6.286   6.323   1.716  0.6908  1.2207  2.8881
 5383SOL     OW17047   3.167   4.218   5.223  0.0411 -0.3715  0.0689
 5383SOL    HW117048   3.103   4.186   5.293 -1.7656 -1.3399 -1.9044
 5383SOL    HW217049   3.236   4.277   5.265 -0.6126 -1.3607  2.7171
 5384SOL     OW17050   2.246   5.302   4.717  0.3750  0.2287  0.5879
 5384SOL    HW117051   2.181   5.374   4.745 -0.3095  0.4398 -1.4106
 5384SOL    HW217052   2.197   5.217   4.702  1.0557 -0.4546  2.0299
 5385SOL     OW17053   6.245   2.211   2.992 -0.2000  0.0465 -0.1310
 5385SOL    HW117054   6.148   2.231   3.006 -0.3079 -0.3217 -0.3508
 5385SOL    HW217055   6.263   2.115   3.014 -0.1249 -0.2134 -1.2682
 5386SOL     OW17056   0.345   6.996   5.798  0.0317 -0.1490  0.1067
 5386SOL    HW117057   0.333   7.022   5.894 -0.4948  2.3313 -0.5525
 5386SOL    HW217058   0.442   6.991   5.776  0.1558 -0.7886  0.7509
 5387SOL     OW17059   3.223   3.996   4.609  0.1379  0.4133 -0.0971
 5387SOL    HW117060   3.154   3.924   4.606  0.5161  0.0477 -0.1468
 5387SOL    HW217061   3.220   4.042   4.698  0.0931  0.1368  0.0447
 5388SOL     OW17062   5.651   6.030   5.434  0.3103  0.0569  0.2169
 5388SOL    HW117063   5.681   6.088   5.510 -2.2008  1.7342  0.0315
 5388SOL    HW217064   5.657   5.934   5.461 -0.7109  0.6013  2.6429
 5389SOL     OW17065   2.072   0.245   3.404  0.5729  0.2226  0.0576
 5389SOL    HW117066   2.042   0.232   3.310  0.9391  1.3019 -0.2270
 5389SOL    HW217067   2.172   0.251   3.407  0.7114 -1.8852  0.8043
 5390SOL     OW17068   3.728   5.888   4.876  0.1097  0.3834 -0.2581
 5390SOL    HW117069   3.662   5.813   4.882  0.4371  0.1354  0.3422
 5390SOL    HW217070   3.713   5.952   4.951 -0.3219  1.0470 -0.9088
 5391SOL     OW17071   6.555   3.886   2.556  0.2030  0.2189  0.4284
 5391SOL    HW117072   6.609   3.825   2.615 -0.5775 -1.7480 -0.7801
 5391SOL    HW217073   6.615   3.930   2.490  0.3398 -2.7970 -1.6339
 5392SOL     OW17074   5.153   1.023   3.224 -0.0305 -0.7883 -0.3371
 5392SOL    HW117075   5.243   1.024   3.267  0.0684  0.8824 -0.5477
 5392SOL    HW217076   5.090   1.081   3.276 -0.4275 -0.2924 -1.3572
 5393SOL     OW17077   6.331   4.984   4.179  0.3174  0.0694 -0.3035
 5393SOL    HW117078   6.425   4.959   4.157  0.7117  1.4309 -0.2146
 5393SOL    HW217079   6.270   4.909   4.151  1.2030  0.0080 -2.2882
 5394SOL     OW17080   2.415   4.954   3.989 -0.0123  0.2684 -0.0571
 5394SOL    HW117081   2.352   4.987   4.059 -0.7674  0.9460 -1.0208
 5394SOL    HW217082   2.374   4.967   3.899  0.2603 -2.0167 -0.5818
 5395SOL     OW17083   3.447   4.312   6.584 -0.5229  0.2501 -0.3224
 5395SOL    HW117084   3.429   4.247   6.658  0.8732  1.0896  0.7872
 5395SOL    HW217085   3.396   4.396   6.600 -2.0600 -0.3788 -1.5844
 5396SOL     OW17086   4.801   6.351   5.547  0.0423  0.2853 -0.1868
 5396SOL    HW117087   4.760   6.410   5.478 -0.3429 -1.1367 -1.2180
 5396SOL    HW217088   4.744   6.270   5.561  1.7530 -1.0776 -0.6465
 5397SOL     OW17089   1.996   2.013   2.899 -0.2280 -0.4451 -0.0686
 5397SOL    HW117090   2.054   2.091   2.922 -0.7104 -0.2827  0.6427
 5397SOL    HW217091   1.902   2.044   2.886 -0.0778 -0.6190 -1.8068
 5398SOL     OW17092   5.410   0.030   4.633  0.3207  0.2060 -0.1814
 5398SOL    HW117093   5.507   0.030   4.660 -0.0722  0.9129  1.3405
 5398SOL    HW217094   5.368  -0.057   4.658  0.4962 -0.0046 -0.6106
 5399SOL     OW17095   5.325   4.856   4.708 -0.1834 -0.4531 -0.5295
 5399SOL    HW117096   5.359   4.920   4.777  0.3019 -0.6894 -0.5471
 5399SOL    HW217097   5.328   4.763   4.744  0.9968 -0.6986 -1.1894
 5400SOL     OW17098   3.099   1.608   0.521 -0.0358  0.4613 -0.4955
 5400SOL    HW117099   3.092   1.591   0.423 -1.7775  0.0724 -0.3265
 5400SOL    HW217100   3.035   1.550   0.570  1.1206  0.3284  0.9371
 5401SOL     OW17101   1.320   5.345   4.520 -0.1681 -0.2257 -0.0900
 5401SOL    HW117102   1.233   5.354   4.569 -0.0128 -0.7878  0.3001
 5401SOL    HW217103   1.308   5.284   4.442 -0.5038  0.9500 -0.9940
 5402SOL     OW17104   6.438   2.415   1.979  0.0241 -0.3646  0.0812
 5402SOL    HW117105   6.390   2.328   1.970  0.1522 -0.3579 -0.6868
 5402SOL    HW217106   6.445   2.439   2.076  0.6873 -1.6060  0.3660
 5403SOL     OW17107   3.330   5.862   4.848  0.0986  0.6798 -0.0058
 5403SOL    HW117108   3.415   5.913   4.856  0.3461  0.1986  0.5013
 5403SOL    HW217109   3.308   5.819   4.935 -1.9007  2.7034  0.5779
 5404SOL     OW17110   5.772   7.014   1.704 -0.1954  0.3972 -0.6356
 5404SOL    HW117111   5.869   7.031   1.722 -0.2970  0.2627  0.0415
 5404SOL    HW217112   5.731   7.095   1.662 -0.0888  0.9309  0.2669
 5405SOL     OW17113   3.643   6.296   2.839 -0.1869  0.0212  0.0251
 5405SOL    HW117114   3.709   6.310   2.765  0.4910 -1.2093  0.3610
 5405SOL    HW217115   3.650   6.370   2.905  0.2058  0.3785 -0.4102
 5406SOL     OW17116   2.820   2.333   6.312 -0.3882  0.0323 -0.3066
 5406SOL    HW117117   2.859   2.410   6.261 -0.9005  0.1876 -0.4756
 5406SOL    HW217118   2.738   2.301   6.265  0.3367 -1.2369 -0.7572
 5407SOL     OW17119   4.817   4.646   0.084  0.0769 -0.3505  0.1138
 5407SOL    HW117120   4.804   4.742   0.111  2.1595 -0.5398  2.1805
 5407SOL    HW217121   4.913   4.632   0.058 -0.0602 -1.9598  0.3835
 5408SOL     OW17122   1.457   2.230   0.585 -0.0962  0.3382 -0.2868
 5408SOL    HW117123   1.517   2.184   0.519 -0.3793  0.4038 -0.5911
 5408SOL    HW217124   1.424   2.316   0.546 -0.2835  0.3692 -0.0642
 5409SOL     OW17125   2.449   0.415   5.258 -0.0307  0.1250 -0.2739
 5409SOL    HW117126   2.532   0.388   5.210 -1.7993  1.8186 -4.8455
 5409SOL    HW217127   2.382   0.341   5.253  0.9792 -1.2953  3.5235
 5410SOL     OW17128   4.076   6.148   1.362 -0.8173  0.3313 -0.1328
 5410SOL    HW117129   4.024   6.081   1.309 -0.7192  1.1107 -1.2433
 5410SOL    HW217130   4.069   6.126   1.459 -0.7672 -1.2853 -0.4757
 5411SOL     OW17131   5.954   0.974   6.839  0.6863 -0.0476 -0.3600
 5411SOL    HW117132   6.005   0.935   6.916  0.6652 -0.3116 -0.4809
 5411SOL    HW217133   6.000   1.057   6.808  0.3439  0.4149  0.3503
 5412SOL     OW17134   1.949   2.330   2.061  0.1882 -0.4029 -0.0217
 5412SOL    HW117135   1.929   2.315   1.964  2.2072 -0.0119 -0.5316
 5412SOL    HW217136   1.952   2.242   2.108  0.7948 -0.7374 -0.6651
 5413SOL     OW17137   5.475   6.582   6.897  0.0954 -0.3397  0.4148
 5413SOL    HW117138   5.472   6.622   6.989  0.9255  0.8538 -0.0511
 5413SOL    HW217139   5.528   6.641   6.837 -1.4835 -0.4653 -1.1633
 5414SOL     OW17140   0.620   6.202   1.880 -0.2557  0.0244  0.9942
 5414SOL    HW117141   0.709   6.180   1.921 -0.6573 -1.2631  1.2261
 5414SOL    HW217142   0.628   6.200   1.780  0.5522  2.4583  0.9366
 5415SOL     OW17143   3.057   4.838   2.392  0.0712  0.7975  0.3806
 5415SOL    HW117144   3.147   4.864   2.358  0.0292  0.5903  0.1015
 5415SOL    HW217145   2.990   4.845   2.318  0.0326  0.0618  0.3361
 5416SOL     OW17146   0.149   6.831   2.837 -0.6717 -0.5702 -0.1586
 5416SOL    HW117147   0.232   6.813   2.784 -1.3696 -1.4608 -0.9709
 5416SOL    HW217148   0.133   6.930   2.842 -0.4995 -0.4708 -1.4543
 5417SOL     OW17149   3.629   4.062   5.108  0.0011  0.1993 -0.4466
 5417SOL    HW117150   3.710   4.115   5.082  1.0589 -1.0574  0.1458
 5417SOL    HW217151   3.567   4.055   5.031 -0.0182  2.0118 -0.6232
 5418SOL     OW17152   1.693   0.276   4.239 -0.1912  0.0373  0.0065
 5418SOL    HW117153   1.689   0.307   4.334  2.5741 -0.0736  0.2417
 5418SOL    HW217154   1.761   0.330   4.189 -2.1066  0.5942 -2.1622
 5419SOL     OW17155   1.119   1.429   2.361  0.2965 -0.8743 -0.1999
 5419SOL    HW117156   1.197   1.453   2.419 -0.1384 -0.5539  0.2579
 5419SOL    HW217157   1.109   1.498   2.289 -0.0342 -0.4857  0.2106
 5420SOL     OW17158   1.185   3.761   5.756  0.5200 -0.5891  0.5259
 5420SOL    HW117159   1.245   3.782   5.679 -1.1428 -2.2140 -1.3348
 5420SOL    HW217160   1.115   3.832   5.765  0.7767 -0.3468  0.6017
 5421SOL     OW17161   4.894   3.893   6.051 -0.7059  0.0306 -0.3120
 5421SOL    HW117162   4.848   3.972   6.093 -1.3656 -1.8775  2.9166
 5421SOL    HW217163   4.919   3.828   6.123 -0.6366 -2.9593 -2.8640
 5422SOL     OW17164   0.521   6.013   3.660 -0.1225 -0.0316  0.1853
 5422SOL    HW117165   0.515   5.952   3.739 -0.0045 -0.7049 -0.3077
 5422SOL    HW217166   0.581   5.971   3.591 -2.4317 -0.8634 -1.4628
 5423SOL     OW17167   2.762   4.560   0.384  0.5994 -0.2420  0.3552
 5423SOL    HW117168   2.752   4.571   0.483 -1.6043  0.3559  0.1248
 5423SOL    HW217169   2.779   4.649   0.342  1.4265 -0.4790  0.1655
 5424SOL     OW17170   4.315   6.047   5.873  0.1620 -0.0713  0.6580
 5424SOL    HW117171   4.267   6.016   5.791  0.8923 -2.1589  0.9582
 5424SOL    HW217172   4.390   6.108   5.847  0.8406 -1.2680 -0.3287
 5425SOL     OW17173   0.873   3.857   0.419 -0.2276  0.2817 -0.5867
 5425SOL    HW117174   0.955   3.858   0.476 -0.9767  1.1184  0.5157
 5425SOL    HW217175   0.795   3.827   0.473 -1.1393  1.9780 -0.8717
 5426SOL     OW17176   1.268   4.774   5.925 -0.3461 -0.4248 -0.5315
 5426SOL    HW117177   1.186   4.724   5.899  0.3179 -0.6918 -2.1681
 5426SOL    HW217178   1.324   4.717   5.984 -2.3704  0.5719  2.6715
 5427SOL     OW17179   2.956   2.059   3.161 -0.6730  0.1083 -0.4405
 5427SOL    HW117180   2.892   2.040   3.236 -0.9650  0.2294 -0.6567
 5427SOL    HW217181   3.048   2.032   3.188 -0.9543 -0.9055 -0.4482
 5428SOL     OW17182   4.748   5.766   6.466  0.1083  0.8731  0.0040
 5428SOL    HW117183   4.663   5.714   6.456  1.6664 -1.6648 -1.0791
 5428SOL    HW217184   4.739   5.830   6.541 -2.7865  0.7791 -0.1557
 5429SOL     OW17185   6.684   0.234   1.745  0.1858 -0.0202  0.6798
 5429SOL    HW117186   6.699   0.329   1.717  1.1323 -0.1239  0.8081
 5429SOL    HW217187   6.605   0.229   1.806  1.2409  0.9616  2.1615
 5430SOL     OW17188   6.811   5.615   0.550 -0.2413 -0.2027  0.0955
 5430SOL    HW117189   6.744   5.546   0.577 -0.6429  0.7142  1.6073
 5430SOL    HW217190   6.831   5.674   0.629  0.1768  1.3151 -1.0965
 5431SOL     OW17191   1.685   5.270   5.812 -0.4548  0.2733 -0.3011
 5431SOL    HW117192   1.721   5.346   5.757  1.1072  2.0272  2.8842
 5431SOL    HW217193   1.747   5.192   5.805 -1.9507 -0.8187 -3.4153
 5432SOL     OW17194   0.869   5.713   1.118 -0.4749  0.1686 -0.3757
 5432SOL    HW117195   0.903   5.679   1.031  0.7778 -0.8210  0.4565
 5432SOL    HW217196   0.883   5.643   1.189 -0.5162  1.3199  0.8130
 5433SOL     OW17197   1.627   6.229   6.899  0.0504 -0.0027 -0.2295
 5433SOL    HW117198   1.649   6.244   6.995  0.3798  0.5050 -0.3854
 5433SOL    HW217199   1.541   6.177   6.893 -0.2995  0.4985  0.3266
 5434SOL     OW17200   4.402   3.497   0.973  0.1747 -0.1069 -0.2568
 5434SOL    HW117201   4.478   3.559   0.954 -1.3524  1.3441 -2.1601
 5434SOL    HW217202   4.408   3.417   0.914  1.9581 -1.7249  1.9579
 5435SOL     OW17203   6.452   0.393   5.027 -1.2071 -0.0986 -0.0932
 5435SOL    HW117204   6.519   0.380   4.953 -1.6396 -0.5896 -0.4083
 5435SOL    HW217205   6.486   0.350   5.110  0.2880  2.2916  0.6354
 5436SOL     OW17206   5.133   5.179   6.272  0.3679 -0.3273  0.2444
 5436SOL    HW117207   5.209   5.171   6.207 -0.3048 -0.0340 -0.5837
 5436SOL    HW217208   5.046   5.181   6.223 -0.0878  1.5084  1.0256
 5437SOL     OW17209   1.963   3.755   0.883  0.4462  0.2153  0.1801
 5437SOL    HW117210   1.926   3.725   0.971 -0.9019  0.5026 -0.2656
 5437SOL    HW217211   1.894   3.809   0.835  1.0608 -0.1852 -1.1872
 5438SOL     OW17212   4.864   3.907   5.136  0.6205  0.2871  0.2529
 5438SOL    HW117213   4.807   3.826   5.147  2.1686 -0.6796  1.4877
 5438SOL    HW217214   4.805   3.988   5.133 -0.9218 -0.8181 -0.5538
 5439SOL     OW17215   6.570   0.174   4.880  0.4283  0.5370 -0.2759
 5439SOL    HW117216   6.501   0.119   4.927  0.0451  0.5985 -0.7471
 5439SOL    HW217217   6.561   0.160   4.781 -2.0217  4.0213 -0.7589
 5440SOL     OW17218   1.061   5.667   4.506  0.7131 -0.3781  0.0028
 5440SOL    HW117219   1.053   5.715   4.594  0.2680  1.0223 -0.7644
 5440SOL    HW217220   1.013   5.719   4.436  2.2872 -0.7131 -1.3797
 5441SOL     OW17221   1.025   3.968   2.227  0.1962  0.1482 -0.0663
 5441SOL    HW117222   0.999   3.902   2.297  0.6807  0.0183 -0.0059
 5441SOL    HW217223   1.112   3.940   2.185 -0.4622 -0.1913 -1.2550
 5442SOL     OW17224   1.888   5.372   7.001  0.5081  0.7522  0.2570
 5442SOL    HW117225   1.827   5.306   6.957  1.2682  0.7740 -0.8585
 5442SOL    HW217226   1.864   5.465   6.972  1.2336  0.7401 -0.4046
 5443SOL     OW17227   5.741   1.747   2.444  0.1584  0.2746 -0.2162
 5443SOL    HW117228   5.647   1.756   2.478 -0.4066  0.0497 -1.6251
 5443SOL    HW217229   5.749   1.664   2.390  1.5174 -0.3411  0.8727
 5444SOL     OW17230   3.666   6.983   0.004 -0.0673  0.1352 -0.2035
 5444SOL    HW117231   3.740   7.045   0.030  1.3739 -1.5886  0.0432
 5444SOL    HW217232   3.586   7.035  -0.025  1.1391  2.0670 -0.1738
 5445SOL     OW17233   5.626   5.354   6.944 -0.3659  0.2498  0.4218
 5445SOL    HW117234   5.559   5.313   6.883  1.1974 -0.0958 -1.1397
 5445SOL    HW217235   5.640   5.295   7.023 -1.5908  0.1406  0.5726
 5446SOL     OW17236   3.629   4.468   5.389 -0.2089 -0.3223 -0.2873
 5446SOL    HW117237   3.631   4.551   5.444  1.1614  0.5305 -1.5291
 5446SOL    HW217238   3.623   4.492   5.292 -0.2686 -1.6921 -0.6534
 5447SOL     OW17239   5.614   3.574   5.813  0.1837  0.0361  0.3845
 5447SOL    HW117240   5.542   3.512   5.843 -0.0408  0.1445  0.0719
 5447SOL    HW217241   5.594   3.667   5.847  0.4632 -0.0374  0.7620
 5448SOL     OW17242   6.513   2.620   0.600  0.6387  0.1053 -0.0020
 5448SOL    HW117243   6.425   2.658   0.574  0.2016 -0.3591  0.7654
 5448SOL    HW217244   6.553   2.674   0.674  0.9064  0.1911 -0.2052
 5449SOL     OW17245   1.642   0.271   5.915 -0.3999 -0.1216 -0.2664
 5449SOL    HW117246   1.737   0.282   5.888 -0.3529  4.5265  1.0675
 5449SOL    HW217247   1.637   0.240   6.010 -0.3329 -1.8418 -0.7908
 5450SOL     OW17248   2.323   0.963   1.030 -0.0015  0.2148 -0.5988
 5450SOL    HW117249   2.291   0.870   1.010  1.1089 -0.3054 -0.0317
 5450SOL    HW217250   2.389   0.990   0.960  0.7195  0.0241 -0.0073
 5451SOL     OW17251   0.832   1.738   0.158  0.6932 -0.1127  0.0890
 5451SOL    HW117252   0.874   1.825   0.185  0.9546 -0.4192  0.6999
 5451SOL    HW217253   0.763   1.712   0.225  0.4628 -0.2697 -0.2076
 5452SOL     OW17254   2.144   5.719   3.610  0.6957 -0.1963 -0.6394
 5452SOL    HW117255   2.181   5.625   3.608 -0.7546 -0.7811 -1.0435
 5452SOL    HW217256   2.168   5.762   3.696  1.7334 -0.7856 -0.6069
 5453SOL     OW17257   1.405   0.791   4.183  0.0291  0.0506 -0.1166
 5453SOL    HW117258   1.397   0.891   4.192 -1.5903 -0.0285 -0.5132
 5453SOL    HW217259   1.456   0.770   4.100 -0.0152  0.5392 -0.2728
 5454SOL     OW17260   0.127   1.331   0.015 -0.0154 -0.1499 -0.0760
 5454SOL    HW117261   0.211   1.386   0.007  0.8080 -1.4958 -1.2282
 5454SOL    HW217262   0.048   1.392   0.022  0.9212  1.1691 -0.4912
 5455SOL     OW17263   6.422   1.475   4.370  0.2561 -0.4560  0.9918
 5455SOL    HW117264   6.377   1.424   4.296 -0.3462  0.9391  0.3715
 5455SOL    HW217265   6.509   1.430   4.393  1.4606  0.1251 -1.9373
 5456SOL     OW17266   4.886   2.447   3.459 -0.6683  0.3092 -0.0043
 5456SOL    HW117267   4.835   2.387   3.520  0.3739  0.8992  1.5068
 5456SOL    HW217268   4.903   2.400   3.372 -1.4250 -0.8821  0.4727
 5457SOL     OW17269   4.069   3.668   3.936 -0.0232  0.0461  0.3148
 5457SOL    HW117270   4.070   3.648   4.034  0.7865 -0.7023  0.1724
 5457SOL    HW217271   4.088   3.584   3.885 -1.0827  0.2995 -0.5154
 5458SOL     OW17272   2.597   3.109   0.395 -0.5212 -0.7253  0.2126
 5458SOL    HW117273   2.689   3.079   0.419 -0.4535 -1.2131 -0.6166
 5458SOL    HW217274   2.586   3.206   0.419 -0.5317 -1.2156  2.3180
 5459SOL     OW17275   6.714   1.424   5.844 -0.1909  0.4640  0.2420
 5459SOL    HW117276   6.618   1.401   5.855 -0.1585 -1.8092 -2.8321
 5459SOL    HW217277   6.722   1.511   5.796 -0.8715 -0.3132 -1.3688
 5460SOL     OW17278   3.529   4.492   1.035 -0.2031 -0.2211 -0.1948
 5460SOL    HW117279   3.605   4.478   1.099  0.8736  0.3771 -1.2914
 5460SOL    HW217280   3.493   4.404   1.007  0.0781 -0.5136  0.3416
 5461SOL     OW17281   1.456   4.263   0.258  0.0352  0.5977  0.3381
 5461SOL    HW117282   1.442   4.354   0.297 -2.3822  0.5387 -0.2292
 5461SOL    HW217283   1.420   4.194   0.321  0.4049  0.1520  0.0696
 5462SOL     OW17284   6.697   6.428   3.802  0.4600 -0.3804 -0.4913
 5462SOL    HW117285   6.651   6.462   3.720  0.9077 -1.0318 -1.0280
 5462SOL    HW217286   6.640   6.446   3.882  0.7779  1.8059 -0.7063
 5463SOL     OW17287   0.938   0.909   0.249 -0.3584 -0.0736  0.1772
 5463SOL    HW117288   0.994   0.976   0.201  1.4869 -0.7983  1.2000
 5463SOL    HW217289   0.866   0.955   0.301 -1.2701  0.8281 -1.7904
 5464SOL     OW17290   2.716   5.536   0.420  0.2098 -0.2488 -0.4480
 5464SOL    HW117291   2.812   5.508   0.417  0.2694  0.0211 -1.3391
 5464SOL    HW217292   2.666   5.476   0.483  1.0204 -0.1794  0.2860
 5465SOL     OW17293   0.626   1.195   2.123  0.3030  0.0350  0.1074
 5465SOL    HW117294   0.693   1.210   2.050  1.2520 -0.2783  0.8777
 5465SOL    HW217295   0.650   1.252   2.202  0.1811 -0.7467  0.7169
 5466SOL     OW17296   4.344   4.506   0.287  0.0879 -0.1134 -0.5108
 5466SOL    HW117297   4.253   4.476   0.259 -0.1457 -0.4996  0.6150
 5466SOL    HW217298   4.349   4.606   0.283 -0.9624  0.0422  1.0195
 5467SOL     OW17299   0.091   3.150   1.778 -0.0971 -0.0488 -0.1931
 5467SOL    HW117300   0.061   3.154   1.873  0.4690 -1.0382  0.0441
 5467SOL    HW217301   0.011   3.142   1.718 -0.3965 -1.1142  0.3196
 5468SOL     OW17302   1.246   2.840   2.675  0.3247  0.1467  0.1966
 5468SOL    HW117303   1.278   2.913   2.735  0.5862  0.8336 -0.7640
 5468SOL    HW217304   1.275   2.751   2.713  0.8418  0.5868  0.8592
 5469SOL     OW17305   2.150   5.518   6.698 -0.1748  0.6849 -0.1589
 5469SOL    HW117306   2.109   5.429   6.719  1.3608  0.1442  0.7378
 5469SOL    HW217307   2.102   5.560   6.621 -1.3974 -0.5786 -0.1273
 5470SOL     OW17308   4.271   0.327   1.862 -0.7548 -0.7616 -0.1107
 5470SOL    HW117309   4.247   0.390   1.788  0.0811 -0.1255  0.1433
 5470SOL    HW217310   4.187   0.296   1.907 -1.2080  2.9943  2.0532
 5471SOL     OW17311   6.102   0.130   0.286  0.0507 -0.4061 -0.2668
 5471SOL    HW117312   6.105   0.039   0.245 -1.2832 -0.1673 -0.9354
 5471SOL    HW217313   6.081   0.197   0.216  4.2647  0.9504 -0.5368
 5472SOL     OW17314   5.450   2.802   4.513 -0.0638  0.4705 -0.3834
 5472SOL    HW117315   5.509   2.723   4.498 -0.0631 -0.2289  2.5868
 5472SOL    HW217316   5.354   2.775   4.502 -0.1089 -0.2362  1.4183
 5473SOL     OW17317   2.921   6.843   4.843 -0.7064 -0.0777 -0.4525
 5473SOL    HW117318   2.983   6.779   4.798 -2.8617 -0.5174 -3.1063
 5473SOL    HW217319   2.972   6.925   4.870  1.5589 -1.6680  0.4516
 5474SOL     OW17320   6.722   2.184   4.170  0.0453  0.1155  0.6628
 5474SOL    HW117321   6.725   2.147   4.077 -1.8782 -0.4778  0.7943
 5474SOL    HW217322   6.641   2.149   4.217 -0.0985  1.9811  1.9036
 5475SOL     OW17323   0.490   1.748   3.801 -0.9746  0.0461 -0.1435
 5475SOL    HW117324   0.456   1.658   3.775  1.1720 -0.3661 -1.7883
 5475SOL    HW217325   0.567   1.738   3.864  0.3917  0.5535 -1.6372
 5476SOL     OW17326   1.564   2.965   6.681 -0.0991 -0.4661  0.5015
 5476SOL    HW117327   1.533   3.053   6.646  1.1227 -0.2437 -0.0601
 5476SOL    HW217328   1.588   2.905   6.605  0.5348 -0.7346  0.9067
 5477SOL     OW17329   1.054   2.034   6.985  0.7387  0.8568 -0.4895
 5477SOL    HW117330   1.018   2.009   7.075  0.4824  0.8357 -0.5982
 5477SOL    HW217331   1.052   1.954   6.925  0.1872  1.0666 -0.7501
 5478SOL     OW17332   5.772   3.775   1.114  0.0136 -0.9341 -0.1440
 5478SOL    HW117333   5.698   3.802   1.176  1.3724  2.6315  0.1799
 5478SOL    HW217334   5.743   3.696   1.060 -4.9106  1.3818 -1.5096
 5479SOL     OW17335   4.972   7.004   2.607 -0.0897  0.3348 -0.1459
 5479SOL    HW117336   4.904   7.072   2.634  0.0453  0.5251 -0.2805
 5479SOL    HW217337   4.983   6.937   2.680 -0.1026  0.5503  0.0563
 5480SOL     OW17338   3.887   6.468   5.476 -0.3205 -0.0329  0.3917
 5480SOL    HW117339   3.912   6.452   5.380 -2.2327  2.2759 -0.6233
 5480SOL    HW217340   3.890   6.382   5.526  0.3509 -1.3962 -1.8409
 5481SOL     OW17341   6.995   2.124   4.225  0.7170  0.7229 -0.2517
 5481SOL    HW117342   6.915   2.182   4.216  0.9962  1.1276 -0.1586
 5481SOL    HW217343   7.074   2.179   4.252  0.5009 -0.0087  2.0978
 5482SOL     OW17344   3.416   2.340   7.001  0.3563 -0.2362  0.7181
 5482SOL    HW117345   3.416   2.386   6.912  1.4788 -2.2583 -0.4197
 5482SOL    HW217346   3.504   2.356   7.046 -0.7833  2.0997  2.2698
 5483SOL     OW17347   0.698   3.131   6.517  0.0746  0.3607  0.5353
 5483SOL    HW117348   0.684   3.048   6.570  0.0638 -0.0139 -0.0430
 5483SOL    HW217349   0.696   3.109   6.419 -3.0163  1.5008  0.2344
 5484SOL     OW17350   1.433   3.839   3.908 -0.2878  0.4786 -0.0942
 5484SOL    HW117351   1.435   3.771   3.981 -0.4811 -0.8650 -1.2750
 5484SOL    HW217352   1.437   3.792   3.819  0.4540  2.0698 -0.9461
 5485SOL     OW17353   3.429   0.011   5.067  0.3603 -0.2319  0.6576
 5485SOL    HW117354   3.422  -0.087   5.048  0.2075 -0.4217  1.5968
 5485SOL    HW217355   3.426   0.062   4.982 -1.7135 -0.9321  0.2378
 5486SOL     OW17356   6.356   5.101   5.261  0.1719 -0.7665 -0.6341
 5486SOL    HW117357   6.414   5.118   5.181 -1.9593  0.7823 -1.9597
 5486SOL    HW217358   6.317   5.009   5.254  0.0589 -0.6745 -1.3723
 5487SOL     OW17359   1.382   1.932   4.492 -0.5601 -1.1288  0.1739
 5487SOL    HW117360   1.421   2.024   4.503 -0.2051 -0.9977 -1.7771
 5487SOL    HW217361   1.377   1.887   4.581 -0.1674  0.5388  1.0925
 5488SOL     OW17362   0.145   6.500   6.999 -0.2915  0.1042 -0.2149
 5488SOL    HW117363   0.063   6.443   7.003 -1.6576  2.0444  1.0772
 5488SOL    HW217364   0.213   6.466   7.064 -1.2101  0.1253  0.7801
 5489SOL     OW17365   4.435   2.603   5.567  0.7061  0.4333 -0.5052
 5489SOL    HW117366   4.343   2.613   5.529  0.6554  1.2889 -0.1850
 5489SOL    HW217367   4.477   2.519   5.532 -0.0031  0.2997 -1.0566
 5490SOL     OW17368   0.335   4.813   4.836 -0.1435  0.3492 -0.3192
 5490SOL    HW117369   0.419   4.763   4.815  0.6766  2.2744 -1.9807
 5490SOL    HW217370   0.330   4.829   4.934  0.7401 -0.9541 -0.0349
 5491SOL     OW17371   4.784   4.673   6.177 -0.1340 -0.3185 -0.1564
 5491SOL    HW117372   4.814   4.628   6.093  1.6254 -0.4270  0.4732
 5491SOL    HW217373   4.691   4.708   6.166 -0.0958 -0.7208 -1.9780
 5492SOL     OW17374   2.022   0.741   4.402  0.1579 -0.2750  0.1817
 5492SOL    HW117375   1.926   0.728   4.426 -0.0474  0.5406 -0.1685
 5492SOL    HW217376   2.046   0.837   4.408  0.1532 -0.0116 -2.5663
 5493SOL     OW17377   6.935   5.865   2.284  0.4609  0.0891  0.1627
 5493SOL    HW117378   6.993   5.877   2.204 -0.4495 -2.4855 -0.9871
 5493SOL    HW217379   6.842   5.843   2.255 -0.1385  0.1035  1.9333
 5494SOL     OW17380   3.488   0.635   2.501  0.6269 -0.2163  0.3830
 5494SOL    HW117381   3.434   0.601   2.424  2.2267 -1.4420 -0.2373
 5494SOL    HW217382   3.582   0.654   2.472  0.3883  2.9098  1.1761
 5495SOL     OW17383   4.971   3.806   0.186  0.8156  0.5721 -0.6657
 5495SOL    HW117384   4.906   3.740   0.225  1.9612 -0.0400  0.2797
 5495SOL    HW217385   4.989   3.781   0.091 -0.5429  0.9350 -1.0450
 5496SOL     OW17386   5.576   4.956   5.603 -0.8998  0.0788  0.9467
 5496SOL    HW117387   5.634   5.017   5.657 -2.2256 -0.4076  3.0142
 5496SOL    HW217388   5.606   4.862   5.617  0.6921  0.0664 -1.6881
 5497SOL     OW17389   3.950   0.573   5.772  0.1546  0.2681  0.5384
 5497SOL    HW117390   3.936   0.484   5.728 -1.0765  0.6578  0.1139
 5497SOL    HW217391   4.023   0.565   5.840 -0.3121 -1.2188  0.9155
 5498SOL     OW17392   3.078   4.919   2.739  0.0755 -0.2946  0.1367
 5498SOL    HW117393   3.060   5.002   2.686  1.6181  1.1354  1.6943
 5498SOL    HW217394   3.098   4.843   2.678  1.4206  1.1783 -1.3266
 5499SOL     OW17395   2.762   6.655   5.749 -0.2440 -0.2818  0.2504
 5499SOL    HW117396   2.855   6.691   5.747 -0.5802  0.6286  0.6480
 5499SOL    HW217397   2.762   6.561   5.714  0.7387 -0.1153 -0.2196
 5500SOL     OW17398   6.079   6.076   2.492  0.0565 -0.6202  0.1220
 5500SOL    HW117399   6.132   6.161   2.490  0.8706 -1.1207  0.0480
 5500SOL    HW217400   6.090   6.031   2.580 -1.9645  0.3163  0.9061
 5501SOL     OW17401   2.913   3.369   4.095 -0.8120  0.0817  0.0487
 5501SOL    HW117402   2.815   3.365   4.078 -0.6965  1.2303 -1.0702
 5501SOL    HW217403   2.963   3.361   4.009  0.2114 -2.7327  0.8021
 5502SOL     OW17404   4.919   6.072   6.256  0.3615 -0.0566  0.5344
 5502SOL    HW117405   4.994   6.138   6.261 -0.6046  1.0821  0.2760
 5502SOL    HW217406   4.840   6.107   6.306 -0.4858 -0.5832 -0.4024
 5503SOL     OW17407   3.300   6.727   0.031 -0.4061  0.1091 -0.0596
 5503SOL    HW117408   3.311   6.780  -0.053  1.8490 -1.4998 -0.8826
 5503SOL    HW217409   3.209   6.685   0.032 -0.2960 -0.2685 -1.9863
 5504SOL     OW17410   6.711   5.872   6.337  0.0755  0.4691  0.7294
 5504SOL    HW117411   6.632   5.837   6.387  0.9095 -0.7809  1.2074
 5504SOL    HW217412   6.716   5.971   6.348 -2.0371  0.7266 -0.2135
 5505SOL     OW17413   5.028   6.969   6.275  0.4608  0.4336 -0.2451
 5505SOL    HW117414   5.032   7.041   6.344 -0.5198  0.4487 -0.1899
 5505SOL    HW217415   5.102   6.982   6.208 -0.3929  2.1848 -0.8983
 5506SOL     OW17416   4.562   4.543   4.911  0.5390 -0.0352  0.6617
 5506SOL    HW117417   4.467   4.552   4.940  0.4444  0.5047  0.2146
 5506SOL    HW217418   4.622   4.586   4.978  0.5000 -0.6786  1.1165
 5507SOL     OW17419   2.935   2.831   5.353 -0.5802  0.2739 -0.4193
 5507SOL    HW117420   3.029   2.804   5.332  0.0878  0.8279  1.5893
 5507SOL    HW217421   2.914   2.918   5.309 -0.0541  0.2894 -0.6433
 5508SOL     OW17422   3.264   0.076   4.602 -0.2753  0.1216  0.0823
 5508SOL    HW117423   3.229  -0.014   4.577 -1.2110  0.5020 -0.0218
 5508SOL    HW217424   3.203   0.147   4.566  0.9719  0.8430 -0.6982
 5509SOL     OW17425   5.879   2.434   0.630 -0.3905  0.0865 -0.5382
 5509SOL    HW117426   5.811   2.379   0.582 -0.2106 -0.1333 -0.5418
 5509SOL    HW217427   5.921   2.380   0.703 -1.4464  0.7550  0.5916
 5510SOL     OW17428   5.316   5.162   3.879 -0.4021  0.2547  0.1896
 5510SOL    HW117429   5.221   5.153   3.910 -0.6565  0.6557 -0.4446
 5510SOL    HW217430   5.319   5.153   3.779  0.2486  0.1061  0.2188
 5511SOL     OW17431   2.971   0.291   1.569 -0.6438 -0.3729  0.1031
 5511SOL    HW117432   2.909   0.338   1.506  0.4747  1.5347  0.3460
 5511SOL    HW217433   2.946   0.313   1.663  1.0968  1.5149  0.1976
 5512SOL     OW17434   1.377   4.758   0.707  1.1952 -0.4298 -0.2410
 5512SOL    HW117435   1.414   4.845   0.738  0.1395  0.5431 -1.5787
 5512SOL    HW217436   1.414   4.684   0.763  0.7672  1.0170  2.1236
 5513SOL     OW17437   3.288   1.517   4.168  0.0830  0.2829  0.0634
 5513SOL    HW117438   3.347   1.451   4.121 -0.2980 -0.1842  0.2365
 5513SOL    HW217439   3.243   1.576   4.101  0.4779  0.4135 -0.0895
 5514SOL     OW17440   6.894   5.486   3.417  0.3599 -0.0999  0.1494
 5514SOL    HW117441   6.965   5.535   3.469 -0.5424  0.1040  1.2259
 5514SOL    HW217442   6.805   5.529   3.433  0.1930  0.7335 -2.5668
 5515SOL     OW17443   3.501   5.297   4.515 -0.6458 -0.2250 -0.4652
 5515SOL    HW117444   3.452   5.236   4.452  0.1214  0.5055 -1.8289
 5515SOL    HW217445   3.596   5.267   4.522 -1.0969 -1.3119  1.7316
 5516SOL     OW17446   1.641   6.161   5.284 -0.4863  0.3424 -0.9716
 5516SOL    HW117447   1.571   6.117   5.228  0.7417  0.5858 -2.7641
 5516SOL    HW217448   1.731   6.138   5.249  0.2802  1.6790  0.0338
 5517SOL     OW17449   0.232   2.802   4.050  0.3618 -0.3409  0.2216
 5517SOL    HW117450   0.184   2.715   4.038  0.1885 -0.2624  0.3268
 5517SOL    HW217451   0.246   2.845   3.961 -2.3150  0.9900  0.3313
 5518SOL     OW17452   1.319   3.144   4.245  0.8869  0.3260 -0.2599
 5518SOL    HW117453   1.391   3.094   4.196  1.2559  0.8984 -0.3088
 5518SOL    HW217454   1.353   3.172   4.335  0.6810  0.4980 -0.2355
 5519SOL     OW17455   2.988   4.820   4.890  0.2312  0.0906 -0.4465
 5519SOL    HW117456   2.933   4.883   4.836  1.3300  0.6839 -0.9158
 5519SOL    HW217457   2.929   4.752   4.934 -0.8923  0.9730 -0.5612
 5520SOL     OW17458   2.869   2.676   0.223  0.1927 -0.1397 -0.3182
 5520SOL    HW117459   2.790   2.695   0.282  1.6762  0.3829  1.5846
 5520SOL    HW217460   2.874   2.578   0.203  0.5060 -0.5762  1.7350
 5521SOL     OW17461   1.029   3.311   3.925  0.0214 -0.1016  0.3653
 5521SOL    HW117462   0.955   3.329   3.860  1.4361  3.2241 -0.5261
 5521SOL    HW217463   1.001   3.337   4.017  0.6146  3.2014 -0.2817
 5522SOL     OW17464   4.001   0.069   3.760  0.4979  0.2724 -0.6173
 5522SOL    HW117465   4.062   0.086   3.838 -1.1528  0.0277  0.7821
 5522SOL    HW217466   3.961  -0.022   3.767 -0.6938  0.7385 -1.0152
 5523SOL     OW17467   6.526   0.596   2.543  0.2044  0.4658  0.3524
 5523SOL    HW117468   6.527   0.586   2.444  1.9839  0.8562  0.2904
 5523SOL    HW217469   6.503   0.508   2.585  1.0145 -0.1122 -0.3908
 5524SOL     OW17470   1.717   6.745   0.161 -0.3004 -0.5578  0.1851
 5524SOL    HW117471   1.665   6.663   0.186  1.9274 -1.6305  1.7976
 5524SOL    HW217472   1.786   6.721   0.092  0.1555  0.0171  0.4281
 5525SOL     OW17473   0.265   6.061   6.622  0.0361 -0.0642 -0.0947
 5525SOL    HW117474   0.281   6.127   6.695  1.6566  1.7227 -1.9755
 5525SOL    HW217475   0.337   5.991   6.623  1.1991  1.0840 -1.1417
 5526SOL     OW17476   6.451   0.379   3.445  0.0481  0.4157  0.2317
 5526SOL    HW117477   6.513   0.457   3.453  0.6662 -0.1334  1.0415
 5526SOL    HW217478   6.488   0.315   3.378 -0.0972  0.4963  0.0750
 5527SOL     OW17479   3.295   1.803   1.239  0.8170 -0.4862 -0.2542
 5527SOL    HW117480   3.296   1.731   1.169 -0.7221 -1.6096  0.8381
 5527SOL    HW217481   3.236   1.878   1.209  0.2909 -0.8895 -0.2295
 5528SOL     OW17482   3.873   3.868   3.994  0.1446 -0.3432  0.0519
 5528SOL    HW117483   3.956   3.812   4.001  0.1621 -0.3387 -0.1136
 5528SOL    HW217484   3.837   3.886   4.085  0.7380  0.2655  0.1793
 5529SOL     OW17485   2.137   3.341   6.744 -0.0064  0.2516 -0.2044
 5529SOL    HW117486   2.177   3.256   6.709 -0.9852  0.4104 -1.8372
 5529SOL    HW217487   2.207   3.395   6.789  1.0169 -0.6414 -0.6812
 5530SOL     OW17488   6.769   5.516   4.859 -0.5326 -0.3138  0.6568
 5530SOL    HW117489   6.692   5.539   4.799  0.1215  0.5873  0.1523
 5530SOL    HW217490   6.818   5.599   4.884  0.7306 -0.9469  0.3802
 5531SOL     OW17491   0.128   0.569   0.452  0.4012 -0.2760  0.0184
 5531SOL    HW117492   0.174   0.560   0.364  0.5648 -0.7788  0.1482
 5531SOL    HW217493   0.124   0.665   0.479  0.3462 -0.1200 -0.5365
 5532SOL     OW17494   1.026   3.942   1.377  0.4476 -0.6561  0.1479
 5532SOL    HW117495   0.935   3.959   1.415 -0.6653 -0.9829 -2.1732
 5532SOL    HW217496   1.076   3.881   1.438 -1.0770 -0.8759  1.2482
 5533SOL     OW17497   6.932   6.183   0.445  0.0792 -0.3287 -0.3612
 5533SOL    HW117498   7.020   6.225   0.423  0.4681 -0.9388 -0.0085
 5533SOL    HW217499   6.876   6.248   0.496 -0.2889  0.6077 -1.8913
 5534SOL     OW17500   6.945   1.041   0.943 -0.0780 -0.0396 -0.7975
 5534SOL    HW117501   6.940   1.120   1.005 -3.1300 -0.5299 -0.2633
 5534SOL    HW217502   6.969   1.073   0.851  2.9162  0.8985  0.1833
 5535SOL     OW17503   1.041   6.595   0.997 -0.2987  0.0876 -0.7283
 5535SOL    HW117504   1.097   6.585   1.079  0.3727 -1.4997 -1.3396
 5535SOL    HW217505   0.945   6.578   1.020 -0.1340 -0.2067 -0.2425
 5536SOL     OW17506   5.029   2.592   1.450 -0.2387 -0.0375  0.1408
 5536SOL    HW117507   5.047   2.689   1.461  0.8859  0.0694 -2.0642
 5536SOL    HW217508   5.114   2.543   1.433 -1.0236 -0.9554 -1.4659
 5537SOL     OW17509   0.075   4.302   5.448  0.0767  0.0508  0.3890
 5537SOL    HW117510  -0.006   4.319   5.391  0.9274 -0.5369 -1.0642
 5537SOL    HW217511   0.085   4.204   5.462 -0.2838  0.2012  1.8572
 5538SOL     OW17512   6.803   1.941   3.136 -0.6356  0.4195 -0.7037
 5538SOL    HW117513   6.731   1.987   3.084 -3.3824  0.4624  2.7843
 5538SOL    HW217514   6.831   1.858   3.088 -1.5111  1.4271 -3.1345
 5539SOL     OW17515   2.747   3.603   6.997  0.2130  0.5334  0.0669
 5539SOL    HW117516   2.767   3.700   7.011 -1.3858  1.1194 -1.3169
 5539SOL    HW217517   2.726   3.560   7.085  1.3354  1.3284  0.7400
 5540SOL     OW17518   1.406   6.674   4.299  0.2645 -0.3805 -0.1889
 5540SOL    HW117519   1.460   6.596   4.268  1.7910 -0.0239  1.4009
 5540SOL    HW217520   1.351   6.647   4.378  0.2080 -0.0578 -0.1161
 5541SOL     OW17521   2.609   2.117   3.209 -0.8764 -0.5354  0.1334
 5541SOL    HW117522   2.656   2.031   3.188  0.8071  0.8878 -2.4241
 5541SOL    HW217523   2.551   2.104   3.289  1.5827 -3.2456  1.6967
 5542SOL     OW17524   3.852   3.620   5.779  0.2279  0.2320 -0.0651
 5542SOL    HW117525   3.935   3.676   5.789  0.3071 -0.2745  3.6393
 5542SOL    HW217526   3.878   3.529   5.749  0.8545  0.4900 -0.3373
 5543SOL     OW17527   3.620   3.810   6.862 -0.5065 -0.0760 -0.1478
 5543SOL    HW117528   3.666   3.723   6.879 -2.1530 -0.4636  3.2371
 5543SOL    HW217529   3.654   3.879   6.925 -2.3596  0.4340  0.3565
 5544SOL     OW17530   4.830   2.763   2.364 -0.3257 -0.4655 -0.1042
 5544SOL    HW117531   4.922   2.729   2.345  0.3179  0.0916  1.7875
 5544SOL    HW217532   4.785   2.702   2.429 -1.8708 -1.5051 -2.0548
 5545SOL     OW17533   0.730   4.633   2.189  0.6849 -0.0957  0.7541
 5545SOL    HW117534   0.647   4.636   2.246  0.6798  1.2873  0.7213
 5545SOL    HW217535   0.796   4.571   2.230  0.3216  0.1689  1.7785
 5546SOL     OW17536   1.771   6.727   6.751 -0.4995 -0.1097 -0.6279
 5546SOL    HW117537   1.707   6.704   6.677 -0.2947  0.5827 -1.0300
 5546SOL    HW217538   1.755   6.821   6.780 -0.3915 -0.2931  0.0285
 5547SOL     OW17539   0.915   4.690   5.066  0.2137  0.3100 -0.0957
 5547SOL    HW117540   0.869   4.753   5.128  0.4360 -0.3423  0.7488
 5547SOL    HW217541   1.000   4.731   5.034 -0.0747  0.7932 -0.2606
 5548SOL     OW17542   6.216   6.637   5.893  0.1304  0.0399 -0.4538
 5548SOL    HW117543   6.219   6.694   5.975  0.6169 -1.0483  0.3075
 5548SOL    HW217544   6.287   6.566   5.899  0.9504  0.6252 -2.3398
 5549SOL     OW17545   5.804   1.723   6.764 -0.3613  0.1935 -0.1063
 5549SOL    HW117546   5.761   1.803   6.807  2.6004  1.0840  1.4778
 5549SOL    HW217547   5.800   1.646   6.827 -0.7124 -0.0841 -0.4660
 5550SOL     OW17548   2.213   3.835   6.344 -0.1614  0.6197 -0.4148
 5550SOL    HW117549   2.191   3.821   6.441 -0.6478 -0.2184 -0.6413
 5550SOL    HW217550   2.298   3.887   6.337 -0.1803  0.7835  0.4656
 5551SOL     OW17551   2.524   5.896   1.488  0.1309 -0.0152 -0.1590
 5551SOL    HW117552   2.583   5.909   1.409 -1.7561 -0.0591 -1.6384
 5551SOL    HW217553   2.516   5.799   1.508 -0.9189 -0.1533 -1.1671
 5552SOL     OW17554   2.368   2.076   4.253 -0.1080  0.3270 -0.4163
 5552SOL    HW117555   2.281   2.124   4.258 -0.0186  0.5006 -0.5257
 5552SOL    HW217556   2.441   2.134   4.290 -0.0978  0.0358  0.0376
 5553SOL     OW17557   0.133   2.734   4.950 -0.0211 -0.0254  0.0016
 5553SOL    HW117558   0.051   2.788   4.966  0.4150  0.4224  0.7610
 5553SOL    HW217559   0.194   2.740   5.029  0.6924 -0.4518 -0.4944
 5554SOL     OW17560   4.101   3.492   0.459 -0.2633  0.0665 -0.5374
 5554SOL    HW117561   4.025   3.536   0.508  0.8024  0.0104  1.2351
 5554SOL    HW217562   4.137   3.417   0.514  2.6305  1.5801 -0.1322
 5555SOL     OW17563   0.536   0.065   1.773 -0.2477 -0.4638  0.4978
 5555SOL    HW117564   0.487   0.149   1.792 -0.7724 -0.2697 -1.4479
 5555SOL    HW217565   0.474  -0.002   1.732  0.7969 -0.6541 -0.8720
 5556SOL     OW17566   1.478   5.379   2.902  0.3005  0.1591  0.4424
 5556SOL    HW117567   1.505   5.311   2.970 -1.2367 -1.0050 -0.0345
 5556SOL    HW217568   1.387   5.356   2.868  0.6830  1.1986 -1.3857
 5557SOL     OW17569   0.007   2.191   2.051  0.0425  0.5023 -0.2690
 5557SOL    HW117570   0.096   2.227   2.078  0.3409 -0.7366  0.4970
 5557SOL    HW217571  -0.064   2.231   2.108  0.3626 -0.0828  0.5516
 5558SOL     OW17572   1.520   3.419   3.349 -0.3015 -0.5646  0.1699
 5558SOL    HW117573   1.508   3.515   3.325  1.8803  0.2198  1.8486
 5558SOL    HW217574   1.432   3.372   3.341 -0.7177  0.4920 -4.6551
 5559SOL     OW17575   5.832   6.802   1.266  0.0795  0.4820  0.0082
 5559SOL    HW117576   5.799   6.710   1.243  2.3943 -0.3868 -0.1138
 5559SOL    HW217577   5.775   6.841   1.337 -0.6455 -1.2942  0.4636
 5560SOL     OW17578   3.436   3.181   2.396  0.0876  0.1393 -0.6004
 5560SOL    HW117579   3.337   3.179   2.404  0.1533  0.8170  0.6890
 5560SOL    HW217580   3.472   3.259   2.448  1.2062  0.6997 -2.1182
 5561SOL     OW17581   0.228   1.452   2.469 -0.3016 -0.9493  0.2866
 5561SOL    HW117582   0.150   1.511   2.445  0.3411 -0.1089  0.2013
 5561SOL    HW217583   0.295   1.456   2.395 -0.1440 -1.6083  0.3970
 5562SOL     OW17584   6.326   3.669   6.276  0.9266  0.3069 -0.1257
 5562SOL    HW117585   6.295   3.587   6.228  0.5993  0.5264 -0.2919
 5562SOL    HW217586   6.319   3.655   6.375 -0.7532  0.7347 -0.1537
 5563SOL     OW17587   2.562   0.046   5.291 -0.2069 -0.1824 -0.1072
 5563SOL    HW117588   2.479   0.088   5.328 -0.6397 -0.9238 -0.2151
 5563SOL    HW217589   2.631   0.042   5.363 -0.3102  0.2961  0.0287
 5564SOL     OW17590   6.181   5.834   4.554  0.0790 -0.2199  0.4196
 5564SOL    HW117591   6.175   5.922   4.506  2.1716 -0.4568 -0.3704
 5564SOL    HW217592   6.089   5.804   4.579 -0.9194  0.9889 -1.5251
 5565SOL     OW17593   6.563   3.277   4.417  0.6688 -0.2966 -0.5065
 5565SOL    HW117594   6.487   3.293   4.480  0.8295 -1.5436  0.0189
 5565SOL    HW217595   6.539   3.205   4.353  1.5332 -0.9571 -0.1108
 5566SOL     OW17596   1.540   5.329   4.678  0.2225 -0.3119 -0.0476
 5566SOL    HW117597   1.592   5.245   4.662  0.1224 -0.8317  2.0726
 5566SOL    HW217598   1.458   5.329   4.622  0.2152 -1.6422 -0.0612
 5567SOL     OW17599   6.963   4.431   2.004 -0.5870 -0.5622  0.0003
 5567SOL    HW117600   7.059   4.419   2.030 -0.9206 -2.9330  0.3679
 5567SOL    HW217601   6.958   4.480   1.917  0.7299  3.2609  1.8193
 5568SOL     OW17602   2.410   1.108   0.603  0.1457 -0.4937  0.0310
 5568SOL    HW117603   2.469   1.141   0.530 -1.4650  0.8942 -0.7134
 5568SOL    HW217604   2.344   1.042   0.566  0.2745 -0.9194  0.5482
 5569SOL     OW17605   6.406   2.251   3.813 -0.3703  0.2718 -0.3862
 5569SOL    HW117606   6.338   2.177   3.815 -2.6220  2.1773 -0.9635
 5569SOL    HW217607   6.430   2.277   3.906 -2.1356  0.9558 -0.0823
 5570SOL     OW17608   3.961   1.267   2.327 -0.4307 -0.1199  0.1992
 5570SOL    HW117609   3.967   1.256   2.426  1.1451 -1.4928 -0.0122
 5570SOL    HW217610   4.052   1.263   2.287 -1.1026 -0.3775 -1.3992
 5571SOL     OW17611   6.114   4.055   4.616  0.7734 -0.1828  0.1171
 5571SOL    HW117612   6.076   3.978   4.565  0.5462 -0.1400  0.2234
 5571SOL    HW217613   6.157   4.022   4.700  1.6814 -0.3283 -0.3813
 5572SOL     OW17614   4.248   2.090   5.114 -0.4517  0.1621 -0.3824
 5572SOL    HW117615   4.263   2.183   5.146 -0.4085  0.0978 -0.2172
 5572SOL    HW217616   4.176   2.090   5.044 -1.6826  0.1043  0.8362
 5573SOL     OW17617   6.995   6.252   5.705  0.0442  0.0965  0.5722
 5573SOL    HW117618   7.028   6.277   5.614 -3.1835  2.1669 -0.2164
 5573SOL    HW217619   7.043   6.306   5.774 -0.0503  1.3099 -0.2807
 5574SOL     OW17620   2.933   1.239   5.606  0.1201 -0.0024  0.4759
 5574SOL    HW117621   2.855   1.194   5.561 -0.4585  0.1417  1.3141
 5574SOL    HW217622   2.970   1.309   5.545 -1.5275  1.1454  0.7039
 5575SOL     OW17623   4.546   1.485   1.301  0.1075  0.1038  0.1682
 5575SOL    HW117624   4.459   1.497   1.348 -0.1162 -1.3390  0.1644
 5575SOL    HW217625   4.544   1.533   1.213 -0.0568  1.4670  0.8964
 5576SOL     OW17626   0.713   2.650   2.371 -0.5211  0.2592  0.0675
 5576SOL    HW117627   0.754   2.625   2.459  0.3199  1.6773  0.1069
 5576SOL    HW217628   0.639   2.715   2.386 -1.6354 -0.9331 -0.1482
 5577SOL     OW17629   3.477   4.004   2.550  0.1761  0.0321  0.5734
 5577SOL    HW117630   3.454   4.028   2.455  3.2708 -0.9810 -0.5525
 5577SOL    HW217631   3.408   4.043   2.611 -2.6692 -0.3241 -2.1224
 5578SOL     OW17632   6.734   0.736   5.824  0.1864 -0.5740  0.2328
 5578SOL    HW117633   6.717   0.684   5.908 -2.5260 -0.8316 -0.3841
 5578SOL    HW217634   6.717   0.677   5.745 -1.0559  0.6657 -0.4676
 5579SOL     OW17635   5.065   2.579   5.037  0.0605 -0.0125 -0.1050
 5579SOL    HW117636   4.994   2.537   4.981  0.3571 -0.3465 -0.2376
 5579SOL    HW217637   5.084   2.671   5.003  0.0363 -0.1064 -0.3728
 5580SOL     OW17638   1.365   6.042   4.154  0.1391 -0.5043  0.0755
 5580SOL    HW117639   1.387   6.078   4.063 -0.9392 -0.6331 -0.2415
 5580SOL    HW217640   1.450   6.014   4.199  0.9835  1.9701  0.1586
 5581SOL     OW17641   2.394   1.501   6.194 -0.2063  0.5031 -0.1233
 5581SOL    HW117642   2.466   1.459   6.249 -1.1017 -0.4687  0.3330
 5581SOL    HW217643   2.436   1.557   6.122  0.9855  0.7718  0.7508
 5582SOL     OW17644   3.140   3.165   1.447 -0.0265 -0.1620  0.1755
 5582SOL    HW117645   3.175   3.173   1.354  0.3825  0.9470  0.4009
 5582SOL    HW217646   3.090   3.248   1.471  1.5676  0.4644  1.5966
 5583SOL     OW17647   3.576   5.969   4.653  0.0545 -0.1489 -0.1639
 5583SOL    HW117648   3.603   6.055   4.695 -1.6232 -0.5204  1.8077
 5583SOL    HW217649   3.639   5.897   4.681  0.1953  0.0170 -0.0532
 5584SOL     OW17650   0.358   2.608   4.248 -0.1216 -0.0354 -0.5756
 5584SOL    HW117651   0.269   2.598   4.292 -0.5580  1.6570 -0.9909
 5584SOL    HW217652   0.377   2.705   4.234  2.0956 -0.3343  0.0803
 5585SOL     OW17653   5.032   4.298   4.203  0.2599 -0.4685 -0.0699
 5585SOL    HW117654   4.991   4.208   4.218  0.8566 -0.6614  0.4471
 5585SOL    HW217655   5.013   4.357   4.282 -1.9931  0.5950 -1.3202
 5586SOL     OW17656   1.025   0.229   0.561 -0.5263  0.7598 -0.1757
 5586SOL    HW117657   1.055   0.311   0.511  0.4657 -0.3632 -1.4803
 5586SOL    HW217658   0.942   0.193   0.518 -0.6157  0.7369  0.0172
 5587SOL     OW17659   1.382   1.890   4.772 -0.0564  0.3634  0.2832
 5587SOL    HW117660   1.479   1.911   4.781  0.1945 -1.2833  1.9937
 5587SOL    HW217661   1.328   1.971   4.796  0.8862  0.5031  2.0766
 5588SOL     OW17662   1.602   4.511   2.164 -0.3341 -0.2537  0.0416
 5588SOL    HW117663   1.507   4.495   2.138 -0.2790 -0.0654 -0.2801
 5588SOL    HW217664   1.658   4.433   2.136 -0.0083  0.5944 -1.8229
 5589SOL     OW17665   0.520   2.360   3.962 -0.5430 -0.0663  0.0091
 5589SOL    HW117666   0.571   2.429   4.012  2.9775 -1.4427 -1.3552
 5589SOL    HW217667   0.456   2.314   4.024  1.1728  0.5457  2.3722
 5590SOL     OW17668   4.140   2.083   1.223  0.1326 -0.5431  0.3047
 5590SOL    HW117669   4.239   2.093   1.236  0.2540 -0.2052 -0.7834
 5590SOL    HW217670   4.101   2.170   1.194 -0.2731 -0.9783 -0.4851
 5591SOL     OW17671   0.943   0.793   6.901  0.3944 -0.0241 -0.1741
 5591SOL    HW117672   1.019   0.849   6.934  0.8160 -0.9403  0.4637
 5591SOL    HW217673   0.860   0.814   6.953  0.6064 -0.1578  0.2143
 5592SOL     OW17674   2.898   3.867   4.888 -0.1044 -0.1519 -0.3090
 5592SOL    HW117675   2.802   3.889   4.906 -0.2258 -0.4075 -0.6493
 5592SOL    HW217676   2.947   3.859   4.975 -0.9255 -2.4684 -0.0134
 5593SOL     OW17677   1.370   5.146   4.276 -0.5446  0.1354  0.9526
 5593SOL    HW117678   1.311   5.087   4.332  0.0449 -0.4219  1.0011
 5593SOL    HW217679   1.465   5.113   4.282 -0.3709  0.4768  0.1604
 5594SOL     OW17680   6.187   3.213   0.821  1.0049 -0.2565  0.3270
 5594SOL    HW117681   6.264   3.166   0.778  1.6797 -0.3386  1.5754
 5594SOL    HW217682   6.103   3.161   0.806  1.1973 -0.2334 -0.9382
 5595SOL     OW17683   6.955   5.329   2.654  0.5803  0.2045  0.2924
 5595SOL    HW117684   6.892   5.271   2.602 -0.4389  0.6826  0.9633
 5595SOL    HW217685   7.014   5.378   2.590 -0.0467  0.1150 -0.3768
 5596SOL     OW17686   5.590   5.687   1.490  0.2433  0.1535  0.9586
 5596SOL    HW117687   5.586   5.742   1.406 -1.4988 -1.6268 -0.2073
 5596SOL    HW217688   5.546   5.737   1.564 -0.9098  0.5487  0.0381
 5597SOL     OW17689   3.926   5.494   4.453  0.0181 -0.0512 -0.0496
 5597SOL    HW117690   3.960   5.561   4.387  1.8077  0.1703  1.0187
 5597SOL    HW217691   3.895   5.412   4.404 -1.2627  1.1226 -1.3056
 5598SOL     OW17692   1.079   6.907   0.358  0.0717  0.0061  0.1044
 5598SOL    HW117693   0.995   6.941   0.315 -1.0912  1.5315  3.2389
 5598SOL    HW217694   1.159   6.947   0.312 -0.8756 -0.7633 -2.3662
 5599SOL     OW17695   1.190   4.925   6.184  0.0748 -0.6576 -0.2895
 5599SOL    HW117696   1.261   4.918   6.255  0.2797 -3.6430 -0.6463
 5599SOL    HW217697   1.228   4.970   6.103  1.1952 -1.1408 -0.0519
 5600SOL     OW17698   0.106   2.912   0.454 -0.5392  0.6871  0.2363
 5600SOL    HW117699   0.105   2.813   0.468  1.5484  0.7936  1.6028
 5600SOL    HW217700   0.199   2.941   0.429 -0.9992  2.3711  0.3663
 5601SOL     OW17701   4.754   1.345   2.978 -0.1942 -0.3717  0.3293
 5601SOL    HW117702   4.659   1.314   2.983 -0.6893  0.8286 -1.0667
 5601SOL    HW217703   4.796   1.312   2.893 -0.2690  1.4090 -0.4507
 5602SOL     OW17704   4.185   5.993   3.930 -0.2408  0.4440 -0.2396
 5602SOL    HW117705   4.170   6.003   3.831  1.1790  0.9567 -0.4238
 5602SOL    HW217706   4.194   5.896   3.952 -1.6942  0.2384 -0.4072
 5603SOL     OW17707   2.663   5.150   4.601  0.5929 -0.2153 -0.4040
 5603SOL    HW117708   2.606   5.068   4.601  0.5408 -0.1783 -0.4529
 5603SOL    HW217709   2.606   5.231   4.609  0.6919 -0.2148  0.4349
 5604SOL     OW17710   5.554   1.971   3.626  0.1095 -0.1052  0.3590
 5604SOL    HW117711   5.503   2.037   3.681  0.8720  0.4237  0.4404
 5604SOL    HW217712   5.622   2.019   3.571 -1.0408 -0.5514 -1.5240
 5605SOL     OW17713   0.501   3.740   1.465 -0.2065  0.2427  0.2250
 5605SOL    HW117714   0.462   3.723   1.555  1.6051 -2.5624  0.6056
 5605SOL    HW217715   0.435   3.716   1.394 -0.7717  0.0393  0.8171
 5606SOL     OW17716   3.538   2.954   4.810 -0.3155  0.5450 -0.1368
 5606SOL    HW117717   3.564   2.980   4.717  0.8007 -2.0162 -0.6177
 5606SOL    HW217718   3.443   2.922   4.811 -0.1200 -0.0511 -0.5344
 5607SOL     OW17719   6.890   3.726   5.077 -0.5134  0.0332  0.0219
 5607SOL    HW117720   6.888   3.824   5.098 -1.8243  0.0793 -0.2109
 5607SOL    HW217721   6.873   3.674   5.160 -2.3493  0.1108 -0.2590
 5608SOL     OW17722   2.147   0.619   1.229  0.4329  0.6968 -0.4446
 5608SOL    HW117723   2.081   0.681   1.272  0.7635  0.4656  0.4259
 5608SOL    HW217724   2.126   0.525   1.255  1.2164  0.6361  0.0117
 5609SOL     OW17725   7.005   3.599   6.515  0.4060  0.7733 -0.1675
 5609SOL    HW117726   6.946   3.569   6.591  0.2291  1.4003 -0.0505
 5609SOL    HW217727   7.096   3.560   6.527 -0.3460 -1.4427 -1.1517
 5610SOL     OW17728   5.990   3.066   2.345  0.3747 -0.0303 -0.4906
 5610SOL    HW117729   6.020   3.022   2.260  0.0700  1.8742 -1.6585
 5610SOL    HW217730   6.070   3.098   2.396  0.5578 -1.1547 -0.0532
 5611SOL     OW17731   4.827   4.107   1.195  0.0561 -0.4328  0.2528
 5611SOL    HW117732   4.777   4.043   1.254 -1.0480 -0.0867 -0.2779
 5611SOL    HW217733   4.773   4.190   1.183  1.9967  1.2018  1.9650
 5612SOL     OW17734   5.327   6.858   4.814 -0.1373 -0.2066 -0.6438
 5612SOL    HW117735   5.277   6.893   4.893 -0.8861  0.1651 -1.2598
 5612SOL    HW217736   5.416   6.822   4.843 -0.3084  0.1254  0.3246
 5613SOL     OW17737   4.129   3.457   3.249  0.2668  0.2292  0.0656
 5613SOL    HW117738   4.033   3.442   3.227  0.3859 -0.4164 -0.0212
 5613SOL    HW217739   4.179   3.371   3.242  0.8237  0.5313  0.2593
 5614SOL     OW17740   5.703   6.748   6.923  0.2046  0.1466  0.2183
 5614SOL    HW117741   5.710   6.668   6.983  0.4612  0.2296  0.3007
 5614SOL    HW217742   5.694   6.831   6.979  0.5442  0.2332  0.1421
 5615SOL     OW17743   6.238   2.109   4.941 -0.1286  1.2145  0.3555
 5615SOL    HW117744   6.264   2.074   5.031  0.1985  0.4425 -0.0332
 5615SOL    HW217745   6.321   2.130   4.888 -0.3140  1.1308  0.0310
 5616SOL     OW17746   6.498   4.684   4.640  0.3734  0.3132 -0.5224
 5616SOL    HW117747   6.427   4.738   4.686  0.5698 -0.0846  0.2624
 5616SOL    HW217748   6.458   4.636   4.561  0.0218  0.9581 -0.7397
 5617SOL     OW17749   4.538   3.428   5.555  0.4611 -0.3702  0.7069
 5617SOL    HW117750   4.584   3.346   5.521 -0.9548 -0.9680  0.1934
 5617SOL    HW217751   4.538   3.498   5.484  0.2829 -0.4915  0.5869
 5618SOL     OW17752   6.209   0.731   3.155  0.6740  0.0826  0.1808
 5618SOL    HW117753   6.157   0.762   3.234  1.2031 -1.1585  1.0431
 5618SOL    HW217754   6.306   0.725   3.178  0.5723 -2.6513  0.2743
 5619SOL     OW17755   4.100   5.288   6.070 -0.0875  0.5310 -0.3326
 5619SOL    HW117756   4.089   5.350   5.993  1.1253 -0.5554 -1.4299
 5619SOL    HW217757   4.182   5.311   6.121 -0.2731  0.5446 -0.0327
 5620SOL     OW17758   4.833   1.876   2.410 -0.3853  0.3770 -0.2145
 5620SOL    HW117759   4.903   1.906   2.475  0.7178 -0.4011 -1.0064
 5620SOL    HW217760   4.872   1.875   2.318 -0.9726 -1.4742 -0.4772
 5621SOL     OW17761   1.288   4.334   6.404 -0.2321  0.1633 -0.6152
 5621SOL    HW117762   1.245   4.424   6.397 -0.0954  0.2635 -0.1368
 5621SOL    HW217763   1.236   4.277   6.468  1.1599  0.7673  1.1187
 5622SOL     OW17764   1.780   2.383   6.954  0.5181 -0.3864 -0.1774
 5622SOL    HW117765   1.740   2.291   6.954  0.4956 -0.3897 -0.9993
 5622SOL    HW217766   1.708   2.451   6.963  0.6092 -0.4595  1.2739
 5623SOL     OW17767   0.404   6.277   2.965  0.1902  0.6845 -0.6562
 5623SOL    HW117768   0.489   6.229   2.985 -0.5006 -0.4784 -0.4209
 5623SOL    HW217769   0.382   6.339   3.040  0.4878  0.4931 -0.4073
 5624SOL     OW17770   2.756   4.726   3.112 -0.2955 -0.6674  0.1310
 5624SOL    HW117771   2.704   4.655   3.063 -2.0232 -0.4783  1.5853
 5624SOL    HW217772   2.723   4.816   3.085  1.0126 -0.4254 -0.7499
 5625SOL     OW17773   4.665   6.750   1.364 -0.4959  0.3888 -0.0385
 5625SOL    HW117774   4.576   6.716   1.332 -0.0871 -0.8299  0.0544
 5625SOL    HW217775   4.728   6.755   1.286 -0.0246 -0.8478  0.2482
 5626SOL     OW17776   0.413   2.215   3.260  0.0592  0.2129 -0.2707
 5626SOL    HW117777   0.412   2.181   3.355  1.3675 -1.6491 -0.8646
 5626SOL    HW217778   0.376   2.307   3.258 -2.7233 -0.7185  1.6336
 5627SOL     OW17779   0.582   4.879   0.385 -0.6221  0.0104 -0.3275
 5627SOL    HW117780   0.547   4.844   0.472  2.0496 -0.6639  0.5561
 5627SOL    HW217781   0.616   4.803   0.330  2.1995  0.8033  0.1917
 5628SOL     OW17782   3.486   1.234   2.499 -0.2692 -0.0251 -0.6675
 5628SOL    HW117783   3.476   1.137   2.523 -0.9265  0.2003 -0.0167
 5628SOL    HW217784   3.575   1.248   2.456 -0.1965 -0.9315 -0.8379
 5629SOL     OW17785   0.116   1.192   0.265 -0.5015  0.0129 -0.1875
 5629SOL    HW117786   0.136   1.237   0.177 -0.6277 -2.5998 -1.6530
 5629SOL    HW217787   0.019   1.169   0.268 -0.1755 -1.4222 -0.1440
 5630SOL     OW17788   1.839   1.059   3.098 -0.5859  0.2800  0.3254
 5630SOL    HW117789   1.844   0.964   3.067  0.4459  0.8756 -1.4899
 5630SOL    HW217790   1.930   1.091   3.126 -0.7556  0.9782  0.1188
 5631SOL     OW17791   0.788   4.304   1.999 -0.3257  0.5411 -0.2676
 5631SOL    HW117792   0.847   4.324   2.076 -0.5890  1.5513 -0.3119
 5631SOL    HW217793   0.838   4.250   1.931  1.2433  2.9570 -1.1936
 5632SOL     OW17794   5.239   0.393   3.569 -0.0735  0.3301  0.0002
 5632SOL    HW117795   5.208   0.358   3.658 -0.3458  1.7108  0.4729
 5632SOL    HW217796   5.186   0.350   3.496 -2.9321  2.2918  0.7613
 5633SOL     OW17797   5.709   2.636   0.672  0.1098 -0.7367  0.5798
 5633SOL    HW117798   5.666   2.663   0.586  1.3166  1.2617  0.5237
 5633SOL    HW217799   5.783   2.572   0.653  0.5554 -0.0876  0.0644
 5634SOL     OW17800   0.743   4.192   5.105  0.4605 -0.1796  0.1436
 5634SOL    HW117801   0.684   4.244   5.167 -0.3621  0.7997 -1.3902
 5634SOL    HW217802   0.828   4.243   5.089  2.3266 -2.0252  3.1178
 5635SOL     OW17803   4.013   5.538   6.595 -0.6498  0.4228  0.2255
 5635SOL    HW117804   4.097   5.528   6.647  0.0949  0.7178 -0.8995
 5635SOL    HW217805   4.030   5.592   6.512 -1.7838 -0.0982 -0.3801
 5636SOL     OW17806   2.647   5.994   0.351  0.0121 -0.0916 -0.0536
 5636SOL    HW117807   2.630   6.093   0.350  0.9875  0.0780 -0.5826
 5636SOL    HW217808   2.735   5.975   0.308  0.1405 -1.1393  0.6436
 5637SOL     OW17809   1.545   5.709   2.000  0.3069 -0.0175 -0.3190
 5637SOL    HW117810   1.527   5.744   2.092  0.2521 -0.0546 -0.3157
 5637SOL    HW217811   1.466   5.727   1.941 -0.2635 -1.3190  0.0280
 5638SOL     OW17812   0.238   1.303   4.169  0.3956 -0.7197  0.1872
 5638SOL    HW117813   0.174   1.286   4.093  0.6978  2.2132 -0.8530
 5638SOL    HW217814   0.204   1.257   4.251 -2.2337 -0.5941 -0.7058
 5639SOL     OW17815   5.442   4.916   1.235  0.5488 -0.0052 -0.6873
 5639SOL    HW117816   5.357   4.891   1.282  1.4555 -2.5195 -0.2692
 5639SOL    HW217817   5.423   4.931   1.138  0.0303 -3.7048 -1.2685
 5640SOL     OW17818   0.212   6.579   4.263 -0.5526 -0.5313  0.0327
 5640SOL    HW117819   0.156   6.657   4.291  0.8578  0.4289  0.3172
 5640SOL    HW217820   0.206   6.567   4.163 -0.2118  0.4283 -0.1126
 5641SOL     OW17821   6.264   2.328   4.269 -0.0434 -0.4187  0.8141
 5641SOL    HW117822   6.237   2.423   4.289 -0.9708 -0.4890 -0.0346
 5641SOL    HW217823   6.285   2.281   4.355  0.6793  0.6250  1.2292
 5642SOL     OW17824   0.018   5.727   2.789  0.2595  0.2379  0.1670
 5642SOL    HW117825  -0.078   5.703   2.776 -0.3088  1.3152  2.0159
 5642SOL    HW217826   0.024   5.819   2.828  2.0242 -0.0705  0.6984
 5643SOL     OW17827   6.301   3.172   1.777 -0.4325  0.1882  0.2807
 5643SOL    HW117828   6.224   3.231   1.802 -0.4457  0.3163 -0.0592
 5643SOL    HW217829   6.274   3.076   1.784 -0.4366  0.2224  0.7549
 5644SOL     OW17830   5.151   4.545   0.790 -0.8503  0.0164 -0.1639
 5644SOL    HW117831   5.197   4.588   0.867 -1.8704  1.3380 -0.2593
 5644SOL    HW217832   5.120   4.454   0.817  1.8529 -1.0061 -0.1442
 5645SOL     OW17833   6.171   1.782   4.474  0.4295  0.3677 -0.1908
 5645SOL    HW117834   6.139   1.774   4.380  1.2792  2.2467 -0.7072
 5645SOL    HW217835   6.095   1.805   4.534 -0.2143 -1.3749 -0.2890
 5646SOL     OW17836   1.975   3.688   6.911  0.7927  0.1409 -0.0381
 5646SOL    HW117837   1.954   3.597   6.947  0.7416 -0.2446 -1.0205
 5646SOL    HW217838   1.896   3.723   6.861  0.7286  0.8362  0.5168
 5647SOL     OW17839   6.083   5.631   0.709  0.2378  0.0671 -0.4689
 5647SOL    HW117840   6.126   5.609   0.622  1.2912 -0.2454  0.1048
 5647SOL    HW217841   5.998   5.580   0.719 -0.9261  1.5852 -2.1402
 5648SOL     OW17842   1.147   2.527   6.751 -0.3214  0.7058 -0.2780
 5648SOL    HW117843   1.211   2.462   6.709 -0.4922  0.8469 -0.7645
 5648SOL    HW217844   1.072   2.545   6.687 -1.1230  0.1378  0.4809
 5649SOL     OW17845   5.182   3.970   0.793 -0.1186  0.4150 -0.0577
 5649SOL    HW117846   5.206   3.955   0.889 -0.4125  1.3969  0.1778
 5649SOL    HW217847   5.229   3.903   0.737 -1.0432 -1.1042  0.8966
 5650SOL     OW17848   5.194   4.270   6.022 -0.0146 -0.4795  1.0827
 5650SOL    HW117849   5.185   4.182   5.976  1.5086 -0.4425  0.6598
 5650SOL    HW217850   5.114   4.287   6.079  0.1516 -2.6192  2.0147
 5651SOL     OW17851   2.397   1.390   3.541 -0.1633  0.2852  0.4112
 5651SOL    HW117852   2.446   1.337   3.472 -1.2485 -0.7727  0.4198
 5651SOL    HW217853   2.430   1.364   3.632 -0.9741 -0.7242  0.4399
 5652SOL     OW17854   0.294   5.719   3.041  0.0388  0.3082  0.0799
 5652SOL    HW117855   0.323   5.796   2.984 -1.7074  0.2165 -1.0254
 5652SOL    HW217856   0.322   5.634   2.997  2.1297  0.2538  1.3921
 5653SOL     OW17857   0.849   4.923   5.771  0.3832  0.0696  0.6232
 5653SOL    HW117858   0.934   4.972   5.791  0.8227 -0.9790  1.4427
 5653SOL    HW217859   0.794   4.916   5.855 -0.1083 -0.0175  0.2995
 5654SOL     OW17860   1.008   1.776   1.618 -0.1218 -0.4268  0.6872
 5654SOL    HW117861   0.942   1.834   1.570  0.9410 -0.4288 -0.8615
 5654SOL    HW217862   1.083   1.833   1.652 -0.7331 -0.4659  2.1696
 5655SOL     OW17863   0.961   0.116   4.213 -0.3331 -0.0649 -0.5152
 5655SOL    HW117864   0.890   0.167   4.261  2.5433  1.9028  2.0707
 5655SOL    HW217865   0.985   0.035   4.266 -0.3994 -0.5547 -1.2167
 5656SOL     OW17866   2.810   5.491   0.980 -0.4356  0.2983  0.2056
 5656SOL    HW117867   2.772   5.550   1.051 -1.1179 -2.2495  2.1249
 5656SOL    HW217868   2.824   5.544   0.896 -2.1883  2.8211  1.3762
 5657SOL     OW17869   4.249   0.527   3.287  0.2975 -0.4927 -0.4767
 5657SOL    HW117870   4.161   0.482   3.301  0.4924 -0.3200  1.5217
 5657SOL    HW217871   4.320   0.458   3.278  0.4998 -0.6588  1.9287
 5658SOL     OW17872   6.241   6.133   5.372  0.3413  0.2548  0.0233
 5658SOL    HW117873   6.142   6.139   5.380  0.3775  0.0856  0.6066
 5658SOL    HW217874   6.266   6.049   5.323  0.3271 -1.8874  3.4032
 5659SOL     OW17875   6.286   1.038   6.815  0.3162  0.0957 -0.0873
 5659SOL    HW117876   6.374   1.022   6.769  0.6688  1.2259  0.1546
 5659SOL    HW217877   6.213   1.037   6.747  0.6498  0.2009 -0.4545
 5660SOL     OW17878   6.874   3.887   2.888  0.0226 -0.3312  0.3940
 5660SOL    HW117879   6.852   3.829   2.966 -0.8415 -0.9904 -0.3136
 5660SOL    HW217880   6.963   3.862   2.851 -0.7057 -1.8452 -0.4367
 5661SOL     OW17881   0.676   6.377   1.213  0.5940 -0.1133  0.1530
 5661SOL    HW117882   0.754   6.435   1.191  1.3460 -1.8437 -2.1036
 5661SOL    HW217883   0.694   6.283   1.182 -1.9709 -0.7869  0.4669
 5662SOL     OW17884   5.316   5.463   7.013  0.2540 -0.0250 -0.3282
 5662SOL    HW117885   5.335   5.514   6.929  2.1920  0.6944  0.4600
 5662SOL    HW217886   5.262   5.520   7.075 -1.5204 -0.7084 -1.2135
 5663SOL     OW17887   0.491   3.071   4.426  0.4865  0.1104  0.3865
 5663SOL    HW117888   0.480   2.996   4.362 -0.2306 -0.5989  1.3113
 5663SOL    HW217889   0.417   3.138   4.412 -0.5934 -0.8079  1.4531
 5664SOL     OW17890   4.045   0.889   1.913  0.8930 -0.1247 -0.3510
 5664SOL    HW117891   4.094   0.899   1.826  0.5682 -1.1071 -0.6550
 5664SOL    HW217892   4.096   0.828   1.973  0.0085 -1.2640 -0.7198
 5665SOL     OW17893   2.652   3.650   1.120  0.0711 -0.2959 -0.1099
 5665SOL    HW117894   2.730   3.676   1.178 -1.2187  1.0317  1.0872
 5665SOL    HW217895   2.567   3.660   1.172 -0.9346 -1.7036 -1.3977
 5666SOL     OW17896   5.195   5.451   2.896 -0.3202  0.1976 -0.2314
 5666SOL    HW117897   5.222   5.410   2.983 -1.7267 -1.8989 -0.7241
 5666SOL    HW217898   5.209   5.550   2.901  1.8577 -0.1261  1.5069
 5667SOL     OW17899   3.930   1.867   0.185 -0.6128 -0.0105 -0.1449
 5667SOL    HW117900   3.916   1.944   0.122  0.3484 -1.8693 -2.8399
 5667SOL    HW217901   4.025   1.868   0.218 -0.5655 -0.1163 -0.2787
 5668SOL     OW17902   5.264   6.627   5.980  0.2501  0.2867  0.7135
 5668SOL    HW117903   5.230   6.603   5.889 -0.2350 -0.1316  1.0008
 5668SOL    HW217904   5.363   6.642   5.975  0.2215  0.3050  0.1094
 5669SOL     OW17905   0.558   2.188   2.992  0.0068 -0.7656  0.6882
 5669SOL    HW117906   0.523   2.204   3.085 -0.5603  0.0740  0.3516
 5669SOL    HW217907   0.536   2.095   2.963 -0.7155 -0.7070  1.0252
 5670SOL     OW17908   1.313   2.165   1.622  0.4008  0.8090 -0.1375
 5670SOL    HW117909   1.241   2.229   1.648 -0.9729 -0.9979  0.7520
 5670SOL    HW217910   1.314   2.154   1.522 -2.7959 -1.4461 -0.0754
 5671SOL     OW17911   6.689   2.668   6.437 -0.5189  0.1004 -0.2713
 5671SOL    HW117912   6.722   2.702   6.349 -0.4913 -0.9723 -0.6881
 5671SOL    HW217913   6.611   2.609   6.423  0.2280 -1.0575  0.3061
 5672SOL     OW17914   6.454   0.035   4.400  0.7292 -0.1201  0.1572
 5672SOL    HW117915   6.397   0.115   4.416  2.2074  0.7392  1.3816
 5672SOL    HW217916   6.467   0.023   4.302 -0.5670  0.3699 -0.0881
 5673SOL     OW17917   4.028   5.437   4.906 -0.6512  0.1534  0.3521
 5673SOL    HW117918   3.931   5.446   4.928 -0.2968 -0.3050  2.2703
 5673SOL    HW217919   4.082   5.490   4.971  0.4097  0.3112 -0.6235
 5674SOL     OW17920   5.754   0.624   1.439 -0.4222 -0.4531 -0.2981
 5674SOL    HW117921   5.739   0.643   1.536  0.2092  4.1643 -0.9022
 5674SOL    HW217922   5.702   0.542   1.413 -1.2094 -1.4400  3.6825
 5675SOL     OW17923   4.469   6.216   4.884 -0.1517  0.0083 -1.0316
 5675SOL    HW117924   4.435   6.186   4.973  1.8011 -1.5843 -0.7486
 5675SOL    HW217925   4.449   6.313   4.871 -0.2260  0.3465  1.2786
 5676SOL     OW17926   1.235   0.506   2.473 -0.1580 -0.7786 -0.2402
 5676SOL    HW117927   1.172   0.583   2.486 -1.4676 -1.8073 -0.2927
 5676SOL    HW217928   1.273   0.510   2.381  0.8985  0.5818  0.2259
 5677SOL     OW17929   1.106   6.415   6.066 -0.3290  0.0737  0.0355
 5677SOL    HW117930   1.046   6.414   5.986 -1.1023 -0.9381  0.5953
 5677SOL    HW217931   1.102   6.505   6.110 -2.4062 -0.3068  0.7437
 5678SOL     OW17932   4.724   0.055   3.286 -0.1490 -0.0818 -0.0275
 5678SOL    HW117933   4.648   0.005   3.244 -0.5068 -1.5197  2.2100
 5678SOL    HW217934   4.807  -0.001   3.283  0.0519  0.1893  0.3955
 5679SOL     OW17935   5.717   5.598   6.873 -0.0546 -0.1020  0.1215
 5679SOL    HW117936   5.705   5.616   6.775 -0.2511  1.2333  0.3734
 5679SOL    HW217937   5.688   5.505   6.893  1.6388 -1.0107 -1.3799
 5680SOL     OW17938   2.294   7.007   6.609  0.7224  0.0956  0.0561
 5680SOL    HW117939   2.250   6.917   6.603 -0.2879  0.4840  1.1305
 5680SOL    HW217940   2.389   6.997   6.638 -0.5463 -0.5406  5.0565
 5681SOL     OW17941   5.683   2.723   3.591 -0.2859  0.6457  0.0853
 5681SOL    HW117942   5.676   2.654   3.663 -0.3373  0.1211 -0.4094
 5681SOL    HW217943   5.591   2.757   3.569 -0.4566 -0.3230 -0.7894
 5682SOL     OW17944   3.399   4.125   4.446 -0.5849  0.1732 -0.0652
 5682SOL    HW117945   3.318   4.084   4.487 -0.8093 -1.9075 -2.3443
 5682SOL    HW217946   3.479   4.106   4.503 -1.2979 -0.0303  0.8865
 5683SOL     OW17947   2.175   2.188   2.964 -0.5751  0.1377  0.0675
 5683SOL    HW117948   2.274   2.190   2.955 -0.4185 -0.2085  1.4594
 5683SOL    HW217949   2.147   2.246   3.042 -1.4251 -0.0518 -0.0834
 5684SOL     OW17950   2.938   1.610   5.199  0.2115  0.5421  0.0424
 5684SOL    HW117951   2.926   1.680   5.270  0.6835 -0.3627  1.0387
 5684SOL    HW217952   2.848   1.585   5.162 -0.0141  1.2328  0.0998
 5685SOL     OW17953   3.631   6.691   1.577  0.8011 -0.2325  0.0245
 5685SOL    HW117954   3.618   6.694   1.676 -0.8582 -1.8865 -0.0812
 5685SOL    HW217955   3.549   6.725   1.531  1.5414  0.4930 -0.7989
 5686SOL     OW17956   4.633   6.421   3.019  0.0167 -0.0817  0.0736
 5686SOL    HW117957   4.667   6.507   3.056 -1.2060  0.4033  0.1168
 5686SOL    HW217958   4.562   6.440   2.951  1.2526 -1.0041 -1.5215
 5687SOL     OW17959   6.281   5.551   2.209 -0.6980  0.3850 -0.3907
 5687SOL    HW117960   6.196   5.604   2.215 -0.9861 -0.0641 -0.4889
 5687SOL    HW217961   6.260   5.454   2.215 -0.1041  0.2977  0.5245
 5688SOL     OW17962   6.135   1.623   2.463  0.3008 -0.2989  0.1510
 5688SOL    HW117963   6.060   1.569   2.425 -0.5834  0.4322  0.8123
 5688SOL    HW217964   6.098   1.694   2.523  1.5385 -0.0331  0.6288
 5689SOL     OW17965   4.055   3.757   2.886  0.2140 -0.5549  0.2874
 5689SOL    HW117966   4.069   3.665   2.920 -2.7008 -0.4084  2.1933
 5689SOL    HW217967   4.066   3.758   2.786 -2.8481 -3.7579 -0.2667
 5690SOL     OW17968   0.456   0.873   2.686 -0.0467 -0.5884  0.5031
 5690SOL    HW117969   0.449   0.844   2.781 -2.2476 -0.3818  0.4591
 5690SOL    HW217970   0.392   0.820   2.630 -1.2185  1.4712 -0.2598
 5691SOL     OW17971   1.906   2.078   4.572  0.1762  0.1318  0.5222
 5691SOL    HW117972   1.854   2.065   4.487  1.6630 -0.5325 -0.3306
 5691SOL    HW217973   1.924   2.176   4.585  0.3114  0.2069 -0.1681
 5692SOL     OW17974   4.279   3.614   6.422  0.3597 -0.2443 -0.3231
 5692SOL    HW117975   4.264   3.685   6.491  1.9029  0.1185 -0.3371
 5692SOL    HW217976   4.190   3.580   6.390 -0.4456  1.9431 -0.6080
 5693SOL     OW17977   1.896   6.410   5.456 -0.1445 -0.6434 -0.1328
 5693SOL    HW117978   1.840   6.409   5.373 -0.5773  3.7940 -0.1701
 5693SOL    HW217979   1.980   6.462   5.438 -0.5769  1.0893  2.2690
 5694SOL     OW17980   2.879   3.744   1.280  0.3718 -0.2059 -0.2459
 5694SOL    HW117981   2.842   3.820   1.333  0.1303 -0.7829  0.4217
 5694SOL    HW217982   2.979   3.746   1.284  0.4116  0.7945 -1.2652
 5695SOL     OW17983   3.553   1.496   5.945 -0.5939 -0.2087 -0.1915
 5695SOL    HW117984   3.483   1.505   6.016  0.1206 -0.9889  0.6399
 5695SOL    HW217985   3.610   1.577   5.945  1.2136 -1.3491  2.1812
 5696SOL     OW17986   0.343   1.089   5.149  0.1283 -0.4817  0.4426
 5696SOL    HW117987   0.297   1.131   5.226 -0.7682  0.4473 -0.5627
 5696SOL    HW217988   0.289   1.011   5.116 -0.8004  0.5976 -0.7257
 5697SOL     OW17989   5.293   2.335   0.340  0.0159 -0.1607  0.5238
 5697SOL    HW117990   5.382   2.369   0.312  0.0118 -0.2371  0.4182
 5697SOL    HW217991   5.301   2.288   0.428 -0.0982  0.6946  0.9990
 5698SOL     OW17992   5.482   6.657   4.640 -0.7568  0.4454  0.0734
 5698SOL    HW117993   5.398   6.693   4.680  0.4316  1.8284  1.4487
 5698SOL    HW217994   5.555   6.659   4.709  0.1514 -1.7798 -0.7292
 5699SOL     OW17995   2.772   0.886   3.845 -0.4761  0.4731 -0.1097
 5699SOL    HW117996   2.819   0.933   3.770 -1.4131 -1.4696 -2.0311
 5699SOL    HW217997   2.705   0.823   3.807 -1.7636  0.1775  2.4484
 5700SOL     OW17998   6.825   3.054   1.909 -0.5177 -0.4605 -0.0335
 5700SOL    HW117999   6.756   3.088   1.846 -1.0793 -0.9604  0.2909
 5700SOL    HW218000   6.838   2.956   1.895  1.5869 -0.0457 -1.4394
 5701SOL     OW18001   6.994   5.865   1.803 -0.3439 -0.6023 -0.2549
 5701SOL    HW118002   6.945   5.875   1.716 -1.2962  0.4297  0.3771
 5701SOL    HW218003   7.090   5.844   1.784  0.2259  2.6174 -1.6972
 5702SOL     OW18004   5.441   1.775   6.277  0.0719 -0.2026 -0.3863
 5702SOL    HW118005   5.448   1.681   6.310 -3.0690 -0.2291  0.5220
 5702SOL    HW218006   5.447   1.839   6.353  1.0109  0.3064 -0.8600
 5703SOL     OW18007   4.453   6.607   1.212 -0.5516 -0.0847 -0.3379
 5703SOL    HW118008   4.532   6.555   1.179  0.4560  1.7180 -0.9388
 5703SOL    HW218009   4.370   6.553   1.202  0.3177 -1.2119 -1.8291
 5704SOL     OW18010   1.775   5.989   0.300  0.5178 -0.4692  0.1354
 5704SOL    HW118011   1.694   5.998   0.242  0.7150 -0.0569 -0.0768
 5704SOL    HW218012   1.847   5.941   0.250  0.7914  0.1470 -0.0710
 5705SOL     OW18013   3.550   6.117   0.298  0.0989  0.2381 -0.4286
 5705SOL    HW118014   3.585   6.211   0.288  1.2102  0.0200  1.1388
 5705SOL    HW218015   3.488   6.097   0.222  0.2044  2.0745 -1.0556
 5706SOL     OW18016   5.942   3.946   5.883  0.0749 -0.3729 -0.4434
 5706SOL    HW118017   5.857   3.967   5.930  1.2756  0.4646  1.4835
 5706SOL    HW218018   5.956   3.847   5.880 -1.2704 -0.5652 -1.4470
 5707SOL     OW18019   2.851   4.349   0.718  0.2880 -0.1430  0.3815
 5707SOL    HW118020   2.835   4.281   0.647 -0.3544 -0.3547  0.7247
 5707SOL    HW218021   2.892   4.306   0.798  2.1311  0.2912 -0.2685
 5708SOL     OW18022   5.068   6.382   5.524 -0.4353  0.7162  0.5165
 5708SOL    HW118023   5.080   6.321   5.445  0.1888  1.2025  0.2349
 5708SOL    HW218024   4.971   6.386   5.547 -0.8291  1.6960 -1.1445
 5709SOL     OW18025   0.847   2.684   5.715 -0.4927  0.1577  0.0589
 5709SOL    HW118026   0.936   2.683   5.671 -0.6718 -1.5536 -0.3366
 5709SOL    HW218027   0.854   2.731   5.804  1.2860 -1.6921  0.9654
 5710SOL     OW18028   3.433   2.892   3.283 -0.4990  0.0552 -0.0898
 5710SOL    HW118029   3.518   2.916   3.236 -0.5322  0.7778  0.2085
 5710SOL    HW218030   3.358   2.891   3.217 -0.5945  1.3492 -0.0141
 5711SOL     OW18031   1.791   6.374   3.220 -0.7514 -0.0307  0.5048
 5711SOL    HW118032   1.719   6.434   3.254  0.1503  1.5925 -0.3148
 5711SOL    HW218033   1.881   6.411   3.245 -0.1661 -1.0067 -0.0636
 5712SOL     OW18034   6.384   4.011   4.396 -0.0204  0.5374  0.2984
 5712SOL    HW118035   6.364   3.956   4.477 -0.5350  1.4501  0.8050
 5712SOL    HW218036   6.408   3.951   4.320  1.2457 -0.3229  1.3185
 5713SOL     OW18037   6.308   2.489   3.662 -0.1841  0.0577 -0.2505
 5713SOL    HW118038   6.230   2.539   3.698  0.7737  0.6472  1.0566
 5713SOL    HW218039   6.339   2.422   3.729  1.3971  0.9012 -0.1055
 5714SOL     OW18040   4.365   5.039   2.148  0.0466 -0.0437  0.0533
 5714SOL    HW118041   4.440   4.974   2.149  0.7405  0.7508  0.2137
 5714SOL    HW218042   4.401   5.132   2.141 -0.9117  0.3527  0.2383
 5715SOL     OW18043   5.319   1.220   1.645 -0.3250 -0.7283  0.3284
 5715SOL    HW118044   5.368   1.211   1.731 -1.7981 -1.1011  1.1651
 5715SOL    HW218045   5.331   1.137   1.591  0.4165 -0.5865  0.2683
 5716SOL     OW18046   5.752   4.791   4.379 -0.2877  0.2216  0.2664
 5716SOL    HW118047   5.693   4.827   4.451  1.3365  2.9318  0.3852
 5716SOL    HW218048   5.847   4.799   4.407  0.3531  0.5668 -1.8189
 5717SOL     OW18049   0.006   5.485   1.859  0.6391  0.5264  0.3923
 5717SOL    HW118050  -0.036   5.405   1.816  2.1318  0.5356 -1.1946
 5717SOL    HW218051  -0.064   5.536   1.910 -1.1569  0.2354 -1.6091
 5718SOL     OW18052   4.688   6.493   5.830 -0.0050 -0.2019 -0.1530
 5718SOL    HW118053   4.705   6.507   5.928 -0.6360 -0.4417 -0.0053
 5718SOL    HW218054   4.717   6.401   5.804  0.2183 -0.1172 -0.2078
 5719SOL     OW18055   1.651   2.639   1.200 -0.2592 -0.5290 -0.3038
 5719SOL    HW118056   1.573   2.652   1.261 -0.4617  2.4133 -1.0510
 5719SOL    HW218057   1.735   2.666   1.247  0.0187 -1.3921 -0.2895
 5720SOL     OW18058   2.376   0.942   1.337  0.3720 -0.3408  0.0988
 5720SOL    HW118059   2.351   0.882   1.413 -0.9737  0.9286  0.7021
 5720SOL    HW218060   2.314   0.926   1.261 -1.7931  2.0922  1.2269
 5721SOL     OW18061   5.529   2.367   2.633  0.4077 -0.8705 -0.3377
 5721SOL    HW118062   5.605   2.306   2.611  0.1018 -0.8658 -1.4716
 5721SOL    HW218063   5.526   2.381   2.731  1.4035 -1.4814 -0.1982
 5722SOL     OW18064   1.156   0.828   4.910  0.0305  0.4802 -0.1579
 5722SOL    HW118065   1.092   0.760   4.875  0.0083  0.3644  0.1009
 5722SOL    HW218066   1.106   0.901   4.956  0.0768  0.4493 -0.0576
 5723SOL     OW18067   3.898   4.762   5.915 -0.1336  0.2064 -0.0847
 5723SOL    HW118068   3.956   4.756   5.995  0.0391  0.4050 -0.1938
 5723SOL    HW218069   3.941   4.715   5.838 -0.5628 -0.4828  0.0882
 5724SOL     OW18070   3.709   6.200   5.236  0.0235 -0.0177  1.1838
 5724SOL    HW118071   3.701   6.280   5.177  0.3339 -0.1836  0.9138
 5724SOL    HW218072   3.637   6.203   5.306  0.4494  0.8489  1.6016
 5725SOL     OW18073   2.607   1.268   1.676 -0.0607 -0.1099 -0.5286
 5725SOL    HW118074   2.647   1.256   1.767 -0.8375 -2.5275 -0.4456
 5725SOL    HW218075   2.672   1.239   1.606 -0.5709 -1.3025 -0.5383
 5726SOL     OW18076   3.175   4.534   0.486  0.3435  0.3868 -0.6460
 5726SOL    HW118077   3.196   4.439   0.463 -0.6833  0.1256 -0.5482
 5726SOL    HW218078   3.142   4.538   0.581 -1.5317  0.5267 -1.2645
 5727SOL     OW18079   1.403   5.585   1.009 -0.3293  1.0148 -0.3612
 5727SOL    HW118080   1.502   5.567   1.005 -0.6120 -0.5619 -1.5359
 5727SOL    HW218081   1.361   5.520   1.071 -0.6349  1.7330  0.1920
 5728SOL     OW18082   6.249   3.937   0.734  0.0483 -0.6610 -0.5996
 5728SOL    HW118083   6.336   3.895   0.760  0.6019  2.1857  2.9577
 5728SOL    HW218084   6.263   3.994   0.653  1.6733  0.1083  0.1675
 5729SOL     OW18085   0.650   0.323   5.949  0.0539  0.7120 -0.6701
 5729SOL    HW118086   0.728   0.367   5.905 -1.6970  1.9627 -2.7558
 5729SOL    HW218087   0.572   0.322   5.886 -1.3255 -1.5131  0.8861
 5730SOL     OW18088   3.685   5.439   5.374  0.1058 -0.4006 -0.2234
 5730SOL    HW118089   3.607   5.495   5.402 -0.1553 -0.5804 -0.5748
 5730SOL    HW218090   3.745   5.424   5.452 -0.3415 -0.4646  0.1185
 5731SOL     OW18091   2.264   4.341   0.699 -0.3110 -0.5542  0.6746
 5731SOL    HW118092   2.209   4.380   0.773 -0.9400 -3.5744  1.9571
 5731SOL    HW218093   2.203   4.298   0.632  0.3555 -1.0126  0.3560
 5732SOL     OW18094   6.481   6.370   6.778  0.6365 -0.3865 -0.1646
 5732SOL    HW118095   6.439   6.363   6.687 -0.8885 -0.6725  0.5276
 5732SOL    HW218096   6.487   6.279   6.819  0.4824 -0.1512  0.3821
 5733SOL     OW18097   6.715   1.373   7.011  0.5782 -0.8667  0.6584
 5733SOL    HW118098   6.677   1.438   6.945  0.9480  1.9226  2.9901
 5733SOL    HW218099   6.639   1.325   7.056  0.2474 -1.3591 -0.3894
 5734SOL     OW18100   4.238   2.017   5.808  0.1327  0.0397  0.5707
 5734SOL    HW118101   4.267   2.068   5.727  1.2895 -1.1973  0.1760
 5734SOL    HW218102   4.144   1.985   5.796  0.7805 -1.4225 -0.9810
 5735SOL     OW18103   4.098   1.025   1.014  0.1130 -0.1275 -0.2912
 5735SOL    HW118104   4.142   1.066   1.094 -0.1831  0.4180 -0.4022
 5735SOL    HW218105   4.010   0.986   1.041  0.4369 -0.7842 -0.1668
 5736SOL     OW18106   6.750   6.674   0.786 -0.1597  0.4074 -0.3476
 5736SOL    HW118107   6.707   6.756   0.748  0.0787 -0.6533 -3.1623
 5736SOL    HW218108   6.692   6.594   0.768  0.3134 -0.2697  0.9871
 5737SOL     OW18109   0.386   0.327   6.753  0.3237  0.2676 -0.0784
 5737SOL    HW118110   0.370   0.321   6.654 -0.2337  1.3343 -0.0566
 5737SOL    HW218111   0.467   0.382   6.770  0.8850 -0.5735  0.0427
 5738SOL     OW18112   1.106   1.707   0.709  0.4728 -0.8303 -0.3508
 5738SOL    HW118113   1.113   1.643   0.633  0.6198 -0.0196 -1.0396
 5738SOL    HW218114   1.190   1.763   0.714  1.4572 -2.3373  1.7907
 5739SOL     OW18115   2.399   0.282   1.470  0.2070 -0.6553  0.6698
 5739SOL    HW118116   2.332   0.209   1.457 -0.4946  0.1138 -0.1772
 5739SOL    HW218117   2.354   0.371   1.457  0.8302 -0.0069  2.5191
 5740SOL     OW18118   0.405   5.685   1.252  0.3645  0.3865  0.4723
 5740SOL    HW118119   0.429   5.775   1.287 -0.8972  0.3856  1.4062
 5740SOL    HW218120   0.446   5.614   1.309  0.6521  0.3659  0.2440
 5741SOL     OW18121   5.365   1.968   6.094 -0.4249 -0.0752  0.3797
 5741SOL    HW118122   5.394   1.889   6.147 -0.1076 -0.8241 -0.8719
 5741SOL    HW218123   5.277   1.949   6.051  0.0565 -0.0831 -0.6163
 5742SOL     OW18124   1.628   6.710   5.012  0.4698 -0.2272 -0.2176
 5742SOL    HW118125   1.535   6.688   4.983  0.8449 -2.0833 -0.1098
 5742SOL    HW218126   1.625   6.760   5.099 -0.4282  0.0102 -0.3816
 5743SOL     OW18127   3.989   3.168   5.626 -0.0343  0.1636  0.4079
 5743SOL    HW118128   3.997   3.116   5.541  0.2322  0.3087  0.3423
 5743SOL    HW218129   4.070   3.226   5.637  0.1148 -0.1379  0.9500
 5744SOL     OW18130   0.457   1.192   0.086 -0.2908 -0.1708  0.0021
 5744SOL    HW118131   0.384   1.124   0.090  0.1739 -0.8959 -2.2546
 5744SOL    HW218132   0.418   1.282   0.068 -0.6890 -0.4392 -0.5137
 5745SOL     OW18133   1.596   2.701   3.732 -0.2565 -0.0471 -0.1623
 5745SOL    HW118134   1.669   2.744   3.678  1.6249 -1.7270  0.9198
 5745SOL    HW218135   1.636   2.643   3.802 -2.6462  0.7209  2.0043
 5746SOL     OW18136   3.670   5.397   2.762 -0.3167 -0.7334 -0.1677
 5746SOL    HW118137   3.725   5.330   2.713  0.9436  0.1754 -0.0434
 5746SOL    HW218138   3.712   5.417   2.850 -1.9162 -1.4621  0.8227
 5747SOL     OW18139   6.051   3.851   1.957  0.0587  0.6425 -1.1420
 5747SOL    HW118140   6.141   3.885   1.982  0.5244 -0.0541 -1.8200
 5747SOL    HW218141   6.037   3.761   1.999 -0.5007  0.9335 -0.6899
 5748SOL     OW18142   0.051   1.531   2.754 -0.0337 -0.2292  0.2703
 5748SOL    HW118143   0.078   1.541   2.849 -0.3061 -1.2427  0.4676
 5748SOL    HW218144   0.070   1.437   2.723 -1.8064 -0.5331 -0.0437
 5749SOL     OW18145   0.162   1.419   6.236 -0.2047 -0.4009 -0.3504
 5749SOL    HW118146   0.109   1.393   6.317 -0.5549  2.4944  0.4996
 5749SOL    HW218147   0.099   1.440   6.161 -0.3287  2.0950  0.3610
 5750SOL     OW18148   6.090   4.826   4.074 -0.3888  0.4890  0.2903
 5750SOL    HW118149   6.111   4.869   3.986  1.3156  0.5029  0.6733
 5750SOL    HW218150   6.001   4.780   4.068  0.2309 -0.5998 -1.8633
 5751SOL     OW18151   3.035   5.436   1.511 -0.5716 -0.1685 -0.1352
 5751SOL    HW118152   3.044   5.523   1.559  0.0959  0.2553 -0.9962
 5751SOL    HW218153   3.017   5.453   1.414  0.3343 -0.9614 -0.4591
 5752SOL     OW18154   4.732   0.497   0.579  0.2794  0.5587  0.2279
 5752SOL    HW118155   4.718   0.596   0.577  0.5450  0.5903 -0.4958
 5752SOL    HW218156   4.666   0.455   0.641  0.8790  1.2913  1.3813
 5753SOL     OW18157   2.997   5.159   2.476  0.6772  0.2291  0.2684
 5753SOL    HW118158   2.972   5.139   2.382  0.2400  0.2558  0.3769
 5753SOL    HW218159   3.090   5.198   2.479  0.4237  0.8909 -0.2255
 5754SOL     OW18160   6.886   3.915   3.397  0.1452  0.0258  0.0967
 5754SOL    HW118161   6.872   4.013   3.411  2.2643  0.2539  0.9925
 5754SOL    HW218162   6.911   3.872   3.483  1.5810 -0.8511 -0.7142
 5755SOL     OW18163   0.786   1.944   2.105  0.5383 -0.0229  0.1228
 5755SOL    HW118164   0.872   1.952   2.056  0.5768 -0.5407  0.0980
 5755SOL    HW218165   0.716   2.000   2.061  0.5728 -0.4786 -0.5179
 5756SOL     OW18166   0.881   1.768   4.848  0.0801  0.3798 -0.2435
 5756SOL    HW118167   0.963   1.720   4.820  0.4737 -0.3735  2.0403
 5756SOL    HW218168   0.864   1.845   4.786  2.0230  0.0538 -1.2269
 5757SOL     OW18169   1.474   5.392   3.875  0.4032  0.4624  0.3149
 5757SOL    HW118170   1.548   5.332   3.846 -0.0065 -0.2744  0.7442
 5757SOL    HW218171   1.486   5.483   3.835  0.6699 -0.0884 -0.9069
 5758SOL     OW18172   0.552   5.252   6.207  0.1155 -0.2639 -0.2804
 5758SOL    HW118173   0.526   5.324   6.272  1.0511  2.0795 -2.3313
 5758SOL    HW218174   0.471   5.199   6.182 -0.4975 -0.3491  1.7156
 5759SOL     OW18175   1.504   1.923   2.404 -0.4002 -0.1507 -0.2903
 5759SOL    HW118176   1.603   1.925   2.398 -0.4142  2.1413 -0.8248
 5759SOL    HW218177   1.476   1.919   2.500  0.1569 -2.3448 -0.1810
 5760SOL     OW18178   0.269   6.780   4.061 -0.4217 -0.0698  0.6687
 5760SOL    HW118179   0.310   6.748   4.147 -0.1595 -0.7942  0.2830
 5760SOL    HW218180   0.246   6.702   4.004 -1.2265  0.3787  0.3521
 5761SOL     OW18181   5.850   2.017   2.758 -0.2590  0.2281  0.1115
 5761SOL    HW118182   5.908   2.058   2.687  0.8297 -1.2582  0.1150
 5761SOL    HW218183   5.754   2.031   2.734  0.0884  0.3662 -1.2992
 5762SOL     OW18184   0.160   4.882   0.401 -0.7865 -0.3310  0.2432
 5762SOL    HW118185   0.153   4.784   0.386  0.3573 -0.2957 -0.6113
 5762SOL    HW218186   0.246   4.903   0.447 -0.7637  0.3146 -0.0766
 5763SOL     OW18187   6.091   6.807   2.192 -0.3276  0.1627  0.2239
 5763SOL    HW118188   6.057   6.762   2.275 -0.7961 -1.2506 -0.7030
 5763SOL    HW218189   6.020   6.866   2.154 -0.4316  0.0994  0.3205
 5764SOL     OW18190   4.883   5.874   0.735  0.3268  0.7409 -0.2665
 5764SOL    HW118191   4.804   5.863   0.795  0.9220  0.6271  0.5236
 5764SOL    HW218192   4.938   5.951   0.767 -0.5082  2.1252 -2.0154
 5765SOL     OW18193   6.428   6.051   4.438  0.7572 -0.3485  0.0848
 5765SOL    HW118194   6.329   6.051   4.428  0.5079  2.4624  1.3438
 5765SOL    HW218195   6.452   6.043   4.535  1.6972 -0.0187 -0.1072
 5766SOL     OW18196   3.533   5.391   0.968  0.6685  0.0947  0.3250
 5766SOL    HW118197   3.456   5.454   0.981  0.8241  0.0880  1.3374
 5766SOL    HW218198   3.595   5.429   0.899  0.1704  0.4917  0.0884
 5767SOL     OW18199   3.425   6.900   1.794  0.0257 -0.1499 -0.3571
 5767SOL    HW118200   3.389   6.884   1.886 -1.4855 -1.9894 -1.2149
 5767SOL    HW218201   3.350   6.894   1.727  0.8520  2.3869 -1.6495
 5768SOL     OW18202   6.752   4.075   0.536 -0.3305  0.0598  0.3816
 5768SOL    HW118203   6.716   4.153   0.587 -1.3655  0.2026 -0.5304
 5768SOL    HW218204   6.829   4.104   0.479  0.4250  0.0282  1.3655
 5769SOL     OW18205   1.794   6.867   4.848 -0.1951  0.0388  0.9598
 5769SOL    HW118206   1.759   6.819   4.928 -0.3993 -1.8706 -0.2067
 5769SOL    HW218207   1.819   6.961   4.873 -1.7213  0.0039  2.8784
 5770SOL     OW18208   2.729   1.002   1.718  0.1662 -0.2185 -0.1441
 5770SOL    HW118209   2.698   1.070   1.785 -0.7718 -0.6926 -0.0781
 5770SOL    HW218210   2.829   1.004   1.712  0.1669  0.9790  0.0425
 5771SOL     OW18211   0.020   3.322   1.400 -0.0341  0.3344 -0.0343
 5771SOL    HW118212   0.100   3.381   1.413  0.4638 -0.6846  2.1451
 5771SOL    HW218213   0.044   3.246   1.340  0.9870 -0.4615  1.3154
 5772SOL     OW18214   0.448   3.191   1.335  0.1755 -0.2909  0.6715
 5772SOL    HW118215   0.424   3.167   1.241  1.5425 -0.2818  0.3045
 5772SOL    HW218216   0.464   3.108   1.388 -1.3626 -0.3297  1.1443
 5773SOL     OW18217   0.728   1.667   3.939 -0.3949 -0.9630 -0.0940
 5773SOL    HW118218   0.784   1.691   4.019  0.7829  0.2066 -1.2175
 5773SOL    HW218219   0.653   1.608   3.968 -0.7629  0.4528  2.1020
 5774SOL     OW18220   3.135   6.579   0.735 -0.8157  0.5306 -0.2848
 5774SOL    HW118221   3.081   6.495   0.743 -0.3540  0.2080 -0.5269
 5774SOL    HW218222   3.081   6.656   0.768 -0.8868  0.0072  0.8663
 5775SOL     OW18223   5.830   6.452   5.376  0.2637 -0.3658 -0.5149
 5775SOL    HW118224   5.928   6.475   5.380  0.1070  0.2717 -0.0855
 5775SOL    HW218225   5.776   6.537   5.380 -0.2895 -0.5913 -2.4036
 5776SOL     OW18226   5.382   3.185   3.653 -0.1522  0.1363  0.5434
 5776SOL    HW118227   5.307   3.238   3.613 -1.2584 -1.0585  0.9726
 5776SOL    HW218228   5.359   3.158   3.746  1.0174  0.1331  0.8505
 5777SOL     OW18229   3.259   0.267   6.812  0.2283 -0.0987 -0.3758
 5777SOL    HW118230   3.279   0.354   6.857 -0.6660  0.1348 -0.3962
 5777SOL    HW218231   3.273   0.277   6.714  1.5994 -0.4326 -0.2273
 5778SOL     OW18232   3.231   4.008   6.995  0.3763  0.8579 -0.6420
 5778SOL    HW118233   3.241   3.908   6.990  0.1217  0.8225 -0.4265
 5778SOL    HW218234   3.289   4.044   7.067 -0.6655  0.7021  0.2976
 5779SOL     OW18235   6.417   0.273   2.024  0.1960  1.0044 -0.0202
 5779SOL    HW118236   6.396   0.210   1.949  1.4124  0.8882 -0.2812
 5779SOL    HW218237   6.503   0.246   2.067 -0.6125  0.9137  1.6083
 5780SOL     OW18238   6.052   6.299   4.441  0.6124 -0.0850  0.0306
 5780SOL    HW118239   6.116   6.359   4.393  0.6562 -0.9570 -1.0461
 5780SOL    HW218240   6.015   6.347   4.521  1.0774  1.1563 -0.4663
 5781SOL     OW18241   5.581   0.219   3.644 -0.2541 -0.7584 -0.5309
 5781SOL    HW118242   5.517   0.295   3.632 -1.2415 -1.3506  0.7656
 5781SOL    HW218243   5.556   0.167   3.725  2.6512 -0.2764  0.7983
 5782SOL     OW18244   6.885   4.463   2.854 -0.0753  0.1532  0.0930
 5782SOL    HW118245   6.978   4.476   2.821 -0.2183  1.6873  0.2226
 5782SOL    HW218246   6.834   4.407   2.788  0.4314  0.8374 -0.9135
 5783SOL     OW18247   7.003   2.377   3.032 -0.2363  0.2765  0.4614
 5783SOL    HW118248   7.101   2.383   3.019 -0.3927 -0.0947 -1.1325
 5783SOL    HW218249   6.983   2.309   3.103  0.6112 -1.9928 -1.3433
 5784SOL     OW18250   2.986   1.104   1.720 -0.1796  0.6020 -0.2313
 5784SOL    HW118251   3.034   1.153   1.648 -1.8966  0.7135 -1.3546
 5784SOL    HW218252   3.023   1.132   1.809 -0.1621  2.9040 -0.8950
 5785SOL     OW18253   4.922   6.435   1.005  0.1055 -0.5240 -0.4485
 5785SOL    HW118254   4.911   6.531   0.982  1.6366  0.0462  0.9896
 5785SOL    HW218255   5.004   6.423   1.061 -0.8501 -2.4358  0.6647
 5786SOL     OW18256   4.385   5.977   3.163  0.2101 -0.4806 -0.6102
 5786SOL    HW118257   4.422   5.920   3.090  0.6729 -1.4906  0.3867
 5786SOL    HW218258   4.456   5.992   3.233 -0.9992 -1.8147  0.9602
 5787SOL     OW18259   3.282   0.906   6.090  0.5121  0.2922 -0.8459
 5787SOL    HW118260   3.343   0.898   6.012  0.8768 -0.8889 -0.4641
 5787SOL    HW218261   3.191   0.932   6.059  0.8205  0.5161 -1.5815
 5788SOL     OW18262   2.429   2.666   3.502 -0.7238  0.1798  0.0307
 5788SOL    HW118263   2.373   2.596   3.458 -1.1346 -1.0650  2.4031
 5788SOL    HW218264   2.408   2.755   3.461 -0.6201 -0.9209 -2.6442
 5789SOL     OW18265   5.073   2.938   6.350 -0.5023  0.0166  0.3824
 5789SOL    HW118266   5.148   2.920   6.286 -0.0318  1.2648  0.5589
 5789SOL    HW218267   5.030   3.026   6.328  0.5070  1.1281  2.5160
 5790SOL     OW18268   5.101   4.397   2.852 -0.0633 -0.3144 -0.3946
 5790SOL    HW118269   5.016   4.449   2.855  0.1871  0.1848 -1.5051
 5790SOL    HW218270   5.106   4.338   2.933 -2.1059 -1.3788 -0.9589
 5791SOL     OW18271   4.360   1.008   3.119  0.0372 -0.6328 -0.0487
 5791SOL    HW118272   4.447   1.016   3.070  0.1866 -0.0945  0.2952
 5791SOL    HW218273   4.315   0.922   3.093  1.0730 -1.3351  0.4002
 5792SOL     OW18274   0.062   2.687   6.885  0.2421 -0.2958 -0.0489
 5792SOL    HW118275  -0.037   2.692   6.867  0.0407 -0.2421  0.9697
 5792SOL    HW218276   0.088   2.592   6.901  0.1158 -0.1985  0.8220
 5793SOL     OW18277   5.341   5.553   6.603  0.4850 -0.7143 -0.8678
 5793SOL    HW118278   5.393   5.575   6.686 -1.1054  0.8048 -0.2273
 5793SOL    HW218279   5.339   5.454   6.591 -0.1705 -1.0525  1.5351
 5794SOL     OW18280   3.917   0.839   4.264  0.0795 -0.4570 -0.2965
 5794SOL    HW118281   3.821   0.815   4.270 -0.1593  0.2237 -1.2877
 5794SOL    HW218282   3.961   0.786   4.192  0.7413 -1.6161  0.9008
 5795SOL     OW18283   2.069   3.461   2.409 -0.4291 -0.2091 -0.3590
 5795SOL    HW118284   2.087   3.541   2.351 -0.5910  0.5966  0.6684
 5795SOL    HW218285   2.101   3.379   2.363  1.0269  0.5994 -0.8520
 5796SOL     OW18286   1.714   6.185   2.479 -0.1768  0.2415  0.3699
 5796SOL    HW118287   1.809   6.216   2.480  0.4226 -1.4849 -0.3636
 5796SOL    HW218288   1.676   6.195   2.387  0.6738 -2.8626 -0.4437
 5797SOL     OW18289   6.852   4.356   5.286 -0.2808  0.1344  0.0992
 5797SOL    HW118290   6.846   4.352   5.187 -0.6750  2.1026 -0.0021
 5797SOL    HW218291   6.760   4.349   5.325 -0.3706  1.4577  0.1774
 5798SOL     OW18292   4.630   4.335   2.847  0.2312  0.7524 -0.0776
 5798SOL    HW118293   4.724   4.367   2.860  0.3228  0.6186 -0.3982
 5798SOL    HW218294   4.599   4.360   2.755  1.0596 -1.9573 -1.1919
 5799SOL     OW18295   4.360   5.578   4.227  0.2375  0.6123 -0.0872
 5799SOL    HW118296   4.458   5.578   4.209  0.2147  1.1932 -0.2131
 5799SOL    HW218297   4.343   5.614   4.319  0.1372  0.5106 -0.0645
 5800SOL     OW18298   6.053   0.466   3.252  0.0929 -0.3969 -0.5773
 5800SOL    HW118299   6.075   0.530   3.178  0.2785 -1.0294 -1.0764
 5800SOL    HW218300   5.954   0.457   3.260 -0.0212  1.4655  0.8185
 5801SOL     OW18301   0.889   2.892   6.807 -0.0053  0.0467 -0.5327
 5801SOL    HW118302   0.955   2.920   6.738  2.7020  1.8110  2.4641
 5801SOL    HW218303   0.919   2.807   6.850 -1.6083 -0.9979 -1.3896
 5802SOL     OW18304   3.577   6.006   5.082 -0.7500 -0.0163  0.1001
 5802SOL    HW118305   3.534   5.927   5.127  1.1943 -0.3970  1.3977
 5802SOL    HW218306   3.625   6.061   5.150  1.1828  0.1339 -1.2963
 5803SOL     OW18307   0.423   3.525   2.657 -0.1993 -0.4346 -0.4080
 5803SOL    HW118308   0.423   3.448   2.722  0.0889  0.3585  0.5682
 5803SOL    HW218309   0.329   3.557   2.645 -0.1295  0.2583  0.6914
 5804SOL     OW18310   5.435   0.406   4.887 -0.5306  0.3069 -0.7184
 5804SOL    HW118311   5.425   0.333   4.954 -1.1777  0.6770 -0.4089
 5804SOL    HW218312   5.532   0.417   4.865 -0.2412  0.5542  0.5792
 5805SOL     OW18313   0.512   0.199   4.751  0.3263  0.7396 -0.5752
 5805SOL    HW118314   0.432   0.212   4.810  2.0571 -1.2477  2.4897
 5805SOL    HW218315   0.584   0.262   4.779  1.1017 -0.0678 -0.7431
 5806SOL     OW18316   4.910   1.142   6.724  0.1619 -0.2638 -0.0317
 5806SOL    HW118317   4.947   1.199   6.797  0.1852 -0.0281 -0.2276
 5806SOL    HW218318   4.904   1.195   6.639 -0.5112 -0.3275 -0.0345
 5807SOL     OW18319   2.660   1.840   1.519  0.2056 -0.5018  0.7792
 5807SOL    HW118320   2.740   1.850   1.577  0.6121 -0.1833  0.1763
 5807SOL    HW218321   2.660   1.749   1.478 -0.5733 -1.0680  1.9797
 5808SOL     OW18322   6.584   2.039   1.963  0.2664 -0.3300 -0.6223
 5808SOL    HW118323   6.611   2.013   2.055 -1.2875 -0.0080 -0.0420
 5808SOL    HW218324   6.654   2.010   1.898  1.1910 -0.9264  0.5992
 5809SOL     OW18325   6.870   1.056   4.356  0.2609  0.6667  0.8587
 5809SOL    HW118326   6.838   1.077   4.449  0.9307 -2.7737  2.0284
 5809SOL    HW218327   6.812   1.103   4.289 -2.4234  0.6358  2.9781
 5810SOL     OW18328   2.993   0.978   1.384 -0.4247 -0.0034 -0.7724
 5810SOL    HW118329   3.047   1.062   1.397  0.4500 -0.5696 -0.6124
 5810SOL    HW218330   2.897   0.997   1.401  0.0958  0.2832  2.5398
 5811SOL     OW18331   1.730   4.115   1.427  0.6268 -0.4440  0.9064
 5811SOL    HW118332   1.630   4.119   1.431  0.5813  1.1410 -0.7367
 5811SOL    HW218333   1.767   4.116   1.520 -0.8188  2.0249  1.5356
 5812SOL     OW18334   5.270   4.350   5.256  0.6636 -1.1302  0.6651
 5812SOL    HW118335   5.369   4.351   5.243  0.6589 -2.8543  0.3550
 5812SOL    HW218336   5.242   4.261   5.292 -1.0640 -1.6036 -1.6573
 5813SOL     OW18337   3.514   3.868   2.079  0.0186 -0.4332  0.5296
 5813SOL    HW118338   3.609   3.884   2.050 -0.2400 -0.0932 -0.1496
 5813SOL    HW218339   3.509   3.781   2.129  0.8284 -0.0569  1.2800
 5814SOL     OW18340   2.149   5.984   2.173 -0.3168 -0.4246  0.4617
 5814SOL    HW118341   2.184   6.036   2.096 -0.6678 -1.5546 -0.4880
 5814SOL    HW218342   2.199   6.009   2.256  0.1081  0.7538 -0.1336
 5815SOL     OW18343   6.945   2.453   2.708  0.7786  0.3313  0.5280
 5815SOL    HW118344   6.852   2.435   2.677  1.1453  0.0892 -0.4696
 5815SOL    HW218345   6.970   2.388   2.779  0.6241 -0.4267 -0.0976
 5816SOL     OW18346   1.555   5.830   1.312  0.1753 -0.9202  0.3353
 5816SOL    HW118347   1.623   5.901   1.294  0.9931 -1.4657  1.1816
 5816SOL    HW218348   1.601   5.745   1.336 -0.7955 -1.6606 -0.3053
 5817SOL     OW18349   1.988   1.116   3.867  0.1561 -0.2492 -0.6106
 5817SOL    HW118350   2.013   1.019   3.866  1.7212  0.1238 -2.0765
 5817SOL    HW218351   2.049   1.166   3.806  0.2521  1.8804  1.1192
 5818SOL     OW18352   5.446   0.825   1.251  0.0027 -1.1973 -0.0532
 5818SOL    HW118353   5.403   0.893   1.193  0.2173  0.6009  1.7972
 5818SOL    HW218354   5.376   0.777   1.304 -0.0216 -1.1176 -0.0123
 5819SOL     OW18355   4.267   3.313   6.528 -0.0149  0.3274  0.1204
 5819SOL    HW118356   4.230   3.234   6.576  0.9144  0.2330  0.6871
 5819SOL    HW218357   4.191   3.372   6.499 -0.6026  0.3127  1.5489
 5820SOL     OW18358   3.410   2.031   1.539 -0.0473 -0.0484  0.1434
 5820SOL    HW118359   3.316   2.065   1.532 -0.2188 -0.3517  0.9187
 5820SOL    HW218360   3.415   1.940   1.499 -0.2100 -0.2596  0.5972
 5821SOL     OW18361   1.715   5.661   5.782  0.1987  0.3190 -0.1683
 5821SOL    HW118362   1.672   5.736   5.733 -1.3668  0.9221  1.9913
 5821SOL    HW218363   1.692   5.666   5.879  0.8358 -2.4217  0.2249
 5822SOL     OW18364   1.215   3.451   1.298  0.2621  0.3990 -0.5870
 5822SOL    HW118365   1.273   3.508   1.357 -0.7523  2.4747 -1.4820
 5822SOL    HW218366   1.138   3.417   1.352 -0.9552  2.7225 -0.7215
 5823SOL     OW18367   1.796   5.485   1.644 -0.3683 -0.2048  0.2375
 5823SOL    HW118368   1.826   5.495   1.739 -0.9581 -1.0366  0.5222
 5823SOL    HW218369   1.823   5.395   1.611  0.5758  0.3880 -0.6742
 5824SOL     OW18370   6.934   6.640   5.307 -0.2905  0.4314  0.0936
 5824SOL    HW118371   6.834   6.641   5.308 -0.3027  1.4756 -0.7869
 5824SOL    HW218372   6.966   6.586   5.229 -0.1177 -1.4078  1.3597
 5825SOL     OW18373   1.569   4.141   3.649 -0.1890  0.3358 -0.7675
 5825SOL    HW118374   1.542   4.046   3.633  1.3806 -0.0547 -1.2796
 5825SOL    HW218375   1.646   4.164   3.589  3.0085  0.2335  2.8953
 5826SOL     OW18376   3.612   0.895   1.584  0.0247 -0.3171 -0.9332
 5826SOL    HW118377   3.623   0.984   1.628 -1.1611 -1.5445  2.0630
 5826SOL    HW218378   3.516   0.885   1.555  0.0370 -0.8093 -0.7970
 5827SOL     OW18379   2.186   5.188   6.512 -0.5563  0.3365  0.4211
 5827SOL    HW118380   2.268   5.243   6.526 -1.2091  1.9008 -1.4098
 5827SOL    HW218381   2.187   5.110   6.574  1.0928  1.6465  2.1606
 5828SOL     OW18382   0.114   1.096   0.764 -0.2991  0.2450  0.5806
 5828SOL    HW118383   0.183   1.167   0.750  0.0747 -0.3670 -0.8270
 5828SOL    HW218384   0.159   1.008   0.777 -0.8037 -0.1605 -0.3668
 5829SOL     OW18385   3.633   5.040   1.924  0.0058  0.4474 -0.0896
 5829SOL    HW118386   3.594   4.953   1.891  0.8559 -0.4810  1.2750
 5829SOL    HW218387   3.717   5.022   1.975 -0.3331  1.9943  1.0870
 5830SOL     OW18388   4.767   5.327   2.318 -0.6247  0.3806 -0.0557
 5830SOL    HW118389   4.707   5.305   2.241 -1.2798 -0.7655  0.7524
 5830SOL    HW218390   4.712   5.358   2.395 -0.2493 -1.0074  0.8088
 5831SOL     OW18391   1.598   2.137   5.325 -0.0703 -0.6866 -0.2477
 5831SOL    HW118392   1.558   2.054   5.363 -0.8652  0.0043  0.4871
 5831SOL    HW218393   1.642   2.189   5.399  0.0929 -0.2766 -0.6315
 5832SOL     OW18394   4.524   0.035   1.219  0.1477 -0.1886 -0.2032
 5832SOL    HW118395   4.534  -0.006   1.310  0.3393 -0.6742 -0.4404
 5832SOL    HW218396   4.581  -0.015   1.153  2.6542  2.1383  0.0032
 5833SOL     OW18397   1.576   2.308   6.399 -0.0471  0.0475 -0.4278
 5833SOL    HW118398   1.653   2.274   6.346 -1.6547 -2.3060 -1.4511
 5833SOL    HW218399   1.580   2.270   6.492 -0.3481 -0.7323 -0.7215
 5834SOL     OW18400   1.144   4.303   6.152  0.3541 -0.2194  0.4135
 5834SOL    HW118401   1.176   4.298   6.247 -0.7037 -2.0162  0.7256
 5834SOL    HW218402   1.054   4.347   6.150  0.3098 -0.3177  0.2653
 5835SOL     OW18403   4.989   4.912   3.900 -0.3395  0.3569 -0.1575
 5835SOL    HW118404   5.083   4.880   3.907  0.3160  2.1520 -0.0916
 5835SOL    HW218405   4.932   4.841   3.860  0.8667 -1.0666  0.5558
 5836SOL     OW18406   1.802   4.131   0.530 -0.6567 -0.2372  0.5204
 5836SOL    HW118407   1.776   4.036   0.510  3.4714 -1.7926  1.4979
 5836SOL    HW218408   1.757   4.161   0.614 -2.1042 -1.2567  0.1532
 5837SOL     OW18409   1.373   3.772   5.027 -0.6628  0.3445  0.6898
 5837SOL    HW118410   1.402   3.844   4.965 -0.6044 -1.1832 -1.1345
 5837SOL    HW218411   1.451   3.740   5.081 -0.5282  1.0944  0.9506
 5838SOL     OW18412   5.712   3.721   0.038 -0.2335  0.2940 -0.1897
 5838SOL    HW118413   5.749   3.629   0.023  1.0994  0.9329 -0.9686
 5838SOL    HW218414   5.744   3.755   0.126 -1.5064 -0.3324  0.5426
 5839SOL     OW18415   4.473   0.571   0.751  0.2517  0.0348 -0.2906
 5839SOL    HW118416   4.491   0.473   0.744  0.7628  0.1974 -1.3872
 5839SOL    HW218417   4.377   0.585   0.777 -0.1557 -0.7433 -1.3260
 5840SOL     OW18418   5.123   5.190   5.786  0.1382 -0.6569 -0.2086
 5840SOL    HW118419   5.034   5.151   5.761  1.0069 -1.9232 -1.5164
 5840SOL    HW218420   5.195   5.125   5.762  1.5036  0.8175 -0.2649
 5841SOL     OW18421   5.518   5.768   0.780  0.3460  0.5788 -0.3304
 5841SOL    HW118422   5.610   5.730   0.786 -0.1339 -0.5532  0.2792
 5841SOL    HW218423   5.463   5.713   0.717 -0.2271  0.5736  0.1682
 5842SOL     OW18424   1.319   2.291   3.069  0.3543 -0.0077 -0.1880
 5842SOL    HW118425   1.372   2.322   2.990 -0.6728  1.5033 -0.3456
 5842SOL    HW218426   1.356   2.333   3.152 -0.6877  1.2683 -0.3300
 5843SOL     OW18427   2.450   3.259   1.608  0.9775 -0.2008 -0.2145
 5843SOL    HW118428   2.504   3.176   1.622 -0.5053 -1.0053  0.9322
 5843SOL    HW218429   2.433   3.303   1.697 -1.4101 -0.7453 -0.3424
 5844SOL     OW18430   0.075   0.856   2.114  0.3904 -0.0659 -0.1185
 5844SOL    HW118431  -0.007   0.870   2.060 -0.4825 -1.1345  0.8578
 5844SOL    HW218432   0.137   0.934   2.103 -0.5111  0.5168 -1.2715
 5845SOL     OW18433   3.310   3.661   1.711  0.0722 -0.2880  0.0096
 5845SOL    HW118434   3.229   3.602   1.721  0.3529 -0.7394 -0.3279
 5845SOL    HW218435   3.389   3.604   1.688  0.5634  0.1101  0.6947
 5846SOL     OW18436   4.751   5.684   1.228 -0.0093 -0.0867 -0.0866
 5846SOL    HW118437   4.850   5.677   1.238  0.0995  0.7650 -0.5003
 5846SOL    HW218438   4.726   5.667   1.133 -0.4480 -2.0511  0.3300
 5847SOL     OW18439   1.315   4.437   2.965 -0.1480 -0.6052 -0.4571
 5847SOL    HW118440   1.294   4.353   2.917  0.9910 -0.7699 -0.6925
 5847SOL    HW218441   1.369   4.497   2.906 -0.3243 -0.0235 -0.0359
 5848SOL     OW18442   0.055   4.383   0.580  0.1090 -0.0525  0.1325
 5848SOL    HW118443   0.060   4.384   0.481 -0.4383 -1.6210  0.0606
 5848SOL    HW218444   0.079   4.473   0.616  1.7098  0.1406 -1.3394
 5849SOL     OW18445   1.467   6.646   0.694 -0.3697  0.8423 -0.1342
 5849SOL    HW118446   1.443   6.735   0.733  2.7164  1.1163  1.4669
 5849SOL    HW218447   1.481   6.580   0.767  0.0727 -0.1956 -1.1274
 5850SOL     OW18448   6.259   1.106   1.537 -0.0851 -0.2144  0.0779
 5850SOL    HW118449   6.329   1.139   1.473  1.5643 -1.7131  1.0032
 5850SOL    HW218450   6.250   1.007   1.529 -1.5149 -0.1505  0.5840
 5851SOL     OW18451   0.224   1.881   0.291 -0.2674 -0.0196 -0.5817
 5851SOL    HW118452   0.130   1.866   0.321 -0.2270 -1.1749 -0.9927
 5851SOL    HW218453   0.287   1.863   0.367 -0.2566 -1.4938 -0.9074
 5852SOL     OW18454   5.337   5.727   6.318  0.0981 -0.0261 -0.0871
 5852SOL    HW118455   5.283   5.677   6.250 -1.6035  2.5130 -0.7313
 5852SOL    HW218456   5.282   5.740   6.400  1.3718 -1.1699  0.9997
 5853SOL     OW18457   6.633   1.003   5.845  0.6128 -0.4487 -0.1664
 5853SOL    HW118458   6.591   1.012   5.754  1.8234  0.3880 -0.6551
 5853SOL    HW218459   6.671   0.911   5.855 -2.1219 -1.5981  0.6689
 5854SOL     OW18460   3.994   1.815   6.592  0.1624 -0.4093  0.0817
 5854SOL    HW118461   4.048   1.777   6.517 -1.1069 -0.4980 -0.8192
 5854SOL    HW218462   3.897   1.811   6.568 -0.4650 -2.2955  2.5491
 5855SOL     OW18463   4.657   5.529   3.969 -0.1804 -0.2055 -0.5448
 5855SOL    HW118464   4.689   5.480   4.050  0.1903  0.2386 -0.4201
 5855SOL    HW218465   4.735   5.562   3.916 -0.4216  0.1763 -0.6732
 5856SOL     OW18466   2.417   4.622   1.016  0.1781 -0.5254 -0.0716
 5856SOL    HW118467   2.452   4.614   0.923 -0.0019 -1.3470 -0.0814
 5856SOL    HW218468   2.421   4.717   1.046  0.4706 -0.2963 -0.8258
 5857SOL     OW18469   2.156   3.121   0.702  0.0721 -0.0095  0.3729
 5857SOL    HW118470   2.089   3.084   0.638 -0.0611 -0.0532  0.5362
 5857SOL    HW218471   2.211   3.047   0.740 -0.3902 -0.0750  0.9223
 5858SOL     OW18472   4.681   6.554   3.961 -0.3858 -0.6976 -0.4792
 5858SOL    HW118473   4.650   6.509   4.045  0.6010  2.0978  1.5259
 5858SOL    HW218474   4.759   6.504   3.924  0.1961 -1.1079  1.1989
 5859SOL     OW18475   0.672   5.514   4.716 -0.0801  0.5133  0.0672
 5859SOL    HW118476   0.589   5.460   4.699  0.1745  0.0299  0.3347
 5859SOL    HW218477   0.749   5.473   4.668  0.2467  0.2637  0.7915
 5860SOL     OW18478   5.944   4.546   3.998  0.0448  0.0237 -0.1882
 5860SOL    HW118479   5.868   4.579   4.054  0.8531  0.1164  0.9103
 5860SOL    HW218480   5.915   4.468   3.943 -0.6018 -0.5662  0.9533
 5861SOL     OW18481   5.634   2.114   5.714 -0.4881 -0.0205 -0.2455
 5861SOL    HW118482   5.607   2.189   5.774  0.3034  0.6985 -0.7749
 5861SOL    HW218483   5.564   2.102   5.643  1.1382  2.8718 -2.5600
 5862SOL     OW18484   6.988   5.310   2.267 -0.4581 -0.3785 -0.6412
 5862SOL    HW118485   7.052   5.239   2.296 -1.9960 -1.3985  0.3372
 5862SOL    HW218486   7.031   5.400   2.280  0.8796 -1.0440 -0.2805
 5863SOL     OW18487   2.828   4.650   0.687 -0.7253 -0.7036 -0.2725
 5863SOL    HW118488   2.921   4.657   0.649 -1.3932 -1.8049 -2.2609
 5863SOL    HW218489   2.829   4.589   0.766  0.2532 -0.6850 -0.2606
 5864SOL     OW18490   2.758   5.372   5.164  0.1648  0.1936 -0.7065
 5864SOL    HW118491   2.745   5.322   5.079 -1.3608 -1.9743  0.7000
 5864SOL    HW218492   2.670   5.390   5.206  0.8939  1.0782  0.5293
 5865SOL     OW18493   4.496   0.291   4.008  0.2499  0.0706  0.2214
 5865SOL    HW118494   4.424   0.243   3.957 -0.0030 -0.7980  1.3368
 5865SOL    HW218495   4.454   0.357   4.070  0.5095  0.6286 -0.1949
 5866SOL     OW18496   4.194   1.434   2.555 -0.0773  0.3243  0.1169
 5866SOL    HW118497   4.273   1.456   2.613 -0.5836 -1.3217  1.5035
 5866SOL    HW218498   4.135   1.514   2.548  0.6426  0.9409  0.8188
 5867SOL     OW18499   0.634   2.570   5.571  0.4291  0.9711  0.1241
 5867SOL    HW118500   0.606   2.502   5.638  0.8665  0.3049 -0.3489
 5867SOL    HW218501   0.701   2.632   5.611  1.4883 -0.0694  0.0157
 5868SOL     OW18502   6.100   4.157   5.859  0.1192 -0.6042  0.1303
 5868SOL    HW118503   6.060   4.065   5.861 -1.1744 -0.0935 -0.4454
 5868SOL    HW218504   6.133   4.177   5.766  0.0937 -0.3731  0.1692
 5869SOL     OW18505   1.463   3.082   5.256  0.2190  0.7449  0.1314
 5869SOL    HW118506   1.555   3.079   5.218  0.6116 -0.1107  1.1107
 5869SOL    HW218507   1.446   3.172   5.296  0.5099  0.9946 -0.2929
 5870SOL     OW18508   5.964   1.900   6.372 -0.1914  0.4310  0.4297
 5870SOL    HW118509   6.007   1.966   6.433  0.4173  1.7617 -1.3546
 5870SOL    HW218510   6.032   1.835   6.339 -0.2981  0.3609  0.3469
 5871SOL     OW18511   0.642   1.591   2.924  0.0150 -0.0470 -0.2414
 5871SOL    HW118512   0.550   1.598   2.887 -0.1825  0.8421  0.3844
 5871SOL    HW218513   0.647   1.513   2.986 -0.3198 -0.0829 -0.2580
 5872SOL     OW18514   4.344   6.297   3.239  0.0344 -0.3473 -0.1661
 5872SOL    HW118515   4.405   6.235   3.190 -0.7874 -1.8374  0.6203
 5872SOL    HW218516   4.299   6.358   3.174 -0.2873 -1.6172 -1.1631
 5873SOL     OW18517   4.007   1.509   4.930 -0.5183  0.2115 -0.1458
 5873SOL    HW118518   4.036   1.499   5.025 -0.9154 -2.7966 -0.2560
 5873SOL    HW218519   3.908   1.522   4.926 -0.5399  0.0409 -0.1620
 5874SOL     OW18520   0.396   4.458   5.087 -0.1395  0.1894 -0.6472
 5874SOL    HW118521   0.310   4.502   5.062 -0.1948  0.8529  0.6297
 5874SOL    HW218522   0.450   4.442   5.005 -1.4740 -0.2605 -1.4739
 5875SOL     OW18523   4.571   0.398   4.900  0.4179  0.4104  0.1659
 5875SOL    HW118524   4.656   0.450   4.912 -0.6097  2.2693 -0.1847
 5875SOL    HW218525   4.532   0.376   4.990  1.3484 -0.6228  0.3304
 5876SOL     OW18526   6.529   4.626   3.679 -0.4629 -0.2368  0.2358
 5876SOL    HW118527   6.566   4.683   3.752 -1.6173  0.3120  0.4112
 5876SOL    HW218528   6.453   4.572   3.713 -0.7218 -0.3155 -0.4406
 5877SOL     OW18529   6.529   5.411   3.764 -0.1285 -0.0593 -0.1147
 5877SOL    HW118530   6.584   5.386   3.684 -1.9294 -0.7742 -1.1811
 5877SOL    HW218531   6.553   5.351   3.841  0.9410  0.0059 -0.3767
 5878SOL     OW18532   5.781   6.009   1.711 -0.2696 -0.2196 -0.7052
 5878SOL    HW118533   5.723   5.944   1.759 -1.8525  1.6675  0.0844
 5878SOL    HW218534   5.871   6.013   1.755 -0.4261 -1.2595 -0.2673
 5879SOL     OW18535   4.079   2.590   6.036  0.2751 -0.1857 -0.3229
 5879SOL    HW118536   4.145   2.643   6.089 -0.3504  1.0865 -0.7800
 5879SOL    HW218537   4.128   2.535   5.968  0.8485  1.7786 -1.5982
 5880SOL     OW18538   6.777   2.457   4.356  0.0574  0.2104  0.3232
 5880SOL    HW118539   6.832   2.474   4.274  2.3762  0.6169  1.8519
 5880SOL    HW218540   6.779   2.360   4.378 -1.8812 -0.1561 -0.9073
 5881SOL     OW18541   2.471   1.879   2.008 -0.0104  0.2647  0.3300
 5881SOL    HW118542   2.560   1.849   2.043  0.3198  1.2482  0.3720
 5881SOL    HW218543   2.444   1.963   2.054 -0.5096  0.4914 -0.3643
 5882SOL     OW18544   2.316   6.707   6.995 -0.5510  0.3908  0.5412
 5882SOL    HW118545   2.376   6.788   6.997 -1.4481  1.0760  0.4671
 5882SOL    HW218546   2.226   6.732   7.032 -0.2893 -1.0551  2.2722
 5883SOL     OW18547   0.023   0.419   4.439 -0.6857  0.5686 -0.1238
 5883SOL    HW118548  -0.039   0.479   4.387 -2.0915 -1.1102 -0.4876
 5883SOL    HW218549  -0.012   0.325   4.436  1.8070 -0.4341 -0.1483
 5884SOL     OW18550   6.300   3.676   4.102 -0.0962 -0.1961  0.0108
 5884SOL    HW118551   6.261   3.720   4.022 -1.3395  0.3278  0.8672
 5884SOL    HW218552   6.325   3.582   4.080  0.4145  0.2117 -1.2163
 5885SOL     OW18553   6.325   5.562   5.860  0.0018 -0.0739 -0.0308
 5885SOL    HW118554   6.315   5.470   5.898 -0.3661 -0.2982 -0.6692
 5885SOL    HW218555   6.396   5.611   5.911 -0.3129 -0.4553  0.7848
 5886SOL     OW18556   1.899   5.005   1.730 -0.3716 -0.5997  0.1288
 5886SOL    HW118557   1.986   5.055   1.731 -0.7546  0.0581  1.1462
 5886SOL    HW218558   1.832   5.052   1.787 -1.4497 -1.0315 -0.7422
 5887SOL     OW18559   3.343   5.582   1.028 -0.2636  0.0118 -0.4091
 5887SOL    HW118560   3.301   5.589   0.938  1.4252  1.0444 -1.1727
 5887SOL    HW218561   3.325   5.666   1.080  0.3470  0.2137 -0.5183
 5888SOL     OW18562   6.001   4.583   3.490 -0.1912  0.5846  0.0786
 5888SOL    HW118563   5.967   4.492   3.514 -1.9948  0.8291 -1.3742
 5888SOL    HW218564   6.074   4.574   3.422  0.3991  0.1946  0.7529
 5889SOL     OW18565   5.316   6.050   1.435 -0.6081  0.4096 -0.1244
 5889SOL    HW118566   5.248   6.119   1.409 -2.2962 -1.0442  0.3164
 5889SOL    HW218567   5.356   6.075   1.524 -0.6950  1.1632 -0.2878
 5890SOL     OW18568   0.587   6.106   2.776  0.1640  0.0289 -0.1530
 5890SOL    HW118569   0.580   6.009   2.756  0.0664  0.0209 -0.0749
 5890SOL    HW218570   0.678   6.126   2.812 -0.1506 -0.1998  0.7834
 5891SOL     OW18571   5.608   2.832   2.323  0.3187 -0.1204 -0.1495
 5891SOL    HW118572   5.636   2.916   2.276  0.5612  0.3626  0.8326
 5891SOL    HW218573   5.647   2.753   2.276 -0.1753  0.2873 -1.2690
 5892SOL     OW18574   1.179   3.850   3.263 -0.2307 -0.5425  0.1461
 5892SOL    HW118575   1.091   3.887   3.236  1.0901  2.7042 -0.0918
 5892SOL    HW218576   1.192   3.859   3.362  0.0171 -0.6352  0.1248
 5893SOL     OW18577   0.525   6.578   4.667 -0.5564 -0.2398 -0.5297
 5893SOL    HW118578   0.599   6.635   4.633 -0.4962  0.1961  0.2984
 5893SOL    HW218579   0.437   6.614   4.634 -0.5187  0.3418 -0.0214
 5894SOL     OW18580   6.726   0.316   2.531 -0.0536 -0.5239 -0.3907
 5894SOL    HW118581   6.627   0.308   2.547 -0.1168  0.4464 -0.2469
 5894SOL    HW218582   6.775   0.252   2.591 -0.5079  0.1529  0.7251
 5895SOL     OW18583   1.510   3.293   2.904  0.5972  0.0753  0.0231
 5895SOL    HW118584   1.596   3.309   2.953 -1.3639  1.2337  3.4457
 5895SOL    HW218585   1.474   3.203   2.928 -1.0464  1.1783  2.0326
 5896SOL     OW18586   6.397   5.023   1.923 -0.0095  0.1631  0.6608
 5896SOL    HW118587   6.348   4.941   1.893  1.2522 -0.0298 -1.0284
 5896SOL    HW218588   6.494   5.001   1.934  0.0774  1.0551  1.8493
 5897SOL     OW18589   6.917   2.902   4.992  0.1788 -0.0003 -0.1525
 5897SOL    HW118590   6.844   2.846   5.032  1.1426 -0.9364  0.3534
 5897SOL    HW218591   6.893   2.998   4.999 -1.3378 -0.3089 -0.6513
 5898SOL     OW18592   3.621   4.350   6.369  0.2026  0.0734  0.0044
 5898SOL    HW118593   3.712   4.387   6.388 -0.4909  0.9567  1.8662
 5898SOL    HW218594   3.573   4.333   6.456 -1.3359 -0.5789 -0.9285
 5899SOL     OW18595   6.963   2.073   6.860  0.0335 -0.2204  0.3250
 5899SOL    HW118596   6.976   2.019   6.776  1.5059 -0.7567  0.8645
 5899SOL    HW218597   7.027   2.041   6.930 -0.7668  0.6173  1.4733
 5900SOL     OW18598   0.531   5.222   1.447  0.2678  0.0394  0.0472
 5900SOL    HW118599   0.512   5.313   1.410  0.0650  0.0297  0.1245
 5900SOL    HW218600   0.473   5.155   1.401 -0.3294  0.0942  0.7098
 5901SOL     OW18601   1.290   4.494   6.759  0.1156  0.0613  0.0805
 5901SOL    HW118602   1.280   4.481   6.857  1.2301 -1.7051 -0.0006
 5901SOL    HW218603   1.231   4.428   6.711 -1.1813  1.5623 -0.4801
 5902SOL     OW18604   2.045   5.852   2.778 -0.1902  0.3882  0.0595
 5902SOL    HW118605   2.034   5.949   2.803 -1.8386  0.3362 -0.3519
 5902SOL    HW218606   2.043   5.843   2.679  0.3678 -0.0371  0.0833
 5903SOL     OW18607   0.795   1.470   2.676 -0.4564  0.1230 -0.2320
 5903SOL    HW118608   0.785   1.374   2.704  3.0881  0.1885  1.8895
 5903SOL    HW218609   0.811   1.527   2.756  0.9135  1.9247 -1.6952
 5904SOL     OW18610   0.558   4.130   1.778  0.0731 -0.1428  0.1401
 5904SOL    HW118611   0.546   4.228   1.797 -2.9331 -0.4116  0.0067
 5904SOL    HW218612   0.478   4.080   1.809  1.0934 -2.4675 -0.7744
 5905SOL     OW18613   1.974   3.084   5.110  0.5464  0.2676 -0.4613
 5905SOL    HW118614   1.992   2.986   5.118  0.8456  0.4062  0.9161
 5905SOL    HW218615   2.034   3.124   5.041 -0.4133 -0.7021 -1.9065
 5906SOL     OW18616   5.373   3.047   3.905  0.4435  0.9009  0.2664
 5906SOL    HW118617   5.309   3.017   3.975  0.8872  1.4461  0.9213
 5906SOL    HW218618   5.464   3.012   3.926  0.5506  0.9390 -0.1207
 5907SOL     OW18619   1.427   1.209   3.616  0.3029  0.9332 -0.2861
 5907SOL    HW118620   1.389   1.122   3.585  0.2616  1.2981 -1.3016
 5907SOL    HW218621   1.478   1.195   3.701 -1.2054  0.2472  0.5427
 5908SOL     OW18622   6.840   6.413   2.235  0.3791  0.3714 -0.2088
 5908SOL    HW118623   6.805   6.458   2.153  0.7884 -0.6230 -0.9513
 5908SOL    HW218624   6.936   6.439   2.249  1.3885 -1.9523 -1.9897
 5909SOL     OW18625   6.618   2.553   1.519  0.6485  0.1567 -0.4712
 5909SOL    HW118626   6.631   2.459   1.490  1.0883 -0.6663  2.1682
 5909SOL    HW218627   6.704   2.589   1.556  0.5738  1.7392 -1.7327
 5910SOL     OW18628   1.059   6.220   3.646  0.8542  0.2886  0.2457
 5910SOL    HW118629   1.144   6.171   3.666  0.1824 -1.2580 -0.5058
 5910SOL    HW218630   0.981   6.158   3.660  0.0082  0.9542 -1.3055
 5911SOL     OW18631   2.580   4.917   3.521 -0.0016  0.0378  0.6285
 5911SOL    HW118632   2.560   4.992   3.584 -1.0785 -0.7131  1.2079
 5911SOL    HW218633   2.532   4.932   3.435  0.2166  0.2744  0.5454
 5912SOL     OW18634   1.524   0.435   6.255 -0.9995  0.1667  0.3043
 5912SOL    HW118635   1.561   0.502   6.320 -1.3376 -0.3783  1.0624
 5912SOL    HW218636   1.466   0.370   6.303 -2.2947  0.5153 -0.7457
 5913SOL     OW18637   6.212   4.584   3.315  0.2696 -0.7228  0.6158
 5913SOL    HW118638   6.231   4.487   3.299  2.7763 -0.4414  1.4225
 5913SOL    HW218639   6.291   4.626   3.360 -1.5001  1.2883  2.0160
 5914SOL     OW18640   6.842   5.892   1.547  0.6516 -0.6185  0.3969
 5914SOL    HW118641   6.759   5.926   1.592  1.4938  0.2759  1.3221
 5914SOL    HW218642   6.849   5.932   1.456 -0.1198 -1.0086  0.1521
 5915SOL     OW18643   3.434   1.056   6.696 -0.2333 -0.5561  0.0199
 5915SOL    HW118644   3.385   1.136   6.732  0.0003 -0.1439 -0.5687
 5915SOL    HW218645   3.531   1.077   6.689 -0.4017 -0.2148 -1.9084
 5916SOL     OW18646   1.121   4.066   2.532 -0.5729  0.2367  0.4843
 5916SOL    HW118647   1.124   4.045   2.434 -0.2169  0.2003  0.5040
 5916SOL    HW218648   1.213   4.087   2.565 -0.3918 -1.5165  1.1988
 5917SOL     OW18649   1.081   1.393   4.012 -0.3694 -0.8820 -0.1515
 5917SOL    HW118650   1.146   1.363   4.082 -0.4434 -0.1440  0.2488
 5917SOL    HW218651   0.988   1.372   4.042 -0.3209 -2.1699 -0.8395
 5918SOL     OW18652   4.750   0.499   6.028 -0.2065  0.1296 -0.1599
 5918SOL    HW118653   4.783   0.559   5.955  0.4817 -1.7334 -1.4542
 5918SOL    HW218654   4.693   0.427   5.988 -0.6094 -0.3742  1.2738
 5919SOL     OW18655   3.586   6.930   1.187  0.3163  0.3106 -0.1607
 5919SOL    HW118656   3.673   6.908   1.143  0.5394  1.7421 -0.4862
 5919SOL    HW218657   3.550   7.015   1.149 -1.9750 -0.9897 -1.0973
 5920SOL     OW18658   3.263   3.726   4.140  0.3289  0.4765  0.4340
 5920SOL    HW118659   3.201   3.726   4.218  1.4547  1.1306  1.3561
 5920SOL    HW218660   3.344   3.672   4.162  0.1840 -0.2410 -0.7008
 5921SOL     OW18661   3.173   4.854   4.303  0.4885 -0.0398 -0.1598
 5921SOL    HW118662   3.218   4.871   4.391  1.6841 -0.2086 -0.7128
 5921SOL    HW218663   3.079   4.823   4.319  1.0192 -1.0970  1.0885
 5922SOL     OW18664   6.030   4.559   6.954  0.9407  0.6375 -0.2711
 5922SOL    HW118665   5.948   4.589   7.004  0.6893  1.1238 -0.9627
 5922SOL    HW218666   6.109   4.611   6.985  1.1433 -0.3126  0.9017
 5923SOL     OW18667   5.838   6.239   5.013 -0.0054  0.3647 -0.8631
 5923SOL    HW118668   5.779   6.248   5.092  1.0137  0.1429 -0.0586
 5923SOL    HW218669   5.933   6.225   5.043  0.3950  0.2589 -2.1121
 5924SOL     OW18670   4.358   1.768   6.853 -0.2373 -0.2916  0.6205
 5924SOL    HW118671   4.260   1.781   6.843 -0.0847  0.4941  0.0483
 5924SOL    HW218672   4.387   1.688   6.801 -0.2876  0.6245 -0.8722
 5925SOL     OW18673   2.507   4.507   3.135  0.5618  0.1580 -0.6067
 5925SOL    HW118674   2.429   4.447   3.118  1.0757 -0.6205 -0.3113
 5925SOL    HW218675   2.534   4.552   3.049  0.8179 -0.8480 -1.0690
 5926SOL     OW18676   1.549   2.092   3.628  0.1260 -0.1149 -0.2968
 5926SOL    HW118677   1.529   2.001   3.591  2.7370 -0.2686 -1.5725
 5926SOL    HW218678   1.480   2.117   3.696  0.4544 -3.9134  1.6626
 5927SOL     OW18679   1.701   4.508   6.793 -0.0662 -0.0335  0.0923
 5927SOL    HW118680   1.744   4.587   6.750 -0.9018  0.0735 -0.5676
 5927SOL    HW218681   1.664   4.447   6.722  2.4626 -2.1690  0.4286
 5928SOL     OW18682   1.399   0.935   6.094 -0.3944  0.1470  0.3729
 5928SOL    HW118683   1.482   0.891   6.059 -0.7545 -1.2343  1.2024
 5928SOL    HW218684   1.384   0.908   6.189 -2.8260 -1.1722 -0.3093
 5929SOL     OW18685   2.467   1.535   0.367  0.5548  0.2671 -0.3280
 5929SOL    HW118686   2.464   1.527   0.268  2.4588 -2.6107 -0.2520
 5929SOL    HW218687   2.542   1.595   0.394  1.9442 -1.2603 -0.6497
 5930SOL     OW18688   2.190   0.386   4.796  0.1422 -0.2407 -0.5405
 5930SOL    HW118689   2.215   0.309   4.854 -1.6935  0.4173  1.2224
 5930SOL    HW218690   2.199   0.359   4.700  3.0450 -1.4210 -0.0289
 5931SOL     OW18691   2.811   0.589   2.469  0.3862 -0.1763  0.3960
 5931SOL    HW118692   2.812   0.512   2.406  0.1314  0.2622 -0.1478
 5931SOL    HW218693   2.718   0.607   2.499  0.3357  0.3966 -0.0763
 5932SOL     OW18694   4.314   6.050   1.652  0.1464 -0.4436 -0.0713
 5932SOL    HW118695   4.291   5.953   1.656  0.7462 -0.6619 -1.3763
 5932SOL    HW218696   4.233   6.105   1.672 -0.6749 -1.2044 -1.2298
 5933SOL     OW18697   5.515   5.875   5.194 -0.0218 -0.1184  0.2131
 5933SOL    HW118698   5.612   5.850   5.197  0.8465  2.8652  0.1323
 5933SOL    HW218699   5.498   5.932   5.114 -1.7363 -0.1053  0.5524
 5934SOL     OW18700   3.300   6.275   4.004  0.0141  0.2064 -0.4715
 5934SOL    HW118701   3.315   6.373   4.012  2.1573 -0.1422  0.3959
 5934SOL    HW218702   3.292   6.250   3.907  0.7604  1.0628 -0.7623
 5935SOL     OW18703   4.139   3.594   5.602  0.0133 -0.9848  0.0160
 5935SOL    HW118704   4.207   3.668   5.607 -0.8851 -0.1965  1.6559
 5935SOL    HW218705   4.185   3.506   5.612  0.8625 -0.4990  0.5264
 5936SOL     OW18706   6.355   3.763   4.523 -0.3908  0.0247  0.3398
 5936SOL    HW118707   6.418   3.717   4.460  2.4899  0.5160  2.6087
 5936SOL    HW218708   6.340   3.706   4.603 -0.5182  1.1107  1.1134
 5937SOL     OW18709   3.851   3.611   0.599 -0.5863 -0.7017 -0.4735
 5937SOL    HW118710   3.837   3.700   0.557  0.9521 -1.0241 -1.7584
 5937SOL    HW218711   3.932   3.615   0.659 -1.4747 -0.8327  0.7852
 5938SOL     OW18712   2.059   3.229   2.021  0.8587 -0.0697  0.4713
 5938SOL    HW118713   1.971   3.262   1.984  0.5971 -0.2135  0.9578
 5938SOL    HW218714   2.134   3.279   1.977  0.5469 -0.1013 -0.1152
 5939SOL     OW18715   5.362   5.397   5.000  0.4511 -0.3585  0.1040
 5939SOL    HW118716   5.373   5.357   4.909 -0.7615 -0.0705 -0.1928
 5939SOL    HW218717   5.416   5.346   5.067  0.7444 -1.0480 -0.6496
 5940SOL     OW18718   1.806   0.212   5.608  0.5278  0.4022 -0.4951
 5940SOL    HW118719   1.757   0.139   5.656 -0.9804  0.7416 -1.4276
 5940SOL    HW218720   1.843   0.277   5.674  0.4192 -0.3122  0.2802
 5941SOL     OW18721   1.690   0.067   6.160 -0.4785 -0.1950 -0.1537
 5941SOL    HW118722   1.697   0.109   6.251  0.2646 -1.2711  0.3118
 5941SOL    HW218723   1.775   0.020   6.138 -0.9220 -0.5988 -1.0893
 5942SOL     OW18724   2.435   1.293   4.230 -0.6508 -0.0058 -0.0445
 5942SOL    HW118725   2.382   1.361   4.180  0.3384  1.1669  0.4237
 5942SOL    HW218726   2.441   1.209   4.177  1.3007  1.5463 -2.4960
 5943SOL     OW18727   3.411   5.673   0.196 -0.0023 -0.0957 -0.1178
 5943SOL    HW118728   3.349   5.599   0.224  0.8006 -1.0747 -0.8535
 5943SOL    HW218729   3.506   5.646   0.214  0.2975  0.8374 -0.2340
 5944SOL     OW18730   3.940   2.200   2.369  0.1986 -0.1266  0.5591
 5944SOL    HW118731   3.946   2.187   2.468  1.1774 -0.0162  0.5201
 5944SOL    HW218732   3.860   2.151   2.334  0.9346 -1.8111  1.1289
 5945SOL     OW18733   2.389   3.750   1.247  0.3884 -0.0744  0.1048
 5945SOL    HW118734   2.313   3.772   1.184  0.2954  0.6808  0.4691
 5945SOL    HW218735   2.426   3.835   1.284  2.1230 -0.3695 -0.8734
 5946SOL     OW18736   0.194   2.660   6.646 -0.2056 -0.0151  0.0078
 5946SOL    HW118737   0.142   2.676   6.730 -0.8035 -1.7268  0.0165
 5946SOL    HW218738   0.273   2.602   6.665  0.4633  0.7430 -0.3901
 5947SOL     OW18739   1.917   5.510   1.202 -0.1370 -0.0225  0.2489
 5947SOL    HW118740   1.984   5.505   1.129  0.3031 -1.3597  0.7183
 5947SOL    HW218741   1.955   5.471   1.286 -2.1961 -2.9592 -0.0290
 5948SOL     OW18742   5.295   3.288   2.984 -0.5861 -0.0945 -0.5370
 5948SOL    HW118743   5.355   3.264   3.060  0.8280 -2.4367 -2.2739
 5948SOL    HW218744   5.260   3.381   2.998  1.1333  0.2850  1.9781
 5949SOL     OW18745   6.224   4.277   5.608 -0.3471 -0.2633  0.1968
 5949SOL    HW118746   6.188   4.367   5.631 -1.6747 -0.7540  0.1724
 5949SOL    HW218747   6.312   4.263   5.654  0.4080  1.4256 -0.6469
 5950SOL     OW18748   3.821   6.434   1.928 -0.0939 -0.1492  0.2875
 5950SOL    HW118749   3.740   6.492   1.918  1.3618  2.0179  0.4077
 5950SOL    HW218750   3.837   6.415   2.024 -0.9641 -1.3921  0.2070
 5951SOL     OW18751   6.035   2.990   0.680 -0.0515  0.0455  0.2382
 5951SOL    HW118752   6.080   2.979   0.591 -0.2719  0.1765  0.1111
 5951SOL    HW218753   6.046   2.905   0.733  0.3845  0.0922  0.2272
 5952SOL     OW18754   0.310   3.003   4.853  0.8852 -0.6753 -0.0095
 5952SOL    HW118755   0.283   3.099   4.850  3.6944  0.1914 -1.0038
 5952SOL    HW218756   0.252   2.953   4.918 -0.1902  1.8067  1.0381
 5953SOL     OW18757   2.658   0.510   0.209 -0.3587 -0.4334 -0.0848
 5953SOL    HW118758   2.720   0.490   0.132  2.1031 -1.9589  2.0877
 5953SOL    HW218759   2.581   0.446   0.207  0.3279 -1.2695 -0.6257
 5954SOL     OW18760   2.106   3.090   2.704 -0.5072 -0.1380  0.8889
 5954SOL    HW118761   2.095   3.188   2.688  2.3762 -0.2006 -2.8963
 5954SOL    HW218762   2.026   3.041   2.669  0.2706  0.6596 -2.2649
 5955SOL     OW18763   3.154   3.951   5.332  0.0327  0.0982 -0.3008
 5955SOL    HW118764   3.174   4.038   5.376 -3.1753  0.9675 -0.3683
 5955SOL    HW218765   3.214   3.939   5.253  0.4138  2.3266 -0.4094
 5956SOL     OW18766   4.819   6.235   1.351  0.0387 -0.4172 -0.2408
 5956SOL    HW118767   4.810   6.143   1.387  2.5205 -0.2320  1.0258
 5956SOL    HW218768   4.853   6.231   1.257 -1.0547 -0.7815 -0.6369
 5957SOL     OW18769   5.714   6.538   1.141  0.5617  0.0463 -0.2412
 5957SOL    HW118770   5.621   6.504   1.152  0.3923  0.1698 -1.2130
 5957SOL    HW218771   5.771   6.504   1.216 -0.2500 -0.0553  0.3420
 5958SOL     OW18772   6.212   6.493   4.326 -0.5043 -0.4236  0.3105
 5958SOL    HW118773   6.235   6.561   4.396 -0.5164 -1.7294  1.6292
 5958SOL    HW218774   6.288   6.429   4.315 -1.3677 -1.5324  0.7289
 5959SOL     OW18775   2.625   6.268   0.351 -0.0284  0.5349 -0.6614
 5959SOL    HW118776   2.570   6.348   0.375  0.0250 -0.1845  2.0996
 5959SOL    HW218777   2.718   6.280   0.386  0.3503 -0.1885 -1.3822
 5960SOL     OW18778   2.046   3.557   1.411 -0.5635  0.1367  0.0628
 5960SOL    HW118779   2.079   3.650   1.431  1.0600 -0.5258  0.6440
 5960SOL    HW218780   1.972   3.533   1.473 -1.2449  1.1608 -0.3305
 5961SOL     OW18781   0.601   3.000   4.868  0.1072  0.2394 -0.3977
 5961SOL    HW118782   0.613   2.950   4.783 -1.7289  1.3707 -1.3923
 5961SOL    HW218783   0.503   3.018   4.883  0.5140  1.4479  1.1307
 5962SOL     OW18784   0.530   0.037   2.817 -0.4178 -0.2547  0.7289
 5962SOL    HW118785   0.449   0.022   2.874 -0.5954 -1.4425  0.2003
 5962SOL    HW218786   0.579  -0.049   2.806  0.2553  0.2027  0.0394
 5963SOL     OW18787   2.751   5.707   4.254 -0.1054  0.3675  0.1998
 5963SOL    HW118788   2.756   5.614   4.291  0.5285 -0.5389 -2.0143
 5963SOL    HW218789   2.843   5.742   4.240 -0.3449  1.0240  0.2565
 5964SOL     OW18790   3.148   3.012   3.616  0.4084  0.0357 -0.0957
 5964SOL    HW118791   3.095   2.930   3.595 -0.1925 -0.8474  4.0744
 5964SOL    HW218792   3.243   2.997   3.591 -0.3208 -0.2639 -3.0977
 5965SOL     OW18793   3.029   5.182   4.667  0.2869  0.1207 -0.7525
 5965SOL    HW118794   2.949   5.243   4.665 -0.5847 -0.8347  1.6734
 5965SOL    HW218795   3.112   5.236   4.675 -0.3520  1.0390 -0.1561
 5966SOL     OW18796   5.971   0.146   4.161  0.2075  0.2789  0.5210
 5966SOL    HW118797   6.013   0.213   4.100 -0.3915 -0.5837 -0.8846
 5966SOL    HW218798   6.040   0.078   4.189 -0.0520 -0.8564 -1.3917
 5967SOL     OW18799   6.844   1.213   3.676 -1.0307  0.4189 -0.0373
 5967SOL    HW118800   6.910   1.139   3.662 -0.7760  0.5826  0.2963
 5967SOL    HW218801   6.754   1.175   3.693 -0.7555  0.1641  0.9087
 5968SOL     OW18802   6.063   6.078   0.573  0.7083 -0.1751  0.3046
 5968SOL    HW118803   6.041   6.149   0.638  1.9934  0.2849  0.2808
 5968SOL    HW218804   6.142   6.026   0.606  0.6866 -0.6449 -0.3569
 5969SOL     OW18805   2.848   1.693   1.070  0.9524 -0.6260 -0.4293
 5969SOL    HW118806   2.946   1.677   1.056  1.1901 -1.3950  1.7408
 5969SOL    HW218807   2.808   1.615   1.118 -0.3916  0.3287  0.0524
 5970SOL     OW18808   4.689   1.441   0.772 -0.0978  0.7042 -0.3104
 5970SOL    HW118809   4.622   1.406   0.706  0.7481 -1.5627 -0.0557
 5970SOL    HW218810   4.780   1.440   0.730  0.1842  1.0351  0.2880
 5971SOL     OW18811   4.950   0.645   2.270  0.5414  0.6695 -0.3282
 5971SOL    HW118812   5.012   0.621   2.195 -1.1278 -1.2117 -1.2053
 5971SOL    HW218813   4.868   0.589   2.264 -0.6591  2.1017  1.6050
 5972SOL     OW18814   2.735   6.384   1.828  0.0942  0.4312 -0.7860
 5972SOL    HW118815   2.709   6.288   1.817 -0.5212  0.6468 -1.2281
 5972SOL    HW218816   2.745   6.427   1.739 -0.3478  0.9633 -0.5904
 5973SOL     OW18817   3.481   0.582   4.172  0.0583  0.9303 -0.3246
 5973SOL    HW118818   3.435   0.670   4.182 -0.5920  0.5143  0.4557
 5973SOL    HW218819   3.472   0.550   4.078 -0.1612  1.4435 -0.4824
 5974SOL     OW18820   0.344   2.862   6.082  0.5546  0.3334 -0.1371
 5974SOL    HW118821   0.321   2.777   6.035  0.7184 -1.3635  2.6723
 5974SOL    HW218822   0.442   2.879   6.072  0.6218 -0.0996 -0.2507
 5975SOL     OW18823   4.171   4.701   5.235  0.2831  0.0744 -0.5433
 5975SOL    HW118824   4.219   4.699   5.147 -0.2585 -0.5018 -0.8333
 5975SOL    HW218825   4.196   4.784   5.285  3.8403 -1.4783  0.5949
 5976SOL     OW18826   2.940   5.058   1.254  0.0138 -0.3835 -0.4183
 5976SOL    HW118827   2.955   4.995   1.178  0.0033  0.8102 -1.4438
 5976SOL    HW218828   3.023   5.111   1.270 -0.8219  1.3322 -1.4851
 5977SOL     OW18829   4.438   4.758   0.288 -0.3996  0.2041  0.3223
 5977SOL    HW118830   4.441   4.795   0.195  0.4232  1.9667  1.0233
 5977SOL    HW218831   4.357   4.793   0.335  0.1096  0.7038  0.8286
 5978SOL     OW18832   6.785   2.412   6.426  0.3433 -0.0619  0.3662
 5978SOL    HW118833   6.770   2.511   6.417  0.8975  0.0454  0.5788
 5978SOL    HW218834   6.875   2.389   6.390  0.5236 -0.3810  1.0130
 5979SOL     OW18835   3.310   5.646   3.787  0.0025  0.0721  0.2947
 5979SOL    HW118836   3.264   5.565   3.823 -1.0055  0.6808  0.4143
 5979SOL    HW218837   3.347   5.700   3.862  2.8399 -1.4395  0.1554
 5980SOL     OW18838   1.230   6.824   5.354 -0.1012 -0.1543 -0.1728
 5980SOL    HW118839   1.182   6.893   5.408  0.2227  1.0215 -1.3300
 5980SOL    HW218840   1.328   6.835   5.364 -0.0349  0.0623 -0.9356
 5981SOL     OW18841   2.232   6.365   2.562 -0.4350 -0.4444  0.1018
 5981SOL    HW118842   2.137   6.396   2.568 -0.4332 -0.6785  1.5217
 5981SOL    HW218843   2.261   6.325   2.649  1.1829  0.2276 -0.0810
 5982SOL     OW18844   0.280   6.352   3.236 -0.0717  0.2482 -0.1520
 5982SOL    HW118845   0.181   6.347   3.253  0.2128  0.5682  1.8983
 5982SOL    HW218846   0.319   6.260   3.236  0.0922  0.2337  2.6088
 5983SOL     OW18847   3.098   4.569   5.385  0.2373 -0.1295  0.3159
 5983SOL    HW118848   3.065   4.506   5.455  0.8884 -1.2073 -0.3166
 5983SOL    HW218849   3.035   4.570   5.308  1.2852 -1.7262 -0.6276
 5984SOL     OW18850   2.404   0.968   2.727 -0.4586 -0.2200  0.0765
 5984SOL    HW118851   2.410   0.957   2.628 -1.7305  0.1029 -0.0488
 5984SOL    HW218852   2.368   0.884   2.767  2.2977 -1.2826  0.5699
 5985SOL     OW18853   3.008   3.918   2.827 -0.3286  0.1137  0.2758
 5985SOL    HW118854   2.952   3.836   2.817 -0.9410  0.5449  0.1394
 5985SOL    HW218855   3.040   3.925   2.922  1.2075 -1.2149 -0.0850
 5986SOL     OW18856   1.912   1.662   6.866  0.0487  0.6337 -0.3335
 5986SOL    HW118857   1.992   1.612   6.832 -0.3596 -0.4575  0.2766
 5986SOL    HW218858   1.941   1.723   6.940  0.1706 -0.5516  0.6297
 5987SOL     OW18859   3.849   0.115   6.136 -0.1129 -0.2079 -0.0748
 5987SOL    HW118860   3.810   0.023   6.137 -0.3062 -0.1282 -0.2185
 5987SOL    HW218861   3.863   0.146   6.230 -0.8341 -0.0562 -0.0073
 5988SOL     OW18862   0.924   3.746   4.451 -0.6778 -0.5987 -0.3836
 5988SOL    HW118863   0.985   3.691   4.394 -2.7289 -0.1791 -3.2149
 5988SOL    HW218864   0.971   3.830   4.477  0.4211 -0.8881 -1.3125
 5989SOL     OW18865   3.601   5.058   0.153 -0.4715  0.7124  0.2238
 5989SOL    HW118866   3.529   5.125   0.169 -3.0658 -1.0372 -3.0087
 5989SOL    HW218867   3.620   5.009   0.238 -1.8436  2.4118  1.5735
 5990SOL     OW18868   6.704   6.024   0.315  0.0546 -0.4012  0.8205
 5990SOL    HW118869   6.777   6.069   0.367  0.2560 -0.2591  0.4179
 5990SOL    HW218870   6.728   5.928   0.299  0.6035 -0.1137 -0.1380
 5991SOL     OW18871   5.744   3.967   0.934 -0.3384 -0.2021 -0.1283
 5991SOL    HW118872   5.760   3.897   1.004  0.9056  0.3092  0.1107
 5991SOL    HW218873   5.802   3.949   0.855  0.4840  0.9229  0.1997
 5992SOL     OW18874   0.529   3.328   1.947 -0.6323  0.4491  0.2447
 5992SOL    HW118875   0.501   3.412   1.901 -2.1967 -0.4275 -0.4858
 5992SOL    HW218876   0.510   3.250   1.888 -1.9524 -0.6526  2.0163
 5993SOL     OW18877   4.344   0.503   4.537  0.3661  0.8695 -0.2032
 5993SOL    HW118878   4.379   0.547   4.620  1.1119  0.1626 -0.1347
 5993SOL    HW218879   4.373   0.555   4.457  0.3903  1.0579 -0.0727
 5994SOL     OW18880   1.809   4.096   3.462 -0.1966  0.3232  0.2737
 5994SOL    HW118881   1.898   4.135   3.435  0.1580 -0.7038 -0.0725
 5994SOL    HW218882   1.767   4.051   3.383 -1.2264  1.1362  0.3299
 5995SOL     OW18883   3.394   4.450   5.728  0.3930 -0.0750  0.1039
 5995SOL    HW118884   3.482   4.428   5.684  0.5466  0.2880  0.2221
 5995SOL    HW218885   3.351   4.526   5.680  0.8849  0.7777  0.9751
 5996SOL     OW18886   1.872   0.145   2.418  0.4306  0.6831 -0.1819
 5996SOL    HW118887   1.859   0.230   2.369 -0.4168  1.1643  0.8363
 5996SOL    HW218888   1.872   0.068   2.353  2.0315  1.4909 -1.1922
 5997SOL     OW18889   6.560   4.749   5.154  0.1838  0.5476 -0.7187
 5997SOL    HW118890   6.575   4.837   5.109  0.9408  0.4050 -0.7644
 5997SOL    HW218891   6.628   4.683   5.122  1.2767  0.6585  1.1963
 5998SOL     OW18892   5.701   6.940   0.768  0.3599  0.5972 -0.5406
 5998SOL    HW118893   5.666   6.974   0.680 -0.4620  1.7756  0.2138
 5998SOL    HW218894   5.790   6.983   0.787  0.4077  0.5526 -0.6582
 5999SOL     OW18895   3.399   1.389   5.125 -0.0585 -0.4651 -0.7970
 5999SOL    HW118896   3.312   1.439   5.124  0.1933  0.4053  3.0363
 5999SOL    HW218897   3.393   1.315   5.192  2.4273  0.3309  0.4336
 6000SOL     OW18898   6.294   3.085   6.075  0.0663 -0.2579  0.2246
 6000SOL    HW118899   6.198   3.107   6.092  0.4270  1.8594 -0.1060
 6000SOL    HW218900   6.350   3.125   6.148  0.7986 -0.0901 -0.4121
 6001SOL     OW18901   1.974   5.455   2.865  0.4316  0.4492  0.3179
 6001SOL    HW118902   2.055   5.508   2.890  0.1630  0.5131  1.0537
 6001SOL    HW218903   1.909   5.514   2.817  1.5617 -0.0020 -1.9065
 6002SOL     OW18904   2.799   2.306   3.586  0.2776 -0.5606 -0.5474
 6002SOL    HW118905   2.819   2.311   3.488 -1.1067 -1.5684 -0.9229
 6002SOL    HW218906   2.730   2.374   3.610  1.0134  0.0576 -0.1420
 6003SOL     OW18907   3.886   5.387   4.170  0.0258 -0.5396 -0.2902
 6003SOL    HW118908   3.931   5.301   4.146 -1.3861 -1.1118 -0.9523
 6003SOL    HW218909   3.819   5.411   4.101  0.1009  0.9102  0.0896
 6004SOL     OW18910   4.841   3.016   2.308 -0.1033 -0.2113  0.3773
 6004SOL    HW118911   4.827   2.924   2.345 -0.9185 -0.0964  0.3781
 6004SOL    HW218912   4.795   3.024   2.220  0.5474 -0.0091  0.0517
 6005SOL     OW18913   5.203   2.035   2.851  0.2251  0.6564  0.3487
 6005SOL    HW118914   5.256   2.072   2.775 -0.6412  1.4151  0.1031
 6005SOL    HW218915   5.222   1.937   2.860 -0.7473  0.2265 -1.7756
 6006SOL     OW18916   5.353   5.889   3.565  0.4234 -0.1389 -0.4179
 6006SOL    HW118917   5.407   5.928   3.639  1.6980 -0.3898 -1.1789
 6006SOL    HW218918   5.258   5.917   3.575 -0.1264 -2.6657  3.0328
 6007SOL     OW18919   2.304   5.713   4.939  1.0012 -0.2166 -0.3665
 6007SOL    HW118920   2.270   5.796   4.982  1.9324  0.3218 -0.6326
 6007SOL    HW218921   2.254   5.634   4.974 -0.5662  0.5328 -0.8306
 6008SOL     OW18922   0.113   1.672   4.029 -0.0341 -0.6504 -0.0827
 6008SOL    HW118923   0.205   1.681   4.067 -0.2891 -1.6224  0.8107
 6008SOL    HW218924   0.069   1.762   4.028  0.1550 -0.5008  1.5344
 6009SOL     OW18925   4.260   1.755   0.547 -0.0102  0.2936  0.5928
 6009SOL    HW118926   4.242   1.811   0.466  1.3650 -0.2191 -0.1091
 6009SOL    HW218927   4.192   1.681   0.552 -0.1309  0.3559 -0.0721
 6010SOL     OW18928   6.898   4.386   4.746 -0.6233  0.3993  0.4434
 6010SOL    HW118929   6.857   4.472   4.775 -0.6241  0.3047  0.7278
 6010SOL    HW218930   6.997   4.399   4.735 -0.5554  0.3226  0.9340
 6011SOL     OW18931   4.033   0.138   6.708 -0.3198 -0.3727  0.0289
 6011SOL    HW118932   4.085   0.204   6.761 -1.8932  0.0346  1.1417
 6011SOL    HW218933   3.936   0.144   6.732 -0.5570 -2.9572  0.0261
 6012SOL     OW18934   3.924   3.547   4.804  0.1306 -0.1318  0.1923
 6012SOL    HW118935   3.965   3.600   4.731  1.0533 -1.8712 -0.6136
 6012SOL    HW218936   3.863   3.605   4.858 -0.8264  1.1430 -2.1337
 6013SOL     OW18937   5.704   0.113   1.996  0.3225 -0.3834 -0.5234
 6013SOL    HW118938   5.715   0.149   1.903 -0.9655 -0.9598 -0.9389
 6013SOL    HW218939   5.712   0.187   2.062  0.4376  0.1856 -1.1592
 6014SOL     OW18940   2.279   6.056   4.778  0.4692 -0.4910  0.1779
 6014SOL    HW118941   2.216   6.127   4.809 -0.5799  0.1283 -2.9606
 6014SOL    HW218942   2.287   5.985   4.848 -0.8344  1.2126  2.1614
 6015SOL     OW18943   0.512   4.523   3.288 -0.0078 -0.8160  0.2687
 6015SOL    HW118944   0.501   4.485   3.379 -2.1013  2.4938  1.5819
 6015SOL    HW218945   0.424   4.558   3.255  1.2809  0.8965 -1.6112
 6016SOL     OW18946   2.254   0.668   2.586  0.2944  0.0914 -0.2628
 6016SOL    HW118947   2.167   0.714   2.602  0.2626  0.4247 -1.2761
 6016SOL    HW218948   2.317   0.688   2.661 -0.2399  0.4998  0.0827
 6017SOL     OW18949   4.387   5.515   5.564  0.3006 -0.5164 -0.1221
 6017SOL    HW118950   4.468   5.563   5.531 -0.6063  0.5989 -0.7854
 6017SOL    HW218951   4.328   5.579   5.614 -0.2238 -1.2841  0.2616
 6018SOL     OW18952   3.796   5.526   5.152 -0.3364 -0.5381 -0.4426
 6018SOL    HW118953   3.758   5.506   5.243  0.7455 -2.6925 -0.3993
 6018SOL    HW218954   3.894   5.541   5.159 -0.5750  1.5810 -1.0060
 6019SOL     OW18955   0.694   5.803   0.607  0.2031 -0.2902 -0.0298
 6019SOL    HW118956   0.632   5.740   0.654 -1.0762  1.5044  0.7928
 6019SOL    HW218957   0.642   5.866   0.550  1.1100  1.9087  1.4454
 6020SOL     OW18958   0.107   4.158   6.178  0.2678  0.4236 -0.4659
 6020SOL    HW118959   0.021   4.110   6.161  0.7701 -1.9491  2.7945
 6020SOL    HW218960   0.184   4.104   6.142  0.6447  0.4579  0.2729
 6021SOL     OW18961   3.574   4.009   4.696 -0.1216 -0.3481  0.0827
 6021SOL    HW118962   3.629   4.065   4.636  3.4832 -0.6344  2.7648
 6021SOL    HW218963   3.606   3.914   4.693  0.0688 -0.4160  2.1695
 6022SOL     OW18964   2.891   4.963   1.511 -0.3389 -0.0093  0.1447
 6022SOL    HW118965   2.883   5.012   1.424 -0.4796  0.4694  0.4308
 6022SOL    HW218966   2.808   4.975   1.565 -0.2281 -0.2598  0.3750
 6023SOL     OW18967   2.430   1.956   0.401  0.1731  0.7348  0.3305
 6023SOL    HW118968   2.440   1.926   0.496 -1.4612  0.3032  0.3802
 6023SOL    HW218969   2.334   1.951   0.374  0.4383  2.0482 -0.9616
 6024SOL     OW18970   6.508   6.016   5.045  0.3710  0.4485  0.0484
 6024SOL    HW118971   6.529   5.976   5.134 -0.3662  0.0849  0.0706
 6024SOL    HW218972   6.584   6.001   4.982  0.3224 -0.5235  0.2145
 6025SOL     OW18973   5.310   2.720   0.899  0.2144 -0.4394  0.3314
 6025SOL    HW118974   5.330   2.807   0.944  2.9023 -0.9965  0.3684
 6025SOL    HW218975   5.278   2.738   0.805  0.0351  0.5943  0.5728
 6026SOL     OW18976   0.314   6.711   5.941 -0.5690 -0.0930  0.3430
 6026SOL    HW118977   0.376   6.720   6.019  0.4903 -0.2400 -0.4688
 6026SOL    HW218978   0.229   6.760   5.960  1.0512  3.0243  0.1405
 6027SOL     OW18979   1.390   4.341   5.995 -0.7153  0.3041  0.3969
 6027SOL    HW118980   1.400   4.274   5.922  1.1076  2.3336 -1.3329
 6027SOL    HW218981   1.331   4.303   6.067 -1.1732 -2.4196 -1.2779
 6028SOL     OW18982   5.337   2.732   6.549 -0.1049 -0.1423 -0.6215
 6028SOL    HW118983   5.248   2.740   6.592  0.2299 -1.7299  0.4586
 6028SOL    HW218984   5.409   2.744   6.618  0.5025  0.2957 -1.3172
 6029SOL     OW18985   1.508   4.544   5.718 -0.5404  0.0079  0.0924
 6029SOL    HW118986   1.414   4.534   5.749 -0.7089 -2.5644 -0.9784
 6029SOL    HW218987   1.519   4.632   5.672 -2.5529  0.1671 -0.1794
 6030SOL     OW18988   6.324   4.489   1.292  0.1616 -0.0140  0.5229
 6030SOL    HW118989   6.423   4.501   1.302  0.2691 -1.0679  0.9213
 6030SOL    HW218990   6.278   4.533   1.369  0.3554  0.0291  0.6161
 6031SOL     OW18991   0.917   1.583   5.735  0.0456  0.4757 -0.6879
 6031SOL    HW118992   0.967   1.567   5.820 -2.0615  3.3657  1.2794
 6031SOL    HW218993   0.979   1.624   5.667  1.4111 -0.5582 -0.1319
 6032SOL     OW18994   5.335   1.800   3.631 -0.4035  0.2690  0.4498
 6032SOL    HW118995   5.423   1.846   3.623 -1.1510  2.0412  1.8089
 6032SOL    HW218996   5.273   1.833   3.560 -0.7001  0.8174  0.9554
 6033SOL     OW18997   0.309   2.262   6.925  0.0404  0.0368  0.7001
 6033SOL    HW118998   0.397   2.297   6.957  0.3916  0.0358 -0.2268
 6033SOL    HW218999   0.318   2.165   6.902  0.3196  0.4609 -1.1574
 6034SOL     OW19000   5.072   0.022   0.487 -0.0772 -0.1830 -0.0524
 6034SOL    HW119001   5.082   0.078   0.569 -0.1153 -1.1911  0.6570
 6034SOL    HW219002   5.111   0.071   0.408 -1.3589  1.4172  0.2633
 6035SOL     OW19003   0.983   6.500   6.420  0.3172 -0.2531  0.3292
 6035SOL    HW119004   1.053   6.430   6.432  1.7076  0.8932 -0.6912
 6035SOL    HW219005   0.904   6.461   6.372  1.0936 -1.1168 -0.2894
 6036SOL     OW19006   0.045   3.260   4.585 -0.3520  0.7469 -0.5576
 6036SOL    HW119007   0.041   3.359   4.601  0.8310  0.6000  0.9187
 6036SOL    HW219008   0.076   3.215   4.669  0.6605 -0.7235 -1.6785
 6037SOL     OW19009   1.410   0.651   1.968  0.1518 -0.2796 -1.0212
 6037SOL    HW119010   1.328   0.666   1.913  1.5483  0.4763 -3.0028
 6037SOL    HW219011   1.385   0.604   2.053 -3.0485  3.9662  0.7496
 6038SOL     OW19012   3.680   1.267   6.678  0.8899  0.0484  0.6212
 6038SOL    HW119013   3.775   1.250   6.653  1.6269  0.9493  2.6225
 6038SOL    HW219014   3.628   1.293   6.596  2.3662 -0.3284 -0.4764
 6039SOL     OW19015   3.625   0.167   4.013 -0.1043 -0.1344  0.3284
 6039SOL    HW119016   3.644   0.089   4.073 -0.9526  0.0738  0.8865
 6039SOL    HW219017   3.528   0.190   4.018 -0.3133 -0.4220 -1.5210
 6040SOL     OW19018   4.275   0.143   5.627 -0.1228  0.5104  0.2130
 6040SOL    HW119019   4.237   0.235   5.623 -1.3234  0.0933  1.1049
 6040SOL    HW219020   4.297   0.120   5.722  1.5386  0.3949 -0.1824
 6041SOL     OW19021   3.408   1.993   6.080  0.7449 -0.4753  0.5789
 6041SOL    HW119022   3.490   1.974   6.134 -0.4943 -1.9605  2.0209
 6041SOL    HW219023   3.369   1.908   6.045 -1.0676  0.0043  1.2965
 6042SOL     OW19024   6.521   5.015   5.474 -0.0772  0.4983 -0.1177
 6042SOL    HW119025   6.526   4.916   5.488  1.5421  0.6282  0.3427
 6042SOL    HW219026   6.456   5.034   5.401 -1.2658 -0.8210  0.5411
 6043SOL     OW19027   1.273   2.483   1.686 -0.0831  0.0407 -0.1528
 6043SOL    HW119028   1.283   2.581   1.704  1.6629 -0.2529  0.6655
 6043SOL    HW219029   1.205   2.469   1.614  1.5585  2.0429 -2.2135
 6044SOL     OW19030   1.308   4.547   1.555  0.1887 -0.5277 -0.0349
 6044SOL    HW119031   1.275   4.519   1.645  0.1458  0.7634  0.3704
 6044SOL    HW219032   1.404   4.576   1.562  0.3837 -1.0331 -0.5380
 6045SOL     OW19033   0.258   0.401   5.622  0.7154 -0.5518 -0.0426
 6045SOL    HW119034   0.182   0.337   5.628  0.8494 -0.6290  1.0949
 6045SOL    HW219035   0.239   0.469   5.552  0.2471 -1.4064 -0.7561
 6046SOL     OW19036   3.109   1.097   6.565  0.3125 -0.0045  0.7274
 6046SOL    HW119037   3.055   1.019   6.597  0.2042 -0.5430 -0.6976
 6046SOL    HW219038   3.207   1.076   6.574  0.2817 -0.1652  0.6975
 6047SOL     OW19039   6.610   3.362   4.819  0.2260  0.0665 -0.1208
 6047SOL    HW119040   6.607   3.445   4.763  2.3133 -0.4203 -1.0548
 6047SOL    HW219041   6.678   3.300   4.782 -0.4782 -1.5963  1.2507
 6048SOL     OW19042   0.608   3.307   5.246 -0.1709 -0.0527  0.0594
 6048SOL    HW119043   0.692   3.325   5.195 -0.4505  3.0889  0.4938
 6048SOL    HW219044   0.532   3.298   5.182  0.2295 -1.4151 -0.2589
 6049SOL     OW19045   1.313   3.423   2.676 -0.1235  0.3555  0.0954
 6049SOL    HW119046   1.244   3.427   2.748  0.9903  0.4850  1.1953
 6049SOL    HW219047   1.402   3.405   2.717  0.4437 -0.1951 -1.3295
 6050SOL     OW19048   3.328   0.931   1.632  0.0916  0.5612  0.2813
 6050SOL    HW119049   3.317   0.971   1.723 -0.6755 -2.2206  1.5170
 6050SOL    HW219050   3.239   0.924   1.587  0.3844  1.3399 -0.4397
 6051SOL     OW19051   0.706   1.069   5.236  0.2260 -0.2329  0.4075
 6051SOL    HW119052   0.632   1.125   5.275 -0.2649 -0.7879  0.2793
 6051SOL    HW219053   0.771   1.129   5.189  0.6375  0.4116  1.7574
 6052SOL     OW19054   0.149   3.739   3.514 -0.1463  0.3769 -0.1697
 6052SOL    HW119055   0.248   3.742   3.502 -0.1692  1.6758 -0.2041
 6052SOL    HW219056   0.123   3.798   3.591 -1.0163  1.5038 -1.2696
 6053SOL     OW19057   6.609   6.897   3.370  0.3676  0.0930 -0.0812
 6053SOL    HW119058   6.659   6.818   3.408  0.6206 -0.9189 -2.3215
 6053SOL    HW219059   6.568   6.950   3.444  0.0260 -2.2520  1.5120
 6054SOL     OW19060   2.402   3.545   0.553 -0.0594  0.1915 -0.1513
 6054SOL    HW119061   2.391   3.585   0.462  1.0594  1.2524  0.1428
 6054SOL    HW219062   2.385   3.615   0.623  0.1160 -0.3283  0.4246
 6055SOL     OW19063   2.534   6.902   4.596  0.1634  0.1268  0.7783
 6055SOL    HW119064   2.484   6.955   4.528  0.8077  0.4039  0.5095
 6055SOL    HW219065   2.604   6.847   4.550  0.4210  0.1066  1.1910
 6056SOL     OW19066   2.866   6.373   2.064  0.0846 -0.6740 -0.6457
 6056SOL    HW119067   2.896   6.278   2.079  0.6156 -0.3795  0.2695
 6056SOL    HW219068   2.828   6.382   1.972 -0.6248 -1.9351 -0.4962
 6057SOL     OW19069   6.415   5.610   0.572 -0.2787  0.9280 -0.2437
 6057SOL    HW119070   6.398   5.595   0.670  0.7663 -0.0545 -0.1840
 6057SOL    HW219071   6.472   5.691   0.560  3.3281 -1.3043  0.3931
 6058SOL     OW19072   2.086   6.122   1.773  0.5635 -0.2679  0.4490
 6058SOL    HW119073   2.163   6.110   1.835 -0.4411 -1.9694  1.4641
 6058SOL    HW219074   2.001   6.128   1.826 -0.0867  1.0270 -0.6588
 6059SOL     OW19075   5.690   4.282   6.468  0.6084 -0.1778  0.0346
 6059SOL    HW119076   5.686   4.221   6.547  1.8203 -0.2289  0.0754
 6059SOL    HW219077   5.640   4.241   6.391  2.5509 -1.9337 -0.3880
 6060SOL     OW19078   6.079   6.237   5.127 -0.0776 -0.2215 -0.0428
 6060SOL    HW119079   6.160   6.201   5.082  0.4394 -1.6945  1.9149
 6060SOL    HW219080   6.064   6.188   5.213 -3.3572 -0.3233 -0.5605
 6061SOL     OW19081   6.816   6.645   4.610 -0.2982  0.2331 -0.7137
 6061SOL    HW119082   6.772   6.559   4.636 -1.3138  0.5595 -1.3312
 6061SOL    HW219083   6.915   6.631   4.605 -0.3933 -0.7237 -0.1487
 6062SOL     OW19084   6.539   3.053   4.255  0.3761 -0.8097  0.6747
 6062SOL    HW119085   6.557   2.971   4.310  0.9522 -0.0675  1.6294
 6062SOL    HW219086   6.472   3.032   4.184  2.2336 -2.7382 -0.6326
 6063SOL     OW19087   6.326   4.486   3.798  0.0586 -0.8890 -0.5614
 6063SOL    HW119088   6.280   4.501   3.885 -0.3871 -1.9866 -0.5998
 6063SOL    HW219089   6.338   4.388   3.782  2.5219 -0.6688 -0.5112
 6064SOL     OW19090   3.909   5.732   0.290  0.0017  0.0006 -0.1844
 6064SOL    HW119091   4.002   5.721   0.256  1.2064  1.2409  2.3829
 6064SOL    HW219092   3.912   5.771   0.382 -3.0980  0.6130 -0.2295
 6065SOL     OW19093   0.892   5.041   2.100  0.4047  0.1065  1.2437
 6065SOL    HW119094   0.827   5.048   2.024  1.0788  1.4327  0.7583
 6065SOL    HW219095   0.855   5.090   2.179  0.8877  1.0247  0.9066
 6066SOL     OW19096   5.739   1.254   4.931 -0.3048  0.0037  0.1397
 6066SOL    HW119097   5.721   1.269   5.029  1.4779 -0.2623  0.5494
 6066SOL    HW219098   5.746   1.156   4.913 -1.3692  0.0205 -0.4227
 6067SOL     OW19099   3.885   6.641   3.016 -0.0882  0.1331  0.1560
 6067SOL    HW119100   3.869   6.740   3.018 -0.2725  0.0981  1.3908
 6067SOL    HW219101   3.945   6.616   3.092  1.2723 -0.5103 -1.0876
 6068SOL     OW19102   2.087   6.679   3.058  0.2048  0.7220  0.0076
 6068SOL    HW119103   2.169   6.661   3.004 -0.9502  0.7420 -1.8316
 6068SOL    HW219104   2.047   6.766   3.031 -0.6921  0.4835  0.5137
 6069SOL     OW19105   6.229   5.285   3.235  0.4217 -0.0185  0.2225
 6069SOL    HW119106   6.215   5.263   3.331 -3.3208 -2.0994 -0.5890
 6069SOL    HW219107   6.164   5.355   3.207  1.8421  0.9765 -0.7339
 6070SOL     OW19108   4.292   0.577   5.082  0.1362 -0.4596  0.0641
 6070SOL    HW119109   4.336   0.665   5.066  1.2024 -0.8963  0.4336
 6070SOL    HW219110   4.205   0.590   5.130 -0.4212  0.4680 -1.1594
 6071SOL     OW19111   5.872   2.746   6.889  0.3619  0.2227  0.0859
 6071SOL    HW119112   5.956   2.783   6.926 -0.6070  0.7492  1.8717
 6071SOL    HW219113   5.863   2.650   6.916  0.9083 -0.1654 -1.0635
 6072SOL     OW19114   4.846   0.421   3.053 -0.5249 -0.4504 -0.0943
 6072SOL    HW119115   4.780   0.349   3.035 -0.0929 -0.7447 -0.5072
 6072SOL    HW219116   4.894   0.402   3.139  0.1617 -1.0856 -0.6099
 6073SOL     OW19117   0.116   4.515   1.513 -0.0733 -0.1570  0.5095
 6073SOL    HW119118   0.143   4.547   1.422 -1.4245 -3.0426 -1.0435
 6073SOL    HW219119   0.172   4.436   1.539 -0.7089 -0.2904  1.5289
 6074SOL     OW19120   1.398   3.968   3.471 -0.0133  0.0369 -0.5958
 6074SOL    HW119121   1.346   4.021   3.538  0.3811 -0.8557  0.4517
 6074SOL    HW219122   1.380   3.871   3.483  1.1266 -0.2335 -0.8682
 6075SOL     OW19123   5.189   2.419   2.692 -0.3349  0.0347  0.3879
 6075SOL    HW119124   5.159   2.438   2.599  0.0763  0.6191  0.3687
 6075SOL    HW219125   5.285   2.392   2.692  0.5547  2.8701  0.8776
 6076SOL     OW19126   6.990   2.228   2.470  0.2200 -0.1939  0.0240
 6076SOL    HW119127   6.943   2.206   2.385  0.8544  0.1187 -0.4230
 6076SOL    HW219128   6.936   2.198   2.548 -1.7289  1.9646 -0.3840
 6077SOL     OW19129   6.191   2.855   3.991 -0.7274 -0.4257 -0.5256
 6077SOL    HW119130   6.134   2.922   3.944 -0.1329  0.6514  0.2558
 6077SOL    HW219131   6.197   2.772   3.935 -0.4787  0.6169 -2.1097
 6078SOL     OW19132   1.997   2.810   6.134 -0.0852 -0.3065 -0.3774
 6078SOL    HW119133   1.929   2.840   6.067  0.8268  3.1130  0.0512
 6078SOL    HW219134   2.088   2.838   6.104  0.6606 -1.1875  0.9833
 6079SOL     OW19135   5.225   3.444   2.512  0.4714 -0.0149  0.2019
 6079SOL    HW119136   5.272   3.370   2.561 -0.9558 -0.5882  0.7695
 6079SOL    HW219137   5.126   3.433   2.523  0.2229  1.9467  0.2158
 6080SOL     OW19138   4.712   4.416   6.258 -0.0459  0.1300  0.0134
 6080SOL    HW119139   4.720   4.508   6.218  0.9884 -1.0305 -2.7481
 6080SOL    HW219140   4.619   4.382   6.246 -0.6123  1.0195  1.6485
 6081SOL     OW19141   5.198   5.580   0.202  0.6386  0.4973  0.3255
 6081SOL    HW119142   5.209   5.662   0.145 -0.4602 -0.9706 -2.1498
 6081SOL    HW219143   5.115   5.588   0.257 -0.4968  0.3469 -1.2958
 6082SOL     OW19144   3.674   4.087   2.916 -0.4356 -0.2783  0.6481
 6082SOL    HW119145   3.717   4.082   2.826  0.9694 -0.6368  1.3062
 6082SOL    HW219146   3.745   4.095   2.987 -1.4812 -0.4471  1.7570
 6083SOL     OW19147   3.810   6.878   4.887  0.1957  1.0549  0.0261
 6083SOL    HW119148   3.905   6.874   4.858  0.6737  2.4366  1.3206
 6083SOL    HW219149   3.754   6.910   4.810  0.7947  0.4981 -0.6592
 6084SOL     OW19150   2.845   2.209   2.340 -0.2132  0.4339  0.4168
 6084SOL    HW119151   2.879   2.230   2.248  0.9406 -0.6564  0.5773
 6084SOL    HW219152   2.792   2.287   2.374 -1.2965  0.5762 -1.4506
 6085SOL     OW19153   4.172   5.711   2.959  0.1448 -0.5639 -0.4163
 6085SOL    HW119154   4.207   5.638   3.017 -2.4302  0.2012  2.3176
 6085SOL    HW219155   4.155   5.792   3.014 -2.5036  0.2038 -2.1765
 6086SOL     OW19156   4.273   1.591   0.929  0.7405 -0.4436 -0.2310
 6086SOL    HW119157   4.322   1.678   0.930 -0.2686  0.1372  0.4001
 6086SOL    HW219158   4.338   1.516   0.945  1.3970  0.3245  0.9122
 6087SOL     OW19159   5.230   0.292   2.593  0.3135  0.8485  0.0822
 6087SOL    HW119160   5.244   0.254   2.684  0.2721 -0.4551 -0.4276
 6087SOL    HW219161   5.132   0.308   2.578 -0.1599 -2.2952 -0.9402
 6088SOL     OW19162   5.548   0.608   5.664 -0.1267  0.5363 -0.3008
 6088SOL    HW119163   5.574   0.697   5.701  0.4031  0.9546 -1.6130
 6088SOL    HW219164   5.450   0.594   5.678 -0.5391  2.0069 -1.3693
 6089SOL     OW19165   3.505   4.090   0.928 -0.1307 -0.0872  0.2702
 6089SOL    HW119166   3.539   4.124   1.016  0.5727 -1.1676  0.4343
 6089SOL    HW219167   3.579   4.046   0.878 -0.6445  0.0670 -0.6460
 6090SOL     OW19168   3.896   4.682   5.261 -0.6111  0.2404  0.7590
 6090SOL    HW119169   3.863   4.776   5.272  1.0072  0.6721  2.6388
 6090SOL    HW219170   3.995   4.683   5.248 -0.7935 -1.1532 -1.2882
 6091SOL     OW19171   5.979   0.667   2.753  0.3126  0.4082 -0.4234
 6091SOL    HW119172   6.069   0.709   2.761  0.7669 -0.0331 -2.5665
 6091SOL    HW219173   5.932   0.704   2.674 -0.4177 -1.0637 -0.7101
 6092SOL     OW19174   0.244   1.480   3.888  0.0311 -0.0380  0.5575
 6092SOL    HW119175   0.218   1.391   3.851  1.0245  0.0074 -0.3173
 6092SOL    HW219176   0.163   1.527   3.923 -0.6077 -0.9954  0.3977
 6093SOL     OW19177   1.780   0.417   5.212  0.6209 -0.1208 -0.1221
 6093SOL    HW119178   1.773   0.517   5.205  0.1511 -0.1517 -0.1151
 6093SOL    HW219179   1.734   0.375   5.134  1.1705 -0.3232 -0.3353
 6094SOL     OW19180   0.589   1.594   2.535 -0.3691 -0.2035  0.5568
 6094SOL    HW119181   0.539   1.527   2.480  1.4702 -0.7459 -0.5405
 6094SOL    HW219182   0.658   1.548   2.590 -1.1381  0.5071  2.1736
 6095SOL     OW19183   2.604   6.149   6.443 -0.1971  0.1005  0.3109
 6095SOL    HW119184   2.572   6.213   6.373 -2.5191  0.6746  1.7728
 6095SOL    HW219185   2.550   6.065   6.438 -1.2892  0.6358  2.1304
 6096SOL     OW19186   4.190   1.595   5.164 -0.3345  0.1553  0.4015
 6096SOL    HW119187   4.227   1.513   5.208 -0.5609 -0.7139 -1.0024
 6096SOL    HW219188   4.259   1.635   5.104 -0.0316  1.3416  1.4860
 6097SOL     OW19189   5.618   3.016   5.293  0.2806  0.3806 -0.5337
 6097SOL    HW119190   5.552   2.997   5.365  0.2518 -1.4383 -0.9895
 6097SOL    HW219191   5.664   3.103   5.311  0.7712 -0.3475  2.0423
 6098SOL     OW19192   5.216   5.069   3.030 -0.3653  0.3985 -0.1453
 6098SOL    HW119193   5.299   5.126   3.026 -1.0647  1.3571 -2.1133
 6098SOL    HW219194   5.236   4.979   2.993  0.4624 -0.3640  1.9712
 6099SOL     OW19195   1.485   5.961   5.121 -0.1019 -0.0178 -0.1437
 6099SOL    HW119196   1.407   5.977   5.061 -0.8438 -0.7633  0.6000
 6099SOL    HW219197   1.535   5.881   5.089  1.2282  1.2676 -1.4577
 6100SOL     OW19198   6.924   4.042   1.804  0.2386  0.2002 -0.0121
 6100SOL    HW119199   6.842   4.096   1.824 -0.5122 -0.7935 -0.3085
 6100SOL    HW219200   6.918   3.955   1.852  1.0808  0.0748 -0.1271
 6101SOL     OW19201   0.438   6.787   2.965  0.2251  0.4456  0.5492
 6101SOL    HW119202   0.430   6.768   2.867  2.1362 -1.3351  0.6720
 6101SOL    HW219203   0.423   6.703   3.017  0.5259  1.0866  1.7111
 6102SOL     OW19204   6.559   6.347   5.250  0.1728  0.1735 -0.1052
 6102SOL    HW119205   6.501   6.371   5.171 -1.2998 -0.2970  0.7906
 6102SOL    HW219206   6.585   6.251   5.244  2.8313  0.8912 -1.6739
 6103SOL     OW19207   1.488   4.821   2.916 -0.5416 -0.3900 -0.6266
 6103SOL    HW119208   1.526   4.886   2.851 -2.2432  2.2491  0.8543
 6103SOL    HW219209   1.547   4.816   2.997 -0.7490 -0.1903 -0.4630
 6104SOL     OW19210   4.862   3.987   1.822 -0.1487  0.0437  0.3020
 6104SOL    HW119211   4.902   3.897   1.840 -1.3347 -0.4464  0.6230
 6104SOL    HW219212   4.872   4.045   1.902 -0.6788 -0.3197  0.6444
 6105SOL     OW19213   2.901   2.932   0.093 -0.3064  0.3089  0.0934
 6105SOL    HW119214   2.894   2.835   0.116 -0.9449  0.3506  0.0950
 6105SOL    HW219215   2.939   2.981   0.171  0.0658  0.0565  0.0754
 6106SOL     OW19216   5.576   0.861   2.724  0.5152 -0.0201 -0.2382
 6106SOL    HW119217   5.613   0.802   2.797 -0.9607 -2.5695 -1.4213
 6106SOL    HW219218   5.512   0.926   2.764 -0.6307 -1.6817  0.7777
 6107SOL     OW19219   5.100   0.198   4.867 -0.8642 -0.1733 -0.7980
 6107SOL    HW119220   5.167   0.189   4.793  1.0334  2.0704  0.5180
 6107SOL    HW219221   5.115   0.126   4.934  1.5562  1.2221  0.3369
 6108SOL     OW19222   0.293   3.353   1.773  0.9103 -0.2428 -0.6945
 6108SOL    HW119223   0.249   3.265   1.758  0.6653 -0.5248  1.4196
 6108SOL    HW219224   0.227   3.416   1.814  1.8023  0.0695  0.3058
 6109SOL     OW19225   4.085   1.437   2.919 -0.2544 -0.6477 -0.2043
 6109SOL    HW119226   4.148   1.486   2.980 -0.0433 -1.5642  0.3243
 6109SOL    HW219227   4.131   1.357   2.881  0.3350  0.9608 -3.2116
 6110SOL     OW19228   1.356   4.279   2.362 -0.2462 -0.2930  0.2072
 6110SOL    HW119229   1.322   4.321   2.446  1.4902 -0.5960  1.1076
 6110SOL    HW219230   1.314   4.189   2.351 -0.4626 -0.2692  0.7660
 6111SOL     OW19231   1.150   1.826   2.954 -0.3193 -1.0794 -0.7825
 6111SOL    HW119232   1.130   1.753   2.887  0.9090 -2.3420  0.1824
 6111SOL    HW219233   1.248   1.837   2.963 -0.4824 -0.3454  0.2177
 6112SOL     OW19234   3.669   1.811   1.070  0.5095 -0.3813  0.0916
 6112SOL    HW119235   3.667   1.856   0.980 -0.8629  0.1355  0.3669
 6112SOL    HW219236   3.681   1.712   1.056  0.0784 -0.3388 -0.6791
 6113SOL     OW19237   6.909   4.247   3.397  0.0782 -0.5300  0.0880
 6113SOL    HW119238   7.006   4.227   3.416  0.4990  1.5556  0.4373
 6113SOL    HW219239   6.903   4.316   3.325 -1.0886  0.1814  0.8346
 6114SOL     OW19240   3.091   1.757   4.725 -0.4795  0.3115 -0.0714
 6114SOL    HW119241   3.159   1.788   4.791 -0.6158 -0.0989  0.2584
 6114SOL    HW219242   3.086   1.657   4.725  0.6123  0.2192 -1.7885
 6115SOL     OW19243   5.706   5.593   0.715  0.7637  0.0925  0.8902
 6115SOL    HW119244   5.772   5.590   0.640  0.9786  1.4681  1.0058
 6115SOL    HW219245   5.628   5.534   0.693  2.3424 -2.2320  1.1097
 6116SOL     OW19246   3.043   4.009   2.406 -0.3124 -0.0429  0.1515
 6116SOL    HW119247   2.963   4.068   2.399 -0.0301  0.3784  0.4090
 6116SOL    HW219248   3.111   4.052   2.465  1.4633  1.2142 -2.5786
 6117SOL     OW19249   0.574   1.261   5.440  0.2584  0.8097  0.0379
 6117SOL    HW119250   0.475   1.257   5.423 -0.2967  2.8000  2.2666
 6117SOL    HW219251   0.593   1.220   5.529  1.3588  1.0908 -0.0601
 6118SOL     OW19252   2.147   0.066   4.577 -0.2498 -0.0764  0.2531
 6118SOL    HW119253   2.146   0.166   4.589  0.1111 -0.1797  1.2446
 6118SOL    HW219254   2.080   0.040   4.507 -1.0008  0.7769  0.6364
 6119SOL     OW19255   1.213   5.632   4.226 -0.3308 -0.3318 -0.0733
 6119SOL    HW119256   1.253   5.540   4.223 -0.1344 -0.2279 -2.1588
 6119SOL    HW219257   1.247   5.681   4.307  2.0519 -1.0137 -0.5779
 6120SOL     OW19258   0.270   4.255   3.152 -1.1412  0.0528 -0.5622
 6120SOL    HW119259   0.255   4.242   3.054  0.8551  1.1811 -1.0644
 6120SOL    HW219260   0.207   4.324   3.187 -1.6058 -0.0797 -1.1166
 6121SOL     OW19261   0.490   6.276   2.586 -0.1914 -0.0552 -0.4670
 6121SOL    HW119262   0.437   6.200   2.548  1.7592 -1.2219 -1.0355
 6121SOL    HW219263   0.530   6.248   2.674  1.3322 -0.1004 -1.1338
 6122SOL     OW19264   3.806   3.210   5.810  0.2510 -0.1137  0.0944
 6122SOL    HW119265   3.870   3.176   5.741 -1.1196 -0.1314 -1.2100
 6122SOL    HW219266   3.729   3.255   5.765 -1.5218 -1.5851  1.5391
 6123SOL     OW19267   3.478   6.674   4.121 -0.0795 -0.0665 -0.2075
 6123SOL    HW119268   3.511   6.688   4.214  1.0361  1.6639 -0.8204
 6123SOL    HW219269   3.380   6.655   4.123  0.2239 -1.8264  1.4052
 6124SOL     OW19270   1.954   2.405   1.504 -0.1795 -0.1877 -0.0772
 6124SOL    HW119271   1.950   2.308   1.481 -0.1380  0.3834 -2.7772
 6124SOL    HW219272   1.867   2.449   1.483  0.7451  0.9005 -1.9012
 6125SOL     OW19273   2.207   1.483   4.706 -0.3498 -0.0191  0.3782
 6125SOL    HW119274   2.277   1.444   4.646  0.9124 -0.3747  2.0079
 6125SOL    HW219275   2.176   1.571   4.669  0.0780 -0.4161 -0.9857
 6126SOL     OW19276   3.543   0.396   4.366 -0.2150  0.2794 -0.0116
 6126SOL    HW119277   3.631   0.440   4.388  1.4407 -0.9053 -3.5261
 6126SOL    HW219278   3.504   0.440   4.285 -3.3085  1.1513  1.7883
 6127SOL     OW19279   0.752   4.452   0.529 -0.4582  0.0876 -0.0554
 6127SOL    HW119280   0.753   4.518   0.455 -0.5052  0.9292  0.6779
 6127SOL    HW219281   0.827   4.386   0.517  1.7636  2.2671  0.9379
 6128SOL     OW19282   3.153   5.798   2.058  0.0059  0.7660  0.8463
 6128SOL    HW119283   3.249   5.769   2.055  0.0338  0.9932 -0.8920
 6128SOL    HW219284   3.104   5.739   2.123  0.7726 -1.0942 -0.1668
 6129SOL     OW19285   0.997   3.592   4.862 -0.2911  0.7928 -0.1703
 6129SOL    HW119286   1.018   3.685   4.831 -0.6068  0.7208 -0.5996
 6129SOL    HW219287   1.081   3.538   4.864 -0.0547  1.1693  0.3665
 6130SOL     OW19288   0.179   5.502   3.797  0.4820 -0.1780  0.7114
 6130SOL    HW119289   0.137   5.416   3.766 -1.4362  0.1520  2.2156
 6130SOL    HW219290   0.232   5.542   3.721  0.7442 -2.2297 -0.2778
 6131SOL     OW19291   0.435   7.015   1.139  0.1391 -0.1025  0.9354
 6131SOL    HW119292   0.411   7.065   1.056  1.5428 -0.5118  0.2588
 6131SOL    HW219293   0.532   7.029   1.160  0.7955 -3.0616  0.3104
 6132SOL     OW19294   1.839   6.874   3.728  0.1844  0.4991 -0.1786
 6132SOL    HW119295   1.770   6.828   3.673 -0.4846  0.9132  0.3070
 6132SOL    HW219296   1.886   6.943   3.672 -0.9933  1.4357 -0.0505
 6133SOL     OW19297   4.230   5.075   5.093 -0.2727 -0.2664 -0.5413
 6133SOL    HW119298   4.164   5.089   5.019  1.2078  0.7237 -1.7366
 6133SOL    HW219299   4.267   4.982   5.087 -1.9681 -1.0492  0.5278
 6134SOL     OW19300   4.553   6.166   2.463 -0.1724  0.0171 -0.2416
 6134SOL    HW119301   4.600   6.252   2.443 -1.0590  0.1813 -1.8035
 6134SOL    HW219302   4.587   6.095   2.401 -0.5501 -0.3557 -0.0206
 6135SOL     OW19303   6.631   2.210   6.539  0.4052 -0.0136  0.5305
 6135SOL    HW119304   6.712   2.268   6.532 -0.1747  0.9009  1.2537
 6135SOL    HW219305   6.659   2.117   6.565  1.3306 -0.0632 -0.5470
 6136SOL     OW19306   5.897   4.799   0.041  0.1336 -0.1053  0.4293
 6136SOL    HW119307   5.980   4.828   0.088  2.0102 -0.8370 -2.2197
 6136SOL    HW219308   5.841   4.879   0.019  0.8220  0.5479  0.9879
 6137SOL     OW19309   4.431   0.252   6.115 -0.4751 -0.0731  0.5150
 6137SOL    HW119310   4.519   0.206   6.103 -0.1375  0.9494 -1.4607
 6137SOL    HW219311   4.397   0.281   6.025 -1.5815  1.8045  1.4908
 6138SOL     OW19312   4.972   3.731   1.950  0.4333  1.2687 -0.4356
 6138SOL    HW119313   4.928   3.655   1.902  2.5259 -1.6674  1.8901
 6138SOL    HW219314   5.058   3.754   1.904  1.1020  0.3309  0.3082
 6139SOL     OW19315   1.612   3.643   5.138 -0.4243 -0.6414  0.7314
 6139SOL    HW119316   1.634   3.684   5.226 -0.0627 -1.3117  0.9576
 6139SOL    HW219317   1.691   3.592   5.104 -0.4030 -0.0266 -0.1936
 6140SOL     OW19318   5.618   1.363   4.444 -0.0563 -0.0312  0.1346
 6140SOL    HW119319   5.668   1.383   4.529  0.1875  0.2789 -0.0821
 6140SOL    HW219320   5.682   1.359   4.368  0.0262 -2.3206  0.2433
 6141SOL     OW19321   6.380   6.401   4.659 -0.0565 -0.0348 -0.5485
 6141SOL    HW119322   6.458   6.379   4.717 -0.9419 -0.4479  0.5190
 6141SOL    HW219323   6.301   6.347   4.687 -1.2687  1.7407 -0.3563
 6142SOL     OW19324   1.608   3.470   3.817 -0.2885 -0.0889  0.7625
 6142SOL    HW119325   1.700   3.434   3.803 -0.3687 -0.2672  0.6864
 6142SOL    HW219326   1.552   3.401   3.863 -0.1710  0.3024  1.5143
 6143SOL     OW19327   1.759   2.722   3.509 -0.2177  0.1324  0.3448
 6143SOL    HW119328   1.748   2.792   3.438 -2.4323 -0.7376 -0.2558
 6143SOL    HW219329   1.774   2.633   3.467  3.5657  0.2406  1.1086
 6144SOL     OW19330   5.210   1.023   6.781  0.0801  0.3414  0.3863
 6144SOL    HW119331   5.246   1.113   6.805 -1.1315  1.2484 -1.0113
 6144SOL    HW219332   5.129   1.034   6.723 -0.2311 -1.6599  0.3699
 6145SOL     OW19333   4.868   1.529   4.351 -0.6045  0.0904  0.0738
 6145SOL    HW119334   4.964   1.502   4.339 -0.4312  1.1433 -1.1867
 6145SOL    HW219335   4.809   1.450   4.334 -0.0279 -0.1071 -1.0906
 6146SOL     OW19336   6.881   1.012   1.978 -0.2627  0.2871 -0.3457
 6146SOL    HW119337   6.816   1.063   2.035  0.3027  0.2707  0.3401
 6146SOL    HW219338   6.862   1.030   1.882 -1.0066  0.6199 -0.1472
 6147SOL     OW19339   6.228   1.358   6.332 -0.3134 -0.7770 -0.2745
 6147SOL    HW119340   6.128   1.356   6.335 -0.4269  1.8611  0.5011
 6147SOL    HW219341   6.257   1.385   6.240 -0.5486  1.9221  0.3552
 6148SOL     OW19342   2.563   5.414   3.613  0.2714 -0.4614 -0.6010
 6148SOL    HW119343   2.535   5.486   3.676 -1.4808 -1.7658  0.1757
 6148SOL    HW219344   2.658   5.429   3.586  0.4081  1.3007  0.6817
 6149SOL     OW19345   6.795   5.041   2.111 -0.3016 -0.1440  0.2847
 6149SOL    HW119346   6.849   4.990   2.179  0.3840  0.1420 -0.0350
 6149SOL    HW219347   6.761   5.125   2.152  2.1041  1.2224 -0.3517
 6150SOL     OW19348   2.145   3.646   0.298 -0.2512 -0.6281  0.1233
 6150SOL    HW119349   2.089   3.566   0.273 -0.4904  0.0008 -1.4807
 6150SOL    HW219350   2.242   3.623   0.287 -0.0450 -1.9198  3.4961
 6151SOL     OW19351   2.352   4.875   5.329 -0.0351  0.2934 -0.1101
 6151SOL    HW119352   2.333   4.829   5.243 -0.4271  0.9951 -0.4027
 6151SOL    HW219353   2.389   4.966   5.312  1.7102 -0.2603  0.4578
 6152SOL     OW19354   0.795   0.407   0.325 -0.3998 -0.2317  0.2209
 6152SOL    HW119355   0.731   0.402   0.401  1.1210 -2.1986  1.4707
 6152SOL    HW219356   0.811   0.503   0.301 -1.9531  0.3718  1.4356
 6153SOL     OW19357   0.195   1.184   4.653 -0.2370 -0.3004  0.0999
 6153SOL    HW119358   0.258   1.113   4.686  0.4910 -0.1583 -0.9167
 6153SOL    HW219359   0.238   1.274   4.664  0.3309 -0.2918 -1.7916
 6154SOL     OW19360   1.281   5.737   5.933 -0.0870 -0.4875  0.2690
 6154SOL    HW119361   1.267   5.836   5.943  0.5887 -0.2735 -0.7677
 6154SOL    HW219362   1.338   5.704   6.008 -2.3593 -0.5861  2.0695
 6155SOL     OW19363   3.029   1.293   3.372 -0.6731  0.4717 -0.4416
 6155SOL    HW119364   3.074   1.346   3.445 -1.1908 -0.4392  0.5636
 6155SOL    HW219365   3.092   1.223   3.339 -1.6434 -1.6017  1.8066
 6156SOL     OW19366   0.628   0.468   4.844 -0.6990 -0.3800  0.8122
 6156SOL    HW119367   0.710   0.433   4.798 -0.5030 -0.3149  1.1143
 6156SOL    HW219368   0.580   0.530   4.782 -0.4613 -0.3325  0.6734
 6157SOL     OW19369   3.684   6.836   3.640 -0.3530 -0.6757 -0.2784
 6157SOL    HW119370   3.637   6.917   3.608  1.5020  0.1377 -1.0899
 6157SOL    HW219371   3.663   6.759   3.580  2.0435  0.5176 -2.9049
 6158SOL     OW19372   0.437   3.907   3.033  0.5653  0.6672  0.1575
 6158SOL    HW119373   0.463   4.004   3.033 -0.2230  0.9114 -1.0738
 6158SOL    HW219374   0.353   3.896   3.087  1.2811  0.4533  1.2645
 6159SOL     OW19375   2.708   6.829   0.402  0.0979  0.1235 -0.3271
 6159SOL    HW119376   2.707   6.731   0.385 -2.1924  0.3089 -1.6325
 6159SOL    HW219377   2.651   6.849   0.482 -1.3909  0.5535 -1.4590
 6160SOL     OW19378   0.130   3.179   3.753  0.0501 -0.4232 -0.1770
 6160SOL    HW119379   0.104   3.142   3.663  1.8189 -0.8334 -0.5506
 6160SOL    HW219380   0.158   3.274   3.743 -0.8372 -0.1173  0.1512
 6161SOL     OW19381   0.813   6.971   1.749 -0.3875  0.2140 -1.0964
 6161SOL    HW119382   0.721   7.010   1.745 -0.6869 -0.4047 -0.5092
 6161SOL    HW219383   0.811   6.889   1.805  0.5460  0.2341 -1.0285
 6162SOL     OW19384   1.676   5.074   4.667 -0.6979  0.1801  0.3784
 6162SOL    HW119385   1.594   5.022   4.643 -0.6041 -0.2593  0.9904
 6162SOL    HW219386   1.708   5.046   4.757  0.3827  0.0220 -0.0358
 6163SOL     OW19387   2.527   0.126   1.906  0.0108  0.0288  1.1354
 6163SOL    HW119388   2.554   0.134   1.810 -0.2108 -1.5652  0.9180
 6163SOL    HW219389   2.604   0.091   1.960 -0.4520 -0.9397  1.1821
 6164SOL     OW19390   1.140   2.084   6.111  0.2339 -0.3611  0.1667
 6164SOL    HW119391   1.189   2.085   6.024  0.5016 -0.7606  0.3069
 6164SOL    HW219392   1.138   1.991   6.147 -1.3396 -0.5080 -0.2187
 6165SOL     OW19393   1.890   5.731   3.997  0.3052  0.3120  0.1356
 6165SOL    HW119394   1.872   5.694   4.088  0.8601 -2.1755 -0.6794
 6165SOL    HW219395   1.863   5.663   3.928  2.3289  1.0320 -1.4512
 6166SOL     OW19396   4.365   5.685   4.797 -0.2289 -0.0780 -0.3827
 6166SOL    HW119397   4.351   5.770   4.748  0.7595  0.1619 -0.2717
 6166SOL    HW219398   4.437   5.632   4.753  0.1971 -0.1730  0.3996
 6167SOL     OW19399   6.452   2.427   2.759  0.5285  0.3404  0.1705
 6167SOL    HW119400   6.511   2.494   2.714  0.3814 -0.0936 -0.6913
 6167SOL    HW219401   6.366   2.471   2.787 -0.5455  0.0644 -2.4269
 6168SOL     OW19402   6.211   4.700   3.648 -0.2709  0.3948  0.2265
 6168SOL    HW119403   6.121   4.689   3.607 -0.5160 -0.0261  0.8602
 6168SOL    HW219404   6.240   4.614   3.689 -0.0234  0.7816  0.8868
 6169SOL     OW19405   6.155   6.453   0.659 -0.5895  0.7307 -0.2995
 6169SOL    HW119406   6.121   6.543   0.686 -2.3586  0.0596 -0.1726
 6169SOL    HW219407   6.093   6.382   0.693  1.3595 -0.6351  0.5729
 6170SOL     OW19408   0.570   6.600   1.357 -0.0073  0.8229 -0.5982
 6170SOL    HW119409   0.576   6.530   1.287  2.0482  0.4569 -0.1136
 6170SOL    HW219410   0.662   6.624   1.389 -0.7978  2.0829  0.8832
 6171SOL     OW19411   6.464   1.590   5.372  0.3852  0.1219 -0.4103
 6171SOL    HW119412   6.513   1.511   5.407  0.3485 -0.6236 -1.9596
 6171SOL    HW219413   6.491   1.607   5.277  0.0326  1.6796 -0.2664
 6172SOL     OW19414   2.038   3.179   2.371  0.4182  0.1441  0.1182
 6172SOL    HW119415   1.984   3.098   2.394  0.5114  0.3111  0.9680
 6172SOL    HW219416   2.127   3.151   2.336 -0.7661 -0.1661 -2.8647
 6173SOL     OW19417   6.570   0.889   4.214 -0.1087 -0.8310  0.1297
 6173SOL    HW119418   6.471   0.879   4.223 -0.1312 -0.8828 -0.1551
 6173SOL    HW219419   6.611   0.902   4.304 -0.3151 -1.3403  0.2989
 6174SOL     OW19420   5.074   0.200   5.588  0.2024 -0.2130 -0.1071
 6174SOL    HW119421   5.118   0.121   5.546  0.0079 -0.0323 -0.6614
 6174SOL    HW219422   4.995   0.228   5.532  1.2511  1.4046 -0.8636
 6175SOL     OW19423   0.058   6.044   4.498 -0.3861 -0.1248 -0.4368
 6175SOL    HW119424   0.117   6.119   4.525  0.3127 -0.7291 -0.2534
 6175SOL    HW219425   0.110   5.959   4.498 -1.0977 -0.5722 -0.8944
 6176SOL     OW19426   2.023   4.896   5.927 -0.4359 -0.0539  0.2310
 6176SOL    HW119427   2.044   4.830   5.854 -1.0260  0.8218 -0.7663
 6176SOL    HW219428   2.100   4.902   5.990  0.7150  0.2327 -1.1402
 6177SOL     OW19429   4.390   6.684   1.493 -0.3218 -0.1205  0.2626
 6177SOL    HW119430   4.330   6.763   1.477  0.1857  0.0111 -1.1930
 6177SOL    HW219431   4.415   6.644   1.405  0.7053 -0.9519  0.9182
 6178SOL     OW19432   6.009   3.826   0.788  0.8658 -0.2272 -0.6603
 6178SOL    HW119433   5.935   3.825   0.720  0.6540  0.1092 -0.4363
 6178SOL    HW219434   6.086   3.881   0.753  0.5612  0.3553 -0.4253
 6179SOL     OW19435   6.432   1.313   5.810  0.2964  0.6118  0.1768
 6179SOL    HW119436   6.361   1.335   5.742  1.4292 -1.0937 -1.6787
 6179SOL    HW219437   6.409   1.228   5.857  0.2905  0.9586  0.8134
 6180SOL     OW19438   6.749   6.406   4.700 -0.4133 -0.1306 -0.4671
 6180SOL    HW119439   6.671   6.350   4.728 -1.3314  0.0727 -2.4210
 6180SOL    HW219440   6.834   6.355   4.716 -0.9468 -0.5670  1.2045
 6181SOL     OW19441   5.946   1.438   2.325 -0.3996  0.1595  0.2387
 6181SOL    HW119442   5.854   1.451   2.288 -0.7527  0.3795  1.1698
 6181SOL    HW219443   5.958   1.342   2.352 -1.1293  0.5520  2.0890
 6182SOL     OW19444   3.186   2.195   1.609  0.1747  0.0432 -0.4200
 6182SOL    HW119445   3.118   2.187   1.681  0.2087  0.8943 -0.2853
 6182SOL    HW219446   3.272   2.230   1.647 -0.0101  1.1354 -0.9702
 6183SOL     OW19447   1.722   2.574   2.402 -0.0131 -0.1728  0.1179
 6183SOL    HW119448   1.729   2.562   2.501  3.6175 -0.0310 -0.0024
 6183SOL    HW219449   1.693   2.667   2.381  0.8831  0.3306  1.0636
 6184SOL     OW19450   3.198   6.629   3.259  0.0388  0.4880  0.5101
 6184SOL    HW119451   3.147   6.549   3.227  0.3267 -0.0198  1.3221
 6184SOL    HW219452   3.159   6.711   3.217 -0.3827 -0.0491 -0.1763
 6185SOL     OW19453   5.346   3.902   5.538  0.2960 -0.0385 -0.1497
 6185SOL    HW119454   5.368   3.899   5.441 -1.2481 -0.9563 -0.5038
 6185SOL    HW219455   5.430   3.900   5.592  1.1941  1.1635 -1.4576
 6186SOL     OW19456   5.810   5.596   4.317 -0.0038 -0.5160 -0.8036
 6186SOL    HW119457   5.892   5.574   4.264  0.3305  1.0518 -0.9855
 6186SOL    HW219458   5.728   5.576   4.262  0.2577 -1.2872 -0.9329
 6187SOL     OW19459   6.810   2.912   6.520  0.1649 -0.6805  0.4509
 6187SOL    HW119460   6.752   2.989   6.547 -0.6768 -1.5209  1.0733
 6187SOL    HW219461   6.754   2.830   6.507  1.2061 -1.5059  1.0081
 6188SOL     OW19462   3.176   5.887   6.951  0.0647  0.2995 -0.0456
 6188SOL    HW119463   3.083   5.864   6.923 -0.2918  1.6522 -0.0791
 6188SOL    HW219464   3.236   5.809   6.935 -1.0483 -0.5829 -0.0628
 6189SOL     OW19465   5.507   4.702   6.437  0.6142  0.0325  0.1119
 6189SOL    HW119466   5.493   4.648   6.355  0.4605 -0.1383  0.2511
 6189SOL    HW219467   5.467   4.793   6.424  0.0817 -0.1825  0.2053
 6190SOL     OW19468   2.348   6.232   0.554  0.3457  0.0944  0.0468
 6190SOL    HW119469   2.376   6.186   0.639 -0.1279  0.4856  0.4187
 6190SOL    HW219470   2.411   6.307   0.536  0.4748 -0.0173  0.0217
 6191SOL     OW19471   5.818   0.801   4.317  0.2184  0.1786 -0.1514
 6191SOL    HW119472   5.882   0.803   4.241  1.4988  0.5990  0.8979
 6191SOL    HW219473   5.812   0.708   4.353  0.2642  0.1448 -0.2311
 6192SOL     OW19474   1.019   3.908   3.897 -0.3172 -0.1388 -0.1737
 6192SOL    HW119475   0.940   3.943   3.846  0.1914 -0.6598 -1.3390
 6192SOL    HW219476   1.053   3.980   3.958  0.4746  1.3529 -2.2435
 6193SOL     OW19477   6.829   1.953   1.884 -0.1827 -0.2105 -0.0789
 6193SOL    HW119478   6.884   1.991   1.810  0.8681 -0.4402  0.5607
 6193SOL    HW219479   6.881   1.957   1.969 -2.5437  3.3392  1.4888
 6194SOL     OW19480   5.879   6.831   4.516 -0.0991  0.6156  0.2452
 6194SOL    HW119481   5.845   6.905   4.574 -1.5488 -0.0302  0.2412
 6194SOL    HW219482   5.979   6.834   4.514 -0.1104  2.2273  0.6881
 6195SOL     OW19483   6.441   2.462   4.556  0.3264 -0.3608 -0.2762
 6195SOL    HW119484   6.530   2.453   4.601  0.3028 -1.2003 -0.3678
 6195SOL    HW219485   6.402   2.371   4.542 -0.0296 -0.0723 -1.2584
 6196SOL     OW19486   0.990   4.462   5.481 -0.0471  0.7442  0.3923
 6196SOL    HW119487   0.973   4.373   5.524  0.0754 -0.4258 -1.8562
 6196SOL    HW219488   0.922   4.479   5.410  1.7290  0.9798 -1.3221
 6197SOL     OW19489   0.478   1.919   2.873 -1.1261 -0.4325 -0.6151
 6197SOL    HW119490   0.484   1.887   2.967  0.9375  0.8883 -0.2302
 6197SOL    HW219491   0.560   1.891   2.822 -1.0573  0.8958 -1.3059
 6198SOL     OW19492   1.813   6.286   2.966  0.5237  0.0539  0.1551
 6198SOL    HW119493   1.803   6.306   3.063  0.9658  0.9973  0.0212
 6198SOL    HW219494   1.837   6.370   2.917 -2.6061  0.2924 -1.2230
 6199SOL     OW19495   4.351   4.995   2.809  0.0066  0.9741  0.3475
 6199SOL    HW119496   4.443   5.030   2.788  0.3017  0.0924  0.1153
 6199SOL    HW219497   4.287   5.028   2.740  0.9109 -1.6328 -1.9081
 6200SOL     OW19498   3.069   4.465   0.996 -0.1579  0.3948 -0.2329
 6200SOL    HW119499   3.031   4.383   0.952  0.2595 -0.0200  0.1587
 6200SOL    HW219500   3.126   4.437   1.073  2.1714  0.8597 -1.6622
 6201SOL     OW19501   6.864   4.069   0.089  0.6375 -0.0067 -0.6963
 6201SOL    HW119502   6.953   4.078   0.044  0.9259 -1.2335 -0.4033
 6201SOL    HW219503   6.819   3.985   0.058 -0.7667  0.9541 -1.4037
 6202SOL     OW19504   6.393   4.220   3.772 -0.5498 -0.4288 -0.0495
 6202SOL    HW119505   6.470   4.161   3.746  0.1393 -0.3557  1.7207
 6202SOL    HW219506   6.370   4.205   3.868 -2.7822 -0.4441 -0.5323
 6203SOL     OW19507   4.260   3.981   6.448 -0.1583  0.3750  0.3745
 6203SOL    HW119508   4.283   4.070   6.488 -0.2996  0.2364  0.7675
 6203SOL    HW219509   4.318   3.965   6.368 -0.6275  1.1390 -0.1369
 6204SOL     OW19510   1.878   5.792   0.838 -0.2706  0.1241  0.4915
 6204SOL    HW119511   1.826   5.800   0.753 -0.3251  0.3005  0.5428
 6204SOL    HW219512   1.821   5.820   0.915  0.1496  1.0759  0.4694
 6205SOL     OW19513   4.402   5.463   5.877  0.1233 -0.3166 -0.2256
 6205SOL    HW119514   4.456   5.532   5.925  1.5982 -1.0418 -0.7808
 6205SOL    HW219515   4.435   5.371   5.902 -2.0048 -0.8840  0.7498
 6206SOL     OW19516   4.219   5.225   6.761 -0.1491  0.1072  0.2558
 6206SOL    HW119517   4.120   5.212   6.765 -0.0948 -0.1069  1.8065
 6206SOL    HW219518   4.255   5.191   6.674 -1.1587 -1.8497  0.5548
 6207SOL     OW19519   1.744   1.288   4.396 -0.2341  0.5689  0.2819
 6207SOL    HW119520   1.669   1.310   4.458 -0.6193  0.5764 -0.1824
 6207SOL    HW219521   1.795   1.209   4.432 -0.8201  0.1963  0.2947
 6208SOL     OW19522   4.482   3.425   6.643  0.2258 -0.2069  0.2798
 6208SOL    HW119523   4.406   3.397   6.586  1.5633  0.7146 -2.0894
 6208SOL    HW219524   4.537   3.345   6.667  0.7146 -0.4224 -1.4183
 6209SOL     OW19525   3.596   6.783   6.840 -0.4748  0.0577  0.3192
 6209SOL    HW119526   3.505   6.824   6.830 -1.0463 -0.9549  1.2418
 6209SOL    HW219527   3.653   6.843   6.896 -0.5325  0.7366 -0.3310
 6210SOL     OW19528   0.978   4.586   1.274 -0.2359 -0.2361 -0.3485
 6210SOL    HW119529   0.932   4.500   1.252  1.6712 -1.1988 -0.7990
 6210SOL    HW219530   0.919   4.662   1.250 -2.1420 -1.3865  0.4141
 6211SOL     OW19531   4.028   3.687   4.609  0.5221 -0.0811 -0.0279
 6211SOL    HW119532   4.091   3.701   4.685 -1.3758  0.6795  1.5093
 6211SOL    HW219533   4.023   3.770   4.554  0.1833  0.1927  0.4081
 6212SOL     OW19534   2.905   5.375   0.163 -0.3448  0.5354  0.0487
 6212SOL    HW119535   2.991   5.424   0.177 -0.0688  0.1449 -0.2732
 6212SOL    HW219536   2.866   5.400   0.074 -1.0754  1.4698  0.6078
 6213SOL     OW19537   0.624   1.539   6.936  0.0062 -0.3515  0.0366
 6213SOL    HW119538   0.649   1.604   7.008  2.5709  0.1483 -1.1822
 6213SOL    HW219539   0.667   1.451   6.955 -0.6603 -0.7051 -0.0678
 6214SOL     OW19540   0.657   4.550   5.914  0.8272 -0.5190  0.5616
 6214SOL    HW119541   0.670   4.493   5.995  1.7609 -0.0999  0.7198
 6214SOL    HW219542   0.704   4.509   5.836  3.3838  1.0574  1.1587
 6215SOL     OW19543   3.978   6.618   2.352 -0.0523  0.0772  0.4652
 6215SOL    HW119544   4.011   6.524   2.355  1.1977  0.5002  0.3326
 6215SOL    HW219545   3.976   6.650   2.257  0.4043  0.4780  0.5841
 6216SOL     OW19546   2.340   1.245   0.831 -0.6232 -0.4804  0.3110
 6216SOL    HW119547   2.245   1.274   0.817 -0.7087 -0.5855  0.6766
 6216SOL    HW219548   2.367   1.183   0.757 -1.3412 -1.6858  1.0226
 6217SOL     OW19549   5.474   5.433   5.932  0.3123 -0.2058 -0.0405
 6217SOL    HW119550   5.473   5.341   5.893  0.1755 -0.6109  0.8883
 6217SOL    HW219551   5.553   5.443   5.993 -0.3608 -0.1431  0.8439
 6218SOL     OW19552   2.860   5.636   0.759 -0.3159 -0.3377 -0.2284
 6218SOL    HW119553   2.791   5.706   0.773  0.2583  0.1920  0.0406
 6218SOL    HW219554   2.862   5.608   0.663 -1.2565 -0.7519 -0.1408
 6219SOL     OW19555   2.607   3.012   0.935  0.2432 -0.1816  0.4939
 6219SOL    HW119556   2.574   2.991   0.843 -0.3881  1.4310  0.3043
 6219SOL    HW219557   2.543   2.976   1.002  0.1409 -0.4324  0.2637
 6220SOL     OW19558   2.986   2.858   0.934 -0.4121 -0.9245 -0.1467
 6220SOL    HW119559   2.918   2.923   0.900 -0.9191 -1.4947 -0.2439
 6220SOL    HW219560   2.982   2.775   0.880  0.1321 -1.0924  0.0700
 6221SOL     OW19561   0.691   3.535   6.563 -0.0575 -0.2734  0.1647
 6221SOL    HW119562   0.709   3.497   6.654 -0.2154 -0.3623  0.1591
 6221SOL    HW219563   0.705   3.464   6.494 -0.5581 -0.3796  0.1707
 6222SOL     OW19564   2.333   5.848   1.850 -0.1259 -0.1545 -0.0088
 6222SOL    HW119565   2.396   5.797   1.792  0.2116 -0.0676  0.2758
 6222SOL    HW219566   2.303   5.791   1.926  0.6471  0.2194  0.5931
 6223SOL     OW19567   3.662   3.970   0.712  0.5863  0.4214 -0.2734
 6223SOL    HW119568   3.690   3.927   0.798 -1.6660  1.6795  1.1996
 6223SOL    HW219569   3.600   3.909   0.663 -0.3205  0.7739  0.3999
 6224SOL     OW19570   1.545   3.379   5.877 -0.5215  0.0480 -0.0437
 6224SOL    HW119571   1.625   3.437   5.860  0.2700 -0.6833  1.0419
 6224SOL    HW219572   1.575   3.286   5.899 -1.7693 -0.8192 -1.7635
 6225SOL     OW19573   0.390   0.933   4.779  0.1230 -0.9518 -0.4934
 6225SOL    HW119574   0.479   0.889   4.792  0.4868 -0.0910  0.0590
 6225SOL    HW219575   0.317   0.866   4.792  0.6724 -1.5641 -0.4893
 6226SOL     OW19576   3.116   3.924   3.073 -0.1518 -0.4468  0.8751
 6226SOL    HW119577   3.090   3.976   3.155  0.1650 -0.3136  0.8925
 6226SOL    HW219578   3.199   3.872   3.092 -0.6967 -1.2950  0.9906
 6227SOL     OW19579   2.277   2.078   6.982  0.5903  0.0672 -0.1704
 6227SOL    HW119580   2.220   2.160   6.975  0.3490 -0.1863 -1.4201
 6227SOL    HW219581   2.369   2.104   7.013  0.1267  0.6098  0.8053
 6228SOL     OW19582   4.695   5.899   0.268  0.0572 -0.0376 -1.0802
 6228SOL    HW119583   4.671   5.916   0.363  1.2059  1.4213 -1.0126
 6228SOL    HW219584   4.732   5.807   0.259 -1.4283 -0.7267 -0.4105
 6229SOL     OW19585   4.687   6.605   3.685 -0.0370 -0.0929 -0.0925
 6229SOL    HW119586   4.682   6.607   3.785 -1.9531  0.9683 -0.1714
 6229SOL    HW219587   4.673   6.511   3.653 -0.9737 -0.1997  0.5943
 6230SOL     OW19588   0.717   5.637   5.471 -0.0594 -0.1037  0.4148
 6230SOL    HW119589   0.762   5.551   5.494 -0.7298 -0.6417 -0.2284
 6230SOL    HW219590   0.627   5.641   5.516  0.4356  0.7897  1.3823
 6231SOL     OW19591   2.654   3.460   6.781 -0.0393  0.0671 -0.0942
 6231SOL    HW119592   2.694   3.490   6.868  1.3453  1.1709 -1.0717
 6231SOL    HW219593   2.585   3.526   6.751  0.2881  0.2941 -0.3651
 6232SOL     OW19594   5.870   1.472   0.690  0.4827 -0.1965  0.4028
 6232SOL    HW119595   5.907   1.400   0.749 -1.1780 -0.0491  1.7066
 6232SOL    HW219596   5.851   1.435   0.599  3.0707 -0.4306 -0.1398
 6233SOL     OW19597   5.116   2.190   0.780 -0.1020  0.7999 -0.0469
 6233SOL    HW119598   5.065   2.221   0.860 -0.6517 -0.6332  0.1931
 6233SOL    HW219599   5.052   2.169   0.706  0.2859  0.6770 -0.3510
 6234SOL     OW19600   6.378   5.081   3.840 -0.2880  0.1228 -0.4537
 6234SOL    HW119601   6.424   5.115   3.758 -0.2623 -1.9052 -1.3476
 6234SOL    HW219602   6.397   5.142   3.917  1.1659  1.1088 -1.5366
 6235SOL     OW19603   1.172   6.959   3.670  0.0376 -0.6179 -0.3750
 6235SOL    HW119604   1.259   6.920   3.698  0.8291  0.5563 -1.1305
 6235SOL    HW219605   1.158   6.942   3.572 -0.4217 -0.4762 -0.3396
 6236SOL     OW19606   4.724   5.699   3.641 -0.0917  0.9114  0.5706
 6236SOL    HW119607   4.797   5.736   3.584 -0.7794 -0.0920 -1.0105
 6236SOL    HW219608   4.655   5.656   3.584 -0.2556 -1.1483  2.1880
 6237SOL     OW19609   0.758   2.018   3.204 -0.0982  0.2866 -0.4908
 6237SOL    HW119610   0.700   2.096   3.178 -2.7268 -0.6275  2.0610
 6237SOL    HW219611   0.707   1.933   3.188  0.5853 -0.5837  1.6070
 6238SOL     OW19612   4.757   2.845   4.815 -0.1566 -0.5528  0.2967
 6238SOL    HW119613   4.818   2.925   4.813  0.3031 -0.8897  0.6042
 6238SOL    HW219614   4.728   2.828   4.909  1.1728 -1.7997  0.5131
 6239SOL     OW19615   3.896   4.913   1.704 -0.2168  0.3630 -0.2836
 6239SOL    HW119616   3.934   4.998   1.739 -0.7770  1.5321 -2.3806
 6239SOL    HW219617   3.954   4.877   1.631 -0.2701 -0.7895  0.2210
 6240SOL     OW19618   5.340   4.948   0.966 -0.4543 -0.3382  0.3289
 6240SOL    HW119619   5.364   4.897   0.883 -0.3196 -1.2732  0.9218
 6240SOL    HW219620   5.242   4.938   0.984 -0.4237 -0.4096  0.4580
 6241SOL     OW19621   0.725   5.374   3.069 -0.0386  0.3045 -0.4170
 6241SOL    HW119622   0.664   5.295   3.063  0.3520  0.0439 -0.9929
 6241SOL    HW219623   0.818   5.343   3.087 -0.0295  0.6932  0.2630
 6242SOL     OW19624   3.018   3.208   6.281  0.1899 -0.3194  0.1856
 6242SOL    HW119625   3.020   3.303   6.249  0.9458 -0.6457 -0.8012
 6242SOL    HW219626   2.938   3.194   6.339 -0.1115  0.8344  0.0738
 6243SOL     OW19627   3.398   6.714   2.795 -0.2781 -0.6552  0.3155
 6243SOL    HW119628   3.455   6.769   2.856  2.1571 -0.4874 -1.9456
 6243SOL    HW219629   3.422   6.617   2.806 -1.0214 -0.7996  0.7525
 6244SOL     OW19630   6.332   1.794   2.351  0.4294  0.4362 -0.0995
 6244SOL    HW119631   6.249   1.748   2.384  0.1025 -0.3629 -1.9347
 6244SOL    HW219632   6.370   1.743   2.274  2.7586  0.6806  0.8188
 6245SOL     OW19633   3.635   6.738   0.738 -0.3151  0.1454  0.4309
 6245SOL    HW119634   3.552   6.688   0.762 -1.0735  0.6686 -0.9772
 6245SOL    HW219635   3.609   6.827   0.699  0.9397  0.6929  0.8161
 6246SOL     OW19636   5.941   1.902   2.188 -0.3307 -0.6229  0.5348
 6246SOL    HW119637   5.932   1.928   2.092  0.6683  0.3869  0.6867
 6246SOL    HW219638   5.947   1.802   2.195  0.9161 -0.6555 -0.5979
 6247SOL     OW19639   0.308   3.172   2.441  0.1927 -0.0183 -0.2302
 6247SOL    HW119640   0.381   3.219   2.392 -0.5141  0.5068 -0.7825
 6247SOL    HW219641   0.221   3.184   2.394 -0.5507  0.6658  1.2314
 6248SOL     OW19642   3.774   0.931   0.232 -0.1072 -0.5738 -0.0467
 6248SOL    HW119643   3.705   0.942   0.160 -0.3649  3.0994  0.5904
 6248SOL    HW219644   3.729   0.905   0.318 -1.1584  3.2743  0.7585
 6249SOL     OW19645   1.716   5.222   4.397 -0.4588 -0.1132  0.3831
 6249SOL    HW119646   1.811   5.202   4.370 -0.5026  0.4388 -0.2072
 6249SOL    HW219647   1.693   5.169   4.478 -0.1266 -1.3795 -0.3212
 6250SOL     OW19648   1.750   0.801   2.989 -0.2437  0.3436 -0.3259
 6250SOL    HW119649   1.697   0.735   3.042  0.6183 -0.1307 -0.0538
 6250SOL    HW219650   1.795   0.755   2.913  2.0722  0.1883  1.0647
 6251SOL     OW19651   1.823   3.472   3.559  0.1217  0.0084 -0.3545
 6251SOL    HW119652   1.917   3.474   3.593  0.5702  0.2127 -1.5486
 6251SOL    HW219653   1.797   3.564   3.528 -1.5544  0.6931  2.6896
 6252SOL     OW19654   6.994   1.878   0.431  0.3251 -0.4333  0.5143
 6252SOL    HW119655   7.031   1.828   0.509 -0.0044 -0.5761  0.5791
 6252SOL    HW219656   6.898   1.900   0.448  0.8736  1.6499  1.2203
 6253SOL     OW19657   4.175   2.976   6.299 -0.0440  0.0779  0.3775
 6253SOL    HW119658   4.246   2.977   6.228  0.1185 -0.5003  0.5205
 6253SOL    HW219659   4.110   3.050   6.282  0.8781  0.9511  0.5386
 6254SOL     OW19660   3.301   5.303   1.454 -0.4530 -0.0154  0.2973
 6254SOL    HW119661   3.295   5.243   1.534 -0.0465  1.1046  1.1985
 6254SOL    HW219662   3.230   5.373   1.459 -0.8584 -0.3390 -0.6877
 6255SOL     OW19663   1.662   0.164   1.141 -0.1344  0.2655 -0.1737
 6255SOL    HW119664   1.718   0.178   1.058 -0.6197  1.7670 -0.2771
 6255SOL    HW219665   1.577   0.215   1.132 -0.7438 -0.5673  0.7497
 6256SOL     OW19666   0.045   0.098   2.147  0.2466 -0.0131  0.0464
 6256SOL    HW119667   0.018   0.151   2.067 -3.7481 -0.2025  1.0661
 6256SOL    HW219668   0.036   0.154   2.230  0.7786 -0.8433  0.6832
 6257SOL     OW19669   5.614   5.265   2.529 -0.4162  0.7543 -0.3871
 6257SOL    HW119670   5.556   5.233   2.454 -0.3729  1.0735 -0.5621
 6257SOL    HW219671   5.656   5.187   2.575  0.0324  0.5783 -1.0826
 6258SOL     OW19672   1.401   1.074   4.271 -0.3455  0.0680 -0.4401
 6258SOL    HW119673   1.403   1.057   4.370 -0.3061 -1.9332 -0.7408
 6258SOL    HW219674   1.484   1.122   4.243  1.7897 -3.1177 -0.0508
 6259SOL     OW19675   4.815   2.276   1.881  0.3255 -0.0139 -0.3393
 6259SOL    HW119676   4.786   2.370   1.893  1.4301  0.1910  1.1367
 6259SOL    HW219677   4.739   2.214   1.901 -0.4506  0.5529 -1.4899
 6260SOL     OW19678   0.278   0.970   4.189 -0.0337 -0.7094  0.3839
 6260SOL    HW119679   0.321   0.979   4.279  0.4570  0.1850  0.0789
 6260SOL    HW219680   0.197   1.028   4.185  1.1513  0.9783 -0.4348
 6261SOL     OW19681   2.812   5.229   4.400  0.5022 -0.2031 -0.0053
 6261SOL    HW119682   2.790   5.199   4.492  2.7563  1.1420  1.0450
 6261SOL    HW219683   2.791   5.156   4.335 -3.0935 -0.4475  1.2175
 6262SOL     OW19684   3.696   6.978   2.135 -0.4533 -0.1254 -0.8958
 6262SOL    HW119685   3.702   7.060   2.192 -3.6954  0.8355 -1.7330
 6262SOL    HW219686   3.715   7.002   2.040  1.2516 -0.9691 -0.8038
 6263SOL     OW19687   5.843   4.467   1.547 -0.2141  0.3002 -0.8485
 6263SOL    HW119688   5.922   4.405   1.545 -0.2333  0.2528 -0.3399
 6263SOL    HW219689   5.796   4.463   1.459 -1.4271 -2.0148 -0.1924
 6264SOL     OW19690   3.066   3.240   5.621  0.0696 -0.0327 -0.2145
 6264SOL    HW119691   2.992   3.227   5.555  1.5547 -1.3020 -1.7124
 6264SOL    HW219692   3.034   3.216   5.713 -1.1963 -1.1259 -0.9150
 6265SOL     OW19693   6.611   2.040   2.636 -0.0144  0.1682  0.4345
 6265SOL    HW119694   6.522   2.070   2.673 -1.1230 -1.8719 -0.4514
 6265SOL    HW219695   6.638   1.954   2.680  0.1136 -0.7179 -1.3186
 6266SOL     OW19696   3.691   1.509   4.955  0.6093 -0.0701  0.7276
 6266SOL    HW119697   3.660   1.429   5.007  1.6960 -0.3150  1.0294
 6266SOL    HW219698   3.673   1.494   4.857 -2.2873  0.7829  1.0528
 6267SOL     OW19699   6.971   3.188   5.935  0.4203  0.0636 -0.5541
 6267SOL    HW119700   6.994   3.280   5.967  2.4548  0.0102 -1.6555
 6267SOL    HW219701   7.049   3.127   5.952 -0.9724 -1.5500  0.3841
 6268SOL     OW19702   6.612   5.910   4.273 -0.2109  0.3150 -0.2014
 6268SOL    HW119703   6.684   5.875   4.333  1.8257  1.4216 -1.8768
 6268SOL    HW219704   6.549   5.966   4.326  1.1448  0.7249  1.0560
 6269SOL     OW19705   2.910   0.948   4.244 -0.9104  0.5902 -0.0397
 6269SOL    HW119706   2.883   0.960   4.339 -0.9087 -1.2687  0.2362
 6269SOL    HW219707   2.852   0.879   4.201  0.1973  0.1365 -0.8707
 6270SOL     OW19708   2.265   0.101   0.102  0.0765  0.1354 -0.5458
 6270SOL    HW119709   2.323   0.030   0.062  0.7706  0.6014 -0.3825
 6270SOL    HW219710   2.202   0.134   0.032  0.4923  0.1283 -0.9348
 6271SOL     OW19711   2.966   5.699   0.102 -0.5563  0.2696 -0.1282
 6271SOL    HW119712   2.964   5.782   0.045  0.7372  1.6966  1.7519
 6271SOL    HW219713   2.874   5.663   0.112 -0.8878  0.2747 -2.6226
 6272SOL     OW19714   4.427   6.355   0.959 -0.1933  0.0342 -0.2447
 6272SOL    HW119715   4.349   6.362   1.020  0.2836 -0.2251  0.4057
 6272SOL    HW219716   4.396   6.356   0.864 -0.8260  2.0597 -0.0590
 6273SOL     OW19717   5.407   5.224   4.454 -0.3768  0.1274  0.3965
 6273SOL    HW119718   5.504   5.217   4.481 -0.3140  1.6136  0.6401
 6273SOL    HW219719   5.399   5.212   4.355  0.0147 -0.2516  0.4039
 6274SOL     OW19720   1.693   2.178   1.414  0.1511  0.1876  0.7896
 6274SOL    HW119721   1.684   2.277   1.430 -0.2723  0.3622 -0.3770
 6274SOL    HW219722   1.783   2.148   1.443  0.1809  0.8555  1.4362
 6275SOL     OW19723   3.644   5.218   3.124 -0.2808  0.2164  0.4945
 6275SOL    HW119724   3.722   5.186   3.070 -0.1761  1.2168  0.0249
 6275SOL    HW219725   3.677   5.250   3.213 -0.3779 -0.8749  0.9396
 6276SOL     OW19726   3.430   3.690   2.663 -0.0676 -0.1400  0.0405
 6276SOL    HW119727   3.341   3.645   2.670  0.4101 -1.0277  0.7658
 6276SOL    HW219728   3.447   3.716   2.568 -0.2114 -1.8770 -0.5018
 6277SOL     OW19729   1.679   6.994   0.251 -0.0416 -0.2037  0.8077
 6277SOL    HW119730   1.691   6.901   0.214  1.8827  0.4451 -0.4112
 6277SOL    HW219731   1.691   6.992   0.350  2.8805 -0.9301  0.5379
 6278SOL     OW19732   3.226   1.929   1.901  0.0053 -0.0519 -0.0628
 6278SOL    HW119733   3.153   1.989   1.934  0.9577  0.7623  0.6568
 6278SOL    HW219734   3.308   1.984   1.881  0.2351 -0.8599 -1.4505
 6279SOL     OW19735   5.447   4.570   2.253  0.6388  0.3232 -0.2542
 6279SOL    HW119736   5.437   4.487   2.198 -0.5899  0.2498  0.0516
 6279SOL    HW219737   5.359   4.616   2.259  1.2648  1.5417 -0.2379
 6280SOL     OW19738   5.689   2.449   5.293  0.1721 -0.4150 -0.1753
 6280SOL    HW119739   5.615   2.383   5.283  0.6128 -0.8299 -0.7688
 6280SOL    HW219740   5.687   2.514   5.217 -0.0548  0.0691  0.2288
 6281SOL     OW19741   3.828   3.660   4.206  0.0793  0.4205 -0.1237
 6281SOL    HW119742   3.885   3.598   4.152  0.2870 -0.5617  1.1579
 6281SOL    HW219743   3.795   3.612   4.288 -1.1102  1.5263  0.0805
 6282SOL     OW19744   4.574   1.874   3.202 -0.3587 -0.4439  0.3743
 6282SOL    HW119745   4.556   1.857   3.299 -2.7682 -0.7868 -0.0748
 6282SOL    HW219746   4.537   1.963   3.176  0.0928 -0.4422 -0.2743
 6283SOL     OW19747   4.122   5.226   0.791  0.5553  0.7854 -0.4223
 6283SOL    HW119748   4.136   5.246   0.888  0.7848 -0.1156 -0.2668
 6283SOL    HW219749   4.024   5.225   0.771  0.5165  1.3381 -0.2895
 6284SOL     OW19750   2.549   3.557   5.356  1.0066  0.6947  0.3135
 6284SOL    HW119751   2.483   3.631   5.346 -0.0389 -0.2738 -0.3314
 6284SOL    HW219752   2.532   3.488   5.285  1.1117 -0.7529  1.6199
 6285SOL     OW19753   1.605   1.032   2.938  0.3392  0.1379 -0.1445
 6285SOL    HW119754   1.677   1.101   2.947  0.7393 -0.5019  2.0665
 6285SOL    HW219755   1.644   0.941   2.953 -0.7995 -0.2751  0.4288
 6286SOL     OW19756   4.958   5.995   4.101  0.0423  0.4237 -0.3774
 6286SOL    HW119757   5.029   6.053   4.143  1.1539 -1.5891  0.6675
 6286SOL    HW219758   4.969   5.901   4.133 -4.2119  0.2882  1.2126
 6287SOL     OW19759   0.604   0.475   6.884 -0.1301  0.3911 -0.1246
 6287SOL    HW119760   0.674   0.404   6.883 -0.2155  0.3022  0.1792
 6287SOL    HW219761   0.613   0.532   6.802 -0.0291  0.0624 -0.3440
 6288SOL     OW19762   6.930   5.669   2.498 -0.4448 -0.0716  0.4204
 6288SOL    HW119763   6.994   5.697   2.571  0.2908 -2.4235  0.7722
 6288SOL    HW219764   6.947   5.723   2.416  2.3288 -0.8233  0.3924
 6289SOL     OW19765   2.501   0.661   5.164  0.2099 -0.2059 -0.0331
 6289SOL    HW119766   2.486   0.576   5.215 -0.7365 -0.2472 -0.3716
 6289SOL    HW219767   2.589   0.655   5.116  0.2392 -0.9191  0.0947
 6290SOL     OW19768   4.918   6.830   0.959  0.9535 -0.5801  0.3941
 6290SOL    HW119769   4.953   6.919   0.928 -1.4264  0.7694  1.3643
 6290SOL    HW219770   4.917   6.767   0.881 -0.5490  1.3078 -1.2419
 6291SOL     OW19771   0.598   3.669   6.969 -0.6668  0.4565  0.2098
 6291SOL    HW119772   0.666   3.737   6.996 -0.1862  0.9255 -1.9968
 6291SOL    HW219773   0.628   3.579   7.001  0.7590  0.7303 -0.2776
 6292SOL     OW19774   2.171   2.402   1.312  0.0966  0.3624 -0.1516
 6292SOL    HW119775   2.132   2.326   1.259  1.6120 -1.4722  1.2359
 6292SOL    HW219776   2.105   2.430   1.382 -1.0924  1.4305 -1.6326
 6293SOL     OW19777   4.140   1.843   6.380  0.6379 -0.4868 -0.7634
 6293SOL    HW119778   4.228   1.832   6.427  0.5564 -0.3817 -0.5875
 6293SOL    HW219779   4.156   1.845   6.281  1.2951  3.2691 -0.7228
 6294SOL     OW19780   6.361   3.801   5.370 -0.0426 -0.4652  0.0489
 6294SOL    HW119781   6.392   3.892   5.340  0.1642 -0.5228  0.0844
 6294SOL    HW219782   6.350   3.742   5.291 -1.8886  0.1015 -0.1518
 6295SOL     OW19783   3.785   3.642   6.111  0.9527  0.0968 -0.5554
 6295SOL    HW119784   3.770   3.700   6.192  2.6069  0.6250 -0.5899
 6295SOL    HW219785   3.737   3.556   6.123  0.1418  0.6564  0.4333
 6296SOL     OW19786   0.192   1.977   0.029  0.2848  0.4107  0.4430
 6296SOL    HW119787   0.210   1.906  -0.040 -0.0999  0.7015  0.0332
 6296SOL    HW219788   0.189   1.936   0.120  1.6858  0.1448  0.3961
 6297SOL     OW19789   4.398   1.047   0.430  0.0290  0.0581 -0.5125
 6297SOL    HW119790   4.477   0.987   0.439 -0.3140 -0.2097  0.9771
 6297SOL    HW219791   4.428   1.136   0.394  0.7825 -0.4693 -1.2199
 6298SOL     OW19792   6.856   1.850   5.388 -0.1672  0.2205  0.1800
 6298SOL    HW119793   6.901   1.847   5.299 -0.1614  1.1697  0.1447
 6298SOL    HW219794   6.894   1.925   5.443  0.1193 -0.6050  1.1471
 6299SOL     OW19795   3.363   5.492   1.885 -0.1350 -0.0120  0.0700
 6299SOL    HW119796   3.272   5.508   1.847 -0.4804  2.8696  1.7663
 6299SOL    HW219797   3.354   5.445   1.973  0.1527 -0.8236 -0.3225
 6300SOL     OW19798   6.121   4.175   3.725  0.4798 -0.1724  0.2541
 6300SOL    HW119799   6.215   4.197   3.752  0.4399  1.0216 -0.5142
 6300SOL    HW219800   6.062   4.176   3.806  0.5040  2.6279  0.3350
 6301SOL     OW19801   6.645   4.953   0.504  0.1808  0.0363  0.4379
 6301SOL    HW119802   6.564   5.006   0.528  0.1952 -0.1551  0.9370
 6301SOL    HW219803   6.624   4.855   0.509 -0.1654 -0.0217 -1.5960
 6302SOL     OW19804   4.771   1.195   4.729  0.1741 -0.3401  0.5037
 6302SOL    HW119805   4.723   1.194   4.641  0.1639 -0.8598  0.5132
 6302SOL    HW219806   4.704   1.192   4.803  0.0590  2.2161  0.5966
 6303SOL     OW19807   0.595   5.174   4.425  0.5321 -0.4987 -0.1318
 6303SOL    HW119808   0.611   5.087   4.471 -0.9111 -1.2618 -0.9839
 6303SOL    HW219809   0.497   5.196   4.427  0.8928  1.2122  0.2281
 6304SOL     OW19810   6.888   2.452   0.115 -0.6672  0.4643 -0.1823
 6304SOL    HW119811   6.946   2.439   0.034 -0.3880 -1.2168  0.2512
 6304SOL    HW219812   6.890   2.549   0.142  0.2918  0.8071 -1.3853
 6305SOL     OW19813   6.689   6.475   3.062 -0.0156  0.0402  0.2613
 6305SOL    HW119814   6.786   6.450   3.068  1.0979  3.4580 -1.1165
 6305SOL    HW219815   6.679   6.573   3.077 -3.1639 -0.0640 -0.5928
 6306SOL     OW19816   2.696   3.907   6.183 -0.6025  0.4323  0.1821
 6306SOL    HW119817   2.740   3.985   6.139 -0.9938  1.0996  0.9583
 6306SOL    HW219818   2.738   3.822   6.150  0.3633  0.9983 -0.0664
 6307SOL     OW19819   1.537   2.033   1.681 -0.1365  0.3968 -0.5811
 6307SOL    HW119820   1.586   2.038   1.593 -0.2183  0.4793 -0.6220
 6307SOL    HW219821   1.449   2.080   1.673  0.3510  1.4219 -0.1173
 6308SOL     OW19822   6.215   2.698   3.057 -0.0896  0.6559 -0.0204
 6308SOL    HW119823   6.134   2.699   3.115  1.4493  1.1135  2.2248
 6308SOL    HW219824   6.265   2.612   3.071  0.8249  1.1962  0.0968
 6309SOL     OW19825   0.475   5.104   5.854  0.2280  0.1086 -0.2690
 6309SOL    HW119826   0.528   5.181   5.890 -1.2934  2.0116 -1.8792
 6309SOL    HW219827   0.467   5.112   5.755 -2.5135 -0.3812 -0.1698
 6310SOL     OW19828   1.341   1.223   6.349 -0.0942  0.0449  0.6806
 6310SOL    HW119829   1.269   1.198   6.414  0.0368 -2.2116  0.0145
 6310SOL    HW219830   1.320   1.186   6.259  1.5580 -0.0514  0.3023
 6311SOL     OW19831   2.926   4.962   7.007 -0.2137  0.5678  0.2302
 6311SOL    HW119832   3.011   5.011   7.029  0.0475 -0.1470  0.8567
 6311SOL    HW219833   2.919   4.950   6.908  0.8828 -0.1724  0.2272
 6312SOL     OW19834   5.025   5.723   5.939  0.0400 -0.3589 -1.1217
 6312SOL    HW119835   5.077   5.677   5.867 -0.1447 -1.7111 -0.4320
 6312SOL    HW219836   4.930   5.691   5.937  0.4046 -1.7353  0.7539
 6313SOL     OW19837   3.458   5.200   2.622  0.2214 -0.0739  0.0758
 6313SOL    HW119838   3.481   5.287   2.667  0.9449 -0.7234  1.0178
 6313SOL    HW219839   3.422   5.136   2.691 -2.1264  0.0722 -0.9238
 6314SOL     OW19840   0.895   2.408   4.210  0.3648 -0.2126  0.6941
 6314SOL    HW119841   0.958   2.392   4.134  1.1585 -1.5300  1.5774
 6314SOL    HW219842   0.801   2.416   4.175  1.0417  2.5237 -0.7152
 6315SOL     OW19843   2.032   5.725   0.145 -0.5541 -0.3080 -0.1219
 6315SOL    HW119844   2.121   5.681   0.144 -0.5536 -0.3140  0.1727
 6315SOL    HW219845   2.044   5.825   0.147 -0.5286 -0.3132  1.7422
 6316SOL     OW19846   0.913   5.022   3.572 -0.4558  0.3062 -0.4330
 6316SOL    HW119847   0.957   4.970   3.499 -2.2381 -1.2389 -0.4896
 6316SOL    HW219848   0.908   4.965   3.655 -0.2846  1.2994  0.2799
 6317SOL     OW19849   3.084   2.711   5.840  0.3389  0.5956 -0.2725
 6317SOL    HW119850   3.113   2.628   5.792  3.0796  1.0317  0.4780
 6317SOL    HW219851   3.067   2.784   5.773  0.1637  0.0894 -0.7895
 6318SOL     OW19852   0.487   6.165   4.074  0.1666  0.1319 -0.9185
 6318SOL    HW119853   0.584   6.185   4.069  1.5334 -3.5591  3.6564
 6318SOL    HW219854   0.458   6.162   4.169 -3.0107 -4.0604 -1.7006
 6319SOL     OW19855   3.447   6.725   4.718  0.1759 -0.1075 -0.0140
 6319SOL    HW119856   3.456   6.764   4.809 -3.2675  0.1676  0.3581
 6319SOL    HW219857   3.479   6.792   4.650  0.8941  0.4877  0.8818
 6320SOL     OW19858   0.746   0.977   7.005  0.0708  0.0475 -0.4882
 6320SOL    HW119859   0.742   1.056   6.943 -1.2381 -0.5480 -1.2074
 6320SOL    HW219860   0.654   0.953   7.033  0.4889 -1.0186  0.0025
 6321SOL     OW19861   1.390   3.629   2.937 -0.3493 -0.4487 -0.4594
 6321SOL    HW119862   1.437   3.662   3.018  0.8720  0.6808 -1.5845
 6321SOL    HW219863   1.403   3.530   2.928  0.8604 -0.3300 -0.1258
 6322SOL     OW19864   4.750   0.699   3.339  0.1486  0.2203  0.3167
 6322SOL    HW119865   4.676   0.644   3.375  0.0006  0.6415  0.6732
 6322SOL    HW219866   4.838   0.657   3.363  0.0312 -0.1958  0.0249
 6323SOL     OW19867   2.598   1.793   5.085  0.3112 -0.0193 -0.0100
 6323SOL    HW119868   2.677   1.841   5.122  1.5872 -2.1070  0.1457
 6323SOL    HW219869   2.551   1.851   5.018  1.1408  1.7674  0.8903
 6324SOL     OW19870   1.175   4.193   5.545 -0.1034  0.2936 -0.4446
 6324SOL    HW119871   1.245   4.265   5.539 -0.3922  0.5130 -1.3023
 6324SOL    HW219872   1.202   4.116   5.487 -0.6600  0.4563 -0.9255
 6325SOL     OW19873   2.470   1.921   0.670 -0.5220  0.4914 -0.4559
 6325SOL    HW119874   2.408   1.843   0.660 -1.2499  1.1769 -1.6166
 6325SOL    HW219875   2.464   1.957   0.763 -1.1660 -0.0283 -0.2840
 6326SOL     OW19876   3.500   6.461   2.672  0.4802  0.0651 -0.0086
 6326SOL    HW119877   3.571   6.419   2.728  1.1392 -0.2793 -1.0792
 6326SOL    HW219878   3.541   6.501   2.590 -0.6150 -0.6792 -0.9545
 6327SOL     OW19879   1.334   5.043   5.091 -0.6863  0.0393 -0.0111
 6327SOL    HW119880   1.333   4.946   5.116 -0.3970  0.5411  2.2097
 6327SOL    HW219881   1.255   5.088   5.132 -1.0083  0.7012 -1.3224
 6328SOL     OW19882   2.665   4.620   6.693  0.8483  0.6986 -0.4454
 6328SOL    HW119883   2.720   4.539   6.673 -0.2461 -0.0988 -0.3212
 6328SOL    HW219884   2.655   4.630   6.792  1.5658  1.4049 -0.4346
 6329SOL     OW19885   2.634   5.154   5.490 -0.2110  0.7286 -0.1773
 6329SOL    HW119886   2.572   5.223   5.454 -0.7238 -0.6024 -2.0245
 6329SOL    HW219887   2.676   5.187   5.575 -1.6777  2.5798 -0.1143
 6330SOL     OW19888   1.199   6.551   2.568 -0.0537 -0.0563 -0.3250
 6330SOL    HW119889   1.197   6.498   2.483 -0.1112 -0.7617  0.1024
 6330SOL    HW219890   1.158   6.496   2.642  0.5632  0.2945  0.2916
 6331SOL     OW19891   0.488   2.155   1.532  0.4675  0.0001  0.5206
 6331SOL    HW119892   0.419   2.113   1.591 -0.8445 -0.3499 -1.1854
 6331SOL    HW219893   0.447   2.232   1.483  1.7981  0.8767  0.7509
 6332SOL     OW19894   3.104   3.058   6.075 -0.9265  0.7436  0.1309
 6332SOL    HW119895   3.078   3.108   6.158 -2.1009 -0.4993  0.5404
 6332SOL    HW219896   3.036   2.988   6.056  1.7071 -2.2255  0.8474
 6333SOL     OW19897   1.741   2.844   5.431  0.2787 -0.4615 -0.4546
 6333SOL    HW119898   1.813   2.874   5.369 -1.1110  0.3602 -1.7658
 6333SOL    HW219899   1.653   2.848   5.384 -0.5350 -2.3971  0.7629
 6334SOL     OW19900   1.859   3.638   1.957 -0.0308 -0.4252 -0.1303
 6334SOL    HW119901   1.829   3.550   1.921 -0.3734  0.4423 -2.0869
 6334SOL    HW219902   1.892   3.695   1.882 -1.7534  1.8689  0.7294
 6335SOL     OW19903   5.402   1.962   4.681 -0.1522  0.9739  0.4457
 6335SOL    HW119904   5.493   1.981   4.642 -0.0042  0.0073  0.2907
 6335SOL    HW219905   5.384   2.026   4.755 -0.1846  2.4807 -0.7972
 6336SOL     OW19906   4.293   5.202   2.990  0.5329 -0.4259 -0.0718
 6336SOL    HW119907   4.330   5.121   2.942 -0.7267 -0.6551 -0.6953
 6336SOL    HW219908   4.317   5.284   2.938  2.0813 -0.3365  0.7233
 6337SOL     OW19909   4.734   1.126   2.746 -0.1858 -0.1090 -0.0854
 6337SOL    HW119910   4.752   1.204   2.687  0.0098  1.8165  2.3647
 6337SOL    HW219911   4.641   1.091   2.728 -0.7132  1.4249 -0.4531
 6338SOL     OW19912   1.450   4.192   5.788  0.0694  0.4944 -0.0409
 6338SOL    HW119913   1.502   4.114   5.821 -0.5590  0.6941  1.4680
 6338SOL    HW219914   1.511   4.254   5.738  1.2307  0.5809  1.4450
 6339SOL     OW19915   2.753   2.030   4.932  0.0878  0.2563  0.1044
 6339SOL    HW119916   2.654   2.015   4.937  0.3419 -1.2715  1.1588
 6339SOL    HW219917   2.799   1.943   4.913  1.3485  0.5869  1.5088
 6340SOL     OW19918   2.554   5.704   5.964 -0.4351  0.2914 -0.0758
 6340SOL    HW119919   2.574   5.620   6.016  0.6396  0.3750 -0.3252
 6340SOL    HW219920   2.457   5.725   5.971 -0.2740  0.5203  2.2465
 6341SOL     OW19921   5.919   4.918   2.039 -0.4519  0.5886  0.5739
 6341SOL    HW119922   5.868   5.003   2.047 -2.3743 -0.5852  1.4524
 6341SOL    HW219923   5.929   4.876   2.130  0.7756  0.0171  0.2110
 6342SOL     OW19924   0.513   5.896   6.510 -0.3164  0.1262 -0.2491
 6342SOL    HW119925   0.431   5.839   6.517  0.3107 -0.7972 -0.2193
 6342SOL    HW219926   0.548   5.893   6.416  0.7057 -0.9852  0.1350
 6343SOL     OW19927   0.376   3.371   4.511  0.5749 -0.2946 -0.5483
 6343SOL    HW119928   0.320   3.316   4.573  0.6034 -0.1227 -0.3673
 6343SOL    HW219929   0.334   3.371   4.421  0.4471 -0.4182 -0.4899
 6344SOL     OW19930   0.465   2.868   2.829 -0.0149 -0.0834 -0.1217
 6344SOL    HW119931   0.414   2.919   2.760 -1.3955 -2.7950 -1.2536
 6344SOL    HW219932   0.405   2.846   2.906  1.0149  1.3127  1.1366
 6345SOL     OW19933   4.589   4.108   6.495  0.8260  0.4650  0.6698
 6345SOL    HW119934   4.503   4.154   6.517 -0.7829 -1.7165 -0.7505
 6345SOL    HW219935   4.642   4.097   6.579 -0.1620  1.9902  1.5551
 6346SOL     OW19936   2.151   3.017   2.152  0.5263 -0.0159 -0.0972
 6346SOL    HW119937   2.115   3.107   2.130  0.8264  0.1372  0.0274
 6346SOL    HW219938   2.182   2.971   2.069  0.3097 -0.0322 -0.1687
 6347SOL     OW19939   1.057   6.974   1.382 -0.1598  0.1342 -0.4878
 6347SOL    HW119940   0.966   6.954   1.347  0.7958 -2.1671 -1.8959
 6347SOL    HW219941   1.051   7.003   1.478 -2.2418 -1.5658 -0.0417
 6348SOL     OW19942   2.715   3.467   1.757  0.6294 -0.1214 -0.3427
 6348SOL    HW119943   2.760   3.553   1.784  1.9846 -0.4777 -1.3845
 6348SOL    HW219944   2.627   3.460   1.804  1.3255  0.9442  1.2057
 6349SOL     OW19945   4.570   1.851   3.468 -0.4204 -0.4357  0.1874
 6349SOL    HW119946   4.530   1.872   3.558  1.0392 -2.2723  1.3268
 6349SOL    HW219947   4.638   1.778   3.478  1.6863  1.0877 -2.0029
 6350SOL     OW19948   2.928   1.516   6.896  0.2843  0.4788  0.0190
 6350SOL    HW119949   2.962   1.434   6.941  0.4409  1.7055  2.2379
 6350SOL    HW219950   2.838   1.540   6.933  0.0253  1.0784 -0.9404
 6351SOL     OW19951   1.403   1.146   4.996  0.0351 -0.1433 -0.2158
 6351SOL    HW119952   1.414   1.245   4.992 -0.5711  0.0172  1.5223
 6351SOL    HW219953   1.484   1.105   5.038 -0.5891 -0.1558  1.0226
 6352SOL     OW19954   3.558   0.700   1.981  0.8752 -0.0555 -0.1473
 6352SOL    HW119955   3.588   0.795   1.986  2.1484 -0.3759 -1.0864
 6352SOL    HW219956   3.465   0.692   2.016  0.8846  1.4677  0.2793
 6353SOL     OW19957   4.072   6.839   0.094  0.9978 -0.4958 -0.1332
 6353SOL    HW119958   4.005   6.765   0.102  0.2282  0.3421  1.9922
 6353SOL    HW219959   4.067   6.879   0.003 -1.2564 -0.6358 -0.1368
 6354SOL     OW19960   6.906   3.737   6.825  0.1382  0.3663 -0.1094
 6354SOL    HW119961   6.831   3.709   6.886 -0.0734  1.4786  0.1729
 6354SOL    HW219962   6.871   3.747   6.732  0.2287 -0.3466 -0.2230
 6355SOL     OW19963   1.951   6.209   0.417 -0.5110 -0.7412  0.0414
 6355SOL    HW119964   1.941   6.183   0.513  0.4157 -1.5487 -0.0707
 6355SOL    HW219965   1.919   6.135   0.359  0.1517 -0.7987 -0.2661
 6356SOL     OW19966   3.131   2.307   6.652  0.1675  0.5566  0.3655
 6356SOL    HW119967   3.208   2.292   6.590  0.0277 -0.4881  0.4331
 6356SOL    HW219968   3.131   2.402   6.682 -0.2608  1.3324 -1.9020
 6357SOL     OW19969   5.995   2.043   6.114 -0.1347 -0.7087 -0.4542
 6357SOL    HW119970   5.966   2.138   6.123 -0.9370 -0.9236 -0.6401
 6357SOL    HW219971   5.996   2.000   6.205  3.4773  0.3386  0.1445
 6358SOL     OW19972   3.677   3.307   1.888 -0.9922  0.4896 -0.2611
 6358SOL    HW119973   3.679   3.210   1.910 -2.0779 -0.2251 -2.8797
 6358SOL    HW219974   3.753   3.329   1.826 -1.1208  1.1572 -0.1883
 6359SOL     OW19975   3.462   2.658   0.425  0.3844  0.6005  0.3446
 6359SOL    HW119976   3.389   2.608   0.470 -0.0913 -0.2402 -1.2883
 6359SOL    HW219977   3.492   2.733   0.484 -2.8379  1.9491  0.4486
 6360SOL     OW19978   1.007   4.660   5.875 -0.7596  0.6994 -0.0776
 6360SOL    HW119979   0.934   4.627   5.815 -0.3090 -0.3973 -0.0554
 6360SOL    HW219980   0.971   4.727   5.939 -1.2908  1.7885 -1.4581
 6361SOL     OW19981   5.007   5.005   0.758 -0.0723  0.0429 -0.4741
 6361SOL    HW119982   5.020   4.907   0.746  1.4203 -0.1807  2.2064
 6361SOL    HW219983   5.082   5.054   0.715  1.3190 -0.2968  1.4388
 6362SOL     OW19984   5.096   1.305   5.949  0.7078 -0.3203  0.5347
 6362SOL    HW119985   5.049   1.372   5.890  0.3244 -2.2810 -1.5329
 6362SOL    HW219986   5.030   1.239   5.984  1.4379 -1.2486  0.2065
 6363SOL     OW19987   2.218   0.946   0.461  0.1142  0.7752 -0.1445
 6363SOL    HW119988   2.153   0.918   0.531  1.1026  0.3478  0.6241
 6363SOL    HW219989   2.257   0.865   0.417  0.8202  0.9968  0.0571
 6364SOL     OW19990   3.673   4.133   4.086 -0.0102 -0.1842 -0.4263
 6364SOL    HW119991   3.755   4.148   4.141 -1.2574  0.8835  1.2186
 6364SOL    HW219992   3.700   4.103   3.994  2.1724 -0.6607  0.3051
 6365SOL     OW19993   2.295   0.905   1.896 -0.0355  0.4194 -0.4526
 6365SOL    HW119994   2.206   0.941   1.868 -0.5256  0.0254  0.5235
 6365SOL    HW219995   2.295   0.805   1.888  0.7551  0.4956 -1.6111
 6366SOL     OW19996   3.189   6.705   2.949 -0.3478  0.3858 -0.1853
 6366SOL    HW119997   3.190   6.605   2.950  1.1281  0.3849  0.2249
 6366SOL    HW219998   3.264   6.738   2.892 -0.0856  1.2629  0.6540
 6367SOL     OW19999   1.567   4.148   2.865  0.2054 -0.3571 -0.1131
 6367SOL    HW120000   1.656   4.145   2.820  0.2265  1.8068 -0.3305
 6367SOL    HW220001   1.495   4.165   2.798  0.0790  1.4734  0.4186
 6368SOL     OW20002   3.210   0.009   3.879  0.8330 -0.6125  0.5762
 6368SOL    HW120003   3.240  -0.083   3.855  0.6686 -0.6557  0.5353
 6368SOL    HW220004   3.177   0.056   3.796  0.5768 -0.6446  0.6603
 6369SOL     OW20005   3.715   6.905   0.392 -0.0926 -0.0441 -0.3071
 6369SOL    HW120006   3.756   6.993   0.416 -0.6904  0.1569 -0.0080
 6369SOL    HW220007   3.689   6.907   0.295 -0.3504  0.2120 -0.2362
 6370SOL     OW20008   1.359   2.933   6.112 -0.1750  0.1353 -0.2315
 6370SOL    HW120009   1.371   2.886   6.024 -2.3604 -1.0894  0.0500
 6370SOL    HW220010   1.268   2.975   6.115 -0.1668  0.1009  1.4610
 6371SOL     OW20011   4.652   6.004   2.277  0.7271 -0.7029 -0.4188
 6371SOL    HW120012   4.583   6.046   2.219  1.1898  2.0347  0.8437
 6371SOL    HW220013   4.742   6.019   2.238  1.3061  3.3201  1.8549
 6372SOL     OW20014   1.788   3.160   5.615  0.2705 -0.6926  0.8206
 6372SOL    HW120015   1.710   3.108   5.649 -0.3733 -2.1026 -2.4473
 6372SOL    HW220016   1.853   3.099   5.570  0.1533  1.0827 -2.0133
 6373SOL     OW20017   1.846   4.021   3.807  0.5498  0.0421  0.4511
 6373SOL    HW120018   1.824   4.093   3.741  1.3556 -0.7802 -0.7714
 6373SOL    HW220019   1.944   4.003   3.805  0.3522 -1.1649  0.6322
 6374SOL     OW20020   4.866   0.708   6.457  0.7756  0.6552  0.6874
 6374SOL    HW120021   4.940   0.687   6.521  0.5911  0.2854  0.7791
 6374SOL    HW220022   4.779   0.676   6.494  0.5954  0.9154  0.4915
 6375SOL     OW20023   4.291   2.597   1.094  0.0566  0.1218 -0.6611
 6375SOL    HW120024   4.240   2.579   1.178  1.1727 -1.2731 -0.2636
 6375SOL    HW220025   4.226   2.619   1.021 -0.9155  1.6644  0.5930
 6376SOL     OW20026   5.441   2.082   5.502 -1.0996  0.2784 -0.0716
 6376SOL    HW120027   5.381   2.088   5.582 -1.9282  1.0828 -0.7313
 6376SOL    HW220028   5.391   2.110   5.421 -0.5259 -1.3686 -1.0268
 6377SOL     OW20029   2.332   5.988   0.000 -0.0955  1.0634  0.4366
 6377SOL    HW120030   2.401   5.924   0.033  0.9451  1.4881 -0.8438
 6377SOL    HW220031   2.349   6.079   0.040  0.0022  1.1425  0.2119
 6378SOL     OW20032   4.312   4.155   1.456  0.0551  0.0467  0.4331
 6378SOL    HW120033   4.261   4.089   1.401  0.2407 -0.7666  1.2048
 6378SOL    HW220034   4.382   4.199   1.399 -0.2191 -0.2580 -0.1477
 6379SOL     OW20035   6.765   3.943   5.667  0.2096 -0.2022  0.1343
 6379SOL    HW120036   6.753   3.951   5.766 -2.3517 -0.7977 -0.0515
 6379SOL    HW220037   6.759   3.846   5.640  0.4386 -0.0110 -0.6436
 6380SOL     OW20038   0.169   4.416   4.682 -0.1089 -0.5155 -0.1292
 6380SOL    HW120039   0.141   4.456   4.595 -1.0186 -1.2696 -0.1935
 6380SOL    HW220040   0.229   4.337   4.665  0.7834  0.1232 -0.0271
 6381SOL     OW20041   4.712   2.229   2.322  0.2238  0.2634 -0.5111
 6381SOL    HW120042   4.617   2.200   2.334 -0.1128  1.2031 -0.8386
 6381SOL    HW220043   4.756   2.234   2.412 -0.4246  1.0868 -0.2253
 6382SOL     OW20044   4.854   4.454   2.536 -0.4444 -0.3876 -0.1088
 6382SOL    HW120045   4.754   4.461   2.538 -0.3597  1.0645  0.5123
 6382SOL    HW220046   4.883   4.414   2.449 -1.5170  0.3138 -0.8165
 6383SOL     OW20047   6.005   0.451   2.935  0.4012 -0.0630 -0.2442
 6383SOL    HW120048   5.991   0.531   2.876 -0.2481  0.1953  0.2368
 6383SOL    HW220049   6.037   0.374   2.881  1.7845  0.7333 -0.5940
 6384SOL     OW20050   2.289   0.714   5.329  0.6935  0.3974  0.1204
 6384SOL    HW120051   2.355   0.721   5.254 -2.3068  0.1829 -2.7529
 6384SOL    HW220052   2.308   0.631   5.381  0.9921 -1.3135 -2.4972
 6385SOL     OW20053   4.798   6.232   3.315 -0.2383 -0.3424 -0.0900
 6385SOL    HW120054   4.788   6.264   3.221 -0.4072  1.6410  0.5620
 6385SOL    HW220055   4.708   6.221   3.357 -0.1490  1.3118  0.6119
 6386SOL     OW20056   4.117   6.723   5.719 -0.7523 -0.1876  0.5990
 6386SOL    HW120057   4.198   6.666   5.713  0.2319  1.3170 -1.3242
 6386SOL    HW220058   4.090   6.732   5.815 -0.6033 -3.2941  1.0139
 6387SOL     OW20059   0.693   0.100   0.451 -0.8000 -0.2531  0.3310
 6387SOL    HW120060   0.607   0.052   0.469 -1.3397  0.2833 -0.7320
 6387SOL    HW220061   0.676   0.199   0.449 -0.5261 -0.2060 -1.6418
 6388SOL     OW20062   4.691   0.447   1.977 -0.0376  0.2699 -0.0412
 6388SOL    HW120063   4.673   0.371   1.915 -0.5525 -0.4366  0.9407
 6388SOL    HW220064   4.774   0.494   1.950 -0.9029  0.7502 -2.0020
 6389SOL     OW20065   6.827   6.827   4.829  0.2205  0.2229  0.1203
 6389SOL    HW120066   6.875   6.914   4.820  0.4114  0.0517 -0.5569
 6389SOL    HW220067   6.825   6.780   4.741 -1.9570  0.6245 -0.1080
 6390SOL     OW20068   6.430   2.864   1.843 -0.1407  0.1644 -0.3525
 6390SOL    HW120069   6.460   2.929   1.913  0.3196  0.3342 -0.6980
 6390SOL    HW220070   6.333   2.844   1.855 -0.4880  1.5359 -0.7164
 6391SOL     OW20071   3.258   4.705   6.095 -0.6751 -0.0292  0.0219
 6391SOL    HW120072   3.206   4.719   6.179 -0.9602 -2.0802  0.2204
 6391SOL    HW220073   3.195   4.696   6.018 -0.4002  2.9502 -0.6884
 6392SOL     OW20074   1.866   1.074   2.498  0.3909 -0.4129  0.9054
 6392SOL    HW120075   1.902   1.162   2.467  0.2482 -0.1967  1.3581
 6392SOL    HW220076   1.925   1.001   2.464  0.6468 -0.1299  0.7310
 6393SOL     OW20077   6.055   6.563   6.806 -0.7490 -0.0032 -0.3489
 6393SOL    HW120078   6.099   6.514   6.731  0.7596  1.5796 -0.5764
 6393SOL    HW220079   6.002   6.639   6.770 -2.3663 -0.9129  0.0457
 6394SOL     OW20080   2.188   5.739   4.649  0.1243 -0.2460  0.3555
 6394SOL    HW120081   2.236   5.682   4.716 -0.4428 -1.8344 -0.5514
 6394SOL    HW220082   2.090   5.738   4.669  0.1603  0.9226  0.6774
 6395SOL     OW20083   4.819   0.815   4.985 -0.3727  0.6766 -0.5607
 6395SOL    HW120084   4.795   0.797   5.081 -1.7277 -0.5490 -1.0901
 6395SOL    HW220085   4.917   0.832   4.978 -0.4020  1.8317  1.1668
 6396SOL     OW20086   0.242   6.769   0.220 -0.7509  0.5728  0.1848
 6396SOL    HW120087   0.248   6.776   0.120 -1.6798  1.5266  0.1797
 6396SOL    HW220088   0.154   6.805   0.250  0.8926  3.7304  1.6616
 6397SOL     OW20089   2.791   1.261   6.812 -0.5816 -0.0376  0.2097
 6397SOL    HW120090   2.878   1.277   6.859 -1.1425 -1.5281  1.8552
 6397SOL    HW220091   2.805   1.263   6.713  1.3060 -0.1294  0.4506
 6398SOL     OW20092   6.625   6.791   5.460 -0.1986 -0.0343  0.1127
 6398SOL    HW120093   6.627   6.829   5.368 -0.1339 -1.4577 -0.5026
 6398SOL    HW220094   6.649   6.862   5.526  3.9015  0.1605 -1.2744
 6399SOL     OW20095   0.923   3.271   4.568  0.0825 -0.3988  0.3343
 6399SOL    HW120096   0.860   3.210   4.520 -0.0493  1.1185 -1.5323
 6399SOL    HW220097   0.873   3.325   4.636  0.4001 -3.1298  2.9593
 6400SOL     OW20098   4.192   5.669   5.006 -0.0871  0.0549 -0.7368
 6400SOL    HW120099   4.128   5.742   5.032  0.1036  0.2951 -0.9379
 6400SOL    HW220100   4.240   5.695   4.922 -0.0679 -0.3332 -0.8474
 6401SOL     OW20101   2.389   5.427   0.904 -0.1863 -0.0907  0.4595
 6401SOL    HW120102   2.368   5.380   0.819  2.8556 -1.6274  0.4114
 6401SOL    HW220103   2.438   5.512   0.885  2.3885 -1.4540  0.5672
 6402SOL     OW20104   3.490   5.576   2.970 -0.4029 -0.4021  0.2595
 6402SOL    HW120105   3.550   5.555   2.893 -0.3023 -1.1671  0.5355
 6402SOL    HW220106   3.489   5.674   2.987  0.8381 -0.3886  0.2997
 6403SOL     OW20107   1.371   0.866   6.359 -0.9123  0.1133  0.4650
 6403SOL    HW120108   1.319   0.788   6.393  0.4619 -0.9176  0.2813
 6403SOL    HW220109   1.384   0.932   6.434 -1.1335 -0.3563  0.9255
 6404SOL     OW20110   6.025   2.852   1.093  0.7472 -0.5084  0.1522
 6404SOL    HW120111   5.954   2.812   1.035  0.6127  2.0079 -1.6133
 6404SOL    HW220112   6.110   2.800   1.082  0.0700 -1.5506 -0.3528
 6405SOL     OW20113   2.767   6.907   6.495 -0.2968 -0.0262  0.3572
 6405SOL    HW120114   2.847   6.904   6.436 -0.3902 -0.1370  0.2365
 6405SOL    HW220115   2.696   6.848   6.458 -0.5931  0.4043  0.2330
 6406SOL     OW20116   3.239   4.573   0.812  0.2628 -0.2769  0.0337
 6406SOL    HW120117   3.300   4.636   0.860  0.3986 -1.8914  2.1831
 6406SOL    HW220118   3.165   4.546   0.874 -0.2488 -1.5549 -1.0918
 6407SOL     OW20119   4.408   4.617   5.687  0.2899  0.0868 -0.2709
 6407SOL    HW120120   4.369   4.665   5.608 -1.2312 -1.3165 -0.4330
 6407SOL    HW220121   4.505   4.598   5.670 -0.0684 -0.4470 -1.9559
 6408SOL     OW20122   1.030   3.441   0.846 -0.4950  0.0143  0.3088
 6408SOL    HW120123   1.034   3.458   0.945 -1.8598  0.3385  0.3417
 6408SOL    HW220124   1.062   3.523   0.797 -0.0655 -0.0502  0.4809
 6409SOL     OW20125   2.138   4.946   1.078 -0.1034 -0.6338 -0.4924
 6409SOL    HW120126   2.088   4.860   1.092 -0.0646 -0.5752  0.0278
 6409SOL    HW220127   2.215   4.950   1.140  0.3863 -0.5896 -1.0946
 6410SOL     OW20128   0.134   5.715   1.164 -0.3376  0.6193  0.7056
 6410SOL    HW120129   0.224   5.689   1.200 -0.6876  0.5080  1.5084
 6410SOL    HW220130   0.141   5.804   1.118  0.5371 -0.1512 -0.7165
 6411SOL     OW20131   2.720   5.224   5.729 -0.2624 -0.4760  0.7321
 6411SOL    HW120132   2.766   5.299   5.777  1.2764 -0.7956 -0.1953
 6411SOL    HW220133   2.657   5.178   5.792 -1.3575  1.6354  1.3062
 6412SOL     OW20134   6.462   1.100   6.025 -0.3683  0.2982  0.1806
 6412SOL    HW120135   6.523   1.068   5.953  0.5071  0.7140  0.7229
 6412SOL    HW220136   6.477   1.197   6.042  0.7462 -0.1694  2.1422
 6413SOL     OW20137   2.489   2.522   2.639 -0.4901  0.2220 -0.9916
 6413SOL    HW120138   2.534   2.502   2.726  0.9408  0.4848 -1.6266
 6413SOL    HW220139   2.473   2.436   2.589 -1.0245  0.0987 -0.6196
 6414SOL     OW20140   4.035   1.375   1.797  0.4621 -0.1119 -0.2230
 6414SOL    HW120141   3.941   1.340   1.796  0.8436 -1.2333  0.8167
 6414SOL    HW220142   4.033   1.474   1.790 -0.9233  0.0641  1.7602
 6415SOL     OW20143   6.268   4.129   3.437  0.5474  0.2466 -0.1604
 6415SOL    HW120144   6.187   4.089   3.481 -0.1883  0.4106 -1.3068
 6415SOL    HW220145   6.321   4.180   3.504  0.0183 -0.3664  0.7428
 6416SOL     OW20146   5.094   1.103   2.952 -0.5457 -0.0115 -0.1488
 6416SOL    HW120147   5.089   1.201   2.934  1.2371 -0.0077 -0.8053
 6416SOL    HW220148   5.103   1.087   3.051 -0.8319  0.4694 -0.0425
 6417SOL     OW20149   2.247   1.189   1.160 -0.1791  0.0805  0.0758
 6417SOL    HW120150   2.316   1.258   1.138  0.1951 -0.5202 -0.6823
 6417SOL    HW220151   2.265   1.106   1.108 -1.0776 -0.3258  0.3893
 6418SOL     OW20152   1.204   5.137   1.090  0.2981  0.1149  0.4623
 6418SOL    HW120153   1.277   5.141   1.158  1.5933 -1.3346 -0.7738
 6418SOL    HW220154   1.172   5.230   1.070  0.8270  0.6559  2.0411
 6419SOL     OW20155   4.450   0.679   5.536 -0.1354  0.0823 -0.7765
 6419SOL    HW120156   4.497   0.591   5.532  2.8590  1.4239  0.9586
 6419SOL    HW220157   4.474   0.733   5.456  1.1501  0.6659 -0.0225
 6420SOL     OW20158   5.703   4.852   3.634 -0.5038  0.2602  0.0986
 6420SOL    HW120159   5.612   4.854   3.676 -1.3430 -1.8872 -1.4003
 6420SOL    HW220160   5.749   4.766   3.659  0.8044  0.9727  0.2154
 6421SOL     OW20161   5.359   1.078   0.597 -0.2849  0.0865 -0.1417
 6421SOL    HW120162   5.429   1.134   0.641  0.6230  0.4410 -1.9168
 6421SOL    HW220163   5.273   1.129   0.592  0.6854  1.6770 -2.2747
 6422SOL     OW20164   6.014   3.795   4.780  0.1287 -0.4538  0.2048
 6422SOL    HW120165   6.011   3.794   4.680 -1.1937  0.5968  0.2038
 6422SOL    HW220166   6.080   3.864   4.811  0.1091 -0.3638  0.0470
 6423SOL     OW20167   3.586   1.203   3.819 -0.0164  0.0758 -0.2727
 6423SOL    HW120168   3.558   1.121   3.869 -0.4594  0.1245 -0.4321
 6423SOL    HW220169   3.645   1.259   3.876  1.1797 -0.8748 -0.5255
 6424SOL     OW20170   4.796   4.860   3.661  0.2447  0.3740 -0.0072
 6424SOL    HW120171   4.792   4.959   3.648 -1.2503  0.2225 -0.8578
 6424SOL    HW220172   4.797   4.814   3.572 -0.6726 -0.4017  0.3610
 6425SOL     OW20173   6.167   2.851   1.795 -0.1721  0.1590 -0.2763
 6425SOL    HW120174   6.108   2.833   1.716  0.9124  1.8363 -1.5361
 6425SOL    HW220175   6.114   2.896   1.867 -1.0085 -0.7759 -0.2706
 6426SOL     OW20176   1.981   0.004   6.212  0.2957  0.4779  0.0829
 6426SOL    HW120177   2.054   0.071   6.226  0.7071 -0.1341  0.9554
 6426SOL    HW220178   2.021  -0.084   6.184 -0.0415 -0.0059  1.0589
 6427SOL     OW20179   2.728   1.097   1.436 -0.4129  0.3642  0.7063
 6427SOL    HW120180   2.692   1.033   1.504 -0.6664  0.4726  0.6762
 6427SOL    HW220181   2.653   1.134   1.382 -0.0759 -0.8042 -0.5947
 6428SOL     OW20182   1.431   1.698   0.297  0.0677  0.0194  0.0945
 6428SOL    HW120183   1.495   1.708   0.221 -1.6910  0.1977 -1.4308
 6428SOL    HW220184   1.343   1.739   0.272 -0.0533  1.7261  2.9304
 6429SOL     OW20185   4.820   2.912   0.757 -0.3852  0.8188 -0.4585
 6429SOL    HW120186   4.728   2.890   0.790 -0.2602 -0.8592 -1.1180
 6429SOL    HW220187   4.886   2.848   0.796  0.6940  2.5173  0.6814
 6430SOL     OW20188   3.691   4.432   5.659 -0.2886 -0.0398  0.4954
 6430SOL    HW120189   3.702   4.438   5.560 -0.7807 -1.2201  0.3560
 6430SOL    HW220190   3.738   4.351   5.693  1.4291  1.2960  1.5022
 6431SOL     OW20191   4.817   0.678   4.556 -0.0092 -0.2747  0.3925
 6431SOL    HW120192   4.853   0.770   4.566 -0.5108 -0.1336  1.0063
 6431SOL    HW220193   4.872   0.614   4.610  2.1449 -0.8689 -2.2851
 6432SOL     OW20194   1.508   1.815   0.533  0.6339  0.8665  0.1153
 6432SOL    HW120195   1.495   1.773   0.443  1.8672  1.4025 -0.3304
 6432SOL    HW220196   1.420   1.848   0.567  0.0336  0.0018 -0.5621
 6433SOL     OW20197   2.095   4.871   4.855 -0.3084  0.6688  0.2705
 6433SOL    HW120198   2.176   4.839   4.805 -1.3588  1.1181 -1.7977
 6433SOL    HW220199   2.075   4.807   4.929  1.6294  0.2842  0.5272
 6434SOL     OW20200   6.234   2.602   2.759 -0.0991 -0.7852 -0.0224
 6434SOL    HW120201   6.222   2.629   2.854  0.5404 -0.5725 -0.0004
 6434SOL    HW220202   6.144   2.592   2.715 -0.5839 -3.8176  1.4032
 6435SOL     OW20203   1.437   5.120   0.902 -0.1229  0.2647 -0.1977
 6435SOL    HW120204   1.345   5.104   0.938 -0.6284  0.6374 -1.2635
 6435SOL    HW220205   1.486   5.182   0.963 -1.0176  1.0270 -0.2335
 6436SOL     OW20206   1.943   5.430   4.553 -0.5802 -0.9919  0.2517
 6436SOL    HW120207   1.860   5.386   4.587 -0.3957 -0.7266  1.0457
 6436SOL    HW220208   1.996   5.466   4.629 -0.1229 -0.4610 -0.3087
 6437SOL     OW20209   0.324   0.528   4.488  0.5609 -0.1558  0.7850
 6437SOL    HW120210   0.308   0.460   4.417 -0.6516  0.0304  0.8543
 6437SOL    HW220211   0.371   0.608   4.449  0.9978 -0.5638  0.4687
 6438SOL     OW20212   5.447   0.213   0.445 -0.6529 -0.5615  0.3931
 6438SOL    HW120213   5.536   0.259   0.457 -1.5964  1.6866 -0.5069
 6438SOL    HW220214   5.435   0.144   0.516  2.1301 -1.5222  0.0763
 6439SOL     OW20215   4.554   6.175   3.441 -0.4159  0.3420 -0.1973
 6439SOL    HW120216   4.458   6.202   3.438 -1.4013 -2.6042  1.0629
 6439SOL    HW220217   4.561   6.075   3.446  2.7509  0.4250 -0.6555
 6440SOL     OW20218   4.306   5.268   4.017 -0.6367 -0.3800  0.5584
 6440SOL    HW120219   4.232   5.233   3.959 -1.1413  3.7139 -1.6481
 6440SOL    HW220220   4.268   5.308   4.100 -0.6260 -0.3536  0.5506
 6441SOL     OW20221   1.731   0.045   6.822  0.8725  0.0071  0.4581
 6441SOL    HW120222   1.765   0.010   6.909  2.4580 -0.7546 -0.4132
 6441SOL    HW220223   1.775   0.132   6.801  1.1395 -0.2179  0.0516
 6442SOL     OW20224   1.631   6.777   2.683  0.4989  0.0257  0.2629
 6442SOL    HW120225   1.666   6.781   2.589 -2.4405  0.6840 -0.9205
 6442SOL    HW220226   1.566   6.701   2.690  0.4694  0.1656  1.7015
 6443SOL     OW20227   3.549   3.554   3.636  0.3820 -0.6114  0.2253
 6443SOL    HW120228   3.482   3.628   3.631 -0.3498 -1.2156  0.8539
 6443SOL    HW220229   3.509   3.476   3.683  1.3243 -1.2215  0.0439
 6444SOL     OW20230   2.628   4.026   5.895  0.0026  0.4271  0.3575
 6444SOL    HW120231   2.632   3.966   5.975  0.7759  1.2964  0.9924
 6444SOL    HW220232   2.717   4.028   5.851 -0.1734  0.6750  0.0104
 6445SOL     OW20233   3.253   2.985   3.057  0.3087  0.2304 -0.0493
 6445SOL    HW120234   3.160   3.024   3.054  0.1016 -0.3203 -1.2001
 6445SOL    HW220235   3.317   3.051   3.017  0.1769 -0.0029 -0.6556
 6446SOL     OW20236   6.527   6.516   1.478  0.4669  0.1748 -0.2725
 6446SOL    HW120237   6.518   6.499   1.576  2.5249  1.1868  0.1510
 6446SOL    HW220238   6.570   6.437   1.434 -0.1868 -0.1570 -0.3370
 6447SOL     OW20239   5.204   1.911   2.547  0.3231 -0.1383  0.1763
 6447SOL    HW120240   5.186   1.995   2.495  0.0707 -0.0279  0.4432
 6447SOL    HW220241   5.295   1.876   2.523  1.4942  1.5792  1.9228
 6448SOL     OW20242   3.811   4.939   1.051 -0.2745 -0.2464  0.3045
 6448SOL    HW120243   3.879   4.872   1.021 -1.0445 -0.3874 -1.2571
 6448SOL    HW220244   3.855   5.028   1.066  0.9129 -1.2096  3.2211
 6449SOL     OW20245   4.026   0.846   4.739 -0.7664 -0.5656 -0.3684
 6449SOL    HW120246   4.072   0.773   4.789 -1.9452 -0.7420  0.5010
 6449SOL    HW220247   4.042   0.835   4.641 -0.0772 -1.3862 -0.1735
 6450SOL     OW20248   0.969   2.640   6.925  0.3993 -0.4649 -0.1325
 6450SOL    HW120249   1.053   2.606   6.881  0.0017 -0.5891 -0.8075
 6450SOL    HW220250   0.891   2.619   6.867 -0.1037 -0.3456  0.4965
 6451SOL     OW20251   0.103   1.996   3.600 -0.2933  0.7525 -0.2749
 6451SOL    HW120252   0.049   1.914   3.580 -0.1315  0.3064  1.0122
 6451SOL    HW220253   0.048   2.077   3.581 -1.0127  0.3222 -0.0658
 6452SOL     OW20254   6.982   2.349   4.555 -0.4546 -0.2320  0.0488
 6452SOL    HW120255   7.080   2.330   4.561 -0.3438  0.2086 -0.3131
 6452SOL    HW220256   6.947   2.375   4.645  0.0489  0.9766 -0.0915
 6453SOL     OW20257   0.385   6.525   1.953 -0.2819 -0.0796  0.1125
 6453SOL    HW120258   0.297   6.479   1.964  0.9497 -2.8734 -0.6491
 6453SOL    HW220259   0.432   6.486   1.873  3.0033 -1.1616  2.3789
 6454SOL     OW20260   3.634   4.216   6.138  0.8174 -0.1763 -0.0250
 6454SOL    HW120261   3.597   4.274   6.065  4.2358  2.9504  0.4311
 6454SOL    HW220262   3.616   4.259   6.226  0.9798 -1.3234  0.5763
 6455SOL     OW20263   2.129   4.524   1.294 -0.2313  0.6200  0.5759
 6455SOL    HW120264   2.136   4.451   1.227 -1.8585  1.7548 -0.9187
 6455SOL    HW220265   2.221   4.558   1.316  0.3703 -0.1251 -0.6824
 6456SOL     OW20266   5.857   5.049   2.879 -0.3446  0.3514 -0.2250
 6456SOL    HW120267   5.817   5.081   2.965 -0.4355  1.9149 -0.8098
 6456SOL    HW220268   5.865   4.950   2.881  0.7051  0.4156  2.0432
 6457SOL     OW20269   5.888   0.629   6.114 -0.5665  0.1644 -0.1590
 6457SOL    HW120270   5.869   0.599   6.207  1.8801 -0.7404  0.1330
 6457SOL    HW220271   5.848   0.564   6.049 -1.4138  0.2468  0.2640
 6458SOL     OW20272   6.287   6.179   2.178 -0.7462  0.5239 -0.0210
 6458SOL    HW120273   6.311   6.217   2.267  0.5377 -0.4435  0.0833
 6458SOL    HW220274   6.206   6.225   2.142 -1.6019  0.5813  1.8749
 6459SOL     OW20275   0.718   5.585   1.886 -1.1018 -0.1301  0.4457
 6459SOL    HW120276   0.813   5.610   1.900 -1.0968 -0.2491  0.6192
 6459SOL    HW220277   0.669   5.662   1.844 -0.5601 -0.6388 -1.1967
 6460SOL     OW20278   2.351   6.670   0.673 -0.6218  0.1548  0.3141
 6460SOL    HW120279   2.275   6.732   0.690 -0.0970  0.3810  2.1014
 6460SOL    HW220280   2.346   6.594   0.738  0.0032 -0.4631 -0.3512
 6461SOL     OW20281   7.000   3.498   0.526 -0.0355 -0.1272 -0.5338
 6461SOL    HW120282   7.052   3.574   0.565 -0.4380 -0.1277  0.0194
 6461SOL    HW220283   6.989   3.426   0.595 -1.3183  0.1518 -0.4274
 6462SOL     OW20284   1.821   3.905   5.111 -0.0821  0.3838 -0.2630
 6462SOL    HW120285   1.840   3.824   5.167 -2.9572 -1.0950 -1.1828
 6462SOL    HW220286   1.862   3.893   5.021 -0.6425 -0.1951 -0.4547
 6463SOL     OW20287   4.922   4.302   5.847  0.2987 -0.4230 -0.1765
 6463SOL    HW120288   4.959   4.244   5.919  0.4754 -1.4885 -1.1034
 6463SOL    HW220289   4.869   4.377   5.888 -0.1918 -1.4073  1.0366
 6464SOL     OW20290   3.284   4.910   4.040 -0.0551 -0.2595  0.1578
 6464SOL    HW120291   3.256   4.889   4.134 -2.6238  0.7934 -0.2998
 6464SOL    HW220292   3.383   4.928   4.039 -0.0826  0.5799  2.8203
 6465SOL     OW20293   1.649   1.064   3.310 -0.9959  0.0013 -0.0937
 6465SOL    HW120294   1.608   0.973   3.305 -1.9270  0.4579 -1.3594
 6465SOL    HW220295   1.683   1.090   3.220  0.8258  0.2348  0.6317
 6466SOL     OW20296   2.237   4.049   2.562  0.3311  0.0687  0.4244
 6466SOL    HW120297   2.252   3.957   2.528  2.0530  0.1028  0.9744
 6466SOL    HW220298   2.215   4.045   2.660  0.7333  0.2497  0.5239
 6467SOL     OW20299   3.893   4.343   5.226 -0.3126 -0.4821  0.1629
 6467SOL    HW120300   3.876   4.441   5.230  0.3638 -0.3245 -0.5241
 6467SOL    HW220301   3.864   4.300   5.312 -1.2515  0.2074  0.2027
 6468SOL     OW20302   6.301   3.327   3.534  0.6199 -0.3509  0.2483
 6468SOL    HW120303   6.213   3.301   3.496  0.8468 -0.5601 -0.1418
 6468SOL    HW220304   6.292   3.414   3.583  0.2332 -0.2890  0.0703
 6469SOL     OW20305   6.885   1.191   5.234 -0.2739 -0.1222  0.1177
 6469SOL    HW120306   6.961   1.254   5.248 -0.6796  0.0187  1.8318
 6469SOL    HW220307   6.855   1.196   5.138  0.8142  0.9802 -0.1933
 6470SOL     OW20308   1.688   3.976   1.189  0.0699 -0.0166  0.1128
 6470SOL    HW120309   1.701   4.047   1.121  0.0344 -0.9863 -0.9390
 6470SOL    HW220310   1.725   4.006   1.277  0.7761  0.9754 -0.5087
 6471SOL     OW20311   3.246   4.513   1.612  0.4405  0.1099 -0.3344
 6471SOL    HW120312   3.311   4.478   1.679  0.3202 -0.6683 -0.6176
 6471SOL    HW220313   3.294   4.533   1.527  1.0839  3.4089  0.6497
 6472SOL     OW20314   0.461   4.762   0.610 -0.2495 -0.0750 -0.0601
 6472SOL    HW120315   0.421   4.843   0.652 -1.5776 -1.2607  1.0732
 6472SOL    HW220316   0.524   4.718   0.674  1.2357  0.5844 -1.0364
 6473SOL     OW20317   2.377   4.555   1.374  0.1494 -0.1645 -0.0083
 6473SOL    HW120318   2.388   4.456   1.365 -0.7818 -0.1585 -1.5232
 6473SOL    HW220319   2.406   4.584   1.465 -2.4924 -2.2415  1.6165
 6474SOL     OW20320   1.474   5.097   2.323 -0.1062  0.1529  0.1562
 6474SOL    HW120321   1.549   5.033   2.308  0.9961  1.2507  0.8953
 6474SOL    HW220322   1.387   5.051   2.303  0.7657 -0.9734 -1.2359
 6475SOL     OW20323   0.063   0.334   1.122 -0.1214 -0.0958  0.9073
 6475SOL    HW120324   0.146   0.310   1.173 -0.1645 -0.3639  0.8569
 6475SOL    HW220325   0.035   0.255   1.066  0.0522  0.2704  0.2951
 6476SOL     OW20326   3.350   1.893   2.225  0.3204  0.2338  0.1125
 6476SOL    HW120327   3.391   1.868   2.313  2.2306  0.1993 -0.7539
 6476SOL    HW220328   3.405   1.963   2.181 -1.1200  0.9189 -0.6753
 6477SOL     OW20329   6.978   4.063   1.516  0.6754  0.0383 -0.2854
 6477SOL    HW120330   6.969   4.048   1.615  1.2413  0.2866 -0.1958
 6477SOL    HW220331   6.952   4.157   1.494 -2.1297 -0.7576 -0.7512
 6478SOL     OW20332   5.471   6.779   0.776 -0.1216 -0.1533 -0.3842
 6478SOL    HW120333   5.527   6.861   0.771 -2.4354  1.5383 -0.0791
 6478SOL    HW220334   5.487   6.722   0.695  1.6983  0.4393 -0.4784
 6479SOL     OW20335   4.087   6.297   5.825 -0.1401  0.3654 -1.0094
 6479SOL    HW120336   4.164   6.338   5.778  1.7485 -1.5393  0.2180
 6479SOL    HW220337   4.034   6.368   5.872  3.2703  1.5414  1.5090
 6480SOL     OW20338   2.457   2.510   3.861  0.2740 -0.0078  0.6246
 6480SOL    HW120339   2.546   2.510   3.906  0.3458 -0.7972  0.4880
 6480SOL    HW220340   2.400   2.437   3.899  0.6556 -1.2958 -1.1593
 6481SOL     OW20341   5.178   5.969   5.973  0.6952 -0.0786  0.2470
 6481SOL    HW120342   5.160   6.025   5.892  2.1766 -1.6654 -1.2810
 6481SOL    HW220343   5.132   5.881   5.964  0.5706 -0.1379  1.3179
 6482SOL     OW20344   3.289   1.044   1.874  0.1634 -0.9538  0.1217
 6482SOL    HW120345   3.212   1.101   1.901  0.5995  0.1879 -0.9619
 6482SOL    HW220346   3.340   1.016   1.955  0.9770  1.6902  0.6275
 6483SOL     OW20347   6.746   2.242   0.916 -0.4134  0.2551 -0.2870
 6483SOL    HW120348   6.751   2.205   1.009 -0.3072  0.4931 -0.1969
 6483SOL    HW220349   6.786   2.176   0.852 -1.4381 -0.3797 -0.3085
 6484SOL     OW20350   2.309   1.503   1.534 -0.0688 -0.5080  0.4474
 6484SOL    HW120351   2.364   1.548   1.604 -0.8333  0.6795  0.3150
 6484SOL    HW220352   2.252   1.571   1.487 -1.3742 -1.6312  0.3383
 6485SOL     OW20353   0.377   3.901   5.571 -0.2643 -0.0963 -0.1484
 6485SOL    HW120354   0.434   3.819   5.575  1.6437  1.1996  1.1910
 6485SOL    HW220355   0.346   3.925   5.663 -1.1037  0.5014 -0.5712
 6486SOL     OW20356   6.892   2.105   0.737 -0.3617 -0.0004  0.3129
 6486SOL    HW120357   6.860   2.137   0.647 -1.8965  1.0514  1.1966
 6486SOL    HW220358   6.992   2.102   0.736 -0.2923  1.2189 -1.0414
 6487SOL     OW20359   0.725   3.581   5.040 -0.1480 -0.4021 -0.4973
 6487SOL    HW120360   0.687   3.488   5.044 -0.4372 -0.5209 -3.4356
 6487SOL    HW220361   0.811   3.580   4.990  0.9848  0.6740  1.3193
 6488SOL     OW20362   1.576   6.129   0.871  0.1120  0.3822  0.0830
 6488SOL    HW120363   1.647   6.196   0.851  0.2014 -0.1231 -1.4289
 6488SOL    HW220364   1.617   6.039   0.885 -0.1729  0.2406  0.0212
 6489SOL     OW20365   5.745   6.502   3.596  0.0225 -0.4905  0.1609
 6489SOL    HW120366   5.827   6.449   3.576 -1.1502 -2.4292  0.1887
 6489SOL    HW220367   5.692   6.456   3.668 -1.1661  0.5911  0.0119
 6490SOL     OW20368   5.639   6.157   2.052  0.4609  0.4870  0.0703
 6490SOL    HW120369   5.558   6.105   2.080  2.0543 -1.9111  0.5458
 6490SOL    HW220370   5.722   6.108   2.081  2.1531  1.4071 -2.7639
 6491SOL     OW20371   1.515   5.946   3.693 -0.2983 -0.7841  0.8837
 6491SOL    HW120372   1.561   5.875   3.640 -0.7414 -0.0470 -0.5374
 6491SOL    HW220373   1.527   6.034   3.647 -1.0714 -0.1896  1.7937
 6492SOL     OW20374   1.231   5.855   3.014  0.1637 -0.3031  0.4018
 6492SOL    HW120375   1.251   5.786   2.945  4.2040 -0.6354  1.6691
 6492SOL    HW220376   1.236   5.946   2.974  1.2592 -0.5403 -0.0335
 6493SOL     OW20377   6.820   5.935   4.106 -0.4050 -0.1935 -0.7188
 6493SOL    HW120378   6.835   5.838   4.091 -0.0523 -0.4814  1.2654
 6493SOL    HW220379   6.732   5.949   4.151 -0.1591  0.3387 -0.3870
 6494SOL     OW20380   6.449   0.658   3.210 -0.2926 -0.0944  0.2972
 6494SOL    HW120381   6.486   0.669   3.303  1.0650  0.6919 -0.2995
 6494SOL    HW220382   6.472   0.567   3.176  1.5878  0.5291 -0.2265
 6495SOL     OW20383   6.015   1.375   0.995 -0.3407  0.6805  0.4784
 6495SOL    HW120384   6.050   1.311   1.063 -0.5942 -0.5916 -0.5398
 6495SOL    HW220385   5.987   1.460   1.040  2.4298  1.1140  1.5387
 6496SOL     OW20386   5.895   4.466   2.582  0.1886 -0.1265 -0.3044
 6496SOL    HW120387   5.921   4.370   2.585  3.1929  0.5790 -0.1764
 6496SOL    HW220388   5.914   4.504   2.492  2.1466  1.0001  0.4926
 6497SOL     OW20389   3.380   5.923   0.926 -0.1506  0.3112 -0.8911
 6497SOL    HW120390   3.357   5.908   1.022  2.2965 -1.2519 -0.4524
 6497SOL    HW220391   3.381   6.021   0.907  0.3352  0.7175  0.9922
 6498SOL     OW20392   4.207   0.463   1.263  0.4337 -0.4532 -0.1935
 6498SOL    HW120393   4.217   0.559   1.291 -2.3364 -0.5816  1.6266
 6498SOL    HW220394   4.266   0.406   1.319  0.2383 -0.0161  0.4728
 6499SOL     OW20395   1.676   0.378   6.617 -0.7179  0.3308  0.3163
 6499SOL    HW120396   1.717   0.321   6.545  0.4628  0.3109  0.9725
 6499SOL    HW220397   1.655   0.468   6.580  0.2063  0.4368  0.0089
 6500SOL     OW20398   5.308   3.941   6.157 -0.3803  0.1636 -0.0797
 6500SOL    HW120399   5.283   3.956   6.061  1.7866  0.8756 -0.5934
 6500SOL    HW220400   5.266   4.011   6.214  0.6210  1.5230 -0.9468
 6501SOL     OW20401   2.434   0.268   3.694 -0.1762 -0.2281 -0.0878
 6501SOL    HW120402   2.461   0.363   3.677  2.5955 -0.8406  0.3795
 6501SOL    HW220403   2.508   0.222   3.744 -3.6207 -1.1435  4.8651
 6502SOL     OW20404   6.093   6.802   3.389  0.3384 -0.5078 -0.1238
 6502SOL    HW120405   6.145   6.888   3.387 -1.5516  0.7806  1.9990
 6502SOL    HW220406   6.008   6.815   3.440 -1.2724 -3.0052 -1.9168
 6503SOL     OW20407   4.053   0.516   6.705  0.0715 -0.2914  0.0529
 6503SOL    HW120408   4.001   0.431   6.710 -0.5181  0.0306 -0.4878
 6503SOL    HW220409   4.052   0.561   6.794 -0.7211 -0.2070  0.0097
 6504SOL     OW20410   6.431   4.322   2.815 -0.3963 -0.3290 -0.0408
 6504SOL    HW120411   6.481   4.239   2.791 -1.2061 -0.1267 -2.7174
 6504SOL    HW220412   6.340   4.319   2.774 -0.2221  2.1458 -0.7517
 6505SOL     OW20413   6.114   3.567   1.178  0.1152 -0.2068 -0.2820
 6505SOL    HW120414   6.077   3.495   1.120  1.9983 -1.8344  0.4180
 6505SOL    HW220415   6.156   3.526   1.259  3.2591  1.4184 -0.9182
 6506SOL     OW20416   1.979   1.426   0.543  0.8373  0.4183  0.3623
 6506SOL    HW120417   2.062   1.467   0.504 -0.3296  2.3182 -0.2370
 6506SOL    HW220418   1.953   1.345   0.489  0.8113  1.3801 -1.1213
 6507SOL     OW20419   0.821   7.012   5.243 -0.3515 -0.2225  0.5521
 6507SOL    HW120420   0.832   6.975   5.151 -0.2060  1.8270 -0.3211
 6507SOL    HW220421   0.821   6.938   5.310 -1.4935 -1.8669 -1.1696
 6508SOL     OW20422   6.689   2.854   4.400 -0.4794 -0.1210 -0.2689
 6508SOL    HW120423   6.658   2.760   4.386  1.3450 -0.9746  0.9554
 6508SOL    HW220424   6.785   2.853   4.427  0.1029  2.2411 -1.9699
 6509SOL     OW20425   4.711   4.927   5.977 -0.1227  0.3151 -0.4311
 6509SOL    HW120426   4.738   4.989   5.904  0.3708 -0.2062 -0.7003
 6509SOL    HW220427   4.619   4.892   5.959 -0.5162  1.1703 -0.1352
 6510SOL     OW20428   4.169   5.101   2.355  0.3956 -0.6925  0.1889
 6510SOL    HW120429   4.093   5.036   2.357 -0.4125  0.2478  0.5219
 6510SOL    HW220430   4.230   5.078   2.278  0.3465 -2.0654  0.5298
 6511SOL     OW20431   6.116   6.525   4.821  0.4288 -0.3011 -0.5732
 6511SOL    HW120432   6.151   6.439   4.785 -0.4065 -0.6756 -0.5004
 6511SOL    HW220433   6.091   6.513   4.917  1.8293  0.4614 -0.0797
 6512SOL     OW20434   4.665   5.220   2.059 -0.4822 -0.5589  0.1310
 6512SOL    HW120435   4.758   5.183   2.067 -0.1141  0.4416  0.6235
 6512SOL    HW220436   4.658   5.275   1.977 -0.7228 -0.8345 -0.0372
 6513SOL     OW20437   0.566   3.915   6.313  0.2975 -0.1566 -0.6858
 6513SOL    HW120438   0.602   3.971   6.388  2.4955  0.6497 -2.2215
 6513SOL    HW220439   0.514   3.838   6.350  0.4494  0.7673  1.6011
 6514SOL     OW20440   4.089   5.820   4.522  0.1270  0.0565  0.0525
 6514SOL    HW120441   4.164   5.847   4.582  1.2917 -1.5249 -0.6066
 6514SOL    HW220442   4.104   5.859   4.431  0.9769 -1.4294 -0.4765
 6515SOL     OW20443   1.661   3.757   5.378 -0.0680 -0.1637  0.3861
 6515SOL    HW120444   1.621   3.712   5.458  1.3814  1.5498  2.1867
 6515SOL    HW220445   1.602   3.833   5.349  0.0225  0.0051  0.6421
 6516SOL     OW20446   6.334   3.436   1.691 -0.5122 -0.4036  0.0345
 6516SOL    HW120447   6.333   3.365   1.761 -0.1617 -2.1210 -1.6385
 6516SOL    HW220448   6.429   3.463   1.673 -0.6018  0.0361  0.2056
 6517SOL     OW20449   4.846   4.397   1.060 -0.0746 -0.0806 -0.1149
 6517SOL    HW120450   4.902   4.475   1.033  0.2438  0.2644  1.4416
 6517SOL    HW220451   4.848   4.328   0.988 -0.7430  1.5204 -1.7198
 6518SOL     OW20452   2.253   2.572   2.822  0.1703  0.0288  0.1150
 6518SOL    HW120453   2.333   2.552   2.879 -0.0167 -0.9335  0.0527
 6518SOL    HW220454   2.277   2.641   2.754  0.3401  1.4051  1.4975
 6519SOL     OW20455   4.865   2.833   0.344  0.3606 -0.6103  0.0118
 6519SOL    HW120456   4.772   2.853   0.314 -0.1406 -0.9853  1.2584
 6519SOL    HW220457   4.911   2.778   0.274 -0.6648 -1.2044 -0.2185
 6520SOL     OW20458   0.946   5.721   6.551  0.4936 -0.1668 -0.3039
 6520SOL    HW120459   0.961   5.623   6.557  0.1658 -0.3788 -2.3615
 6520SOL    HW220460   0.900   5.753   6.634 -0.6105 -1.9786 -0.1716
 6521SOL     OW20461   6.085   4.140   1.649 -0.2921 -0.1126  0.8675
 6521SOL    HW120462   6.084   4.044   1.623  0.7340 -0.3104  1.4834
 6521SOL    HW220463   6.022   4.154   1.725 -2.2221  0.1920 -0.7205
 6522SOL     OW20464   3.025   5.863   5.686  0.1444  0.4691 -0.1701
 6522SOL    HW120465   2.942   5.853   5.740  0.1818  1.8049  0.1541
 6522SOL    HW220466   3.005   5.846   5.590 -0.9195  2.5622 -0.3547
 6523SOL     OW20467   6.457   2.036   5.386  0.5503  0.2952 -0.1077
 6523SOL    HW120468   6.407   2.043   5.472  0.0929  1.9287 -0.4683
 6523SOL    HW220469   6.460   2.125   5.342  0.6224 -0.5386 -1.8849
 6524SOL     OW20470   5.772   1.141   1.178 -0.1984  0.2408  0.3425
 6524SOL    HW120471   5.772   1.046   1.209  0.2204 -0.5002 -1.7558
 6524SOL    HW220472   5.843   1.154   1.109 -0.4150  2.0331  0.4004
 6525SOL     OW20473   0.423   1.269   3.057 -0.7495 -0.2331  0.0760
 6525SOL    HW120474   0.428   1.173   3.030 -3.4373 -0.9704  1.8680
 6525SOL    HW220475   0.508   1.294   3.104 -1.2811 -2.8570  2.7343
 6526SOL     OW20476   3.829   0.218   2.251  0.3649  0.0672 -0.0945
 6526SOL    HW120477   3.886   0.300   2.263  1.2123 -0.5097 -0.1198
 6526SOL    HW220478   3.860   0.146   2.313  0.5800 -0.7220 -1.0939
 6527SOL     OW20479   3.273   0.154   2.744  0.2245 -0.0864 -0.8799
 6527SOL    HW120480   3.227   0.241   2.761  0.1901 -0.2647 -0.0516
 6527SOL    HW220481   3.302   0.151   2.648  0.0258  0.7398 -0.9780
 6528SOL     OW20482   0.117   6.564   6.224  0.5445 -0.1525  0.2170
 6528SOL    HW120483   0.117   6.550   6.323 -1.3277 -1.8229  0.0356
 6528SOL    HW220484   0.137   6.660   6.204  0.4178  0.3326  2.2310
 6529SOL     OW20485   3.457   2.427   5.715 -0.0136  0.0612  0.1223
 6529SOL    HW120486   3.372   2.433   5.662  0.4065  2.1059 -0.3969
 6529SOL    HW220487   3.496   2.518   5.725  3.0664 -0.9974 -1.1659
 6530SOL     OW20488   3.680   0.232   5.749  0.2852  0.6614 -0.2343
 6530SOL    HW120489   3.603   0.221   5.812 -0.5715 -0.3791 -1.3931
 6530SOL    HW220490   3.693   0.329   5.728 -2.6345  0.7457 -2.2240
 6531SOL     OW20491   3.584   4.224   1.152 -0.1835  0.3652  0.4626
 6531SOL    HW120492   3.547   4.225   1.245  1.9647  2.6845  1.4096
 6531SOL    HW220493   3.675   4.266   1.151  0.8074 -1.5266 -2.3670
 6532SOL     OW20494   0.747   4.852   1.759 -0.4077 -0.0490 -0.4707
 6532SOL    HW120495   0.846   4.836   1.763 -0.4542 -0.2303  0.1322
 6532SOL    HW220496   0.706   4.793   1.690 -0.3655 -1.4822  0.6808
 6533SOL     OW20497   5.285   5.768   4.870  0.0727  0.1467 -0.3692
 6533SOL    HW120498   5.249   5.771   4.777  1.0502  0.0286 -0.7557
 6533SOL    HW220499   5.249   5.846   4.921  0.6704  1.0303 -1.2713
 6534SOL     OW20500   1.293   6.053   2.088  0.3721 -0.1917  0.0009
 6534SOL    HW120501   1.222   5.984   2.097 -0.5265  0.6172 -0.6624
 6534SOL    HW220502   1.300   6.082   1.992  0.1315  1.2327  0.3860
 6535SOL     OW20503   5.095   4.905   1.023  0.1433 -0.5564  0.0069
 6535SOL    HW120504   5.029   4.959   0.969  0.9670  0.0753 -0.4048
 6535SOL    HW220505   5.050   4.825   1.062 -0.5413 -0.9094 -1.4479
 6536SOL     OW20506   3.997   4.602   0.791  0.6169 -0.2768  0.7479
 6536SOL    HW120507   4.087   4.643   0.785  0.3412  0.2262 -0.1009
 6536SOL    HW220508   3.954   4.601   0.701 -1.0218  1.2939  1.4472
 6537SOL     OW20509   5.200   1.503   2.235  0.1682 -0.6508 -0.4057
 6537SOL    HW120510   5.207   1.415   2.188  0.2697 -1.7273  1.5374
 6537SOL    HW220511   5.275   1.562   2.207  2.0070 -2.3887  0.6245
 6538SOL     OW20512   4.711   6.167   6.440  0.8991 -0.4437  0.2447
 6538SOL    HW120513   4.679   6.261   6.454  3.1153  0.1394  2.2328
 6538SOL    HW220514   4.632   6.106   6.431 -0.8039  1.0529  3.2457
 6539SOL     OW20515   0.564   2.888   4.635  0.2216  0.5764  0.2888
 6539SOL    HW120516   0.474   2.846   4.647 -0.1206  1.1138 -0.3130
 6539SOL    HW220517   0.555   2.970   4.578  0.9702  1.1119  0.9214
 6540SOL     OW20518   6.497   6.803   6.282 -0.4721 -0.3917 -0.1829
 6540SOL    HW120519   6.589   6.768   6.299 -0.1104  0.9203  0.7002
 6540SOL    HW220520   6.473   6.789   6.186 -0.3688 -2.9927  0.0925
 6541SOL     OW20521   2.278   1.245   5.342 -0.0399  0.0242  0.5763
 6541SOL    HW120522   2.296   1.342   5.356  1.2454 -0.2584  1.1197
 6541SOL    HW220523   2.186   1.232   5.306 -0.1468  1.4501  0.2913
 6542SOL     OW20524   1.455   6.964   6.044  0.2403  0.1567  0.0123
 6542SOL    HW120525   1.463   6.880   5.990 -0.2074 -0.6687  1.1968
 6542SOL    HW220526   1.546   7.000   6.063  0.4716 -0.4963  0.1642
 6543SOL     OW20527   5.445   5.640   6.838 -0.1793  0.0088 -0.0167
 6543SOL    HW120528   5.541   5.637   6.864 -0.2703 -0.7793  0.2289
 6543SOL    HW220529   5.403   5.723   6.876  0.4071  0.3757 -0.1638
 6544SOL     OW20530   1.834   0.028   3.956  0.0790 -0.0944  0.7410
 6544SOL    HW120531   1.831  -0.026   3.871  0.3664  2.4036 -0.9429
 6544SOL    HW220532   1.750   0.012   4.008  0.1147 -2.0618  0.2913
 6545SOL     OW20533   4.146   5.635   1.974  1.0497 -0.1414  0.7709
 6545SOL    HW120534   4.207   5.713   1.983  1.8683 -0.7678  0.8114
 6545SOL    HW220535   4.177   5.577   1.899 -0.6053  0.4950 -0.4735
 6546SOL     OW20536   3.028   6.431   3.203 -0.5424  0.2554  0.1975
 6546SOL    HW120537   2.946   6.395   3.248 -0.5235 -0.4987 -0.3575
 6546SOL    HW220538   3.093   6.357   3.187 -0.3988  0.5746 -0.7612
 6547SOL     OW20539   6.290   5.674   6.699 -0.8549  0.1832  0.3995
 6547SOL    HW120540   6.249   5.754   6.654  1.7093  1.5421  0.2572
 6547SOL    HW220541   6.312   5.697   6.794 -1.6707 -0.9797  0.8891
 6548SOL     OW20542   0.190   4.803   2.565  0.6169  0.1218  0.6116
 6548SOL    HW120543   0.133   4.818   2.646 -2.6695  1.0709 -1.6511
 6548SOL    HW220544   0.243   4.886   2.547 -1.1253  1.1931  0.0971
 6549SOL     OW20545   1.715   3.336   5.403 -0.0408  0.8801 -0.1066
 6549SOL    HW120546   1.775   3.410   5.435  0.1233  0.9829 -0.6404
 6549SOL    HW220547   1.731   3.255   5.458  0.8272  0.8113 -0.4383
 6550SOL     OW20548   0.549   6.194   6.906 -0.3250 -0.3262 -0.6494
 6550SOL    HW120549   0.593   6.225   6.822  1.7750 -0.6808  0.2533
 6550SOL    HW220550   0.534   6.095   6.901 -2.2648 -0.0419 -1.4467
 6551SOL     OW20551   3.024   2.815   6.684  0.5563 -0.1859  0.7570
 6551SOL    HW120552   2.952   2.882   6.670 -0.4646 -1.3112  0.4702
 6551SOL    HW220553   3.008   2.764   6.769  1.5159  0.1537  1.1626
 6552SOL     OW20554   4.265   5.647   0.562  0.1919  0.1529 -0.1186
 6552SOL    HW120555   4.274   5.618   0.657 -1.2337  0.6523  0.2072
 6552SOL    HW220556   4.318   5.587   0.503  1.3570  0.0330  1.0166
 6553SOL     OW20557   5.829   0.230   4.551  0.3425 -0.1796  0.1750
 6553SOL    HW120558   5.927   0.241   4.560  0.2480  0.0681  0.8979
 6553SOL    HW220559   5.801   0.253   4.457  0.7853  1.0429  0.3368
 6554SOL     OW20560   4.180   3.976   1.285 -0.1875  0.3185 -0.2779
 6554SOL    HW120561   4.089   3.946   1.315  0.9859 -1.2368  2.0844
 6554SOL    HW220562   4.171   4.039   1.208 -3.2222 -0.0424 -0.3421
 6555SOL     OW20563   0.653   5.485   2.569  0.1408 -0.7067  0.1556
 6555SOL    HW120564   0.620   5.442   2.653 -0.0389  0.7465  0.8488
 6555SOL    HW220565   0.752   5.499   2.575 -0.3016  2.7014  1.7623
 6556SOL     OW20566   6.761   4.019   4.297  0.6166  0.0505 -0.2959
 6556SOL    HW120567   6.751   4.048   4.392  0.0170 -0.2733 -0.2602
 6556SOL    HW220568   6.788   3.923   4.294  0.5621  0.0399 -0.4564
 6557SOL     OW20569   0.423   4.948   2.921 -0.2182 -0.0070  0.2444
 6557SOL    HW120570   0.449   4.853   2.938  1.4765  0.1849 -1.0624
 6557SOL    HW220571   0.325   4.958   2.938 -1.1115 -2.6946 -2.3476
 6558SOL     OW20572   4.062   1.778   0.780  0.0166  0.0257 -0.0564
 6558SOL    HW120573   4.017   1.721   0.848 -1.7643 -0.2595 -1.4069
 6558SOL    HW220574   4.133   1.725   0.733  0.7041 -0.0090  0.9827
 6559SOL     OW20575   2.342   4.182   3.894 -1.1224  0.0603 -0.2672
 6559SOL    HW120576   2.341   4.257   3.828  2.2171 -1.2319 -2.0363
 6559SOL    HW220577   2.414   4.198   3.962 -2.6290 -0.0135  1.4315
 6560SOL     OW20578   2.531   6.524   6.602  0.2089 -0.0644 -0.0750
 6560SOL    HW120579   2.570   6.591   6.665  1.4284  1.1144 -1.9696
 6560SOL    HW220580   2.604   6.467   6.565 -0.2169  0.3370 -1.6076
 6561SOL     OW20581   5.919   5.030   6.353 -0.5204  0.5879 -0.8575
 6561SOL    HW120582   5.995   4.988   6.303 -0.7224 -0.1736 -0.5395
 6561SOL    HW220583   5.850   5.062   6.288 -0.0546  1.0565 -1.1352
 6562SOL     OW20584   4.875   6.555   0.030 -0.0068 -0.0297 -0.5333
 6562SOL    HW120585   4.937   6.631   0.046 -0.8133  0.8085 -1.2704
 6562SOL    HW220586   4.859   6.506   0.116 -1.4163  2.1570  0.5578
 6563SOL     OW20587   0.921   5.894   2.566  0.1068  0.0032  0.0643
 6563SOL    HW120588   0.885   5.949   2.491  0.1265  1.5371  1.1289
 6563SOL    HW220589   1.018   5.877   2.552  0.0702  0.1118 -0.3338
 6564SOL     OW20590   0.212   0.638   2.019  0.0601  0.3990  0.0845
 6564SOL    HW120591   0.220   0.575   2.096 -0.4831  1.3690  0.9657
 6564SOL    HW220592   0.153   0.715   2.045  0.2908  1.0129 -1.1282
 6565SOL     OW20593   4.127   3.605   5.868  0.0997 -0.0905  0.3999
 6565SOL    HW120594   4.139   3.616   5.769 -0.3110 -1.7303  0.1449
 6565SOL    HW220595   4.212   3.629   5.915  0.3141  0.6590 -0.3357
 6566SOL     OW20596   6.708   0.121   3.051  0.3596  0.0145 -0.0473
 6566SOL    HW120597   6.725   0.051   2.982 -2.9652  0.1356 -1.1839
 6566SOL    HW220598   6.728   0.085   3.142  0.8848 -1.6018 -0.7743
 6567SOL     OW20599   0.060   0.892   3.927 -0.0987 -0.1500 -0.5076
 6567SOL    HW120600   0.040   0.970   3.986 -1.1079  0.2390 -1.3349
 6567SOL    HW220601   0.046   0.807   3.978  2.3221  0.1498  0.8300
 6568SOL     OW20602   3.991   4.471   6.719  0.0058 -0.1729  0.3390
 6568SOL    HW120603   3.938   4.407   6.773  0.4708 -1.6853 -0.9158
 6568SOL    HW220604   3.938   4.555   6.705 -0.8922 -0.5366  1.4358
 6569SOL     OW20605   2.996   3.851   0.828 -0.0187  0.0113  0.2194
 6569SOL    HW120606   3.049   3.785   0.883 -0.5826 -0.9068 -0.3220
 6569SOL    HW220607   2.903   3.856   0.864 -0.0111  0.4323  0.1811
 6570SOL     OW20608   5.439   3.027   1.742  0.1353 -0.3366  0.6368
 6570SOL    HW120609   5.396   3.029   1.832  0.1839  1.8964  0.6773
 6570SOL    HW220610   5.445   2.933   1.709  0.9937 -1.3279  3.3746
 6571SOL     OW20611   5.232   3.455   1.380 -0.1044 -0.6577  0.0396
 6571SOL    HW120612   5.198   3.494   1.465  0.1215 -2.8042  1.1851
 6571SOL    HW220613   5.160   3.399   1.339  0.0451 -0.2463 -0.8058
 6572SOL     OW20614   4.955   4.710   0.689 -0.3298 -0.4679 -0.4115
 6572SOL    HW120615   5.004   4.629   0.723  1.2512  0.7829  0.3982
 6572SOL    HW220616   4.868   4.719   0.738 -0.2027 -1.2940 -0.0141
 6573SOL     OW20617   1.730   4.429   1.553  0.0111 -0.1354 -0.3040
 6573SOL    HW120618   1.705   4.408   1.458 -1.0770 -1.6032  0.2743
 6573SOL    HW220619   1.708   4.351   1.611  1.6401  0.3270  1.0154
 6574SOL     OW20620   4.294   1.040   6.638  0.6286 -0.2279  0.2688
 6574SOL    HW120621   4.329   0.962   6.586  1.2600 -0.3939  0.9306
 6574SOL    HW220622   4.299   1.122   6.581 -0.6548 -0.7559 -0.6658
 6575SOL     OW20623   0.155   1.237   3.460  0.0940  0.2515  0.9208
 6575SOL    HW120624   0.104   1.311   3.503  0.2390  1.0322 -0.1891
 6575SOL    HW220625   0.156   1.251   3.361  0.3630 -1.0962  0.7141
 6576SOL     OW20626   0.208   5.131   3.644 -0.5345 -0.0200 -0.0340
 6576SOL    HW120627   0.298   5.117   3.603 -0.6464 -0.8323 -0.0017
 6576SOL    HW220628   0.212   5.117   3.742 -1.2368 -2.8675 -0.3228
 6577SOL     OW20629   4.775   5.585   5.859 -0.2035  0.2026  0.1584
 6577SOL    HW120630   4.726   5.636   5.789 -3.0671 -0.5759  1.4435
 6577SOL    HW220631   4.803   5.496   5.822 -1.7097 -0.2112 -0.0521
 6578SOL     OW20632   3.206   2.563   6.700  0.4949 -0.3380  0.0032
 6578SOL    HW120633   3.300   2.575   6.667 -0.1319  1.3678 -1.2864
 6578SOL    HW220634   3.192   2.619   6.782 -0.0115  1.3037 -1.1494
 6579SOL     OW20635   2.982   5.444   0.467 -0.2272 -0.5022  0.2957
 6579SOL    HW120636   2.997   5.378   0.541  1.2239 -1.2788 -0.6322
 6579SOL    HW220637   3.071   5.475   0.432 -0.8177 -1.1981 -2.0121
 6580SOL     OW20638   3.972   4.829   4.846  0.1738 -0.0064  0.1095
 6580SOL    HW120639   4.056   4.815   4.794 -0.1820  0.3916 -0.5845
 6580SOL    HW220640   3.940   4.741   4.882  0.4075 -0.2937 -0.3739
 6581SOL     OW20641   0.293   3.201   0.742 -0.2475 -0.5361  0.3738
 6581SOL    HW120642   0.377   3.171   0.789 -0.8917 -0.5323  1.5653
 6581SOL    HW220643   0.318   3.254   0.661  0.9355 -3.4533 -1.3271
 6582SOL     OW20644   6.818   0.241   4.949  0.2147 -0.5474  0.4621
 6582SOL    HW120645   6.828   0.239   5.049 -1.9545  0.4554  0.7723
 6582SOL    HW220646   6.722   0.224   4.926  1.2122 -4.3779 -1.6965
 6583SOL     OW20647   6.673   4.652   1.591  0.0126 -0.2556  0.2481
 6583SOL    HW120648   6.685   4.553   1.594  0.2944 -0.2376  3.7477
 6583SOL    HW220649   6.576   4.674   1.601 -0.2355 -0.1071 -1.9362
 6584SOL     OW20650   4.590   5.359   6.797  0.2762  0.1960  0.2430
 6584SOL    HW120651   4.554   5.306   6.874  0.1752  2.2673  1.7034
 6584SOL    HW220652   4.686   5.381   6.814  0.4852 -0.0281 -0.6246
 6585SOL     OW20653   3.821   4.933   6.376 -0.3004  0.3611 -0.3986
 6585SOL    HW120654   3.862   5.004   6.319 -0.5967  0.3682 -0.6094
 6585SOL    HW220655   3.826   4.959   6.472  1.8550 -0.4753 -0.2266
 6586SOL     OW20656   0.764   3.502   5.912 -0.2955 -0.4082  0.0024
 6586SOL    HW120657   0.715   3.588   5.897  0.4512  0.0986  0.4064
 6586SOL    HW220658   0.862   3.518   5.907 -0.1366 -1.1659  0.5015
 6587SOL     OW20659   4.280   1.486   1.447 -0.3774  0.1668 -0.4471
 6587SOL    HW120660   4.333   1.446   1.521  2.1059  1.7624 -1.2251
 6587SOL    HW220661   4.253   1.579   1.471 -0.2252  0.4214 -1.2228
 6588SOL     OW20662   0.950   1.524   3.416 -0.3494 -0.4513  0.5393
 6588SOL    HW120663   1.033   1.513   3.361 -2.3492 -3.1098 -2.2835
 6588SOL    HW220664   0.954   1.464   3.496  1.3152  1.1945  1.7732
 6589SOL     OW20665   5.671   4.585   1.311 -0.0412  0.5352  0.0649
 6589SOL    HW120666   5.738   4.524   1.269 -1.1629 -1.9681  1.6869
 6589SOL    HW220667   5.714   4.633   1.388  0.1576 -0.4096  0.5628
 6590SOL     OW20668   0.783   5.182   5.351 -0.0445 -0.5913 -0.7891
 6590SOL    HW120669   0.789   5.119   5.274  2.2236 -0.1033 -1.0781
 6590SOL    HW220670   0.790   5.276   5.317  4.3590 -0.3961  0.0841
 6591SOL     OW20671   2.689   0.671   3.546  0.3078 -0.2015  0.2066
 6591SOL    HW120672   2.768   0.620   3.579  0.0000 -0.6360  0.2839
 6591SOL    HW220673   2.717   0.732   3.471  0.8644  0.2514  0.7746
 6592SOL     OW20674   0.820   5.438   3.482 -0.0181 -0.3862  0.2975
 6592SOL    HW120675   0.905   5.435   3.430 -1.0193 -1.2715 -1.3568
 6592SOL    HW220676   0.786   5.345   3.495 -1.0240 -0.0016  0.4758
 6593SOL     OW20677   5.351   1.616   4.467  0.1639  0.3377 -0.6263
 6593SOL    HW120678   5.431   1.670   4.441 -1.3776  2.6311 -0.9455
 6593SOL    HW220679   5.338   1.541   4.402  1.9523 -0.0282 -0.6102
 6594SOL     OW20680   2.243   4.732   6.962  0.0736  0.1943  0.1974
 6594SOL    HW120681   2.289   4.748   7.050 -0.5086 -0.6687  0.6647
 6594SOL    HW220682   2.176   4.804   6.946  0.1170  0.3042  0.5068
 6595SOL     OW20683   0.035   5.880   6.694  0.1839  0.0094 -0.4183
 6595SOL    HW120684   0.035   5.962   6.752  0.7173  0.0727 -0.4967
 6595SOL    HW220685   0.117   5.881   6.636  0.2339 -0.6177 -0.3624
 6596SOL     OW20686   4.366   6.642   6.107 -0.3929  0.0556  0.0459
 6596SOL    HW120687   4.322   6.731   6.113  1.4780  1.0515 -0.1177
 6596SOL    HW220688   4.418   6.625   6.191 -2.7405 -2.0872  1.1980
 6597SOL     OW20689   3.642   3.246   3.316  0.8650 -0.2073 -0.0882
 6597SOL    HW120690   3.621   3.342   3.334 -1.2443 -0.6857  0.2751
 6597SOL    HW220691   3.724   3.219   3.366 -0.2940  0.6001  2.4160
 6598SOL     OW20692   5.852   5.903   2.995 -0.2819 -0.1679  0.7376
 6598SOL    HW120693   5.775   5.846   2.966 -0.3439  0.1852  0.1781
 6598SOL    HW220694   5.876   5.882   3.089 -0.6411 -0.7456  0.7038
 6599SOL     OW20695   6.189   3.603   2.567 -0.1674 -0.1420  0.0604
 6599SOL    HW120696   6.196   3.628   2.470  0.1526 -0.8161 -0.0991
 6599SOL    HW220697   6.280   3.609   2.609 -0.3956  0.6392  0.4456
 6600SOL     OW20698   5.554   4.415   3.796 -0.4011  0.0800  0.0141
 6600SOL    HW120699   5.534   4.387   3.702 -3.0864 -2.5524  1.2073
 6600SOL    HW220700   5.653   4.407   3.813  0.0561  0.0340 -2.3506
 6601SOL     OW20701   1.704   1.495   6.957 -0.1744  0.5437  0.2185
 6601SOL    HW120702   1.738   1.450   7.039  0.8312  0.3356 -0.3065
 6601SOL    HW220703   1.779   1.539   6.908 -0.5082 -0.4960 -1.3226
 6602SOL     OW20704   2.707   1.142   5.456 -0.3397 -0.1646  0.2849
 6602SOL    HW120705   2.650   1.205   5.509 -0.0410 -1.6134  2.4555
 6602SOL    HW220706   2.653   1.062   5.429  0.0046 -0.3442  0.1203
 6603SOL     OW20707   1.207   6.398   6.872 -0.4052 -0.2747 -0.2614
 6603SOL    HW120708   1.137   6.326   6.872 -0.2862 -0.3921  0.2913
 6603SOL    HW220709   1.175   6.475   6.927  0.5731 -1.0032  1.4169
 6604SOL     OW20710   1.900   0.316   5.828  0.3346 -0.0277 -0.4730
 6604SOL    HW120711   1.942   0.394   5.874  0.0520  0.9112 -1.7588
 6604SOL    HW220712   1.955   0.234   5.845  2.5250  1.0659 -1.7185
 6605SOL     OW20713   5.243   5.199   5.403  0.1300  0.7909 -0.4963
 6605SOL    HW120714   5.303   5.278   5.415  2.3424 -0.9172  0.5447
 6605SOL    HW220715   5.298   5.120   5.375 -2.0762 -0.2753 -2.1230
 6606SOL     OW20716   2.279   2.445   4.443 -0.8567 -0.5601 -0.0464
 6606SOL    HW120717   2.181   2.449   4.460 -0.8893  1.2226 -0.4222
 6606SOL    HW220718   2.328   2.473   4.526 -0.7033 -0.3981 -0.1914
 6607SOL     OW20719   2.500   2.864   5.935 -0.0450  0.2596  0.5821
 6607SOL    HW120720   2.578   2.917   5.968  1.2386 -1.5714  0.6577
 6607SOL    HW220721   2.526   2.816   5.851 -2.1659  2.1497 -1.2670
 6608SOL     OW20722   3.566   2.925   6.203  0.5503 -0.5080  0.3177
 6608SOL    HW120723   3.658   2.953   6.232  0.7131 -1.4983  0.8057
 6608SOL    HW220724   3.530   2.991   6.137  2.1879 -0.8420 -0.9863
 6609SOL     OW20725   5.403   2.289   3.206  0.7293 -0.4086  0.2147
 6609SOL    HW120726   5.328   2.226   3.183 -0.4675  1.3036 -0.8337
 6609SOL    HW220727   5.371   2.352   3.277  0.6894  1.1803 -1.1807
 6610SOL     OW20728   6.922   2.051   5.602 -0.0826  0.7654 -0.1498
 6610SOL    HW120729   6.890   2.120   5.667 -1.4656 -1.1054  1.2882
 6610SOL    HW220730   7.014   2.022   5.627  0.0787  1.3175 -0.1006
 6611SOL     OW20731   2.528   0.562   2.493  0.2556 -0.7868  0.4531
 6611SOL    HW120732   2.454   0.629   2.487  0.6966 -0.3365 -0.0556
 6611SOL    HW220733   2.507   0.484   2.433  0.4628 -0.3947 -0.1307
 6612SOL     OW20734   1.812   1.704   3.070 -0.2369 -0.0032  0.5212
 6612SOL    HW120735   1.905   1.694   3.035 -0.0560 -1.1702  1.2747
 6612SOL    HW220736   1.766   1.615   3.069 -1.0243  0.3847  1.0117
 6613SOL     OW20737   6.259   4.171   6.778  0.5499  0.5448 -0.0352
 6613SOL    HW120738   6.211   4.084   6.767  2.0320 -0.2496 -0.5621
 6613SOL    HW220739   6.202   4.245   6.745 -0.2442 -0.3698 -0.7849
 6614SOL     OW20740   1.594   3.621   5.641  0.3824  0.2451 -0.4110
 6614SOL    HW120741   1.670   3.565   5.671 -0.2635 -0.3409  0.1503
 6614SOL    HW220742   1.514   3.564   5.623 -0.0007  0.8725 -0.7774
 6615SOL     OW20743   1.229   2.522   6.287  0.0783 -0.1903 -0.0390
 6615SOL    HW120744   1.260   2.486   6.198 -1.1829 -1.8002  0.1108
 6615SOL    HW220745   1.145   2.474   6.314 -0.7580  1.7657  1.0373
 6616SOL     OW20746   1.806   5.658   4.236 -0.1327 -0.1998  0.6763
 6616SOL    HW120747   1.803   5.707   4.324 -3.1039 -0.7328  0.9569
 6616SOL    HW220748   1.739   5.584   4.237 -1.0727  0.4876 -2.4221
 6617SOL     OW20749   6.578   4.938   4.567 -0.2692  0.4946  0.3971
 6617SOL    HW120750   6.579   4.838   4.569  0.9400  0.4922  1.1788
 6617SOL    HW220751   6.494   4.971   4.610 -0.1710 -0.1883  1.1380
 6618SOL     OW20752   1.938   0.024   5.111  0.2008  0.3195 -0.4225
 6618SOL    HW120753   2.029  -0.007   5.141 -0.6336 -1.5046  0.3802
 6618SOL    HW220754   1.895   0.077   5.184  0.1312  0.1437 -0.3372
 6619SOL     OW20755   6.491   3.462   6.414 -0.1830  0.0458  0.3452
 6619SOL    HW120756   6.573   3.520   6.415  0.7316 -1.2128  1.3577
 6619SOL    HW220757   6.431   3.489   6.489 -1.9399  2.5532 -1.7575
 6620SOL     OW20758   1.899   0.712   2.787  0.2141  0.2425 -0.0024
 6620SOL    HW120759   1.944   0.624   2.771 -0.3023 -0.1194  0.5370
 6620SOL    HW220760   1.954   0.784   2.744  0.9286 -0.2712  0.0154
 6621SOL     OW20761   0.849   2.417   1.743  0.8103  0.0787 -0.1861
 6621SOL    HW120762   0.784   2.417   1.819  0.5634  0.8530 -0.3887
 6621SOL    HW220763   0.931   2.365   1.769  1.0044  0.8625  0.8519
 6622SOL     OW20764   4.919   3.206   0.474  0.2272 -0.3065  0.6080
 6622SOL    HW120765   4.910   3.250   0.563  0.6864 -0.4049  0.7005
 6622SOL    HW220766   4.944   3.110   0.486  0.9607 -0.1507  0.3558
 6623SOL     OW20767   3.855   2.073   6.714  0.2789  0.9424  0.0080
 6623SOL    HW120768   3.806   2.145   6.763  0.8073  1.7940 -0.6804
 6623SOL    HW220769   3.826   2.073   6.618 -0.3185 -0.3198  0.1555
 6624SOL     OW20770   6.349   1.559   1.652 -0.1433  0.0124  0.5902
 6624SOL    HW120771   6.302   1.499   1.587 -2.2825  1.4105  0.7329
 6624SOL    HW220772   6.418   1.612   1.603 -0.4509 -0.2709 -0.1780
 6625SOL     OW20773   1.388   4.977   6.967 -0.3102  0.3955 -0.1755
 6625SOL    HW120774   1.481   4.942   6.965  0.1946  1.6611  0.4191
 6625SOL    HW220775   1.330   4.920   6.908  0.4485 -1.4241  0.7674
 6626SOL     OW20776   1.584   0.798   5.943 -0.6691 -0.9396  0.6121
 6626SOL    HW120777   1.522   0.723   5.919 -1.3851 -0.2067  0.1255
 6626SOL    HW220778   1.675   0.779   5.907 -1.4701 -0.3332 -1.9671
 6627SOL     OW20779   4.786   3.155   1.010  0.8416 -0.2961 -0.4108
 6627SOL    HW120780   4.785   3.236   0.951 -1.1375 -0.0886 -0.1457
 6627SOL    HW220781   4.705   3.155   1.069  0.6799 -2.5573 -0.5293
 6628SOL     OW20782   4.315   5.488   1.754  0.2630  0.1251 -0.2200
 6628SOL    HW120783   4.293   5.447   1.666  0.4270 -0.9925  0.2404
 6628SOL    HW220784   4.360   5.420   1.812 -1.6732  0.2004  1.4741
 6629SOL     OW20785   2.956   0.345   5.462  0.5767  0.3105 -0.1909
 6629SOL    HW120786   2.950   0.319   5.366 -0.6336 -0.4512  0.0650
 6629SOL    HW220787   2.898   0.424   5.480 -1.8526 -1.4878  0.4903
 6630SOL     OW20788   1.490   0.548   3.598  0.0284 -0.2641 -0.6801
 6630SOL    HW120789   1.551   0.548   3.519  1.5070 -0.0740  0.4134
 6630SOL    HW220790   1.544   0.545   3.682 -1.5193 -1.9971  0.3340
 6631SOL     OW20791   4.202   4.124   5.497 -0.3785 -0.1328  0.3513
 6631SOL    HW120792   4.276   4.063   5.466 -1.4829 -2.1434  1.4490
 6631SOL    HW220793   4.163   4.172   5.418  1.5267  0.3544 -0.3441
 6632SOL     OW20794   1.079   5.558   5.677 -0.1095 -0.5479  0.4579
 6632SOL    HW120795   1.015   5.504   5.622 -0.2110  0.0506 -0.0179
 6632SOL    HW220796   1.049   5.557   5.773 -0.0570 -1.4077  0.4758
 6633SOL     OW20797   3.294   3.098   5.568  0.3555 -0.1752  0.2840
 6633SOL    HW120798   3.361   3.097   5.642 -0.0793  2.8351  0.8258
 6633SOL    HW220799   3.210   3.141   5.600  0.0159  0.8554 -1.8215
 6634SOL     OW20800   6.524   4.453   5.606 -0.0678  0.6401 -0.1424
 6634SOL    HW120801   6.507   4.551   5.622  1.8971  1.1006 -0.5983
 6634SOL    HW220802   6.612   4.428   5.646 -1.0022 -1.2176  0.8637
 6635SOL     OW20803   0.383   3.989   1.221  0.4409  0.3179  0.4406
 6635SOL    HW120804   0.405   4.079   1.259 -1.0495  0.5489  0.8259
 6635SOL    HW220805   0.460   3.956   1.166  1.7736  0.9554  1.8608
 6636SOL     OW20806   2.686   1.537   5.127  0.6024  0.0653 -0.1476
 6636SOL    HW120807   2.666   1.633   5.104  3.1001  0.5885 -0.4227
 6636SOL    HW220808   2.610   1.480   5.098 -0.1484  1.7470 -1.7137
 6637SOL     OW20809   2.871   5.571   5.328 -0.1964  0.4022  0.2850
 6637SOL    HW120810   2.933   5.537   5.399  0.6216  2.5082  0.6392
 6637SOL    HW220811   2.830   5.493   5.280  0.3206 -1.0602  2.1038
 6638SOL     OW20812   3.054   1.478   2.839  0.0887  0.0445  0.2240
 6638SOL    HW120813   3.083   1.569   2.869  0.6451  0.4653 -1.4840
 6638SOL    HW220814   3.106   1.451   2.758 -2.7007 -0.1322 -1.6394
 6639SOL     OW20815   0.842   1.329   1.646 -0.1587  0.1008 -0.1878
 6639SOL    HW120816   0.882   1.308   1.557 -2.7656 -0.8501 -1.2445
 6639SOL    HW220817   0.871   1.260   1.713 -2.2670 -2.4518 -1.6838
 6640SOL     OW20818   2.371   0.463   2.941 -0.1371  0.2565 -0.4752
 6640SOL    HW120819   2.387   0.499   3.033 -0.1878 -0.5911 -0.1276
 6640SOL    HW220820   2.323   0.375   2.947 -1.7772  1.0325 -1.3631
 6641SOL     OW20821   1.386   2.619   3.134  0.2336  0.1571  0.1004
 6641SOL    HW120822   1.473   2.629   3.087  1.5132 -0.8353  2.1107
 6641SOL    HW220823   1.391   2.544   3.200 -1.9737  0.4180  0.6686
 6642SOL     OW20824   2.200   4.082   0.937 -0.4503 -0.1494 -0.0873
 6642SOL    HW120825   2.156   4.086   0.847 -2.1227  0.9464  0.7179
 6642SOL    HW220826   2.275   4.148   0.941 -0.0737 -0.5245 -0.8080
 6643SOL     OW20827   0.741   2.668   4.557 -0.3699  0.0584  0.3404
 6643SOL    HW120828   0.776   2.653   4.650 -0.3894 -0.7342  0.2263
 6643SOL    HW220829   0.680   2.747   4.557 -2.8981 -1.7582  1.6999
 6644SOL     OW20830   3.366   3.904   3.233  0.6016  0.5155  0.5287
 6644SOL    HW120831   3.427   3.981   3.216  0.2422  0.7721  0.3765
 6644SOL    HW220832   3.413   3.819   3.209  0.9978  0.6868  0.6868
 6645SOL     OW20833   3.807   6.153   1.002  0.4683  0.1445  0.2332
 6645SOL    HW120834   3.761   6.161   1.091 -0.9134  1.6565 -0.5611
 6645SOL    HW220835   3.859   6.236   0.984  1.3079 -0.4426 -0.0885
 6646SOL     OW20836   1.764   4.797   1.087  0.6672 -0.5135 -0.4008
 6646SOL    HW120837   1.709   4.832   1.011  0.7250  3.0639  1.0029
 6646SOL    HW220838   1.706   4.746   1.150 -0.6433  1.1981 -0.1392
 6647SOL     OW20839   3.022   5.641   3.183  0.6792 -0.2249 -0.2206
 6647SOL    HW120840   3.019   5.546   3.216  1.9043 -0.8953 -1.9141
 6647SOL    HW220841   2.954   5.653   3.111 -0.3206  0.5544  0.8279
 6648SOL     OW20842   0.066   2.822   5.247 -0.2888 -0.2172  0.3047
 6648SOL    HW120843   0.078   2.859   5.339 -0.0822 -3.1157  1.5527
 6648SOL    HW220844  -0.030   2.834   5.219 -0.6161 -0.2198  1.3691
 6649SOL     OW20845   6.733   0.627   3.293  0.4586 -0.0081  0.8408
 6649SOL    HW120846   6.713   0.559   3.364  0.3134 -0.3078  0.5203
 6649SOL    HW220847   6.830   0.651   3.296  0.4101  0.1321  1.2689
 6650SOL     OW20848   3.235   6.964   5.476  0.1291 -0.1940 -0.1979
 6650SOL    HW120849   3.294   6.913   5.538  0.2412 -0.3997 -0.4723
 6650SOL    HW220850   3.282   6.980   5.390  0.0134  0.1843 -0.1953
 6651SOL     OW20851   6.521   5.674   6.036 -0.1709 -0.0483  0.0918
 6651SOL    HW120852   6.561   5.760   6.006 -1.9738  1.3157  1.3858
 6651SOL    HW220853   6.589   5.622   6.088  0.1038  2.0058  1.9057
 6652SOL     OW20854   0.410   3.625   3.681  0.3625  0.6862 -0.0941
 6652SOL    HW120855   0.338   3.690   3.704  0.5710  0.8370  0.1345
 6652SOL    HW220856   0.465   3.661   3.606 -0.4448  0.1024 -0.9935
 6653SOL     OW20857   2.704   0.982   5.062  0.0657 -0.2529 -0.4008
 6653SOL    HW120858   2.633   1.014   5.124 -1.4778 -3.2717 -0.4389
 6653SOL    HW220859   2.789   0.967   5.114 -1.0303 -2.1763  0.9552
 6654SOL     OW20860   2.939   3.520   4.487 -1.0831 -0.4463  0.3813
 6654SOL    HW120861   2.928   3.422   4.472 -2.3479 -0.4052  0.8877
 6654SOL    HW220862   2.925   3.541   4.584  2.1483 -0.1182  0.8890
 6655SOL     OW20863   5.300   4.847   2.531 -0.3960 -0.1790  0.0904
 6655SOL    HW120864   5.223   4.807   2.480 -0.3192 -0.7408  0.4021
 6655SOL    HW220865   5.340   4.777   2.590 -1.5305  0.8495  2.1871
 6656SOL     OW20866   5.961   0.786   1.432 -0.3630  0.1179 -0.3228
 6656SOL    HW120867   5.940   0.873   1.475 -0.2620 -0.2175  0.4185
 6656SOL    HW220868   5.891   0.719   1.457 -0.1393 -0.1589 -0.4350
 6657SOL     OW20869   6.960   1.521   3.286 -0.4300  0.6766  0.1939
 6657SOL    HW120870   6.939   1.600   3.228  0.4281  1.1497  0.5246
 6657SOL    HW220871   7.042   1.476   3.252 -0.2389  0.6306  0.7257
 6658SOL     OW20872   6.713   5.604   2.640  0.0480 -0.9723  0.4871
 6658SOL    HW120873   6.743   5.538   2.708 -0.4481 -1.6198  0.0907
 6658SOL    HW220874   6.783   5.614   2.569  0.4157 -0.5557  0.9051
 6659SOL     OW20875   0.571   4.367   4.862 -0.4216 -0.3298  0.3202
 6659SOL    HW120876   0.588   4.269   4.858  0.5120 -0.1566 -0.7686
 6659SOL    HW220877   0.536   4.398   4.773 -1.0149  0.2661  0.7585
 6660SOL     OW20878   2.529   2.430   2.080  0.1521 -0.4196 -0.3318
 6660SOL    HW120879   2.474   2.424   2.163 -0.0820  0.3800 -0.4262
 6660SOL    HW220880   2.576   2.343   2.066 -1.0982 -1.1346 -0.2640
 6661SOL     OW20881   0.928   4.178   2.898 -0.2428  0.5163 -0.1286
 6661SOL    HW120882   1.003   4.233   2.860 -0.8200 -0.1022 -2.2703
 6661SOL    HW220883   0.862   4.157   2.826 -2.0349  0.2720  1.5077
 6662SOL     OW20884   6.073   3.787   2.733 -0.3327  0.3644  0.2801
 6662SOL    HW120885   6.124   3.718   2.681 -0.8979  0.2329 -0.1094
 6662SOL    HW220886   5.993   3.815   2.680 -2.3531 -1.5880  2.1049
 6663SOL     OW20887   6.899   4.641   1.394 -0.7272  0.2544  0.4735
 6663SOL    HW120888   6.969   4.631   1.464  1.2293  1.4787 -1.2027
 6663SOL    HW220889   6.832   4.710   1.423 -1.9768 -1.7030  2.5699
 6664SOL     OW20890   0.140   5.948   1.027 -0.0204  0.0373  0.2355
 6664SOL    HW120891   0.127   6.000   0.943  2.3457  2.2677  1.1086
 6664SOL    HW220892   0.077   5.981   1.097  0.2349  0.4660  0.2640
 6665SOL     OW20893   5.275   0.192   2.172 -0.1808 -0.0884  0.4309
 6665SOL    HW120894   5.323   0.109   2.142 -0.0286 -0.4208  1.5510
 6665SOL    HW220895   5.202   0.168   2.235 -1.7160  0.4446 -1.0639
 6666SOL     OW20896   3.977   4.951   2.862  0.7259  0.7589  0.1560
 6666SOL    HW120897   4.022   4.977   2.777 -0.3115  1.9452 -0.0437
 6666SOL    HW220898   3.878   4.949   2.849  0.6255 -0.4887  0.9532
 6667SOL     OW20899   3.243   3.069   6.344  0.0353 -0.2194  0.1272
 6667SOL    HW120900   3.212   2.976   6.365 -0.7917  0.1790  0.7485
 6667SOL    HW220901   3.171   3.134   6.369  0.1487  0.5183 -1.3611
 6668SOL     OW20902   2.202   6.291   4.458 -0.8449 -0.0149 -0.1462
 6668SOL    HW120903   2.258   6.357   4.407  0.1381 -0.4758  0.3087
 6668SOL    HW220904   2.247   6.202   4.458 -1.2037 -0.2125  0.8639
 6669SOL     OW20905   1.420   4.985   1.644  0.5678  0.0696  0.4203
 6669SOL    HW120906   1.404   5.029   1.733  0.4905  3.7401 -1.2345
 6669SOL    HW220907   1.334   4.981   1.593  1.4520  3.8253 -1.7496
 6670SOL     OW20908   6.758   5.817   3.535  0.4489  0.1617  0.6079
 6670SOL    HW120909   6.723   5.724   3.545  0.9409  0.0516  1.4039
 6670SOL    HW220910   6.681   5.880   3.524  0.1380 -0.4005 -0.6669
 6671SOL     OW20911   0.908   6.427   3.600  0.3088  0.2452 -0.5212
 6671SOL    HW120912   0.948   6.502   3.652  0.5649  0.0737 -0.4676
 6671SOL    HW220913   0.975   6.354   3.590 -0.2520 -0.4060  0.2926
 6672SOL     OW20914   2.972   2.065   1.281  0.1500 -0.2484  0.0800
 6672SOL    HW120915   2.915   2.109   1.210  0.0620 -1.0570 -0.3588
 6672SOL    HW220916   3.006   1.978   1.247  1.1865 -0.0504  0.5605
 6673SOL     OW20917   6.334   4.593   2.976 -0.3382  0.8389 -0.2001
 6673SOL    HW120918   6.308   4.630   3.066  1.9931 -0.4403  1.1164
 6673SOL    HW220919   6.257   4.545   2.936 -1.5114  1.6321  0.9992
 6674SOL     OW20920   1.676   3.040   2.205 -0.0693 -0.3395  0.1472
 6674SOL    HW120921   1.616   3.100   2.258 -0.7977 -1.1109  0.2133
 6674SOL    HW220922   1.671   3.064   2.108 -1.0416 -0.8429  0.0587
 6675SOL     OW20923   0.919   5.175   3.085 -0.3149 -0.0090  0.0243
 6675SOL    HW120924   0.969   5.174   2.999 -0.4863 -0.7955 -0.0736
 6675SOL    HW220925   0.843   5.110   3.080 -0.5814  0.2499  0.6159
 6676SOL     OW20926   5.804   3.128   5.552  0.2694 -0.2461  0.0284
 6676SOL    HW120927   5.839   3.041   5.518  0.2847 -0.1891 -0.1001
 6676SOL    HW220928   5.775   3.185   5.475  1.8486  0.5620 -0.0005
 6677SOL     OW20929   5.414   1.932   0.158  0.3452 -0.2774  0.0208
 6677SOL    HW120930   5.452   1.871   0.088  2.1295 -0.4986  1.1149
 6677SOL    HW220931   5.369   2.010   0.114  0.0206 -1.2084 -1.3628
 6678SOL     OW20932   5.379   2.317   0.015  0.2938  0.4666  0.4399
 6678SOL    HW120933   5.364   2.362  -0.073  0.1444 -0.2539  0.0978
 6678SOL    HW220934   5.310   2.247   0.030  0.2583  0.6488  1.1792
 6679SOL     OW20935   0.065   0.186   2.877  0.3941  0.2510  0.4777
 6679SOL    HW120936   0.057   0.259   2.944  1.2736  0.0229  0.8387
 6679SOL    HW220937   0.155   0.190   2.834  1.0411 -1.5277  1.5730
 6680SOL     OW20938   1.980   0.795   6.948 -0.3235 -0.2925 -0.0827
 6680SOL    HW120939   2.049   0.831   7.011 -1.5988 -0.4910  1.4758
 6680SOL    HW220940   1.957   0.701   6.974  0.7322 -1.2146 -2.2381
 6681SOL     OW20941   2.348   2.614   5.809  0.2238  0.2896 -0.4985
 6681SOL    HW120942   2.262   2.564   5.813 -0.1502  0.3804 -4.1318
 6681SOL    HW220943   2.334   2.702   5.762  2.0640  0.8535 -0.0806
 6682SOL     OW20944   4.564   1.068   4.535  0.0883  0.3589  0.1465
 6682SOL    HW120945   4.631   1.068   4.460 -0.9915  0.4292 -0.8390
 6682SOL    HW220946   4.560   0.977   4.576  0.7859  0.3558  0.2156
 6683SOL     OW20947   3.333   3.285   6.133  0.0441  0.0796  0.5094
 6683SOL    HW120948   3.300   3.206   6.185 -1.7504  1.1096  1.0239
 6683SOL    HW220949   3.310   3.369   6.182  1.4951  0.9531 -0.2539
 6684SOL     OW20950   3.740   4.195   1.725 -0.1524 -0.5187  0.2679
 6684SOL    HW120951   3.839   4.198   1.715 -0.0404 -1.2286  1.1171
 6684SOL    HW220952   3.707   4.284   1.756  0.1729 -0.1871 -0.3095
 6685SOL     OW20953   6.800   0.520   6.443 -0.1192 -0.1623  0.6014
 6685SOL    HW120954   6.815   0.605   6.493  0.3639 -0.3140  0.7185
 6685SOL    HW220955   6.774   0.448   6.508  0.9998 -0.4818  0.7039
 6686SOL     OW20956   6.531   0.005   1.929 -0.0353 -0.2358 -0.4713
 6686SOL    HW120957   6.598   0.043   1.992  0.2112  1.7061 -1.7934
 6686SOL    HW220958   6.467  -0.055   1.978  1.1862 -0.1812  1.2391
 6687SOL     OW20959   1.827   5.901   2.368 -0.1550  0.3297 -0.1827
 6687SOL    HW120960   1.784   5.965   2.432 -0.3417  0.3206 -0.2962
 6687SOL    HW220961   1.775   5.815   2.368  1.2456 -0.5921  1.4887
 6688SOL     OW20962   3.200   6.474   1.201 -0.1476 -0.0829 -0.5743
 6688SOL    HW120963   3.288   6.506   1.165 -1.0514  2.3190 -0.8671
 6688SOL    HW220964   3.213   6.432   1.291  1.2492  0.6164 -0.4271
 6689SOL     OW20965   4.642   3.796   5.407  0.2971 -0.1329 -0.8646
 6689SOL    HW120966   4.722   3.796   5.468 -1.1941 -0.7161  1.2272
 6689SOL    HW220967   4.633   3.706   5.364  0.1263 -0.4457 -0.1881
 6690SOL     OW20968   2.835   2.992   6.651  0.5835  0.0293  0.1088
 6690SOL    HW120969   2.746   2.947   6.639  0.6844 -0.0998 -0.1541
 6690SOL    HW220970   2.836   3.039   6.739  0.5158 -0.5774  0.4362
 6691SOL     OW20971   4.800   5.757   2.401 -0.1284  0.2686  0.3302
 6691SOL    HW120972   4.721   5.818   2.395  1.0324  1.8287  0.1476
 6691SOL    HW220973   4.830   5.751   2.496  0.7140  1.3082  0.1507
 6692SOL     OW20974   6.484   2.729   2.223 -0.3636  0.6809  0.2180
 6692SOL    HW120975   6.571   2.778   2.214 -0.6831  0.9937 -1.6190
 6692SOL    HW220976   6.411   2.794   2.245 -0.3707  0.6272  0.3558
 6693SOL     OW20977   3.281   2.810   2.109 -0.0863 -0.4243 -0.2221
 6693SOL    HW120978   3.295   2.816   2.010  1.1508 -0.4179 -0.0549
 6693SOL    HW220979   3.238   2.723   2.131 -1.2318 -0.0362 -0.8455
 6694SOL     OW20980   0.267   5.803   0.182 -0.5935 -0.2537  0.1048
 6694SOL    HW120981   0.306   5.733   0.122  2.3472  0.5028  0.9408
 6694SOL    HW220982   0.209   5.759   0.251 -2.4134 -1.3202 -1.9775
 6695SOL     OW20983   1.400   2.432   3.304  0.6394 -0.5106 -0.5386
 6695SOL    HW120984   1.353   2.376   3.371  0.9040  0.3326  0.3722
 6695SOL    HW220985   1.497   2.435   3.324  0.4421  1.5354  0.4324
 6696SOL     OW20986   3.353   4.036   1.945  0.1985 -0.7413 -0.0340
 6696SOL    HW120987   3.427   3.986   1.989  0.4733 -1.1176 -0.8872
 6696SOL    HW220988   3.271   4.030   2.001  0.5850 -1.0442  0.5135
 6697SOL     OW20989   1.140   5.887   1.531  0.1130  0.1234 -0.3824
 6697SOL    HW120990   1.194   5.851   1.607  2.0098 -0.2241 -1.8326
 6697SOL    HW220991   1.159   5.985   1.520  0.8239 -0.0971 -1.1824
 6698SOL     OW20992   6.157   0.656   2.463  0.2701 -0.1061 -0.4316
 6698SOL    HW120993   6.151   0.756   2.462  0.0614 -0.1186 -0.4633
 6698SOL    HW220994   6.247   0.629   2.496 -0.2967  0.0870  1.3708
 6699SOL     OW20995   1.927   6.299   6.629 -0.0307  0.5196 -0.4590
 6699SOL    HW120996   1.848   6.339   6.674  0.7838 -1.2842  2.9260
 6699SOL    HW220997   1.906   6.205   6.602  1.5178 -1.0192  3.0144
 6700SOL     OW20998   5.068   2.956   5.470  0.5462  0.1573 -0.0965
 6700SOL    HW120999   4.971   2.937   5.458  0.4629 -2.1179  2.8231
 6700SOL    HW221000   5.117   2.870   5.483  3.0464  1.2387 -1.6669
 6701SOL     OW21001   1.988   4.410   4.526  0.1721 -0.0855 -0.0265
 6701SOL    HW121002   2.072   4.359   4.546  0.2206 -0.6627 -1.5213
 6701SOL    HW221003   1.988   4.436   4.429 -0.3341  1.9003  0.4668
 6702SOL     OW21004   0.605   5.376   2.826 -0.2840 -0.3924  0.3094
 6702SOL    HW121005   0.507   5.376   2.845 -0.0146  0.0431  1.9097
 6702SOL    HW221006   0.655   5.364   2.912  1.0625 -0.9851 -0.5275
 6703SOL     OW21007   5.868   2.387   5.667  0.2996  0.5318  0.0961
 6703SOL    HW121008   5.777   2.426   5.682 -0.4150 -1.1456  0.3798
 6703SOL    HW221009   5.915   2.374   5.754 -0.6192 -1.7763  0.3194
 6704SOL     OW21010   0.795   1.939   5.866  0.2164 -0.1841 -0.2144
 6704SOL    HW121011   0.853   1.863   5.895 -1.2242 -1.2140  0.0782
 6704SOL    HW221012   0.844   2.025   5.880  1.4880 -0.9809  0.4433
 6705SOL     OW21013   6.229   4.346   4.966 -0.4278  0.1447 -0.5409
 6705SOL    HW121014   6.317   4.316   5.002 -1.2025 -0.6881  0.7395
 6705SOL    HW221015   6.229   4.338   4.866  0.8180 -0.1565 -0.5319
 6706SOL     OW21016   0.745   6.628   1.036 -0.3208 -0.4422  0.7313
 6706SOL    HW121017   0.717   6.635   0.940 -1.7535 -2.9516  0.8702
 6706SOL    HW221018   0.668   6.655   1.094  0.5686  1.1474  1.2391
 6707SOL     OW21019   2.550   0.283   4.034 -0.3538  0.2805 -0.2797
 6707SOL    HW121020   2.601   0.247   4.113 -0.7500 -0.5537 -0.3910
 6707SOL    HW221021   2.453   0.261   4.046 -0.0995 -2.6540 -2.4230
 6708SOL     OW21022   4.242   1.832   2.796  1.0372  0.0440  0.1777
 6708SOL    HW121023   4.214   1.740   2.769  1.3433  0.1729 -0.6139
 6708SOL    HW221024   4.209   1.852   2.888 -0.5033 -0.2237 -0.2890
 6709SOL     OW21025   4.463   2.141   2.365  0.1689 -0.2618 -0.1170
 6709SOL    HW121026   4.406   2.205   2.417  0.8045 -0.4570  0.8508
 6709SOL    HW221027   4.447   2.048   2.398  0.7312 -0.3627 -0.1104
 6710SOL     OW21028   5.612   0.499   0.458 -0.3233 -0.1258  0.2384
 6710SOL    HW121029   5.628   0.585   0.506  2.9551  0.1894 -1.1459
 6710SOL    HW221030   5.597   0.516   0.361 -3.7455 -0.9616  0.4971
 6711SOL     OW21031   1.042   1.446   3.721 -0.0105  0.3679  0.5794
 6711SOL    HW121032   1.058   1.437   3.819 -1.1151  1.4585  0.8857
 6711SOL    HW221033   0.950   1.482   3.705  0.2246  0.4074 -0.8524
 6712SOL     OW21034   1.077   4.711   0.631  0.5759  0.2550 -0.3720
 6712SOL    HW121035   1.169   4.678   0.610  0.3494 -0.4420 -0.2738
 6712SOL    HW221036   1.077   4.753   0.722  0.9018  0.6986 -0.5713
 6713SOL     OW21037   1.095   1.247   3.386 -0.2611  0.3539  0.0254
 6713SOL    HW121038   1.162   1.192   3.335 -1.7739 -0.5713 -1.0470
 6713SOL    HW221039   1.137   1.333   3.413  1.7907 -0.7606  0.6099
 6714SOL     OW21040   6.531   0.584   6.252  0.7963 -0.0397 -0.4166
 6714SOL    HW121041   6.511   0.494   6.215 -0.2652  0.1815 -0.4014
 6714SOL    HW221042   6.457   0.612   6.314  1.4546  0.5429  0.1282
 6715SOL     OW21043   3.741   0.374   1.678  0.2290 -0.8942 -0.4896
 6715SOL    HW121044   3.756   0.470   1.654 -0.1741 -1.1000 -1.6424
 6715SOL    HW221045   3.801   0.316   1.622  0.0566 -1.3472 -0.2115
 6716SOL     OW21046   1.447   3.668   0.431 -0.2060 -0.5800  0.2917
 6716SOL    HW121047   1.525   3.680   0.370  1.5930  2.4624  2.8419
 6716SOL    HW221048   1.363   3.697   0.385  0.6187 -0.8724 -1.4842
 6717SOL     OW21049   4.351   2.852   7.003  0.0314 -0.3936  0.3155
 6717SOL    HW121050   4.373   2.847   6.905 -1.1680  1.3330 -0.0941
 6717SOL    HW221051   4.381   2.768   7.048 -3.5000 -3.4491 -2.3697
 6718SOL     OW21052   0.595   1.579   1.218 -0.0700  0.0776 -0.3537
 6718SOL    HW121053   0.541   1.503   1.254  2.8456 -1.3865  1.2392
 6718SOL    HW221054   0.592   1.656   1.281  0.0865 -0.1856 -0.0232
 6719SOL     OW21055   1.956   1.059   4.286 -0.0540  0.1119 -0.3626
 6719SOL    HW121056   2.001   1.129   4.231  0.0627 -0.0022 -0.4128
 6719SOL    HW221057   1.997   1.057   4.378 -2.7790  3.0050  1.1218
 6720SOL     OW21058   2.023   2.588   5.173 -0.0942  0.3869 -0.4680
 6720SOL    HW121059   2.028   2.657   5.246 -1.9679  1.4023 -1.2459
 6720SOL    HW221060   2.012   2.498   5.214  1.7928  0.5712  0.5527
 6721SOL     OW21061   4.096   5.435   5.836  0.7154 -0.2476 -1.2070
 6721SOL    HW121062   4.196   5.430   5.843  0.9014  2.6685 -0.4479
 6721SOL    HW221063   4.067   5.530   5.841 -2.2118 -1.0643 -0.5905
 6722SOL     OW21064   6.584   4.804   2.506 -0.4331 -0.2153  0.2452
 6722SOL    HW121065   6.539   4.870   2.446 -1.2255 -1.6448 -0.7796
 6722SOL    HW221066   6.517   4.763   2.568 -0.1198 -0.6951  0.2750
 6723SOL     OW21067   4.775   2.701   1.258 -0.4641 -0.0807  0.1529
 6723SOL    HW121068   4.714   2.664   1.189 -1.2516  1.1571  0.1723
 6723SOL    HW221069   4.812   2.789   1.228  0.3718 -0.2380  0.6654
 6724SOL     OW21070   2.606   3.232   5.363  0.3413  0.1024 -0.1421
 6724SOL    HW121071   2.575   3.154   5.309  0.1348  0.0739  0.0194
 6724SOL    HW221072   2.534   3.262   5.425  1.0340 -0.7212  1.0986
 6725SOL     OW21073   6.536   4.251   6.719 -0.1690  0.2398  0.2144
 6725SOL    HW121074   6.583   4.185   6.778  1.3656  2.8966  2.2238
 6725SOL    HW221075   6.439   4.255   6.744  0.2333  0.4933  1.8875
 6726SOL     OW21076   0.621   5.296   2.158  0.4138  0.1205 -0.2469
 6726SOL    HW121077   0.657   5.283   2.065 -0.2139  2.1337 -0.8214
 6726SOL    HW221078   0.659   5.226   2.218  0.7085 -1.3542 -2.0396
 6727SOL     OW21079   0.766   5.606   4.969 -0.1512  0.5036  0.3238
 6727SOL    HW121080   0.865   5.614   4.956 -0.1711  0.4900  0.1599
 6727SOL    HW221081   0.725   5.566   4.887 -0.7558  3.9558 -1.2656
 6728SOL     OW21082   5.259   0.571   5.032 -0.1341 -0.5095  0.5996
 6728SOL    HW121083   5.315   0.519   4.969 -0.0726 -0.9426  1.0065
 6728SOL    HW221084   5.312   0.591   5.115 -0.5014 -0.7266  0.8923
 6729SOL     OW21085   2.760   6.832   1.531  0.2209  0.4130 -0.6140
 6729SOL    HW121086   2.663   6.817   1.512  0.3739  0.6642 -1.6661
 6729SOL    HW221087   2.770   6.868   1.624 -0.5483 -1.0623  0.0751
 6730SOL     OW21088   1.329   2.918   0.296 -0.6609 -0.4135 -0.2930
 6730SOL    HW121089   1.313   3.012   0.266  1.3492 -0.0204 -0.2564
 6730SOL    HW221090   1.387   2.872   0.230  0.3696 -0.8538  0.8852
 6731SOL     OW21091   6.787   3.820   3.153 -0.3797  0.2589 -0.1379
 6731SOL    HW121092   6.797   3.846   3.249  1.4174  1.3680 -0.5810
 6731SOL    HW221093   6.840   3.738   3.135 -0.5970  0.1365 -0.2338
 6732SOL     OW21094   4.300   1.367   5.277  0.1836 -0.1656  0.0054
 6732SOL    HW121095   4.374   1.350   5.342 -0.5657 -0.1032  0.9071
 6732SOL    HW221096   4.213   1.339   5.318 -0.4473  0.9713 -0.5070
 6733SOL     OW21097   6.420   3.825   6.853  0.6444 -0.4226  0.4424
 6733SOL    HW121098   6.438   3.795   6.946  1.3564  0.9496  0.7755
 6733SOL    HW221099   6.443   3.922   6.844 -0.7073 -0.1838 -0.8064
 6734SOL     OW21100   3.350   2.152   5.192 -0.3814 -0.4967 -0.3668
 6734SOL    HW121101   3.270   2.186   5.142 -0.1410  0.0307 -0.3933
 6734SOL    HW221102   3.357   2.198   5.280  0.6465  0.4338 -0.9149
 6735SOL     OW21103   5.867   1.155   0.434  0.0499  0.2185  0.3021
 6735SOL    HW121104   5.785   1.105   0.462 -0.3476  0.3196 -0.6451
 6735SOL    HW221105   5.944   1.091   0.430 -0.7459 -0.7221 -2.2967
 6736SOL     OW21106   6.263   2.798   4.987 -0.5159 -0.0203  0.9962
 6736SOL    HW121107   6.184   2.841   4.944 -0.1192 -0.1915  0.0651
 6736SOL    HW221108   6.279   2.708   4.944  1.8523  1.1709 -0.8671
 6737SOL     OW21109   2.528   6.167   4.698  0.0131 -0.7945  0.1219
 6737SOL    HW121110   2.436   6.128   4.708  0.6455 -2.2860  0.3744
 6737SOL    HW221111   2.545   6.231   4.773 -0.9232 -0.2620 -0.0997
 6738SOL     OW21112   4.329   6.168   6.157  0.4177 -0.1608 -0.1434
 6738SOL    HW121113   4.274   6.247   6.184 -0.6009 -1.1357  0.6950
 6738SOL    HW221114   4.318   6.153   6.058  0.6036  0.7152 -0.3085
 6739SOL     OW21115   2.479   2.478   4.248 -0.3715 -0.3407  0.0591
 6739SOL    HW121116   2.401   2.443   4.300 -0.2854 -0.9594 -0.2197
 6739SOL    HW221117   2.513   2.561   4.291 -0.6849 -0.5062  0.6385
 6740SOL     OW21118   3.564   5.276   2.091  0.4470  0.2338 -0.2113
 6740SOL    HW121119   3.596   5.231   2.174 -1.2132  1.4887  1.1831
 6740SOL    HW221120   3.600   5.228   2.011  1.0099 -1.8349  1.1959
 6741SOL     OW21121   2.986   5.158   5.148  0.2090 -0.0801 -1.1809
 6741SOL    HW121122   3.037   5.173   5.064 -0.1637  0.4690 -1.3158
 6741SOL    HW221123   2.910   5.224   5.153 -0.4149 -0.8085 -0.9306
 6742SOL     OW21124   5.661   0.624   6.350  0.2141 -0.3970  0.8216
 6742SOL    HW121125   5.618   0.547   6.304  2.0136 -0.2268 -1.2915
 6742SOL    HW221126   5.727   0.591   6.417  1.1670 -0.7442 -0.2594
 6743SOL     OW21127   6.192   1.716   5.991 -0.0958  0.3764 -0.2211
 6743SOL    HW121128   6.117   1.708   5.926  0.5895  0.5347 -1.0523
 6743SOL    HW221129   6.218   1.626   6.025 -0.1121  0.2436 -0.5665
 6744SOL     OW21130   2.709   6.300   5.298 -0.1696 -0.2689  0.3208
 6744SOL    HW121131   2.729   6.386   5.252  0.3684 -1.0603 -1.0007
 6744SOL    HW221132   2.775   6.230   5.267 -0.9514 -1.2951  0.9064
 6745SOL     OW21133   4.272   1.746   1.512 -0.1036  0.4625 -0.4856
 6745SOL    HW121134   4.260   1.747   1.611  1.2928  0.2245 -0.2989
 6745SOL    HW221135   4.191   1.787   1.469 -0.7834  0.4578  0.7280
 6746SOL     OW21136   1.028   0.565   6.814 -0.0193 -0.0967 -0.1100
 6746SOL    HW121137   0.990   0.647   6.858  0.2046  0.7437 -1.4134
 6746SOL    HW221138   1.127   0.565   6.823 -0.0226 -0.2464 -0.0775
 6747SOL     OW21139   4.315   3.063   5.787 -0.1561 -0.1512 -0.3388
 6747SOL    HW121140   4.325   3.075   5.688 -3.3746 -0.2884 -0.7683
 6747SOL    HW221141   4.313   3.153   5.831  0.3815 -0.0645 -0.4725
 6748SOL     OW21142   1.354   2.996   0.909 -0.2103 -0.2415 -0.4213
 6748SOL    HW121143   1.358   2.945   0.995 -0.9468  0.6502  0.1598
 6748SOL    HW221144   1.260   3.029   0.894  0.6201  2.7561  0.3157
 6749SOL     OW21145   6.053   5.250   2.517  0.8324 -0.1354  0.4497
 6749SOL    HW121146   6.035   5.245   2.615  1.2428  1.0090  0.6013
 6749SOL    HW221147   6.074   5.344   2.491 -0.2821 -0.2141 -0.9299
 6750SOL     OW21148   5.929   0.561   6.483  0.3768  0.1394  0.1329
 6750SOL    HW121149   5.917   0.647   6.531  0.3945 -0.4842  1.3059
 6750SOL    HW221150   5.869   0.491   6.524  2.7966 -1.2718  1.5576
 6751SOL     OW21151   2.035   6.247   0.058  0.0293 -0.0311  0.6274
 6751SOL    HW121152   2.122   6.282   0.095  0.5764  1.0315 -1.4957
 6751SOL    HW221153   2.049   6.217  -0.037 -1.4721 -1.9046  0.9434
 6752SOL     OW21154   4.927   4.701   5.271  0.0275  0.3899 -0.2762
 6752SOL    HW121155   5.005   4.640   5.255  0.3311  0.6492  0.2259
 6752SOL    HW221156   4.919   4.765   5.194 -1.2081 -1.2374 -1.5856
 6753SOL     OW21157   0.827   6.914   4.500  0.3282  0.1518  0.6626
 6753SOL    HW121158   0.894   6.925   4.426 -0.2569  1.1948  0.2617
 6753SOL    HW221159   0.762   6.990   4.498 -1.4063 -1.2554  0.4875
 6754SOL     OW21160   1.986   5.187   1.498 -0.3093  0.3175 -0.3693
 6754SOL    HW121161   1.997   5.089   1.484  0.3238  0.1324  1.2593
 6754SOL    HW221162   2.005   5.210   1.593  0.3126  2.1332 -0.8909
 6755SOL     OW21163   0.892   0.171   6.568  0.2739  0.1860  0.3127
 6755SOL    HW121164   0.928   0.190   6.477  0.4413  0.2643  0.3939
 6755SOL    HW221165   0.862   0.257   6.610  0.7955  0.2458  0.5800
 6756SOL     OW21166   5.759   2.584   5.914  0.1934  0.4750  0.3546
 6756SOL    HW121167   5.855   2.607   5.930  0.1202  0.3037  1.1142
 6756SOL    HW221168   5.703   2.666   5.924  0.4992  1.1477 -2.7122
 6757SOL     OW21169   4.224   5.973   4.326 -0.7210  0.1757 -0.0994
 6757SOL    HW121170   4.303   5.920   4.356 -1.4724 -0.8826  0.0802
 6757SOL    HW221171   4.254   6.055   4.278  0.5029 -1.7184 -2.7769
 6758SOL     OW21172   4.494   4.262   5.253 -0.2630  0.3304  0.1731
 6758SOL    HW121173   4.497   4.329   5.328 -1.4691  0.4083  0.1818
 6758SOL    HW221174   4.442   4.301   5.177  2.2526  0.8668 -1.3731
 6759SOL     OW21175   6.214   4.322   3.263  0.5959 -0.0552 -0.1993
 6759SOL    HW121176   6.234   4.259   3.338  1.5259  0.6248  0.1512
 6759SOL    HW221177   6.287   4.315   3.194  1.6456  1.8009  0.6441
 6760SOL     OW21178   6.679   6.046   5.672  0.1663 -0.2191 -0.4759
 6760SOL    HW121179   6.754   5.981   5.663  1.5278  1.1799  0.2316
 6760SOL    HW221180   6.711   6.137   5.645 -1.3331  0.3854 -0.3052
 6761SOL     OW21181   5.030   5.757   1.239 -0.3962  0.5869 -0.3700
 6761SOL    HW121182   5.088   5.690   1.286 -2.1011 -0.3867  0.4496
 6761SOL    HW221183   5.036   5.845   1.287 -0.4642  0.1914  0.3815
 6762SOL     OW21184   5.987   3.659   1.407  0.6288  0.2060 -0.2036
 6762SOL    HW121185   6.026   3.690   1.321 -1.8135 -1.1061 -1.9207
 6762SOL    HW221186   6.028   3.572   1.434  1.0312  0.3603 -0.3233
 6763SOL     OW21187   3.235   0.141   1.051 -0.5208 -0.4603  0.4878
 6763SOL    HW121188   3.201   0.235   1.053  0.8881  0.0502  1.2352
 6763SOL    HW221189   3.305   0.131   0.980  0.3766 -0.5545  1.3624
 6764SOL     OW21190   5.437   3.296   5.838 -0.2254 -0.6492 -0.2012
 6764SOL    HW121191   5.416   3.255   5.926  1.1301 -0.0324  0.4482
 6764SOL    HW221192   5.530   3.269   5.810 -0.5168 -0.5810 -1.2908
 6765SOL     OW21193   3.561   6.971   0.602 -0.4205  0.3250  0.3133
 6765SOL    HW121194   3.625   7.028   0.653  1.7334 -1.3225 -0.3795
 6765SOL    HW221195   3.606   6.936   0.519 -1.2462 -3.0323  1.1324
 6766SOL     OW21196   1.473   3.682   3.239 -0.1701  0.2466 -0.1298
 6766SOL    HW121197   1.377   3.705   3.256 -0.1386  0.9443 -0.8323
 6766SOL    HW221198   1.526   3.766   3.234  0.4761 -0.1371  0.1997
 6767SOL     OW21199   4.019   4.212   0.612  0.3709  0.2086  0.1561
 6767SOL    HW121200   4.109   4.231   0.572  0.4355 -2.3402 -1.0698
 6767SOL    HW221201   3.971   4.145   0.556 -0.5874 -1.6274  2.9691
 6768SOL     OW21202   0.666   3.466   0.433 -0.2654  0.7540  0.3555
 6768SOL    HW121203   0.678   3.538   0.365  0.6480 -0.1842 -0.5124
 6768SOL    HW221204   0.755   3.424   0.453 -0.8562 -0.4861  0.4461
 6769SOL     OW21205   0.074   3.946   5.182  0.2012  0.6842  0.2053
 6769SOL    HW121206   0.132   3.985   5.253 -0.6933  0.5837  1.0050
 6769SOL    HW221207   0.104   3.852   5.163 -1.1514 -0.2607  2.3676
 6770SOL     OW21208   6.888   2.187   1.531 -0.0954  0.3754 -0.0614
 6770SOL    HW121209   6.985   2.179   1.506  0.2181  0.7842  0.9608
 6770SOL    HW221210   6.862   2.284   1.530 -0.6579  0.2193 -0.9005
 6771SOL     OW21211   1.168   1.566   6.152  0.1608  0.1489 -0.0189
 6771SOL    HW121212   1.258   1.557   6.110  0.7158 -1.6001  1.3853
 6771SOL    HW221213   1.165   1.511   6.235 -2.1434  0.3567  0.1009
 6772SOL     OW21214   5.752   1.560   3.296 -0.5028 -0.1065 -0.5042
 6772SOL    HW121215   5.712   1.507   3.371 -0.6753 -0.0083 -0.5261
 6772SOL    HW221216   5.721   1.522   3.208  0.3130 -0.7005 -0.5403
 6773SOL     OW21217   2.038   2.601   2.097  0.6831 -0.0132 -0.0596
 6773SOL    HW121218   2.020   2.505   2.079 -1.6254  0.5615 -1.1260
 6773SOL    HW221219   1.957   2.655   2.076  0.6863  1.8169  3.8472
 6774SOL     OW21220   4.585   4.335   2.316 -0.0484  0.2987 -0.4153
 6774SOL    HW121221   4.525   4.305   2.242 -0.7210  0.3578  0.0966
 6774SOL    HW221222   4.653   4.398   2.280  0.6999 -0.9732 -1.2962
 6775SOL     OW21223   1.603   6.703   1.037 -0.3926  0.1281 -0.4216
 6775SOL    HW121224   1.610   6.715   1.136 -0.8194 -1.3292 -0.1968
 6775SOL    HW221225   1.534   6.767   1.001 -1.8806 -0.8596  0.5606
 6776SOL     OW21226   4.539   6.929   3.151  0.0849 -0.2276 -0.4053
 6776SOL    HW121227   4.449   6.897   3.120 -0.0521  0.7585 -1.0468
 6776SOL    HW221228   4.610   6.877   3.103 -0.1330 -0.8664 -0.0502
 6777SOL     OW21229   6.026   4.997   3.216  0.3585  0.0631  0.2835
 6777SOL    HW121230   6.122   5.007   3.193  0.8498 -0.7647  1.7810
 6777SOL    HW221231   5.970   5.052   3.155  1.7703  0.4360 -0.7046
 6778SOL     OW21232   5.828   0.173   5.887 -0.1323  0.4697 -0.8002
 6778SOL    HW121233   5.831   0.135   5.980 -3.0026 -1.8578 -1.5106
 6778SOL    HW221234   5.814   0.100   5.821 -0.7026  2.2963 -2.8283
 6779SOL     OW21235   6.980   0.433   6.263 -0.1597  0.3603 -0.2218
 6779SOL    HW121236   6.920   0.468   6.335 -1.3161 -0.1436 -0.9069
 6779SOL    HW221237   6.929   0.369   6.205  1.6221 -1.9056  0.5147
 6780SOL     OW21238   2.889   6.134   5.124  0.7736 -0.2862  0.1519
 6780SOL    HW121239   2.925   6.219   5.085 -1.2614  0.7014  0.3058
 6780SOL    HW221240   2.963   6.083   5.168  2.2376  0.8516 -0.9227
 6781SOL     OW21241   3.469   0.683   5.395  0.4600  0.2536  0.5348
 6781SOL    HW121242   3.464   0.622   5.317 -0.7999  1.4008 -0.3250
 6781SOL    HW221243   3.421   0.643   5.473  0.4120 -0.2304  0.2566
 6782SOL     OW21244   0.701   6.825   2.699  0.4050 -0.1811  0.0824
 6782SOL    HW121245   0.747   6.736   2.702  1.8895  0.5303 -0.3895
 6782SOL    HW221246   0.703   6.861   2.606  1.6106  1.2053  0.6078
 6783SOL     OW21247   3.565   4.401   0.576  0.3900  0.3501  1.1870
 6783SOL    HW121248   3.487   4.397   0.638  0.4412 -0.6070  1.2119
 6783SOL    HW221249   3.590   4.308   0.549 -0.3463  0.7641 -1.1623
 6784SOL     OW21250   1.481   3.182   0.242 -0.2131 -0.8207  0.4186
 6784SOL    HW121251   1.397   3.219   0.283 -2.3349 -1.9489 -2.5202
 6784SOL    HW221252   1.553   3.251   0.246 -1.8035  0.8958  1.4949
 6785SOL     OW21253   5.721   3.717   1.421 -0.2217 -0.2938 -0.0159
 6785SOL    HW121254   5.813   3.687   1.394 -0.3146 -0.0426 -0.6140
 6785SOL    HW221255   5.718   3.725   1.521  0.3820 -0.3930  0.0187
 6786SOL     OW21256   1.538   5.124   3.038  0.2984  0.1289 -0.0853
 6786SOL    HW121257   1.621   5.073   3.014 -0.6201 -1.1189 -0.7351
 6786SOL    HW221258   1.514   5.107   3.133  0.9739  0.8098  0.2262
 6787SOL     OW21259   3.962   4.938   2.356  0.0658 -0.4834  0.1594
 6787SOL    HW121260   3.914   4.898   2.434  0.6836 -0.1272  0.7410
 6787SOL    HW221261   3.938   4.889   2.273  1.8130 -3.0072  0.9992
 6788SOL     OW21262   4.912   3.871   4.868 -0.5238  0.1765  0.5549
 6788SOL    HW121263   4.920   3.940   4.796  0.8647  0.3069  0.8084
 6788SOL    HW221264   4.918   3.915   4.957  0.0189 -0.2139  0.7200
 6789SOL     OW21265   1.709   3.612   0.983 -0.6263 -0.5762 -0.1943
 6789SOL    HW121266   1.721   3.525   0.936  2.4843  0.5336 -1.7949
 6789SOL    HW221267   1.638   3.665   0.938 -1.3453 -1.5973 -0.2863
 6790SOL     OW21268   3.130   1.681   5.570  0.1101  0.0844 -0.5939
 6790SOL    HW121269   3.057   1.696   5.637 -0.1824  1.9999 -1.2957
 6790SOL    HW221270   3.218   1.702   5.612  0.4664 -2.9493  0.4975
 6791SOL     OW21271   3.298   5.369   5.172  0.3844 -0.1862  0.1730
 6791SOL    HW121272   3.276   5.319   5.255  0.0277  2.0475  1.5268
 6791SOL    HW221273   3.396   5.365   5.155  0.3777 -1.1609  0.3393
 6792SOL     OW21274   0.537   2.570   2.784  0.1116 -0.2853  0.3118
 6792SOL    HW121275   0.470   2.535   2.719  0.2832  0.3217 -0.2108
 6792SOL    HW221276   0.511   2.663   2.811  2.3165  1.2466 -2.3269
 6793SOL     OW21277   1.442   7.007   2.433 -0.0030  0.3062  0.3552
 6793SOL    HW121278   1.477   7.056   2.513 -0.1753 -1.0999  1.3177
 6793SOL    HW221279   1.365   7.058   2.394  0.4444  1.2927  0.7358
 6794SOL     OW21280   2.522   1.289   1.051  0.2817  0.6290 -0.3640
 6794SOL    HW121281   2.460   1.289   0.972 -0.2644 -1.9956 -0.0344
 6794SOL    HW221282   2.615   1.272   1.020 -0.1567 -2.0867 -0.4142
 6795SOL     OW21283   4.287   1.592   4.566 -0.4335  0.1697  0.0610
 6795SOL    HW121284   4.315   1.633   4.653 -1.2061 -0.6637  0.7184
 6795SOL    HW221285   4.331   1.640   4.491 -0.1894  1.2594  0.8848
 6796SOL     OW21286   6.218   0.037   5.287 -0.5106  0.1048  0.2042
 6796SOL    HW121287   6.264   0.074   5.367 -0.6421  1.9662 -0.5476
 6796SOL    HW221288   6.274  -0.036   5.247  2.1465  2.6048 -0.9727
 6797SOL     OW21289   4.943   1.143   4.972  0.5500  0.2638  0.2005
 6797SOL    HW121290   5.039   1.118   4.956  0.3652 -0.2704 -0.0897
 6797SOL    HW221291   4.894   1.142   4.885  0.2423  0.3956  0.3719
 6798SOL     OW21292   1.813   2.866   0.811  0.1589 -0.1069  0.2497
 6798SOL    HW121293   1.905   2.872   0.773 -0.8603 -0.6465 -2.5959
 6798SOL    HW221294   1.814   2.812   0.894  2.5405  0.8376  0.9155
 6799SOL     OW21295   6.219   4.655   2.260  0.2010  1.0568 -0.3375
 6799SOL    HW121296   6.265   4.667   2.348  0.5305  2.4675 -0.6717
 6799SOL    HW221297   6.285   4.626   2.192 -0.2265 -0.9207  0.0488
 6800SOL     OW21298   0.128   2.104   0.592 -0.2431 -0.5086 -0.0856
 6800SOL    HW121299   0.104   2.025   0.535 -2.3931 -1.1385  1.5712
 6800SOL    HW221300   0.183   2.073   0.670  0.6470 -0.0169 -0.5007
 6801SOL     OW21301   5.687   0.475   2.534 -0.1521 -0.8398 -0.1566
 6801SOL    HW121302   5.709   0.383   2.502 -2.1475 -1.5496  0.3301
 6801SOL    HW221303   5.593   0.498   2.507  0.6014  1.4436 -1.0562
 6802SOL     OW21304   4.453   4.321   6.245 -0.5295  0.0454 -0.1459
 6802SOL    HW121305   4.415   4.266   6.320  0.0636 -4.0660 -2.5636
 6802SOL    HW221306   4.385   4.329   6.172 -0.0282  1.2752 -0.5027
 6803SOL     OW21307   0.571   3.240   3.777 -0.6833  0.4657  0.3657
 6803SOL    HW121308   0.582   3.152   3.731 -1.3803 -0.6591  2.2414
 6803SOL    HW221309   0.569   3.226   3.876 -2.8468  2.3372  0.6713
 6804SOL     OW21310   2.793   5.691   6.644  0.1810  0.3553 -0.1347
 6804SOL    HW121311   2.728   5.762   6.616  0.8047  0.8093 -0.4610
 6804SOL    HW221312   2.788   5.614   6.581  1.9368  1.5819 -1.8861
 6805SOL     OW21313   6.481   4.406   5.095 -0.5120  0.2222 -0.8896
 6805SOL    HW121314   6.495   4.370   5.187 -0.0821  0.7109 -0.7608
 6805SOL    HW221315   6.550   4.475   5.075 -0.2974 -0.2228 -1.7591
 6806SOL     OW21316   0.973   5.107   4.334  0.1476 -0.2090  0.5534
 6806SOL    HW121317   0.978   5.099   4.234 -1.1646 -0.9792  0.5281
 6806SOL    HW221318   0.933   5.195   4.358  0.3206 -0.0874  0.4076
 6807SOL     OW21319   3.032   5.146   1.972  0.2960 -0.2967  0.2059
 6807SOL    HW121320   3.131   5.153   1.987  0.3278  0.4500 -0.3224
 6807SOL    HW221321   3.015   5.112   1.880  0.0552  0.4752 -0.0390
 6808SOL     OW21322   4.664   6.744   1.875 -0.2999 -0.3530 -1.0334
 6808SOL    HW121323   4.575   6.718   1.912 -1.0849  2.3655 -0.7788
 6808SOL    HW221324   4.671   6.714   1.780 -1.4548 -0.6692 -1.0321
 6809SOL     OW21325   2.610   5.002   2.611 -0.3259 -0.2980 -0.2181
 6809SOL    HW121326   2.649   5.073   2.553 -0.8822 -0.9881 -1.4856
 6809SOL    HW221327   2.590   4.921   2.555 -0.3128 -1.2194  1.0617
 6810SOL     OW21328   0.979   2.527   6.072  0.8732 -0.5596 -0.2513
 6810SOL    HW121329   1.028   2.447   6.106  0.3671  0.0958  2.2893
 6810SOL    HW221330   1.020   2.610   6.109  0.0145  0.2160 -0.9706
 6811SOL     OW21331   4.706   0.504   2.271 -0.4670  0.2681  0.1123
 6811SOL    HW121332   4.627   0.566   2.271 -0.7116  0.0023 -1.1010
 6811SOL    HW221333   4.711   0.458   2.182  0.4959 -0.4486  0.5211
 6812SOL     OW21334   6.857   6.781   2.557 -0.7605  0.5277  0.1317
 6812SOL    HW121335   6.893   6.872   2.539  1.3910 -0.1378  0.7802
 6812SOL    HW221336   6.772   6.788   2.609  0.3183  2.1638  1.7956
 6813SOL     OW21337   0.456   3.396   6.291 -0.7244 -0.5844 -0.3788
 6813SOL    HW121338   0.440   3.365   6.384 -0.8949 -0.1819 -0.2716
 6813SOL    HW221339   0.488   3.491   6.292 -4.2001  0.7605 -0.8373
 6814SOL     OW21340   2.538   1.790   5.772 -0.1679 -0.5598 -0.6192
 6814SOL    HW121341   2.553   1.821   5.678 -2.3630 -0.7123 -1.0633
 6814SOL    HW221342   2.515   1.693   5.772 -0.5090 -0.4830  0.0516
 6815SOL     OW21343   0.077   0.816   0.152 -0.2641  0.1943 -0.2893
 6815SOL    HW121344  -0.020   0.799   0.173 -0.3372  1.0684  0.1098
 6815SOL    HW221345   0.126   0.729   0.150 -1.2772 -0.3744 -1.6638
 6816SOL     OW21346   4.631   6.451   1.099 -0.1028  0.0399 -0.1801
 6816SOL    HW121347   4.720   6.458   1.054  0.5859 -1.1420  0.9160
 6816SOL    HW221348   4.574   6.385   1.050 -0.3877  0.7943 -0.8817
 6817SOL     OW21349   0.923   4.171   6.497  0.1072  0.0732 -0.4616
 6817SOL    HW121350   0.944   4.227   6.578 -2.0745  0.8489 -0.3698
 6817SOL    HW221351   0.923   4.228   6.416 -0.0560 -0.2380 -0.6823
 6818SOL     OW21352   2.829   0.051   5.794 -0.3346  0.1067 -0.5242
 6818SOL    HW121353   2.828   0.005   5.705  0.9685 -2.1515  0.5086
 6818SOL    HW221354   2.924   0.071   5.819 -0.7545  1.5101 -0.0112
 6819SOL     OW21355   0.339   5.753   1.871 -0.1981 -0.0275 -0.6000
 6819SOL    HW121356   0.386   5.697   1.802  1.7690 -0.6515  1.1534
 6819SOL    HW221357   0.364   5.849   1.858  0.5613 -0.2009 -0.4674
 6820SOL     OW21358   0.442   2.017   2.561 -0.4853  0.2023 -0.3517
 6820SOL    HW121359   0.394   2.105   2.556 -0.2107  0.5470  1.9306
 6820SOL    HW221360   0.454   1.991   2.657 -0.2926 -2.2091 -0.9607
 6821SOL     OW21361   3.991   5.612   1.371 -0.2567  0.1462  0.1486
 6821SOL    HW121362   4.066   5.667   1.333 -0.6254  0.6448  0.1357
 6821SOL    HW221363   3.916   5.607   1.305 -0.4966  0.1841  0.4166
 6822SOL     OW21364   1.367   3.868   4.696 -0.0523 -0.3931 -0.1496
 6822SOL    HW121365   1.455   3.915   4.702  0.3808 -1.3612  1.6434
 6822SOL    HW221366   1.361   3.819   4.609  1.2846 -0.5201 -0.1950
 6823SOL     OW21367   5.231   4.812   2.903  0.2009 -0.2942 -0.0843
 6823SOL    HW121368   5.307   4.750   2.923  0.8449  0.6491  0.4669
 6823SOL    HW221369   5.153   4.789   2.961  0.9613  0.3785  1.2349
 6824SOL     OW21370   5.170   2.965   3.406 -0.1223  0.3611  0.0325
 6824SOL    HW121371   5.090   2.935   3.354  0.2691  0.1719 -0.4830
 6824SOL    HW221372   5.158   2.944   3.503  0.1659 -1.5962 -0.3161
 6825SOL     OW21373   3.501   6.087   4.071 -0.0416  0.0888 -0.2997
 6825SOL    HW121374   3.436   6.148   4.026 -0.3195  0.2432  0.3076
 6825SOL    HW221375   3.590   6.093   4.026  0.5595  2.5713  1.0628
 6826SOL     OW21376   0.786   1.082   0.714 -0.0995 -0.1523 -0.2529
 6826SOL    HW121377   0.703   1.133   0.693  0.0440 -0.6455 -2.1968
 6826SOL    HW221378   0.864   1.146   0.720 -0.5318  0.2832  1.3798
 6827SOL     OW21379   1.608   5.166   0.096  0.3903  0.3448 -0.0988
 6827SOL    HW121380   1.559   5.087   0.134  2.0682 -0.0813  1.2951
 6827SOL    HW221381   1.578   5.249   0.143  0.8146  0.1160  0.5893
 6828SOL     OW21382   3.632   1.651   0.138  0.3606  0.3565  0.1396
 6828SOL    HW121383   3.667   1.674   0.229 -1.4171 -0.9492  1.2155
 6828SOL    HW221384   3.620   1.735   0.086 -0.0166  1.3038  1.6695
 6829SOL     OW21385   5.410   5.992   6.919  0.7978 -0.1626  0.5392
 6829SOL    HW121386   5.449   6.077   6.956 -0.2416  0.8286 -0.5468
 6829SOL    HW221387   5.461   5.965   6.837  0.2731  0.1899  0.0933
 6830SOL     OW21388   5.118   5.930   2.068  0.4919 -0.0969 -0.3792
 6830SOL    HW121389   5.023   5.909   2.092  0.2967  1.0868 -0.0576
 6830SOL    HW221390   5.179   5.866   2.116  0.0196  1.1317  2.0119
 6831SOL     OW21391   3.139   2.844   1.201 -0.1681 -0.2452  0.1761
 6831SOL    HW121392   3.207   2.917   1.209  2.1001 -2.1219 -0.8232
 6831SOL    HW221393   3.119   2.827   1.105 -0.7703 -0.8551  0.4050
 6832SOL     OW21394   5.440   4.320   6.095  0.0488  0.3161 -0.6671
 6832SOL    HW121395   5.465   4.256   6.167  1.8907 -0.2073 -1.7116
 6832SOL    HW221396   5.346   4.302   6.066  0.3896 -1.6825 -0.6635
 6833SOL     OW21397   4.315   2.881   1.558  0.0472 -0.3935 -0.1682
 6833SOL    HW121398   4.357   2.828   1.631 -0.2814 -2.1775 -1.2234
 6833SOL    HW221399   4.325   2.832   1.471 -1.4089  0.6722 -0.9776
 6834SOL     OW21400   0.269   0.702   1.657  0.0077  0.5043 -0.4798
 6834SOL    HW121401   0.196   0.724   1.592 -0.4831  1.2681  0.3094
 6834SOL    HW221402   0.357   0.726   1.616 -0.0661 -1.1666 -1.7581
 6835SOL     OW21403   6.520   2.935   6.410  0.7663 -0.2972  0.0054
 6835SOL    HW121404   6.499   2.879   6.490 -1.2356  0.1279 -0.1681
 6835SOL    HW221405   6.476   3.024   6.419  0.9631 -0.0424 -1.3191
 6836SOL     OW21406   6.066   3.896   7.011  0.6650  0.4702  0.0889
 6836SOL    HW121407   6.062   3.829   7.085 -0.2317  0.0285 -0.3429
 6836SOL    HW221408   6.039   3.986   7.047  0.9995  0.4190  0.4738
 6837SOL     OW21409   4.357   1.157   5.094 -0.3753  0.7551 -0.0600
 6837SOL    HW121410   4.449   1.119   5.109 -0.8620 -0.3105  0.2701
 6837SOL    HW221411   4.333   1.217   5.171 -0.1858  0.5958  0.1227
 6838SOL     OW21412   1.009   5.420   4.243  0.1543 -0.4457  0.3459
 6838SOL    HW121413   0.987   5.406   4.146  0.2298  0.1929  0.2332
 6838SOL    HW221414   1.069   5.499   4.253 -0.8230  0.2262  1.0280
 6839SOL     OW21415   2.594   4.623   2.903 -0.4947 -0.4612 -0.7632
 6839SOL    HW121416   2.629   4.605   2.811  0.3364  1.1559 -0.7945
 6839SOL    HW221417   2.530   4.700   2.900  0.8924  0.7773  0.2382
 6840SOL     OW21418   0.794   5.135   1.515 -0.3540  0.5874 -0.0419
 6840SOL    HW121419   0.801   5.036   1.501  1.7578  0.9570 -2.3307
 6840SOL    HW221420   0.702   5.165   1.491 -1.0785 -0.8149  0.8438
 6841SOL     OW21421   6.380   2.737   6.586  0.1516  0.0546 -0.4914
 6841SOL    HW121422   6.387   2.644   6.622 -0.6683 -0.8850 -2.5901
 6841SOL    HW221423   6.284   2.761   6.575  0.3708  0.5944 -1.2887
 6842SOL     OW21424   5.123   2.780   4.879 -0.4875  0.2087 -0.0887
 6842SOL    HW121425   5.215   2.792   4.840 -1.0745  1.0697 -1.2553
 6842SOL    HW221426   5.058   2.762   4.805 -1.5912  1.5949  0.5137
 6843SOL     OW21427   5.920   2.854   2.557 -0.2310 -0.1136 -0.1866
 6843SOL    HW121428   5.881   2.763   2.545 -0.0231 -0.1339 -0.7193
 6843SOL    HW221429   5.933   2.897   2.468  2.4814 -0.7485 -0.1646
 6844SOL     OW21430   5.129   4.618   1.910  0.0640 -0.2982 -0.0865
 6844SOL    HW121431   5.223   4.588   1.928  0.7143  0.5211 -1.8418
 6844SOL    HW221432   5.073   4.538   1.886  0.2472 -0.8144  1.1244
 6845SOL     OW21433   6.389   3.101   5.411 -0.4266 -0.7571 -0.9255
 6845SOL    HW121434   6.342   3.170   5.466 -0.1107 -0.6610 -0.7736
 6845SOL    HW221435   6.331   3.074   5.335 -0.8643 -0.8816 -0.5540
 6846SOL     OW21436   4.888   2.337   3.185  0.5273 -0.0622 -0.2799
 6846SOL    HW121437   4.794   2.367   3.173  0.7158  0.7385  0.1733
 6846SOL    HW221438   4.899   2.245   3.147 -0.4230 -0.1509 -0.3593
 6847SOL     OW21439   1.770   4.930   2.979 -0.3146 -0.5617  0.2606
 6847SOL    HW121440   1.796   4.879   3.060 -0.7714 -1.6309 -0.2471
 6847SOL    HW221441   1.841   4.921   2.909 -0.5290 -0.7601  0.0642
 6848SOL     OW21442   5.195   5.202   0.684 -0.4525  0.0595  0.2909
 6848SOL    HW121443   5.248   5.221   0.767  0.7910  0.3276 -0.5238
 6848SOL    HW221444   5.248   5.141   0.625 -2.5803 -2.6108  0.9754
 6849SOL     OW21445   4.375   1.775   6.545  0.0378  0.0000 -0.4300
 6849SOL    HW121446   4.361   1.797   6.641 -0.5103 -1.8768 -0.0398
 6849SOL    HW221447   4.354   1.679   6.529 -1.8571  0.7244 -2.8544
 6850SOL     OW21448   6.063   1.424   0.030 -0.5691 -0.0760  0.7913
 6850SOL    HW121449   6.093   1.329   0.039 -1.4607 -0.3753  0.7180
 6850SOL    HW221450   6.053   1.465   0.121  1.9747  0.6854  0.8197
 6851SOL     OW21451   3.096   3.654   6.097 -0.6263  0.1228  0.1986
 6851SOL    HW121452   3.164   3.719   6.063 -0.0808 -0.1874  0.6758
 6851SOL    HW221453   3.137   3.598   6.169 -0.8737 -1.1766 -0.6376
 6852SOL     OW21454   4.359   0.271   0.293 -0.5586 -0.2396 -0.1734
 6852SOL    HW121455   4.350   0.256   0.391 -1.2730 -0.4514 -0.2712
 6852SOL    HW221456   4.272   0.252   0.248 -0.2863  0.0413 -0.8254
 6853SOL     OW21457   2.041   1.447   0.096 -0.0696 -0.0183 -0.6832
 6853SOL    HW121458   2.113   1.433   0.028  0.3897 -0.1948 -0.1626
 6853SOL    HW221459   2.066   1.522   0.157 -0.1876 -0.2827 -0.3085
 6854SOL     OW21460   0.117   1.840   4.504  0.1346 -0.7216 -0.2131
 6854SOL    HW121461   0.025   1.872   4.481  0.8519  1.5074 -0.2022
 6854SOL    HW221462   0.131   1.749   4.466 -1.5952 -0.5497 -1.3776
 6855SOL     OW21463   1.663   4.080   6.400  0.3631  0.5441 -0.3032
 6855SOL    HW121464   1.708   4.145   6.339  0.9792  2.2101  1.8126
 6855SOL    HW221465   1.708   4.080   6.489 -1.5198 -0.5380  0.7222
 6856SOL     OW21466   4.377   2.373   2.957 -0.5292  0.2371  0.0575
 6856SOL    HW121467   4.304   2.369   2.888 -0.7381 -2.2257  0.3115
 6856SOL    HW221468   4.347   2.323   3.038  1.8652 -2.0475 -0.3219
 6857SOL     OW21469   3.868   6.631   0.117 -0.0810 -0.4419  0.2262
 6857SOL    HW121470   3.888   6.554   0.178 -2.3649 -2.1442 -1.0255
 6857SOL    HW221471   3.773   6.658   0.127 -0.0534  0.3839 -1.3767
 6858SOL     OW21472   0.832   6.708   6.635  0.1217 -0.3954  0.2265
 6858SOL    HW121473   0.805   6.777   6.567 -0.7301  0.2084  1.1455
 6858SOL    HW221474   0.884   6.635   6.590 -1.5035 -0.6789 -1.3184
 6859SOL     OW21475   1.964   0.484   3.867 -0.3283 -0.1552 -0.2594
 6859SOL    HW121476   1.975   0.483   3.768 -2.1295 -2.2583 -0.5093
 6859SOL    HW221477   1.981   0.393   3.904 -3.9630 -0.5924  0.7317
 6860SOL     OW21478   0.603   3.957   0.072 -0.3888  0.1134  0.2000
 6860SOL    HW121479   0.505   3.974   0.057 -0.1462  0.1761 -1.4781
 6860SOL    HW221480   0.614   3.883   0.139 -1.6105 -0.8146 -0.5730
 6861SOL     OW21481   5.298   5.629   2.448  0.7814 -0.3451  0.9622
 6861SOL    HW121482   5.368   5.669   2.507  3.0571 -1.6772 -0.6965
 6861SOL    HW221483   5.336   5.550   2.400 -1.2477  0.0963 -1.5804
 6862SOL     OW21484   1.596   4.415   3.196 -0.4281  1.1081  0.3152
 6862SOL    HW121485   1.571   4.501   3.151 -0.0159 -0.0079 -2.2223
 6862SOL    HW221486   1.611   4.432   3.294 -1.3705  3.6859  0.1013
 6863SOL     OW21487   0.765   3.098   4.419  0.0699 -0.0889  0.2688
 6863SOL    HW121488   0.667   3.104   4.401 -0.2868  1.5050  2.4150
 6863SOL    HW221489   0.810   3.055   4.341 -2.1161  0.5373 -1.4442
 6864SOL     OW21490   0.053   4.563   3.472 -0.2643 -0.6842  0.4331
 6864SOL    HW121491   0.101   4.650   3.483 -1.6343 -0.1590  3.2304
 6864SOL    HW221492  -0.045   4.577   3.484 -0.7812 -2.3345 -1.2475
 6865SOL     OW21493   5.175   6.861   3.756  0.0797  0.1898 -0.2499
 6865SOL    HW121494   5.192   6.809   3.840 -1.3484 -0.8718 -0.5721
 6865SOL    HW221495   5.152   6.797   3.682 -0.4209  1.2115 -0.9994
 6866SOL     OW21496   4.163   3.319   5.452 -0.1831 -0.2582  0.1126
 6866SOL    HW121497   4.120   3.297   5.365 -0.7219  1.2578 -0.0334
 6866SOL    HW221498   4.232   3.250   5.474 -1.9874 -2.2423 -0.1107
 6867SOL     OW21499   0.017   6.328   1.221 -0.2450 -0.0426  0.0697
 6867SOL    HW121500  -0.046   6.404   1.232  1.6208  1.8811 -1.7147
 6867SOL    HW221501   0.100   6.345   1.274  1.0151  0.2035 -1.8976
 6868SOL     OW21502   3.012   5.471   5.550 -0.0740  0.2823 -0.0703
 6868SOL    HW121503   3.087   5.512   5.602 -0.0232 -0.7108  0.6837
 6868SOL    HW221504   3.021   5.371   5.553 -0.3383  0.1931 -1.6135
 6869SOL     OW21505   1.781   4.332   1.895 -0.1699 -0.4351  0.5136
 6869SOL    HW121506   1.861   4.351   1.837  0.5250  0.8773  1.8239
 6869SOL    HW221507   1.717   4.409   1.888 -0.2597 -0.4470  1.1712
 6870SOL     OW21508   5.328   2.245   5.328  0.0341 -0.5888  0.6205
 6870SOL    HW121509   5.243   2.267   5.280  1.9360  0.4557 -2.5746
 6870SOL    HW221510   5.352   2.320   5.389  0.0115  0.4384 -0.5873
 6871SOL     OW21511   5.878   4.952   0.604 -0.1160 -0.0251 -0.1195
 6871SOL    HW121512   5.824   4.873   0.631  1.7525 -0.6437  2.2238
 6871SOL    HW221513   5.953   4.923   0.545 -0.5264  0.3140 -0.8127
 6872SOL     OW21514   0.990   5.082   1.748  0.4486  0.8539  0.0904
 6872SOL    HW121515   0.896   5.094   1.717 -0.3092  0.2459  2.0105
 6872SOL    HW221516   1.013   4.985   1.746  0.5823  0.8675  0.8526
 6873SOL     OW21517   6.968   5.623   4.331  0.4543  0.5198 -1.0847
 6873SOL    HW121518   7.033   5.659   4.263  1.0153  0.8225 -0.3962
 6873SOL    HW221519   7.019   5.584   4.408 -0.1255 -1.3958 -1.6022
 6874SOL     OW21520   5.945   1.583   5.505 -0.0104  0.5367 -0.3570
 6874SOL    HW121521   5.906   1.496   5.475 -0.3418 -0.0221  1.5575
 6874SOL    HW221522   6.036   1.594   5.466  0.4624 -1.1689  0.1823
 6875SOL     OW21523   1.688   1.749   5.087  0.1075 -0.3731 -0.1101
 6875SOL    HW121524   1.703   1.734   4.989 -0.8849 -0.7266 -0.2216
 6875SOL    HW221525   1.593   1.725   5.110  0.5601 -1.1061  1.0938
 6876SOL     OW21526   0.083   6.036   6.185  0.7426  0.0313  0.0114
 6876SOL    HW121527   0.118   6.111   6.243  0.3197  1.1920 -1.1794
 6876SOL    HW221528   0.043   6.075   6.102 -2.3480 -1.2890  0.7534
 6877SOL     OW21529   1.745   1.363   1.524 -0.1294  0.3716  0.7410
 6877SOL    HW121530   1.783   1.317   1.604  0.2023 -1.1078 -0.2242
 6877SOL    HW221531   1.770   1.460   1.526 -0.6894  0.5333  2.7367
 6878SOL     OW21532   5.732   3.592   4.224  0.7328 -0.1587  0.2203
 6878SOL    HW121533   5.688   3.503   4.227  0.5792 -0.1536 -1.1737
 6878SOL    HW221534   5.731   3.633   4.316 -0.7284 -0.8376  0.5395
 6879SOL     OW21535   6.070   6.372   2.151  0.1724  0.5565 -0.0860
 6879SOL    HW121536   6.057   6.391   2.248 -1.3769  3.2974 -0.7353
 6879SOL    HW221537   6.130   6.441   2.111  0.5205 -0.3441 -1.1685
 6880SOL     OW21538   4.552   5.151   4.053  0.0459 -0.5380 -0.0999
 6880SOL    HW121539   4.461   5.171   4.018  0.2672 -1.9090 -1.6030
 6880SOL    HW221540   4.569   5.204   4.136 -1.5077  0.8984 -0.6574
 6881SOL     OW21541   0.101   0.956   1.189 -0.1128  0.6191 -0.0724
 6881SOL    HW121542   0.026   0.986   1.130  0.0052  0.1873 -0.4547
 6881SOL    HW221543   0.184   0.945   1.134  0.6155  2.4341  0.5763
 6882SOL     OW21544   3.625   5.263   6.364 -0.2576  0.2167 -0.1375
 6882SOL    HW121545   3.666   5.287   6.451 -0.8993  0.3368  0.1387
 6882SOL    HW221546   3.693   5.218   6.306  0.1675  0.1282  0.4231
 6883SOL     OW21547   5.932   1.365   4.407  0.2612  0.1884 -0.0967
 6883SOL    HW121548   5.889   1.359   4.497  0.0524  1.8197 -0.0521
 6883SOL    HW221549   6.008   1.301   4.402 -0.6513 -1.0091  0.6878
 6884SOL     OW21550   2.404   5.966   2.883 -0.1117 -0.4627  0.1006
 6884SOL    HW121551   2.355   5.886   2.848  0.7949 -1.2446  0.5714
 6884SOL    HW221552   2.414   5.958   2.983  1.3811 -0.5701 -0.0404
 6885SOL     OW21553   3.247   3.122   5.308  0.1978  0.5473 -0.2629
 6885SOL    HW121554   3.267   3.051   5.240 -2.7080 -0.1178 -0.5428
 6885SOL    HW221555   3.263   3.086   5.400  1.2136  0.4419 -0.4645
 6886SOL     OW21556   1.308   6.918   4.285 -0.0468  0.4233 -0.4286
 6886SOL    HW121557   1.341   6.941   4.193  2.4082  0.7484  0.4583
 6886SOL    HW221558   1.339   6.827   4.310  0.6451  0.9496  0.6634
 6887SOL     OW21559   2.498   1.685   3.725 -0.3664  0.4599 -0.5811
 6887SOL    HW121560   2.515   1.781   3.748  0.2599  0.1651  0.2361
 6887SOL    HW221561   2.405   1.675   3.689 -0.3780  1.3980 -0.8287
 6888SOL     OW21562   1.652   5.407   6.044  0.5381 -0.1132  0.3347
 6888SOL    HW121563   1.585   5.366   6.106  1.0738 -1.3305  0.1361
 6888SOL    HW221564   1.653   5.356   5.958 -0.6208  1.9181 -0.9543
 6889SOL     OW21565   3.472   0.153   1.474  0.0995  0.0169 -0.3103
 6889SOL    HW121566   3.496   0.241   1.513  1.1184 -0.3644 -0.0405
 6889SOL    HW221567   3.374   0.137   1.484  0.3664 -0.2722  2.5426
 6890SOL     OW21568   6.017   3.516   0.044 -0.0524  0.0688  0.4633
 6890SOL    HW121569   5.951   3.482  -0.022  1.8266 -3.5641  0.2225
 6890SOL    HW221570   6.008   3.465   0.130  2.2007 -0.3441  0.5139
 6891SOL     OW21571   1.674   0.598   1.964  0.0042  0.5725  0.4489
 6891SOL    HW121572   1.578   0.629   1.964 -0.0483  0.4558 -0.8420
 6891SOL    HW221573   1.722   0.640   1.887  0.4606 -0.9820 -0.1421
 6892SOL     OW21574   0.039   6.956   4.075 -0.4298 -0.2685  0.3642
 6892SOL    HW121575  -0.038   6.900   4.044 -1.9615  0.9946  1.6688
 6892SOL    HW221576   0.120   6.898   4.086 -1.4597 -1.8615 -0.0506
 6893SOL     OW21577   4.891   0.383   3.346 -0.7389  0.0025 -0.2116
 6893SOL    HW121578   4.943   0.437   3.412 -1.2742 -0.5926  0.7159
 6893SOL    HW221579   4.803   0.358   3.385 -0.4349 -1.7151 -0.5392
 6894SOL     OW21580   5.167   5.183   4.241  0.5565 -0.5301 -0.3939
 6894SOL    HW121581   5.219   5.240   4.177  0.1128 -0.5273 -0.7549
 6894SOL    HW221582   5.218   5.098   4.258  0.3228 -0.8747 -1.3529
 6895SOL     OW21583   0.496   5.058   4.862 -0.5375 -0.2297  0.3467
 6895SOL    HW121584   0.494   5.145   4.812 -1.6950 -1.0638 -1.1421
 6895SOL    HW221585   0.455   4.986   4.806  0.3765 -1.7568  1.5551
 6896SOL     OW21586   4.088   3.436   3.787 -0.7264 -0.8289 -0.4204
 6896SOL    HW121587   3.992   3.408   3.778 -0.9704 -0.6711  1.3528
 6896SOL    HW221588   4.131   3.434   3.697 -1.7355 -3.2899 -0.9366
 6897SOL     OW21589   4.553   1.419   3.508  0.1460 -0.2676 -0.1507
 6897SOL    HW121590   4.617   1.495   3.504 -0.1312 -0.0528 -0.5582
 6897SOL    HW221591   4.548   1.375   3.419 -0.8958  0.2373 -0.3533
 6898SOL     OW21592   1.729   3.750   4.719  0.5946 -0.2713  0.3122
 6898SOL    HW121593   1.739   3.651   4.730  0.3019 -0.2662  0.6547
 6898SOL    HW221594   1.731   3.773   4.622 -2.2876 -0.9568  0.0029
 6899SOL     OW21595   6.799   4.221   1.981  0.2962 -0.2147  0.0205
 6899SOL    HW121596   6.857   4.301   1.970  0.1429 -0.1499 -0.3366
 6899SOL    HW221597   6.741   4.232   2.061 -0.3987  0.4539 -0.5651
 6900SOL     OW21598   3.438   6.859   4.446  0.1146 -0.6083 -0.1954
 6900SOL    HW121599   3.438   6.958   4.459 -0.0501 -0.7806  1.3164
 6900SOL    HW221600   3.346   6.823   4.462  0.2377 -1.0398 -0.4332
 6901SOL     OW21601   3.779   0.715   1.361  0.3311  0.6503 -0.0473
 6901SOL    HW121602   3.867   0.760   1.342  0.0469  1.3454  0.2186
 6901SOL    HW221603   3.730   0.769   1.430  0.9547 -1.2781  2.0207
 6902SOL     OW21604   2.858   1.703   4.459 -0.2587 -0.3110  0.6903
 6902SOL    HW121605   2.941   1.719   4.513 -0.0652 -0.0646  0.3249
 6902SOL    HW221606   2.780   1.689   4.521  0.1575 -1.1402  1.0436
 6903SOL     OW21607   3.402   0.487   6.893  0.1483  0.1223 -0.3820
 6903SOL    HW121608   3.455   0.473   6.976 -1.6693 -0.1415  0.7838
 6903SOL    HW221609   3.346   0.570   6.903  1.5840  1.4033 -2.2779
 6904SOL     OW21610   4.477   4.928   0.910  0.6899  0.0727 -0.0409
 6904SOL    HW121611   4.551   4.982   0.951  0.3470  0.7978 -0.3509
 6904SOL    HW221612   4.512   4.881   0.829  1.4803 -1.7130  1.2842
 6905SOL     OW21613   1.644   2.069   0.802  0.0111 -0.2688  0.3039
 6905SOL    HW121614   1.569   2.083   0.867  0.2337 -1.4919  0.8458
 6905SOL    HW221615   1.635   2.135   0.727 -2.2872 -1.1234 -0.2480
 6906SOL     OW21616   1.712   6.648   3.543 -0.3482  0.0525 -0.4800
 6906SOL    HW121617   1.812   6.645   3.546 -0.2360  1.1072 -1.8316
 6906SOL    HW221618   1.674   6.618   3.630  1.1121 -1.4380 -0.3220
 6907SOL     OW21619   3.680   6.285   4.810  0.6872  0.0391 -0.6106
 6907SOL    HW121620   3.775   6.254   4.818  0.4907 -0.4075  0.0506
 6907SOL    HW221621   3.668   6.332   4.722  1.4069 -0.2854 -0.8945
 6908SOL     OW21622   5.851   6.023   3.749 -0.1450 -0.2533 -0.1188
 6908SOL    HW121623   5.839   5.924   3.753  1.1103 -0.3680  2.2965
 6908SOL    HW221624   5.879   6.049   3.656  0.6622 -2.2953 -0.4960
 6909SOL     OW21625   5.508   3.534   5.553  0.2559 -0.0906 -0.0654
 6909SOL    HW121626   5.414   3.569   5.559  0.3799  0.3481 -0.6369
 6909SOL    HW221627   5.547   3.529   5.645 -0.2463 -0.0583  0.1540
 6910SOL     OW21628   0.655   6.627   0.777 -0.4427  0.2370  0.5746
 6910SOL    HW121629   0.567   6.598   0.739 -0.9395  2.2261  0.0722
 6910SOL    HW221630   0.727   6.608   0.711 -1.0513  1.9368 -0.6725
 6911SOL     OW21631   3.219   0.412   2.439  0.1488 -0.7146  0.5475
 6911SOL    HW121632   3.263   0.322   2.443  1.7149  0.0598  1.5797
 6911SOL    HW221633   3.245   0.457   2.353  2.0112 -0.0152  1.4053
 6912SOL     OW21634   6.784   2.210   5.404 -0.7598 -0.0144 -0.8427
 6912SOL    HW121635   6.847   2.153   5.457  0.4304  0.1899 -1.9937
 6912SOL    HW221636   6.810   2.209   5.308  0.1388  3.4128 -0.7962
 6913SOL     OW21637   6.547   6.256   4.814 -0.5215  0.3064  0.2401
 6913SOL    HW121638   6.630   6.224   4.861 -0.6516  1.5282  1.3644
 6913SOL    HW221639   6.488   6.177   4.794 -0.0838 -0.3513  1.4202
 6914SOL     OW21640   5.825   3.250   4.271 -0.3358  0.1606  0.2280
 6914SOL    HW121641   5.728   3.240   4.249 -0.1172 -1.3266 -0.1639
 6914SOL    HW221642   5.834   3.292   4.362 -1.2830  2.5094 -0.6857
 6915SOL     OW21643   0.989   2.609   6.547 -0.2210  0.1074 -0.6994
 6915SOL    HW121644   1.028   2.692   6.507 -0.6909  0.4628 -0.4315
 6915SOL    HW221645   0.960   2.547   6.474 -0.6509  0.5509 -0.9048
 6916SOL     OW21646   2.140   6.368   0.722 -0.2932  0.4757  0.1686
 6916SOL    HW121647   2.116   6.312   0.802  0.7843 -0.4214 -0.1130
 6916SOL    HW221648   2.180   6.310   0.652  2.1434  1.7796  0.3956
 6917SOL     OW21649   3.340   5.042   2.792  0.1073  0.3538 -0.1476
 6917SOL    HW121650   3.403   5.007   2.862  0.9717  0.0918 -1.0343
 6917SOL    HW221651   3.247   5.010   2.811  0.1918  0.9039  1.2965
 6918SOL     OW21652   5.681   2.475   4.575  0.5630 -0.2420  0.2355
 6918SOL    HW121653   5.677   2.407   4.648 -2.1198  1.6452  2.0560
 6918SOL    HW221654   5.642   2.436   4.492 -0.8961 -0.9808  1.2176
 6919SOL     OW21655   5.754   5.561   5.090  0.5738 -0.3761 -0.4871
 6919SOL    HW121656   5.723   5.466   5.076 -2.5689  0.4627 -0.0449
 6919SOL    HW221657   5.717   5.619   5.017  1.6343  0.6960 -0.2041
 6920SOL     OW21658   6.017   3.738   0.213  0.0377  0.2226 -0.2191
 6920SOL    HW121659   5.925   3.741   0.254  0.0146  2.0851 -0.2891
 6920SOL    HW221660   6.029   3.652   0.164 -1.6861 -0.0572 -0.2324
 6921SOL     OW21661   5.129   2.748   0.670  0.0879 -0.4920  0.2769
 6921SOL    HW121662   5.077   2.815   0.617 -0.9947 -0.3635  1.4505
 6921SOL    HW221663   5.153   2.670   0.611 -3.2672 -1.5610  0.1162
 6922SOL     OW21664   5.511   4.124   6.308 -0.5193 -0.5995 -0.1478
 6922SOL    HW121665   5.526   4.050   6.373 -1.1171 -0.8523 -0.2918
 6922SOL    HW221666   5.413   4.136   6.294 -0.3907 -0.5561 -1.0160
 6923SOL     OW21667   4.790   3.641   0.276 -0.1993  0.5269 -0.8478
 6923SOL    HW121668   4.704   3.606   0.240 -0.9469  1.0102  0.4222
 6923SOL    HW221669   4.805   3.606   0.368 -0.1256  2.1509 -0.2058
 6924SOL     OW21670   1.030   0.707   5.366  0.4552  0.6324  0.2075
 6924SOL    HW121671   1.076   0.632   5.318 -1.1244 -0.0481 -0.3151
 6924SOL    HW221672   0.957   0.744   5.309  0.0495  1.3862  1.1724
 6925SOL     OW21673   1.141   5.917   4.126 -0.0673  0.1511 -0.0962
 6925SOL    HW121674   1.230   5.959   4.142 -0.0805 -0.3806  1.5171
 6925SOL    HW221675   1.146   5.819   4.147 -0.5942 -0.2689 -1.7242
 6926SOL     OW21676   2.261   2.952   5.315 -0.4282  0.8042  0.3856
 6926SOL    HW121677   2.300   2.991   5.232  0.1844 -2.5013 -1.0265
 6926SOL    HW221678   2.323   2.968   5.392  1.5021 -0.2716 -0.8665
 6927SOL     OW21679   6.021   3.194   1.388 -0.3152  0.1159  0.1418
 6927SOL    HW121680   6.100   3.174   1.330 -0.1419 -0.1128  0.4590
 6927SOL    HW221681   5.943   3.140   1.358  0.2191 -1.2587  1.1650
 6928SOL     OW21682   4.162   5.221   1.453  0.0968 -0.5923  0.1131
 6928SOL    HW121683   4.116   5.265   1.530 -0.3006 -0.7696 -0.0193
 6928SOL    HW221684   4.229   5.155   1.488 -1.2861 -1.9463  0.3425
 6929SOL     OW21685   5.040   5.353   5.176  0.0566  0.3778 -0.3982
 6929SOL    HW121686   5.129   5.314   5.199 -1.2411 -1.6105  1.5974
 6929SOL    HW221687   5.011   5.416   5.248 -0.6297  0.1707 -0.4875
 6930SOL     OW21688   2.412   4.291   1.748  0.0373 -0.4620  0.0872
 6930SOL    HW121689   2.433   4.315   1.843  0.2842 -0.4270  0.0237
 6930SOL    HW221690   2.482   4.329   1.688  0.6350 -1.6415  0.0065
 6931SOL     OW21691   3.871   1.572   6.756  0.1453  0.1651 -0.3013
 6931SOL    HW121692   3.833   1.659   6.789  0.3719  0.2638 -0.3033
 6931SOL    HW221693   3.832   1.497   6.809 -0.7604  0.1887 -0.9016
 6932SOL     OW21694   0.748   2.223   1.567 -0.6261  0.4480 -0.5991
 6932SOL    HW121695   0.651   2.198   1.557 -0.7448 -0.4472  2.0420
 6932SOL    HW221696   0.759   2.281   1.648  1.2133 -0.6384 -0.0106
 6933SOL     OW21697   0.937   0.262   2.623 -0.1784  0.0282  0.1142
 6933SOL    HW121698   0.972   0.356   2.619 -0.5913  0.1451 -1.7667
 6933SOL    HW221699   0.867   0.256   2.695 -0.5653  1.3236 -0.1224
 6934SOL     OW21700   5.015   4.456   3.247  0.1626  0.4059 -0.4634
 6934SOL    HW121701   5.072   4.514   3.305 -0.4142  0.0641  0.4636
 6934SOL    HW221702   5.067   4.377   3.217  0.4614  0.5793 -0.4039
 6935SOL     OW21703   0.895   2.448   3.162  0.2554  0.0334 -0.3274
 6935SOL    HW121704   0.941   2.366   3.127  2.5450  0.9371  0.3264
 6935SOL    HW221705   0.867   2.505   3.086  0.7116 -0.3114 -0.7611
 6936SOL     OW21706   1.626   2.761   1.838 -0.0125  0.7542  0.0862
 6936SOL    HW121707   1.575   2.682   1.872 -0.1826  0.8701  0.0966
 6936SOL    HW221708   1.695   2.787   1.906  1.1927 -0.4293 -0.6187
 6937SOL     OW21709   4.593   5.148   0.339  0.1637 -0.1072  0.1100
 6937SOL    HW121710   4.635   5.063   0.371 -1.0125 -0.2523  1.3639
 6937SOL    HW221711   4.565   5.203   0.417 -1.7034  0.1033 -0.6323
 6938SOL     OW21712   6.654   4.903   1.928  0.2456 -0.8482 -0.2887
 6938SOL    HW121713   6.721   4.894   1.854  0.4620 -0.4163 -0.1439
 6938SOL    HW221714   6.693   4.955   2.004 -0.3406 -0.3463 -0.3177
 6939SOL     OW21715   0.391   0.979   3.004 -0.0527 -0.2356  0.0591
 6939SOL    HW121716   0.332   0.913   2.958  0.5863 -0.0561 -1.0595
 6939SOL    HW221717   0.357   0.996   3.097 -0.8186 -1.3347 -0.0032
 6940SOL     OW21718   5.898   5.783   3.239 -0.2196 -0.3303  0.0636
 6940SOL    HW121719   5.853   5.779   3.328 -1.2310  0.4261 -0.4008
 6940SOL    HW221720   5.862   5.710   3.180  0.7396 -1.0909  0.3805
 6941SOL     OW21721   5.588   1.354   6.583 -0.5624 -0.0153 -0.0907
 6941SOL    HW121722   5.569   1.257   6.570 -0.4491  0.0805 -1.0408
 6941SOL    HW221723   5.582   1.376   6.680  0.2703 -1.1583  0.2443
 6942SOL     OW21724   6.346   6.855   0.612  0.4989 -0.5828  0.2547
 6942SOL    HW121725   6.264   6.897   0.650  0.8143  0.1693  0.1294
 6942SOL    HW221726   6.339   6.852   0.512  0.8855  0.0781  0.1982
 6943SOL     OW21727   0.511   5.951   0.857 -0.1200  0.1813 -0.3170
 6943SOL    HW121728   0.529   5.878   0.792  2.4206 -0.4321  0.9381
 6943SOL    HW221729   0.589   6.014   0.859  0.5755 -0.5884  2.9981
 6944SOL     OW21730   2.035   4.560   3.663  0.3845  0.0015  0.2617
 6944SOL    HW121731   2.102   4.514   3.720  0.2846 -1.6801 -0.8980
 6944SOL    HW221732   2.014   4.650   3.701  2.3566  0.0630  1.3176
 6945SOL     OW21733   5.076   0.846   6.062 -0.2327  0.4437 -0.2066
 6945SOL    HW121734   5.046   0.879   5.972 -0.3488  0.4561 -0.1632
 6945SOL    HW221735   5.028   0.761   6.084 -0.7115  0.8039  0.1469
 6946SOL     OW21736   6.621   2.860   6.795  0.5015  0.2342  0.1380
 6946SOL    HW121737   6.649   2.809   6.713 -1.6449  0.1377 -0.5971
 6946SOL    HW221738   6.640   2.805   6.876  0.6385 -0.6147 -0.4518
 6947SOL     OW21739   3.839   2.094   0.038 -0.1462  0.2877  0.2920
 6947SOL    HW121740   3.776   2.071  -0.036  0.5434  0.0607 -0.2282
 6947SOL    HW221741   3.787   2.132   0.115 -0.7389  1.8262 -0.8217
 6948SOL     OW21742   3.791   0.975   5.264 -0.0206  0.1708  0.4688
 6948SOL    HW121743   3.817   1.070   5.249  0.9171 -0.1736 -0.1524
 6948SOL    HW221744   3.783   0.958   5.363 -1.0825  1.1049  0.5645
 6949SOL     OW21745   1.675   1.156   2.671  0.0233  0.7656  0.3923
 6949SOL    HW121746   1.749   1.126   2.611 -2.0279  0.2774 -2.0781
 6949SOL    HW221747   1.644   1.078   2.727  0.0506  0.4397 -0.0426
 6950SOL     OW21748   5.478   4.319   3.542 -0.5349 -0.4542  0.2354
 6950SOL    HW121749   5.536   4.365   3.474 -0.9541 -0.3600 -0.0611
 6950SOL    HW221750   5.423   4.250   3.497 -0.8169 -0.3916  0.4808
 6951SOL     OW21751   6.981   3.588   3.755  0.4121 -0.0090  0.1811
 6951SOL    HW121752   6.987   3.611   3.657 -1.1657  1.3441  0.3507
 6951SOL    HW221753   6.901   3.530   3.770 -0.1225  0.8847  0.8365
 6952SOL     OW21754   0.386   6.428   2.339 -0.1922  0.0538  0.0918
 6952SOL    HW121755   0.415   6.426   2.435 -3.4857  0.8307  1.2449
 6952SOL    HW221756   0.375   6.335   2.306  3.0548 -0.2944 -0.3760
 6953SOL     OW21757   2.816   6.310   4.174 -0.4449  0.4313  0.2905
 6953SOL    HW121758   2.854   6.401   4.192 -0.5080  0.7955 -1.2788
 6953SOL    HW221759   2.720   6.308   4.200  0.1377  0.0013  2.7231
 6954SOL     OW21760   1.631   4.765   2.089 -0.1313  0.6415 -0.5074
 6954SOL    HW121761   1.592   4.768   1.997 -3.6770  0.7216  0.8557
 6954SOL    HW221762   1.634   4.670   2.121  2.4854  0.4310 -1.1250
 6955SOL     OW21763   1.122   0.222   1.224  0.1838 -0.3350  0.1777
 6955SOL    HW121764   1.111   0.127   1.253 -0.2553 -0.1926  0.4893
 6955SOL    HW221765   1.069   0.237   1.140  1.2828 -0.6912 -0.6062
 6956SOL     OW21766   3.491   5.693   2.021 -0.0362  0.6744  0.0001
 6956SOL    HW121767   3.565   5.654   2.075  0.9733  2.1396 -0.2670
 6956SOL    HW221768   3.436   5.619   1.982  0.8285 -0.4314  0.8019
 6957SOL     OW21769   5.486   1.127   0.020  0.1987 -0.0622 -0.4430
 6957SOL    HW121770   5.426   1.182  -0.039 -0.1641 -0.6440 -0.6224
 6957SOL    HW221771   5.439   1.107   0.106  1.3350  2.2177  0.8167
 6958SOL     OW21772   5.953   6.258   0.748  0.5659 -0.2873 -0.8608
 6958SOL    HW121773   5.970   6.212   0.834 -0.6027 -1.1131 -1.0444
 6958SOL    HW221774   5.887   6.332   0.762 -0.4250 -1.0808 -1.1956
 6959SOL     OW21775   3.319   0.124   2.473 -0.0200  0.5257  0.0650
 6959SOL    HW121776   3.300   0.176   2.390  1.8627  1.6732  0.2820
 6959SOL    HW221777   3.334   0.028   2.449 -1.5576  0.4304 -0.6161
 6960SOL     OW21778   1.065   6.410   5.473 -0.0628  0.3083 -0.7373
 6960SOL    HW121779   1.074   6.508   5.495  0.2861  0.4167 -1.3402
 6960SOL    HW221780   1.073   6.357   5.557  1.0669  0.7269 -0.5551
 6961SOL     OW21781   1.464   3.324   4.901  0.3876  0.0103  0.1862
 6961SOL    HW121782   1.500   3.239   4.861 -1.0580 -1.0894  1.1077
 6961SOL    HW221783   1.470   3.319   5.001 -1.1428  0.3109  0.3089
 6962SOL     OW21784   6.417   0.069   1.243 -0.0407  0.2255  0.4220
 6962SOL    HW121785   6.378   0.009   1.174  1.1822  1.1907 -1.1931
 6962SOL    HW221786   6.456   0.015   1.318 -0.3604 -0.8984 -0.2132
 6963SOL     OW21787   0.438   3.351   3.584  0.5216  0.3304  0.6645
 6963SOL    HW121788   0.434   3.446   3.613  2.0837  0.7491 -0.3899
 6963SOL    HW221789   0.466   3.294   3.662  2.0485  1.0781  0.6848
 6964SOL     OW21790   5.211   2.808   3.640  0.4666 -0.3801  0.0739
 6964SOL    HW121791   5.178   2.832   3.732  4.0013 -0.9321  1.6555
 6964SOL    HW221792   5.168   2.723   3.610 -1.1576  0.0952  0.9034
 6965SOL     OW21793   1.033   3.625   5.533  0.0667 -0.5526  0.0305
 6965SOL    HW121794   1.020   3.714   5.578  0.1993 -0.9001  0.7613
 6965SOL    HW221795   0.954   3.567   5.550  0.8070 -1.2621  1.1870
 6966SOL     OW21796   6.006   5.300   4.364 -0.1979 -0.2184 -0.3325
 6966SOL    HW121797   6.099   5.263   4.360  0.1624  0.3700  1.5824
 6966SOL    HW221798   5.970   5.310   4.271  1.3829 -1.0747 -1.0823
 6967SOL     OW21799   6.353   2.892   4.539  0.2418 -0.2675 -0.5871
 6967SOL    HW121800   6.388   2.846   4.458 -0.0084  0.0752 -0.8935
 6967SOL    HW221801   6.428   2.940   4.586  0.0985  0.9443 -1.5570
 6968SOL     OW21802   5.729   0.833   3.225 -0.8016  0.2585 -0.1951
 6968SOL    HW121803   5.636   0.821   3.189 -0.6442 -2.6848  0.1710
 6968SOL    HW221804   5.795   0.821   3.152 -0.6586  0.4028 -0.0893
 6969SOL     OW21805   2.365   0.720   2.852 -0.0292 -0.1708 -0.0818
 6969SOL    HW121806   2.307   0.762   2.922 -1.3462 -0.7960 -0.7566
 6969SOL    HW221807   2.374   0.622   2.870  1.6642  0.0764  0.5626
 6970SOL     OW21808   6.776   6.004   2.851 -0.3134 -0.4420  0.4151
 6970SOL    HW121809   6.715   6.061   2.906  0.0614 -0.4009  0.7855
 6970SOL    HW221810   6.834   6.062   2.795 -0.8291 -0.4861 -0.1806
 6971SOL     OW21811   4.052   2.201   4.950  1.0067  0.2301 -0.1608
 6971SOL    HW121812   4.015   2.205   4.857  1.2569 -0.1243 -0.2745
 6971SOL    HW221813   4.109   2.282   4.967 -0.4318  1.2058  0.2824
 6972SOL     OW21814   0.918   4.600   6.626  0.3967 -0.0394 -0.0548
 6972SOL    HW121815   0.925   4.547   6.542 -1.0529 -0.1806 -0.1062
 6972SOL    HW221816   0.969   4.686   6.616  0.7733 -0.3429 -0.8240
 6973SOL     OW21817   4.351   5.996   5.126 -0.4336 -0.3217  0.3537
 6973SOL    HW121818   4.265   5.987   5.076  0.3767 -0.9780 -0.9540
 6973SOL    HW221819   4.386   5.905   5.149  1.7061 -0.2992 -2.3185
 6974SOL     OW21820   1.874   2.826   6.953  0.2046  0.1931 -0.3219
 6974SOL    HW121821   1.783   2.812   6.915 -0.1310  2.7226 -0.5957
 6974SOL    HW221822   1.914   2.910   6.917  3.0987 -1.3019 -0.9605
 6975SOL     OW21823   2.685   4.127   1.708 -0.1153 -0.0174 -0.0271
 6975SOL    HW121824   2.605   4.186   1.702 -0.1744  0.1337  1.7391
 6975SOL    HW221825   2.766   4.182   1.728  0.1361 -0.3522 -0.1117
 6976SOL     OW21826   4.251   3.057   0.545 -0.4182 -0.1374 -0.2759
 6976SOL    HW121827   4.310   3.005   0.483 -0.9675 -1.5390  0.3194
 6976SOL    HW221828   4.171   3.090   0.496  0.1405  0.5147 -0.7576
 6977SOL     OW21829   1.036   4.014   0.019 -0.0493 -0.5438  0.2607
 6977SOL    HW121830   0.985   4.015   0.105 -0.8894 -0.0260 -0.2266
 6977SOL    HW221831   0.977   3.980  -0.055  1.1533 -2.5465  0.1594
 6978SOL     OW21832   2.707   3.815   6.439 -0.1517  0.4331 -0.4868
 6978SOL    HW121833   2.702   3.831   6.341  2.2178 -1.8033 -1.0663
 6978SOL    HW221834   2.783   3.753   6.460 -0.6543  0.7132  2.7615
 6979SOL     OW21835   4.319   2.872   5.423 -0.7138 -1.1218  0.2274
 6979SOL    HW121836   4.404   2.846   5.378 -1.4868 -0.1606 -1.9354
 6979SOL    HW221837   4.256   2.794   5.425 -0.3767 -1.3882  0.3465
 6980SOL     OW21838   3.841   4.925   6.668 -0.0308 -0.7540  0.4118
 6980SOL    HW121839   3.924   4.871   6.687  0.7835  0.4740  0.4699
 6980SOL    HW221840   3.763   4.882   6.713  0.6421 -1.7128  0.7091
 6981SOL     OW21841   2.614   3.927   6.758 -0.7078  0.3158 -0.9980
 6981SOL    HW121842   2.526   3.954   6.719  0.2801  1.9271 -2.2013
 6981SOL    HW221843   2.670   4.008   6.776  0.8207 -0.7059 -0.9073
 6982SOL     OW21844   3.700   5.130   5.970  0.9457  0.4455 -0.1467
 6982SOL    HW121845   3.762   5.170   5.903  1.7644 -0.5761 -0.0090
 6982SOL    HW221846   3.724   5.163   6.061  2.2861 -1.0811  0.1016
 6983SOL     OW21847   2.819   0.179   6.226 -0.4964  0.2911  0.5947
 6983SOL    HW121848   2.778   0.207   6.313 -1.6112  0.8529 -0.0989
 6983SOL    HW221849   2.798   0.246   6.155  0.2198 -0.2720 -0.1754
 6984SOL     OW21850   0.473   4.786   6.728  0.0293  0.0257  0.0135
 6984SOL    HW121851   0.522   4.700   6.737  0.0466  0.1704  1.5368
 6984SOL    HW221852   0.528   4.860   6.767  0.6086  1.0011 -2.4458
 6985SOL     OW21853   1.465   0.396   5.240  0.2320  0.4320 -0.1696
 6985SOL    HW121854   1.369   0.388   5.269  0.1979  0.4405 -0.2795
 6985SOL    HW221855   1.478   0.343   5.156 -0.0074  1.5787 -0.9460
 6986SOL     OW21856   5.200   4.780   3.998  0.3560 -0.0601  0.2482
 6986SOL    HW121857   5.171   4.744   4.087  1.0681 -1.0080  0.1046
 6986SOL    HW221858   5.239   4.706   3.943  1.3734  0.8282 -0.2535
 6987SOL     OW21859   2.492   6.322   6.250  0.0176 -0.1853  0.3957
 6987SOL    HW121860   2.570   6.378   6.279  1.8254 -1.5476 -1.6400
 6987SOL    HW221861   2.409   6.378   6.254  1.2419  1.6819  1.4445
 6988SOL     OW21862   3.785   4.851   4.178  0.2363  0.8555  0.4409
 6988SOL    HW121863   3.792   4.892   4.270 -3.0154  1.8562  0.3600
 6988SOL    HW221864   3.765   4.754   4.186  1.5953  0.5759  0.7187
 6989SOL     OW21865   6.267   5.494   1.195 -0.6248  0.1715 -0.2562
 6989SOL    HW121866   6.351   5.544   1.174 -1.0709  1.3770  0.6659
 6989SOL    HW221867   6.190   5.534   1.144 -1.2148  1.3341  1.4451
 6990SOL     OW21868   6.836   4.835   4.227  0.9685 -0.0342  0.8582
 6990SOL    HW121869   6.852   4.789   4.315 -0.5465 -3.8447 -0.6238
 6990SOL    HW221870   6.888   4.789   4.155 -1.2817 -0.0236 -0.8858
 6991SOL     OW21871   6.159   3.356   6.726  0.0911 -0.4169  0.5135
 6991SOL    HW121872   6.228   3.318   6.787 -0.1827 -0.2512  0.9255
 6991SOL    HW221873   6.074   3.370   6.775  0.0495  0.2911  0.2566
 6992SOL     OW21874   2.321   5.250   1.297  0.3480 -0.1018 -0.1154
 6992SOL    HW121875   2.240   5.309   1.297  0.2690 -0.1102 -2.9193
 6992SOL    HW221876   2.297   5.161   1.337 -0.9794 -0.0393 -0.7379
 6993SOL     OW21877   0.555   6.321   6.037 -0.1659  0.2040 -0.1189
 6993SOL    HW121878   0.468   6.368   6.024  0.6566  1.1148 -3.2269
 6993SOL    HW221879   0.630   6.382   6.010  1.3809 -0.9641  1.3327
 6994SOL     OW21880   1.194   0.855   5.748 -0.5329 -0.1859  0.1311
 6994SOL    HW121881   1.181   0.848   5.650 -1.2687 -1.7069  0.3006
 6994SOL    HW221882   1.242   0.773   5.781 -0.1250  0.3882  1.0130
 6995SOL     OW21883   5.242   1.055   2.559  0.3217 -0.4620 -0.1009
 6995SOL    HW121884   5.172   1.069   2.490 -0.0463  1.8595  0.6708
 6995SOL    HW221885   5.199   1.024   2.644  0.3236  0.1646  0.1306
 6996SOL     OW21886   2.007   1.948   3.607  0.2545  0.3908 -0.0878
 6996SOL    HW121887   2.033   2.008   3.531 -0.8567 -0.5067 -1.2072
 6996SOL    HW221888   1.939   1.994   3.664 -0.6285  0.2062 -0.9669
 6997SOL     OW21889   6.581   2.710   5.329 -0.3799 -0.0175  0.2256
 6997SOL    HW121890   6.623   2.639   5.385  0.8393 -1.3627 -2.2112
 6997SOL    HW221891   6.497   2.674   5.287 -0.6651  0.5657  0.2870
 6998SOL     OW21892   4.106   6.355   6.450 -0.1126 -0.0204 -0.0435
 6998SOL    HW121893   4.068   6.331   6.361  3.4348 -0.5491 -1.5503
 6998SOL    HW221894   4.070   6.292   6.519 -0.2731 -1.9013 -1.7443
 6999SOL     OW21895   0.495   0.205   0.130 -0.0105 -0.3518  0.2355
 6999SOL    HW121896   0.448   0.116   0.136  0.8738 -1.0895 -2.6099
 6999SOL    HW221897   0.592   0.192   0.151 -0.2442  0.4266  2.0143
 7000SOL     OW21898   1.575   4.513   0.789  0.2519 -0.4605  0.0011
 7000SOL    HW121899   1.667   4.548   0.770 -1.1683  3.0014 -1.4360
 7000SOL    HW221900   1.561   4.512   0.888  0.8534  2.1948  0.2049
 7001SOL     OW21901   0.331   1.214   3.699  0.3400  0.0542 -0.3865
 7001SOL    HW121902   0.239   1.218   3.659 -0.0515  2.7646  0.5811
 7001SOL    HW221903   0.326   1.175   3.791  0.4020 -1.1319 -0.8765
 7002SOL     OW21904   3.175   6.636   1.462 -0.1447  0.5287  0.0372
 7002SOL    HW121905   3.194   6.628   1.364 -0.5671 -1.7019  0.0723
 7002SOL    HW221906   3.146   6.547   1.497 -1.5350  1.6423  1.8897
 7003SOL     OW21907   3.712   0.058   1.393  0.6099 -0.8664 -0.4930
 7003SOL    HW121908   3.689  -0.026   1.343 -1.2912 -0.8382  0.2259
 7003SOL    HW221909   3.628   0.101   1.426  1.6031  0.8928 -0.1187
 7004SOL     OW21910   3.288   4.020   0.420  0.3972  0.0500  0.7548
 7004SOL    HW121911   3.286   4.037   0.519 -1.2660 -0.6204  0.8609
 7004SOL    HW221912   3.245   3.932   0.400 -1.3514  1.1719 -0.7374
 7005SOL     OW21913   1.753   5.980   1.252 -0.2923  0.1233  0.3527
 7005SOL    HW121914   1.745   6.059   1.313  1.0913  1.4513 -1.0864
 7005SOL    HW221915   1.849   5.955   1.243 -0.4965 -0.2392 -1.0254
 7006SOL     OW21916   2.731   5.879   2.468  0.0058 -0.4323  0.1711
 7006SOL    HW121917   2.670   5.914   2.539 -1.0186  1.7380 -1.6500
 7006SOL    HW221918   2.709   5.784   2.449 -1.2366 -0.3657  1.1772
 7007SOL     OW21919   3.675   6.135   0.779 -0.2492  0.0238 -0.0548
 7007SOL    HW121920   3.716   6.143   0.870 -1.5617 -0.3088  0.5991
 7007SOL    HW221921   3.668   6.038   0.754  1.4273  0.1571 -1.1623
 7008SOL     OW21922   4.655   1.897   0.171 -0.4920 -0.3403  0.0995
 7008SOL    HW121923   4.707   1.899   0.086 -1.7990 -0.4689 -0.7424
 7008SOL    HW221924   4.716   1.879   0.247  1.2436  2.8069 -0.3748
 7009SOL     OW21925   4.612   6.119   5.147 -0.1254  0.2029  0.1326
 7009SOL    HW121926   4.515   6.100   5.131  0.0369  0.0736 -0.7483
 7009SOL    HW221927   4.665   6.036   5.131  0.1870  0.4253  0.0030
 7010SOL     OW21928   0.130   6.891   6.251 -0.2678  0.0990  0.1403
 7010SOL    HW121929   0.063   6.859   6.318  1.5844 -2.5606  0.8928
 7010SOL    HW221930   0.213   6.921   6.298 -0.4978  2.4570 -0.8175
 7011SOL     OW21931   5.253   6.232   6.097 -0.2564  0.1295  0.5524
 7011SOL    HW121932   5.244   6.211   6.194  1.0389  0.3699  0.7379
 7011SOL    HW221933   5.227   6.152   6.043 -1.1966  0.0648  1.0781
 7012SOL     OW21934   5.967   0.350   6.289  0.4904 -0.2597  0.2860
 7012SOL    HW121935   5.932   0.412   6.360  1.0098  0.3408  0.0342
 7012SOL    HW221936   6.044   0.298   6.325 -0.7626 -1.7587  0.9170
 7013SOL     OW21937   2.215   6.248   5.349 -0.2174 -0.1989  0.1672
 7013SOL    HW121938   2.296   6.219   5.299 -0.3133  0.6393 -0.5000
 7013SOL    HW221939   2.221   6.217   5.443  1.1706  0.3649  0.2890
 7014SOL     OW21940   5.256   1.532   4.706  0.0136  0.2934 -0.3974
 7014SOL    HW121941   5.214   1.442   4.694  1.3530 -0.3088 -0.7318
 7014SOL    HW221942   5.298   1.561   4.619  2.7653 -0.4450  0.5788
 7015SOL     OW21943   5.993   0.444   2.493  0.0341  0.7617 -0.1153
 7015SOL    HW121944   5.987   0.439   2.593  0.7412 -0.1596 -0.1158
 7015SOL    HW221945   6.047   0.524   2.468  1.2679  0.0811  0.2967
 7016SOL     OW21946   6.870   6.489   6.501 -0.0800 -0.2221 -0.2164
 7016SOL    HW121947   6.909   6.578   6.477  1.8305 -1.4097 -1.8296
 7016SOL    HW221948   6.896   6.465   6.594 -1.1669  1.1461  0.4808
 7017SOL     OW21949   6.280   1.958   0.777  0.0326 -0.3271  0.3983
 7017SOL    HW121950   6.253   1.962   0.681 -0.3185 -0.6990  0.4779
 7017SOL    HW221951   6.253   1.869   0.816  1.0525 -0.5774  0.5729
 7018SOL     OW21952   3.110   1.234   1.501  0.6906  0.1537  0.4129
 7018SOL    HW121953   3.208   1.223   1.513  1.0072 -0.1265 -1.9991
 7018SOL    HW221954   3.091   1.314   1.444 -0.3350 -0.8837 -0.7731
 7019SOL     OW21955   4.105   3.779   2.163  0.5276  0.1891  0.5749
 7019SOL    HW121956   4.081   3.682   2.172  1.7868 -0.4336 -1.9104
 7019SOL    HW221957   4.190   3.797   2.212  0.0268  0.1939  1.4687
 7020SOL     OW21958   1.921   2.485   0.290  0.1174  0.4166  0.2742
 7020SOL    HW121959   1.887   2.571   0.254 -1.4881 -0.5717 -0.6733
 7020SOL    HW221960   1.884   2.470   0.382  3.0044  2.2085  1.8968
 7021SOL     OW21961   2.128   0.896   2.958  0.6071  0.1629 -0.3464
 7021SOL    HW121962   2.122   0.989   2.993  3.0073 -0.3091  1.5218
 7021SOL    HW221963   2.083   0.892   2.868  0.2751  3.0345 -0.4131
 7022SOL     OW21964   6.907   0.472   0.350 -0.1911  0.6890  0.6652
 7022SOL    HW121965   6.989   0.500   0.399 -0.7102 -0.6177  2.4072
 7022SOL    HW221966   6.929   0.398   0.286  0.1995  1.2076  0.1998
 7023SOL     OW21967   2.076   0.274   0.867  0.0006 -0.3592  0.3450
 7023SOL    HW121968   2.007   0.202   0.854 -0.5050  0.0536  0.6864
 7023SOL    HW221969   2.158   0.234   0.908 -0.5044 -0.6465  1.1057
 7024SOL     OW21970   0.680   4.047   2.779 -0.2072 -0.4864  0.0837
 7024SOL    HW121971   0.638   3.958   2.762  0.5798 -1.0741  1.0847
 7024SOL    HW221972   0.617   4.103   2.834 -0.8212 -0.3045 -0.7858
 7025SOL     OW21973   6.601   3.528   3.956  0.9060  0.6187  0.1316
 7025SOL    HW121974   6.633   3.521   4.050 -1.1368 -0.1051  0.8278
 7025SOL    HW221975   6.638   3.611   3.914  0.9975  1.5239  1.9205
 7026SOL     OW21976   3.331   2.886   4.488 -0.2111  0.3568 -0.3219
 7026SOL    HW121977   3.422   2.925   4.478 -0.1699  0.2657 -0.2998
 7026SOL    HW221978   3.307   2.882   4.585  0.6657 -1.6999 -0.1588
 7027SOL     OW21979   0.955   5.337   3.993 -0.1813  0.3129 -0.2364
 7027SOL    HW121980   1.027   5.268   3.988  1.2492  1.6129  1.2050
 7027SOL    HW221981   0.908   5.343   3.905  0.0302 -2.0421 -0.5777
 7028SOL     OW21982   5.564   0.621   4.647  0.7167 -0.0219  0.6726
 7028SOL    HW121983   5.606   0.530   4.652  0.4669 -0.0597  2.5933
 7028SOL    HW221984   5.505   0.626   4.566  0.9871 -1.4552  0.3627
 7029SOL     OW21985   3.763   2.409   5.933 -0.1316  0.3267  0.8163
 7029SOL    HW121986   3.778   2.447   6.024  0.8059  0.0327  0.7859
 7029SOL    HW221987   3.670   2.371   5.928 -0.5509  1.2570  1.3167
 7030SOL     OW21988   4.057   5.557   5.217 -0.0421 -0.2737  0.2918
 7030SOL    HW121989   4.102   5.523   5.300 -0.4613 -2.6665 -0.3857
 7030SOL    HW221990   4.124   5.601   5.158  0.7995 -0.9943  0.6891
 7031SOL     OW21991   4.969   2.893   1.794  0.1751 -0.2518 -0.1049
 7031SOL    HW121992   4.962   2.988   1.762  0.9363 -0.6934 -1.6764
 7031SOL    HW221993   4.951   2.890   1.893  0.4993  1.5771  0.0522
 7032SOL     OW21994   0.500   2.473   5.093  0.8462 -0.1652  0.0177
 7032SOL    HW121995   0.438   2.405   5.135  1.4590 -0.0858  1.0833
 7032SOL    HW221996   0.567   2.503   5.161  1.6135  0.2887 -0.9195
 7033SOL     OW21997   3.078   6.641   5.426 -0.4399 -0.1094 -0.1612
 7033SOL    HW121998   3.008   6.713   5.436  0.1378  0.9795 -3.0508
 7033SOL    HW221999   3.145   6.650   5.499 -0.0579  2.7364 -0.7523
 7034SOL     OW22000   5.302   4.872   1.615  0.3361  0.1739 -0.1993
 7034SOL    HW122001   5.239   4.843   1.542 -2.5530  1.9432  1.3855
 7034SOL    HW222002   5.315   4.796   1.679  0.2961 -0.4004 -0.8577
 7035SOL     OW22003   5.871   4.731   1.014 -0.0238  0.4534  0.1777
 7035SOL    HW122004   5.811   4.766   1.085  1.6877  0.2469  1.8047
 7035SOL    HW222005   5.966   4.747   1.039  0.6854 -0.8601 -1.4278
 7036SOL     OW22006   6.670   2.691   4.868  0.3060  0.5200 -0.8956
 7036SOL    HW122007   6.712   2.720   4.783  0.5177 -0.0378 -0.9828
 7036SOL    HW222008   6.570   2.698   4.860  0.3512  1.4068 -0.8403
 7037SOL     OW22009   3.854   4.155   6.441  0.0873 -0.7112  0.6195
 7037SOL    HW122010   3.824   4.220   6.371 -2.3379 -0.7172  1.5619
 7037SOL    HW222011   3.897   4.076   6.397 -2.0709 -1.0860 -0.9469
 7038SOL     OW22012   6.918   5.785   5.387  0.3545 -0.2632  0.0806
 7038SOL    HW122013   6.861   5.835   5.453  0.0069  0.4905 -0.7712
 7038SOL    HW222014   6.992   5.738   5.436  0.6667  1.0465  0.9172
 7039SOL     OW22015   6.017   6.993   1.210 -0.0890  0.0698 -0.2990
 7039SOL    HW122016   5.960   6.914   1.235  0.4613 -0.6650 -1.3323
 7039SOL    HW222017   5.965   7.054   1.151 -0.2389  0.0746 -0.1643
 7040SOL     OW22018   0.966   0.676   4.790  0.0924 -0.1324 -0.0789
 7040SOL    HW122019   0.917   0.689   4.704  0.1990 -2.8591 -0.6562
 7040SOL    HW222020   0.902   0.679   4.866 -0.5801 -0.9990 -0.5903
 7041SOL     OW22021   6.360   0.446   0.855 -0.2036  0.0124  0.1825
 7041SOL    HW122022   6.386   0.356   0.891  0.2865 -0.2310 -0.7612
 7041SOL    HW222023   6.272   0.439   0.808  1.7581 -1.0240 -3.7114
 7042SOL     OW22024   3.005   0.518   2.132 -0.6982 -0.1400 -0.4826
 7042SOL    HW122025   3.060   0.476   2.059 -1.3522 -0.9325 -0.5455
 7042SOL    HW222026   3.019   0.617   2.132  0.5004 -0.2877 -0.6725
 7043SOL     OW22027   0.860   4.600   4.588  0.0270  0.0161 -0.2524
 7043SOL    HW122028   0.815   4.595   4.678 -1.4110  1.9368 -0.7950
 7043SOL    HW222029   0.798   4.564   4.518  1.0605 -1.2798 -0.5366
 7044SOL     OW22030   0.401   4.946   1.409  0.4615 -0.0074 -0.0477
 7044SOL    HW122031   0.458   4.879   1.361  0.7382  0.0361  0.2166
 7044SOL    HW222032   0.425   4.946   1.506 -0.9078 -0.9464  0.3136
 7045SOL     OW22033   6.876   4.733   0.954  0.6800 -0.9100 -0.3800
 7045SOL    HW122034   6.847   4.827   0.968  1.0440 -0.7463 -0.7000
 7045SOL    HW222035   6.955   4.714   1.013  0.7496 -0.9404 -0.4821
 7046SOL     OW22036   6.237   3.581   1.994  0.0125  0.2039 -0.2847
 7046SOL    HW122037   6.173   3.553   2.066  1.8538 -0.3657  1.2035
 7046SOL    HW222038   6.190   3.643   1.931 -2.6454 -1.9744 -0.6276
 7047SOL     OW22039   6.444   6.806   3.161  0.2897  0.2843  0.2601
 7047SOL    HW122040   6.521   6.840   3.215  2.2595 -1.4077 -1.2961
 7047SOL    HW222041   6.416   6.717   3.196 -1.5910  1.2348  1.3173
 7048SOL     OW22042   3.737   1.395   1.741 -0.5026  0.3435 -0.1646
 7048SOL    HW122043   3.757   1.487   1.775 -1.6497 -0.0558  1.7228
 7048SOL    HW222044   3.640   1.377   1.750 -0.6845 -0.2692 -2.6620
 7049SOL     OW22045   5.663   6.390   2.301 -0.2049  0.0306  0.0289
 7049SOL    HW122046   5.727   6.320   2.333 -1.5698 -1.3046 -0.0611
 7049SOL    HW222047   5.649   6.379   2.202 -1.4956 -0.4976  0.2518
 7050SOL     OW22048   4.406   4.802   1.917  0.2898  0.2638 -0.0664
 7050SOL    HW122049   4.372   4.879   1.971  1.4586  0.8708 -0.1849
 7050SOL    HW222050   4.424   4.725   1.978 -1.1293 -0.0319  0.0197
 7051SOL     OW22051   4.512   0.269   1.563  0.1838  0.0368  0.5603
 7051SOL    HW122052   4.547   0.248   1.654 -1.8475 -0.4432  1.2951
 7051SOL    HW222053   4.509   0.368   1.550 -1.0771  0.1755  1.7199
 7052SOL     OW22054   3.792   1.825   2.312 -0.8011 -0.4015 -0.3269
 7052SOL    HW122055   3.719   1.772   2.268 -0.0872 -1.6252 -0.0573
 7052SOL    HW222056   3.879   1.778   2.301 -0.2297  0.4629  0.3767
 7053SOL     OW22057   5.042   1.260   6.308  0.2696 -0.7234  0.2228
 7053SOL    HW122058   5.019   1.165   6.287 -0.5198 -0.3825 -0.5647
 7053SOL    HW222059   4.958   1.311   6.326  0.5610  0.1207 -0.7287
 7054SOL     OW22060   6.467   2.096   4.782  0.2265 -1.0397 -0.0821
 7054SOL    HW122061   6.536   2.117   4.713 -1.0092  0.0484 -1.0280
 7054SOL    HW222062   6.510   2.050   4.859  2.1806  0.4327 -0.2211
 7055SOL     OW22063   1.411   1.318   1.047 -0.3578 -0.4773 -0.0013
 7055SOL    HW122064   1.431   1.221   1.063 -0.4721 -0.0968  2.9056
 7055SOL    HW222065   1.315   1.336   1.068  0.2462  0.6768  2.0140
 7056SOL     OW22066   2.923   4.929   6.733 -0.2412  0.3041  0.2428
 7056SOL    HW122067   2.973   5.000   6.683  0.8002  0.3976  1.3671
 7056SOL    HW222068   2.855   4.888   6.673 -0.2949  1.6796 -0.6847
 7057SOL     OW22069   2.169   6.226   5.888 -0.7511  1.1093 -0.6112
 7057SOL    HW122070   2.136   6.227   5.793 -1.6081 -1.5520 -0.4337
 7057SOL    HW222071   2.091   6.222   5.950 -0.2063 -0.6355  0.0207
 7058SOL     OW22072   6.223   6.570   0.206 -0.5490  0.5720 -0.7587
 7058SOL    HW122073   6.253   6.535   0.295  0.2249  0.6322 -0.9845
 7058SOL    HW222074   6.302   6.575   0.145 -1.4761 -2.0046 -2.3232
 7059SOL     OW22075   0.348   0.445   5.315 -0.2485 -0.2386 -0.7184
 7059SOL    HW122076   0.301   0.522   5.359 -1.4069 -1.9328  1.1949
 7059SOL    HW222077   0.446   0.453   5.330 -0.4028  0.5989 -0.0676
 7060SOL     OW22078   3.487   1.078   4.774  0.0749 -0.1723  0.0619
 7060SOL    HW122079   3.545   1.020   4.831 -0.2776  0.5529  1.1955
 7060SOL    HW222080   3.409   1.110   4.828 -0.5007  0.1829 -0.9655
 7061SOL     OW22081   5.473   7.014   7.005  0.0282  0.2340 -0.2237
 7061SOL    HW122082   5.553   6.991   7.060  1.0775  0.8466 -1.4472
 7061SOL    HW222083   5.483   6.974   6.913 -0.7589  0.8767 -0.6040
 7062SOL     OW22084   4.565   4.417   2.581  0.0518 -0.2680 -0.5394
 7062SOL    HW122085   4.575   4.383   2.487  0.6157 -0.5818 -0.3731
 7062SOL    HW222086   4.471   4.444   2.596  0.1009  0.4524 -1.4201
 7063SOL     OW22087   5.571   0.404   3.252 -0.7119 -0.1245 -0.1213
 7063SOL    HW122088   5.501   0.333   3.241  0.5201 -1.8840  2.2768
 7063SOL    HW222089   5.644   0.390   3.185 -0.7687 -0.7844 -0.0551
 7064SOL     OW22090   1.571   5.914   4.615 -0.1073 -0.2519 -0.1654
 7064SOL    HW122091   1.670   5.901   4.604  0.0740 -0.6648  1.6463
 7064SOL    HW222092   1.543   5.998   4.568  1.2739  0.4166  0.1521
 7065SOL     OW22093   4.078   3.522   2.230  0.4251 -0.2450  0.2266
 7065SOL    HW122094   4.053   3.470   2.313  1.5555 -3.1640 -1.1183
 7065SOL    HW222095   4.120   3.460   2.164  2.4344  2.5984 -1.3426
 7066SOL     OW22096   6.806   0.702   2.526 -0.6331 -0.3090 -0.5085
 7066SOL    HW122097   6.723   0.659   2.560 -1.5731  0.4619 -1.7327
 7066SOL    HW222098   6.821   0.675   2.431 -0.9028  1.5145 -1.1084
 7067SOL     OW22099   6.885   6.667   3.235  0.2484  0.1535  0.1118
 7067SOL    HW122100   6.938   6.646   3.152  0.4526  1.1164 -0.0124
 7067SOL    HW222101   6.886   6.765   3.251 -3.3110  0.5147 -1.1110
 7068SOL     OW22102   4.939   3.079   3.165  0.1601 -0.2590 -1.1370
 7068SOL    HW122103   4.908   3.053   3.074 -2.8999  1.4019 -0.6875
 7068SOL    HW222104   4.865   3.126   3.214  2.2121  0.3613  1.6284
 7069SOL     OW22105   2.739   1.731   3.462  0.1893 -0.2512 -0.3630
 7069SOL    HW122106   2.641   1.713   3.463  0.2925 -0.8045  1.3097
 7069SOL    HW222107   2.783   1.684   3.538  1.9579 -1.0185 -1.7946
 7070SOL     OW22108   2.954   5.823   6.824 -0.3705 -0.3875 -0.4604
 7070SOL    HW122109   2.928   5.733   6.789 -0.4100 -0.8455  0.7098
 7070SOL    HW222110   2.872   5.882   6.826  0.0150  0.4137 -3.1933
 7071SOL     OW22111   1.571   6.641   1.832  0.1644  0.4968 -0.2739
 7071SOL    HW122112   1.495   6.613   1.890  0.4175  1.3802  0.5118
 7071SOL    HW222113   1.611   6.561   1.787 -0.1780 -0.1776  0.5989
 7072SOL     OW22114   1.032   0.169   2.227 -0.0246 -0.0381 -0.4146
 7072SOL    HW122115   0.957   0.234   2.241 -2.1661 -2.0710 -1.6170
 7072SOL    HW222116   1.068   0.178   2.135  0.3135  0.0649 -0.2733
 7073SOL     OW22117   6.760   0.805   3.018 -0.0267  0.1885 -0.0970
 7073SOL    HW122118   6.732   0.748   3.096 -1.2112  0.6769 -0.1404
 7073SOL    HW222119   6.850   0.844   3.036  0.4567 -1.0685  0.2766
 7074SOL     OW22120   6.988   5.276   5.794  0.2003  0.5179 -0.2719
 7074SOL    HW122121   7.058   5.326   5.845  0.9644 -0.1277 -0.6657
 7074SOL    HW222122   7.020   5.183   5.777 -0.5969  0.3335 -0.7941
 7075SOL     OW22123   4.983   6.840   0.044 -0.3279 -0.3747  0.2042
 7075SOL    HW122124   5.064   6.899   0.044 -1.0110  0.8098 -3.3117
 7075SOL    HW222125   4.930   6.858   0.126 -1.0845  5.0353 -1.0668
 7076SOL     OW22126   1.311   2.616   5.964  0.0028 -0.0840 -0.5212
 7076SOL    HW122127   1.256   2.653   6.039  1.8717 -0.4605  1.1165
 7076SOL    HW222128   1.258   2.548   5.914 -0.8217 -0.9229  1.3959
 7077SOL     OW22129   5.644   6.012   0.420 -0.2173 -0.3240 -0.2204
 7077SOL    HW122130   5.545   6.006   0.419 -0.4678  0.5906  3.6899
 7077SOL    HW222131   5.683   5.921   0.407 -1.4827 -0.6987 -1.7583
 7078SOL     OW22132   6.824   2.183   1.178  0.3942  0.1010 -0.0262
 7078SOL    HW122133   6.834   2.090   1.214  1.3506 -0.3798 -1.4298
 7078SOL    HW222134   6.891   2.243   1.222  0.4959 -0.1165  0.1189
 7079SOL     OW22135   5.151   4.113   3.660 -0.1139  0.3559 -0.3327
 7079SOL    HW122136   5.207   4.135   3.580 -1.7650  0.7055 -1.4353
 7079SOL    HW222137   5.160   4.016   3.681 -0.6519 -0.0185 -1.7437
 7080SOL     OW22138   6.377   3.226   6.850  0.1048  0.4872  0.0301
 7080SOL    HW122139   6.371   3.160   6.926  0.3506 -0.5885 -0.8555
 7080SOL    HW222140   6.469   3.266   6.848  0.2403  0.1765  0.0221
 7081SOL     OW22141   0.302   0.144   1.350  0.1736  0.5421  0.4201
 7081SOL    HW122142   0.369   0.115   1.281 -0.5350 -0.7833  0.2593
 7081SOL    HW222143   0.339   0.221   1.402  1.8900 -0.2767  0.4657
 7082SOL     OW22144   5.359   0.540   1.259 -0.0280 -0.3297 -0.2990
 7082SOL    HW122145   5.423   0.550   1.182 -0.6795  2.3233 -0.5954
 7082SOL    HW222146   5.277   0.492   1.228  0.9101 -1.9109 -0.4461
 7083SOL     OW22147   2.479   5.060   0.930 -0.2689 -0.0488 -0.3358
 7083SOL    HW122148   2.382   5.083   0.926 -0.1847  0.1760 -1.8075
 7083SOL    HW222149   2.534   5.143   0.932 -0.1049 -0.1704  1.4789
 7084SOL     OW22150   1.486   1.941   6.569 -0.1741  0.3002  0.0786
 7084SOL    HW122151   1.415   1.872   6.555  1.0646 -1.1727  0.8091
 7084SOL    HW222152   1.568   1.898   6.604  0.5252  2.2338  0.9624
 7085SOL     OW22153   3.953   2.156   3.828 -0.0890 -0.2177  0.3146
 7085SOL    HW122154   3.894   2.224   3.871 -1.8603 -0.3642 -1.7166
 7085SOL    HW222155   4.046   2.192   3.821 -0.7719  1.6015  0.1774
 7086SOL     OW22156   5.754   5.074   3.125  0.9331  0.4442  0.1264
 7086SOL    HW122157   5.666   5.030   3.108  2.0373 -1.6119 -0.4906
 7086SOL    HW222158   5.759   5.101   3.222 -0.8700  1.8747 -0.1098
 7087SOL     OW22159   2.132   0.288   1.648  0.0060 -0.1026 -0.5201
 7087SOL    HW122160   2.141   0.349   1.570 -2.0038  1.3522  0.2978
 7087SOL    HW222161   2.061   0.220   1.630  1.2197 -1.3244 -0.8554
 7088SOL     OW22162   0.253   4.889   6.036 -0.3747 -0.0264  0.2022
 7088SOL    HW122163   0.313   4.962   6.004 -1.1770  0.8670  0.6713
 7088SOL    HW222164   0.288   4.800   6.007 -0.0886  0.6345 -1.5326
 7089SOL     OW22165   5.577   1.159   0.861  0.3926  0.2827 -0.1417
 7089SOL    HW122166   5.642   1.087   0.839 -0.2316  0.0501 -1.2868
 7089SOL    HW222167   5.568   1.167   0.960  1.2129 -0.5291  0.0072
 7090SOL     OW22168   5.934   2.360   4.011 -0.2748 -0.4924 -0.3532
 7090SOL    HW122169   5.991   2.279   4.025 -1.6810 -1.5067 -0.2417
 7090SOL    HW222170   5.974   2.438   4.059 -1.5587 -2.3102  4.2854
 7091SOL     OW22171   0.262   5.057   0.982  0.8404  0.0862 -0.0838
 7091SOL    HW122172   0.179   5.019   1.023  0.8715 -0.3204 -0.3961
 7091SOL    HW222173   0.331   5.069   1.053  0.5633  0.3003  0.1547
 7092SOL     OW22174   3.973   0.514   2.913 -0.2848 -0.3215 -0.2947
 7092SOL    HW122175   4.027   0.594   2.888 -1.8274  0.7042 -0.4916
 7092SOL    HW222176   3.923   0.481   2.832  0.0905 -1.3136 -0.1448
 7093SOL     OW22177   0.327   5.897   0.565 -0.0304 -0.2774 -0.0066
 7093SOL    HW122178   0.245   5.903   0.508  0.3529 -0.6142 -0.6120
 7093SOL    HW222179   0.307   5.843   0.647 -0.4378 -0.2670 -0.0957
 7094SOL     OW22180   1.164   5.323   0.356  0.4330  0.2670  0.6995
 7094SOL    HW122181   1.123   5.293   0.270 -0.6015 -0.5200  1.4286
 7094SOL    HW222182   1.261   5.341   0.343  0.7833 -1.9000 -0.1791
 7095SOL     OW22183   7.000   5.169   6.216 -0.5308  0.1466 -0.1705
 7095SOL    HW122184   7.033   5.083   6.177  0.3499 -0.3336  1.5056
 7095SOL    HW222185   6.906   5.186   6.186 -0.3072 -0.7816 -1.4666
 7096SOL     OW22186   4.123   5.599   1.053  0.2363 -0.6067  0.3059
 7096SOL    HW122187   4.133   5.500   1.067 -0.1750 -0.7814 -0.5271
 7096SOL    HW222188   4.203   5.646   1.089  0.2030 -1.1964  1.1682
 7097SOL     OW22189   5.662   1.008   1.908  0.1919 -0.0377 -0.3920
 7097SOL    HW122190   5.690   0.920   1.947  0.3531 -0.4541 -1.4122
 7097SOL    HW222191   5.737   1.073   1.916  0.9182 -0.6718 -1.6393
 7098SOL     OW22192   5.131   0.096   1.151 -0.2728  0.3355 -0.1599
 7098SOL    HW122193   5.035   0.075   1.172  0.0158 -2.2442 -1.0711
 7098SOL    HW222194   5.134   0.165   1.078 -1.3366  2.1014  1.3530
 7099SOL     OW22195   3.027   6.365   5.060 -0.2830  0.2525  0.2680
 7099SOL    HW122196   2.987   6.457   5.063  0.9105  0.8398 -0.7898
 7099SOL    HW222197   3.096   6.362   4.988  1.6656 -0.6865  2.0874
 7100SOL     OW22198   1.476   3.634   4.136 -0.6639 -0.2663  0.2820
 7100SOL    HW122199   1.403   3.584   4.183 -0.7164 -0.7073 -0.2671
 7100SOL    HW222200   1.514   3.578   4.063  0.3941 -0.1390  0.7113
 7101SOL     OW22201   1.316   6.174   5.603  0.4982 -0.1020 -0.1436
 7101SOL    HW122202   1.406   6.217   5.609  0.4209 -0.1491  1.6744
 7101SOL    HW222203   1.310   6.123   5.517  2.4457 -0.6334 -0.0201
 7102SOL     OW22204   5.973   6.153   3.985  0.8519 -0.3898  0.2667
 7102SOL    HW122205   5.914   6.131   4.062  0.9984  0.0313  0.5048
 7102SOL    HW222206   5.937   6.111   3.902 -0.8474  1.3517  0.0469
 7103SOL     OW22207   5.440   1.805   5.597 -0.1036  0.1977  0.0215
 7103SOL    HW122208   5.505   1.797   5.521 -0.3794 -0.1167 -0.1845
 7103SOL    HW222209   5.357   1.852   5.565  0.1219  0.8323  0.3494
 7104SOL     OW22210   5.757   1.573   2.188  0.2541 -0.1395 -0.3712
 7104SOL    HW122211   5.705   1.503   2.139  1.1707 -2.6242  1.9860
 7104SOL    HW222212   5.803   1.632   2.121 -1.1113 -1.3019 -2.4689
 7105SOL     OW22213   2.821   1.097   0.126 -0.4311  0.2649  0.0618
 7105SOL    HW122214   2.846   1.191   0.148 -0.8964  0.2310  0.7790
 7105SOL    HW222215   2.870   1.067   0.044  2.1907  0.0763  1.5781
 7106SOL     OW22216   3.333   2.058   5.627 -0.0927 -0.3195 -0.2526
 7106SOL    HW122217   3.280   2.031   5.547 -0.6834  1.9050 -0.6961
 7106SOL    HW222218   3.421   2.094   5.599  1.5836 -3.5048  0.4573
 7107SOL     OW22219   0.863   0.986   0.969  0.1521  0.2799 -0.3039
 7107SOL    HW122220   0.819   1.031   0.891  0.3605  2.1262  0.5907
 7107SOL    HW222221   0.920   1.052   1.018 -0.3390 -0.7001  1.6987
 7108SOL     OW22222   0.710   6.225   4.689  1.3793 -0.3231  0.0236
 7108SOL    HW122223   0.625   6.189   4.726  0.3977  2.3487  0.5769
 7108SOL    HW222224   0.707   6.222   4.589 -0.2167  1.4403 -0.0270
 7109SOL     OW22225   4.183   0.107   1.165 -0.0413  0.0551 -0.3515
 7109SOL    HW122226   4.196   0.192   1.217  0.3471 -0.5301  0.5161
 7109SOL    HW222227   4.162   0.130   1.070  0.8631  1.1244 -0.3194
 7110SOL     OW22228   2.236   5.131   3.015  0.3637 -0.2175 -0.3729
 7110SOL    HW122229   2.189   5.178   2.941 -0.1254 -0.5766 -0.2934
 7110SOL    HW222230   2.333   5.158   3.015 -0.1793  1.9920  0.6368
 7111SOL     OW22231   6.569   3.784   6.016  0.4304  0.1794  0.1263
 7111SOL    HW122232   6.661   3.818   5.993 -0.3163  1.3177 -1.4096
 7111SOL    HW222233   6.503   3.823   5.952 -0.9071 -2.0016  0.0923
 7112SOL     OW22234   3.357   2.616   1.066 -0.1789 -0.5283  0.1307
 7112SOL    HW122235   3.287   2.566   1.117  0.5220 -0.1714  1.5075
 7112SOL    HW222236   3.320   2.647   0.979 -0.8733 -2.7739 -0.4339
 7113SOL     OW22237   4.923   1.317   1.354 -0.5542  0.0741  0.0837
 7113SOL    HW122238   4.890   1.375   1.279  1.9391  1.6230  0.0798
 7113SOL    HW222239   4.860   1.324   1.432 -1.9843  0.2140 -1.0457
 7114SOL     OW22240   5.676   6.704   4.423  0.1815  0.3314 -0.1437
 7114SOL    HW122241   5.620   6.670   4.499 -0.4069  1.7784  0.1024
 7114SOL    HW222242   5.749   6.762   4.459 -0.3593  1.3824 -0.6819
 7115SOL     OW22243   2.836   1.165   2.704 -0.0193  0.1358  0.1904
 7115SOL    HW122244   2.877   1.240   2.652 -1.3715  0.1213 -0.9527
 7115SOL    HW222245   2.899   1.136   2.775  1.4478  0.8973 -0.7472
 7116SOL     OW22246   6.867   3.418   5.728 -0.2898  0.1622  0.4570
 7116SOL    HW122247   6.773   3.386   5.731  0.6081 -2.6736  1.3094
 7116SOL    HW222248   6.922   3.357   5.670  1.0827  1.6580  0.0968
 7117SOL     OW22249   3.047   4.296   5.997  0.8434  0.2327  0.2979
 7117SOL    HW122250   3.042   4.315   5.899 -0.8394 -2.1735 -0.1817
 7117SOL    HW222251   3.138   4.260   6.019  0.6163 -1.1319 -0.8303
 7118SOL     OW22252   3.561   3.371   2.550  0.1327 -0.3187  0.2285
 7118SOL    HW122253   3.642   3.419   2.515 -0.7909  0.5461 -0.7875
 7118SOL    HW222254   3.535   3.410   2.638 -0.5223  0.9846 -0.5216
 7119SOL     OW22255   1.617   6.580   3.786 -0.1977 -0.0401  0.6340
 7119SOL    HW122256   1.602   6.647   3.858 -0.9482  0.8609 -0.3403
 7119SOL    HW222257   1.541   6.515   3.784 -0.1851 -0.0548  0.6248
 7120SOL     OW22258   4.366   5.322   4.884  0.3927  0.0616  0.2290
 7120SOL    HW122259   4.269   5.335   4.864  0.4960  0.7169  0.1392
 7120SOL    HW222260   4.386   5.224   4.891 -0.4685 -0.0623  1.1966
 7121SOL     OW22261   3.037   5.347   0.815  0.1260 -0.2751  0.2256
 7121SOL    HW122262   3.052   5.266   0.758 -0.0994 -0.0939 -0.0927
 7121SOL    HW222263   2.961   5.331   0.877  1.7383 -1.3118  2.0520
 7122SOL     OW22264   1.789   3.501   2.792  0.4035  0.4667  0.5073
 7122SOL    HW122265   1.733   3.555   2.730  0.3156  0.7954  0.8645
 7122SOL    HW222266   1.755   3.514   2.886  2.1385  2.0863  0.9719
 7123SOL     OW22267   5.016   2.903   5.102  0.4185 -0.0273  0.4930
 7123SOL    HW122268   5.051   2.890   5.009 -0.9998  1.1850 -0.2533
 7123SOL    HW222269   4.919   2.927   5.098  0.0093 -1.1381  2.3688
 7124SOL     OW22270   2.104   1.206   6.600  0.4648 -0.0773 -0.7996
 7124SOL    HW122271   2.092   1.182   6.504 -2.1826 -1.8822 -0.1040
 7124SOL    HW222272   2.156   1.135   6.646 -1.4207 -1.1122 -0.1856
 7125SOL     OW22273   2.725   1.688   6.421  0.0591 -0.7149  0.1758
 7125SOL    HW122274   2.807   1.686   6.363  2.0682 -1.1407  2.8171
 7125SOL    HW222275   2.687   1.781   6.420  0.6950 -0.4374 -0.9263
 7126SOL     OW22276   4.492   0.528   2.636  1.1074 -0.2147 -0.1206
 7126SOL    HW122277   4.506   0.449   2.576  1.7389 -0.0602 -0.1878
 7126SOL    HW222278   4.581   0.565   2.664  0.8749 -1.0827  1.9881
 7127SOL     OW22279   3.526   1.206   2.092 -0.2047 -0.2581  0.2725
 7127SOL    HW122280   3.581   1.228   2.172  2.7001  0.7104 -1.8130
 7127SOL    HW222281   3.471   1.285   2.065  0.7972  0.3088 -0.1389
 7128SOL     OW22282   4.793   2.812   4.248 -0.2943  0.2580  0.1138
 7128SOL    HW122283   4.747   2.877   4.310 -0.8245  0.2234 -0.2362
 7128SOL    HW222284   4.724   2.763   4.195  0.0742 -0.9019  0.6777
 7129SOL     OW22285   6.848   1.799   6.685  0.5984 -0.0054 -0.4556
 7129SOL    HW122286   6.940   1.840   6.682 -0.2242  2.3292  1.8080
 7129SOL    HW222287   6.843   1.735   6.762 -0.1594  1.4339  0.7472
 7130SOL     OW22288   0.922   0.385   3.815  0.6886 -0.0005  0.2076
 7130SOL    HW122289   0.878   0.307   3.771  0.8039  0.4054 -0.6516
 7130SOL    HW222290   0.872   0.469   3.792  0.7379  0.2223  0.8779
 7131SOL     OW22291   5.659   2.422   4.294 -0.2878 -0.1568 -0.1787
 7131SOL    HW122292   5.629   2.516   4.311 -1.2103 -0.7799  2.0591
 7131SOL    HW222293   5.679   2.410   4.197  0.4379  2.4890 -0.4215
 7132SOL     OW22294   1.875   5.266   6.145  0.0873  0.7074 -0.1299
 7132SOL    HW122295   1.804   5.323   6.104 -1.3508 -0.6517  0.3869
 7132SOL    HW222296   1.851   5.170   6.135  0.3370  0.2711  2.6724
 7133SOL     OW22297   6.825   0.250   3.803 -0.0427  1.3953  0.2210
 7133SOL    HW122298   6.785   0.341   3.789  1.0012  1.7941 -0.2226
 7133SOL    HW222299   6.831   0.202   3.716  1.9276  1.9744 -0.0024
 7134SOL     OW22300   5.645   2.980   0.035  0.1505 -0.0397 -0.2216
 7134SOL    HW122301   5.714   3.050   0.048  0.3827 -0.1599 -0.7858
 7134SOL    HW222302   5.645   2.950  -0.060 -0.0054 -0.7467 -0.0036
 7135SOL     OW22303   3.596   3.667   1.503 -0.9883  0.2544  0.2104
 7135SOL    HW122304   3.529   3.735   1.474 -0.1644  3.3205  4.5012
 7135SOL    HW222305   3.550   3.594   1.554 -1.3572  1.2760  1.3889
 7136SOL     OW22306   4.733   4.934   0.472 -0.5411 -0.1058 -0.0868
 7136SOL    HW122307   4.738   4.842   0.435  4.8976  0.1235 -0.7639
 7136SOL    HW222308   4.749   4.931   0.571 -0.0494  0.0748 -0.1557
 7137SOL     OW22309   0.992   3.786   5.118  0.4438 -0.0184 -0.3025
 7137SOL    HW122310   0.971   3.724   5.042  1.0291  0.3808 -0.8018
 7137SOL    HW222311   1.080   3.760   5.158  1.1963  1.0811 -1.1702
 7138SOL     OW22312   1.507   2.789   4.622 -0.7477 -0.0658  0.4154
 7138SOL    HW122313   1.437   2.760   4.557 -0.4153  0.6787 -0.2840
 7138SOL    HW222314   1.572   2.849   4.577 -0.6097  0.6140  1.4827
 7139SOL     OW22315   1.887   1.871   2.529 -0.4765  0.2705 -0.0880
 7139SOL    HW122316   1.963   1.806   2.530 -0.3976  0.3573 -0.3021
 7139SOL    HW222317   1.921   1.963   2.550 -0.6952  0.1365  0.9026
 7140SOL     OW22318   5.200   1.776   3.851  0.7635 -0.2708 -0.1434
 7140SOL    HW122319   5.251   1.808   3.771  0.2901  1.0733  0.0812
 7140SOL    HW222320   5.264   1.734   3.916  1.3681  0.0477 -0.5168
 7141SOL     OW22321   0.392   5.716   6.815  0.3976  0.7980 -0.4490
 7141SOL    HW122322   0.295   5.701   6.835  0.7524  0.0544  0.8076
 7141SOL    HW222323   0.415   5.811   6.835  0.7081  0.1501  2.8950
 7142SOL     OW22324   1.489   1.581   6.411 -0.2143  0.1722  0.4193
 7142SOL    HW122325   1.434   1.543   6.485  2.9978 -0.4834  2.6942
 7142SOL    HW222326   1.517   1.508   6.349  0.9454 -0.1465  1.2951
 7143SOL     OW22327   0.318   6.300   3.917  0.5722  0.8973 -0.0789
 7143SOL    HW122328   0.376   6.260   3.988 -0.6548  1.8113  1.4952
 7143SOL    HW222329   0.371   6.310   3.833  1.2500 -3.1092 -0.3389
 7144SOL     OW22330   4.432   1.059   5.907 -0.5925  0.5275 -0.0989
 7144SOL    HW122331   4.440   1.145   5.958 -0.6314 -0.4577  1.6456
 7144SOL    HW222332   4.418   0.983   5.971 -2.5783 -0.5664 -1.6970
 7145SOL     OW22333   5.842   5.718   5.295 -0.1942  0.1763 -0.5110
 7145SOL    HW122334   5.828   5.642   5.232 -0.4721  1.2140 -1.7369
 7145SOL    HW222335   5.757   5.739   5.343 -0.1031 -0.3069 -0.1302
 7146SOL     OW22336   1.542   2.788   0.520 -0.0097  0.2729 -0.0330
 7146SOL    HW122337   1.561   2.785   0.618 -0.6089 -0.9247  0.0647
 7146SOL    HW222338   1.445   2.810   0.505 -0.4199 -1.5783 -0.2734
 7147SOL     OW22339   6.911   6.483   3.960  0.1339 -0.6647 -0.3748
 7147SOL    HW122340   6.893   6.432   4.044 -1.1131  0.9058  0.3532
 7147SOL    HW222341   6.842   6.461   3.891 -0.3395 -0.0489 -0.0988
 7148SOL     OW22342   0.254   0.734   2.546  0.3160 -0.0185  0.5268
 7148SOL    HW122343   0.160   0.741   2.512  0.0786  0.3975  1.2566
 7148SOL    HW222344   0.310   0.685   2.478 -0.1801  0.6561 -0.3897
 7149SOL     OW22345   6.350   1.964   6.078  0.0398  0.3828  0.1002
 7149SOL    HW122346   6.405   2.019   6.015 -0.2397  0.3778 -0.1512
 7149SOL    HW222347   6.270   1.927   6.030  0.1534 -0.1335  0.2999
 7150SOL     OW22348   1.660   0.224   2.135  0.1400  0.1392  0.4268
 7150SOL    HW122349   1.566   0.238   2.165  0.7235  0.0279  2.4843
 7150SOL    HW222350   1.722   0.277   2.193  1.3865 -0.0561 -0.6678
 7151SOL     OW22351   3.633   6.677   4.420 -0.1432 -0.3745  0.6133
 7151SOL    HW122352   3.718   6.724   4.398 -0.1333 -0.9882 -0.8113
 7151SOL    HW222353   3.565   6.744   4.450  0.9113  0.0792  2.0839
 7152SOL     OW22354   2.507   1.253   3.329 -0.5831 -0.3752  1.3102
 7152SOL    HW122355   2.506   1.306   3.244 -0.2717 -1.3736  0.6586
 7152SOL    HW222356   2.518   1.156   3.307  0.3659 -0.5677  2.5360
 7153SOL     OW22357   1.949   6.557   5.704  0.3678 -0.5355  0.3118
 7153SOL    HW122358   1.894   6.547   5.621 -0.1808 -1.0424  0.7254
 7153SOL    HW222359   2.046   6.565   5.679  0.3265 -1.7884 -0.3221
 7154SOL     OW22360   6.267   4.901   1.688  0.0852 -0.2105  0.0737
 7154SOL    HW122361   6.288   4.973   1.621  0.9032  0.3924  0.9487
 7154SOL    HW222362   6.174   4.913   1.722  0.2751  0.5763  0.3552
 7155SOL     OW22363   1.284   0.152   7.005 -0.0533  0.3053 -0.2608
 7155SOL    HW122364   1.216   0.223   6.988 -2.1769 -2.0068 -2.1085
 7155SOL    HW222365   1.272   0.077   6.940  1.2136 -2.3815  2.3640
 7156SOL     OW22366   4.054   0.753   4.468 -0.1331 -0.0898  0.1514
 7156SOL    HW122367   4.004   0.795   4.392 -1.1760 -0.2186  0.7477
 7156SOL    HW222368   4.025   0.658   4.478  1.2515 -0.5875 -0.3572
 7157SOL     OW22369   1.107   4.765   0.044  0.3660  0.1126  0.3309
 7157SOL    HW122370   1.097   4.831  -0.031  0.5518  0.2678  0.4413
 7157SOL    HW222371   1.158   4.685   0.012  0.3853  0.1481  0.2719
 7158SOL     OW22372   3.289   6.715   3.501 -0.5156  0.7927  0.5853
 7158SOL    HW122373   3.224   6.790   3.513 -0.1496  1.1805  0.2293
 7158SOL    HW222374   3.266   6.663   3.419 -0.0540  1.2847  0.1324
 7159SOL     OW22375   1.340   5.323   5.417  0.3074 -0.1379 -0.1181
 7159SOL    HW122376   1.412   5.258   5.393  0.6513  0.6920 -1.4133
 7159SOL    HW222377   1.357   5.360   5.508  1.7631  0.3499 -0.5640
 7160SOL     OW22378   0.610   0.953   5.825 -0.5858 -0.0759 -0.0996
 7160SOL    HW122379   0.530   0.894   5.824 -1.3172  0.9042 -0.5665
 7160SOL    HW222380   0.673   0.926   5.752 -0.9693 -0.2039 -0.3826
 7161SOL     OW22381   1.965   1.104   6.341 -0.1333 -0.8249  0.1427
 7161SOL    HW122382   2.004   1.119   6.250 -1.3176 -0.9888 -0.4146
 7161SOL    HW222383   1.970   1.006   6.364 -0.1936 -0.8433  0.0780
 7162SOL     OW22384   0.495   1.024   1.621  0.1282 -0.3677  0.0957
 7162SOL    HW122385   0.428   1.063   1.559  0.6476 -0.5229 -0.5759
 7162SOL    HW222386   0.551   1.097   1.661  1.7281 -0.4115 -1.8831
 7163SOL     OW22387   4.193   4.741   2.162 -0.3925 -0.0358  0.0708
 7163SOL    HW122388   4.095   4.730   2.179 -0.4295 -2.5785 -1.3535
 7163SOL    HW222389   4.210   4.744   2.064  0.8373  2.6320  0.2691
 7164SOL     OW22390   4.420   6.640   1.756  0.3528 -0.2962 -0.5639
 7164SOL    HW122391   4.442   6.543   1.766  1.2608 -0.0794 -0.3264
 7164SOL    HW222392   4.392   6.659   1.662 -0.1553 -0.8481 -0.5254
 7165SOL     OW22393   2.242   0.675   3.705 -0.1089 -0.5175  0.2316
 7165SOL    HW122394   2.184   0.753   3.679  0.1008 -0.7517 -0.9725
 7165SOL    HW222395   2.278   0.631   3.623 -0.1144 -1.8180  0.9010
 7166SOL     OW22396   6.906   6.829   1.965 -0.2020  0.2484 -0.3536
 7166SOL    HW122397   6.948   6.918   1.981  0.4320  0.0243 -0.7393
 7166SOL    HW222398   6.841   6.835   1.889  0.1333  0.2949 -0.6370
 7167SOL     OW22399   5.110   6.498   4.899  0.4271 -0.2685 -0.4175
 7167SOL    HW122400   5.113   6.398   4.896 -1.1902 -0.3501 -0.3560
 7167SOL    HW222401   5.088   6.533   4.808  0.7642  0.0200 -0.3888
 7168SOL     OW22402   4.143   2.920   0.141  0.1526  0.7512  0.1309
 7168SOL    HW122403   4.217   2.912   0.075 -0.7890  1.8694 -1.1142
 7168SOL    HW222404   4.102   2.830   0.156  1.3500  0.2292  0.3755
 7169SOL     OW22405   1.284   0.785   1.527 -0.1630 -0.2756 -0.0824
 7169SOL    HW122406   1.234   0.846   1.466  0.9606 -1.2980 -2.1465
 7169SOL    HW222407   1.231   0.702   1.542  1.1083 -1.7566 -3.0018
 7170SOL     OW22408   6.741   5.999   1.866  0.3472 -0.5717 -0.7108
 7170SOL    HW122409   6.745   6.077   1.929 -0.7139 -0.1865 -1.0944
 7170SOL    HW222410   6.830   5.955   1.861  0.1090 -1.5856  2.2647
 7171SOL     OW22411   6.015   5.176   4.621  0.0856 -0.6299 -0.1057
 7171SOL    HW122412   6.092   5.115   4.605  0.9591 -0.1682  1.9766
 7171SOL    HW222413   6.002   5.236   4.542  1.4453 -1.1331 -0.7390
 7172SOL     OW22414   3.401   2.841   1.859 -0.2459  0.7465 -0.2392
 7172SOL    HW122415   3.435   2.913   1.798  1.5865 -0.3972 -0.6483
 7172SOL    HW222416   3.354   2.771   1.805  0.0111  0.4983 -0.1436
 7173SOL     OW22417   5.465   0.223   5.781  0.1278  0.0764  0.4020
 7173SOL    HW122418   5.398   0.161   5.822  1.3220 -1.2244  0.4665
 7173SOL    HW222419   5.514   0.272   5.853  0.3800 -0.2083  0.4253
 7174SOL     OW22420   0.966   6.329   2.147 -0.3906 -0.3478 -0.6542
 7174SOL    HW122421   0.883   6.367   2.188  0.0184  0.1216 -0.2376
 7174SOL    HW222422   0.943   6.251   2.090 -0.9306 -1.4955  1.0534
 7175SOL     OW22423   2.590   3.769   0.205  0.7585 -0.5686 -0.3143
 7175SOL    HW122424   2.518   3.820   0.251  2.0673  1.0479  0.0509
 7175SOL    HW222425   2.676   3.782   0.254  1.6049 -1.2060 -1.5844
 7176SOL     OW22426   4.722   4.826   4.765  0.0322  0.4388 -0.5153
 7176SOL    HW122427   4.712   4.840   4.863 -0.1518 -1.9220 -0.1340
 7176SOL    HW222428   4.819   4.822   4.741  0.1240 -1.4978  0.0388
 7177SOL     OW22429   5.078   6.227   4.922  0.1705 -0.0792 -1.1132
 7177SOL    HW122430   4.987   6.186   4.917  0.1401 -0.4433  1.0780
 7177SOL    HW222431   5.147   6.156   4.935  0.4888  0.3356 -0.4449
 7178SOL     OW22432   1.724   1.737   2.005 -0.5861 -0.0888 -0.8435
 7178SOL    HW122433   1.659   1.713   2.077 -0.2106 -0.6817 -0.6934
 7178SOL    HW222434   1.675   1.767   1.923 -1.0193  1.9729  0.0917
 7179SOL     OW22435   0.506   0.821   5.234  0.0079  0.5959 -0.1509
 7179SOL    HW122436   0.517   0.918   5.212  0.9499  0.6378  0.4538
 7179SOL    HW222437   0.420   0.788   5.195  0.0967  1.4498 -1.1179
 7180SOL     OW22438   6.092   5.203   0.213 -1.4875 -0.0639  0.7514
 7180SOL    HW122439   6.053   5.273   0.154  0.7202 -0.0924 -0.8773
 7180SOL    HW222440   6.071   5.224   0.308 -0.9488  2.8240  0.3263
 7181SOL     OW22441   3.002   1.417   6.257  0.0919 -0.5310  0.2777
 7181SOL    HW122442   3.001   1.463   6.345  0.7025 -1.4744  0.7978
 7181SOL    HW222443   3.039   1.324   6.268 -1.4575 -1.2943 -0.6646
 7182SOL     OW22444   2.712   3.013   6.040 -0.2997  0.8482 -0.0175
 7182SOL    HW122445   2.780   2.940   6.029 -0.9161  0.0972  1.0037
 7182SOL    HW222446   2.742   3.093   5.989  0.7713  0.1415 -0.5496
 7183SOL     OW22447   6.679   0.170   2.084 -0.3684 -0.6092 -0.0486
 7183SOL    HW122448   6.751   0.187   2.016 -1.4146  1.0451 -0.8046
 7183SOL    HW222449   6.680   0.244   2.152 -2.0845  0.0757 -0.7357
 7184SOL     OW22450   4.012   1.561   2.124  0.1486  0.2873  0.2669
 7184SOL    HW122451   4.008   1.659   2.102 -1.2933  0.5435  1.5058
 7184SOL    HW222452   3.967   1.509   2.051  1.2541  0.4807 -0.5854
 7185SOL     OW22453   6.223   0.323   2.474 -0.1015  0.4330 -0.1058
 7185SOL    HW122454   6.257   0.350   2.384  1.4463  0.3920  0.4231
 7185SOL    HW222455   6.129   0.354   2.486 -0.7003 -0.4591 -2.1090
 7186SOL     OW22456   2.343   2.894   6.648  0.1676  0.8041  0.1927
 7186SOL    HW122457   2.310   2.978   6.606  0.4903  0.6329 -0.4159
 7186SOL    HW222458   2.390   2.915   6.733 -0.3785  1.1709  0.4077
 7187SOL     OW22459   5.513   4.728   6.974 -0.0640  0.5324 -0.1637
 7187SOL    HW122460   5.510   4.824   6.999  1.0738  1.1935 -2.3393
 7187SOL    HW222461   5.533   4.719   6.877  0.7225 -1.9152  0.1456
 7188SOL     OW22462   1.547   6.976   2.164  0.2724  0.1300 -0.2036
 7188SOL    HW122463   1.523   6.995   2.259 -1.3866 -0.5908 -0.4483
 7188SOL    HW222464   1.594   7.055   2.125 -0.2169  0.9535  0.8287
 7189SOL     OW22465   1.334   1.867   1.994  0.6447  0.1850 -0.0187
 7189SOL    HW122466   1.263   1.828   2.053  1.0135 -1.2699 -0.4967
 7189SOL    HW222467   1.406   1.799   1.979 -0.2325 -0.1862 -3.4911
 7190SOL     OW22468   3.671   0.845   0.475 -0.8679 -0.1013 -0.2415
 7190SOL    HW122469   3.736   0.813   0.543 -0.1514  1.4228 -0.1640
 7190SOL    HW222470   3.593   0.886   0.520 -0.4051  0.8860 -0.3164
 7191SOL     OW22471   1.144   3.986   6.499 -0.1845  0.0113 -0.2395
 7191SOL    HW122472   1.142   3.906   6.439 -1.4527  0.8236 -1.3372
 7191SOL    HW222473   1.051   4.019   6.514  0.1253  0.0099  1.9787
 7192SOL     OW22474   1.924   1.730   1.809  0.4695  0.1546 -0.4535
 7192SOL    HW122475   1.848   1.752   1.870 -2.0882 -0.2349 -3.3098
 7192SOL    HW222476   1.953   1.636   1.825 -0.0812  0.0915  0.2238
 7193SOL     OW22477   2.812   1.114   6.113 -0.2394 -0.0047 -0.4334
 7193SOL    HW122478   2.807   1.098   6.212  0.9277 -2.2771 -0.6544
 7193SOL    HW222479   2.774   1.204   6.091 -0.4558  0.5887  2.0704
 7194SOL     OW22480   5.303   6.140   0.969 -0.2138 -0.8942  0.7361
 7194SOL    HW122481   5.207   6.125   0.992 -0.4028 -0.0205  0.5300
 7194SOL    HW222482   5.346   6.194   1.041 -0.4955  0.7921 -0.3105
 7195SOL     OW22483   1.664   2.431   5.999 -0.3675  0.5613  0.2758
 7195SOL    HW122484   1.623   2.461   5.912  0.0458  3.8600  1.0938
 7195SOL    HW222485   1.708   2.509   6.044  3.3654 -1.9160  1.4065
 7196SOL     OW22486   2.016   2.771   3.240 -0.4494 -0.0397  0.2169
 7196SOL    HW122487   2.032   2.750   3.144  0.2102 -1.6744  0.6522
 7196SOL    HW222488   1.952   2.848   3.247 -0.6037  0.0290 -1.5113
 7197SOL     OW22489   4.599   1.548   0.071 -0.1792  0.1300 -0.1986
 7197SOL    HW122490   4.539   1.628   0.067 -1.7535 -0.8264  2.1032
 7197SOL    HW222491   4.650   1.549   0.157 -1.8499 -2.3185  0.9494
 7198SOL     OW22492   6.997   4.562   6.995 -0.3578 -0.4215 -0.0055
 7198SOL    HW122493   6.907   4.607   6.994  0.0746  0.4633 -0.4587
 7198SOL    HW222494   7.006   4.503   6.915 -1.1439 -1.7913  0.8812
 7199SOL     OW22495   2.833   2.349   6.575  0.5636  0.4242 -0.0491
 7199SOL    HW122496   2.919   2.312   6.610 -1.2277 -2.7018  1.4721
 7199SOL    HW222497   2.825   2.329   6.478  1.3753  0.3136 -0.0954
 7200SOL     OW22498   1.524   6.432   4.306  0.4185  0.3504  0.3181
 7200SOL    HW122499   1.445   6.373   4.326  0.3733  0.6641  1.1179
 7200SOL    HW222500   1.590   6.425   4.381  1.6459 -0.6907 -0.8219
 7201SOL     OW22501   0.483   3.313   2.856  0.5424 -0.6031  0.2876
 7201SOL    HW122502   0.552   3.323   2.928  0.2374  2.5856  0.2450
 7201SOL    HW222503   0.403   3.264   2.893  1.6808 -1.9392  1.0962
 7202SOL     OW22504   6.804   4.853   0.217  0.2312 -0.5260  0.1046
 7202SOL    HW122505   6.835   4.928   0.158 -0.0731 -1.1503 -0.8607
 7202SOL    HW222506   6.704   4.856   0.224  0.2427 -0.6559  0.3333
 7203SOL     OW22507   0.504   2.198   3.728  0.7401 -0.2751 -0.4593
 7203SOL    HW122508   0.567   2.270   3.756  0.7717  0.7751 -2.9977
 7203SOL    HW222509   0.458   2.161   3.808  2.7235  0.6553  1.1964
 7204SOL     OW22510   0.947   6.130   5.406 -0.6672 -0.9995  0.3861
 7204SOL    HW122511   0.993   6.047   5.374  0.2769  0.3804 -2.1805
 7204SOL    HW222512   1.016   6.201   5.423 -1.6229  0.1632 -0.4457
 7205SOL     OW22513   4.683   0.651   0.107  0.0727 -0.2132  0.1798
 7205SOL    HW122514   4.628   0.570   0.130  1.7925 -1.5891 -0.2847
 7205SOL    HW222515   4.732   0.634   0.022  3.6243 -0.4120  2.0616
 7206SOL     OW22516   6.376   3.405   4.047  0.3007 -0.4818 -0.4326
 7206SOL    HW122517   6.470   3.421   4.016 -0.1954 -1.9493 -3.0272
 7206SOL    HW222518   6.364   3.308   4.067 -0.5753 -0.2338  0.3119
 7207SOL     OW22519   1.810   3.784   3.070 -0.4259 -0.4367  0.3378
 7207SOL    HW122520   1.846   3.850   3.135  0.5888 -0.1121 -0.5189
 7207SOL    HW222521   1.739   3.827   3.014  0.1882 -0.0832 -0.1754
 7208SOL     OW22522   6.587   1.632   5.140 -0.1940 -0.2024 -0.4804
 7208SOL    HW122523   6.671   1.577   5.133 -0.2240 -0.4709  1.0640
 7208SOL    HW222524   6.610   1.726   5.164 -0.3547 -0.4735  0.8153
 7209SOL     OW22525   3.776   0.359   5.382 -0.5688  0.2250 -0.4842
 7209SOL    HW122526   3.822   0.366   5.470  0.4395 -0.5148 -0.9309
 7209SOL    HW222527   3.677   0.362   5.396 -0.4086  1.4083  0.5367
 7210SOL     OW22528   6.293   6.987   3.311  0.0611  0.3839 -0.5274
 7210SOL    HW122529   6.255   7.069   3.267  1.1181  1.4179  0.4329
 7210SOL    HW222530   6.334   6.928   3.241  1.2836  1.7682 -1.0188
 7211SOL     OW22531   3.202   2.144   4.821 -0.4660 -0.4488 -0.0670
 7211SOL    HW122532   3.256   2.065   4.851  0.6495  0.7409  1.2147
 7211SOL    HW222533   3.149   2.179   4.898  1.7276  2.1069  0.4593
 7212SOL     OW22534   4.843   0.188   2.780 -0.0926  0.0243 -0.0553
 7212SOL    HW122535   4.881   0.280   2.788  1.3852 -0.4054 -1.6111
 7212SOL    HW222536   4.745   0.194   2.761 -0.0474  1.2652  0.0208
 7213SOL     OW22537   4.346   6.407   2.329  0.1042 -0.0640  0.8375
 7213SOL    HW122538   4.376   6.411   2.424 -1.1344  0.6351  1.2207
 7213SOL    HW222539   4.390   6.481   2.278  0.3705 -0.1146  0.9934
 7214SOL     OW22540   0.301   0.823   1.063  0.0788  0.6328  0.1418
 7214SOL    HW122541   0.386   0.834   1.115  0.6863 -1.7171 -0.2324
 7214SOL    HW222542   0.263   0.732   1.080 -1.0811  0.7541 -1.5501
 7215SOL     OW22543   1.674   1.882   2.903 -0.0043 -0.3864 -0.5739
 7215SOL    HW122544   1.724   1.857   2.986  1.4884  1.4237 -0.8623
 7215SOL    HW222545   1.703   1.823   2.827  1.8913  0.7118 -0.7693
 7216SOL     OW22546   4.284   4.930   3.912  0.3701  0.3293  0.4155
 7216SOL    HW122547   4.248   5.009   3.862  0.7921 -1.1347 -2.4652
 7216SOL    HW222548   4.212   4.862   3.923  1.1374 -1.0024 -1.9374
 7217SOL     OW22549   6.490   6.285   0.983  0.0673 -0.2248 -0.1051
 7217SOL    HW122550   6.460   6.229   0.906  0.0772  0.6697 -0.7800
 7217SOL    HW222551   6.410   6.328   1.026  0.1711  0.3749 -0.4958
 7218SOL     OW22552   2.237   4.379   2.133 -0.0204 -0.2042 -0.8495
 7218SOL    HW122553   2.149   4.417   2.160 -1.0441 -1.7368 -1.8428
 7218SOL    HW222554   2.285   4.345   2.214 -0.1515  0.9924 -0.2528
 7219SOL     OW22555   5.156   1.352   0.107  0.2265  0.1437  0.3236
 7219SOL    HW122556   5.230   1.308   0.158 -1.3739 -0.3665  2.3298
 7219SOL    HW222557   5.074   1.295   0.111 -0.1690  0.3992 -2.3655
 7220SOL     OW22558   0.508   2.240   6.506 -0.5351 -0.5326  0.2418
 7220SOL    HW122559   0.545   2.260   6.415 -0.5972 -2.2241 -0.1861
 7220SOL    HW222560   0.456   2.155   6.502 -1.0455 -0.3066  1.7447
 7221SOL     OW22561   2.905   7.001   3.286 -0.1926 -0.1342  0.5211
 7221SOL    HW122562   2.882   7.073   3.220  1.1821 -0.5578 -0.4644
 7221SOL    HW222563   2.874   6.913   3.249 -0.5346 -0.2342  1.0381
 7222SOL     OW22564   6.656   6.082   5.317 -0.2326 -0.3150 -0.2303
 7222SOL    HW122565   6.744   6.130   5.314 -0.9201  1.0070 -0.3240
 7222SOL    HW222566   6.630   6.066   5.412  0.2615 -1.0276 -0.2078
 7223SOL     OW22567   0.152   1.277   5.016  0.1527  0.0502  0.3414
 7223SOL    HW122568   0.197   1.358   4.978  0.1938 -0.1551 -0.0475
 7223SOL    HW222569   0.221   1.212   5.049  0.1437 -0.3031 -0.3345
 7224SOL     OW22570   6.327   4.306   2.416 -0.4947  0.0876 -0.0428
 7224SOL    HW122571   6.299   4.396   2.384 -1.5461 -0.3096 -0.2884
 7224SOL    HW222572   6.394   4.267   2.353  0.9042  1.1725  0.7071
 7225SOL     OW22573   4.046   2.301   1.811  0.6900  0.5823 -0.4031
 7225SOL    HW122574   3.962   2.289   1.758  1.5698 -1.0595 -1.5109
 7225SOL    HW222575   4.096   2.381   1.777  1.3955 -0.6222 -2.3625
 7226SOL     OW22576   5.042   3.821   6.955 -0.0646 -0.6159 -0.4069
 7226SOL    HW122577   5.116   3.871   6.998 -1.4188  1.8099 -0.7146
 7226SOL    HW222578   5.069   3.795   6.862  1.1646 -1.7750  0.2377
 7227SOL     OW22579   0.594   3.206   4.043  0.3434  0.1405  0.0092
 7227SOL    HW122580   0.583   3.291   4.095 -3.2601 -0.8807  1.2538
 7227SOL    HW222581   0.659   3.147   4.090  0.7662  1.1114  0.6895
 7228SOL     OW22582   1.421   3.916   6.095 -0.5239 -0.1039 -0.0466
 7228SOL    HW122583   1.439   3.923   6.193 -1.4402  0.0891  0.1225
 7228SOL    HW222584   1.506   3.927   6.044 -0.0057 -0.3909  0.7323
 7229SOL     OW22585   2.369   5.884   1.223  0.1734  0.3075 -0.4495
 7229SOL    HW122586   2.321   5.840   1.299 -0.2706  1.7698  0.1464
 7229SOL    HW222587   2.456   5.838   1.207 -0.4743 -1.0725 -0.1701
 7230SOL     OW22588   6.426   4.681   1.702  0.2002 -0.7138  0.2766
 7230SOL    HW122589   6.375   4.611   1.652  1.3045 -0.8196 -0.7552
 7230SOL    HW222590   6.374   4.767   1.702  1.0144 -0.1074 -2.9028
 7231SOL     OW22591   0.329   1.530   4.294  0.0271  0.0209  0.2969
 7231SOL    HW122592   0.296   1.453   4.239  1.6280 -0.8936  0.5442
 7231SOL    HW222593   0.266   1.547   4.369 -0.3422 -1.0662  0.2518
 7232SOL     OW22594   4.827   3.986   4.213  0.2760 -0.5297  0.8405
 7232SOL    HW122595   4.814   4.038   4.129  0.5081 -1.6831  0.0591
 7232SOL    HW222596   4.849   3.891   4.190  0.9290 -0.7322  2.2027
 7233SOL     OW22597   1.797   3.433   5.008 -0.0658 -0.5225 -0.7936
 7233SOL    HW122598   1.889   3.426   4.970  1.1621 -0.6426  2.0074
 7233SOL    HW222599   1.763   3.342   5.029 -0.1052 -0.3833 -0.2430
 7234SOL     OW22600   2.826   1.365   0.166 -0.1218  0.4994  0.1705
 7234SOL    HW122601   2.768   1.433   0.120 -1.3736 -0.0575  0.8681
 7234SOL    HW222602   2.793   1.353   0.260  2.6727  2.0091  1.4712
 7235SOL     OW22603   1.345   6.171   1.861 -0.9051 -0.0086  0.4318
 7235SOL    HW122604   1.309   6.247   1.808  1.1108  1.1401  0.6271
 7235SOL    HW222605   1.408   6.117   1.804  0.1596  0.3934  1.1956
 7236SOL     OW22606   2.329   2.232   3.831  0.5505 -0.2877 -0.4027
 7236SOL    HW122607   2.301   2.246   3.736 -1.5826 -0.7684  0.1046
 7236SOL    HW222608   2.363   2.139   3.843 -2.1247 -1.3177 -0.1244
 7237SOL     OW22609   1.654   4.360   1.273  0.3571  0.1360 -0.1675
 7237SOL    HW122610   1.566   4.331   1.236 -0.5822  0.5069  1.6567
 7237SOL    HW222611   1.704   4.281   1.308  0.4780  0.0039 -0.6337
 7238SOL     OW22612   4.004   5.149   4.080  0.5822 -0.0943  0.6409
 7238SOL    HW122613   4.064   5.110   4.150  1.9618 -1.8529 -1.4151
 7238SOL    HW222614   3.918   5.098   4.078  0.7804 -0.4276  0.6445
 7239SOL     OW22615   5.114   2.545   0.391 -0.2537 -0.1421 -0.5937
 7239SOL    HW122616   5.116   2.591   0.302  1.3576  3.2435  0.9961
 7239SOL    HW222617   5.166   2.460   0.387 -2.0049 -1.2232 -3.3166
 7240SOL     OW22618   5.827   0.535   0.078  0.2972  0.5340  0.3501
 7240SOL    HW122619   5.852   0.440   0.060  2.0511  0.6131  2.0594
 7240SOL    HW222620   5.763   0.566   0.008  1.5212 -1.1557 -1.6381
 7241SOL     OW22621   6.047   4.972   4.352 -0.1390 -0.0296 -0.3420
 7241SOL    HW122622   6.096   5.002   4.270  1.2760  2.1960  1.2237
 7241SOL    HW222623   5.961   5.022   4.359  0.8924  1.6791  0.7628
 7242SOL     OW22624   0.389   0.550   1.305 -0.0586  0.0730 -0.8124
 7242SOL    HW122625   0.311   0.556   1.242 -0.3554 -1.2707 -0.5956
 7242SOL    HW222626   0.396   0.634   1.358 -1.3319  0.2364 -0.8810
 7243SOL     OW22627   6.023   5.999   1.842 -0.2112  0.3949 -0.6106
 7243SOL    HW122628   6.080   6.041   1.771 -1.0428 -0.3377 -1.7433
 7243SOL    HW222629   6.081   5.974   1.919  0.8066  0.7588 -1.2262
 7244SOL     OW22630   2.330   3.101   0.297 -0.2357 -0.7480 -0.3682
 7244SOL    HW122631   2.339   3.084   0.199 -1.3469  1.1031 -0.8393
 7244SOL    HW222632   2.420   3.099   0.340  0.3526 -0.7464 -1.5740
 7245SOL     OW22633   0.096   0.485   5.829  0.8949 -0.2515 -1.2835
 7245SOL    HW122634   0.180   0.458   5.783  1.1796 -2.2049  0.2391
 7245SOL    HW222635   0.110   0.484   5.928 -0.5489  0.7974 -1.0268
 7246SOL     OW22636   2.936   4.928   5.556 -0.8156 -0.1470 -0.2182
 7246SOL    HW122637   2.946   5.027   5.567 -0.4670 -0.2813  0.7374
 7246SOL    HW222638   3.020   4.882   5.584 -1.9996 -0.9081  2.4196
 7247SOL     OW22639   4.575   1.859   1.645  0.0199  0.0873  0.6398
 7247SOL    HW122640   4.557   1.853   1.547  1.2681  0.0230  0.4047
 7247SOL    HW222641   4.671   1.880   1.661  0.1911 -1.4628  1.8788
 7248SOL     OW22642   5.033   7.008   2.298  0.2296 -0.2470 -0.2053
 7248SOL    HW122643   5.016   7.056   2.213  0.2926 -0.3972 -0.3027
 7248SOL    HW222644   4.957   6.946   2.318  0.3280 -0.3908 -0.2760
 7249SOL     OW22645   2.635   4.392   1.606  0.5737  0.8713  0.5332
 7249SOL    HW122646   2.670   4.484   1.624  1.2708  1.2499 -2.3069
 7249SOL    HW222647   2.669   4.360   1.518 -1.0412 -1.4482  0.6610
 7250SOL     OW22648   3.358   6.498   4.366  0.3659  0.5930  0.8817
 7250SOL    HW122649   3.288   6.454   4.423  0.2066 -0.3553 -0.0178
 7250SOL    HW222650   3.447   6.492   4.412  0.9070 -3.1334 -0.3185
 7251SOL     OW22651   2.004   2.491   4.385  0.5951  0.2018 -0.4554
 7251SOL    HW122652   1.971   2.567   4.441  4.2992  0.7828  1.2622
 7251SOL    HW222653   2.053   2.528   4.306 -2.3350 -0.6141 -2.8403
 7252SOL     OW22654   0.491   5.465   6.378 -0.7129  0.7334  0.0664
 7252SOL    HW122655   0.464   5.466   6.474 -0.9919 -0.2973  0.0092
 7252SOL    HW222656   0.449   5.543   6.331  1.3490  2.6640  1.2500
 7253SOL     OW22657   2.944   1.471   0.691 -0.0308 -0.5824  0.0783
 7253SOL    HW122658   2.859   1.523   0.681  0.0637 -0.2521  0.9252
 7253SOL    HW222659   2.923   1.379   0.725 -0.0948 -0.7050 -0.2854
 7254SOL     OW22660   5.910   4.250   4.587  0.3435  0.0745 -0.1814
 7254SOL    HW122661   5.974   4.204   4.525  0.9982  0.9521 -0.1672
 7254SOL    HW222662   5.842   4.300   4.534 -0.2371 -0.7034 -0.1936
 7255SOL     OW22663   3.115   5.153   0.579  0.0456 -0.4327  0.5757
 7255SOL    HW122664   3.205   5.180   0.614  0.3862 -2.1151  1.1088
 7255SOL    HW222665   3.116   5.152   0.479  0.6129 -0.4032  0.5802
 7256SOL     OW22666   0.481   6.937   0.140 -0.3135 -0.1432 -0.3838
 7256SOL    HW122667   0.511   6.844   0.119  0.9451 -0.6585  3.0211
 7256SOL    HW222668   0.412   6.935   0.213  0.0661  1.5937  0.0816
 7257SOL     OW22669   4.757   2.186   1.103 -0.9724  0.1551 -0.1490
 7257SOL    HW122670   4.855   2.205   1.113 -0.6859 -1.2475 -0.0073
 7257SOL    HW222671   4.705   2.240   1.168 -0.4048  1.7039 -0.9318
 7258SOL     OW22672   4.276   0.886   4.434  0.1389  0.6611 -0.7133
 7258SOL    HW122673   4.321   0.919   4.517 -1.0049  1.1414 -0.2721
 7258SOL    HW222674   4.190   0.842   4.457  0.9094 -1.3541 -1.4344
 7259SOL     OW22675   0.006   5.074   1.969 -0.0101  0.3308  0.2892
 7259SOL    HW122676  -0.085   5.068   2.010 -0.7940 -0.3617 -1.4460
 7259SOL    HW222677   0.072   5.106   2.038 -1.6475  1.4066  1.4324
 7260SOL     OW22678   3.260   5.273   2.438 -0.1670 -0.0092 -0.0564
 7260SOL    HW122679   3.309   5.331   2.372  0.5292 -0.0448  0.4213
 7260SOL    HW222680   3.316   5.262   2.520 -0.3535 -1.2443 -0.0858
 7261SOL     OW22681   6.898   4.705   4.456  0.0018 -0.0420 -0.1385
 7261SOL    HW122682   6.849   4.676   4.538  2.5534 -0.4212  1.3706
 7261SOL    HW222683   6.992   4.671   4.460  0.9560  2.1413 -1.9565
 7262SOL     OW22684   5.630   5.264   1.772  0.5279 -0.0371 -0.4315
 7262SOL    HW122685   5.711   5.229   1.820 -1.0058  0.0634  2.4721
 7262SOL    HW222686   5.571   5.188   1.746  0.4246  0.0213 -0.3667
 7263SOL     OW22687   0.706   4.993   5.996  0.0556 -0.9414 -0.4856
 7263SOL    HW122688   0.693   5.091   5.983  1.0053 -0.4781  1.6544
 7263SOL    HW222689   0.618   4.948   6.004 -0.4535  0.3867  2.4689
 7264SOL     OW22690   3.841   6.844   1.873 -0.0708 -0.2593  0.2167
 7264SOL    HW122691   3.807   6.770   1.815  3.1550 -1.1141 -0.7576
 7264SOL    HW222692   3.778   6.922   1.867 -1.3881 -1.3836 -2.0709
 7265SOL     OW22693   5.861   4.415   1.263 -0.6297  0.6132 -0.4240
 7265SOL    HW122694   5.837   4.328   1.220 -1.0831  0.7776 -0.5168
 7265SOL    HW222695   5.943   4.404   1.318 -1.1288 -0.0737  0.2083
 7266SOL     OW22696   4.646   2.702   1.503  0.1729 -0.0276 -0.0080
 7266SOL    HW122697   4.668   2.779   1.564 -2.4403  1.7778 -1.1454
 7266SOL    HW222698   4.720   2.689   1.438  1.7658 -0.1656  1.7352
 7267SOL     OW22699   4.218   2.289   2.705 -0.5129 -0.5054  0.3728
 7267SOL    HW122700   4.213   2.340   2.619  0.2122  0.4044  0.8552
 7267SOL    HW222701   4.218   2.191   2.686 -2.0648 -0.3494 -0.5694
 7268SOL     OW22702   0.759   0.260   5.250 -0.3611  0.1626 -0.4425
 7268SOL    HW122703   0.723   0.267   5.343  0.4168 -1.9808  0.0785
 7268SOL    HW222704   0.794   0.168   5.235  1.1169  0.9634 -2.2989
 7269SOL     OW22705   6.492   6.799   1.387  0.2214  0.5516  0.1340
 7269SOL    HW122706   6.512   6.701   1.387 -1.0547  0.2658 -0.8175
 7269SOL    HW222707   6.534   6.841   1.467  2.0250 -0.4942 -0.1935
 7270SOL     OW22708   1.475   5.609   3.713 -0.3092  0.7308  0.2648
 7270SOL    HW122709   1.410   5.674   3.753  1.9235  2.0743  1.9349
 7270SOL    HW222710   1.430   5.558   3.639 -3.3640  1.2080  1.6301
 7271SOL     OW22711   6.261   4.330   4.174 -0.0484  0.1072 -0.2793
 7271SOL    HW122712   6.251   4.405   4.109  0.3662 -0.5012 -1.0686
 7271SOL    HW222713   6.281   4.245   4.124  0.6992 -0.2978  0.6712
 7272SOL     OW22714   0.065   6.333   3.517 -0.0457  0.2853 -0.5818
 7272SOL    HW122715   0.044   6.267   3.588  2.4862 -0.8713 -0.8020
 7272SOL    HW222716   0.070   6.425   3.556 -1.2665  0.0579  0.1649
 7273SOL     OW22717   1.863   5.354   3.492 -0.2235  0.4834  0.5138
 7273SOL    HW122718   1.783   5.311   3.449  0.6928 -0.6862 -0.0942
 7273SOL    HW222719   1.933   5.368   3.422  0.3512  0.9002  1.1711
 7274SOL     OW22720   1.862   5.744   1.646  0.0859  0.0373  0.2618
 7274SOL    HW122721   1.833   5.650   1.625  1.1591 -1.0268  3.0126
 7274SOL    HW222722   1.789   5.792   1.694 -0.7303  0.9198 -1.7767
 7275SOL     OW22723   6.446   2.840   3.012 -0.2710 -0.1330  0.4306
 7275SOL    HW122724   6.470   2.840   3.109 -0.6191  0.2512  0.5143
 7275SOL    HW222725   6.356   2.799   3.000  0.2651 -1.2711  0.1461
 7276SOL     OW22726   1.622   5.602   1.462  0.5619  0.3667 -0.7806
 7276SOL    HW122727   1.686   5.563   1.529  0.9425 -1.4160 -2.1098
 7276SOL    HW222728   1.550   5.536   1.443 -1.3101  2.0474  0.0909
 7277SOL     OW22729   0.307   6.341   4.301 -0.3879  0.1098 -0.0955
 7277SOL    HW122730   0.283   6.437   4.310 -0.7568 -0.0326  0.4746
 7277SOL    HW222731   0.269   6.304   4.216 -1.7466  0.0275  0.5332
 7278SOL     OW22732   5.140   0.058   3.370  0.1603  0.4077  0.0654
 7278SOL    HW122733   5.167   0.040   3.464 -0.4859  1.1399  0.4024
 7278SOL    HW222734   5.086  -0.019   3.335 -0.4892  0.5915  0.6509
 7279SOL     OW22735   2.187   3.876   4.766 -0.0961  0.0613 -0.2124
 7279SOL    HW122736   2.202   3.940   4.690  1.5170 -0.3433 -0.2705
 7279SOL    HW222737   2.224   3.915   4.850 -0.4971 -0.1516  0.0656
 7280SOL     OW22738   3.686   4.955   2.790 -0.3236  0.0187 -0.2414
 7280SOL    HW122739   3.627   4.960   2.871  0.8064 -0.4096  0.6429
 7280SOL    HW222740   3.631   4.936   2.709 -1.3085 -1.1586  0.6748
 7281SOL     OW22741   4.413   3.948   6.203  0.3451 -0.1927  0.5504
 7281SOL    HW122742   4.414   3.999   6.118  1.2418 -1.0371  0.0282
 7281SOL    HW222743   4.506   3.942   6.240 -0.0905  0.5398  1.8307
 7282SOL     OW22744   3.436   0.430   3.483 -0.0811 -0.3590  0.9292
 7282SOL    HW122745   3.362   0.405   3.421 -0.2703  1.1805  0.4981
 7282SOL    HW222746   3.521   0.390   3.451 -0.5618 -1.4758  0.9798
 7283SOL     OW22747   2.892   1.624   1.822  0.7295 -0.0479 -0.4466
 7283SOL    HW122748   2.879   1.538   1.773  0.1040 -0.7228  0.8687
 7283SOL    HW222749   2.973   1.617   1.881 -0.1246 -0.2683  0.7378
 7284SOL     OW22750   1.494   0.202   4.620  0.0552  0.0399 -0.4078
 7284SOL    HW122751   1.422   0.192   4.551  0.7548 -0.3904 -1.0938
 7284SOL    HW222752   1.518   0.112   4.656 -0.2841  0.2632  0.3805
 7285SOL     OW22753   1.097   6.710   1.452 -0.0185 -0.0263  0.2306
 7285SOL    HW122754   1.164   6.707   1.527  2.0824  0.9817 -1.5093
 7285SOL    HW222755   1.089   6.803   1.417  0.3869 -0.7476 -1.9330
 7286SOL     OW22756   2.366   0.709   0.427 -0.3043  0.2946  0.7230
 7286SOL    HW122757   2.346   0.611   0.428 -0.9308  0.3647 -1.3219
 7286SOL    HW222758   2.453   0.725   0.473  0.3874 -1.3610  0.0791
 7287SOL     OW22759   4.974   1.569   6.380  0.1403 -0.5038 -0.0486
 7287SOL    HW122760   5.038   1.641   6.403 -0.4078  1.0937 -3.0300
 7287SOL    HW222761   5.001   1.526   6.294 -1.3866 -1.5893 -0.0394
 7288SOL     OW22762   1.535   4.142   3.133  0.2424  0.0882 -0.4728
 7288SOL    HW122763   1.556   4.144   3.035  0.6513  1.4905 -0.3909
 7288SOL    HW222764   1.560   4.230   3.174  0.1009 -0.4808  0.9050
 7289SOL     OW22765   6.973   6.274   2.783 -0.6460  0.0748  0.4626
 7289SOL    HW122766   7.026   6.358   2.771 -0.0424 -0.2779  0.6141
 7289SOL    HW222767   7.007   6.224   2.863 -1.6343  0.1618  0.9550
 7290SOL     OW22768   4.592   1.678   6.065  0.1640  0.3525  0.5800
 7290SOL    HW122769   4.589   1.595   6.120 -1.5094  0.6835  1.0539
 7290SOL    HW222770   4.609   1.655   5.969  1.3939 -0.3699  0.9553
 7291SOL     OW22771   2.374   1.803   0.021  0.4117  0.5183  0.6342
 7291SOL    HW122772   2.357   1.901   0.005 -1.6503  0.3806  1.7336
 7291SOL    HW222773   2.352   1.752  -0.062  0.4149  0.8708  0.4123
 7292SOL     OW22774   4.105   4.608   0.113 -0.8609  0.1724 -0.1903
 7292SOL    HW122775   4.027   4.635   0.057 -1.4735  0.0429  0.5770
 7292SOL    HW222776   4.093   4.643   0.206  0.3405  0.7461 -0.2378
 7293SOL     OW22777   2.421   1.507   2.888  0.0727 -0.1534 -0.4824
 7293SOL    HW122778   2.342   1.460   2.850  1.2770 -2.3314 -0.4260
 7293SOL    HW222779   2.421   1.497   2.988 -1.1752  2.5377 -0.1010
 7294SOL     OW22780   2.375   6.736   3.382  0.8348  0.2688  0.1169
 7294SOL    HW122781   2.286   6.725   3.426  0.3678  0.7085 -0.6917
 7294SOL    HW222782   2.403   6.832   3.385 -0.0999  0.6904 -2.1406
 7295SOL     OW22783   2.218   0.530   6.114 -0.0082 -0.0752  0.6402
 7295SOL    HW122784   2.294   0.595   6.121  0.1993 -0.3165  0.6630
 7295SOL    HW222785   2.204   0.485   6.202 -1.3829  1.2879  1.1516
 7296SOL     OW22786   1.179   4.465   1.804  0.4637  0.1333  0.0657
 7296SOL    HW122787   1.111   4.519   1.852 -0.2146  0.2417 -1.0048
 7296SOL    HW222788   1.157   4.367   1.813  0.8370  0.1002  0.7045
 7297SOL     OW22789   5.777   4.209   1.093 -0.3089 -0.6016  0.5857
 7297SOL    HW122790   5.755   4.131   1.034  2.4731 -0.3170 -0.9918
 7297SOL    HW222791   5.756   4.294   1.046  0.8135 -0.3859  0.4445
 7298SOL     OW22792   5.261   5.752   2.216  0.1502 -0.0384  0.1110
 7298SOL    HW122793   5.257   5.727   2.312 -2.5790 -1.2401 -0.2131
 7298SOL    HW222794   5.343   5.712   2.174 -0.6109 -2.8778  1.1219
 7299SOL     OW22795   5.959   5.925   4.984  0.5974 -0.2708  0.3327
 7299SOL    HW122796   6.042   5.899   4.935 -0.3234 -1.9160 -0.4533
 7299SOL    HW222797   5.889   5.955   4.920  0.1169 -0.2935  0.8306
 7300SOL     OW22798   5.189   1.476   3.605  0.0688 -0.1233 -1.0146
 7300SOL    HW122799   5.274   1.436   3.573  0.6180 -0.7237  1.0201
 7300SOL    HW222800   5.196   1.576   3.605  1.3496 -0.1732  0.4323
 7301SOL     OW22801   6.095   3.318   0.387 -0.0057  0.4178  0.1438
 7301SOL    HW122802   6.156   3.362   0.453  0.1906  1.3325 -0.6355
 7301SOL    HW222803   6.118   3.221   0.381  0.4169  0.4573  0.9102
 7302SOL     OW22804   2.586   1.919   5.544  0.0898 -0.3756  0.2485
 7302SOL    HW122805   2.668   1.965   5.578 -0.3726  0.9373 -0.3279
 7302SOL    HW222806   2.590   1.912   5.444 -1.2585  1.3807  0.0042
 7303SOL     OW22807   6.318   0.818   4.304  0.1346  0.2382 -0.8511
 7303SOL    HW122808   6.236   0.783   4.258  0.3099 -1.8981  0.3522
 7303SOL    HW222809   6.295   0.839   4.399  1.0128 -0.5248 -0.4645
 7304SOL     OW22810   2.149   1.720   1.094  0.4299 -0.4784 -0.4818
 7304SOL    HW122811   2.111   1.627   1.087 -0.0725 -0.2948 -0.2058
 7304SOL    HW222812   2.244   1.715   1.124  0.3355 -0.8916 -0.2520
 7305SOL     OW22813   5.224   3.380   0.630  0.1397  0.2363  0.3703
 7305SOL    HW122814   5.262   3.392   0.721 -1.2684 -0.5240  1.0985
 7305SOL    HW222815   5.151   3.312   0.633 -1.7485  2.0710 -0.7767
 7306SOL     OW22816   2.215   1.994   1.148 -0.5758  0.3769 -0.1897
 7306SOL    HW122817   2.184   1.911   1.101  0.6234 -0.1136 -0.1343
 7306SOL    HW222818   2.286   1.971   1.213 -0.3975  1.4267  0.0034
 7307SOL     OW22819   6.468   5.391   0.422 -0.0283  0.3139 -0.1052
 7307SOL    HW122820   6.457   5.470   0.482  1.4653 -0.8235  1.7980
 7307SOL    HW222821   6.438   5.414   0.329 -1.1037  2.5804  0.7377
 7308SOL     OW22822   6.662   4.302   3.483  0.0587  0.3971  0.2820
 7308SOL    HW122823   6.753   4.267   3.463 -0.3213 -0.4480 -0.0143
 7308SOL    HW222824   6.638   4.374   3.418  0.7573  1.0534  0.7472
 7309SOL     OW22825   4.858   2.434   1.563 -0.2037 -0.0474  0.0158
 7309SOL    HW122826   4.844   2.461   1.658  1.5429  0.0065  0.2930
 7309SOL    HW222827   4.913   2.503   1.516  0.1142 -0.7320 -0.6517
 7310SOL     OW22828   4.902   5.582   3.849  0.2504  0.0918  0.1433
 7310SOL    HW122829   4.844   5.634   3.786  1.1768 -0.0117 -0.8154
 7310SOL    HW222830   4.998   5.604   3.832  0.5550 -0.5082  1.0240
 7311SOL     OW22831   5.040   3.256   1.357 -0.5245  0.4697  0.3891
 7311SOL    HW122832   5.064   3.171   1.310  0.1976  1.0911 -0.4116
 7311SOL    HW222833   4.965   3.239   1.421 -1.6195 -0.4114 -1.0515
 7312SOL     OW22834   2.449   6.184   5.202  0.0407  0.1264  0.2518
 7312SOL    HW122835   2.527   6.218   5.254 -0.4947 -0.6761  1.6206
 7312SOL    HW222836   2.481   6.145   5.116  0.9375  1.5018 -0.0762
 7313SOL     OW22837   4.873   2.231   0.620 -0.4640  0.0533 -0.4928
 7313SOL    HW122838   4.896   2.326   0.599  0.8931 -0.3644 -1.0455
 7313SOL    HW222839   4.795   2.228   0.682 -1.3663  1.4932 -1.4758
 7314SOL     OW22840   5.320   1.985   6.823  0.3700  0.4123 -0.2604
 7314SOL    HW122841   5.348   2.037   6.743 -0.4798  1.4686  0.0904
 7314SOL    HW222842   5.290   2.048   6.895 -1.4565 -0.5524 -0.0977
 7315SOL     OW22843   4.567   0.039   6.375 -0.5123  0.4754 -0.0189
 7315SOL    HW122844   4.587   0.110   6.442 -0.3206 -0.7722  1.2871
 7315SOL    HW222845   4.476   0.053   6.337 -0.1027  1.9626 -0.5149
 7316SOL     OW22846   6.659   3.112   6.678  0.1728 -0.0539  1.2652
 7316SOL    HW122847   6.615   3.032   6.719 -1.5499  1.0678  1.7419
 7316SOL    HW222848   6.751   3.123   6.715 -0.1692 -0.8928  2.4131
 7317SOL     OW22849   2.341   2.501   0.161  0.1961 -0.1757  0.1717
 7317SOL    HW122850   2.399   2.479   0.240 -2.1500 -1.4192  1.6481
 7317SOL    HW222851   2.278   2.575   0.187  0.2842  0.3348 -1.0174
 7318SOL     OW22852   2.542   1.116   6.556 -0.4165  0.6034 -0.1059
 7318SOL    HW122853   2.493   1.031   6.574  1.9050 -0.7121  0.5039
 7318SOL    HW222854   2.491   1.193   6.594 -2.3969 -0.5468 -0.3298
 7319SOL     OW22855   5.679   2.645   5.486 -0.1534  0.0476 -0.1299
 7319SOL    HW122856   5.607   2.706   5.455 -1.2896 -0.2371  1.7710
 7319SOL    HW222857   5.700   2.579   5.414 -0.3061  1.4123 -1.4667
 7320SOL     OW22858   6.132   1.605   0.622  0.1709  0.2335  0.3228
 7320SOL    HW122859   6.039   1.595   0.656  0.7203  1.9581  2.6424
 7320SOL    HW222860   6.197   1.575   0.692  1.3976 -0.2671 -0.9655
 7321SOL     OW22861   1.558   2.133   4.576 -0.1532 -0.1102 -0.2415
 7321SOL    HW122862   1.617   2.080   4.636 -0.5234 -1.0130 -0.6528
 7321SOL    HW222863   1.586   2.229   4.578 -0.2614 -0.0917  1.4730
 7322SOL     OW22864   0.759   3.409   2.510  0.3137  0.2037  0.0752
 7322SOL    HW122865   0.687   3.435   2.446 -0.2754 -0.7222  0.3519
 7322SOL    HW222866   0.721   3.351   2.582  1.1157  0.6130  0.8575
 7323SOL     OW22867   6.452   4.060   5.316 -0.0887  0.1507  0.1223
 7323SOL    HW122868   6.428   4.156   5.318 -1.7350 -0.2424  0.7943
 7323SOL    HW222869   6.533   4.044   5.372  1.1870  1.3587 -1.3116
 7324SOL     OW22870   4.056   6.396   4.003 -0.7603  0.3782 -0.0373
 7324SOL    HW122871   3.979   6.434   4.056 -0.3160  0.0598  0.8627
 7324SOL    HW222872   4.045   6.297   3.996 -1.4181  0.5285 -1.5621
 7325SOL     OW22873   5.274   6.331   5.844 -0.5091 -0.0903  0.1858
 7325SOL    HW122874   5.247   6.314   5.939  0.7923 -0.5127  0.5053
 7325SOL    HW222875   5.323   6.252   5.808 -0.9629  0.0768 -0.8399
 7326SOL     OW22876   5.506   6.348   6.427 -0.2355 -0.3538 -0.3482
 7326SOL    HW122877   5.563   6.283   6.377 -0.1130 -0.6050  0.1160
 7326SOL    HW222878   5.452   6.299   6.495  1.4982  0.2510  1.5692
 7327SOL     OW22879   3.649   1.860   6.093  0.0319  0.5600 -0.3245
 7327SOL    HW122880   3.654   1.958   6.073  1.3800  0.6654  0.3795
 7327SOL    HW222881   3.656   1.808   6.008  0.5875  1.0675 -0.5937
 7328SOL     OW22882   5.479   3.461   4.906 -0.5389 -0.1270  0.2913
 7328SOL    HW122883   5.487   3.400   4.828 -0.9525  1.1181 -0.7622
 7328SOL    HW222884   5.409   3.427   4.968 -1.7473 -0.0347 -0.9696
 7329SOL     OW22885   4.192   0.734   1.304  0.6436 -0.5467 -0.0446
 7329SOL    HW122886   4.168   0.805   1.369  2.6221 -0.3251  0.5081
 7329SOL    HW222887   4.189   0.771   1.211 -2.3371 -0.9063 -0.1985
 7330SOL     OW22888   0.469   1.521   5.118  0.3094  0.3197  0.4056
 7330SOL    HW122889   0.553   1.480   5.155 -1.2298 -1.0864  2.5908
 7330SOL    HW222890   0.399   1.523   5.189 -2.2070 -0.4788 -1.8710
 7331SOL     OW22891   3.418   2.898   3.883  0.2317 -0.1340 -0.4876
 7331SOL    HW122892   3.467   2.879   3.797 -0.0560 -0.8112 -0.5101
 7331SOL    HW222893   3.326   2.931   3.862  0.9010  1.8680 -0.4554
 7332SOL     OW22894   3.968   5.963   2.827 -0.0104 -0.0052 -0.3282
 7332SOL    HW122895   4.056   5.966   2.876  0.0277 -0.3209 -0.3759
 7332SOL    HW222896   3.949   5.869   2.798  0.4708  0.3293 -1.8382
 7333SOL     OW22897   3.137   0.288   0.685  0.0845 -0.4943 -0.3964
 7333SOL    HW122898   3.089   0.225   0.625  0.8010 -1.1902 -0.2526
 7333SOL    HW222899   3.236   0.271   0.681  0.3954  1.1854 -1.0188
 7334SOL     OW22900   0.586   4.276   5.658 -0.0745  0.2550  0.0495
 7334SOL    HW122901   0.686   4.268   5.659 -0.1697 -1.2114  0.1482
 7334SOL    HW222902   0.551   4.276   5.751 -0.1297  1.6285  0.0454
 7335SOL     OW22903   2.468   0.222   0.667  0.3109  0.6271 -0.2839
 7335SOL    HW122904   2.477   0.208   0.766  0.7999 -0.3186 -0.4448
 7335SOL    HW222905   2.407   0.153   0.629  1.1954  0.1118 -0.8238
 7336SOL     OW22906   2.645   0.275   1.342  0.1703  0.0595 -0.4714
 7336SOL    HW122907   2.680   0.205   1.403  1.3282 -0.3364 -1.5274
 7336SOL    HW222908   2.565   0.318   1.382  0.8527 -0.2172  1.2755
 7337SOL     OW22909   5.615   2.636   1.119 -0.1116 -0.2691 -0.2840
 7337SOL    HW122910   5.583   2.567   1.054  1.1664 -1.2616  0.1000
 7337SOL    HW222911   5.691   2.687   1.079 -0.3629  0.1957 -0.1684
 7338SOL     OW22912   2.629   6.507   0.713  0.0064 -0.2085  0.0785
 7338SOL    HW122913   2.544   6.504   0.765  0.7472 -2.1824  1.2569
 7338SOL    HW222914   2.705   6.526   0.775  0.6922 -0.6567 -0.6110
 7339SOL     OW22915   5.484   0.373   0.218  0.3354  0.0880  0.1247
 7339SOL    HW122916   5.421   0.450   0.224  0.6926  0.4703 -0.8492
 7339SOL    HW222917   5.478   0.318   0.302  1.7826  2.5033  1.9307
 7340SOL     OW22918   1.678   3.138   5.072 -0.0260  0.3588 -0.4951
 7340SOL    HW122919   1.666   3.120   4.974  0.1327 -0.2539 -0.4027
 7340SOL    HW222920   1.776   3.139   5.094 -0.0929 -1.0018 -0.0709
 7341SOL     OW22921   1.339   4.762   1.331 -0.2060 -0.1139  0.4256
 7341SOL    HW122922   1.295   4.683   1.373  1.4005 -0.3892  1.6860
 7341SOL    HW222923   1.438   4.746   1.324  0.0999  1.5927  0.3014
 7342SOL     OW22924   0.289   6.599   3.692  0.0437 -0.7809 -0.1271
 7342SOL    HW122925   0.283   6.529   3.621 -1.0838  1.4689 -2.4127
 7342SOL    HW222926   0.379   6.644   3.687 -0.7231  0.7463 -1.6754
 7343SOL     OW22927   0.263   1.902   1.940 -0.0927 -0.3513  0.3491
 7343SOL    HW122928   0.178   1.912   1.992 -0.0028  0.4576  0.3643
 7343SOL    HW222929   0.297   1.808   1.948  0.2232 -0.1195  2.2318
 7344SOL     OW22930   0.854   0.828   4.551  0.0354  0.3349  0.2225
 7344SOL    HW122931   0.926   0.895   4.562  1.9154 -1.3738 -0.9306
 7344SOL    HW222932   0.797   0.851   4.472 -0.5030  1.5081  0.9351
 7345SOL     OW22933   6.399   6.246   3.987  0.0998 -0.5260  0.7678
 7345SOL    HW122934   6.417   6.211   3.895  0.0266 -1.4135  1.0773
 7345SOL    HW222935   6.446   6.333   4.000  1.0036 -0.9220  0.2591
 7346SOL     OW22936   6.371   2.792   0.857  0.3758 -0.2208 -0.1368
 7346SOL    HW122937   6.341   2.871   0.910  1.9799  0.2539  0.1139
 7346SOL    HW222938   6.302   2.770   0.788  0.5870  2.3903 -1.2837
 7347SOL     OW22939   3.492   5.050   0.949  0.4107  0.4746  0.3925
 7347SOL    HW122940   3.436   5.057   0.867 -0.0610  0.2318  0.6923
 7347SOL    HW222941   3.589   5.053   0.923  0.3193 -1.4768 -0.3704
 7348SOL     OW22942   5.045   5.638   2.573 -0.3971  0.1928  0.2621
 7348SOL    HW122943   5.139   5.651   2.541 -0.3190  0.9638  0.8048
 7348SOL    HW222944   4.997   5.577   2.509  0.2985  0.2398 -0.3206
 7349SOL     OW22945   5.215   1.241   5.669  0.3477 -0.2757  0.5618
 7349SOL    HW122946   5.163   1.192   5.738 -0.1780  0.7653  0.9191
 7349SOL    HW222947   5.257   1.322   5.711 -2.1040  1.8602 -0.8217
 7350SOL     OW22948   0.403   5.380   3.889 -0.2616  0.5469  0.2253
 7350SOL    HW122949   0.470   5.437   3.841 -1.3150  1.7438  0.1226
 7350SOL    HW222950   0.311   5.418   3.877 -1.1457 -1.6768 -0.5762
 7351SOL     OW22951   3.734   3.700   5.440  0.2538 -0.1913 -0.7114
 7351SOL    HW122952   3.813   3.638   5.437  0.7272  0.3092  0.7798
 7351SOL    HW222953   3.650   3.646   5.439  0.6488 -1.1059  2.5636
 7352SOL     OW22954   5.530   5.132   4.183 -0.5343 -0.3072 -0.1433
 7352SOL    HW122955   5.482   5.046   4.202 -0.3776 -0.3184  0.2263
 7352SOL    HW222956   5.560   5.134   4.088  1.4604 -1.6801  0.3864
 7353SOL     OW22957   5.527   5.492   0.164 -0.1347  1.0528  0.0529
 7353SOL    HW122958   5.606   5.506   0.104  0.4056  1.0534  0.7635
 7353SOL    HW222959   5.447   5.469   0.108  0.6522 -0.2226 -0.5785
 7354SOL     OW22960   1.724   1.171   3.916 -0.3708 -0.2149 -0.6160
 7354SOL    HW122961   1.815   1.134   3.897 -0.8232 -2.5188  1.2895
 7354SOL    HW222962   1.656   1.100   3.899 -2.0413  1.8505 -3.2777
 7355SOL     OW22963   1.894   2.034   5.836  0.6142  0.1829  0.3740
 7355SOL    HW122964   1.896   2.118   5.890  0.4639  0.4172  0.0215
 7355SOL    HW222965   1.828   1.970   5.876 -0.8547  1.0550 -0.5368
 7356SOL     OW22966   5.078   1.746   4.824 -0.3613 -0.3736 -0.0213
 7356SOL    HW122967   5.065   1.647   4.826 -0.3564 -0.3721  0.1001
 7356SOL    HW222968   5.140   1.770   4.749  0.8444 -0.6096  0.8590
 7357SOL     OW22969   6.020   5.487   3.657 -0.2103  0.4720  0.0014
 7357SOL    HW122970   6.061   5.551   3.592  0.5189 -0.6084 -0.6278
 7357SOL    HW222971   6.090   5.453   3.719  0.2093 -2.2933 -1.8221
 7358SOL     OW22972   2.164   2.841   1.935  0.1365  0.1526 -0.3216
 7358SOL    HW122973   2.227   2.775   1.974 -0.0947  1.2035  1.9762
 7358SOL    HW222974   2.079   2.795   1.908  0.7866 -0.7977 -0.7813
 7359SOL     OW22975   0.061   3.166   5.152 -0.0498  0.2549  0.0571
 7359SOL    HW122976   0.133   3.097   5.151  0.6056  0.9169 -0.5798
 7359SOL    HW222977   0.033   3.185   5.246  0.7897  0.1642  0.3308
 7360SOL     OW22978   0.414   1.673   5.703  0.1422  0.1759  0.3210
 7360SOL    HW122979   0.490   1.616   5.735 -1.7193 -1.8212  1.4653
 7360SOL    HW222980   0.419   1.684   5.604  1.1505 -1.1048  0.2085
 7361SOL     OW22981   4.365   3.267   0.309 -0.1114  0.3140  0.6571
 7361SOL    HW122982   4.426   3.204   0.357 -1.5277 -2.6681 -1.2020
 7361SOL    HW222983   4.271   3.236   0.320 -0.9677  2.6481  0.3429
 7362SOL     OW22984   0.921   1.340   3.171  0.0862  0.0528  0.6850
 7362SOL    HW122985   0.977   1.274   3.121 -0.8120  0.3308 -0.7470
 7362SOL    HW222986   0.967   1.365   3.256  1.9017 -0.0799 -0.2124
 7363SOL     OW22987   1.272   4.765   3.054  0.0007 -0.1373  0.1452
 7363SOL    HW122988   1.280   4.676   3.099  1.0260 -0.0361  0.1994
 7363SOL    HW222989   1.358   4.786   3.008 -0.2231  0.8382  0.1574
 7364SOL     OW22990   3.155   3.194   2.389  0.4350 -0.2421 -0.0030
 7364SOL    HW122991   3.100   3.239   2.318 -0.7560  0.3839  1.2648
 7364SOL    HW222992   3.183   3.104   2.357 -1.4691 -0.6525 -0.6548
 7365SOL     OW22993   0.223   3.005   6.305 -0.2883 -0.5651  0.0090
 7365SOL    HW122994   0.150   2.948   6.343  1.6115 -2.2311  1.3797
 7365SOL    HW222995   0.277   2.951   6.240  0.2108  0.3868 -0.3898
 7366SOL     OW22996   2.048   3.352   4.947  0.0984 -0.3482 -0.1103
 7366SOL    HW122997   2.102   3.272   4.920 -0.5955 -1.0826  0.6311
 7366SOL    HW222998   2.078   3.431   4.895 -0.6032 -1.5153 -2.4197
 7367SOL     OW22999   3.051   3.086   0.300  0.0663 -0.2781  0.3547
 7367SOL    HW123000   3.130   3.026   0.284  0.2520  0.3043 -1.0793
 7367SOL    HW223001   3.073   3.151   0.372  1.1780  0.3244 -0.4965
 7368SOL     OW23002   4.224   0.865   5.242 -0.9770 -0.0355 -0.3987
 7368SOL    HW123003   4.169   0.845   5.161 -0.6870 -2.1714 -0.1184
 7368SOL    HW223004   4.319   0.878   5.215 -1.1148  0.7612 -0.5416
 7369SOL     OW23005   3.871   4.453   0.121 -0.0192  0.1087 -1.0995
 7369SOL    HW123006   3.942   4.426   0.185 -1.3143 -3.1349 -0.8428
 7369SOL    HW223007   3.841   4.546   0.141  0.7233 -0.2196  1.9680
 7370SOL     OW23008   5.398   5.975   4.527  0.2655  0.3319  0.2922
 7370SOL    HW123009   5.391   5.877   4.547  0.9044  0.3640  0.7028
 7370SOL    HW223010   5.479   5.991   4.470 -0.5517  0.4656 -0.8584
 7371SOL     OW23011   1.489   2.871   3.271 -0.4235 -0.1818 -0.2386
 7371SOL    HW123012   1.482   2.795   3.206 -0.1823 -0.5451  0.1599
 7371SOL    HW223013   1.449   2.845   3.359 -0.8443  0.3473 -0.2647
 7372SOL     OW23014   1.838   5.585   6.294  0.3485 -0.0855  0.1174
 7372SOL    HW123015   1.768   5.655   6.303  2.0040  1.6944 -0.1963
 7372SOL    HW223016   1.798   5.495   6.311 -2.3044  0.6845 -1.4306
 7373SOL     OW23017   1.755   2.014   5.108 -0.2577 -0.0622  0.6150
 7373SOL    HW123018   1.692   2.064   5.168  0.1028  1.3217 -0.1239
 7373SOL    HW223019   1.718   1.923   5.089 -2.0118  0.6890  0.2598
 7374SOL     OW23020   6.955   4.931   2.306 -0.9297  0.6865 -0.5468
 7374SOL    HW123021   7.041   4.884   2.288 -2.0027 -1.0677 -1.3790
 7374SOL    HW223022   6.928   4.915   2.402 -0.2849  1.3406 -0.2514
 7375SOL     OW23023   5.162   4.169   1.985 -0.2816  0.1846 -0.5208
 7375SOL    HW123024   5.072   4.209   2.006 -1.3842 -1.8685 -1.1001
 7375SOL    HW223025   5.165   4.143   1.889  0.8555 -0.0113 -0.4413
 7376SOL     OW23026   2.171   0.619   3.424  0.2768  0.0556  0.3621
 7376SOL    HW123027   2.094   0.592   3.366 -0.5790 -0.7601  1.8405
 7376SOL    HW223028   2.185   0.718   3.415 -0.7882  0.1848 -0.1040
 7377SOL     OW23029   6.290   1.906   3.677 -0.4307 -0.2897  0.6760
 7377SOL    HW123030   6.364   1.917   3.744  0.4544 -2.2806  0.1001
 7377SOL    HW223031   6.320   1.941   3.589 -0.8334  0.4643  0.8325
 7378SOL     OW23032   3.744   2.957   3.854  0.0134  0.2871  0.3044
 7378SOL    HW123033   3.694   2.904   3.785  0.2027  0.0334  0.3602
 7378SOL    HW223034   3.716   2.927   3.945  0.1334  0.2703  0.3359
 7379SOL     OW23035   2.773   4.041   1.099 -0.0600  0.0846 -0.8497
 7379SOL    HW123036   2.696   4.097   1.068 -0.8778  0.6463  1.9138
 7379SOL    HW223037   2.749   3.997   1.186  1.8183 -1.8598 -1.2546
 7380SOL     OW23038   1.941   1.868   1.012  0.3021 -0.2300  0.7828
 7380SOL    HW123039   1.950   1.884   0.914 -1.7757 -0.6406  0.4727
 7380SOL    HW223040   2.014   1.806   1.043  0.0121 -1.4666 -0.8496
 7381SOL     OW23041   4.550   1.220   1.378 -0.1797  0.0480  0.2399
 7381SOL    HW123042   4.577   1.311   1.345 -0.3102  0.3870  1.0488
 7381SOL    HW223043   4.618   1.187   1.443 -0.7780  0.1377  0.9310
 7382SOL     OW23044   3.329   4.416   5.339 -0.3000 -0.0186  0.7374
 7382SOL    HW123045   3.238   4.457   5.351 -0.5738 -0.5128  0.3822
 7382SOL    HW223046   3.395   4.467   5.394 -0.6299  0.9030  0.3150
 7383SOL     OW23047   2.187   3.252   1.737 -0.1388 -0.1000 -0.3160
 7383SOL    HW123048   2.219   3.303   1.817  0.5939 -0.9799 -0.0303
 7383SOL    HW223049   2.262   3.242   1.672 -0.4797 -0.1653 -0.7004
 7384SOL     OW23050   5.760   3.083   1.367 -0.6717  0.0659 -0.8045
 7384SOL    HW123051   5.737   3.112   1.460  0.0030 -1.5215 -0.0915
 7384SOL    HW223052   5.691   3.018   1.334  0.5348 -1.5842 -0.2439
 7385SOL     OW23053   5.392   1.418   3.395  0.0007  0.5986 -0.1672
 7385SOL    HW123054   5.409   1.407   3.297  1.4582  0.1236  0.1142
 7385SOL    HW223055   5.480   1.428   3.443 -0.4883 -1.7298  1.3835
 7386SOL     OW23056   2.883   2.126   4.672 -0.2731  0.4904 -0.0279
 7386SOL    HW123057   2.829   2.104   4.754  0.7958  0.7768  0.7849
 7386SOL    HW223058   2.979   2.105   4.690  0.1778  1.8418 -0.7326
 7387SOL     OW23059   6.279   1.554   4.583  0.0895  0.1942 -0.2870
 7387SOL    HW123060   6.338   1.521   4.510 -0.9691  0.7626 -1.4291
 7387SOL    HW223061   6.232   1.637   4.554 -1.2590 -0.2290  0.5758
 7388SOL     OW23062   0.857   2.180   0.473  0.3881  0.0679  0.1053
 7388SOL    HW123063   0.838   2.213   0.566 -1.3699 -0.4888 -0.0072
 7388SOL    HW223064   0.833   2.083   0.468 -0.6277  0.3608 -1.2000
 7389SOL     OW23065   6.667   1.928   1.013 -0.2048  0.3911 -0.5184
 7389SOL    HW123066   6.673   1.837   1.056 -1.2187  0.0222 -1.1077
 7389SOL    HW223067   6.609   1.987   1.069 -1.5935 -0.1151 -1.3766
 7390SOL     OW23068   3.709   6.280   6.833  0.0773 -0.2455 -0.0616
 7390SOL    HW123069   3.671   6.191   6.860  0.3345 -0.2182  0.3888
 7390SOL    HW223070   3.702   6.344   6.909  2.2892 -0.6275  0.5102
 7391SOL     OW23071   1.013   4.205   1.073 -0.6009 -0.2536 -0.4336
 7391SOL    HW123072   1.023   4.105   1.071 -1.0624 -0.3789  1.6662
 7391SOL    HW223073   0.936   4.230   1.131  0.8222  1.3873  0.8607
 7392SOL     OW23074   3.007   3.888   6.233  0.3476 -0.9072  0.3734
 7392SOL    HW123075   3.001   3.881   6.333 -0.4091  0.0340  0.4097
 7392SOL    HW223076   2.990   3.799   6.192 -0.1208 -1.1455  1.0631
 7393SOL     OW23077   1.952   2.313   4.699  0.3890  0.2513 -0.4452
 7393SOL    HW123078   2.018   2.257   4.748  0.2980  1.4831  1.1838
 7393SOL    HW223079   1.909   2.378   4.762 -0.8296  0.9327 -1.8821
 7394SOL     OW23080   5.098   2.000   2.196 -0.6289 -0.5414  0.0875
 7394SOL    HW123081   5.085   1.901   2.199  0.5139 -0.6868  2.0326
 7394SOL    HW223082   5.020   2.043   2.150 -1.4256 -2.2874 -0.2688
 7395SOL     OW23083   5.188   2.509   4.148 -0.2625  0.3371  0.3726
 7395SOL    HW123084   5.241   2.425   4.153 -0.7434  0.0343  0.3986
 7395SOL    HW223085   5.231   2.571   4.082  0.0236  0.0279  0.2640
 7396SOL     OW23086   0.373   3.618   0.549  0.2875  0.5489 -0.0550
 7396SOL    HW123087   0.360   3.563   0.632 -0.6105 -2.0106 -1.7409
 7396SOL    HW223088   0.366   3.558   0.469  0.1678  3.0688 -2.0441
 7397SOL     OW23089   4.005   6.117   0.088  0.4104 -0.3357  0.3935
 7397SOL    HW123090   3.934   6.068   0.138 -1.3160  1.9152  0.3248
 7397SOL    HW223091   4.092   6.068   0.095 -0.4711 -1.6860  2.9353
 7398SOL     OW23092   6.896   0.795   4.447  0.3089  0.1407  0.2563
 7398SOL    HW123093   6.878   0.874   4.390 -0.2993 -0.0981  0.1121
 7398SOL    HW223094   6.978   0.811   4.501  2.1027 -0.3906 -2.1182
 7399SOL     OW23095   2.548   6.032   3.854  0.0718 -0.2185  0.5752
 7399SOL    HW123096   2.548   6.129   3.877  2.2154 -0.3882  1.4900
 7399SOL    HW223097   2.511   5.979   3.930  2.7854 -0.4005  1.8577
 7400SOL     OW23098   3.503   3.663   3.095 -0.3913  0.1125  0.0808
 7400SOL    HW123099   3.429   3.669   3.028  0.2147 -1.8967 -0.8408
 7400SOL    HW223100   3.589   3.642   3.048  0.5694  1.2253  1.2552
 7401SOL     OW23101   0.190   0.644   3.104 -0.6687  0.1522  0.3355
 7401SOL    HW123102   0.228   0.681   3.019  0.9214 -1.2393  0.3879
 7401SOL    HW223103   0.265   0.620   3.166 -1.7227 -0.7676  1.2944
 7402SOL     OW23104   0.507   2.300   0.570 -0.1962  0.2951  0.0700
 7402SOL    HW123105   0.419   2.347   0.581  0.3732  1.3015  0.5071
 7402SOL    HW223106   0.509   2.219   0.627 -0.3310  1.0424  1.1700
 7403SOL     OW23107   2.204   1.372   5.084  0.3132 -0.1693  0.0164
 7403SOL    HW123108   2.178   1.457   5.130 -0.0218  0.5954 -1.5179
 7403SOL    HW223109   2.304   1.366   5.080  0.3412  0.0663  0.3074
 7404SOL     OW23110   4.527   0.220   1.838  0.1216 -0.2567 -0.3849
 7404SOL    HW123111   4.566   0.182   1.921  1.6992  2.3499  0.1925
 7404SOL    HW223112   4.432   0.247   1.855  0.6088  0.7971  0.8146
 7405SOL     OW23113   6.342   3.432   0.860 -0.2642  0.1191  0.0258
 7405SOL    HW123114   6.301   3.517   0.895  0.2778 -0.3601  1.9697
 7405SOL    HW223115   6.270   3.365   0.844 -0.4147 -0.4551  2.6660
 7406SOL     OW23116   2.251   4.459   4.869 -0.1125  0.7572 -0.1746
 7406SOL    HW123117   2.256   4.543   4.922  2.7946  1.1618 -0.9074
 7406SOL    HW223118   2.232   4.382   4.929  1.1627  1.4580  1.1876
 7407SOL     OW23119   2.454   2.291   3.431 -0.0418 -0.2957 -0.0905
 7407SOL    HW123120   2.378   2.269   3.493 -1.7134  2.5602 -0.9333
 7407SOL    HW223121   2.513   2.359   3.474 -1.3766  1.9350 -1.5646
 7408SOL     OW23122   1.654   4.246   0.752  0.4365  0.2051 -0.4920
 7408SOL    HW123123   1.606   4.332   0.769 -0.1185 -0.3269  0.7562
 7408SOL    HW223124   1.591   4.170   0.765  1.2860 -0.4523 -0.1827
 7409SOL     OW23125   5.761   0.263   1.766 -0.3129  0.0334 -0.1282
 7409SOL    HW123126   5.709   0.264   1.681 -1.1126  0.1750  0.3487
 7409SOL    HW223127   5.733   0.340   1.824 -0.0217 -0.2477  0.4016
 7410SOL     OW23128   3.989   5.905   1.218 -0.6106 -0.1784 -0.2072
 7410SOL    HW123129   4.005   5.931   1.123  0.7767 -1.6004 -0.4052
 7410SOL    HW223130   4.076   5.879   1.260 -1.2048  0.4108  1.4647
 7411SOL     OW23131   1.092   6.497   4.715 -0.0567 -0.2512 -0.2807
 7411SOL    HW123132   1.012   6.444   4.744 -0.5375  0.9808  0.7103
 7411SOL    HW223133   1.172   6.465   4.766 -0.3003 -0.1771  0.1547
 7412SOL     OW23134   0.320   3.961   0.820 -0.1653 -0.2575  0.0441
 7412SOL    HW123135   0.254   4.002   0.757  1.4739  0.8315 -1.0249
 7412SOL    HW223136   0.370   4.033   0.867 -0.3364 -1.0724  1.5415
 7413SOL     OW23137   0.221   4.407   2.062 -0.1295 -0.1328 -0.6457
 7413SOL    HW123138   0.187   4.316   2.041  0.0045 -1.0723  2.6870
 7413SOL    HW223139   0.313   4.418   2.024  0.5112 -2.0256  0.2320
 7414SOL     OW23140   3.344   4.990   3.749  0.1726 -0.3648 -0.3662
 7414SOL    HW123141   3.316   4.983   3.845  3.8570 -1.3050  0.8135
 7414SOL    HW223142   3.332   5.084   3.718  0.3384  0.3588  1.5703
 7415SOL     OW23143   6.030   4.103   0.369  0.0739  0.4260 -0.6239
 7415SOL    HW123144   5.950   4.140   0.415  1.0359  0.9801  0.6693
 7415SOL    HW223145   6.017   4.108   0.270 -1.4343  0.5763 -0.4405
 7416SOL     OW23146   6.791   4.231   0.993  0.5159 -0.2941  0.3460
 7416SOL    HW123147   6.761   4.140   1.022  0.7548 -0.6605 -0.5157
 7416SOL    HW223148   6.824   4.282   1.072  3.9136 -2.2924  0.3840
 7417SOL     OW23149   5.841   1.042   4.439  0.2992 -0.3050  0.4327
 7417SOL    HW123150   5.807   1.122   4.390  0.3483 -0.3828  0.2730
 7417SOL    HW223151   5.832   0.961   4.381 -1.4286 -0.7343  1.2131
 7418SOL     OW23152   3.888   4.922   0.519  0.0118 -0.2826 -0.8430
 7418SOL    HW123153   3.967   4.972   0.483  1.4098 -0.5484  1.6235
 7418SOL    HW223154   3.820   4.987   0.552  1.5215  0.1306  1.7253
 7419SOL     OW23155   6.625   2.835   0.770  0.2442  0.8102  0.3359
 7419SOL    HW123156   6.654   2.916   0.720 -0.5235  3.5274  3.8634
 7419SOL    HW223157   6.529   2.846   0.798  0.4970 -0.7091  1.9510
 7420SOL     OW23158   0.606   2.286   2.566  0.2463 -0.4500 -0.1816
 7420SOL    HW123159   0.646   2.330   2.647 -0.3704  1.7188 -1.0012
 7420SOL    HW223160   0.576   2.193   2.591  0.6000 -0.0670  1.9080
 7421SOL     OW23161   2.191   3.854   0.510 -0.7899  0.3249 -0.0499
 7421SOL    HW123162   2.120   3.794   0.473 -1.0693  1.3957 -1.3402
 7421SOL    HW223163   2.148   3.922   0.571 -0.3531 -1.3277  2.2352
 7422SOL     OW23164   1.780   0.802   4.018 -0.3205 -0.2532 -0.1226
 7422SOL    HW123165   1.694   0.827   3.974 -1.7330 -1.5049  1.7828
 7422SOL    HW223166   1.856   0.847   3.971 -1.8699 -0.0432 -2.6065
 7423SOL     OW23167   4.934   6.054   0.284 -0.6707 -0.1869 -0.1488
 7423SOL    HW123168   4.935   6.128   0.217 -0.8693 -0.3523 -0.3377
 7423SOL    HW223169   4.841   6.018   0.291 -0.5169 -0.6064 -0.2679
 7424SOL     OW23170   6.055   1.494   0.319  0.2529 -0.3783 -0.3731
 7424SOL    HW123171   6.115   1.459   0.390 -1.2887  0.5815  1.4994
 7424SOL    HW223172   5.960   1.489   0.350 -0.2861  2.6709 -1.1524
 7425SOL     OW23173   0.782   6.414   6.261 -0.1527 -0.0490  0.4208
 7425SOL    HW123174   0.707   6.349   6.274 -1.0006  0.5589 -1.2080
 7425SOL    HW223175   0.763   6.472   6.181  1.6708  0.6587  0.4568
 7426SOL     OW23176   4.224   2.153   1.528  0.0027  0.1290 -0.2507
 7426SOL    HW123177   4.210   2.248   1.557 -0.7937 -0.0990  0.1396
 7426SOL    HW223178   4.267   2.152   1.438 -0.4502  0.8652 -0.4845
 7427SOL     OW23179   1.027   5.111   1.372 -0.9270  0.4239 -0.3831
 7427SOL    HW123180   0.966   5.165   1.429 -2.2847 -0.8084 -0.6032
 7427SOL    HW223181   1.022   5.143   1.277  0.5515  1.8023 -0.0390
 7428SOL     OW23182   5.069   4.625   3.668  0.1033  0.0185 -0.3554
 7428SOL    HW123183   5.143   4.616   3.735  1.2420 -1.0173 -1.6934
 7428SOL    HW223184   5.063   4.719   3.636  1.1933  0.0077 -0.6070
 7429SOL     OW23185   1.434   0.897   2.614  0.2914 -0.2502  0.0308
 7429SOL    HW123186   1.419   0.862   2.706  0.0787 -1.0893 -0.3111
 7429SOL    HW223187   1.525   0.868   2.582  0.0510 -0.6431 -0.3142
 7430SOL     OW23188   0.718   2.867   1.104 -0.2404 -1.0575  0.1693
 7430SOL    HW123189   0.659   2.809   1.159 -0.0892 -1.0963  0.2929
 7430SOL    HW223190   0.705   2.963   1.130  0.7048 -1.1690  1.1310
 7431SOL     OW23191   1.703   3.747   3.512 -0.1524 -0.2330 -0.2853
 7431SOL    HW123192   1.699   3.819   3.442 -3.6028 -0.2401 -0.2364
 7431SOL    HW223193   1.775   3.769   3.578 -0.1921  2.4858 -1.0343
 7432SOL     OW23194   0.271   5.218   0.579 -0.0392  0.0824  0.5676
 7432SOL    HW123195   0.192   5.275   0.555 -0.0263  0.9519  2.4096
 7432SOL    HW223196   0.355   5.272   0.566  0.1327 -0.2450  0.3089
 7433SOL     OW23197   3.659   6.347   6.566  0.6185  0.2544  0.1439
 7433SOL    HW123198   3.697   6.297   6.643  0.7480  0.4919  0.2340
 7433SOL    HW223199   3.669   6.292   6.483  0.0894 -0.1850  0.3636
 7434SOL     OW23200   6.879   4.735   5.669 -0.3031  0.2600  0.0531
 7434SOL    HW123201   6.861   4.711   5.573  1.3835 -0.3081 -0.1618
 7434SOL    HW223202   6.971   4.705   5.694 -0.0827  1.8795  1.3727
 7435SOL     OW23203   5.482   5.963   3.316 -0.1532  0.3202 -0.1553
 7435SOL    HW123204   5.453   5.926   3.405 -1.3307 -1.2649 -1.1576
 7435SOL    HW223205   5.551   6.034   3.331  0.7015 -0.8592  1.9742
 7436SOL     OW23206   4.310   0.997   4.150  0.1945 -1.0038  0.3671
 7436SOL    HW123207   4.376   0.929   4.117 -0.1496 -1.4053  0.4932
 7436SOL    HW223208   4.288   0.978   4.246  0.5213 -0.3719  0.5685
 7437SOL     OW23209   2.274   2.321   5.151 -0.1355 -0.6986 -0.5601
 7437SOL    HW123210   2.352   2.383   5.148 -0.5720 -0.1588 -0.9248
 7437SOL    HW223211   2.210   2.344   5.078 -1.6141  0.2022  0.9432
 7438SOL     OW23212   4.733   0.606   5.785 -0.1049 -0.5363  0.2257
 7438SOL    HW123213   4.636   0.583   5.787 -0.0434 -0.7685  0.5569
 7438SOL    HW223214   4.750   0.674   5.714 -0.4656 -0.6969 -0.0140
 7439SOL     OW23215   1.799   4.394   0.146 -0.0420  1.1614  0.0383
 7439SOL    HW123216   1.894   4.406   0.118 -0.5573  1.9520 -1.5050
 7439SOL    HW223217   1.776   4.297   0.146  0.6223  1.0027 -0.1060
 7440SOL     OW23218   0.863   2.294   0.230  0.1564  0.1804 -0.0300
 7440SOL    HW123219   0.864   2.265   0.325 -2.5105  0.9269  0.3165
 7440SOL    HW223220   0.906   2.384   0.222  4.5371 -1.6972 -0.4112
 7441SOL     OW23221   6.189   6.997   2.498  0.1689  0.3616 -0.4954
 7441SOL    HW123222   6.101   6.949   2.511  1.0695 -1.0234  0.9751
 7441SOL    HW223223   6.180   7.064   2.424 -2.2168  0.5115 -0.1689
 7442SOL     OW23224   0.977   4.642   0.352 -0.8948  0.6230 -0.5897
 7442SOL    HW123225   1.028   4.705   0.294 -0.0739  1.1867  0.7010
 7442SOL    HW223226   1.005   4.654   0.447 -2.9481  0.4421  0.0768
 7443SOL     OW23227   3.268   3.426   5.672  0.1827 -0.0186  0.1214
 7443SOL    HW123228   3.281   3.373   5.756 -2.2620  0.0922  0.6366
 7443SOL    HW223229   3.216   3.371   5.606 -1.6939  1.3840  0.3581
 7444SOL     OW23230   4.623   3.863   5.819  0.0066 -0.5143 -0.1455
 7444SOL    HW123231   4.616   3.943   5.878 -0.1598 -0.1436 -0.6658
 7444SOL    HW223232   4.719   3.836   5.812 -0.0317 -0.9504  0.7974
 7445SOL     OW23233   0.613   3.000   0.399  0.8228  0.3827  0.0059
 7445SOL    HW123234   0.647   3.018   0.491 -0.2471  0.4449  0.4046
 7445SOL    HW223235   0.657   2.918   0.363  0.2873 -0.4238  1.1121
 7446SOL     OW23236   0.751   5.138   2.325  0.2167  0.2034 -0.0260
 7446SOL    HW123237   0.707   5.054   2.357 -0.8820  0.3434 -1.0793
 7446SOL    HW223238   0.806   5.177   2.399 -0.8645 -0.3637  1.1207
 7447SOL     OW23239   0.271   3.734   6.658  0.6145 -0.2977  0.3578
 7447SOL    HW123240   0.189   3.782   6.628  0.2312 -0.9298  0.3757
 7447SOL    HW223241   0.317   3.787   6.729  1.1832  0.9222 -0.8684
 7448SOL     OW23242   3.171   6.096   3.564  0.8554 -0.7040 -0.1236
 7448SOL    HW123243   3.077   6.129   3.550  0.5016 -0.9652  1.4060
 7448SOL    HW223244   3.169   6.003   3.599  1.6140 -0.3250  1.0112
 7449SOL     OW23245   4.553   2.447   2.352 -0.4829 -0.1096  0.0603
 7449SOL    HW123246   4.581   2.527   2.300  0.0756  0.0535  0.6039
 7449SOL    HW223247   4.610   2.369   2.328  0.7219  0.3073  1.4171
 7450SOL     OW23248   5.621   0.903   6.297 -0.3868 -0.2185 -0.8722
 7450SOL    HW123249   5.537   0.881   6.247 -0.9880 -0.0096  0.0164
 7450SOL    HW223250   5.675   0.820   6.310 -0.8861 -0.5217 -0.6916
 7451SOL     OW23251   4.816   5.191   0.165  0.2949 -0.2738  0.4071
 7451SOL    HW123252   4.754   5.220   0.237 -0.1093  0.0478 -0.0621
 7451SOL    HW223253   4.874   5.117   0.198  1.2877  0.9880  1.6222
 7452SOL     OW23254   4.906   3.653   3.051 -0.4536 -1.2926 -0.6422
 7452SOL    HW123255   4.976   3.705   3.101  0.3406 -2.8634 -0.0541
 7452SOL    HW223256   4.894   3.693   2.960  1.0804 -0.8732 -0.6907
 7453SOL     OW23257   2.494   1.229   0.064  0.0924 -0.3462 -0.3952
 7453SOL    HW123258   2.476   1.249   0.160 -0.5426  1.1448 -0.7999
 7453SOL    HW223259   2.522   1.133   0.055 -0.5439 -0.7156  1.1709
 7454SOL     OW23260   0.680   3.657   0.955 -0.4368 -0.0704  0.6497
 7454SOL    HW123261   0.668   3.627   0.860 -1.5109 -0.6233  0.9447
 7454SOL    HW223262   0.633   3.594   1.016  1.6969 -0.7119  1.7252
 7455SOL     OW23263   4.389   2.488   1.877 -0.0621 -0.4323  0.0765
 7455SOL    HW123264   4.435   2.412   1.830  1.8028 -0.6280  2.0824
 7455SOL    HW223265   4.329   2.451   1.948 -0.2746 -0.0471  0.0977
 7456SOL     OW23266   5.762   6.921   5.719 -0.3289  0.2543 -0.1007
 7456SOL    HW123267   5.754   6.932   5.620 -0.0436 -2.2106 -0.4623
 7456SOL    HW223268   5.683   6.871   5.754  0.7920 -1.2345  0.4508
 7457SOL     OW23269   3.306   0.747   5.179  0.2378 -0.0451  0.1901
 7457SOL    HW123270   3.363   0.813   5.228  1.3378  0.8985 -2.1874
 7457SOL    HW223271   3.269   0.680   5.244  3.6641 -0.4356  1.9825
 7458SOL     OW23272   2.506   5.614   1.469  0.0520  0.0309  0.0525
 7458SOL    HW123273   2.542   5.543   1.530 -1.2883  0.1003  0.9863
 7458SOL    HW223274   2.495   5.577   1.377  0.3204 -0.6699  0.2925
 7459SOL     OW23275   1.336   4.680   4.661 -0.1215 -0.3192  0.4900
 7459SOL    HW123276   1.284   4.612   4.609  0.3788  1.0132 -1.8676
 7459SOL    HW223277   1.374   4.637   4.743 -2.8072 -1.9486  1.0201
 7460SOL     OW23278   4.077   5.839   6.858  0.1441 -0.1823  0.3740
 7460SOL    HW123279   4.020   5.900   6.802  0.5750 -0.1994 -0.0938
 7460SOL    HW223280   4.119   5.892   6.932 -0.0536 -0.0607  0.4004
 7461SOL     OW23281   6.941   2.857   4.505  0.1285  0.0105  0.5031
 7461SOL    HW123282   6.907   2.922   4.573 -1.3263 -0.4300  0.2253
 7461SOL    HW223283   6.988   2.907   4.432 -1.0801  0.7736  0.2274
 7462SOL     OW23284   4.120   5.383   4.645  0.6262  0.4354  0.4031
 7462SOL    HW123285   4.076   5.435   4.572  1.4285  0.3407 -0.1524
 7462SOL    HW223286   4.086   5.417   4.734  0.1350  0.9864  0.0169
 7463SOL     OW23287   2.593   4.793   2.450 -0.8509 -0.0337 -0.2736
 7463SOL    HW123288   2.493   4.794   2.458 -0.7296  2.2460  3.0036
 7463SOL    HW223289   2.620   4.849   2.371 -2.1526  0.4684 -0.3962
 7464SOL     OW23290   5.088   1.534   1.664 -0.1781  1.2090 -0.9427
 7464SOL    HW123291   5.062   1.580   1.579 -0.8498  0.4345 -1.1661
 7464SOL    HW223292   5.184   1.506   1.658 -0.0949  1.5502 -1.2624
 7465SOL     OW23293   6.970   1.125   2.412  0.2719  0.0959 -0.2289
 7465SOL    HW123294   6.916   1.073   2.478 -0.4200  0.7596 -0.2599
 7465SOL    HW223295   7.066   1.126   2.441  0.2782 -1.0655 -0.1553
 7466SOL     OW23296   4.394   5.765   5.241  0.1854  0.6459  0.0400
 7466SOL    HW123297   4.297   5.787   5.257 -0.0120  1.1350 -1.5879
 7466SOL    HW223298   4.403   5.667   5.221 -0.4291  1.0294 -2.4843
 7467SOL     OW23299   5.397   6.118   5.710 -0.6399 -0.1169  0.9080
 7467SOL    HW123300   5.446   6.080   5.788  0.5644  0.2247  0.3410
 7467SOL    HW223301   5.445   6.198   5.676 -0.7152 -0.7128 -0.6676
 7468SOL     OW23302   2.326   0.710   4.643 -0.7482 -0.0549  0.2483
 7468SOL    HW123303   2.413   0.738   4.604 -0.8855  0.1797  0.1040
 7468SOL    HW223304   2.277   0.653   4.577 -1.8130  1.8750 -0.7400
 7469SOL     OW23305   2.433   4.765   5.075  0.5155 -0.0623 -0.1830
 7469SOL    HW123306   2.480   4.701   5.136  0.5979  0.6786  0.5538
 7469SOL    HW223307   2.478   4.766   4.986 -0.5664 -2.3543 -0.8128
 7470SOL     OW23308   2.005   4.277   3.363  0.0937 -0.2284 -0.1679
 7470SOL    HW123309   1.931   4.277   3.296 -0.6902 -0.5200  0.6651
 7470SOL    HW223310   2.093   4.271   3.317 -0.3589  0.8934 -1.2185
 7471SOL     OW23311   1.780   5.784   4.472  0.1448  0.1544 -0.2302
 7471SOL    HW123312   1.765   5.740   4.560  1.0537 -0.0255 -0.1653
 7471SOL    HW223313   1.818   5.875   4.487  0.5071  0.0369 -0.4479
 7472SOL     OW23314   1.249   1.071   3.276  0.2565 -0.7378 -0.1460
 7472SOL    HW123315   1.342   1.049   3.245  0.1630 -0.3704 -0.7165
 7472SOL    HW223316   1.188   1.073   3.197 -0.3418 -1.4658  0.2899
 7473SOL     OW23317   2.437   2.024   4.625  0.0303  0.3015 -0.0650
 7473SOL    HW123318   2.340   2.015   4.602  0.1279  0.9402 -0.7687
 7473SOL    HW223319   2.479   2.092   4.565  1.1513 -0.7021 -0.4454
 7474SOL     OW23320   4.666   2.678   3.917  0.2430  0.3250 -0.3480
 7474SOL    HW123321   4.754   2.631   3.925  1.7671  3.0355  0.1462
 7474SOL    HW223322   4.607   2.649   3.993  1.4322 -0.1448  0.4445
 7475SOL     OW23323   2.181   4.035   2.887 -0.4354  0.7966  0.0657
 7475SOL    HW123324   2.231   3.998   2.966 -0.5010 -0.3625 -0.4151
 7475SOL    HW223325   2.119   3.965   2.851 -0.5530  1.3778 -0.8882
 7476SOL     OW23326   1.683   4.309   6.142 -0.3438 -0.1792  0.3015
 7476SOL    HW123327   1.591   4.329   6.109  0.1982  0.3992 -0.9269
 7476SOL    HW223328   1.738   4.271   6.068  0.2659 -1.0357  1.1595
 7477SOL     OW23329   4.782   5.046   2.357 -0.2335  0.3718 -0.4015
 7477SOL    HW123330   4.794   5.145   2.355 -0.3324  0.3956  0.0909
 7477SOL    HW223331   4.817   5.010   2.443 -0.1571 -0.0285 -0.5987
 7478SOL     OW23332   5.653   6.156   3.369 -0.1329  0.0443 -0.4346
 7478SOL    HW123333   5.607   6.204   3.444  0.3399  0.1639 -0.2223
 7478SOL    HW223334   5.745   6.131   3.397 -0.3251 -0.8641 -0.5982
 7479SOL     OW23335   2.095   6.195   5.070  0.2322 -0.8324 -0.2727
 7479SOL    HW123336   2.097   6.219   5.167 -0.7840 -1.1901 -0.1472
 7479SOL    HW223337   2.049   6.269   5.019  0.2600 -0.9003 -0.3956
 7480SOL     OW23338   0.700   4.715   3.208  0.3322  0.2535 -0.0809
 7480SOL    HW123339   0.717   4.772   3.289 -0.1624  1.0852 -0.5561
 7480SOL    HW223340   0.626   4.651   3.228 -1.5259  2.1072 -0.6190
 7481SOL     OW23341   3.755   2.636   6.492  0.3316  0.1775 -0.0681
 7481SOL    HW123342   3.831   2.666   6.434  1.7608 -0.4320  1.3918
 7481SOL    HW223343   3.670   2.640   6.441  1.3538  0.7991 -1.8030
 7482SOL     OW23344   5.797   6.722   3.445  0.1716 -0.2662  0.1512
 7482SOL    HW123345   5.844   6.642   3.406 -0.2905 -0.4582 -0.0087
 7482SOL    HW223346   5.751   6.696   3.530  0.8951  0.0758  0.6595
 7483SOL     OW23347   0.664   1.480   5.794  0.1823 -0.2884 -0.0442
 7483SOL    HW123348   0.667   1.469   5.894 -1.3846  0.7276  0.1407
 7483SOL    HW223349   0.745   1.531   5.765  1.7060 -2.2967  0.4107
 7484SOL     OW23350   4.639   1.152   3.924 -0.1876  0.1764 -0.5339
 7484SOL    HW123351   4.601   1.122   3.837  1.7853 -1.8087 -0.7925
 7484SOL    HW223352   4.739   1.149   3.920 -0.0227 -0.6871  2.0001
 7485SOL     OW23353   6.664   3.839   1.505 -0.1010  0.1999 -0.1274
 7485SOL    HW123354   6.602   3.883   1.439  0.4472 -0.0767 -0.8446
 7485SOL    HW223355   6.652   3.881   1.595 -2.1265 -0.6225  0.0138
 7486SOL     OW23356   4.686   6.493   0.542 -0.0832  0.0533  0.1032
 7486SOL    HW123357   4.608   6.549   0.512  0.7946  1.8493  1.0128
 7486SOL    HW223358   4.769   6.549   0.539  0.8890 -1.3269  0.7727
 7487SOL     OW23359   0.925   4.257   2.524 -0.2897 -0.0193  0.2434
 7487SOL    HW123360   0.879   4.237   2.437 -1.7001  1.5013  0.5754
 7487SOL    HW223361   0.989   4.184   2.546 -1.5183 -1.5212 -0.9680
 7488SOL     OW23362   6.841   4.866   2.554  0.2607  0.4768 -0.2111
 7488SOL    HW123363   6.746   4.847   2.529  0.2472  0.5827 -0.2392
 7488SOL    HW223364   6.856   4.839   2.649 -0.1946  1.8347  0.2748
 7489SOL     OW23365   1.635   4.927   0.266 -0.2487  0.2809  0.3330
 7489SOL    HW123366   1.544   4.927   0.307 -0.3269  0.6775  0.1607
 7489SOL    HW223367   1.697   4.872   0.323 -0.3503  0.8409  1.0010
 7490SOL     OW23368   1.388   0.491   5.570 -0.0258  0.0556 -0.3617
 7490SOL    HW123369   1.457   0.551   5.531  0.4910 -0.9934 -1.1100
 7490SOL    HW223370   1.337   0.446   5.497  0.4248 -1.3453  0.1560
 7491SOL     OW23371   1.128   1.942   6.493  0.6142  0.5255  0.0313
 7491SOL    HW123372   1.113   1.906   6.401  0.0090  0.6799  0.0647
 7491SOL    HW223373   1.196   1.886   6.540  1.5893  0.9701 -0.8148
 7492SOL     OW23374   4.773   6.946   1.505 -0.2948 -0.1632 -0.3656
 7492SOL    HW123375   4.694   6.994   1.542 -1.3397  0.5009 -3.2177
 7492SOL    HW223376   4.743   6.861   1.460  0.5899  0.0211 -1.3607
 7493SOL     OW23377   1.113   5.111   3.251  0.3484 -0.1637 -0.7705
 7493SOL    HW123378   1.039   5.112   3.183  0.0644 -1.5955 -0.5152
 7493SOL    HW223379   1.087   5.167   3.329 -0.1466 -0.0688 -0.9977
 7494SOL     OW23380   1.846   1.193   2.193 -0.0181 -0.1199 -0.0456
 7494SOL    HW123381   1.857   1.260   2.266 -1.1338 -0.3650  0.3734
 7494SOL    HW223382   1.805   1.237   2.113 -1.3526 -0.4091  0.4547
 7495SOL     OW23383   2.231   3.188   1.396 -0.0744 -0.0472  0.2700
 7495SOL    HW123384   2.298   3.258   1.421 -0.8988  0.1921  1.9871
 7495SOL    HW223385   2.276   3.100   1.384  0.7350  0.4191 -0.1730
 7496SOL     OW23386   3.202   3.221   3.228  0.0718 -0.0822 -0.0520
 7496SOL    HW123387   3.260   3.259   3.301  0.6275  1.1190 -1.0721
 7496SOL    HW223388   3.225   3.125   3.213  0.8520  0.0116  0.4777
 7497SOL     OW23389   5.594   2.148   4.397  0.2662 -0.1651  0.5607
 7497SOL    HW123390   5.664   2.205   4.353 -0.6886  0.3764 -0.3026
 7497SOL    HW223391   5.514   2.204   4.416  0.5883 -0.4100  2.9377
 7498SOL     OW23392   2.740   5.233   4.899 -0.7862 -0.0990 -0.0934
 7498SOL    HW123393   2.819   5.248   4.839  2.0084 -1.5837  2.8664
 7498SOL    HW223394   2.692   5.150   4.873 -0.5105  0.0542 -1.1034
 7499SOL     OW23395   2.487   6.043   4.978  0.4253 -0.8525 -0.2601
 7499SOL    HW123396   2.485   6.040   4.878  1.6186 -0.0614 -0.3210
 7499SOL    HW223397   2.560   5.984   5.012 -0.4424 -1.7051  0.2089
 7500SOL     OW23398   3.638   0.647   0.087 -0.2114  0.3091 -0.7679
 7500SOL    HW123399   3.585   0.732   0.084 -2.4215 -0.8909  0.9351
 7500SOL    HW223400   3.576   0.571   0.107  2.0666 -1.3637  0.2529
 7501SOL     OW23401   0.982   4.798   2.144  0.1129 -0.4930  0.1695
 7501SOL    HW123402   0.947   4.889   2.120 -0.8144 -1.3816 -2.1103
 7501SOL    HW223403   0.930   4.761   2.220  0.3659  0.7569  0.9996
 7502SOL     OW23404   6.212   2.743   5.459  0.4645  0.3220  0.2314
 7502SOL    HW123405   6.208   2.824   5.518  0.3317  1.9733 -1.9271
 7502SOL    HW223406   6.181   2.663   5.510 -2.3088  2.1296  1.5992
 7503SOL     OW23407   1.080   5.491   2.768 -0.5251  0.1906  0.0904
 7503SOL    HW123408   1.175   5.461   2.756 -0.5394  0.5278 -1.0204
 7503SOL    HW223409   1.057   5.492   2.865  1.3678  2.3853  0.6010
 7504SOL     OW23410   2.685   4.887   0.748  0.5821  0.1817  0.3637
 7504SOL    HW123411   2.598   4.842   0.728  0.1765  1.6394 -1.4743
 7504SOL    HW223412   2.760   4.823   0.734  0.0161 -0.0686 -2.0463
 7505SOL     OW23413   1.832   0.122   4.868 -0.0997  0.7445 -0.0357
 7505SOL    HW123414   1.849   0.097   4.963  0.8459  1.4111 -0.0231
 7505SOL    HW223415   1.741   0.162   4.859 -1.5880 -2.3417 -0.0002
 7506SOL     OW23416   4.480   0.196   0.982  0.1016  0.6820  0.1374
 7506SOL    HW123417   4.535   0.276   1.007  1.3563  0.7016 -2.4039
 7506SOL    HW223418   4.497   0.123   1.048  1.6325  1.3646  0.5497
 7507SOL     OW23419   5.677   1.490   3.044  0.5088  0.0614 -0.1148
 7507SOL    HW123420   5.592   1.539   3.064  1.2307  0.8312  1.1621
 7507SOL    HW223421   5.656   1.408   2.990 -1.0599  0.1482  0.3201
 7508SOL     OW23422   2.218   6.772   5.714 -0.2906  0.0062  0.8099
 7508SOL    HW123423   2.200   6.690   5.659 -1.6153 -0.3789  1.7743
 7508SOL    HW223424   2.140   6.789   5.774  0.1296  1.7670  0.9023
 7509SOL     OW23425   4.434   0.660   4.308  0.2080 -0.4800 -0.4396
 7509SOL    HW123426   4.427   0.683   4.211 -0.7517 -0.5497 -0.3997
 7509SOL    HW223427   4.413   0.740   4.364  0.7127 -0.4520 -0.2802
 7510SOL     OW23428   3.078   1.559   2.006  0.2997 -0.3364 -0.4770
 7510SOL    HW123429   3.158   1.523   1.958  2.1160  0.2342  1.9079
 7510SOL    HW223430   3.037   1.486   2.061  1.2012  0.0582  0.7855
 7511SOL     OW23431   2.312   6.099   2.416 -0.0246 -0.5282  0.0045
 7511SOL    HW123432   2.267   6.185   2.443  1.5077  1.0695 -2.1480
 7511SOL    HW223433   2.398   6.089   2.466 -0.3187 -0.9781  0.4348
 7512SOL     OW23434   4.154   4.854   4.551 -0.7780 -0.4763  0.2988
 7512SOL    HW123435   4.160   4.953   4.564 -0.6224 -0.4674  0.1613
 7512SOL    HW223436   4.192   4.807   4.631 -0.5266 -0.4234  0.2110
 7513SOL     OW23437   6.225   0.212   6.333  0.2005 -0.0634 -0.3723
 7513SOL    HW123438   6.283   0.148   6.282  0.3596 -0.6948  0.5889
 7513SOL    HW223439   6.269   0.302   6.334  1.1707 -0.5272  0.3148
 7514SOL     OW23440   3.759   0.682   6.814 -0.0071 -0.1611 -0.2422
 7514SOL    HW123441   3.827   0.747   6.780 -1.4313  1.6265  0.2006
 7514SOL    HW223442   3.768   0.672   6.913 -1.1939  1.1254  0.0241
 7515SOL     OW23443   3.033   0.792   6.402 -0.0601 -0.3315 -0.7896
 7515SOL    HW123444   2.951   0.787   6.346 -1.1550  0.9669  0.6028
 7515SOL    HW223445   3.009   0.821   6.495  1.6644 -2.4338  0.4269
 7516SOL     OW23446   2.495   5.648   0.502 -0.1735 -0.2393 -0.4550
 7516SOL    HW123447   2.579   5.605   0.470  0.0884  0.5015 -0.7593
 7516SOL    HW223448   2.416   5.602   0.460 -0.0685 -2.3546  1.4247
 7517SOL     OW23449   5.802   5.497   3.835 -0.2988 -0.1634 -0.0590
 7517SOL    HW123450   5.803   5.507   3.935 -0.9631 -0.4594 -0.0169
 7517SOL    HW223451   5.894   5.511   3.799 -0.0955  0.1653  0.5753
 7518SOL     OW23452   3.496   2.561   0.732 -0.8906  0.0465  0.8173
 7518SOL    HW123453   3.416   2.608   0.770 -1.9111 -0.3560 -0.7687
 7518SOL    HW223454   3.579   2.598   0.775 -1.7497  2.1372  0.8090
 7519SOL     OW23455   1.926   3.895   4.854 -0.1531 -0.3636  0.3765
 7519SOL    HW123456   2.015   3.874   4.813 -0.4908  2.6053 -2.3373
 7519SOL    HW223457   1.855   3.842   4.806 -0.2330  0.7530 -0.7976
 7520SOL     OW23458   1.098   2.343   4.624 -0.2841  0.1232 -0.0825
 7520SOL    HW123459   1.190   2.345   4.661 -0.7180 -2.1651  1.3558
 7520SOL    HW223460   1.054   2.432   4.637  0.7036  0.3576  2.0102
 7521SOL     OW23461   6.465   5.327   4.543 -0.4393 -0.1506  0.1218
 7521SOL    HW123462   6.536   5.309   4.612  0.9111  2.1081 -0.5790
 7521SOL    HW223463   6.503   5.312   4.452 -2.0422 -2.5325 -0.2605
 7522SOL     OW23464   3.148   5.335   6.094 -0.2956  0.2980 -0.2935
 7522SOL    HW123465   3.218   5.285   6.042  2.0926  3.1665 -0.0777
 7522SOL    HW223466   3.149   5.305   6.189  1.3100  0.9089 -0.0999
 7523SOL     OW23467   0.831   0.658   0.210  0.7222 -0.2062 -0.4030
 7523SOL    HW123468   0.876   0.743   0.239  2.8502 -1.5609  0.4853
 7523SOL    HW223469   0.740   0.680   0.174 -0.1273  2.1585  2.6907
 7524SOL     OW23470   1.374   1.358   5.532  0.2328  0.2954 -0.8908
 7524SOL    HW123471   1.314   1.277   5.526  0.4133  0.1531 -0.7760
 7524SOL    HW223472   1.429   1.352   5.616  0.1293  0.6184 -0.7997
 7525SOL     OW23473   1.887   5.211   6.440  0.2858 -0.0691  0.1841
 7525SOL    HW123474   1.973   5.188   6.486 -0.4436 -1.3192  0.9674
 7525SOL    HW223475   1.904   5.221   6.342  1.3302 -0.2315  0.3317
 7526SOL     OW23476   5.013   0.427   2.807  0.0425  0.5416 -0.0903
 7526SOL    HW123477   4.991   0.462   2.898  0.8965 -0.4899  0.5287
 7526SOL    HW223478   5.098   0.375   2.811  0.7090  1.4258 -1.7093
 7527SOL     OW23479   5.905   2.610   4.786 -0.8087 -0.7914 -0.3318
 7527SOL    HW123480   5.854   2.572   4.709 -0.3556  0.6236 -1.3550
 7527SOL    HW223481   6.000   2.581   4.781 -0.2651  1.1150 -1.5999
 7528SOL     OW23482   2.658   2.514   1.845 -0.5201 -0.1591 -0.4750
 7528SOL    HW123483   2.748   2.474   1.865 -0.3275  1.1320  1.5547
 7528SOL    HW223484   2.601   2.509   1.928 -1.0894  2.1463 -0.6773
 7529SOL     OW23485   5.206   1.114   4.860 -0.1703 -0.2851  0.2022
 7529SOL    HW123486   5.245   1.164   4.782 -0.0797  1.4043  1.2678
 7529SOL    HW223487   5.262   1.130   4.941 -0.6033 -1.5031  0.7570
 7530SOL     OW23488   3.247   3.616   3.834 -0.0852 -0.0954  0.4515
 7530SOL    HW123489   3.309   3.586   3.906  1.6284 -0.5001 -1.1036
 7530SOL    HW223490   3.168   3.556   3.831 -0.2308 -0.0277  2.0079
 7531SOL     OW23491   1.535   4.805   5.521  0.1008  0.3680  0.7666
 7531SOL    HW123492   1.475   4.882   5.499 -2.6595 -1.1212  2.4200
 7531SOL    HW223493   1.598   4.831   5.594 -0.2597  1.2787  0.7569
 7532SOL     OW23494   0.907   1.601   6.941 -0.2293 -0.0368 -0.1815
 7532SOL    HW123495   0.942   1.534   7.006  1.2646  1.1967  0.3347
 7532SOL    HW223496   0.869   1.678   6.991 -0.1445  0.3907 -0.7707
 7533SOL     OW23497   3.746   1.014   6.214 -0.7701  0.2517 -0.0088
 7533SOL    HW123498   3.659   1.059   6.192  0.3448  1.4347 -2.4207
 7533SOL    HW223499   3.741   0.917   6.189 -0.7908  0.7574 -2.1694
 7534SOL     OW23500   4.568   5.187   3.184  0.7624 -0.2562 -0.0806
 7534SOL    HW123501   4.614   5.185   3.095 -0.1886 -1.4854 -0.5710
 7534SOL    HW223502   4.569   5.096   3.223 -0.9541 -0.2421  0.0497
 7535SOL     OW23503   4.010   6.217   6.664  0.2057  0.1573  0.1263
 7535SOL    HW123504   4.003   6.247   6.759  1.2475 -0.1388  0.3069
 7535SOL    HW223505   3.992   6.119   6.659  1.3146 -0.0641  0.2030
 7536SOL     OW23506   4.251   6.362   1.460 -0.3996  0.4501 -0.0399
 7536SOL    HW123507   4.236   6.323   1.551 -0.2489 -0.0356 -0.2219
 7536SOL    HW223508   4.349   6.374   1.445 -0.4840  2.3231  0.6043
 7537SOL     OW23509   1.336   1.502   6.996  0.0873  0.4209  0.2871
 7537SOL    HW123510   1.371   1.594   6.977  4.2554 -1.1755 -0.9075
 7537SOL    HW223511   1.379   1.466   7.078  0.9363 -1.5026 -0.9311
 7538SOL     OW23512   5.325   1.671   4.071  0.5750 -0.1398  0.3993
 7538SOL    HW123513   5.381   1.721   4.138  0.3982  0.1015  0.3689
 7538SOL    HW223514   5.237   1.647   4.112 -0.1195  1.2800 -0.1875
 7539SOL     OW23515   2.626   6.953   6.717 -0.0944 -0.0230 -0.2313
 7539SOL    HW123516   2.569   6.872   6.732  0.9370 -0.5892  0.7847
 7539SOL    HW223517   2.686   6.938   6.638 -1.2148  0.5139 -1.2067
 7540SOL     OW23518   1.342   0.798   2.366 -0.3183 -0.9433 -0.0371
 7540SOL    HW123519   1.374   0.859   2.293  0.1124 -0.6493  0.3948
 7540SOL    HW223520   1.358   0.841   2.455 -2.1067 -0.6937  0.1995
 7541SOL     OW23521   1.933   5.500   1.936 -0.0995 -0.1298  0.5177
 7541SOL    HW123522   2.020   5.457   1.963  1.1398  1.8298 -0.1172
 7541SOL    HW223523   1.940   5.599   1.950 -1.5388  0.2787 -1.3796
 7542SOL     OW23524   0.280   6.705   4.574  0.2118  0.4883  0.2977
 7542SOL    HW123525   0.238   6.795   4.587 -0.6246 -0.0656  1.6537
 7542SOL    HW223526   0.231   6.637   4.630 -0.4262 -1.2015 -2.1417
 7543SOL     OW23527   6.205   3.364   4.512  0.2959 -0.4413  0.1927
 7543SOL    HW123528   6.268   3.308   4.566 -0.6941 -0.6623  1.1757
 7543SOL    HW223529   6.198   3.455   4.553 -0.1842 -0.4956  0.2399
 7544SOL     OW23530   6.420   5.665   5.615 -0.0130 -0.1394 -0.0387
 7544SOL    HW123531   6.367   5.741   5.577 -1.1748 -1.6246 -1.5552
 7544SOL    HW223532   6.394   5.651   5.710  0.8285  1.8513  0.5257
 7545SOL     OW23533   2.062   0.366   5.261  0.1051 -0.4376 -0.7122
 7545SOL    HW123534   2.098   0.417   5.182 -0.9483  0.7751 -0.4391
 7545SOL    HW223535   1.962   0.371   5.262  0.1133  1.0599  1.6005
 7546SOL     OW23536   4.669   4.665   3.434 -0.3195  0.1461 -0.0724
 7546SOL    HW123537   4.571   4.654   3.450 -0.4215  0.6012 -0.3600
 7546SOL    HW223538   4.718   4.587   3.472 -1.0263 -1.5217 -2.3262
 7547SOL     OW23539   4.159   0.201   3.983 -0.6939  0.6902 -0.3361
 7547SOL    HW123540   4.164   0.172   4.078 -0.9081 -2.1743 -1.0841
 7547SOL    HW223541   4.111   0.289   3.977 -2.0468  0.2061  2.0666
 7548SOL     OW23542   6.924   1.519   4.268  0.8947 -0.1063 -0.1728
 7548SOL    HW123543   6.894   1.614   4.268  2.3876  0.3818  0.6413
 7548SOL    HW223544   6.846   1.460   4.289  0.0701  0.9586 -0.1517
 7549SOL     OW23545   6.454   0.347   2.671 -0.2076  0.1834 -0.3836
 7549SOL    HW123546   6.440   0.322   2.767 -0.3534 -0.7496 -0.6387
 7549SOL    HW223547   6.375   0.318   2.617  0.2005  0.0120 -0.9034
 7550SOL     OW23548   5.457   5.722   4.273  0.1614 -0.0202  0.3245
 7550SOL    HW123549   5.444   5.821   4.269  4.1625  0.6702 -0.7530
 7550SOL    HW223550   5.451   5.691   4.368  0.6409  1.6380  0.9391
 7551SOL     OW23551   5.242   2.974   4.690 -0.2927 -0.0005  0.2842
 7551SOL    HW123552   5.318   2.930   4.739 -0.0462  0.5889  0.4412
 7551SOL    HW223553   5.233   2.932   4.600  1.8158  1.4875 -0.7240
 7552SOL     OW23554   0.208   1.785   5.172 -0.1246 -0.2820 -0.2364
 7552SOL    HW123555   0.122   1.775   5.121 -0.1403  0.3543 -0.3512
 7552SOL    HW223556   0.276   1.831   5.114 -0.0120  0.0783  0.1717
 7553SOL     OW23557   0.209   6.842   1.718  0.2782 -0.9632  0.5411
 7553SOL    HW123558   0.206   6.938   1.687  0.5205 -0.1310  2.9213
 7553SOL    HW223559   0.278   6.792   1.665  1.3849  0.6312  0.4013
 7554SOL     OW23560   2.391   2.754   3.773 -0.1831  0.4417  0.2200
 7554SOL    HW123561   2.433   2.681   3.827  1.2990  1.0454 -0.0896
 7554SOL    HW223562   2.419   2.745   3.678 -1.9961 -0.0315 -0.3122
 7555SOL     OW23563   2.659   1.575   2.041 -0.1020  0.7671  0.1791
 7555SOL    HW123564   2.648   1.622   2.129 -0.7586  1.0646 -0.0561
 7555SOL    HW223565   2.711   1.632   1.979 -2.0828  1.8392 -0.5758
 7556SOL     OW23566   0.930   6.278   1.725 -0.2042  0.1101 -0.0772
 7556SOL    HW123567   0.885   6.367   1.721  1.6448  1.0689 -0.5417
 7556SOL    HW223568   0.923   6.233   1.637 -1.5769 -0.4625  0.2993
 7557SOL     OW23569   4.403   4.633   3.030 -0.1490 -0.0054 -0.0378
 7557SOL    HW123570   4.322   4.692   3.021  0.2181  0.6988  1.0326
 7557SOL    HW223571   4.477   4.670   2.975 -0.3236 -0.2313 -0.4288
 7558SOL     OW23572   2.685   0.534   6.354  0.6009 -0.4040  0.5770
 7558SOL    HW123573   2.707   0.496   6.264 -0.8473 -1.0346  0.4613
 7558SOL    HW223574   2.676   0.460   6.421 -1.5953 -0.2639  0.4961
 7559SOL     OW23575   0.602   3.166   2.640 -0.4404  0.3386  0.0798
 7559SOL    HW123576   0.519   3.122   2.606 -1.3063  2.5144 -0.7493
 7559SOL    HW223577   0.586   3.200   2.732  0.5929 -1.9068  1.1859
 7560SOL     OW23578   3.661   6.651   3.877  0.2889  0.3468 -0.3983
 7560SOL    HW123579   3.637   6.723   3.812  0.7727  1.6202  0.7789
 7560SOL    HW223580   3.607   6.662   3.960 -0.0932 -1.0645 -0.4277
 7561SOL     OW23581   5.799   2.861   6.304  0.1294  0.3487 -0.1771
 7561SOL    HW123582   5.752   2.786   6.258 -1.1882  1.4362 -0.6437
 7561SOL    HW223583   5.800   2.942   6.246  0.2871  1.1296  0.8702
 7562SOL     OW23584   6.897   5.051   1.542 -0.2100  0.0093  0.0454
 7562SOL    HW123585   6.869   5.143   1.513 -0.2320  0.8746  2.5681
 7562SOL    HW223586   6.982   5.026   1.497  0.5269  1.8697  0.3193
 7563SOL     OW23587   5.993   6.018   1.346  0.0956 -0.0818  0.5124
 7563SOL    HW123588   6.011   6.110   1.381 -0.4378 -0.2393  1.2343
 7563SOL    HW223589   6.024   6.011   1.252  1.0862  0.5268  0.7824
 7564SOL     OW23590   6.549   6.944   2.250 -0.3844  0.1967  0.2725
 7564SOL    HW123591   6.647   6.944   2.271 -0.3540  4.0383  0.8468
 7564SOL    HW223592   6.505   7.019   2.299 -3.4422 -0.6911 -0.9126
 7565SOL     OW23593   6.788   3.233   1.020 -0.0536  0.1318 -0.5683
 7565SOL    HW123594   6.819   3.328   1.015 -0.2715  0.2206 -0.2240
 7565SOL    HW223595   6.716   3.218   0.953  0.8199 -0.1144 -1.4804
 7566SOL     OW23596   0.828   3.632   2.244  0.3262  0.5178  0.2247
 7566SOL    HW123597   0.779   3.693   2.181  0.0182  0.6533  0.5920
 7566SOL    HW223598   0.857   3.550   2.195 -1.4609 -0.2066  0.3040
 7567SOL     OW23599   3.024   3.841   5.545 -0.3795  0.1075  0.7708
 7567SOL    HW123600   3.072   3.875   5.464 -0.0159 -1.0465  0.4953
 7567SOL    HW223601   3.038   3.743   5.554  2.3633  0.5897  4.0018
 7568SOL     OW23602   0.988   1.053   6.270  0.0241  0.3324 -0.3160
 7568SOL    HW123603   1.072   1.064   6.321 -0.1661  0.8426 -0.1008
 7568SOL    HW223604   0.926   0.991   6.319  0.3830 -0.2781 -0.6203
 7569SOL     OW23605   5.734   0.904   5.051 -0.0087  0.0254  0.3483
 7569SOL    HW123606   5.691   0.975   5.106  0.5173 -0.8692  1.9888
 7569SOL    HW223607   5.667   0.833   5.030  0.6952 -1.8205  3.6678
 7570SOL     OW23608   1.909   3.756   0.221  0.4369  0.4904 -0.0722
 7570SOL    HW123609   1.989   3.734   0.277 -0.2215  2.4809  1.7839
 7570SOL    HW223610   1.934   3.751   0.124  2.1481 -1.1929  0.4040
 7571SOL     OW23611   6.058   6.927   0.128  0.1817 -0.1108 -0.0583
 7571SOL    HW123612   6.009   6.976   0.056  0.1134 -0.6360 -0.3789
 7571SOL    HW223613   6.003   6.848   0.158 -0.3465  0.7884  1.4400
 7572SOL     OW23614   6.417   2.574   6.947 -0.1528 -0.4110 -0.3475
 7572SOL    HW123615   6.410   2.549   7.044  0.9239  0.8641  0.0864
 7572SOL    HW223616   6.502   2.537   6.910 -0.6749 -1.0969 -0.8862
 7573SOL     OW23617   2.100   6.461   1.923  0.0276 -0.4123  0.5499
 7573SOL    HW123618   2.196   6.469   1.947 -0.5335  0.6468  2.6719
 7573SOL    HW223619   2.043   6.494   1.999 -2.0200 -1.0926 -0.5983
 7574SOL     OW23620   5.732   4.156   6.708  0.3031  0.3962 -0.6654
 7574SOL    HW123621   5.830   4.138   6.695  0.0893 -1.0676 -0.3631
 7574SOL    HW223622   5.704   4.123   6.798 -0.8229 -0.7665 -1.4119
 7575SOL     OW23623   0.126   4.011   1.128 -0.0101  0.2905  0.6180
 7575SOL    HW123624   0.222   4.000   1.155 -0.1718 -1.9773  0.4654
 7575SOL    HW223625   0.066   3.978   1.200 -0.7578  2.1317  0.9152
 7576SOL     OW23626   6.080   4.869   6.199  0.5951 -0.4133 -0.1464
 7576SOL    HW123627   6.035   4.787   6.234 -0.0637  0.5519  1.3842
 7576SOL    HW223628   6.176   4.848   6.177  0.2443 -1.7422 -0.5014
 7577SOL     OW23629   0.081   0.344   3.895  0.4225  0.0539 -0.1460
 7577SOL    HW123630   0.096   0.408   3.820 -0.5539  0.4072 -0.0475
 7577SOL    HW223631   0.004   0.284   3.873  0.5783 -0.3056  0.2699
 7578SOL     OW23632   2.667   2.431   4.889  0.7916  0.0817  0.1981
 7578SOL    HW123633   2.696   2.526   4.897  1.7933 -0.0606 -1.3491
 7578SOL    HW223634   2.657   2.391   4.980  2.9264  0.9085  0.8456
 7579SOL     OW23635   5.735   1.927   6.930 -0.5458  0.2342  0.2971
 7579SOL    HW123636   5.781   1.875   7.002 -0.2661 -1.6112 -1.1326
 7579SOL    HW223637   5.789   2.008   6.906  0.0049  0.1540  1.2569
 7580SOL     OW23638   4.757   4.571   4.285  0.9034 -0.7590 -0.2690
 7580SOL    HW123639   4.761   4.653   4.227 -0.0126  1.4985  2.5907
 7580SOL    HW223640   4.842   4.562   4.336  1.2011 -1.9421 -0.9471
 7581SOL     OW23641   4.844   4.945   3.339  0.4548  0.1360  0.4059
 7581SOL    HW123642   4.826   5.026   3.395 -2.3357 -1.7881  2.5722
 7581SOL    HW223643   4.779   4.942   3.262  1.2764  0.4611 -0.3182
 7582SOL     OW23644   6.572   4.007   3.016  0.5386  0.1597 -0.0276
 7582SOL    HW123645   6.647   3.951   3.053 -0.1243 -1.2889 -0.7799
 7582SOL    HW223646   6.594   4.033   2.922  0.1588 -0.1816 -0.2141
 7583SOL     OW23647   1.093   1.838   6.225 -0.4919 -0.0639  0.1163
 7583SOL    HW123648   1.032   1.829   6.146 -0.7270 -0.8727  0.3829
 7583SOL    HW223649   1.154   1.760   6.229  0.6762  0.7972 -0.2167
 7584SOL     OW23650   6.704   6.318   0.247 -0.2040  0.1350  0.1574
 7584SOL    HW123651   6.742   6.333   0.338 -0.8402  0.3331  0.4023
 7584SOL    HW223652   6.609   6.350   0.246 -0.1812  0.1916 -0.5948
 7585SOL     OW23653   6.890   3.535   3.477  0.1415  0.3402 -0.0680
 7585SOL    HW123654   6.938   3.574   3.398  2.1672 -1.1569  0.3594
 7585SOL    HW223655   6.933   3.449   3.504 -1.8258 -0.2687  1.3897
 7586SOL     OW23656   3.862   3.075   2.796  0.4943 -0.5133  0.6436
 7586SOL    HW123657   3.944   3.052   2.848  1.8586  0.0254 -1.1438
 7586SOL    HW223658   3.837   3.170   2.814  1.7916  0.1140 -0.6310
 7587SOL     OW23659   4.000   1.137   4.253 -0.1095  0.3343 -0.1346
 7587SOL    HW123660   3.968   1.044   4.232 -1.9660  0.9819 -0.3555
 7587SOL    HW223661   4.016   1.187   4.167  1.4148  0.0892 -0.0269
 7588SOL     OW23662   6.317   5.579   4.752  0.1563  0.1146  0.1308
 7588SOL    HW123663   6.319   5.551   4.848 -0.7229  1.0494  0.4424
 7588SOL    HW223664   6.284   5.503   4.696  1.4429 -0.7089  0.4436
 7589SOL     OW23665   0.670   3.439   1.562  0.1517  0.4604  0.5711
 7589SOL    HW123666   0.631   3.516   1.511  1.0895  1.1968  0.9279
 7589SOL    HW223667   0.741   3.473   1.624 -1.1498 -0.3566  2.5913
 7590SOL     OW23668   0.823   6.914   6.999 -0.0526  0.1044 -0.4000
 7590SOL    HW123669   0.770   6.989   6.959  0.2325  1.2715  1.3155
 7590SOL    HW223670   0.826   6.925   7.099  3.2955  0.0384 -0.4002
 7591SOL     OW23671   5.943   0.828   5.922 -0.9182 -0.0960 -0.1198
 7591SOL    HW123672   5.985   0.915   5.948 -1.6960  0.6768 -1.3481
 7591SOL    HW223673   5.947   0.765   5.999 -1.5256  1.4727  1.2558
 7592SOL     OW23674   5.716   4.447   0.482 -0.3870  0.1708 -0.0987
 7592SOL    HW123675   5.776   4.413   0.555 -1.9606  0.1736  1.2501
 7592SOL    HW223676   5.772   4.483   0.408  1.2960 -1.7212  0.1618
 7593SOL     OW23677   0.903   7.010   5.690  0.1502 -0.2093  0.0211
 7593SOL    HW123678   0.946   7.100   5.683 -2.5170  1.2112  0.6175
 7593SOL    HW223679   0.899   6.982   5.786 -0.1846 -0.3648 -0.0372
 7594SOL     OW23680   0.767   6.685   4.637 -0.8025  0.2536 -0.2745
 7594SOL    HW123681   0.796   6.761   4.579 -1.2195 -0.0744 -0.9324
 7594SOL    HW223682   0.798   6.700   4.731  1.5933 -0.1440 -0.9329
 7595SOL     OW23683   0.053   3.925   2.370 -0.2771  0.0675 -0.4813
 7595SOL    HW123684   0.124   3.970   2.424  0.3216 -0.1331 -1.0794
 7595SOL    HW223685   0.088   3.837   2.336 -1.1741 -0.5261  0.0743
 7596SOL     OW23686   5.726   5.147   3.402 -0.5398 -0.8905  0.2875
 7596SOL    HW123687   5.760   5.071   3.458  0.3730 -0.5475  0.2139
 7596SOL    HW223688   5.626   5.145   3.401 -0.5451 -1.5932  0.9728
 7597SOL     OW23689   4.136   0.783   5.893  0.2069 -0.8864  0.3866
 7597SOL    HW123690   4.107   0.874   5.924 -0.2646 -1.3283  1.2802
 7597SOL    HW223691   4.171   0.790   5.799 -2.8276 -0.2688 -0.8406
 7598SOL     OW23692   1.088   2.761   6.180 -0.0925 -0.9108 -0.0986
 7598SOL    HW123693   1.030   2.833   6.217 -1.2541 -1.4560 -0.8069
 7598SOL    HW223694   1.180   2.768   6.220 -0.9365 -0.7167  1.8957
 7599SOL     OW23695   4.663   2.482   5.184  0.0027 -0.4673  0.2293
 7599SOL    HW123696   4.599   2.520   5.118 -3.7227 -2.4601  2.3534
 7599SOL    HW223697   4.723   2.416   5.139 -0.7619 -0.0027 -1.5409
 7600SOL     OW23698   6.506   3.372   5.730  0.0736  0.2120  0.7815
 7600SOL    HW123699   6.475   3.380   5.636  0.1775 -1.1544  0.6171
 7600SOL    HW223700   6.483   3.282   5.766  0.5304  0.5121  1.8831
 7601SOL     OW23701   1.928   4.806   2.454  0.0636 -0.4235 -0.1188
 7601SOL    HW123702   1.840   4.782   2.413 -0.9286  1.3463  0.8728
 7601SOL    HW223703   1.963   4.889   2.411 -1.5495  2.1629  3.1504
 7602SOL     OW23704   0.984   6.291   4.469 -0.6559 -0.3090 -0.2593
 7602SOL    HW123705   0.912   6.358   4.488 -0.7449 -0.0832 -1.3245
 7602SOL    HW223706   1.027   6.263   4.555 -0.7277  0.9856  0.2160
 7603SOL     OW23707   0.757   2.603   6.754 -0.7926  0.0812  0.5443
 7603SOL    HW123708   0.709   2.517   6.739 -1.0388 -0.2698  2.9218
 7603SOL    HW223709   0.801   2.632   6.669 -2.3817 -1.3134 -0.8274
 7604SOL     OW23710   3.532   3.119   0.267  0.0777  0.1121  0.0630
 7604SOL    HW123711   3.450   3.064   0.248 -0.0417  0.0322  0.7708
 7604SOL    HW223712   3.575   3.146   0.181 -1.8785  1.9516 -0.4255
 7605SOL     OW23713   0.698   4.629   0.306  0.6657  0.1228  0.2775
 7605SOL    HW123714   0.796   4.638   0.327  0.4679  0.7266  1.0061
 7605SOL    HW223715   0.683   4.647   0.209  1.2649  0.0793  0.1678
 7606SOL     OW23716   0.136   4.179   3.524 -0.2691 -0.0448 -0.1532
 7606SOL    HW123717   0.177   4.268   3.543  0.0037  0.0551 -1.1254
 7606SOL    HW223718   0.208   4.109   3.520 -0.3602 -0.1241 -0.4166
 7607SOL     OW23719   2.469   6.188   1.690  0.3757  0.0321  0.1482
 7607SOL    HW123720   2.394   6.141   1.644 -0.7310  0.0636  1.8427
 7607SOL    HW223721   2.512   6.127   1.756  0.3750  0.7011  0.7778
 7608SOL     OW23722   1.780   3.846   0.474 -0.4037  0.2268 -0.1395
 7608SOL    HW123723   1.831   3.846   0.388  1.6998  0.9133  1.0232
 7608SOL    HW223724   1.812   3.770   0.531 -2.0997 -0.5020 -0.1078
 7609SOL     OW23725   4.823   3.550   0.552  0.3489  0.0066  0.5555
 7609SOL    HW123726   4.731   3.512   0.566  0.3246 -0.1620 -0.0027
 7609SOL    HW223727   4.828   3.641   0.593 -0.7179  0.8765 -1.1125
 7610SOL     OW23728   0.215   3.990   3.220  0.5306  0.0266  0.1598
 7610SOL    HW123729   0.235   4.084   3.193 -1.0571  1.0622  2.2475
 7610SOL    HW223730   0.123   3.965   3.189 -0.0454  0.1195  1.6640
 7611SOL     OW23731   0.018   4.879   6.183 -0.1172  0.0001  0.3582
 7611SOL    HW123732   0.036   4.871   6.281  0.0758  0.8276  0.4051
 7611SOL    HW223733   0.103   4.903   6.135 -0.1938 -0.4807 -0.0209
 7612SOL     OW23734   6.483   2.200   0.318 -0.0036  0.0374  0.1385
 7612SOL    HW123735   6.560   2.262   0.303  0.4727 -0.2490  1.2426
 7612SOL    HW223736   6.518   2.109   0.341 -0.6526  0.0209  1.1145
 7613SOL     OW23737   3.521   0.023   3.552  0.2010  0.1562 -0.3537
 7613SOL    HW123738   3.429   0.017   3.513 -0.2751 -0.2441  0.7806
 7613SOL    HW223739   3.584   0.060   3.484 -0.6769 -0.1257 -1.3452
 7614SOL     OW23740   4.457   2.505   0.609  0.6090  0.2743  0.0853
 7614SOL    HW123741   4.371   2.546   0.580 -1.1975 -2.3281  1.3114
 7614SOL    HW223742   4.534   2.558   0.573 -1.4632  2.8665 -0.8179
 7615SOL     OW23743   0.190   2.181   5.851 -1.1766  0.4569 -0.4404
 7615SOL    HW123744   0.119   2.177   5.921 -0.9024  0.0795 -0.1865
 7615SOL    HW223745   0.189   2.096   5.798 -0.8377  0.4039 -0.3617
 7616SOL     OW23746   5.183   3.513   0.926  0.3131 -0.5429  0.6809
 7616SOL    HW123747   5.146   3.429   0.965  1.7853 -1.2395  0.6455
 7616SOL    HW223748   5.275   3.529   0.962 -0.4248  1.8003  1.7379
 7617SOL     OW23749   5.283   3.919   0.028 -0.1806  0.3055 -0.0458
 7617SOL    HW123750   5.369   3.900  -0.018 -0.8369  0.9131 -1.6036
 7617SOL    HW223751   5.273   4.018   0.039  0.0047  0.1709  1.5414
 7618SOL     OW23752   1.481   2.127   1.015  0.8527  0.1604 -0.0958
 7618SOL    HW123753   1.473   2.065   1.093 -1.3798  0.3468 -0.1180
 7618SOL    HW223754   1.474   2.222   1.047 -0.3415  0.2312 -0.5080
 7619SOL     OW23755   2.033   6.055   1.136  0.4043 -0.3606  0.2105
 7619SOL    HW123756   2.016   5.959   1.158 -1.3272 -0.4012 -1.0051
 7619SOL    HW223757   2.068   6.102   1.216  1.7297 -2.0793  0.7168
 7620SOL     OW23758   1.828   3.747   2.395  0.1443  0.1168  0.0578
 7620SOL    HW123759   1.921   3.714   2.411 -0.5008 -1.8482  0.0151
 7620SOL    HW223760   1.811   3.754   2.297  0.2480  0.4932  0.0659
 7621SOL     OW23761   1.974   1.914   5.589 -0.0389  0.5646 -0.0472
 7621SOL    HW123762   1.942   1.944   5.679  1.5664  0.2095  0.6809
 7621SOL    HW223763   2.005   1.819   5.595  2.2628  1.2193 -0.3332
 7622SOL     OW23764   4.085   1.257   5.484  0.3121  0.9288 -1.0062
 7622SOL    HW123765   4.086   1.357   5.487  0.8390  0.9084 -0.2743
 7622SOL    HW223766   3.994   1.225   5.511 -0.3839  1.2279 -2.8211
 7623SOL     OW23767   0.974   0.245   5.577 -0.0955  0.4456 -0.6018
 7623SOL    HW123768   0.953   0.328   5.525 -0.9719  0.0697 -0.8685
 7623SOL    HW223769   1.026   0.270   5.660 -1.7379  1.4646  0.1808
 7624SOL     OW23770   1.222   6.790   6.325 -0.1888  0.1886  0.4489
 7624SOL    HW123771   1.145   6.770   6.264 -0.2931  2.6359 -0.3270
 7624SOL    HW223772   1.308   6.767   6.279 -0.3349 -3.8162  1.8055
 7625SOL     OW23773   2.496   5.820   4.374  0.1847 -0.4852  0.2660
 7625SOL    HW123774   2.563   5.817   4.300 -0.6126  0.9650 -0.5494
 7625SOL    HW223775   2.428   5.747   4.361  1.9422 -2.4708  1.5182
 7626SOL     OW23776   4.372   0.257   1.336 -0.1259  0.1586  0.6280
 7626SOL    HW123777   4.416   0.194   1.271 -0.8365  0.0687  0.2115
 7626SOL    HW223778   4.430   0.270   1.416  0.1311 -0.8641  0.6186
 7627SOL     OW23779   0.710   1.378   3.883 -0.6821 -0.4870  0.6136
 7627SOL    HW123780   0.706   1.470   3.844  1.4565 -0.0878  1.1863
 7627SOL    HW223781   0.762   1.318   3.823 -0.1148 -0.7151  1.3169
 7628SOL     OW23782   3.194   6.521   0.455 -0.4181 -0.5797  0.4341
 7628SOL    HW123783   3.158   6.599   0.404 -3.0250 -2.8463 -1.5215
 7628SOL    HW223784   3.170   6.530   0.552 -2.0462  0.3526 -0.0269
 7629SOL     OW23785   3.556   2.283   0.806 -0.1292 -0.1107  0.1560
 7629SOL    HW123786   3.542   2.376   0.772 -0.2191 -0.7321 -1.5924
 7629SOL    HW223787   3.543   2.217   0.732  0.7924 -1.4829  1.1504
 7630SOL     OW23788   6.084   4.313   0.987  0.4223  0.8050  0.0900
 7630SOL    HW123789   6.172   4.355   1.008  0.5131  1.0063 -0.6721
 7630SOL    HW223790   6.099   4.220   0.952  0.3318  0.8307 -0.0188
 7631SOL     OW23791   2.615   1.448   4.485  0.1402 -0.4058 -0.1136
 7631SOL    HW123792   2.682   1.504   4.534 -0.6015  1.0325 -0.7017
 7631SOL    HW223793   2.662   1.391   4.418  0.9683 -0.9581  0.9087
 7632SOL     OW23794   0.022   0.332   2.343  0.3409  0.3133 -0.0752
 7632SOL    HW123795  -0.078   0.334   2.349  0.2929 -2.1581  1.7273
 7632SOL    HW223796   0.061   0.349   2.434  1.6026  1.0811 -0.7179
 7633SOL     OW23797   5.558   5.655   2.098 -0.0243 -0.3646  0.4635
 7633SOL    HW123798   5.493   5.584   2.073 -1.1697  1.3147 -1.7614
 7633SOL    HW223799   5.599   5.693   2.014 -0.0599  2.0871  1.4729
 7634SOL     OW23800   2.656   0.309   2.556 -0.1253 -0.3420 -0.2559
 7634SOL    HW123801   2.745   0.298   2.600 -0.3878  0.4167  0.5165
 7634SOL    HW223802   2.632   0.406   2.555 -0.7832 -0.5052 -0.7807
 7635SOL     OW23803   1.040   3.970   4.539 -0.2637  0.2075  0.1330
 7635SOL    HW123804   1.135   3.971   4.507 -0.2195  0.4656  0.2646
 7635SOL    HW223805   1.036   4.011   4.630 -0.4909  0.1280  0.1580
 7636SOL     OW23806   0.134   2.270   1.474 -0.0493 -0.1171 -1.1050
 7636SOL    HW123807   0.224   2.299   1.442  1.0988 -1.4530  0.7465
 7636SOL    HW223808   0.115   2.312   1.563 -0.8853 -0.5289 -1.0762
 7637SOL     OW23809   4.282   1.525   6.475  0.4073 -0.4541 -0.0410
 7637SOL    HW123810   4.306   1.428   6.473  2.3327 -0.0808  1.3914
 7637SOL    HW223811   4.280   1.561   6.382  0.9642 -1.5797 -0.5101
 7638SOL     OW23812   4.767   3.954   2.622 -0.1112 -0.5160 -0.0949
 7638SOL    HW123813   4.681   3.999   2.597 -1.2613 -2.0873  0.8597
 7638SOL    HW223814   4.805   3.908   2.542 -0.3798 -0.1816 -0.4197
 7639SOL     OW23815   5.172   3.546   2.993  0.0985  0.8378  0.3411
 7639SOL    HW123816   5.120   3.575   3.073 -1.5367 -0.1663 -0.3198
 7639SOL    HW223817   5.147   3.602   2.914  0.1764  0.4722  0.0564
 7640SOL     OW23818   0.265   5.800   6.508  0.0444 -0.0781  0.0460
 7640SOL    HW123819   0.269   5.796   6.408  0.8094 -2.2526  0.1108
 7640SOL    HW223820   0.226   5.714   6.543  1.3656 -0.0635  1.6754
 7641SOL     OW23821   1.073   6.311   1.261  0.3902 -0.4538 -0.5899
 7641SOL    HW123822   1.149   6.372   1.285 -0.4909  0.6974 -0.6400
 7641SOL    HW223823   1.071   6.297   1.162  1.3884 -1.6731 -0.4688
 7642SOL     OW23824   1.180   3.160   6.156 -0.0338 -0.0846 -0.0217
 7642SOL    HW123825   1.239   3.229   6.114 -1.3169  0.6589 -0.6688
 7642SOL    HW223826   1.138   3.198   6.239 -0.7854 -0.0359 -0.4086
 7643SOL     OW23827   4.116   1.125   1.299  0.9191  0.1844  0.2392
 7643SOL    HW123828   4.089   1.074   1.381  1.7683  1.4814  1.3818
 7643SOL    HW223829   4.113   1.223   1.319 -2.5082  0.8247 -2.4261
 7644SOL     OW23830   5.092   0.557   1.069  0.5558  0.4595  0.2046
 7644SOL    HW123831   5.072   0.655   1.072 -0.4543  0.2830 -0.4952
 7644SOL    HW223832   5.068   0.516   1.157 -2.6678  0.2011 -0.6596
 7645SOL     OW23833   3.732   3.011   1.933 -0.5772 -0.1007 -0.4674
 7645SOL    HW123834   3.681   2.994   2.018 -0.0329 -0.6974 -0.2517
 7645SOL    HW223835   3.703   2.947   1.863 -0.9925  0.3618 -0.7248
 7646SOL     OW23836   1.451   6.900   1.889  0.2354 -0.1716  0.5129
 7646SOL    HW123837   1.471   6.898   1.987  0.0388 -0.2861  0.5503
 7646SOL    HW223838   1.481   6.815   1.847  2.2248  0.6689  0.0987
 7647SOL     OW23839   2.166   0.662   1.665  0.2754  0.3623 -0.3159
 7647SOL    HW123840   2.078   0.658   1.617  0.2443 -0.5478 -0.2130
 7647SOL    HW223841   2.156   0.619   1.755  1.2109 -1.2873 -0.9526
 7648SOL     OW23842   1.775   3.214   2.916  0.4120 -0.4407  0.0463
 7648SOL    HW123843   1.800   3.299   2.869  0.5279 -0.4563  0.0780
 7648SOL    HW223844   1.763   3.232   3.013 -2.4203  0.1438 -0.3206
 7649SOL     OW23845   3.990   3.426   6.762  0.4722 -0.5028  0.3035
 7649SOL    HW123846   3.916   3.422   6.695  0.0567 -1.0069  0.7874
 7649SOL    HW223847   4.024   3.520   6.769  0.1139 -0.3335 -0.1675
 7650SOL     OW23848   5.326   4.563   1.002  0.2733  0.1988  0.1326
 7650SOL    HW123849   5.380   4.478   1.002 -0.7605 -0.4821  0.4700
 7650SOL    HW223850   5.314   4.594   1.096  0.1759  0.4084  0.0500
 7651SOL     OW23851   3.427   3.132   6.531 -0.2752 -0.1139 -0.6344
 7651SOL    HW123852   3.373   3.128   6.615 -1.2385  1.4144 -1.1479
 7651SOL    HW223853   3.370   3.106   6.454  0.0132  0.4705 -1.0531
 7652SOL     OW23854   5.823   3.987   2.591  0.4039 -0.4587  0.5546
 7652SOL    HW123855   5.806   4.066   2.651 -0.7145  0.1160 -0.4771
 7652SOL    HW223856   5.826   4.017   2.496 -0.1623 -1.6791  0.1314
 7653SOL     OW23857   2.694   2.237   5.427  0.3942  0.2714  0.1432
 7653SOL    HW123858   2.726   2.159   5.480  1.5503  0.6087 -0.0369
 7653SOL    HW223859   2.600   2.258   5.452  0.3445 -0.6687  0.7786
 7654SOL     OW23860   5.400   5.279   6.807  0.8720  0.2581 -0.1408
 7654SOL    HW123861   5.336   5.318   6.873  0.7645 -1.1208  0.6155
 7654SOL    HW223862   5.352   5.210   6.751  0.9505  1.4101 -1.7061
 7655SOL     OW23863   3.907   0.076   3.186  0.3505 -0.0990  0.4166
 7655SOL    HW123864   3.874   0.098   3.094 -0.4663 -0.6084  0.5814
 7655SOL    HW223865   3.984   0.013   3.179 -0.1726 -0.7161  0.0959
 7656SOL     OW23866   5.544   6.445   6.016  0.2044  0.2754  0.1638
 7656SOL    HW123867   5.549   6.469   6.113  0.7145 -1.3805  0.5789
 7656SOL    HW223868   5.467   6.384   6.000  0.5166  0.0022 -0.3415
 7657SOL     OW23869   5.035   1.546   2.460 -0.3124  0.0160  0.1040
 7657SOL    HW123870   5.026   1.644   2.478  0.2345  0.2186 -0.6713
 7657SOL    HW223871   5.080   1.532   2.372 -2.4177 -0.9327 -0.9094
 7658SOL     OW23872   1.959   1.336   4.674 -0.1129 -0.4402 -0.0078
 7658SOL    HW123873   2.013   1.385   4.605 -2.2146  3.7257  1.0079
 7658SOL    HW223874   1.864   1.331   4.645 -0.3332 -2.3348  0.8655
 7659SOL     OW23875   1.915   1.347   2.913 -0.1737 -0.2556 -0.4121
 7659SOL    HW123876   1.931   1.426   2.854  1.4507 -0.8979 -0.8905
 7659SOL    HW223877   1.837   1.295   2.879 -0.1454  0.1790 -1.1657
 7660SOL     OW23878   1.721   3.809   3.940  0.1009 -0.1137  0.2917
 7660SOL    HW123879   1.782   3.877   3.900  0.1448  0.8064  1.8255
 7660SOL    HW223880   1.630   3.818   3.899  0.1576  0.7547  0.3220
 7661SOL     OW23881   3.205   6.250   0.670 -0.0077  0.4001 -0.8043
 7661SOL    HW123882   3.215   6.326   0.606 -2.4445  1.5716  0.0801
 7661SOL    HW223883   3.146   6.179   0.630  0.8066 -0.2120 -0.9405
 7662SOL     OW23884   0.260   1.738   1.338  0.0546 -0.0916 -0.0221
 7662SOL    HW123885   0.234   1.800   1.413 -0.9287 -0.1023 -0.3359
 7662SOL    HW223886   0.341   1.773   1.292  0.0371  0.4862  0.3805
 7663SOL     OW23887   4.245   1.410   2.294 -0.8510  0.4500 -0.1883
 7663SOL    HW123888   4.166   1.441   2.241 -1.3512 -0.0164  0.2671
 7663SOL    HW223889   4.227   1.426   2.391  0.3901  2.0496 -0.1913
 7664SOL     OW23890   0.366   3.476   0.837  0.4652 -0.2488  0.1939
 7664SOL    HW123891   0.306   3.400   0.811  0.8942 -0.2899 -0.6910
 7664SOL    HW223892   0.456   3.441   0.860  1.0065  0.0764 -1.3230
 7665SOL     OW23893   6.137   5.975   1.577  0.2173  0.3904  0.2820
 7665SOL    HW123894   6.149   5.881   1.608 -0.4679  0.9447  2.3727
 7665SOL    HW223895   6.065   5.979   1.509  1.0678 -0.7378 -0.7315
 7666SOL     OW23896   1.509   5.741   4.094 -0.1693  0.3137  0.2978
 7666SOL    HW123897   1.491   5.674   4.165 -0.9756 -1.0234 -1.1035
 7666SOL    HW223898   1.556   5.820   4.133  3.6579 -2.3025  1.5050
 7667SOL     OW23899   3.951   6.451   5.214 -0.0732  0.2557 -0.0710
 7667SOL    HW123900   3.867   6.438   5.161 -0.6650  0.6962  0.7371
 7667SOL    HW223901   4.013   6.511   5.165  0.4690 -1.3433 -1.4241
 7668SOL     OW23902   0.842   2.212   0.751 -0.5333  0.7704 -0.4953
 7668SOL    HW123903   0.923   2.188   0.805 -0.7585 -0.4535 -0.6810
 7668SOL    HW223904   0.760   2.202   0.807 -0.7812 -0.6555 -1.0950
 7669SOL     OW23905   2.780   5.723   1.140 -0.5396  0.0725  0.7923
 7669SOL    HW123906   2.687   5.753   1.161 -0.8570 -0.6176  0.4059
 7669SOL    HW223907   2.836   5.802   1.117 -1.2780  0.3973  0.0914
 7670SOL     OW23908   1.721   4.481   4.602  0.2063  0.2646  0.2165
 7670SOL    HW123909   1.760   4.500   4.692 -0.5150 -0.6255  0.7394
 7670SOL    HW223910   1.787   4.431   4.547  0.4363  0.2887  0.4700
 7671SOL     OW23911   5.249   0.738   0.066 -0.4689 -0.0561 -0.6839
 7671SOL    HW123912   5.203   0.807   0.010 -3.0048  0.2469  1.5723
 7671SOL    HW223913   5.254   0.652   0.016 -0.0736  0.9075 -2.3747
 7672SOL     OW23914   0.847   1.901   5.089 -0.1238  0.0293  0.3969
 7672SOL    HW123915   0.833   1.983   5.032 -2.0098 -1.2245 -1.0834
 7672SOL    HW223916   0.869   1.823   5.030 -1.8142 -1.2586  1.3756
 7673SOL     OW23917   2.111   0.250   6.907  0.0787  0.1349  0.0528
 7673SOL    HW123918   2.039   0.237   6.840  0.6963 -4.1669 -0.0573
 7673SOL    HW223919   2.182   0.309   6.869 -1.0181  0.3390 -1.8089
 7674SOL     OW23920   3.902   5.199   1.045 -0.2008 -0.3655 -0.0896
 7674SOL    HW123921   3.858   5.219   0.958 -0.3467 -1.2735 -0.2340
 7674SOL    HW223922   3.872   5.265   1.114 -2.1426 -1.1815 -0.0723
 7675SOL     OW23923   4.572   5.168   7.011 -0.0813 -0.1730  0.1779
 7675SOL    HW123924   4.611   5.087   6.967  3.7153  1.3634  0.3362
 7675SOL    HW223925   4.618   5.183   7.098 -1.8416  1.3101  0.9073
 7676SOL     OW23926   4.696   5.037   6.268 -0.4505  0.2037 -0.3498
 7676SOL    HW123927   4.661   5.011   6.179 -0.9752  0.1097 -0.1197
 7676SOL    HW223928   4.679   5.135   6.284  1.1278  0.6132 -1.0320
 7677SOL     OW23929   0.432   6.787   6.185  0.2513 -0.0941 -0.6473
 7677SOL    HW123930   0.404   6.858   6.249 -0.3748 -1.2304  0.3874
 7677SOL    HW223931   0.474   6.711   6.235 -0.5294 -1.1503 -1.5321
 7678SOL     OW23932   3.426   5.437   2.341 -0.1779  0.1290 -0.1691
 7678SOL    HW123933   3.518   5.397   2.345 -0.2802 -0.6261 -3.1533
 7678SOL    HW223934   3.434   5.536   2.324  0.0924  0.0138 -0.7382
 7679SOL     OW23935   2.011   5.832   5.438 -0.6666 -0.4574 -0.5791
 7679SOL    HW123936   2.102   5.805   5.471 -0.3365  0.5640 -0.6237
 7679SOL    HW223937   2.015   5.924   5.400 -1.9608  0.1042  0.5321
 7680SOL     OW23938   0.250   3.326   1.061  0.3391  0.4326  0.2993
 7680SOL    HW123939   0.268   3.418   1.027  1.1684  1.5823  3.4968
 7680SOL    HW223940   0.162   3.325   1.108  0.5724 -0.2319  0.7356
 7681SOL     OW23941   1.433   2.368   2.285 -0.4720  0.0025 -0.4805
 7681SOL    HW123942   1.353   2.313   2.261 -0.2794 -0.1551 -0.7653
 7681SOL    HW223943   1.509   2.308   2.309 -0.1449  0.1348 -1.1599
 7682SOL     OW23944   1.233   3.191   3.062  0.0243 -0.3537 -0.0214
 7682SOL    HW123945   1.205   3.261   2.997  0.3502 -0.0568  0.1499
 7682SOL    HW223946   1.232   3.102   3.018 -0.2084 -0.2166 -0.2989
 7683SOL     OW23947   3.661   6.001   2.311  0.3358 -0.7503  0.2582
 7683SOL    HW123948   3.674   5.958   2.400  0.6254 -3.9225 -1.1966
 7683SOL    HW223949   3.746   5.996   2.258 -0.7269 -2.1886 -1.4451
 7684SOL     OW23950   5.543   1.085   3.556 -0.8640 -0.3523 -0.0354
 7684SOL    HW123951   5.518   1.146   3.631 -1.3948 -0.1452 -0.3753
 7684SOL    HW223952   5.627   1.117   3.513 -0.3024 -0.7217  0.7415
 7685SOL     OW23953   0.169   2.913   1.650 -0.2288 -0.2904 -0.2727
 7685SOL    HW123954   0.155   2.988   1.715  2.4889  0.2348 -0.1841
 7685SOL    HW223955   0.114   2.930   1.568 -2.6643 -0.2759  1.2332
 7686SOL     OW23956   5.205   6.091   4.355  0.0501 -0.3835  0.0699
 7686SOL    HW123957   5.156   6.156   4.414 -0.2509 -0.9127  0.4078
 7686SOL    HW223958   5.276   6.044   4.409  0.8790  0.3034 -0.3891
 7687SOL     OW23959   2.076   0.388   1.370  0.0749  0.1457 -0.1663
 7687SOL    HW123960   2.124   0.309   1.332  0.6225 -0.3165  1.3879
 7687SOL    HW223961   1.987   0.397   1.326  0.1737 -1.0929 -0.6752
 7688SOL     OW23962   1.984   1.923   0.739 -0.4047  0.5606  0.3068
 7688SOL    HW123963   1.889   1.913   0.710 -0.9143  1.2390  1.6738
 7688SOL    HW223964   2.027   1.995   0.686 -1.5718  2.3688  1.6794
 7689SOL     OW23965   0.150   2.963   0.997  0.0144  0.0571 -0.0139
 7689SOL    HW123966   0.207   2.889   0.960  0.2106  0.4589 -0.5303
 7689SOL    HW223967   0.054   2.947   0.975  0.0038 -0.2683  0.2608
 7690SOL     OW23968   0.314   1.862   6.830  0.1133 -0.0042 -0.2812
 7690SOL    HW123969   0.376   1.934   6.860 -0.2697  0.0475  0.4060
 7690SOL    HW223970   0.366   1.778   6.812  0.4812  0.2696 -0.5086
 7691SOL     OW23971   2.831   0.558   4.883 -0.1670 -0.3256 -0.5286
 7691SOL    HW123972   2.786   0.647   4.884 -2.6375 -1.5173  0.4518
 7691SOL    HW223973   2.825   0.519   4.791 -1.9581 -0.8198 -0.2340
 7692SOL     OW23974   6.422   0.464   6.742 -0.4210 -0.0369  0.6399
 7692SOL    HW123975   6.415   0.557   6.705  0.3841 -0.0823  0.3628
 7692SOL    HW223976   6.362   0.403   6.689  0.9633 -0.1736 -0.8556
 7693SOL     OW23977   0.011   6.095   6.884  0.5948  0.3286  0.3965
 7693SOL    HW123978  -0.009   6.083   6.981  2.6861  1.1720  0.9999
 7693SOL    HW223979  -0.047   6.168   6.847  0.3509  0.5692  1.2233
 7694SOL     OW23980   2.502   0.855   6.624  0.2364 -0.0290  0.4357
 7694SOL    HW123981   2.503   0.821   6.718 -0.8702  0.8081  0.7740
 7694SOL    HW223982   2.489   0.778   6.561  0.4638 -0.5339  0.9924
 7695SOL     OW23983   6.946   3.739   4.821  0.0937 -0.0704  0.5155
 7695SOL    HW123984   7.034   3.786   4.811 -0.5239  0.9043 -0.5216
 7695SOL    HW223985   6.934   3.712   4.917  2.4638 -2.1946  0.3378
 7696SOL     OW23986   2.308   5.121   6.206 -0.2919 -0.2551  0.4415
 7696SOL    HW123987   2.241   5.155   6.272  1.2149  2.6135  0.6520
 7696SOL    HW223988   2.309   5.180   6.126  1.2897 -0.7917  0.0224
 7697SOL     OW23989   2.826   3.725   1.763  0.0110  0.0200 -0.0252
 7697SOL    HW123990   2.918   3.763   1.756  0.3199 -0.9244 -1.8208
 7697SOL    HW223991   2.763   3.781   1.709 -0.3187  0.2431  0.5888
 7698SOL     OW23992   3.451   0.100   4.330  0.2736  0.2383  0.0888
 7698SOL    HW123993   3.507   0.182   4.346 -0.8536  1.2064 -0.7260
 7698SOL    HW223994   3.364   0.127   4.290 -1.1898 -1.1262  2.1640
 7699SOL     OW23995   0.618   6.185   1.614  0.0690  0.2172 -0.3725
 7699SOL    HW123996   0.598   6.098   1.570 -3.0225  0.2776  0.6960
 7699SOL    HW223997   0.639   6.254   1.544 -1.2678 -0.4934 -1.5097
 7700SOL     OW23998   0.880   5.957   4.564  0.3903  0.1197 -0.4515
 7700SOL    HW123999   0.905   6.003   4.479  0.7803  0.4869 -0.1445
 7700SOL    HW224000   0.815   5.884   4.545  0.7707 -0.0472 -1.1103
 7701SOL     OW24001   6.948   5.815   0.729 -0.6741  0.1071 -0.6335
 7701SOL    HW124002   6.885   5.846   0.801 -0.7991 -0.7337 -0.3676
 7701SOL    HW224003   7.042   5.815   0.764 -1.0285 -3.7290  0.8592
 7702SOL     OW24004   6.300   4.514   1.022 -0.5756 -0.2008  0.4076
 7702SOL    HW124005   6.297   4.530   1.121 -2.2889  0.2673  0.3160
 7702SOL    HW224006   6.378   4.455   1.000 -1.5742 -2.4536  2.3896
 7703SOL     OW24007   6.088   5.005   0.947  0.6300  0.4131  0.2350
 7703SOL    HW124008   6.113   4.908   0.953  0.4023  0.3847  0.7230
 7703SOL    HW224009   6.009   5.023   1.005 -0.9721  0.3669 -1.8211
 7704SOL     OW24010   2.815   1.780   3.818 -0.4567  0.3346 -0.8747
 7704SOL    HW124011   2.835   1.842   3.742  0.8215 -1.2334 -1.8859
 7704SOL    HW224012   2.772   1.697   3.783  1.4589 -1.0387 -0.1228
 7705SOL     OW24013   6.201   3.035   2.084  0.0783 -0.0077  0.1308
 7705SOL    HW124014   6.116   2.995   2.050  1.6013 -0.8429 -3.0722
 7705SOL    HW224015   6.231   2.986   2.165 -0.7432 -2.0099 -0.7091
 7706SOL     OW24016   2.167   3.466   3.981 -0.4174  0.6520  0.4000
 7706SOL    HW124017   2.140   3.526   3.905 -1.6495 -0.0131  0.3011
 7706SOL    HW224018   2.185   3.522   4.062  1.5581  1.4524 -0.4940
 7707SOL     OW24019   1.072   1.934   4.630 -0.3715  0.2372 -0.2320
 7707SOL    HW124020   1.100   1.841   4.650 -0.4384  0.4684  1.0287
 7707SOL    HW224021   1.120   1.998   4.691 -0.2102  1.0424 -1.1746
 7708SOL     OW24022   0.087   1.544   4.471  0.2537  0.5092 -0.1344
 7708SOL    HW124023   0.043   1.510   4.389 -0.2697 -1.9897  1.1010
 7708SOL    HW224024   0.032   1.520   4.552  2.5200 -0.3928  1.2409
 7709SOL     OW24025   1.931   6.915   6.479  0.3536  0.2306 -0.5017
 7709SOL    HW124026   1.914   6.875   6.388  2.3020 -1.0354 -0.3764
 7709SOL    HW224027   1.954   6.842   6.543  0.8758  1.2887  0.5499
 7710SOL     OW24028   3.452   5.830   2.721 -0.3991  0.6072 -0.0074
 7710SOL    HW124029   3.431   5.732   2.724  0.4722  0.4308  0.9414
 7710SOL    HW224030   3.483   5.860   2.811 -0.2101  1.6627 -0.4129
 7711SOL     OW24031   0.562   2.951   6.983  0.2207  0.2522  0.3930
 7711SOL    HW124032   0.606   2.867   7.014 -1.2272 -1.0058 -0.8051
 7711SOL    HW224033   0.467   2.954   7.016  0.2953  1.5328  0.5704
 7712SOL     OW24034   6.339   4.616   4.442 -0.0088 -0.1949  0.4397
 7712SOL    HW124035   6.384   4.614   4.353  1.1706 -1.1735  1.0324
 7712SOL    HW224036   6.250   4.661   4.433  0.5498  0.6918 -1.0011
 7713SOL     OW24037   3.160   5.525   0.168 -0.1206 -0.2457 -0.2439
 7713SOL    HW124038   3.184   5.481   0.081  1.7464 -0.1919  0.1886
 7713SOL    HW224039   3.110   5.609   0.150 -1.9135 -1.4512 -1.1520
 7714SOL     OW24040   4.792   0.612   6.879 -0.1435  0.2024  0.4239
 7714SOL    HW124041   4.879   0.563   6.877 -0.7570 -1.0479  2.1520
 7714SOL    HW224042   4.803   0.701   6.834  1.6808 -0.4145 -0.4650
 7715SOL     OW24043   3.265   0.170   5.712  0.1523  0.2921  0.6188
 7715SOL    HW124044   3.288   0.139   5.804 -1.1327 -1.0488  0.5243
 7715SOL    HW224045   3.344   0.159   5.652  1.2925  2.0381  1.7242
 7716SOL     OW24046   2.398   4.776   2.169 -0.3215 -0.2548 -0.6005
 7716SOL    HW124047   2.448   4.692   2.192  0.0580  0.5318  1.6914
 7716SOL    HW224048   2.310   4.776   2.215 -0.3262  0.6018 -0.5982
 7717SOL     OW24049   3.350   1.421   2.043 -0.1573  0.7729 -0.1445
 7717SOL    HW124050   3.356   1.521   2.042 -3.7342  1.0940 -0.3552
 7717SOL    HW224051   3.359   1.389   2.137 -2.4751  1.7032  0.4727
 7718SOL     OW24052   5.454   3.061   6.386  0.0163 -0.3902  0.1132
 7718SOL    HW124053   5.543   3.034   6.421 -0.0833 -0.5197  0.2682
 7718SOL    HW224054   5.399   3.101   6.460  0.2191  0.3821 -0.1500
 7719SOL     OW24055   0.609   0.074   4.506  0.0538 -0.5538  0.5852
 7719SOL    HW124056   0.562   0.100   4.591 -1.0668  2.2881 -0.7506
 7719SOL    HW224057   0.639   0.157   4.459  0.2028 -2.0068 -2.0421
 7720SOL     OW24058   4.172   3.924   6.739 -0.3359  0.0414 -0.0855
 7720SOL    HW124059   4.186   3.931   6.640 -0.1020 -4.0545 -0.5167
 7720SOL    HW224060   4.261   3.929   6.785 -0.5066  2.7672  0.1262
 7721SOL     OW24061   6.704   0.728   5.406 -0.0555 -0.4364  0.3400
 7721SOL    HW124062   6.729   0.807   5.463 -1.0992 -0.1625  0.4521
 7721SOL    HW224063   6.674   0.653   5.465  1.5474 -1.1654  0.2635
 7722SOL     OW24064   5.250   3.651   3.389 -0.1488 -0.4972  0.2099
 7722SOL    HW124065   5.163   3.604   3.400 -0.0405 -0.2597  2.8199
 7722SOL    HW224066   5.324   3.589   3.416  0.4628 -0.4992 -1.3943
 7723SOL     OW24067   5.989   6.389   3.529  0.2503 -0.2493 -0.3124
 7723SOL    HW124068   6.043   6.378   3.612  1.3674  3.0480 -0.5044
 7723SOL    HW224069   6.049   6.403   3.451 -0.8505 -0.8204 -1.3017
 7724SOL     OW24070   1.380   2.520   2.784  0.2122  0.0582  0.2110
 7724SOL    HW124071   1.451   2.476   2.839  0.0955 -1.8469 -1.0885
 7724SOL    HW224072   1.422   2.573   2.710  0.3052 -1.1864 -0.6447
 7725SOL     OW24073   4.574   5.676   5.416 -0.2152  0.3102 -0.1154
 7725SOL    HW124074   4.614   5.618   5.345 -0.8422 -1.1088  0.6505
 7725SOL    HW224075   4.522   5.749   5.373  0.4257  0.2116 -1.1085
 7726SOL     OW24076   3.045   3.268   5.086 -0.7342 -0.4877 -0.2249
 7726SOL    HW124077   2.993   3.326   5.149 -2.6950 -0.6254 -1.6516
 7726SOL    HW224078   3.105   3.326   5.031 -1.0475 -0.0594 -0.1235
 7727SOL     OW24079   0.164   3.424   2.615 -0.1281  0.3020  0.2711
 7727SOL    HW124080   0.089   3.449   2.554  0.0724 -1.7186 -0.8952
 7727SOL    HW224081   0.230   3.367   2.566  2.0823  1.7765  1.3419
 7728SOL     OW24082   0.952   2.611   0.714 -0.1550 -0.4213 -0.3914
 7728SOL    HW124083   1.016   2.636   0.641 -1.2708  0.0672 -1.2361
 7728SOL    HW224084   0.882   2.549   0.678  0.4225 -1.8076  0.7810
 7729SOL     OW24085   5.339   1.571   2.652 -0.1276  0.0396 -0.3019
 7729SOL    HW124086   5.319   1.484   2.607  2.0746 -0.0937 -1.1162
 7729SOL    HW224087   5.284   1.578   2.736 -2.4544 -0.8171 -1.6535
 7730SOL     OW24088   2.666   6.474   2.567 -0.0835  0.1421 -0.1229
 7730SOL    HW124089   2.709   6.472   2.477  0.0948 -0.4143 -0.0332
 7730SOL    HW224090   2.583   6.529   2.564  0.3386  0.7848 -0.4331
 7731SOL     OW24091   6.026   4.605   6.237 -0.4998  0.9771 -0.1308
 7731SOL    HW124092   5.942   4.551   6.227 -0.2667  0.6518 -0.3963
 7731SOL    HW224093   6.087   4.558   6.301  0.3590  0.0747 -1.5477
 7732SOL     OW24094   3.173   0.632   1.734 -0.4944  0.1725 -0.0184
 7732SOL    HW124095   3.269   0.661   1.725 -0.1819 -0.6902  0.4407
 7732SOL    HW224096   3.118   0.680   1.665  0.3241  0.4038 -0.5365
 7733SOL     OW24097   0.213   4.190   0.142 -0.1728  0.3125  0.1989
 7733SOL    HW124098   0.247   4.156   0.230 -0.2953 -0.0348  0.1134
 7733SOL    HW224099   0.188   4.286   0.151 -0.2964  0.2477  0.5739
 7734SOL     OW24100   6.734   1.146   5.460 -0.4959 -0.4672  0.4915
 7734SOL    HW124101   6.801   1.106   5.523 -1.0720  0.3237  1.6378
 7734SOL    HW224102   6.782   1.184   5.381  0.3385 -0.6403  0.8973
 7735SOL     OW24103   5.871   0.838   0.195  0.5113 -0.3661 -0.3172
 7735SOL    HW124104   5.789   0.864   0.144  2.2149  0.0409 -3.0310
 7735SOL    HW224105   5.903   0.749   0.163  0.8922 -0.7695  1.0989
 7736SOL     OW24106   1.908   2.144   6.466  0.0061  0.1468 -0.2804
 7736SOL    HW124107   1.939   2.050   6.472 -3.1889 -1.0569 -0.6912
 7736SOL    HW224108   1.857   2.168   6.548 -0.6718  0.9035 -0.9016
 7737SOL     OW24109   5.402   0.012   0.621 -0.4885  0.2721 -0.5013
 7737SOL    HW124110   5.323   0.004   0.682 -1.4055  1.0175 -1.5560
 7737SOL    HW224111   5.438  -0.079   0.601 -1.2040 -0.0910 -0.1688
 7738SOL     OW24112   0.786   2.483   5.894  0.1200 -0.7536  0.0681
 7738SOL    HW124113   0.854   2.491   5.966 -0.7473  0.0573  0.8199
 7738SOL    HW224114   0.811   2.543   5.818 -0.4355  0.5791  0.9100
 7739SOL     OW24115   2.285   0.791   6.310 -0.4352  0.7369 -0.3491
 7739SOL    HW124116   2.187   0.793   6.290 -0.2656 -1.0500 -1.5435
 7739SOL    HW224117   2.336   0.834   6.235 -0.0505 -2.6461 -2.2055
 7740SOL     OW24118   1.546   0.188   0.115  0.4670 -0.3270  0.4428
 7740SOL    HW124119   1.459   0.234   0.095  0.9617  0.5927  0.3406
 7740SOL    HW224120   1.531   0.118   0.185 -0.5802 -1.0279 -0.4512
 7741SOL     OW24121   1.792   1.369   0.157 -0.6310  0.0895  0.1985
 7741SOL    HW124122   1.883   1.405   0.137 -0.1220 -1.1587  0.1899
 7741SOL    HW224123   1.801   1.286   0.212 -1.8224  0.7989  1.5541
 7742SOL     OW24124   0.286   0.623   4.101  0.6113  0.2414  0.0377
 7742SOL    HW124125   0.203   0.622   4.044  0.4853  1.2265  0.1951
 7742SOL    HW224126   0.279   0.552   4.171 -0.7053  1.1639  0.8877
 7743SOL     OW24127   6.770   0.142   4.061  0.3171 -0.2400  0.1887
 7743SOL    HW124128   6.815   0.053   4.074  0.5744  0.0415  1.3666
 7743SOL    HW224129   6.812   0.189   3.984  1.7783 -0.1790  0.9850
 7744SOL     OW24130   6.218   6.087   2.781  0.0163  0.3347  0.5507
 7744SOL    HW124131   6.312   6.105   2.751  0.2733  1.2086  1.7861
 7744SOL    HW224132   6.174   6.174   2.803 -0.7178 -0.1537  1.0331
 7745SOL     OW24133   5.125   2.480   5.318 -0.0020 -0.4560  0.0244
 7745SOL    HW124134   5.052   2.456   5.382 -0.7694  0.8999 -0.2895
 7745SOL    HW224135   5.087   2.488   5.225  0.5204  0.3201 -0.1333
 7746SOL     OW24136   0.445   2.071   2.090 -0.4066 -0.0185  0.2579
 7746SOL    HW124137   0.400   1.988   2.057 -1.9922  1.6057 -1.9258
 7746SOL    HW224138   0.380   2.125   2.143  0.0040  0.7432 -0.0052
 7747SOL     OW24139   6.026   6.515   5.127  0.0981  0.2214 -0.3516
 7747SOL    HW124140   6.068   6.554   5.209  0.4155  0.1329 -0.4733
 7747SOL    HW224141   6.012   6.417   5.140  0.7611  0.0789 -0.6532
 7748SOL     OW24142   5.347   2.584   5.923  0.3634  0.0028 -0.4425
 7748SOL    HW124143   5.264   2.614   5.970 -0.3737  2.0054 -2.7950
 7748SOL    HW224144   5.322   2.527   5.845  1.1836  0.4074 -1.0160
 7749SOL     OW24145   1.941   4.634   2.925  0.9487  0.1367 -0.3588
 7749SOL    HW124146   1.975   4.649   2.832  2.3456  0.4122  0.1807
 7749SOL    HW224147   1.898   4.544   2.930  2.1274 -0.4767 -0.9221
 7750SOL     OW24148   3.018   0.309   5.757  0.2828  0.0473 -0.1562
 7750SOL    HW124149   2.965   0.295   5.673  0.7701 -0.7846 -0.3373
 7750SOL    HW224150   3.116   0.299   5.737  0.5150  1.3119  0.2251
 7751SOL     OW24151   2.290   4.214   5.652  0.1887  0.0446 -0.3961
 7751SOL    HW124152   2.337   4.188   5.568  2.1870 -0.3384  0.7856
 7751SOL    HW224153   2.257   4.132   5.698  0.7226  0.1047  0.0969
 7752SOL     OW24154   3.753   5.310   1.268  0.0750  0.4546 -0.1253
 7752SOL    HW124155   3.670   5.275   1.224  1.4055 -0.4236 -2.0121
 7752SOL    HW224156   3.752   5.283   1.365 -0.4194 -2.2093 -0.7831
 7753SOL     OW24157   0.236   0.977   0.354 -0.3325  0.2338 -0.0432
 7753SOL    HW124158   0.220   1.073   0.333 -2.1084 -0.2475 -1.1249
 7753SOL    HW224159   0.202   0.920   0.279 -1.2042 -1.3165  1.4395
 7754SOL     OW24160   5.391   3.125   0.750 -0.0952 -0.1623  0.3011
 7754SOL    HW124161   5.427   3.217   0.767  0.4641 -0.3376  0.0997
 7754SOL    HW224162   5.460   3.071   0.701 -0.2416 -0.8329  0.8259
 7755SOL     OW24163   0.980   5.530   1.283  0.1271 -0.6465 -0.5624
 7755SOL    HW124164   1.053   5.598   1.294 -0.9097  0.7901 -2.0607
 7755SOL    HW224165   0.938   5.512   1.372  1.4644 -0.5540  0.1135
 7756SOL     OW24166   5.921   0.090   0.491 -0.3153 -0.4587 -1.0095
 7756SOL    HW124167   5.842   0.033   0.472  1.1820 -3.0646 -0.0075
 7756SOL    HW224168   5.977   0.098   0.408  0.2178 -1.8117 -0.8166
 7757SOL     OW24169   1.488   5.326   0.687 -0.1181  1.3040 -0.3317
 7757SOL    HW124170   1.413   5.389   0.709 -0.1092  1.0265  0.5342
 7757SOL    HW224171   1.492   5.254   0.757  0.4727  0.8827 -0.7944
 7758SOL     OW24172   2.136   6.079   6.241  0.2927 -0.6426  0.2399
 7758SOL    HW124173   2.064   6.016   6.212 -0.6671  0.3823  0.3289
 7758SOL    HW224174   2.170   6.130   6.163 -1.3125  1.1121  0.6070
 7759SOL     OW24175   6.898   2.632   0.345 -0.2944 -0.0395  0.2493
 7759SOL    HW124176   6.843   2.715   0.355  1.9564  1.3296  2.6982
 7759SOL    HW224177   6.856   2.558   0.397 -1.9323 -0.2752 -1.3437
 7760SOL     OW24178   3.811   5.851   3.316 -0.4887  0.2386 -0.1329
 7760SOL    HW124179   3.719   5.886   3.335  0.0131  0.7387  1.6173
 7760SOL    HW224180   3.853   5.906   3.244 -0.6801  1.6348  0.7597
 7761SOL     OW24181   0.868   6.122   1.960 -0.1251 -0.3353  0.1558
 7761SOL    HW124182   0.866   6.022   1.953  1.2387 -0.2851 -1.4979
 7761SOL    HW224183   0.896   6.161   1.872  1.3612  1.4110  1.3472
 7762SOL     OW24184   5.939   6.141   2.863 -0.3588  0.0532 -0.2940
 7762SOL    HW124185   5.892   6.057   2.891 -0.1918  0.1049  0.1620
 7762SOL    HW224186   5.978   6.186   2.944 -0.2023  0.4226 -0.5679
 7763SOL     OW24187   6.865   4.561   3.838 -0.0376 -0.4261  0.4752
 7763SOL    HW124188   6.842   4.527   3.747 -1.6141 -1.0456  1.0714
 7763SOL    HW224189   6.797   4.630   3.865  1.1278  0.6699  0.6973
 7764SOL     OW24190   3.497   0.801   4.666  0.4737  0.1910 -0.7213
 7764SOL    HW124191   3.447   0.772   4.748 -0.0527 -0.7926 -1.3652
 7764SOL    HW224192   3.485   0.899   4.652 -1.2195  0.0123 -0.7892
 7765SOL     OW24193   4.480   1.816   1.329  0.3406  0.2228 -0.0971
 7765SOL    HW124194   4.485   1.729   1.281  1.3019 -1.5814  2.9680
 7765SOL    HW224195   4.390   1.825   1.372  1.6114 -1.6392  3.3551
 7766SOL     OW24196   2.005   1.209   5.311 -0.0697 -0.1219 -0.0693
 7766SOL    HW124197   1.932   1.145   5.285  0.6280 -1.2750  0.7133
 7766SOL    HW224198   1.967   1.300   5.323 -0.9510 -0.1753 -2.0811
 7767SOL     OW24199   6.400   3.243   4.674  0.2273  0.3326 -0.2871
 7767SOL    HW124200   6.446   3.302   4.740 -0.2145  0.1227  0.2153
 7767SOL    HW224201   6.452   3.157   4.665 -0.6774 -0.4119  1.1921
 7768SOL     OW24202   2.597   6.504   3.417 -0.0446  0.1999  0.1844
 7768SOL    HW124203   2.525   6.573   3.413  1.4775  1.8031 -2.6601
 7768SOL    HW224204   2.557   6.413   3.405 -1.8975  0.6491  2.2927
 7769SOL     OW24205   4.825   6.154   2.603 -0.4874  0.1051 -0.2365
 7769SOL    HW124206   4.747   6.148   2.540  0.1449 -0.5506 -0.9842
 7769SOL    HW224207   4.793   6.187   2.692 -1.3558  1.3123 -0.9625
 7770SOL     OW24208   5.989   5.961   5.873 -0.6658  0.4514 -0.3611
 7770SOL    HW124209   6.050   5.892   5.913 -1.0280  1.0272  1.2655
 7770SOL    HW224210   6.042   6.043   5.853 -0.6950  0.5671  0.0281
 7771SOL     OW24211   5.584   2.651   6.224 -0.4538  0.3509  0.5676
 7771SOL    HW124212   5.521   2.576   6.243 -0.6579  0.1779 -0.6926
 7771SOL    HW224213   5.541   2.715   6.160  0.3241  0.6959  0.3799
 7772SOL     OW24214   5.241   2.350   1.726 -0.0789 -0.2307 -0.0274
 7772SOL    HW124215   5.178   2.326   1.800 -1.4240 -0.2755 -1.1618
 7772SOL    HW224216   5.256   2.271   1.667 -0.9481  0.4351 -1.1826
 7773SOL     OW24217   2.031   1.087   4.547  0.5380  0.1706  0.0931
 7773SOL    HW124218   2.023   1.184   4.569  0.1332 -0.2690  2.0515
 7773SOL    HW224219   2.112   1.049   4.592  1.7835 -0.0364 -2.1864
 7774SOL     OW24220   4.904   4.243   2.328  0.2140 -0.1030 -0.7029
 7774SOL    HW124221   4.937   4.178   2.397 -1.0611  1.2329  1.2753
 7774SOL    HW224222   4.817   4.211   2.291 -1.1846  1.0645  1.3619
 7775SOL     OW24223   5.925   5.748   4.575  0.1431 -0.2296 -0.5760
 7775SOL    HW124224   5.866   5.672   4.548  0.6872 -1.1603  0.7571
 7775SOL    HW224225   5.871   5.816   4.625 -0.4968  0.6511 -2.3901
 7776SOL     OW24226   1.521   6.998   3.380 -0.3420  0.1032 -0.1925
 7776SOL    HW124227   1.495   6.923   3.439 -1.1207  0.1080 -0.5232
 7776SOL    HW224228   1.540   7.079   3.435  0.3413 -0.2835  0.1505
 7777SOL     OW24229   2.503   5.421   5.245 -0.0071 -0.0428 -0.8944
 7777SOL    HW124230   2.435   5.410   5.317 -0.7494 -1.3559 -1.7518
 7777SOL    HW224231   2.496   5.513   5.207  1.0481  1.0277  1.2983
 7778SOL     OW24232   3.916   5.494   6.288 -0.1567 -0.3563 -0.9614
 7778SOL    HW124233   4.000   5.507   6.235  0.7585  1.3209  0.8076
 7778SOL    HW224234   3.933   5.430   6.363 -0.5330 -0.1873 -0.7279
 7779SOL     OW24235   0.188   3.222   6.527  0.1508 -0.3900  0.0514
 7779SOL    HW124236   0.280   3.254   6.550 -0.2281 -0.7114  2.2704
 7779SOL    HW224237   0.193   3.161   6.448  2.0454 -1.3752  0.8571
 7780SOL     OW24238   4.711   4.411   1.298  0.8919 -0.2725 -0.4357
 7780SOL    HW124239   4.733   4.491   1.355  0.0284  0.0771 -0.5854
 7780SOL    HW224240   4.754   4.421   1.209 -0.1769  0.6143 -0.8750
 7781SOL     OW24241   4.744   0.803   1.895 -0.1928 -0.6938 -0.0429
 7781SOL    HW124242   4.789   0.748   1.825 -1.7826 -0.5799 -1.1992
 7781SOL    HW224243   4.646   0.811   1.874 -0.2977  1.2434  0.9401
 7782SOL     OW24244   6.357   4.102   4.024 -0.0053  0.0467  0.2946
 7782SOL    HW124245   6.418   4.065   4.095  0.3537 -0.3298 -0.1976
 7782SOL    HW224246   6.308   4.027   3.980 -0.8514  0.3551  0.7077
 7783SOL     OW24247   2.276   4.562   5.594 -0.2250  0.2894 -0.1270
 7783SOL    HW124248   2.299   4.525   5.684  0.2464 -0.9888 -0.7413
 7783SOL    HW224249   2.273   4.488   5.527 -0.4599  1.2251 -1.1946
 7784SOL     OW24250   0.464   2.443   3.532 -0.0791 -0.2969 -0.4435
 7784SOL    HW124251   0.555   2.435   3.573  1.9163 -2.3910 -4.6520
 7784SOL    HW224252   0.418   2.355   3.536 -0.2998 -0.2498 -1.5918
 7785SOL     OW24253   4.666   2.217   3.562  0.7054  0.2843  0.0843
 7785SOL    HW124254   4.611   2.143   3.522 -0.3512  1.3873 -0.5804
 7785SOL    HW224255   4.660   2.213   3.661  0.9861 -0.7544  0.0700
 7786SOL     OW24256   3.517   3.622   2.172  0.1302  0.2210 -0.4887
 7786SOL    HW124257   3.610   3.655   2.155  0.6383  0.8801  2.8754
 7786SOL    HW224258   3.512   3.524   2.151  1.2229  0.4056 -1.7432
 7787SOL     OW24259   2.760   0.865   0.837 -0.7327  0.1513  0.1188
 7787SOL    HW124260   2.812   0.809   0.773 -0.8623  1.2598 -0.9948
 7787SOL    HW224261   2.798   0.855   0.929  2.1081  1.6445 -0.7810
 7788SOL     OW24262   5.019   3.307   3.609  0.5193  0.0634 -0.1491
 7788SOL    HW124263   5.005   3.381   3.675 -1.6062  0.2768 -0.7633
 7788SOL    HW224264   5.108   3.317   3.565  0.6298  1.7435  0.4062
 7789SOL     OW24265   4.940   5.913   5.638 -0.1691  0.1970 -0.0674
 7789SOL    HW124266   5.016   5.975   5.656  0.3849 -0.5296  0.1348
 7789SOL    HW224267   4.867   5.930   5.704 -0.5860  1.5339 -0.8432
 7790SOL     OW24268   4.287   1.730   2.012 -0.4135  0.0108 -0.4055
 7790SOL    HW124269   4.245   1.819   2.029 -2.4288 -0.9271 -0.1818
 7790SOL    HW224270   4.284   1.675   2.095 -0.6646 -0.8324 -0.9533
 7791SOL     OW24271   4.920   1.001   6.260  0.5391 -0.3212 -0.1388
 7791SOL    HW124272   4.993   0.961   6.205  0.1984 -0.1637 -0.7208
 7791SOL    HW224273   4.855   0.930   6.286  0.3875 -0.3004 -0.4493
 7792SOL     OW24274   0.627   2.791   1.779 -0.0885 -0.0011  0.0308
 7792SOL    HW124275   0.683   2.758   1.703 -1.1955 -1.4236 -0.2080
 7792SOL    HW224276   0.687   2.818   1.854  0.9567 -0.4327 -0.6153
 7793SOL     OW24277   5.433   5.274   4.750 -0.0123  0.6347  0.2336
 7793SOL    HW124278   5.377   5.295   4.670  1.4370 -0.1090 -1.0256
 7793SOL    HW224279   5.465   5.179   4.745  1.3230  1.0263  0.9370
 7794SOL     OW24280   5.542   1.446   0.264  0.0224 -0.5572 -0.1413
 7794SOL    HW124281   5.575   1.409   0.177 -1.0335 -2.2357  0.1336
 7794SOL    HW224282   5.528   1.372   0.329 -1.4052  0.4114  0.7251
 7795SOL     OW24283   0.639   2.254   5.962  0.3198  0.4017 -0.1438
 7795SOL    HW124284   0.696   2.335   5.946  1.4058  0.0730  1.6828
 7795SOL    HW224285   0.644   2.193   5.883  0.2978  1.6468 -1.1254
 7796SOL     OW24286   0.845   6.949   4.949  0.0006  0.5406 -0.1110
 7796SOL    HW124287   0.746   6.956   4.947 -0.0010  0.6226  0.1721
 7796SOL    HW224288   0.873   6.861   4.910 -0.2489  0.0244  0.8340
 7797SOL     OW24289   4.248   4.878   5.815  0.2272 -0.3312 -0.0132
 7797SOL    HW124290   4.243   4.798   5.875 -1.0172  0.0225  0.3964
 7797SOL    HW224291   4.208   4.957   5.862  1.7879  0.6489 -0.2601
 7798SOL     OW24292   5.899   1.463   6.527  0.3005 -0.2720  0.4438
 7798SOL    HW124293   5.801   1.483   6.533 -0.1740 -2.1219 -0.3219
 7798SOL    HW224294   5.950   1.528   6.583 -1.2891  1.1843  0.2843
 7799SOL     OW24295   0.256   5.104   1.708 -0.1646  0.2219  0.0156
 7799SOL    HW124296   0.348   5.065   1.717  0.1485  1.4425  3.0892
 7799SOL    HW224297   0.189   5.029   1.700  0.9306 -0.7226 -0.6571
 7800SOL     OW24298   4.032   3.668   6.211  0.6157  0.0677  0.3311
 7800SOL    HW124299   4.083   3.729   6.150 -0.9843  1.4357  0.2826
 7800SOL    HW224300   3.943   3.647   6.170  0.7624 -1.5812  0.7909
 7801SOL     OW24301   1.459   2.645   5.494  0.1539 -0.1168  0.2172
 7801SOL    HW124302   1.380   2.629   5.434  1.0600 -1.5624 -0.6676
 7801SOL    HW224303   1.461   2.741   5.522 -1.6515  0.0474 -0.1005
 7802SOL     OW24304   1.595   4.973   2.632  0.0249 -0.4488 -0.6647
 7802SOL    HW124305   1.650   4.932   2.704  0.1849  0.4056 -0.2987
 7802SOL    HW224306   1.652   4.990   2.552  0.2687  0.2888 -0.3418
 7803SOL     OW24307   3.360   1.476   6.182  0.1323 -0.5126 -0.5200
 7803SOL    HW124308   3.374   1.378   6.183 -2.5350 -0.9903  1.1619
 7803SOL    HW224309   3.327   1.506   6.272  1.1652  1.9763 -0.8968
 7804SOL     OW24310   5.616   2.191   7.013 -0.4754  0.6878  0.4734
 7804SOL    HW124311   5.618   2.151   6.922  0.3588 -1.1474  1.2424
 7804SOL    HW224312   5.533   2.245   7.024  0.1267  2.2431 -1.8475
 7805SOL     OW24313   1.110   0.872   6.120  0.3678  0.3046  0.0394
 7805SOL    HW124314   1.180   0.904   6.056  0.7480 -1.0828 -0.2919
 7805SOL    HW224315   1.054   0.948   6.150  1.4497  1.3060 -0.4044
 7806SOL     OW24316   6.675   1.512   2.668 -0.0196 -0.2737 -0.1718
 7806SOL    HW124317   6.662   1.431   2.611  2.1293 -1.8838  1.4311
 7806SOL    HW224318   6.752   1.565   2.633 -0.1722 -0.0079 -0.1039
 7807SOL     OW24319   2.204   1.820   5.406 -0.2709  0.2315  0.1901
 7807SOL    HW124320   2.148   1.829   5.324 -0.2663  0.2307  0.1870
 7807SOL    HW224321   2.167   1.878   5.478 -0.4083  0.0613  0.2591
 7808SOL     OW24322   1.488   2.406   1.101  0.1203 -0.2266 -0.4170
 7808SOL    HW124323   1.403   2.444   1.138  0.3177  1.3672 -1.5141
 7808SOL    HW224324   1.562   2.471   1.114  0.7187 -0.6898 -1.3871
 7809SOL     OW24325   4.936   3.417   2.535 -0.3304  0.0675 -0.2222
 7809SOL    HW124326   4.970   3.333   2.493 -0.8313  0.4041 -1.3516
 7809SOL    HW224327   4.837   3.424   2.521 -0.1260  1.3959 -1.2112
 7810SOL     OW24328   4.846   5.483   4.652 -0.4933 -0.0369 -0.5624
 7810SOL    HW124329   4.830   5.566   4.705 -1.9930 -0.9560  0.5107
 7810SOL    HW224330   4.865   5.507   4.557  3.0218  1.7231  0.3945
 7811SOL     OW24331   1.123   5.306   4.704  0.4549  0.2328 -0.1683
 7811SOL    HW124332   1.083   5.378   4.761  0.6161  0.3611 -0.2154
 7811SOL    HW224333   1.146   5.227   4.760 -0.1234  0.0450 -0.1844
 7812SOL     OW24334   0.818   1.684   2.219 -0.1093 -0.0956  0.3771
 7812SOL    HW124335   0.808   1.778   2.187 -0.9904 -0.1775  0.3858
 7812SOL    HW224336   0.858   1.684   2.311  0.5420  0.2321  0.1014
 7813SOL     OW24337   3.757   5.370   4.933 -0.6882  0.6887  0.0128
 7813SOL    HW124338   3.661   5.343   4.929 -0.5617 -0.7422  3.2644
 7813SOL    HW224339   3.771   5.436   5.007  1.1153 -1.1471  1.4626
 7814SOL     OW24340   5.148   4.095   4.009 -0.2867  0.1958 -1.0964
 7814SOL    HW124341   5.177   4.023   4.072 -0.3932  0.3482 -0.8734
 7814SOL    HW224342   5.227   4.126   3.956 -0.0725  0.4912 -0.6081
 7815SOL     OW24343   4.727   4.321   0.166 -0.3541  0.2742 -0.0893
 7815SOL    HW124344   4.633   4.355   0.157 -0.9933 -1.0113  1.3576
 7815SOL    HW224345   4.740   4.242   0.106 -0.6951 -0.5010  0.8401
 7816SOL     OW24346   4.220   5.951   0.059 -0.1061 -0.3974  0.0297
 7816SOL    HW124347   4.305   6.002   0.046 -0.7782  0.5108 -0.8683
 7816SOL    HW224348   4.225   5.901   0.146  1.7995 -1.2877 -0.5457
 7817SOL     OW24349   2.034   5.525   4.828 -0.3110  0.2661 -0.0128
 7817SOL    HW124350   2.052   5.614   4.870 -0.6399  0.6115 -0.5913
 7817SOL    HW224351   1.939   5.500   4.843 -0.4688  0.4632 -0.6826
 7818SOL     OW24352   2.761   6.062   1.549 -0.5011 -0.3582 -0.1599
 7818SOL    HW124353   2.669   6.029   1.529 -0.8846  0.1512  0.6983
 7818SOL    HW224354   2.815   6.064   1.465 -0.3587 -3.4023 -0.2393
 7819SOL     OW24355   6.988   1.394   1.351  0.2073  0.6182 -0.0967
 7819SOL    HW124356   6.984   1.423   1.447  1.3691 -0.9451  0.4668
 7819SOL    HW224357   6.911   1.433   1.301 -2.4603 -1.2640  2.2583
 7820SOL     OW24358   2.429   3.219   6.791 -0.1342  0.2728 -0.3192
 7820SOL    HW124359   2.439   3.311   6.829 -0.2174  0.3482 -0.4747
 7820SOL    HW224360   2.503   3.161   6.824  1.0050  0.8934 -1.6741
 7821SOL     OW24361   0.541   0.068   6.042 -0.1509  0.5878 -0.6421
 7821SOL    HW124362   0.566   0.156   6.001 -1.1187  1.6276  0.8916
 7821SOL    HW224363   0.445   0.071   6.070  0.8322  0.6698  3.3092
 7822SOL     OW24364   2.956   6.675   1.084 -0.4279  0.3654 -1.0080
 7822SOL    HW124365   3.039   6.620   1.092 -1.1683 -0.5395  1.2909
 7822SOL    HW224366   2.940   6.724   1.170 -2.4597  0.2309 -1.2685
 7823SOL     OW24367   3.615   6.264   2.293  0.3021  0.2018  0.5551
 7823SOL    HW124368   3.547   6.288   2.224  0.8972 -0.0710 -0.1353
 7823SOL    HW224369   3.624   6.165   2.298  0.7404  0.2401  0.5526
 7824SOL     OW24370   3.792   2.018   0.538 -0.0282 -0.1142  0.1580
 7824SOL    HW124371   3.888   2.044   0.535 -0.2203  0.6341  0.1627
 7824SOL    HW224372   3.775   1.962   0.620  0.0824  1.1530  1.0790
 7825SOL     OW24373   1.202   4.968   2.278  0.2607  0.2259  0.2450
 7825SOL    HW124374   1.218   4.870   2.268 -0.5754  0.0850  0.1831
 7825SOL    HW224375   1.158   4.986   2.366  3.4349  0.9446  1.8391
 7826SOL     OW24376   7.011   5.549   1.369  0.0301 -0.5292  0.0674
 7826SOL    HW124377   7.054   5.601   1.296 -0.9181  0.9996  0.5501
 7826SOL    HW224378   7.046   5.455   1.368  0.5430 -0.3675 -1.8932
 7827SOL     OW24379   6.673   3.055   2.839 -0.3911 -0.3748  0.0497
 7827SOL    HW124380   6.603   3.000   2.793  0.6263 -0.2909 -1.6861
 7827SOL    HW224381   6.669   3.038   2.938 -3.5999  0.4736  0.1969
 7828SOL     OW24382   4.610   2.306   1.285  0.3083  0.5587  0.1618
 7828SOL    HW124383   4.639   2.366   1.210  1.7576  1.6966  1.5604
 7828SOL    HW224384   4.552   2.358   1.348  0.4785  0.0946  0.7008
 7829SOL     OW24385   1.833   5.302   5.439  0.0598 -0.5976 -0.6023
 7829SOL    HW124386   1.787   5.365   5.502 -0.6608  1.4233 -2.9481
 7829SOL    HW224387   1.814   5.208   5.466 -1.4276  0.1718  1.2986
 7830SOL     OW24388   3.028   1.814   0.702  0.3577  0.2554 -0.2062
 7830SOL    HW124389   3.015   1.753   0.624  2.1062  0.9491 -1.0926
 7830SOL    HW224390   2.955   1.882   0.704 -0.3893 -0.5274 -0.4948
 7831SOL     OW24391   0.749   0.888   1.210  0.1005 -0.1373 -0.1982
 7831SOL    HW124392   0.808   0.913   1.133  2.3455  0.1715  1.4976
 7831SOL    HW224393   0.777   0.940   1.291  0.0643 -2.7543  1.6285
 7832SOL     OW24394   5.772   6.633   5.051  0.2105  0.5303  0.0426
 7832SOL    HW124395   5.814   6.722   5.065  2.2291 -0.4786  0.8949
 7832SOL    HW224396   5.842   6.567   5.023 -1.4616 -0.5195 -1.8949
 7833SOL     OW24397   4.781   6.700   3.060  0.0097 -0.0191  0.3371
 7833SOL    HW124398   4.784   6.796   3.033  0.0965  0.3908  1.7204
 7833SOL    HW224399   4.818   6.643   2.986  1.1725  1.1195  0.0019
 7834SOL     OW24400   2.675   6.013   2.220  0.8153  0.3342  0.1015
 7834SOL    HW124401   2.667   5.940   2.152  2.2678 -0.2036  0.4763
 7834SOL    HW224402   2.731   5.982   2.296 -0.1625  1.2008  1.2022
 7835SOL     OW24403   0.250   5.294   1.224 -0.4019  0.3875 -0.5640
 7835SOL    HW124404   0.168   5.302   1.168 -0.6410  1.7194 -0.0640
 7835SOL    HW224405   0.224   5.288   1.321  0.0065 -1.7652 -0.5163
 7836SOL     OW24406   1.724   4.726   5.345 -0.7699  0.2028  0.2898
 7836SOL    HW124407   1.798   4.705   5.409  0.6662  0.0441 -1.3611
 7836SOL    HW224408   1.646   4.763   5.396 -0.2444 -1.2699  2.2837
 7837SOL     OW24409   2.148   5.196   5.233  0.1539 -0.2233 -0.5018
 7837SOL    HW124410   2.246   5.212   5.229  0.0865  0.3649  0.0264
 7837SOL    HW224411   2.108   5.251   5.306 -0.1949 -2.4070  1.0564
 7838SOL     OW24412   2.990   6.490   3.835 -0.5690  0.9612 -0.2951
 7838SOL    HW124413   2.995   6.472   3.737 -2.0692  1.0873 -0.4141
 7838SOL    HW224414   2.975   6.588   3.851 -0.1620  0.9716  0.0845
 7839SOL     OW24415   4.570   3.433   0.528 -0.3879 -0.5451 -0.4066
 7839SOL    HW124416   4.539   3.511   0.474 -0.4794  0.2063  0.7173
 7839SOL    HW224417   4.494   3.398   0.583  0.1342 -0.2326  0.5171
 7840SOL     OW24418   5.340   6.753   2.902  0.0246  0.2319  0.0105
 7840SOL    HW124419   5.356   6.765   3.000 -2.3988 -0.4623  0.5570
 7840SOL    HW224420   5.409   6.692   2.864  0.9242  0.4053  1.2936
 7841SOL     OW24421   4.964   0.337   6.082 -0.1513  0.9142 -0.3772
 7841SOL    HW124422   4.895   0.409   6.090 -0.8033  0.1676  1.1000
 7841SOL    HW224423   4.926   0.261   6.029 -0.8550  0.1065  1.2217
 7842SOL     OW24424   0.089   0.367   2.587  0.3326 -0.2960 -0.1132
 7842SOL    HW124425   0.159   0.368   2.659 -0.0769  0.5058  0.2919
 7842SOL    HW224426   0.014   0.307   2.615  0.9321 -1.3150 -0.6371
 7843SOL     OW24427   1.052   2.060   2.834 -0.1982  0.6406  0.4416
 7843SOL    HW124428   1.075   2.145   2.880  0.0446  0.6434  0.3136
 7843SOL    HW224429   1.069   1.983   2.896 -0.3244  0.6781  0.5227
 7844SOL     OW24430   5.681   6.938   0.480  0.2550 -0.1693 -0.6538
 7844SOL    HW124431   5.722   6.846   0.475 -0.1231 -0.3003 -1.4664
 7844SOL    HW224432   5.598   6.940   0.424  0.3266  0.7035 -0.7301
 7845SOL     OW24433   5.360   1.666   0.282  0.4753  0.8186 -0.1553
 7845SOL    HW124434   5.388   1.761   0.268  0.7688  1.0746  1.9112
 7845SOL    HW224435   5.441   1.608   0.290  0.3602  0.8463  1.3352
 7846SOL     OW24436   1.701   3.451   0.550 -0.2331  0.3819 -0.3061
 7846SOL    HW124437   1.784   3.501   0.576  0.7240 -1.4245  0.2666
 7846SOL    HW224438   1.659   3.496   0.471  0.8378  1.8012 -0.1072
 7847SOL     OW24439   5.184   6.516   3.889  0.5503 -0.0183  0.2231
 7847SOL    HW124440   5.176   6.536   3.987  0.9490 -1.2394  0.5236
 7847SOL    HW224441   5.092   6.515   3.848  0.0466 -2.3760  1.2212
 7848SOL     OW24442   2.030   1.676   0.285 -0.2660 -0.2340  0.0125
 7848SOL    HW124443   2.094   1.631   0.348  0.3588  0.2600 -0.2521
 7848SOL    HW224444   1.948   1.703   0.334  0.3373  0.4158  0.7052
 7849SOL     OW24445   2.801   2.376   0.589  0.0714  0.0583 -0.1166
 7849SOL    HW124446   2.894   2.355   0.619  0.0824  0.9401  0.5102
 7849SOL    HW224447   2.743   2.296   0.600  0.5799 -0.2643  0.2347
 7850SOL     OW24448   3.180   2.573   1.283 -0.0192  0.2533 -0.4879
 7850SOL    HW124449   3.138   2.658   1.250  0.2220 -0.3785 -2.5951
 7850SOL    HW224450   3.175   2.569   1.382 -1.3252  2.0534 -0.4431
 7851SOL     OW24451   0.187   4.506   6.231 -0.1399 -0.2694 -0.0569
 7851SOL    HW124452   0.272   4.530   6.278  0.0805 -1.0236 -0.0597
 7851SOL    HW224453   0.120   4.579   6.244  0.2364 -0.0373  0.6292
 7852SOL     OW24454   1.897   3.003   0.434 -0.0301  0.0923 -0.2002
 7852SOL    HW124455   1.868   3.022   0.341  0.9379  0.7795 -0.3750
 7852SOL    HW224456   1.823   3.027   0.498 -0.6950 -0.3889 -0.7824
 7853SOL     OW24457   5.432   4.623   2.659  0.0419 -0.6248  0.3427
 7853SOL    HW124458   5.374   4.542   2.664  1.4191 -1.6116  1.0287
 7853SOL    HW224459   5.502   4.618   2.730 -1.0311  2.1483  1.6995
 7854SOL     OW24460   3.439   4.683   0.254 -0.0771  0.4365 -0.4325
 7854SOL    HW124461   3.533   4.714   0.264 -0.8866  2.2473  2.8070
 7854SOL    HW224462   3.429   4.592   0.295  0.0304  0.8257  0.4839
 7855SOL     OW24463   6.674   4.226   5.986  0.1839  0.0612  0.2635
 7855SOL    HW124464   6.773   4.217   5.982  0.2534  0.3030  1.1323
 7855SOL    HW224465   6.649   4.320   6.007 -0.2257 -0.0341  0.2277
 7856SOL     OW24466   2.082   2.941   2.969  0.0922  0.3426  0.1731
 7856SOL    HW124467   2.090   3.015   3.035  2.8086 -1.0258  1.5275
 7856SOL    HW224468   2.108   2.975   2.878  0.1717  1.3130  0.5476
 7857SOL     OW24469   1.187   3.965   1.753 -0.4970 -0.5530 -0.3898
 7857SOL    HW124470   1.116   3.900   1.728  2.3584 -3.9219 -0.5654
 7857SOL    HW224471   1.270   3.946   1.700  1.0353  2.2015  0.8073
 7858SOL     OW24472   6.287   4.675   7.003 -0.0914 -0.5690 -0.0064
 7858SOL    HW124473   6.313   4.762   6.960 -2.5946 -0.2571 -1.0623
 7858SOL    HW224474   6.297   4.683   7.102  1.0225  0.4242 -0.1691
 7859SOL     OW24475   1.862   2.356   5.261  0.1732 -0.1385 -0.2648
 7859SOL    HW124476   1.931   2.373   5.331 -0.8135  1.2885  0.4071
 7859SOL    HW224477   1.782   2.414   5.277 -0.5107 -0.5239 -1.9840
 7860SOL     OW24478   5.719   0.136   2.474 -0.2210 -0.2308  0.2818
 7860SOL    HW124479   5.627   0.174   2.466 -0.8002 -1.8231 -1.3645
 7860SOL    HW224480   5.713   0.038   2.491  1.2202 -0.0292  2.3911
 7861SOL     OW24481   2.245   5.133   4.149  0.1862  0.9459 -0.5925
 7861SOL    HW124482   2.237   5.232   4.156  0.9559  0.9381  0.9750
 7861SOL    HW224483   2.296   5.098   4.228 -0.5638 -0.7612 -0.8084
 7862SOL     OW24484   6.016   5.235   2.825 -0.6217 -0.3763 -0.1796
 7862SOL    HW124485   5.945   5.166   2.836 -0.4534 -0.9496 -2.2425
 7862SOL    HW224486   6.079   5.231   2.902 -0.8271 -2.2906 -0.0630
 7863SOL     OW24487   0.249   5.136   0.219 -0.0706  0.0461 -0.2192
 7863SOL    HW124488   0.192   5.218   0.226 -1.1814 -0.6837 -0.4468
 7863SOL    HW224489   0.224   5.072   0.291  3.1066  1.2134  2.1308
 7864SOL     OW24490   3.564   3.392   6.408  0.0098 -0.4353  0.8770
 7864SOL    HW124491   3.530   3.486   6.410  0.7962 -0.1200  0.2749
 7864SOL    HW224492   3.492   3.330   6.437 -1.3156  0.1404 -0.9494
 7865SOL     OW24493   0.844   6.080   2.334 -0.1963 -0.2377  0.0818
 7865SOL    HW124494   0.941   6.102   2.340 -0.0497 -0.9723  0.3753
 7865SOL    HW224495   0.790   6.162   2.356  0.3425  0.3686 -0.7546
 7866SOL     OW24496   1.315   6.644   0.473 -0.6686  0.6508  0.5990
 7866SOL    HW124497   1.391   6.627   0.536 -0.7024 -0.7257  0.3061
 7866SOL    HW224498   1.260   6.720   0.507 -1.1336 -0.5319  2.6820
 7867SOL     OW24499   6.814   4.807   5.949 -0.7116 -0.2199 -0.1067
 7867SOL    HW124500   6.876   4.795   5.872 -1.2576 -0.7305 -0.4778
 7867SOL    HW224501   6.865   4.805   6.035 -0.2075 -0.5375 -0.4139
 7868SOL     OW24502   1.030   0.962   2.167 -0.1605  0.0972 -0.9130
 7868SOL    HW124503   1.099   1.027   2.201 -1.0209  0.5813 -0.0466
 7868SOL    HW224504   0.954   0.957   2.232 -0.1585 -1.7289 -1.0025
 7869SOL     OW24505   5.629   4.356   4.565  0.2785 -0.5869  0.3922
 7869SOL    HW124506   5.621   4.417   4.487  0.0779 -0.6658  0.3503
 7869SOL    HW224507   5.557   4.376   4.631  0.8244 -0.1060  0.8480
 7870SOL     OW24508   0.954   2.983   6.298  0.6665 -0.0424  0.0119
 7870SOL    HW124509   1.007   3.056   6.341  1.8471  0.0177 -1.4658
 7870SOL    HW224510   0.877   3.022   6.248  0.4968  0.0717  0.3653
 7871SOL     OW24511   6.210   3.658   3.393  0.0940 -0.3899  0.2218
 7871SOL    HW124512   6.234   3.591   3.323 -0.1298 -0.3280  0.0854
 7871SOL    HW224513   6.256   3.744   3.374 -0.5657 -0.1391 -0.2825
 7872SOL     OW24514   4.834   1.225   6.024 -0.3182 -0.4071 -0.2537
 7872SOL    HW124515   4.785   1.296   5.975 -3.7680 -2.7789 -0.5600
 7872SOL    HW224516   4.839   1.249   6.121  2.5175  2.1356 -0.8477
 7873SOL     OW24517   5.207   1.818   4.593 -0.1782 -0.2281  0.2908
 7873SOL    HW124518   5.232   1.726   4.564  1.2106  0.0411  0.5344
 7873SOL    HW224519   5.289   1.867   4.623 -0.9607  0.9197  0.6545
 7874SOL     OW24520   3.633   0.230   3.740  0.0941  0.4723  0.5104
 7874SOL    HW124521   3.570   0.171   3.690 -1.2357  1.6071  0.7702
 7874SOL    HW224522   3.633   0.205   3.837  2.0577 -1.1972  0.1580
 7875SOL     OW24523   0.837   1.466   1.339  0.0247 -0.2539  0.0851
 7875SOL    HW124524   0.756   1.515   1.307  0.1229 -0.3988 -0.3910
 7875SOL    HW224525   0.820   1.368   1.337 -0.0224 -0.2635  0.6392
 7876SOL     OW24526   4.630   2.526   2.094  0.4124  0.2272 -0.2575
 7876SOL    HW124527   4.657   2.593   2.025  0.7439 -1.4811 -1.8741
 7876SOL    HW224528   4.537   2.493   2.074 -0.2614  1.0624  1.2662
 7877SOL     OW24529   0.687   2.059   1.160 -0.1364 -0.4614 -0.1362
 7877SOL    HW124530   0.743   2.095   1.235 -1.0949 -1.7846  1.2513
 7877SOL    HW224531   0.593   2.049   1.190 -1.0275  0.9660 -2.2007
 7878SOL     OW24532   1.911   4.986   3.282  0.0560  0.0680 -0.0664
 7878SOL    HW124533   1.995   4.987   3.228 -1.0072 -0.5556 -1.8131
 7878SOL    HW224534   1.881   4.892   3.296 -0.1424  0.2642  0.9294
 7879SOL     OW24535   2.426   5.098   1.679  0.4208 -0.3454 -0.5289
 7879SOL    HW124536   2.409   5.002   1.654  0.9697 -0.5333 -0.1815
 7879SOL    HW224537   2.462   5.147   1.599 -2.3977  0.2674 -1.5509
 7880SOL     OW24538   6.181   6.921   3.862 -0.3920  0.5340  0.6083
 7880SOL    HW124539   6.101   6.863   3.845  0.5636 -1.1573  1.5740
 7880SOL    HW224540   6.206   6.916   3.958  2.2907 -0.9946 -0.0447
 7881SOL     OW24541   1.048   0.069   1.635  0.1051  0.4479 -0.9818
 7881SOL    HW124542   1.139   0.044   1.667 -0.7050  0.1335  1.2794
 7881SOL    HW224543   0.979   0.025   1.693 -1.4572  2.7316 -0.9937
 7882SOL     OW24544   3.283   1.313   0.787 -0.2924  0.2275  0.4483
 7882SOL    HW124545   3.199   1.330   0.838 -0.9942  0.3672 -0.7139
 7882SOL    HW224546   3.263   1.316   0.688  1.0759  0.2874  0.1569
 7883SOL     OW24547   1.776   0.644   1.045 -0.5361 -0.2835  0.7959
 7883SOL    HW124548   1.853   0.580   1.051  1.0759  1.6749  2.5379
 7883SOL    HW224549   1.736   0.657   1.135 -1.3353  0.5887  0.3351
 7884SOL     OW24550   4.495   4.144   0.975  0.2320  0.3918 -0.3065
 7884SOL    HW124551   4.440   4.187   1.046 -0.9392  2.4284 -2.2846
 7884SOL    HW224552   4.456   4.055   0.952 -0.1812  0.3102  0.6595
 7885SOL     OW24553   2.518   6.682   5.910 -0.3629  0.9463  0.1628
 7885SOL    HW124554   2.582   6.711   5.839 -1.3196  1.7173 -0.4139
 7885SOL    HW224555   2.522   6.746   5.987 -0.6200  1.1452  0.0127
 7886SOL     OW24556   4.110   4.380   6.975  0.3852 -0.4330 -0.3345
 7886SOL    HW124557   4.068   4.459   7.021 -0.4337 -1.4382  0.6789
 7886SOL    HW224558   4.116   4.400   6.877 -0.9913  0.4021 -0.2956
 7887SOL     OW24559   0.458   0.352   2.468  0.1072  0.0474  0.1037
 7887SOL    HW124560   0.377   0.341   2.410 -0.4922  0.4198  0.8582
 7887SOL    HW224561   0.503   0.263   2.479 -0.2979 -0.1960 -0.1734
 7888SOL     OW24562   3.259   2.201   6.028  0.0196 -0.1371  0.3956
 7888SOL    HW124563   3.326   2.129   6.044 -0.2230 -0.1522  1.4632
 7888SOL    HW224564   3.167   2.164   6.041 -0.1771  0.0017 -0.5736
 7889SOL     OW24565   2.653   6.044   2.732 -0.2858 -0.8128  0.5832
 7889SOL    HW124566   2.727   5.991   2.774  0.3386  0.6101  1.3509
 7889SOL    HW224567   2.569   6.031   2.785 -0.3811 -1.7455  0.2203
 7890SOL     OW24568   4.167   3.907   6.087 -0.5146  0.1429 -0.4925
 7890SOL    HW124569   4.214   3.938   6.004  1.2531  0.7662  0.6850
 7890SOL    HW224570   4.226   3.922   6.166 -2.0707 -0.6422  0.8730
 7891SOL     OW24571   1.359   1.380   6.761  0.3466  0.4702  0.0547
 7891SOL    HW124572   1.343   1.426   6.849  0.1074 -0.6860  0.6397
 7891SOL    HW224573   1.453   1.344   6.759  0.3499  0.4930 -0.1576
 7892SOL     OW24574   2.207   3.803   0.995  0.6078  0.1426  0.2270
 7892SOL    HW124575   2.232   3.893   0.958 -0.0563  0.5785  0.8103
 7892SOL    HW224576   2.121   3.773   0.954  1.0954 -0.4785 -0.3587
 7893SOL     OW24577   5.507   5.706   2.666 -0.1404  0.1712  0.9749
 7893SOL    HW124578   5.562   5.635   2.622  2.2863  1.9256  0.9842
 7893SOL    HW224579   5.548   5.730   2.754 -0.4689  2.0449  0.6581
 7894SOL     OW24580   4.770   3.490   5.692 -0.0055  0.0329 -0.3198
 7894SOL    HW124581   4.762   3.585   5.724  1.6187  0.2451 -0.4677
 7894SOL    HW224582   4.695   3.471   5.628  0.4825  1.7292 -1.4655
 7895SOL     OW24583   0.432   4.280   0.773  0.5554 -0.0843  0.3070
 7895SOL    HW124584   0.340   4.258   0.741  0.1435 -0.7262  1.8218
 7895SOL    HW224585   0.448   4.378   0.766 -0.7013  0.1970  1.1447
 7896SOL     OW24586   6.308   0.553   1.886 -0.4286 -0.3050 -0.5608
 7896SOL    HW124587   6.213   0.570   1.913 -0.5265 -0.0935 -1.0307
 7896SOL    HW224588   6.333   0.459   1.907 -0.5672 -0.2094  0.0693
 7897SOL     OW24589   1.727   1.139   4.927  0.0014  0.1356  0.0307
 7897SOL    HW124590   1.788   1.213   4.953  0.1387  0.2615 -0.6466
 7897SOL    HW224591   1.715   1.078   5.005  0.8461  0.2088  0.2323
 7898SOL     OW24592   6.525   5.834   6.570  0.1234 -0.1593 -0.2539
 7898SOL    HW124593   6.604   5.844   6.630 -0.5159  0.1179  0.5611
 7898SOL    HW224594   6.461   5.910   6.584 -0.3301 -0.4159 -0.8411
 7899SOL     OW24595   5.396   0.819   0.703  0.1136 -0.3826  0.4428
 7899SOL    HW124596   5.312   0.765   0.690 -0.2762  0.2662  0.1870
 7899SOL    HW224597   5.373   0.917   0.699  1.2544 -0.1213 -2.5005
 7900SOL     OW24598   4.417   5.425   0.961  0.0458 -0.3465  0.1117
 7900SOL    HW124599   4.335   5.412   1.017  0.3075 -0.9642  0.3604
 7900SOL    HW224600   4.496   5.387   1.009  0.1540 -1.6567 -1.0391
 7901SOL     OW24601   6.056   0.430   0.939 -0.3714  0.4810 -0.3677
 7901SOL    HW124602   6.086   0.370   0.866 -0.7852 -0.5825  0.3106
 7901SOL    HW224603   6.095   0.399   1.026 -0.1492  1.5245 -0.0811
 7902SOL     OW24604   1.915   5.411   3.143 -0.5102  0.0097 -0.2322
 7902SOL    HW124605   1.974   5.489   3.164 -0.9331  0.4268 -0.5597
 7902SOL    HW224606   1.895   5.409   3.045  0.0347 -0.9058 -0.3350
 7903SOL     OW24607   2.167   0.788   2.174  0.0236 -0.6747 -0.1429
 7903SOL    HW124608   2.243   0.736   2.135 -0.4396 -2.4869  1.2233
 7903SOL    HW224609   2.158   0.876   2.127  3.4199 -0.0570  0.1550
 7904SOL     OW24610   6.625   1.561   6.791 -0.3205  0.1309 -0.2241
 7904SOL    HW124611   6.574   1.492   6.739  0.5930 -0.9838  0.3201
 7904SOL    HW224612   6.565   1.638   6.812 -1.8282 -1.1811  0.4880
 7905SOL     OW24613   6.106   6.710   5.668  0.2729  0.3574  0.1618
 7905SOL    HW124614   6.064   6.799   5.685  0.7865  0.6803 -0.2016
 7905SOL    HW224615   6.159   6.682   5.748  1.1604  0.9943 -0.1796
 7906SOL     OW24616   4.644   5.472   5.226  0.5704  0.3198 -0.0612
 7906SOL    HW124617   4.661   5.378   5.255  0.5338  1.1233  2.8512
 7906SOL    HW224618   4.550   5.480   5.191  0.4335 -0.6124  0.0623
 7907SOL     OW24619   4.987   2.887   2.074 -0.1408  0.5673  0.2805
 7907SOL    HW124620   5.037   2.889   2.160  0.2365 -0.5828  0.1132
 7907SOL    HW224621   4.906   2.945   2.080 -1.2002 -1.0141  2.0966
 7908SOL     OW24622   3.306   0.049   3.363 -0.1208 -0.1699  0.3399
 7908SOL    HW124623   3.263   0.009   3.282 -1.6886 -1.6496  1.8377
 7908SOL    HW224624   3.354   0.133   3.337 -0.6226 -0.5737 -2.0917
 7909SOL     OW24625   2.018   1.910   1.615 -0.3279 -0.1171 -0.4751
 7909SOL    HW124626   1.972   1.845   1.676  1.9503 -1.4950 -0.0680
 7909SOL    HW224627   2.102   1.943   1.660  1.2414 -0.8907 -2.6724
 7910SOL     OW24628   6.513   0.385   3.142  0.1492 -0.2077  0.0160
 7910SOL    HW124629   6.458   0.319   3.091  1.0161 -2.2995  1.6170
 7910SOL    HW224630   6.600   0.400   3.096 -0.6865  1.1428 -1.1974
 7911SOL     OW24631   3.552   5.002   4.108 -0.1678  0.0520  0.9334
 7911SOL    HW124632   3.624   4.934   4.123 -1.2837 -0.8555  2.3248
 7911SOL    HW224633   3.593   5.094   4.105  1.3073 -0.5950 -0.6095
 7912SOL     OW24634   2.986   6.854   0.783 -0.4238  0.6320  0.0566
 7912SOL    HW124635   2.908   6.792   0.797 -0.9062  1.0680 -0.6608
 7912SOL    HW224636   2.971   6.938   0.835 -0.0595  0.4131  0.5298
 7913SOL     OW24637   3.849   2.484   6.204  0.3261  0.1162  0.2688
 7913SOL    HW124638   3.845   2.581   6.230  0.2472  0.3152 -0.4553
 7913SOL    HW224639   3.913   2.436   6.263 -0.7280  0.2920  1.6082
 7914SOL     OW24640   5.007   3.771   3.839  0.2370 -0.3149 -0.3439
 7914SOL    HW124641   4.978   3.833   3.767  1.8268  1.3471  0.3672
 7914SOL    HW224642   4.941   3.773   3.914  0.9515  1.6573  0.2794
 7915SOL     OW24643   0.512   2.073   6.897  0.5957 -0.0207 -0.5629
 7915SOL    HW124644   0.587   2.091   6.834 -0.4441  2.3271 -1.2483
 7915SOL    HW224645   0.538   2.102   6.989  0.6053  0.6680 -0.7752
 7916SOL     OW24646   1.862   5.462   0.614  0.1351  0.0983 -0.1659
 7916SOL    HW124647   1.905   5.472   0.524  1.4253  1.7861  0.5752
 7916SOL    HW224648   1.918   5.401   0.671 -0.3587 -0.4961 -0.3137
 7917SOL     OW24649   2.932   3.480   4.777  0.2840  0.0469 -0.1020
 7917SOL    HW124650   2.942   3.380   4.776  0.4294  0.0614 -0.3358
 7917SOL    HW224651   2.927   3.513   4.871 -0.6830 -0.2697 -0.0322
 7918SOL     OW24652   1.490   0.734   6.895  0.1793  0.5013  0.6845
 7918SOL    HW124653   1.521   0.821   6.932  0.2709 -0.2269  2.4467
 7918SOL    HW224654   1.566   0.668   6.898  0.7318  0.8528 -2.5422
 7919SOL     OW24655   2.933   1.271   4.470 -0.0372  0.2061  0.2888
 7919SOL    HW124656   3.001   1.345   4.463 -1.8002  1.9936  1.1153
 7919SOL    HW224657   2.855   1.292   4.411 -0.8643 -0.6585  1.0453
 7920SOL     OW24658   6.092   0.447   5.260 -0.1412  0.1857 -0.0396
 7920SOL    HW124659   6.131   0.355   5.258  0.0109  0.2575 -0.4496
 7920SOL    HW224660   6.029   0.459   5.182  1.6804  1.2205 -1.4289
 7921SOL     OW24661   2.480   0.690   0.723  0.7285 -0.3124  0.0230
 7921SOL    HW124662   2.460   0.781   0.758 -1.3904 -0.6551 -0.1470
 7921SOL    HW224663   2.394   0.640   0.709  1.7771 -1.9365 -0.9726
 7922SOL     OW24664   0.908   3.465   4.176  0.3394  0.0857 -0.7959
 7922SOL    HW124665   0.920   3.555   4.134 -0.5255  0.8013  0.4277
 7922SOL    HW224666   0.973   3.453   4.250 -0.7508  0.4867  0.2549
 7923SOL     OW24667   6.193   4.950   6.487  0.1754  0.7726  0.5840
 7923SOL    HW124668   6.121   4.954   6.418  1.2865 -0.6996 -0.7265
 7923SOL    HW224669   6.166   5.005   6.566 -2.1381  0.6852 -0.0658
 7924SOL     OW24670   3.146   1.893   6.692  0.4090  0.7434  0.0717
 7924SOL    HW124671   3.205   1.966   6.656 -0.9685  1.2932 -1.2147
 7924SOL    HW224672   3.167   1.877   6.788  1.7099  1.8567  0.0048
 7925SOL     OW24673   3.141   2.162   3.907 -0.0557 -0.4609 -0.0164
 7925SOL    HW124674   3.156   2.171   4.006  1.2474  0.0169 -0.2397
 7925SOL    HW224675   3.045   2.181   3.886  0.0337  1.2850  0.9482
 7926SOL     OW24676   5.585   2.516   1.390  0.3407 -0.1910 -0.0817
 7926SOL    HW124677   5.652   2.589   1.401 -0.7874  0.8395  0.1245
 7926SOL    HW224678   5.524   2.537   1.314 -2.0377  0.7723  1.9401
 7927SOL     OW24679   5.133   6.377   2.817 -0.4829 -0.6877 -0.0569
 7927SOL    HW124680   5.089   6.318   2.749 -0.3996 -1.7556  0.7842
 7927SOL    HW224681   5.229   6.352   2.825 -0.3595 -0.1820  0.0479
 7928SOL     OW24682   3.210   6.851   1.611 -0.2508 -0.1476  0.2505
 7928SOL    HW124683   3.125   6.882   1.653 -0.4916 -1.2474  0.6029
 7928SOL    HW224684   3.190   6.785   1.539  0.3278 -0.8194  0.6929
 7929SOL     OW24685   6.723   0.764   2.020  0.0284  0.3614  0.3631
 7929SOL    HW124686   6.794   0.833   2.006  1.4026 -1.2371 -1.1212
 7929SOL    HW224687   6.667   0.757   1.937 -0.4079  0.0126  0.6832
 7930SOL     OW24688   2.711   1.192   1.924  0.4570  0.3574  0.5433
 7930SOL    HW124689   2.805   1.160   1.932  0.4801  0.5426  1.0773
 7930SOL    HW224690   2.680   1.226   2.013 -0.0788  0.3931  0.3465
 7931SOL     OW24691   3.108   4.073   1.532  0.1470  0.2921 -0.3259
 7931SOL    HW124692   3.198   4.075   1.490  0.3622  0.4875  0.1380
 7931SOL    HW224693   3.050   4.143   1.489 -0.0892 -0.4807 -1.2824
 7932SOL     OW24694   2.052   5.382   5.964 -0.2936 -0.7005 -0.1085
 7932SOL    HW124695   2.087   5.475   5.971  2.3315 -1.4757 -1.4049
 7932SOL    HW224696   1.986   5.365   6.037  1.8183  1.0438  2.3765
 7933SOL     OW24697   3.166   5.470   4.026 -0.0528 -0.4331 -0.3022
 7933SOL    HW124698   3.160   5.373   4.046  0.4203 -0.4364 -0.1653
 7933SOL    HW224699   3.193   5.520   4.108 -2.1937  0.0631  0.1566
 7934SOL     OW24700   3.533   0.569   0.413 -0.5037 -0.7857 -0.4110
 7934SOL    HW124701   3.505   0.580   0.509 -1.1722 -0.1537 -0.6660
 7934SOL    HW224702   3.605   0.635   0.392 -1.0313 -0.2571 -0.5943
 7935SOL     OW24703   1.219   6.556   2.907  0.6992  0.2038  0.3953
 7935SOL    HW124704   1.290   6.506   2.957  0.7028  2.1334  2.5037
 7935SOL    HW224705   1.259   6.637   2.865  0.4558 -0.7972 -1.9535
 7936SOL     OW24706   2.768   0.615   4.447  0.0998 -0.5868  0.6675
 7936SOL    HW124707   2.797   0.710   4.459  0.7943 -0.4899 -1.4347
 7936SOL    HW224708   2.671   0.612   4.424 -0.6342 -0.6282  3.4158
 7937SOL     OW24709   0.826   4.683   5.588 -0.7349 -0.0166  0.8685
 7937SOL    HW124710   0.842   4.772   5.631 -2.3401  0.6177  0.2443
 7937SOL    HW224711   0.910   4.651   5.544 -0.0014  0.9345  1.5454
 7938SOL     OW24712   6.020   5.914   5.251 -0.6354 -0.1113  0.5936
 7938SOL    HW124713   5.992   5.941   5.159  1.5249 -1.1867 -0.4639
 7938SOL    HW224714   5.972   5.831   5.278  1.2388 -1.8681 -1.1361
 7939SOL     OW24715   6.701   3.498   0.465 -0.1212  0.6105 -0.5523
 7939SOL    HW124716   6.697   3.521   0.562 -0.6690  1.6055 -0.7894
 7939SOL    HW224717   6.794   3.510   0.432  0.7530 -2.5515  0.4611
 7940SOL     OW24718   3.278   2.884   5.926  0.4351 -0.4761  0.1124
 7940SOL    HW124719   3.212   2.809   5.926  0.9525 -0.9539  1.1666
 7940SOL    HW224720   3.241   2.961   5.978  0.0687 -0.1492 -0.6288
 7941SOL     OW24721   5.452   3.403   0.789  0.1111  0.1084 -0.4938
 7941SOL    HW124722   5.531   3.445   0.743 -0.5618  2.2836  0.2386
 7941SOL    HW224723   5.465   3.406   0.888 -0.2759 -0.8455 -0.3984
 7942SOL     OW24724   6.450   3.163   1.555  0.5460  0.2026 -0.1715
 7942SOL    HW124725   6.381   3.163   1.627  0.2225  1.4426 -0.4692
 7942SOL    HW224726   6.422   3.101   1.482 -0.2041  0.6088 -0.2358
 7943SOL     OW24727   1.932   5.261   2.184  0.2300 -0.2071 -0.1792
 7943SOL    HW124728   1.884   5.192   2.130  0.7644 -1.0000  0.3325
 7943SOL    HW224729   1.998   5.309   2.126 -1.2971  1.0639 -0.9482
 7944SOL     OW24730   4.826   4.725   1.451 -0.4176 -0.2312 -0.0008
 7944SOL    HW124731   4.801   4.768   1.538 -0.6742 -0.2762 -0.0507
 7944SOL    HW224732   4.757   4.747   1.382 -0.0350  0.0819 -0.2819
 7945SOL     OW24733   6.620   1.382   5.538  0.1833  0.2130 -0.1940
 7945SOL    HW124734   6.548   1.353   5.601  0.7145 -0.2939  0.1923
 7945SOL    HW224735   6.673   1.302   5.508  0.6935  0.5978 -0.3384
 7946SOL     OW24736   3.909   3.959   3.593  0.1954  0.1173 -0.8321
 7946SOL    HW124737   4.003   3.936   3.617  0.0710  2.0599  2.0105
 7946SOL    HW224738   3.850   3.880   3.609  0.8888 -0.1322  0.7019
 7947SOL     OW24739   1.090   6.054   0.785 -0.0824  0.2440  0.9143
 7947SOL    HW124740   1.050   5.964   0.769 -0.4909  0.6713 -0.5915
 7947SOL    HW224741   1.175   6.044   0.837  0.0362 -1.0356  0.5116
 7948SOL     OW24742   2.490   1.404   2.584  0.9197 -0.3978  0.5616
 7948SOL    HW124743   2.520   1.445   2.670  0.2532 -0.7967  0.9900
 7948SOL    HW224744   2.530   1.313   2.575  1.7772  0.0176 -0.0270
 7949SOL     OW24745   5.509   3.478   4.453 -0.2109 -0.6287  0.7415
 7949SOL    HW124746   5.417   3.492   4.489 -1.2918  0.6746 -2.1837
 7949SOL    HW224747   5.560   3.564   4.456  1.1702 -1.4237  2.7211
 7950SOL     OW24748   3.418   3.998   6.187 -0.8389  0.5184 -0.3443
 7950SOL    HW124749   3.389   3.969   6.095 -2.3326  0.7246  0.0354
 7950SOL    HW224750   3.352   3.964   6.254  0.7254 -0.4303  0.7810
 7951SOL     OW24751   4.615   3.664   0.923 -0.4393  0.4726 -0.5938
 7951SOL    HW124752   4.630   3.723   1.003 -0.5243  1.1494 -1.0675
 7951SOL    HW224753   4.615   3.720   0.840 -0.9553 -0.1400 -1.0151
 7952SOL     OW24754   6.020   2.391   3.009  0.1353 -0.4767  0.0693
 7952SOL    HW124755   6.014   2.417   2.913  1.7263  0.1419  0.1131
 7952SOL    HW224756   6.046   2.470   3.064  0.8989 -1.1893  0.7748
 7953SOL     OW24757   3.073   1.658   0.896  0.2338 -0.1578 -0.5187
 7953SOL    HW124758   3.037   1.731   0.838 -1.7416 -0.1517  0.6563
 7953SOL    HW224759   3.039   1.570   0.864 -0.1085 -0.2390  0.0542
 7954SOL     OW24760   2.581   2.465   3.613 -0.2591 -0.1445  0.1909
 7954SOL    HW124761   2.516   2.458   3.688  0.5403 -0.1042  0.9014
 7954SOL    HW224762   2.573   2.555   3.571  0.5174  0.5033  1.3898
 7955SOL     OW24763   1.377   2.612   6.896  0.1507  0.2087  0.6245
 7955SOL    HW124764   1.450   2.613   6.827 -1.4710  3.7500 -1.2800
 7955SOL    HW224765   1.290   2.588   6.852 -1.0343  3.1519  1.1475
 7956SOL     OW24766   2.024   0.864   0.650  0.0321  0.0156  0.7521
 7956SOL    HW124767   2.022   0.769   0.680  0.9979 -0.1595  0.3011
 7956SOL    HW224768   2.004   0.924   0.727  0.7461 -0.5058  1.3583
 7957SOL     OW24769   0.078   1.403   0.429 -0.1271 -0.0909 -0.4813
 7957SOL    HW124770   0.092   1.326   0.366 -1.2642  0.6119 -1.6561
 7957SOL    HW224771   0.055   1.368   0.520  1.6311 -1.1349 -0.4023
 7958SOL     OW24772   6.172   1.597   4.863  0.0897  0.1403  0.0955
 7958SOL    HW124773   6.227   1.607   4.779  0.0777  0.6642  0.1531
 7958SOL    HW224774   6.207   1.659   4.933 -0.3559  0.2156  0.2487
 7959SOL     OW24775   0.820   0.326   4.697  0.0957 -0.0035  0.6165
 7959SOL    HW124776   0.801   0.300   4.603 -0.2074  0.4796  0.5390
 7959SOL    HW224777   0.908   0.375   4.701 -0.2466  0.6419  0.4579
 7960SOL     OW24778   5.841   5.641   5.669  0.2963 -0.3926  0.5127
 7960SOL    HW124779   5.926   5.603   5.632  0.8349  1.3597 -0.1567
 7960SOL    HW224780   5.836   5.622   5.767  0.4631 -2.2152  0.2200
 7961SOL     OW24781   6.519   0.996   5.578 -0.1643  0.0805  0.1744
 7961SOL    HW124782   6.594   1.020   5.516  0.7974 -0.5717  1.0550
 7961SOL    HW224783   6.453   0.938   5.529  0.4460 -0.2079 -0.3186
 7962SOL     OW24784   0.432   0.307   3.130  0.3647 -0.3244 -0.6794
 7962SOL    HW124785   0.382   0.231   3.090  0.4384  0.3163 -2.0451
 7962SOL    HW224786   0.492   0.273   3.202  0.7319 -1.6311 -1.5663
 7963SOL     OW24787   4.438   1.489   0.581 -0.0860  0.3217 -0.1633
 7963SOL    HW124788   4.412   1.575   0.624  2.6860  2.9211 -3.2051
 7963SOL    HW224789   4.432   1.498   0.481  0.3117 -3.0559 -0.6095
 7964SOL     OW24790   0.715   1.839   2.760 -0.1247  0.1098 -0.0406
 7964SOL    HW124791   0.797   1.870   2.710  1.3978 -0.7997  1.7950
 7964SOL    HW224792   0.734   1.753   2.806 -1.7903  0.4249  1.3366
 7965SOL     OW24793   0.177   0.719   3.467 -0.4556  1.0287 -0.0641
 7965SOL    HW124794   0.128   0.707   3.381 -2.1464  0.8973  0.8909
 7965SOL    HW224795   0.210   0.813   3.475 -0.1312  0.9924 -0.9147
 7966SOL     OW24796   1.353   2.377   6.602 -0.2101 -0.3041  0.3025
 7966SOL    HW124797   1.283   2.310   6.578  0.1959 -0.9258  0.8434
 7966SOL    HW224798   1.429   2.370   6.537 -0.6691  0.4360 -0.3428
 7967SOL     OW24799   1.630   3.377   4.475 -0.1398  0.3993 -0.1897
 7967SOL    HW124800   1.649   3.446   4.405  0.8623 -1.1989 -1.5572
 7967SOL    HW224801   1.666   3.409   4.563  1.3869  1.1051 -1.0326
 7968SOL     OW24802   5.192   1.575   0.628  0.5060 -0.1487  0.3094
 7968SOL    HW124803   5.132   1.628   0.569 -0.6209 -0.0239  1.5205
 7968SOL    HW224804   5.258   1.525   0.572 -0.4818 -0.0089 -1.0391
 7969SOL     OW24805   6.936   5.272   1.341  0.4241 -0.7386 -0.9167
 7969SOL    HW124806   7.025   5.274   1.387 -0.3031  2.3118  0.6132
 7969SOL    HW224807   6.947   5.298   1.245  1.1119  0.7428 -0.4644
 7970SOL     OW24808   5.831   3.688   6.526 -0.8345 -0.2858 -0.3560
 7970SOL    HW124809   5.745   3.700   6.477 -0.1963  0.3872 -1.3436
 7970SOL    HW224810   5.821   3.724   6.619 -1.2224  1.0705 -0.8949
 7971SOL     OW24811   2.747   1.014   3.398 -0.4956  0.0599  0.2083
 7971SOL    HW124812   2.690   1.032   3.479 -0.1042 -0.8956  0.7081
 7971SOL    HW224813   2.695   1.036   3.316 -1.7444 -1.1240  0.6419
 7972SOL     OW24814   4.967   4.843   4.345  0.2522  0.2359 -0.1822
 7972SOL    HW124815   4.925   4.934   4.342  1.5204  0.8630  0.0680
 7972SOL    HW224816   5.046   4.845   4.406  1.1847 -0.6498 -1.3120
 7973SOL     OW24817   2.865   4.102   6.086  0.2527 -0.3316 -0.6088
 7973SOL    HW124818   2.904   4.192   6.067  1.1631 -0.5734  0.0604
 7973SOL    HW224819   2.938   4.037   6.108 -0.4333 -1.1034 -0.5498
 7974SOL     OW24820   0.659   4.535   6.771  0.0935 -0.3973 -0.4507
 7974SOL    HW124821   0.652   4.440   6.741  1.1731 -0.0722 -1.8276
 7974SOL    HW224822   0.719   4.586   6.709  0.1584  1.0069  0.6992
 7975SOL     OW24823   2.012   6.803   4.710 -0.1982 -0.0117  0.5908
 7975SOL    HW124824   1.936   6.840   4.763  0.3080  0.3571  1.0618
 7975SOL    HW224825   2.093   6.860   4.723  0.0207 -0.0973 -0.3308
 7976SOL     OW24826   5.189   5.749   3.384 -0.3087 -0.0193  0.2438
 7976SOL    HW124827   5.240   5.785   3.462 -1.9646 -0.0072  1.3567
 7976SOL    HW224828   5.181   5.650   3.392 -0.4198 -0.0287  0.0291
 7977SOL     OW24829   5.830   2.043   3.685 -0.1226 -0.2062  0.9495
 7977SOL    HW124830   5.850   2.022   3.589  2.9646  1.9030  0.9662
 7977SOL    HW224831   5.880   1.979   3.743  0.9907  0.7060  1.0484
 7978SOL     OW24832   0.257   6.143   5.543  0.0185 -0.3594  0.1263
 7978SOL    HW124833   0.245   6.153   5.642  0.3402 -2.4345  0.4301
 7978SOL    HW224834   0.177   6.181   5.496 -0.4370  0.0845  1.2192
 7979SOL     OW24835   3.446   6.583   5.920 -0.2461  0.2619 -0.2094
 7979SOL    HW124836   3.479   6.531   5.999  1.5013  1.8315  0.1769
 7979SOL    HW224837   3.383   6.527   5.866 -1.2394 -0.9861  2.0965
 7980SOL     OW24838   6.536   1.320   6.605 -0.2065 -0.2157 -0.0482
 7980SOL    HW124839   6.502   1.259   6.533 -1.7174 -1.8399  1.9162
 7980SOL    HW224840   6.460   1.377   6.638  0.3768  0.2630  0.4882
 7981SOL     OW24841   5.946   5.477   2.688  0.1940 -0.4962 -0.4454
 7981SOL    HW124842   5.975   5.395   2.736 -0.5766 -0.8953 -0.6490
 7981SOL    HW224843   6.016   5.503   2.621 -0.2491 -1.9280 -1.5227
 7982SOL     OW24844   1.963   4.570   3.360 -0.0645  0.4240 -0.4911
 7982SOL    HW124845   1.971   4.471   3.347 -0.3016  0.4663 -0.9976
 7982SOL    HW224846   1.989   4.594   3.453 -0.9755 -0.2271 -0.0575
 7983SOL     OW24847   4.886   3.410   3.244  0.4399  0.1881  0.3784
 7983SOL    HW124848   4.857   3.466   3.166 -0.7396 -2.1539 -0.9932
 7983SOL    HW224849   4.976   3.370   3.225 -0.2499 -1.1213 -0.2565
 7984SOL     OW24850   0.906   4.047   0.242 -0.3808 -0.4361  0.2738
 7984SOL    HW124851   0.862   4.129   0.276 -1.5124 -0.9644  0.1326
 7984SOL    HW224852   0.868   3.967   0.288 -0.7372 -1.0310 -1.0012
 7985SOL     OW24853   1.616   5.921   2.629  0.1060 -0.2020 -0.5646
 7985SOL    HW124854   1.540   5.889   2.572 -1.2293 -0.2275  1.1426
 7985SOL    HW224855   1.676   5.979   2.575 -1.9909  1.1311 -1.5974
 7986SOL     OW24856   5.063   2.615   1.772  0.1625  0.1818  0.0696
 7986SOL    HW124857   5.115   2.586   1.691 -0.9217 -0.9962 -0.2287
 7986SOL    HW224858   5.024   2.706   1.756 -1.1144 -0.5591 -1.2835
 7987SOL     OW24859   3.183   4.102   4.852 -0.0663 -0.4326 -0.0779
 7987SOL    HW124860   3.134   4.050   4.923 -0.8172 -2.2769 -1.8520
 7987SOL    HW224861   3.217   4.187   4.891 -2.0921 -0.4758  1.9981
 7988SOL     OW24862   5.676   6.143   4.796  0.2726 -0.2623 -0.3774
 7988SOL    HW124863   5.674   6.214   4.726  1.2747 -0.0076 -0.1716
 7988SOL    HW224864   5.725   6.178   4.876 -0.9774 -0.4935  0.5185
 7989SOL     OW24865   0.252   3.627   3.244 -0.1041 -0.7616  0.6817
 7989SOL    HW124866   0.310   3.563   3.195 -0.1643  0.7775 -1.5174
 7989SOL    HW224867   0.308   3.702   3.280 -0.5064 -0.1128 -0.0321
 7990SOL     OW24868   4.516   3.438   1.215  0.4963 -0.8107  0.0551
 7990SOL    HW124869   4.460   3.480   1.286 -0.6615 -1.7993 -0.2285
 7990SOL    HW224870   4.473   3.452   1.125  1.6622 -0.0297 -0.4037
 7991SOL     OW24871   5.097   2.139   1.268 -0.1451  0.3407  0.1464
 7991SOL    HW124872   5.135   2.047   1.264  1.2229  0.9201 -1.7206
 7991SOL    HW224873   5.108   2.176   1.360 -1.4852 -1.6219  1.1688
 7992SOL     OW24874   1.140   0.851   4.340 -0.3445  0.3186 -0.1778
 7992SOL    HW124875   1.239   0.836   4.342  0.1770  3.2131  0.8187
 7992SOL    HW224876   1.095   0.768   4.306  2.3047 -1.4372  0.2093
 7993SOL     OW24877   4.087   3.237   2.896 -0.7431  0.8455  0.2264
 7993SOL    HW124878   4.177   3.209   2.861 -0.0967  2.3147  0.6154
 7993SOL    HW224879   4.046   3.303   2.832 -0.4751  1.9557  1.1618
 7994SOL     OW24880   2.508   0.967   0.819 -0.2160 -0.3832  0.0562
 7994SOL    HW124881   2.604   0.939   0.825 -0.0252  0.2189 -0.0792
 7994SOL    HW224882   2.499   1.039   0.750 -0.9479 -1.1985 -0.7391
 7995SOL     OW24883   2.525   0.596   5.759  0.0741  0.1234 -0.1860
 7995SOL    HW124884   2.604   0.552   5.804  0.8769  0.4829 -1.2251
 7995SOL    HW224885   2.530   0.581   5.661 -1.3799 -0.1744 -0.2380
 7996SOL     OW24886   6.444   2.908   2.742 -0.0899  0.1683  0.1092
 7996SOL    HW124887   6.453   2.862   2.830 -0.7203  0.1936  0.1870
 7996SOL    HW224888   6.353   2.892   2.704  0.1888  0.1189 -0.5632
 7997SOL     OW24889   3.096   1.008   5.397  0.2981  0.2037 -0.5450
 7997SOL    HW124890   3.044   0.950   5.334  1.0588 -2.2576  0.9345
 7997SOL    HW224891   3.034   1.048   5.465 -0.0096 -0.6783 -0.2891
 7998SOL     OW24892   0.813   5.071   0.977  0.2254  0.6615 -0.2778
 7998SOL    HW124893   0.861   5.074   0.889 -1.5279 -1.9881 -1.4356
 7998SOL    HW224894   0.729   5.125   0.970 -0.9446 -1.1774 -0.9793
 7999SOL     OW24895   3.894   3.249   0.488 -0.0154  0.2313 -0.2044
 7999SOL    HW124896   3.812   3.289   0.530 -1.7635 -3.2296  0.0702
 7999SOL    HW224897   3.975   3.275   0.541 -1.8058 -1.8227  4.0741
 8000SOL     OW24898   3.325   3.258   5.868 -0.3674  0.2319  0.7584
 8000SOL    HW124899   3.387   3.184   5.843 -1.0913  0.2114 -1.1817
 8000SOL    HW224900   3.282   3.238   5.956  0.5130 -0.9479  0.9376
 8001SOL     OW24901   2.155   3.439   3.402  0.2325  0.3331 -0.4645
 8001SOL    HW124902   2.230   3.499   3.373  1.6373 -1.9373 -1.9487
 8001SOL    HW224903   2.083   3.440   3.333 -0.0132  0.7314 -0.2048
 8002SOL     OW24904   3.638   0.971   5.783 -0.5732 -0.6483  0.7181
 8002SOL    HW124905   3.704   0.899   5.803  0.3282 -0.7917 -2.2832
 8002SOL    HW224906   3.675   1.059   5.813  0.2155 -0.9429  0.6403
 8003SOL     OW24907   2.915   1.732   6.223 -0.4816  0.2163  0.6041
 8003SOL    HW124908   2.978   1.697   6.154 -1.7371 -1.9904  0.4679
 8003SOL    HW224909   2.859   1.805   6.183 -0.4444 -0.2762 -0.3725
 8004SOL     OW24910   5.689   6.977   5.444 -0.3089  0.3448  0.7888
 8004SOL    HW124911   5.622   6.968   5.370  0.4488 -1.6510  0.2826
 8004SOL    HW224912   5.722   7.072   5.448 -0.3595  0.5047 -1.4580
 8005SOL     OW24913   5.009   3.160   1.709 -0.2028  0.0839 -0.3101
 8005SOL    HW124914   4.967   3.218   1.640  0.4878  0.9251 -0.0501
 8005SOL    HW224915   5.109   3.162   1.698  0.0165  1.2487  1.4401
 8006SOL     OW24916   4.113   2.253   2.146  0.0330 -0.1437 -0.1079
 8006SOL    HW124917   4.042   2.284   2.083  0.1929 -1.6090 -1.0472
 8006SOL    HW224918   4.075   2.243   2.238 -0.5255  0.7460 -0.2319
 8007SOL     OW24919   6.817   1.214   3.385 -0.3316  0.1512 -0.2914
 8007SOL    HW124920   6.878   1.190   3.309  0.7176 -2.3891  1.2326
 8007SOL    HW224921   6.871   1.245   3.463 -1.1775  0.2184  0.2824
 8008SOL     OW24922   4.480   2.634   0.055  0.5672  1.1078  0.4722
 8008SOL    HW124923   4.559   2.575   0.041  0.4408  1.2894 -1.1838
 8008SOL    HW224924   4.427   2.601   0.133  1.9008  0.5960  1.1900
 8009SOL     OW24925   2.598   4.105   0.386  0.1709 -0.0959  0.2015
 8009SOL    HW124926   2.610   4.148   0.297  2.0147 -0.6809  0.1280
 8009SOL    HW224927   2.521   4.040   0.382  1.1444 -1.2165 -1.4143
 8010SOL     OW24928   5.404   5.308   3.657 -0.2363 -0.8936  0.2503
 8010SOL    HW124929   5.377   5.404   3.651 -2.0651 -1.3898 -0.1258
 8010SOL    HW224930   5.503   5.301   3.665 -0.0821  1.0180  0.3123
 8011SOL     OW24931   1.585   1.026   6.936  0.2968 -0.1720 -0.0914
 8011SOL    HW124932   1.594   1.103   6.873  1.5660 -0.0826  0.1862
 8011SOL    HW224933   1.674   1.001   6.972 -0.3513 -0.5181  1.3333
 8012SOL     OW24934   2.568   5.862   6.602  0.4457 -0.8425 -0.2755
 8012SOL    HW124935   2.527   5.880   6.512  0.2640  0.0332 -0.0295
 8012SOL    HW224936   2.496   5.848   6.669  0.5865 -1.8872 -0.3369
 8013SOL     OW24937   4.720   4.919   6.771  0.2552  0.2840 -0.3462
 8013SOL    HW124938   4.694   4.823   6.780 -0.0004  0.4229  0.4880
 8013SOL    HW224939   4.799   4.938   6.829 -0.0640  0.7087 -0.0402
 8014SOL     OW24940   5.795   0.351   6.572  0.0150  0.2038  0.5678
 8014SOL    HW124941   5.838   0.262   6.557 -3.8201 -1.4312 -2.3744
 8014SOL    HW224942   5.758   0.355   6.665  0.3676 -1.2293  0.7905
 8015SOL     OW24943   3.145   6.843   4.468  0.4433  0.4925 -0.7597
 8015SOL    HW124944   3.109   6.800   4.551  2.1310 -2.0164 -1.2340
 8015SOL    HW224945   3.080   6.911   4.435 -1.3726 -0.1676  1.2488
 8016SOL     OW24946   1.720   0.130   6.483  0.2613 -0.6909  0.1444
 8016SOL    HW124947   1.807   0.081   6.477  1.9079  1.9260  0.7236
 8016SOL    HW224948   1.655   0.077   6.537  1.8145 -2.3082  0.5126
 8017SOL     OW24949   4.751   0.773   5.575  0.6655  0.2189 -0.4032
 8017SOL    HW124950   4.674   0.823   5.533  0.9427  2.0990  1.1775
 8017SOL    HW224951   4.837   0.809   5.540  0.8576 -0.7474 -0.9406
 8018SOL     OW24952   5.078   6.700   6.726 -0.0645  0.3667  0.1571
 8018SOL    HW124953   5.098   6.612   6.770  0.2498  0.7251  0.7375
 8018SOL    HW224954   5.009   6.686   6.654 -0.7494 -0.1988  0.9022
 8019SOL     OW24955   4.225   6.405   1.147 -0.4128 -0.1396 -0.4234
 8019SOL    HW124956   4.169   6.484   1.122 -1.6006 -0.8353 -0.0327
 8019SOL    HW224957   4.186   6.360   1.227  0.2502 -1.1210 -0.6310
 8020SOL     OW24958   1.949   1.007   5.842 -0.1870 -0.0326 -0.3636
 8020SOL    HW124959   1.887   0.933   5.869  0.8095 -1.2612 -1.3380
 8020SOL    HW224960   1.904   1.065   5.774 -0.3601 -0.7777 -0.8965
 8021SOL     OW24961   6.751   3.981   6.269  0.0961 -0.1449  0.3465
 8021SOL    HW124962   6.724   3.892   6.305 -1.3556 -0.5623 -1.5897
 8021SOL    HW224963   6.677   4.018   6.213  0.8148  2.1326  0.8247
 8022SOL     OW24964   2.447   3.254   6.358 -0.3499 -0.4026 -0.1928
 8022SOL    HW124965   2.497   3.168   6.368 -1.7620 -1.1383  1.1636
 8022SOL    HW224966   2.439   3.277   6.261  0.0967 -1.7880 -0.5879
 8023SOL     OW24967   2.571   1.557   5.443 -0.1796 -0.1179 -0.2458
 8023SOL    HW124968   2.668   1.580   5.435  0.0530 -1.4668 -1.8763
 8023SOL    HW224969   2.520   1.603   5.370 -1.1860  2.2157  1.7476
 8024SOL     OW24970   2.771   4.354   5.320 -0.1755  0.0112  0.2641
 8024SOL    HW124971   2.821   4.281   5.274 -0.0519 -0.1992  0.7208
 8024SOL    HW224972   2.811   4.442   5.297  0.4553 -0.1629  0.6817
 8025SOL     OW24973   1.444   2.927   5.504  0.0945 -0.0087 -0.0115
 8025SOL    HW124974   1.418   2.976   5.420  0.2564  0.5991  0.2878
 8025SOL    HW224975   1.496   2.988   5.563 -0.7521 -0.1526  0.9186
 8026SOL     OW24976   2.851   4.992   4.744 -1.0216 -0.6308  0.1795
 8026SOL    HW124977   2.935   5.044   4.727 -0.3455 -1.7506  0.0475
 8026SOL    HW224978   2.775   5.035   4.695 -0.8048  1.1346  1.3058
 8027SOL     OW24979   3.926   5.718   0.902 -0.7553  0.5655  0.2527
 8027SOL    HW124980   3.994   5.675   0.961 -0.1182  1.4441  0.1777
 8027SOL    HW224981   3.914   5.814   0.928 -0.7209  0.8736 -0.8064
 8028SOL     OW24982   4.900   3.386   4.634  0.4622  0.1882 -0.1628
 8028SOL    HW124983   4.914   3.298   4.588 -1.9708 -0.3051 -0.0588
 8028SOL    HW224984   4.839   3.373   4.712 -0.0455  2.0043 -0.2241
 8029SOL     OW24985   0.825   0.216   1.810 -0.0609  0.6377 -0.3140
 8029SOL    HW124986   0.725   0.211   1.809 -0.2171  2.7800  0.3536
 8029SOL    HW224987   0.862   0.132   1.770 -2.0860 -0.7642  0.5555
 8030SOL     OW24988   3.062   5.410   1.933  0.3947 -0.1694 -0.0004
 8030SOL    HW124989   3.039   5.312   1.933  1.2231 -0.3737 -0.7372
 8030SOL    HW224990   3.120   5.430   2.013  1.3197 -0.5626 -0.5561
 8031SOL     OW24991   2.431   2.295   5.488 -0.0838  0.0981  0.4109
 8031SOL    HW124992   2.360   2.225   5.502 -0.3953  0.6708  1.9753
 8031SOL    HW224993   2.388   2.380   5.458  0.2351 -0.1988 -0.9571
 8032SOL     OW24994   5.048   3.843   1.264 -0.0511 -0.8588 -0.5996
 8032SOL    HW124995   5.110   3.806   1.196 -0.0094  0.4713 -1.3256
 8032SOL    HW224996   4.959   3.799   1.257 -0.1055 -0.5907 -1.6600
 8033SOL     OW24997   2.222   0.556   0.754 -0.0364 -0.5063 -0.3231
 8033SOL    HW124998   2.217   0.457   0.738 -0.0803 -0.3386 -1.3811
 8033SOL    HW224999   2.131   0.596   0.740  0.2050 -0.1663 -0.9183
 8034SOL     OW25000   4.878   5.689   4.819 -0.2588 -0.0159 -0.3483
 8034SOL    HW125001   4.932   5.651   4.894 -2.3134 -0.4456  1.0057
 8034SOL    HW225002   4.848   5.781   4.844 -2.3796 -0.8009  0.1892
 8035SOL     OW25003   3.114   5.772   4.428 -0.8416 -0.1114  0.2105
 8035SOL    HW125004   3.047   5.819   4.370  1.2165  0.6980 -1.6358
 8035SOL    HW225005   3.164   5.705   4.374  2.0565  1.5786  0.6007
 8036SOL     OW25006   3.220   1.565   5.081 -0.3947  0.3892 -0.4177
 8036SOL    HW125007   3.280   1.643   5.065 -1.9829  1.5322 -1.0369
 8036SOL    HW225008   3.134   1.597   5.119 -1.0669 -1.0892 -0.6361
 8037SOL     OW25009   1.770   6.351   4.196 -0.3675 -0.2029 -0.0244
 8037SOL    HW125010   1.690   6.404   4.226 -0.0018 -0.4334  1.4213
 8037SOL    HW225011   1.830   6.334   4.274  1.6030  0.7871 -1.2440
 8038SOL     OW25012   1.442   2.969   1.210 -0.6779 -0.1829 -0.7756
 8038SOL    HW125013   1.536   2.986   1.242 -0.5371  0.4674 -1.5000
 8038SOL    HW225014   1.392   3.055   1.208 -1.3260 -0.5402 -0.3282
 8039SOL     OW25015   6.160   6.567   6.411  0.5378 -0.5243  0.0038
 8039SOL    HW125016   6.147   6.498   6.482 -0.0241 -1.5695 -1.0633
 8039SOL    HW225017   6.235   6.628   6.436 -0.4762 -0.0693  2.0638
 8040SOL     OW25018   4.402   6.863   4.866 -0.0643 -0.1041 -0.3606
 8040SOL    HW125019   4.431   6.955   4.838  0.6357 -0.5453 -1.1476
 8040SOL    HW225020   4.303   6.855   4.854  0.1836 -0.2797 -2.9066
 8041SOL     OW25021   0.274   1.744   3.146  0.4997  0.4921  0.2719
 8041SOL    HW125022   0.267   1.678   3.221 -1.2847 -1.6095 -1.6021
 8041SOL    HW225023   0.209   1.818   3.160 -1.4614 -1.0598 -0.2162
 8042SOL     OW25024   6.187   0.071   0.925  0.4161 -0.0472  0.0099
 8042SOL    HW125025   6.264   0.132   0.939  1.9617 -1.7071 -0.7956
 8042SOL    HW225026   6.199  -0.012   0.980  0.4813 -1.3664 -1.8577
 8043SOL     OW25027   2.806   6.097   6.602 -0.5750  0.2468  0.2429
 8043SOL    HW125028   2.813   6.005   6.638 -0.8579 -0.3403 -1.1288
 8043SOL    HW225029   2.722   6.105   6.547 -2.0575  2.1346  2.5745
 8044SOL     OW25030   1.491   0.149   1.499  0.0794  0.0455 -0.1937
 8044SOL    HW125031   1.587   0.143   1.473  0.6892  0.5853  1.7387
 8044SOL    HW225032   1.442   0.205   1.433  1.5300  1.4210 -0.1762
 8045SOL     OW25033   3.916   6.041   2.255 -0.0099  0.7104 -0.3324
 8045SOL    HW125034   3.875   6.074   2.170 -1.2342 -1.2211 -0.5463
 8045SOL    HW225035   4.014   6.026   2.242  0.5324  3.5693 -0.3723
 8046SOL     OW25036   5.005   4.464   4.436 -0.8669  0.1460  0.5124
 8046SOL    HW125037   4.981   4.370   4.460  0.4618 -0.1102  0.9261
 8046SOL    HW225038   5.079   4.496   4.496 -2.8945  2.3158  2.0492
 8047SOL     OW25039   0.748   4.390   2.699 -0.0856 -0.1633  0.0199
 8047SOL    HW125040   0.673   4.333   2.732  1.4613 -1.7366  0.9491
 8047SOL    HW225041   0.808   4.336   2.640  0.3765  1.0464 -0.6513
 8048SOL     OW25042   0.862   3.878   6.832 -0.4175 -1.0628 -0.3741
 8048SOL    HW125043   0.889   3.800   6.888 -3.5791 -0.9216  1.5807
 8048SOL    HW225044   0.871   3.855   6.735  1.0772 -2.8949  0.1481
 8049SOL     OW25045   2.875   4.449   6.663 -0.2360 -0.2094  0.1351
 8049SOL    HW125046   2.943   4.396   6.713  1.4181  1.9267  0.2894
 8049SOL    HW225047   2.796   4.391   6.641  1.0605 -2.4229  1.0611
 8050SOL     OW25048   4.124   6.613   4.784  0.0323  0.5013 -0.5038
 8050SOL    HW125049   4.211   6.566   4.770 -0.5382 -0.4345 -1.0420
 8050SOL    HW225050   4.049   6.551   4.762 -0.8097  0.9508  0.9461
 8051SOL     OW25051   6.738   3.994   1.120  0.0571  0.3160 -0.4399
 8051SOL    HW125052   6.659   3.969   1.176  0.7686 -2.3457 -0.5055
 8051SOL    HW225053   6.822   3.972   1.169  0.7175  0.3185 -1.5392
 8052SOL     OW25054   5.223   1.591   5.672  0.1895  1.0471 -0.1817
 8052SOL    HW125055   5.229   1.680   5.627  0.6488  1.0918 -0.0334
 8052SOL    HW225056   5.269   1.595   5.761 -1.0357  1.0742  0.4811
 8053SOL     OW25057   3.393   6.889   2.422 -0.2674  0.1408  0.3104
 8053SOL    HW125058   3.309   6.840   2.400  0.8506 -1.3544 -0.8748
 8053SOL    HW225059   3.472   6.837   2.389  1.3759 -0.0779  4.0348
 8054SOL     OW25060   1.898   2.152   0.976 -0.2648  0.1570 -0.3313
 8054SOL    HW125061   1.818   2.138   0.918 -1.8392 -1.0001  1.9555
 8054SOL    HW225062   1.942   2.064   0.994 -0.8879  0.1673  1.5671
 8055SOL     OW25063   4.636   1.018   2.992 -0.1312  0.1935 -0.1163
 8055SOL    HW125064   4.714   0.994   3.049  0.3601 -1.9146 -1.5335
 8055SOL    HW225065   4.669   1.067   2.911 -0.0642 -1.6303 -1.2470
 8056SOL     OW25066   0.934   3.791   2.423  0.2024 -0.1209  1.0155
 8056SOL    HW125067   0.915   3.725   2.350  0.9963  0.4960  0.2312
 8056SOL    HW225068   0.849   3.832   2.454 -0.3293 -1.6359  1.6497
 8057SOL     OW25069   0.378   2.249   2.769  0.1505 -0.0765  0.1470
 8057SOL    HW125070   0.446   2.211   2.833 -0.0758  1.3009  1.2486
 8057SOL    HW225071   0.351   2.340   2.800  0.6247  0.9937 -2.3634
 8058SOL     OW25072   3.635   0.880   4.980 -0.2188 -0.4378  0.2545
 8058SOL    HW125073   3.632   0.931   5.066 -0.6150 -0.7841  0.4524
 8058SOL    HW225074   3.604   0.786   4.996 -2.2938  0.0374 -0.6469
 8059SOL     OW25075   5.300   6.846   6.597 -0.2438 -0.1464 -0.4365
 8059SOL    HW125076   5.275   6.876   6.504 -1.2395  1.9621  0.4396
 8059SOL    HW225077   5.219   6.808   6.643 -0.3794  1.0453  0.3492
 8060SOL     OW25078   2.644   6.266   3.046  0.0713  0.4918 -0.2297
 8060SOL    HW125079   2.723   6.266   3.108 -0.3260  0.3559  0.2833
 8060SOL    HW225080   2.565   6.228   3.094 -0.0144 -0.4884 -1.1064
 8061SOL     OW25081   2.596   4.188   0.113 -0.2919 -0.2817 -0.0141
 8061SOL    HW125082   2.624   4.252   0.041  0.1997 -0.6482 -0.1513
 8061SOL    HW225083   2.544   4.113   0.072 -1.8259  0.5790  0.2823
 8062SOL     OW25084   0.182   6.310   0.373 -0.4576  0.0748 -0.3329
 8062SOL    HW125085   0.229   6.397   0.363  0.1591 -0.3523 -1.2966
 8062SOL    HW225086   0.227   6.256   0.444 -0.4587  0.2857 -0.1707
 8063SOL     OW25087   1.305   5.130   0.139 -0.4150 -0.3767  0.3166
 8063SOL    HW125088   1.312   5.228   0.122 -0.5462 -0.2934  0.7343
 8063SOL    HW225089   1.345   5.080   0.062 -0.4856  0.0000  0.0297
 8064SOL     OW25090   3.034   6.032   6.480 -0.1507 -0.0984  0.5080
 8064SOL    HW125091   2.945   6.068   6.506 -0.1588 -0.1862  0.5986
 8064SOL    HW225092   3.095   6.108   6.456  0.0797  0.0295  1.4575
 8065SOL     OW25093   5.900   6.149   3.455 -0.2639 -0.3265  0.2446
 8065SOL    HW125094   5.950   6.094   3.388 -0.6552  0.8634 -1.0701
 8065SOL    HW225095   5.948   6.236   3.470 -0.3969 -0.4072  1.2141
 8066SOL     OW25096   0.361   1.733   0.538  0.0308  0.2893 -0.5003
 8066SOL    HW125097   0.369   1.640   0.504 -0.6661 -0.0044  0.1100
 8066SOL    HW225098   0.268   1.748   0.572  0.5290  0.7518  0.7202
 8067SOL     OW25099   0.882   5.756   4.137  0.5203 -0.1642  0.0498
 8067SOL    HW125100   0.813   5.802   4.080  0.0998 -1.3164 -0.3999
 8067SOL    HW225101   0.967   5.746   4.085  0.9707  1.0120  0.5117
 8068SOL     OW25102   5.896   1.125   2.914 -0.0789 -0.3225  0.1025
 8068SOL    HW125103   5.967   1.127   2.985 -0.7950  1.1185  0.8133
 8068SOL    HW225104   5.924   1.181   2.837  0.1205 -0.8394 -0.2107
 8069SOL     OW25105   1.662   2.606   0.924 -0.5292 -0.4876 -0.0618
 8069SOL    HW125106   1.642   2.612   1.022 -1.0554  0.4732 -0.2079
 8069SOL    HW225107   1.615   2.680   0.876  0.5232 -0.3339 -0.9130
 8070SOL     OW25108   0.919   2.266   2.209  0.4588 -0.1289  0.4032
 8070SOL    HW125109   0.976   2.253   2.290  0.5295  0.0879  0.3889
 8070SOL    HW225110   0.825   2.288   2.237  0.3456 -0.6226  0.4273
 8071SOL     OW25111   5.081   3.264   0.971 -0.3130  0.2849 -0.1515
 8071SOL    HW125112   5.082   3.211   0.886 -2.6955 -0.1849  0.0342
 8071SOL    HW225113   5.024   3.217   1.039  0.3177  1.4000  1.1952
 8072SOL     OW25114   5.621   0.743   0.600 -0.5996  0.4987  0.1556
 8072SOL    HW125115   5.674   0.683   0.659 -1.6261 -0.8873 -0.2793
 8072SOL    HW225116   5.528   0.754   0.637 -1.1604 -0.1461 -1.0080
 8073SOL     OW25117   1.984   0.878   1.814  0.3083 -0.1062 -0.0370
 8073SOL    HW125118   1.903   0.823   1.798 -0.4083  0.6475  0.9085
 8073SOL    HW225119   2.044   0.873   1.733 -0.5219 -0.9010 -0.6242
 8074SOL     OW25120   3.455   4.438   1.430  0.3550 -0.5316  0.2247
 8074SOL    HW125121   3.549   4.441   1.396 -0.6594  0.5161 -2.7603
 8074SOL    HW225122   3.456   4.406   1.525  3.6893 -0.5478  0.3233
 8075SOL     OW25123   0.774   2.458   1.103 -0.1478  0.1070  0.2133
 8075SOL    HW125124   0.845   2.515   1.060  0.9372 -1.1985  0.2084
 8075SOL    HW225125   0.733   2.509   1.179 -2.2457  2.5513 -2.3469
 8076SOL     OW25126   2.697   0.301   6.494  0.4426  0.6251  0.2757
 8076SOL    HW125127   2.781   0.299   6.548  0.5092  1.0415  0.1935
 8076SOL    HW225128   2.618   0.302   6.556  0.4726 -0.4779  0.3467
 8077SOL     OW25129   6.279   6.630   3.502 -0.3348 -1.1721 -0.1903
 8077SOL    HW125130   6.216   6.687   3.450  0.1445 -0.8911 -0.4726
 8077SOL    HW225131   6.328   6.686   3.569 -0.6338 -1.4528  0.2715
 8078SOL     OW25132   0.135   0.057   3.215 -0.5681  0.3579 -0.0564
 8078SOL    HW125133   0.061   0.101   3.267  0.6933  0.4179  1.8050
 8078SOL    HW225134   0.125  -0.042   3.220  0.1844  0.3231  1.3956
 8079SOL     OW25135   2.157   3.090   3.175 -0.2370 -0.5071 -0.0881
 8079SOL    HW125136   2.127   3.077   3.269 -0.6580  0.8321 -0.0292
 8079SOL    HW225137   2.164   3.187   3.154  0.2449 -0.7818 -1.3246
 8080SOL     OW25138   3.766   6.411   5.975 -0.1180 -0.0059  0.0038
 8080SOL    HW125139   3.727   6.324   5.945  0.5861 -0.5471  0.6205
 8080SOL    HW225140   3.759   6.478   5.900  0.1514 -0.8483 -0.7982
 8081SOL     OW25141   5.699   3.602   3.939  0.0091  0.4080 -0.1340
 8081SOL    HW125142   5.734   3.588   4.032 -0.2631 -0.5067 -0.1666
 8081SOL    HW225143   5.650   3.690   3.935  0.5306  0.7328  0.4296
 8082SOL     OW25144   2.946   3.153   5.844 -0.1585 -0.4849 -0.1145
 8082SOL    HW125145   2.865   3.207   5.870 -1.6691 -1.9390 -1.5720
 8082SOL    HW225146   3.009   3.149   5.922 -1.3247  0.9411  0.9690
 8083SOL     OW25147   0.862   5.848   1.941 -0.5526 -0.3085  0.1969
 8083SOL    HW125148   0.909   5.765   1.910  0.3846  0.7776 -1.4799
 8083SOL    HW225149   0.889   5.869   2.035  1.5497 -0.3267 -0.3444
 8084SOL     OW25150   2.203   5.794   6.335  0.3789  0.1881 -0.1753
 8084SOL    HW125151   2.161   5.869   6.284  0.9560  1.8838  1.7201
 8084SOL    HW225152   2.132   5.735   6.372 -0.1224  0.2434 -1.0244
 8085SOL     OW25153   5.916   1.358   3.526 -0.0261  0.1557 -0.1086
 8085SOL    HW125154   5.982   1.356   3.452 -1.7531 -1.1087 -1.7180
 8085SOL    HW225155   5.932   1.281   3.588  1.1778  0.9965  0.6855
 8086SOL     OW25156   2.408   1.633   1.164 -0.1501  0.2902  0.3465
 8086SOL    HW125157   2.469   1.711   1.181 -0.9696  1.3802 -1.3599
 8086SOL    HW225158   2.439   1.554   1.216  2.0304  1.1304  0.4332
 8087SOL     OW25159   2.966   3.332   2.673 -0.4436  0.1399 -0.5768
 8087SOL    HW125160   3.043   3.373   2.622  1.4321 -0.1048  1.8559
 8087SOL    HW225161   2.975   3.233   2.672 -0.0451  0.1461  0.6267
 8088SOL     OW25162   5.981   6.286   1.701 -0.2861  0.2142 -0.0022
 8088SOL    HW125163   6.025   6.372   1.726 -0.0482 -0.5616  2.4860
 8088SOL    HW225164   5.906   6.267   1.764 -0.4488 -1.3395 -0.6175
 8089SOL     OW25165   6.207   3.204   3.124 -0.1676  0.4532  0.7550
 8089SOL    HW125166   6.241   3.163   3.209  0.1600  1.1623  0.9694
 8089SOL    HW225167   6.112   3.177   3.110  0.3042 -1.1810  0.3855
 8090SOL     OW25168   6.900   3.250   1.621 -0.5138  0.1634  0.1393
 8090SOL    HW125169   6.802   3.257   1.604 -0.3219  0.9258 -0.7102
 8090SOL    HW225170   6.950   3.292   1.545  0.4739 -0.3154  0.5108
 8091SOL     OW25171   3.201   6.415   2.903 -0.6595 -0.0305  0.4905
 8091SOL    HW125172   3.159   6.326   2.922  0.2899 -0.9396 -1.3629
 8091SOL    HW225173   3.226   6.420   2.806  2.4655  0.8575  1.2338
 8092SOL     OW25174   1.455   2.947   2.872 -0.3259  0.1972 -0.1872
 8092SOL    HW125175   1.512   2.904   2.802 -0.9032  0.1791 -0.6581
 8092SOL    HW225176   1.513   2.988   2.942  0.3479  2.0758 -1.7627
 8093SOL     OW25177   1.052   4.234   2.106 -0.4192  0.0835 -0.0554
 8093SOL    HW125178   1.048   4.211   2.009 -1.0032 -1.1281  0.2305
 8093SOL    HW225179   1.044   4.150   2.160  2.4361  0.4127  1.0341
 8094SOL     OW25180   4.398   2.107   6.258 -0.5938 -0.2788 -0.6579
 8094SOL    HW125181   4.417   2.024   6.206  0.0166 -0.4754 -0.1283
 8094SOL    HW225182   4.368   2.179   6.195 -1.7420 -1.0717 -1.0400
 8095SOL     OW25183   2.720   5.413   3.207  0.1933  0.4957 -0.0008
 8095SOL    HW125184   2.817   5.394   3.223  0.0272 -1.0368 -0.6215
 8095SOL    HW225185   2.708   5.452   3.116  0.1512 -0.2263 -0.3141
 8096SOL     OW25186   1.696   1.491   4.798  0.3724  0.7863 -0.4274
 8096SOL    HW125187   1.684   1.417   4.731  0.3149  1.0690 -0.7348
 8096SOL    HW225188   1.737   1.570   4.752 -0.6763  1.3737 -0.3858
 8097SOL     OW25189   2.944   3.350   6.998  0.2752  0.4062 -0.0013
 8097SOL    HW125190   2.925   3.432   6.944 -0.4562  0.2075 -0.0590
 8097SOL    HW225191   3.040   3.322   6.985  0.9281  2.0114  1.0706
 8098SOL     OW25192   0.774   2.879   1.991  1.1345  0.4024 -0.4508
 8098SOL    HW125193   0.869   2.849   1.985  0.4261 -2.2453  0.1912
 8098SOL    HW225194   0.761   2.932   2.074  1.5520 -1.5814  0.9635
 8099SOL     OW25195   3.076   6.722   2.053 -0.3601  0.1237  0.6823
 8099SOL    HW125196   2.980   6.726   2.081 -0.6579 -0.3708 -0.2274
 8099SOL    HW225197   3.085   6.663   1.973  0.2780  2.2988 -0.9567
 8100SOL     OW25198   0.435   6.685   5.681  0.2387 -0.1777  0.3009
 8100SOL    HW125199   0.399   6.682   5.774 -1.8394 -0.7663 -0.4677
 8100SOL    HW225200   0.412   6.772   5.638 -1.3129 -0.9572 -0.5474
 8101SOL     OW25201   6.850   0.905   5.599  0.6863  0.1357 -0.1658
 8101SOL    HW125202   6.786   0.871   5.667  1.5172 -0.1797  0.4743
 8101SOL    HW225203   6.936   0.854   5.605  0.2671 -0.9945 -2.4999
 8102SOL     OW25204   5.018   2.467   6.084 -0.0431 -0.7924 -0.4185
 8102SOL    HW125205   5.044   2.557   6.048 -0.3854 -1.1121 -1.4888
 8102SOL    HW225206   5.014   2.472   6.184  1.5361 -0.0425 -0.3505
 8103SOL     OW25207   5.607   0.234   1.540  0.3991 -0.5161 -0.3640
 8103SOL    HW125208   5.538   0.162   1.544 -0.4209  0.2046 -1.0612
 8103SOL    HW225209   5.562   0.322   1.525  1.3959  0.1288  0.3352
 8104SOL     OW25210   1.350   5.749   4.599  0.2606  0.8974 -0.3987
 8104SOL    HW125211   1.366   5.686   4.523 -1.4542  0.8509 -0.7860
 8104SOL    HW225212   1.433   5.802   4.618  1.2545 -0.3709 -1.0905
 8105SOL     OW25213   4.768   0.664   2.709 -0.7296  0.1110 -0.2616
 8105SOL    HW125214   4.780   0.671   2.808  1.3307 -0.3752 -0.4449
 8105SOL    HW225215   4.857   0.666   2.664 -1.5206 -1.3005 -2.0063
 8106SOL     OW25216   0.655   3.526   0.715 -0.6149 -0.1983 -0.2834
 8106SOL    HW125217   0.670   3.520   0.616 -0.0038 -0.3312 -0.1852
 8106SOL    HW225218   0.673   3.437   0.757 -3.8612 -1.0523 -0.4230
 8107SOL     OW25219   0.357   4.624   5.784 -0.6050  0.3237 -0.0838
 8107SOL    HW125220   0.322   4.536   5.754 -0.5376  0.6798 -1.2936
 8107SOL    HW225221   0.454   4.630   5.763  0.1697 -0.4787  2.8248
 8108SOL     OW25222   4.231   0.001   3.247 -0.3868 -0.6951  0.1074
 8108SOL    HW125223   4.263  -0.053   3.169  2.3197  0.3096  0.3939
 8108SOL    HW225224   4.267  -0.038   3.332  1.9315  1.5704  0.2978
 8109SOL     OW25225   1.862   1.093   0.613 -0.7057  0.2300  0.1124
 8109SOL    HW125226   1.899   1.150   0.686 -1.1344 -1.7072  1.9470
 8109SOL    HW225227   1.763   1.082   0.626 -0.9008  0.3345 -1.1309
 8110SOL     OW25228   0.050   4.913   6.446  0.5271  0.5867 -0.5153
 8110SOL    HW125229   0.019   4.987   6.505  0.6016 -0.3305  0.7140
 8110SOL    HW225230  -0.018   4.839   6.448  1.4820 -0.3049  0.0647
 8111SOL     OW25231   3.341   2.325   0.597 -0.0019  0.0666  0.0405
 8111SOL    HW125232   3.338   2.425   0.589  0.7683  0.1702  0.9534
 8111SOL    HW225233   3.265   2.293   0.654 -1.0341 -0.0111 -1.3139
 8112SOL     OW25234   1.230   1.421   3.543  1.0595  0.1018 -0.0217
 8112SOL    HW125235   1.311   1.376   3.581  0.0946 -1.8199 -0.0981
 8112SOL    HW225236   1.158   1.424   3.612  1.2703  2.1241  0.1645
 8113SOL     OW25237   1.350   0.926   2.131  0.2881 -0.4971 -0.2487
 8113SOL    HW125238   1.371   0.850   2.069 -0.3305 -0.2128 -0.8231
 8113SOL    HW225239   1.331   1.008   2.077 -1.5993 -0.5691  0.2275
 8114SOL     OW25240   6.944   5.116   3.667  0.2080  0.3994  0.3406
 8114SOL    HW125241   7.043   5.114   3.677  0.1143 -0.7567  1.2093
 8114SOL    HW225242   6.920   5.122   3.570  1.1460 -2.6624 -0.1890
 8115SOL     OW25243   3.216   2.026   1.123 -0.2157 -0.4536  0.2283
 8115SOL    HW125244   3.313   2.021   1.099 -0.3771  0.7126 -0.7875
 8115SOL    HW225245   3.199   2.109   1.176 -0.3966 -1.5032  1.8879
 8116SOL     OW25246   3.379   4.131   6.798 -0.3345 -0.0695  0.4777
 8116SOL    HW125247   3.324   4.087   6.869  0.6968 -0.8411  0.8261
 8116SOL    HW225248   3.420   4.061   6.740 -1.1320  0.5454 -0.8921
 8117SOL     OW25249   4.259   5.130   6.491  0.0270 -0.0093 -0.4915
 8117SOL    HW125250   4.347   5.127   6.445  0.5826  0.0788  0.5472
 8117SOL    HW225251   4.220   5.038   6.495 -0.1992  0.0404 -1.4517
 8118SOL     OW25252   1.366   3.250   4.517  0.6061  0.0368 -0.1255
 8118SOL    HW125253   1.359   3.167   4.573 -0.1893  0.3227  0.2130
 8118SOL    HW225254   1.458   3.258   4.480  0.2979 -1.8334 -1.4553
 8119SOL     OW25255   5.894   6.530   6.291  0.2598 -0.6437 -0.0715
 8119SOL    HW125256   5.876   6.433   6.273  0.6569 -0.8211  0.4566
 8119SOL    HW225257   5.973   6.538   6.352 -0.7787 -0.0495  1.2372
 8120SOL     OW25258   6.644   1.160   5.005 -0.0372 -0.1382 -0.4712
 8120SOL    HW125259   6.734   1.193   4.975  0.9581  0.2055  2.5538
 8120SOL    HW225260   6.649   1.063   5.026 -0.3384 -0.0877 -0.1585
 8121SOL     OW25261   1.892   0.129   1.705 -0.0426 -0.1969 -0.0824
 8121SOL    HW125262   1.903   0.194   1.781  2.4442 -0.5161 -0.0964
 8121SOL    HW225263   1.836   0.052   1.735  0.6149 -0.1496  1.3335
 8122SOL     OW25264   2.294   4.309   2.970 -0.0246 -0.3451 -0.3748
 8122SOL    HW125265   2.290   4.406   2.947 -0.1978 -0.1078  0.5930
 8122SOL    HW225266   2.236   4.257   2.907  0.7898  0.0536 -1.4697
 8123SOL     OW25267   6.491   6.006   2.399  0.2188 -0.2788 -0.2370
 8123SOL    HW125268   6.564   6.063   2.361  1.0950 -0.2309  1.4205
 8123SOL    HW225269   6.486   6.020   2.498 -1.3045 -1.1330 -0.1647
 8124SOL     OW25270   0.534   1.180   4.874 -0.2195 -0.0216 -0.6529
 8124SOL    HW125271   0.494   1.135   4.954  0.8229  2.2663  1.2666
 8124SOL    HW225272   0.517   1.124   4.793 -2.7614 -1.6448  0.8526
 8125SOL     OW25273   0.377   5.995   5.351  0.8125  0.0406  0.1862
 8125SOL    HW125274   0.475   5.990   5.373  0.9468  0.6974 -0.2412
 8125SOL    HW225275   0.329   6.046   5.422  0.8017 -0.1391  0.3104
 8126SOL     OW25276   0.843   6.418   0.353  0.3043 -0.0536  0.2309
 8126SOL    HW125277   0.788   6.423   0.437 -1.5450 -1.8036 -0.7847
 8126SOL    HW225278   0.939   6.403   0.377  0.0493  0.9466  2.0339
 8127SOL     OW25279   4.576   3.028   1.433  0.4315 -0.1371  0.2391
 8127SOL    HW125280   4.606   2.981   1.516  2.1219  1.6561  0.7231
 8127SOL    HW225281   4.488   2.991   1.404  0.0236 -1.1587  2.5376
 8128SOL     OW25282   2.482   2.541   6.064 -0.1824  0.4501 -0.7134
 8128SOL    HW125283   2.572   2.553   6.022  0.8313  0.5396  1.3436
 8128SOL    HW225284   2.411   2.557   5.996  1.3335 -1.0998 -2.7747
 8129SOL     OW25285   0.536   6.992   5.282  0.1023 -0.4034  0.5515
 8129SOL    HW125286   0.621   7.039   5.257 -0.2614 -0.5183 -0.9391
 8129SOL    HW225287   0.465   7.059   5.300  0.1963 -0.3368  0.6790
 8130SOL     OW25288   6.567   2.987   4.666 -0.1686  0.1499 -0.4517
 8130SOL    HW125289   6.524   2.968   4.755 -0.9660 -1.2752 -1.1130
 8130SOL    HW225290   6.666   2.978   4.675  0.1238  3.2901  1.0474
 8131SOL     OW25291   0.577   6.691   4.986 -0.3073  0.3108 -0.2370
 8131SOL    HW125292   0.589   6.663   5.081  1.4353  2.6441  0.3391
 8131SOL    HW225293   0.561   6.611   4.929 -0.2384 -1.2629  1.8370
 8132SOL     OW25294   3.008   3.070   2.974 -0.1029 -0.2213  0.4768
 8132SOL    HW125295   2.989   3.066   2.876  0.9503 -0.7664  0.2878
 8132SOL    HW225296   2.955   3.145   3.015  0.6480  1.0405 -0.7838
 8133SOL     OW25297   4.752   4.787   4.104 -0.2405  0.0698  0.5957
 8133SOL    HW125298   4.795   4.729   4.035 -1.2819 -0.4928  0.3930
 8133SOL    HW225299   4.657   4.806   4.077 -0.9343 -0.8535  2.2519
 8134SOL     OW25300   0.359   4.605   0.320  0.5762  0.1929 -0.2973
 8134SOL    HW125301   0.439   4.635   0.270  1.3261  2.1671  1.8981
 8134SOL    HW225302   0.387   4.560   0.405 -0.5715  1.6974  0.9401
 8135SOL     OW25303   3.068   2.391   1.485 -0.5849 -0.2190  0.5315
 8135SOL    HW125304   3.128   2.314   1.506 -1.5660 -0.5218  2.4975
 8135SOL    HW225305   2.975   2.357   1.468 -0.5563  0.3659 -0.8910
 8136SOL     OW25306   0.705   1.288   0.022  0.1173 -0.3420 -0.0471
 8136SOL    HW125307   0.743   1.332   0.104 -0.6401 -0.0107  0.1426
 8136SOL    HW225308   0.619   1.244   0.046 -1.0564  1.2933 -1.0046
 8137SOL     OW25309   0.677   4.689   5.374 -0.0406 -0.5541 -0.1258
 8137SOL    HW125310   0.711   4.697   5.468  2.3923 -0.6036 -0.9203
 8137SOL    HW225311   0.715   4.606   5.333 -0.4205 -0.1132 -1.3993
 8138SOL     OW25312   3.490   0.356   5.408 -0.0800  0.2286 -0.4446
 8138SOL    HW125313   3.453   0.350   5.316 -0.7494  1.9963 -0.3283
 8138SOL    HW225314   3.453   0.280   5.463  1.9440 -2.1014 -2.0883
 8139SOL     OW25315   2.908   4.908   6.311  0.2661 -0.1761 -0.2744
 8139SOL    HW125316   2.994   4.858   6.315 -0.1729 -1.0739 -1.2671
 8139SOL    HW225317   2.852   4.871   6.236 -0.9884  0.3598  0.3660
 8140SOL     OW25318   4.315   2.685   6.123 -0.2778  0.2765 -0.5904
 8140SOL    HW125319   4.367   2.655   6.203  2.2511  3.3456 -0.9017
 8140SOL    HW225320   4.362   2.654   6.040 -1.7592 -1.1133 -0.9625
 8141SOL     OW25321   2.428   3.889   5.774 -0.1750  0.1226 -0.4107
 8141SOL    HW125322   2.490   3.944   5.830  0.8874 -0.3165 -1.1339
 8141SOL    HW225323   2.350   3.945   5.747 -1.0270  0.2023  1.9428
 8142SOL     OW25324   3.331   6.501   4.655 -0.5979 -0.2000 -0.8035
 8142SOL    HW125325   3.399   6.427   4.650 -0.3451 -0.0605  0.3556
 8142SOL    HW225326   3.377   6.589   4.653 -0.3736 -0.0653  2.9963
 8143SOL     OW25327   3.851   3.407   4.106  0.2774 -0.0988  0.0389
 8143SOL    HW125328   3.942   3.382   4.074  0.6218 -2.8748  2.6670
 8143SOL    HW225329   3.782   3.351   4.060  0.2198 -0.2099  0.2598
 8144SOL     OW25330   0.349   5.178   4.146 -0.9189  0.1817  0.2870
 8144SOL    HW125331   0.372   5.253   4.084 -0.4367  1.8646  2.3839
 8144SOL    HW225332   0.391   5.094   4.113 -0.5919  1.0089 -1.5722
 8145SOL     OW25333   1.553   3.230   2.629 -0.1388 -0.0003 -0.5079
 8145SOL    HW125334   1.603   3.305   2.587  0.0980  0.4410  0.5287
 8145SOL    HW225335   1.531   3.253   2.724  0.4958 -1.4738  0.0446
 8146SOL     OW25336   1.251   0.256   1.898  0.4253  0.0419  0.1400
 8146SOL    HW125337   1.303   0.253   1.983  0.0963  0.6172  0.3662
 8146SOL    HW225338   1.274   0.176   1.842 -1.7168 -2.1404  2.1448
 8147SOL     OW25339   2.708   1.275   4.294 -0.0392 -0.3339 -0.0937
 8147SOL    HW125340   2.738   1.239   4.206 -1.5963 -0.2060 -0.7162
 8147SOL    HW225341   2.608   1.283   4.294 -0.1330 -0.8978  1.9042
 8148SOL     OW25342   5.299   4.576   3.828 -0.2044  0.3320 -0.3785
 8148SOL    HW125343   5.240   4.500   3.857 -0.2896  0.5817  0.1161
 8148SOL    HW225344   5.388   4.541   3.800  0.1144  0.1304  0.8284
 8149SOL     OW25345   2.775   0.033   1.108 -0.9781 -0.4513 -0.0422
 8149SOL    HW125346   2.814  -0.028   1.177  0.7397  0.4501 -0.1668
 8149SOL    HW225347   2.737   0.115   1.153  1.2643  0.7358 -0.1684
 8150SOL     OW25348   0.996   6.943   2.001 -0.1055 -0.4560  0.1298
 8150SOL    HW125349   0.944   7.001   2.064  1.9201  0.3580  1.1634
 8150SOL    HW225350   0.990   6.848   2.030 -0.5471 -0.2978  0.5700
 8151SOL     OW25351   4.377   0.806   5.014  0.8525 -0.3073  0.1845
 8151SOL    HW125352   4.295   0.863   5.004 -0.4490 -2.2274 -0.5257
 8151SOL    HW225353   4.456   0.858   4.982  0.1434  1.9795  1.8730
 8152SOL     OW25354   2.356   6.038   3.531  0.3896  0.1988  0.8254
 8152SOL    HW125355   2.376   5.943   3.556  0.8341  0.4556  1.4608
 8152SOL    HW225356   2.261   6.060   3.555  0.3215 -0.0465  0.7809
 8153SOL     OW25357   5.830   3.183   1.873 -0.5778 -0.1086 -0.2223
 8153SOL    HW125358   5.799   3.232   1.955 -2.3259 -0.7489 -0.4465
 8153SOL    HW225359   5.922   3.213   1.849 -0.5992  1.1698  1.1252
 8154SOL     OW25360   1.781   4.659   1.693  0.6567  0.8302  0.2935
 8154SOL    HW125361   1.852   4.667   1.763  2.5883  0.7903 -1.5658
 8154SOL    HW225362   1.767   4.563   1.669  0.3344  0.8762  0.2812
 8155SOL     OW25363   6.159   3.072   6.405 -0.2489  0.1853  0.3752
 8155SOL    HW125364   6.229   3.107   6.467 -0.7078  1.2244  0.3259
 8155SOL    HW225365   6.137   3.142   6.336  0.2904 -0.9585 -1.0063
 8156SOL     OW25366   0.459   2.032   5.402  0.2110 -0.3928 -0.4557
 8156SOL    HW125367   0.544   2.027   5.349  0.9863 -3.4619  0.8913
 8156SOL    HW225368   0.478   2.070   5.492 -0.2130  0.5095 -0.7360
 8157SOL     OW25369   4.668   2.563   6.166 -0.0179 -0.1696  0.2590
 8157SOL    HW125370   4.632   2.473   6.189  1.3661 -0.3901  1.7322
 8157SOL    HW225371   4.704   2.562   6.073 -0.2403 -1.0534  0.1757
 8158SOL     OW25372   2.709   5.166   1.214 -0.5498 -0.3883  0.6275
 8158SOL    HW125373   2.800   5.128   1.231 -0.0892  0.9266  1.3413
 8158SOL    HW225374   2.667   5.121   1.136  1.7490  0.6532 -1.3165
 8159SOL     OW25375   2.328   2.927   4.517 -0.5743 -0.8556 -0.2583
 8159SOL    HW125376   2.362   2.845   4.563  0.7342 -1.2928 -1.8976
 8159SOL    HW225377   2.323   2.910   4.419 -2.0291  0.4704 -0.4538
 8160SOL     OW25378   1.662   4.323   5.624  0.4561 -0.0392  0.3505
 8160SOL    HW125379   1.615   4.404   5.659 -0.8866 -0.6762  0.0802
 8160SOL    HW225380   1.691   4.339   5.530 -0.6129 -0.1772 -0.0141
 8161SOL     OW25381   6.289   1.184   3.125  0.7410 -0.3672 -0.2787
 8161SOL    HW125382   6.278   1.266   3.068  0.0518 -0.7304 -0.6728
 8161SOL    HW225383   6.373   1.192   3.178  1.3647  0.0199 -1.2907
 8162SOL     OW25384   0.177   2.513   4.037 -0.3092  0.5134  0.1317
 8162SOL    HW125385   0.238   2.518   4.116  0.7738 -1.4680 -0.5198
 8162SOL    HW225386   0.231   2.514   3.953 -1.3018  0.4345 -0.5232
 8163SOL     OW25387   2.751   2.068   1.019 -0.0268 -0.1902  0.1740
 8163SOL    HW125388   2.846   2.049   0.992  0.3100 -0.8662  1.7148
 8163SOL    HW225389   2.745   2.161   1.054 -0.0364 -0.0005 -0.3182
 8164SOL     OW25390   0.377   2.507   3.271 -0.3926  0.7616 -0.5682
 8164SOL    HW125391   0.351   2.603   3.261  2.5174  1.9131  1.6088
 8164SOL    HW225392   0.431   2.495   3.354 -2.9640 -3.3696  0.7868
 8165SOL     OW25393   4.974   2.050   3.178  0.4062 -0.4796 -0.3685
 8165SOL    HW125394   4.933   1.961   3.155  0.3921 -0.7090  0.4942
 8165SOL    HW225395   4.946   2.076   3.271  1.6502 -0.3057 -0.0272
 8166SOL     OW25396   2.148   1.266   1.898 -0.2657 -0.4355 -0.2684
 8166SOL    HW125397   2.228   1.263   1.839 -1.0459 -0.8282 -1.3299
 8166SOL    HW225398   2.163   1.206   1.977  1.1826  0.8631  0.4964
 8167SOL     OW25399   2.444   1.909   1.737 -0.1919  0.0924 -0.2896
 8167SOL    HW125400   2.477   1.837   1.675  1.9355 -0.1427  1.0122
 8167SOL    HW225401   2.449   1.876   1.831 -0.7782  1.3790  0.2117
 8168SOL     OW25402   4.592   0.189   2.997 -0.2392 -0.1452 -0.6102
 8168SOL    HW125403   4.541   0.118   3.047 -0.0937  1.1184  1.4701
 8168SOL    HW225404   4.540   0.274   2.999  0.3790  0.2601 -1.5463
 8169SOL     OW25405   0.932   1.636   2.502  0.0911 -0.2939  0.1676
 8169SOL    HW125406   0.894   1.722   2.534 -2.2532  0.0461 -3.0085
 8169SOL    HW225407   0.886   1.559   2.547 -0.1680  0.1202  0.6133
 8170SOL     OW25408   3.780   1.726   0.362  0.6084  0.0257 -0.7462
 8170SOL    HW125409   3.771   1.773   0.450  0.2073 -1.2072 -0.1007
 8170SOL    HW225410   3.843   1.777   0.304 -1.4888  2.5658 -0.9559
 8171SOL     OW25411   6.189   3.603   5.154  0.0436  0.1094 -0.1041
 8171SOL    HW125412   6.104   3.621   5.204 -0.8372  1.0848 -1.8699
 8171SOL    HW225413   6.168   3.582   5.059  1.7704  0.0460 -0.4996
 8172SOL     OW25414   1.726   0.953   1.967  0.3458  0.2562 -0.1918
 8172SOL    HW125415   1.673   0.995   1.894  0.6044 -1.0476 -1.1721
 8172SOL    HW225416   1.679   0.965   2.054 -0.9845  0.0934 -0.8684
 8173SOL     OW25417   6.630   0.892   2.772  0.1270  0.2530  0.0730
 8173SOL    HW125418   6.683   0.874   2.855  1.1460 -1.4568 -0.9068
 8173SOL    HW225419   6.584   0.809   2.742 -0.2057  0.8334 -1.1082
 8174SOL     OW25420   6.707   5.809   2.145 -0.2726 -0.2974  0.2289
 8174SOL    HW125421   6.657   5.893   2.165  0.5250  0.4981 -0.9763
 8174SOL    HW225422   6.642   5.736   2.124 -0.9573  0.2750  0.3219
 8175SOL     OW25423   1.470   5.541   6.825  0.1553  0.1868  0.2031
 8175SOL    HW125424   1.551   5.525   6.768 -0.2655 -2.5183  0.2208
 8175SOL    HW225425   1.401   5.592   6.773  0.2658 -1.1483 -1.3169
 8176SOL     OW25426   0.843   6.533   3.154 -0.2772  0.7611  0.2075
 8176SOL    HW125427   0.786   6.513   3.235  1.1928 -0.1192  1.0786
 8176SOL    HW225428   0.929   6.483   3.162  0.3184  1.4788 -1.4395
 8177SOL     OW25429   5.757   1.290   3.804 -0.3128 -0.1780 -0.1529
 8177SOL    HW125430   5.770   1.210   3.746 -1.9149 -0.2049 -0.5344
 8177SOL    HW225431   5.773   1.266   3.900 -0.3581 -0.8507 -0.3132
 8178SOL     OW25432   5.924   4.491   3.015  0.4326 -0.0094 -0.1257
 8178SOL    HW125433   5.934   4.588   3.038 -0.1048 -0.5171  2.6281
 8178SOL    HW225434   5.992   4.466   2.945  1.5696  2.0294  0.1765
 8179SOL     OW25435   3.504   4.967   2.998  0.3014 -0.1081  0.0610
 8179SOL    HW125436   3.512   4.918   3.085 -0.7949  0.5171  0.5392
 8179SOL    HW225437   3.510   5.065   3.015 -0.6383  0.0507 -0.4687
 8180SOL     OW25438   1.575   6.932   4.674 -0.0916 -0.0086  0.1173
 8180SOL    HW125439   1.631   6.924   4.757 -0.8209 -3.5511  0.4107
 8180SOL    HW225440   1.634   6.927   4.594  0.3368 -0.0192  0.4286
 8181SOL     OW25441   5.757   5.380   6.441 -0.2354 -0.1525  0.2097
 8181SOL    HW125442   5.754   5.291   6.486  0.0715 -0.8361 -1.1100
 8181SOL    HW225443   5.665   5.405   6.410 -0.1133 -0.5572 -0.4788
 8182SOL     OW25444   3.180   4.963   1.064 -0.3556 -0.5255  0.3881
 8182SOL    HW125445   3.196   4.967   1.163  1.7107 -0.1357  0.0751
 8182SOL    HW225446   3.232   5.035   1.019  0.1490 -1.8031 -1.1511
 8183SOL     OW25447   6.458   0.426   3.794 -0.2531  0.2848 -0.0004
 8183SOL    HW125448   6.547   0.458   3.761 -0.2158  1.2720  0.9983
 8183SOL    HW225449   6.411   0.379   3.720  0.8776  0.2065 -0.7042
 8184SOL     OW25450   3.294   1.167   1.087  0.6807 -0.4510 -0.3270
 8184SOL    HW125451   3.305   1.266   1.096  1.0345 -0.5898  1.0087
 8184SOL    HW225452   3.198   1.145   1.071  0.3537  0.0428  0.8290
 8185SOL     OW25453   0.392   3.329   0.547  0.0724 -0.0008  0.1931
 8185SOL    HW125454   0.487   3.360   0.543 -0.6664  2.4463  0.1146
 8185SOL    HW225455   0.344   3.360   0.464 -0.2016 -3.5886 -1.1534
 8186SOL     OW25456   3.607   3.395   5.677  0.7817 -0.1246  0.0584
 8186SOL    HW125457   3.507   3.399   5.678  0.5819 -2.4637 -1.2166
 8186SOL    HW225458   3.637   3.358   5.588  2.5666 -2.3998  1.4958
 8187SOL     OW25459   3.946   6.378   1.315 -0.2682 -0.6676  0.5814
 8187SOL    HW125460   3.944   6.430   1.400  1.9768  0.1917  0.1526
 8187SOL    HW225461   3.987   6.288   1.332  1.2477 -0.0652  0.2246
 8188SOL     OW25462   5.382   4.985   5.416 -0.1082 -0.1723 -0.1176
 8188SOL    HW125463   5.337   4.903   5.379 -0.2213 -0.9514  1.6510
 8188SOL    HW225464   5.449   4.958   5.484  0.2598  1.2000  0.0869
 8189SOL     OW25465   0.295   5.722   3.643 -0.4267  0.4582 -0.0353
 8189SOL    HW125466   0.287   5.787   3.567 -2.8106 -0.9797 -1.1094
 8189SOL    HW225467   0.269   5.767   3.728  1.6707  1.9141 -0.0653
 8190SOL     OW25468   2.174   4.248   5.028 -0.0957  1.3134 -0.4573
 8190SOL    HW125469   2.116   4.255   5.109  2.9414  0.5134  1.9454
 8190SOL    HW225470   2.226   4.163   5.031  1.8433  2.3700 -2.0248
 8191SOL     OW25471   6.614   0.189   6.323 -0.3483  0.1884  0.2860
 8191SOL    HW125472   6.577   0.249   6.252 -0.4540  0.2180  0.3670
 8191SOL    HW225473   6.670   0.117   6.280  0.3175  0.7256  0.2294
 8192SOL     OW25474   0.100   2.673   0.172  0.5940  0.3940 -0.1974
 8192SOL    HW125475   0.176   2.634   0.222  1.3304  1.0540 -0.7767
 8192SOL    HW225476   0.020   2.682   0.232 -0.0800 -3.2418 -0.3690
 8193SOL     OW25477   2.537   6.380   4.914 -0.8078 -0.5362 -0.5170
 8193SOL    HW125478   2.472   6.314   4.952 -0.9731 -0.8102 -1.2704
 8193SOL    HW225479   2.627   6.338   4.906 -0.7673 -0.4704 -0.4180
 8194SOL     OW25480   5.949   2.921   5.359  0.0364  0.2266 -0.1070
 8194SOL    HW125481   6.042   2.912   5.323 -0.1925  0.4766 -0.7884
 8194SOL    HW225482   5.885   2.930   5.282 -0.9260 -3.0541  0.1481
 8195SOL     OW25483   5.765   6.347   4.614  0.0317 -0.2124 -0.2425
 8195SOL    HW125484   5.726   6.334   4.523  0.3056 -1.3685 -0.2100
 8195SOL    HW225485   5.823   6.428   4.614  1.3480 -1.1021 -1.5775
 8196SOL     OW25486   4.362   5.594   1.208  0.4566 -0.5901 -0.4222
 8196SOL    HW125487   4.342   5.516   1.268  0.8864 -0.3688  0.0139
 8196SOL    HW225488   4.461   5.602   1.195  0.3561 -0.8236 -1.4228
 8197SOL     OW25489   4.573   2.490   3.095  0.0138 -0.5566  0.3074
 8197SOL    HW125490   4.482   2.471   3.058 -0.5589  0.6275  1.0369
 8197SOL    HW225491   4.636   2.508   3.019 -0.4287 -1.0614 -0.1958
 8198SOL     OW25492   0.589   3.784   2.345 -0.5012 -0.0233 -0.2434
 8198SOL    HW125493   0.612   3.855   2.412 -0.7309  0.3244 -0.5333
 8198SOL    HW225494   0.622   3.811   2.255  0.2826 -0.7381 -0.1801
 8199SOL     OW25495   5.711   3.109   4.915  0.5008 -0.7344  0.6825
 8199SOL    HW125496   5.667   3.026   4.881 -0.5114  0.0214  0.0904
 8199SOL    HW225497   5.701   3.182   4.847  0.1231  0.2726  1.8017
 8200SOL     OW25498   0.101   2.605   4.448 -0.1928  0.3302 -0.0482
 8200SOL    HW125499   0.117   2.552   4.532  3.2025  2.0484  0.5622
 8200SOL    HW225500   0.035   2.678   4.467 -0.3637 -0.0222  0.7613
 8201SOL     OW25501   2.843   3.737   6.006 -0.2307 -0.2572  0.1942
 8201SOL    HW125502   2.910   3.665   6.023 -0.3719 -0.5879 -0.5899
 8201SOL    HW225503   2.870   3.788   5.925 -0.6595 -0.0702  0.1666
 8202SOL     OW25504   2.976   3.581   5.418  0.4866  0.1444 -0.6561
 8202SOL    HW125505   3.022   3.551   5.502  2.0556  0.3878 -1.3938
 8202SOL    HW225506   3.018   3.536   5.339 -0.0679  0.9463 -1.4255
 8203SOL     OW25507   5.411   1.954   1.842 -0.0399 -0.3270 -0.2319
 8203SOL    HW125508   5.374   1.890   1.774 -0.8963 -0.0676 -0.0203
 8203SOL    HW225509   5.456   2.030   1.795 -0.1753 -0.4118 -0.5035
 8204SOL     OW25510   3.691   0.908   2.414 -0.3072 -0.1150  0.0979
 8204SOL    HW125511   3.776   0.911   2.465 -0.0322  0.1421 -0.3710
 8204SOL    HW225512   3.615   0.934   2.474  0.2640  2.3661 -0.1490
 8205SOL     OW25513   2.099   3.588   4.217  0.4770  0.0371  0.0373
 8205SOL    HW125514   2.012   3.591   4.167 -0.2800  0.0028  1.3221
 8205SOL    HW225515   2.097   3.655   4.291  2.0222  0.8843 -0.6189
 8206SOL     OW25516   5.095   5.460   5.814  0.2340 -0.2158  0.2533
 8206SOL    HW125517   5.144   5.514   5.746 -1.0211 -1.4498 -1.7483
 8206SOL    HW225518   5.106   5.363   5.795 -1.5376 -0.5643  0.7672
 8207SOL     OW25519   4.086   3.472   4.425  0.6269  0.0988  0.1049
 8207SOL    HW125520   4.015   3.402   4.437  2.0881 -1.4731 -0.0294
 8207SOL    HW225521   4.072   3.544   4.492 -0.4123 -0.7563  0.8636
 8208SOL     OW25522   1.620   6.689   5.581  0.1504 -0.1427 -0.3131
 8208SOL    HW125523   1.609   6.598   5.541 -0.0254 -0.0264 -0.5291
 8208SOL    HW225524   1.572   6.756   5.525  1.0826  0.2231 -0.6917
 8209SOL     OW25525   5.685   2.763   4.292  0.5740 -0.4529  0.2778
 8209SOL    HW125526   5.765   2.816   4.318  1.1175 -1.3924  0.5357
 8209SOL    HW225527   5.624   2.821   4.237  1.4175  0.2678  0.0769
 8210SOL     OW25528   6.847   2.989   4.709 -0.2103 -0.7661  0.0341
 8210SOL    HW125529   6.822   3.080   4.675  1.2098 -1.1136 -2.1516
 8210SOL    HW225530   6.909   2.998   4.786 -0.6044  0.1105  0.2581
 8211SOL     OW25531   3.893   1.302   0.934  0.4821  0.1704 -0.1877
 8211SOL    HW125532   3.808   1.326   0.886 -0.4531 -0.3648  1.1227
 8211SOL    HW225533   3.879   1.216   0.984  1.8372  0.0315 -0.0251
 8212SOL     OW25534   4.494   6.078   1.043 -0.8500  0.1569  0.2217
 8212SOL    HW125535   4.457   6.159   0.998 -1.1587 -1.2261 -2.1854
 8212SOL    HW225536   4.422   6.033   1.096 -0.8994  0.9626  0.8498
 8213SOL     OW25537   1.405   2.392   7.011 -0.7374 -0.0772  0.0956
 8213SOL    HW125538   1.390   2.483   6.972  0.2293 -0.2123 -0.6348
 8213SOL    HW225539   1.330   2.331   6.985 -1.0553  0.3351  0.0412
 8214SOL     OW25540   1.300   0.559   6.848 -0.6582 -0.1793 -0.2439
 8214SOL    HW125541   1.349   0.486   6.800 -1.1422  0.2769 -1.4586
 8214SOL    HW225542   1.356   0.641   6.851 -0.2054 -0.5135  0.9244
 8215SOL     OW25543   2.473   4.529   4.463 -0.0383 -0.2700  0.2989
 8215SOL    HW125544   2.436   4.489   4.379  2.1333 -2.5126  0.2997
 8215SOL    HW225545   2.471   4.461   4.536  1.0537  0.6019  1.1778
 8216SOL     OW25546   4.416   5.348   3.347 -0.1500 -0.0932 -0.0182
 8216SOL    HW125547   4.400   5.282   3.421  1.5148 -0.0717  0.4083
 8216SOL    HW225548   4.489   5.315   3.288 -0.3428  0.6594 -0.6912
 8217SOL     OW25549   1.997   1.995   3.180 -0.3899 -0.3055 -0.3456
 8217SOL    HW125550   2.029   2.000   3.086 -1.2943  0.2565 -0.6301
 8217SOL    HW225551   1.921   1.930   3.186 -0.8181  0.2067 -0.1497
 8218SOL     OW25552   5.187   2.673   2.884 -0.3414 -0.1019  0.7374
 8218SOL    HW125553   5.153   2.590   2.928  0.5239 -0.8124  0.1023
 8218SOL    HW225554   5.283   2.661   2.860 -0.1298  1.1871  0.8690
 8219SOL     OW25555   5.557   6.209   2.597  0.3828  0.0899  0.4658
 8219SOL    HW125556   5.520   6.229   2.506  0.3361  1.1262  0.7058
 8219SOL    HW225557   5.534   6.115   2.622 -1.2538  0.3845  0.1923
 8220SOL     OW25558   6.884   6.095   2.502 -0.0160 -0.1204  0.0012
 8220SOL    HW125559   6.872   6.010   2.450 -0.2568  1.8825 -3.5031
 8220SOL    HW225560   6.981   6.104   2.528 -0.1182 -1.7528  1.1697
 8221SOL     OW25561   5.565   0.428   0.959  0.9543 -0.1815  0.7125
 8221SOL    HW125562   5.502   0.506   0.963  0.0056 -0.9787  3.0979
 8221SOL    HW225563   5.592   0.413   0.864 -1.8821  0.6371 -0.3533
 8222SOL     OW25564   4.643   1.381   5.215  0.5202 -0.6325 -0.0908
 8222SOL    HW125565   4.734   1.339   5.212  0.1943 -1.5592  1.5907
 8222SOL    HW225566   4.602   1.365   5.305 -1.0386  0.3605 -0.5868
 8223SOL     OW25567   2.831   3.108   6.903  0.1506  0.7706 -0.3790
 8223SOL    HW125568   2.872   3.191   6.940  0.6645  0.1911  0.3845
 8223SOL    HW225569   2.875   3.028   6.944 -1.3382  0.1264  0.0310
 8224SOL     OW25570   2.050   1.782   0.038 -0.0788  0.8718  0.6719
 8224SOL    HW125571   2.008   1.761   0.126  0.6404  2.3610  1.3835
 8224SOL    HW225572   2.078   1.877   0.035 -0.5031  0.9897 -1.3535
 8225SOL     OW25573   2.715   5.061   0.550  0.0082  0.0349 -0.1272
 8225SOL    HW125574   2.665   4.986   0.507 -0.2931 -0.1413  0.5264
 8225SOL    HW225575   2.711   5.052   0.649 -0.4422  1.1784 -0.0211
 8226SOL     OW25576   1.325   0.952   0.273 -0.4132 -0.1448  0.4194
 8226SOL    HW125577   1.419   0.982   0.291 -0.7899  0.5762  1.2648
 8226SOL    HW225578   1.318   0.919   0.179  0.7369 -0.4236  0.4104
 8227SOL     OW25579   1.177   2.520   2.204  0.3976 -0.3460  0.2205
 8227SOL    HW125580   1.190   2.489   2.110 -1.5777 -1.4623  0.2629
 8227SOL    HW225581   1.257   2.493   2.259  1.8439  0.8412 -1.2058
 8228SOL     OW25582   0.861   2.279   4.716  0.2274 -0.4108  0.0272
 8228SOL    HW125583   0.947   2.287   4.667  0.6649  1.9021  1.0294
 8228SOL    HW225584   0.785   2.293   4.653  0.7780  2.5671 -0.1259
 8229SOL     OW25585   2.424   2.974   5.603 -0.2511 -0.1273 -0.5713
 8229SOL    HW125586   2.501   2.920   5.636 -0.2627  0.5448  0.6094
 8229SOL    HW225587   2.409   3.052   5.664 -1.3834  0.1836 -1.2141
 8230SOL     OW25588   6.116   2.498   1.427 -0.0643  0.4463  0.2248
 8230SOL    HW125589   6.207   2.515   1.465  0.1910 -0.0626 -0.1452
 8230SOL    HW225590   6.073   2.423   1.478  0.3583 -0.3722 -0.5987
 8231SOL     OW25591   5.838   6.478   6.983  0.2573 -0.1593 -0.5275
 8231SOL    HW125592   5.912   6.504   6.921  1.0871 -0.6522  0.2224
 8231SOL    HW225593   5.875   6.463   7.075 -0.9754  0.7382  0.1457
 8232SOL     OW25594   0.750   3.715   0.219 -0.7108 -0.2558 -0.4125
 8232SOL    HW125595   0.809   3.783   0.262 -0.3744 -1.5615  1.2864
 8232SOL    HW225596   0.801   3.663   0.151 -1.0677  1.3688 -2.0097
 8233SOL     OW25597   6.324   1.898   0.287  0.5767  0.5060 -0.2820
 8233SOL    HW125598   6.289   1.934   0.373  1.0249  0.1909  0.0397
 8233SOL    HW225599   6.424   1.889   0.293  0.5211 -0.3859 -0.5028
 8234SOL     OW25600   5.072   2.135   4.306  0.2309 -0.0455 -0.3563
 8234SOL    HW125601   5.040   2.229   4.311  1.4900  0.4186 -0.5428
 8234SOL    HW225602   5.021   2.079   4.371  0.6026  1.1177  0.9938
 8235SOL     OW25603   1.132   0.320   0.787 -0.2872  0.4046  0.1111
 8235SOL    HW125604   1.230   0.303   0.777 -0.4605 -0.3791 -0.2723
 8235SOL    HW225605   1.084   0.290   0.705 -0.8536  0.8083  0.2862
 8236SOL     OW25606   6.980   4.408   2.496 -0.1306  0.3154 -0.7371
 8236SOL    HW125607   6.950   4.451   2.411 -2.2671  1.0307  0.2964
 8236SOL    HW225608   7.059   4.349   2.478  1.5087  2.8871 -2.6270
 8237SOL     OW25609   3.609   5.608   4.725 -0.4644 -0.3179 -0.0408
 8237SOL    HW125610   3.581   5.605   4.821 -1.9171  0.5797 -0.3915
 8237SOL    HW225611   3.707   5.625   4.719 -0.6103  1.2482  1.3028
 8238SOL     OW25612   4.270   0.703   2.601 -0.2047  0.5396  0.0588
 8238SOL    HW125613   4.367   0.723   2.616 -0.4809  2.0061  0.0271
 8238SOL    HW225614   4.261   0.616   2.554  1.0340 -0.2685  1.2459
 8239SOL     OW25615   3.481   1.288   1.828 -0.3491 -0.6536 -0.5483
 8239SOL    HW125616   3.452   1.193   1.829  0.4517 -0.9080 -0.9618
 8239SOL    HW225617   3.433   1.338   1.900  0.0261 -1.6050  0.3891
 8240SOL     OW25618   4.349   3.681   1.614  0.0107  0.0564  0.3733
 8240SOL    HW125619   4.276   3.736   1.655 -0.7375 -0.1090 -0.7132
 8240SOL    HW225620   4.318   3.643   1.527  0.7369 -1.5881  0.7912
 8241SOL     OW25621   3.425   3.174   2.919 -0.3743  0.1006 -0.0856
 8241SOL    HW125622   3.486   3.219   2.853 -1.5255  0.4961 -0.9061
 8241SOL    HW225623   3.348   3.234   2.940 -0.1710 -0.1191  1.4575
 8242SOL     OW25624   3.324   1.638   1.005 -0.1573 -0.3125 -0.1331
 8242SOL    HW125625   3.398   1.667   0.944 -0.0129  2.4406  1.2123
 8242SOL    HW225626   3.237   1.649   0.958  0.0788 -0.4028 -0.6050
 8243SOL     OW25627   3.496   4.778   0.638  0.1903  0.2177  0.6110
 8243SOL    HW125628   3.433   4.701   0.624 -0.0948  0.4487  0.6189
 8243SOL    HW225629   3.556   4.756   0.715  0.4818 -0.2324  0.2592
 8244SOL     OW25630   2.227   6.387   0.191  0.6510  0.0904  0.5283
 8244SOL    HW125631   2.223   6.465   0.253  1.8308 -0.0619  0.8256
 8244SOL    HW225632   2.307   6.331   0.213  0.5075 -0.5372 -0.4705
 8245SOL     OW25633   5.208   6.714   0.174  0.1051 -0.0969  0.3271
 8245SOL    HW125634   5.140   6.703   0.102  0.9226 -1.0313 -0.3373
 8245SOL    HW225635   5.223   6.811   0.192  0.3322  0.1714 -1.1964
 8246SOL     OW25636   5.841   1.930   4.053  0.1970  0.1032 -0.2319
 8246SOL    HW125637   5.808   2.023   4.037 -1.9154 -0.6241 -0.4823
 8246SOL    HW225638   5.876   1.892   3.968  0.6643  0.5198 -0.2289
 8247SOL     OW25639   6.983   2.368   1.279  0.2004 -0.3493  0.1016
 8247SOL    HW125640   7.003   2.461   1.249 -0.4923  0.0147  0.7619
 8247SOL    HW225641   7.051   2.339   1.346  1.7295 -1.1481 -1.6843
 8248SOL     OW25642   0.764   6.929   0.262 -0.1347 -0.2245 -0.4636
 8248SOL    HW125643   0.768   6.991   0.340  0.7165 -1.2374  0.3149
 8248SOL    HW225644   0.669   6.913   0.237 -0.5373 -1.5699  1.7380
 8249SOL     OW25645   1.262   1.104   3.842 -0.1401 -0.2191 -0.3841
 8249SOL    HW125646   1.196   1.096   3.917 -0.7084  0.3652 -0.8191
 8249SOL    HW225647   1.217   1.141   3.762  1.2133  2.3755 -0.0300
 8250SOL     OW25648   3.409   4.100   0.173  0.2179 -0.4583  0.8453
 8250SOL    HW125649   3.373   4.073   0.262 -0.8213  2.4412  1.4016
 8250SOL    HW225650   3.490   4.157   0.185  0.4640 -0.5904 -0.0901
 8251SOL     OW25651   4.629   2.853   0.184  0.1074 -0.5918 -0.2108
 8251SOL    HW125652   4.558   2.793   0.147 -0.7841  0.6280 -0.5238
 8251SOL    HW225653   4.658   2.918   0.114 -0.6286  0.8608  0.7896
 8252SOL     OW25654   0.472   2.794   1.282 -0.5757 -0.5530 -0.0284
 8252SOL    HW125655   0.444   2.813   1.188 -2.9178 -1.6201  0.3960
 8252SOL    HW225656   0.465   2.878   1.336 -1.9486 -0.5261 -0.2119
 8253SOL     OW25657   2.240   5.271   0.236 -0.1310  0.1600  0.3890
 8253SOL    HW125658   2.293   5.254   0.319  1.3394 -1.4446 -0.8123
 8253SOL    HW225659   2.291   5.333   0.176 -0.0042 -0.7050 -0.4029
 8254SOL     OW25660   2.388   4.515   2.542  0.7515  0.0982 -0.4189
 8254SOL    HW125661   2.473   4.530   2.593  1.1494  0.2182 -1.1079
 8254SOL    HW225662   2.347   4.603   2.519  1.0658  0.0600 -1.1230
 8255SOL     OW25663   1.268   5.278   2.761 -0.4884 -0.3049  0.7827
 8255SOL    HW125664   1.190   5.221   2.786 -0.1720 -1.2832 -0.3441
 8255SOL    HW225665   1.274   5.284   2.661  0.3933  0.4418  0.8662
 8256SOL     OW25666   1.908   5.907   2.096  0.0637 -0.4427  0.2134
 8256SOL    HW125667   1.857   5.887   2.180 -2.2805  0.9407 -0.7842
 8256SOL    HW225668   2.003   5.927   2.119 -0.2747 -1.1078  2.4083
 8257SOL     OW25669   5.162   3.324   6.767 -0.2187 -0.2999 -0.1817
 8257SOL    HW125670   5.069   3.290   6.780 -0.3709  0.1509 -0.1070
 8257SOL    HW225671   5.160   3.409   6.714  0.1694 -0.4298 -0.4121
 8258SOL     OW25672   2.049   1.162   0.108 -0.1748  0.0409  0.1137
 8258SOL    HW125673   2.056   1.258   0.079  2.4631 -0.2843 -0.5527
 8258SOL    HW225674   2.118   1.108   0.060 -1.5504 -2.2078  0.5512
 8259SOL     OW25675   1.814   2.709   0.520  0.9912 -0.3353 -0.4543
 8259SOL    HW125676   1.721   2.731   0.549  1.8179  0.8552  1.5122
 8259SOL    HW225677   1.862   2.793   0.496  1.7809 -0.8574 -0.7393
 8260SOL     OW25678   0.133   2.747   5.786 -0.4945 -0.5517  0.0678
 8260SOL    HW125679   0.176   2.762   5.697  1.0273  1.2221  1.0403
 8260SOL    HW225680   0.177   2.669   5.830  0.1092 -0.2205  0.0648
 8261SOL     OW25681   5.267   5.335   2.645  0.1863 -0.0242 -0.0074
 8261SOL    HW125682   5.242   5.367   2.736  1.4911 -0.7284  0.6245
 8261SOL    HW225683   5.254   5.409   2.579  0.4053  0.8921  0.9477
 8262SOL     OW25684   0.019   6.786   3.481  0.1060  0.0736  0.1151
 8262SOL    HW125685   0.073   6.757   3.403 -0.1517  0.4069 -0.1911
 8262SOL    HW225686   0.018   6.714   3.550  0.5776 -0.1031 -0.0624
 8263SOL     OW25687   3.363   5.695   6.910 -0.5498  0.1909  0.5160
 8263SOL    HW125688   3.385   5.649   6.996  2.5995  0.0750 -0.2455
 8263SOL    HW225689   3.370   5.630   6.834 -2.7088  0.4300  0.0356
 8264SOL     OW25690   1.297   0.140   4.448 -0.0444 -0.1799  0.1557
 8264SOL    HW125691   1.242   0.114   4.527  0.4715 -1.2050  0.1894
 8264SOL    HW225692   1.310   0.061   4.389  1.2837  0.0666  0.0817
 8265SOL     OW25693   4.861   5.710   3.004  0.0756  0.0727  0.1667
 8265SOL    HW125694   4.799   5.632   2.992  1.1489 -1.3026  2.7529
 8265SOL    HW225695   4.903   5.706   3.095  2.2442  2.2143 -0.6275
 8266SOL     OW25696   5.690   4.901   6.032  0.1938  0.0498 -0.4579
 8266SOL    HW125697   5.595   4.888   6.006  0.3938 -0.5021 -0.9545
 8266SOL    HW225698   5.733   4.812   6.048  1.1721  0.1271 -2.3143
 8267SOL     OW25699   4.697   6.440   2.349 -0.1749 -0.2131 -0.1003
 8267SOL    HW125700   4.743   6.399   2.270 -0.8138 -0.2800 -0.4472
 8267SOL    HW225701   4.628   6.505   2.317  0.7406  1.0554  0.4409
 8268SOL     OW25702   2.155   1.210   0.388  0.4442 -0.2431  0.0592
 8268SOL    HW125703   2.140   1.206   0.289  0.2647  1.2818 -0.0004
 8268SOL    HW225704   2.132   1.122   0.429 -0.0050 -0.7241 -1.1816
 8269SOL     OW25705   5.599   5.528   1.147 -0.0118  0.8752 -1.0005
 8269SOL    HW125706   5.580   5.458   1.216  0.3440 -0.0537 -1.8326
 8269SOL    HW225707   5.517   5.585   1.135 -0.2046  0.8107 -0.1008
 8270SOL     OW25708   1.108   4.094   4.085 -0.9385  0.1166 -0.0209
 8270SOL    HW125709   1.164   4.155   4.141 -0.5796  0.7066 -0.9928
 8270SOL    HW225710   1.025   4.069   4.135 -1.0546  1.3559  0.4291
 8271SOL     OW25711   2.312   4.773   4.690 -0.4095 -0.0095 -0.4242
 8271SOL    HW125712   2.233   4.719   4.662  0.2338 -1.6063  0.6367
 8271SOL    HW225713   2.388   4.711   4.713 -0.2165  1.1892  2.6862
 8272SOL     OW25714   0.305   3.624   1.316 -0.2112  0.4787  0.0963
 8272SOL    HW125715   0.316   3.528   1.340 -1.2200 -0.3826 -2.4551
 8272SOL    HW225716   0.247   3.631   1.234 -0.2462  3.2773  0.2608
 8273SOL     OW25717   3.471   3.934   6.663  0.9798 -0.5347  0.3494
 8273SOL    HW125718   3.538   3.903   6.731  0.7211  1.4954  1.6142
 8273SOL    HW225719   3.520   3.969   6.583  1.3315 -1.4093  0.1649
 8274SOL     OW25720   0.413   6.582   0.654 -0.6898 -0.1341  0.1838
 8274SOL    HW125721   0.336   6.583   0.717 -2.1535  0.1544 -1.5388
 8274SOL    HW225722   0.400   6.652   0.584  0.9589 -0.3338 -0.3699
 8275SOL     OW25723   4.635   0.161   5.168 -0.1486  0.0236 -0.0816
 8275SOL    HW125724   4.587   0.169   5.256 -1.6555  0.2813 -0.8933
 8275SOL    HW225725   4.622   0.245   5.116  2.2524  0.6002  0.1371
 8276SOL     OW25726   6.680   4.767   3.882 -0.1464  0.7677 -0.4970
 8276SOL    HW125727   6.749   4.839   3.871  1.1397 -0.2538  0.5262
 8276SOL    HW225728   6.609   4.797   3.945  1.8434  0.2367  2.1824
 8277SOL     OW25729   3.093   2.250   5.377  0.1892  0.9274  0.0218
 8277SOL    HW125730   3.019   2.198   5.336  1.4250 -0.0456 -1.0790
 8277SOL    HW225731   3.131   2.313   5.310  2.0883 -0.5123 -0.3564
 8278SOL     OW25732   1.943   1.612   1.337 -0.0153  0.0325  0.0878
 8278SOL    HW125733   1.889   1.670   1.397 -0.0028  0.0138  0.1172
 8278SOL    HW225734   1.882   1.559   1.277 -0.0414 -0.2080  0.3232
 8279SOL     OW25735   1.133   5.231   5.737  0.7797  0.0596  0.0920
 8279SOL    HW125736   1.138   5.131   5.742 -0.2464 -0.2287 -2.6801
 8279SOL    HW225737   1.215   5.270   5.778  0.6048 -1.8089  2.4452
 8280SOL     OW25738   3.397   1.183   0.090  0.0877  0.2978  0.1463
 8280SOL    HW125739   3.448   1.206   0.007 -1.1906 -1.5983 -1.2522
 8280SOL    HW225740   3.457   1.192   0.170  2.4718 -1.2228 -1.3475
 8281SOL     OW25741   1.795   0.562   4.173 -0.3035  0.4940  0.4419
 8281SOL    HW125742   1.814   0.640   4.113 -0.5093 -0.0360 -0.3237
 8281SOL    HW225743   1.785   0.595   4.267  4.1399  0.9331  1.0221
 8282SOL     OW25744   0.203   5.826   3.883  0.2491 -0.0396 -0.2622
 8282SOL    HW125745   0.117   5.774   3.879  0.2012  0.0365 -0.2358
 8282SOL    HW225746   0.184   5.923   3.866  0.5256 -0.2174 -1.7302
 8283SOL     OW25747   1.147   6.080   5.166 -0.3929 -0.0639  0.0937
 8283SOL    HW125748   1.208   6.078   5.086 -1.5868  2.2212 -0.9653
 8283SOL    HW225749   1.066   6.024   5.147 -1.2060  1.3453 -0.8519
 8284SOL     OW25750   5.077   2.721   6.003 -0.5996 -0.3251  0.1993
 8284SOL    HW125751   5.003   2.752   6.062  1.4064  1.5082  1.9227
 8284SOL    HW225752   5.107   2.797   5.945  0.4411 -0.7911  0.1063
 8285SOL     OW25753   3.023   1.555   6.026 -0.0835  0.2441  0.1620
 8285SOL    HW125754   3.026   1.502   6.111 -0.2066  0.3844  0.2546
 8285SOL    HW225755   2.961   1.510   5.961 -1.3662  1.0571  0.7802
 8286SOL     OW25756   0.216   1.285   1.279 -0.3850  0.0396 -0.2386
 8286SOL    HW125757   0.213   1.246   1.187  0.3427 -4.3366  1.3611
 8286SOL    HW225758   0.142   1.352   1.289 -1.1209 -0.0839 -3.6445
 8287SOL     OW25759   1.427   6.150   3.888 -0.3020  0.1357 -1.2260
 8287SOL    HW125760   1.409   6.096   3.806  2.3631 -1.1242 -1.0581
 8287SOL    HW225761   1.525   6.160   3.901 -0.5967 -0.2970  2.1812
 8288SOL     OW25762   0.946   4.400   0.234 -0.1812  0.2759  0.2832
 8288SOL    HW125763   0.999   4.404   0.150 -2.5852  1.0028 -1.3124
 8288SOL    HW225764   0.943   4.491   0.276 -0.4929  0.3384  0.1306
 8289SOL     OW25765   0.328   6.905   0.702  0.4040 -0.4208  0.1653
 8289SOL    HW125766   0.230   6.924   0.706  1.0450  3.3031  2.0070
 8289SOL    HW225767   0.355   6.851   0.783 -0.0562 -1.3142 -0.2651
 8290SOL     OW25768   5.930   3.499   3.149 -0.2840  0.2111  0.3768
 8290SOL    HW125769   6.017   3.540   3.123 -0.9281  0.5231 -1.4612
 8290SOL    HW225770   5.858   3.568   3.144 -1.1776 -0.7774 -1.5319
 8291SOL     OW25771   6.445   5.869   1.937  0.3639 -0.0836  0.0897
 8291SOL    HW125772   6.512   5.941   1.950  2.1272 -1.5883 -0.2250
 8291SOL    HW225773   6.462   5.796   2.004 -1.4841 -0.1749  0.5233
 8292SOL     OW25774   3.796   0.225   6.807  0.2081  0.0073  0.4595
 8292SOL    HW125775   3.853   0.252   6.885  0.3560 -1.1963  0.7842
 8292SOL    HW225776   3.699   0.235   6.832  0.2106 -1.8556  1.4025
 8293SOL     OW25777   0.602   2.898   6.076  0.2530 -0.5323  1.1956
 8293SOL    HW125778   0.620   2.887   5.978  0.1116 -0.6996  1.1895
 8293SOL    HW225779   0.632   2.816   6.124  0.0664 -0.5616  1.2602
 8294SOL     OW25780   4.464   6.912   3.852 -0.5681  0.5730 -0.5054
 8294SOL    HW125781   4.385   6.964   3.818  0.6005  1.9165 -1.2675
 8294SOL    HW225782   4.544   6.933   3.797  0.3443 -0.7934  0.2397
 8295SOL     OW25783   4.540   0.263   6.545 -0.0679 -0.3375 -0.4642
 8295SOL    HW125784   4.521   0.319   6.625  1.0796 -1.4641  0.6510
 8295SOL    HW225785   4.504   0.308   6.463  0.4768  1.8150  0.4110
 8296SOL     OW25786   5.639   1.429   3.546  0.3985 -0.4551 -0.0367
 8296SOL    HW125787   5.579   1.369   3.599  0.1695 -0.4844 -0.3238
 8296SOL    HW225788   5.713   1.462   3.604 -0.1689 -0.0279  0.4500
 8297SOL     OW25789   4.565   0.223   2.704 -0.6905 -0.0639 -0.3539
 8297SOL    HW125790   4.536   0.280   2.781  0.1336 -0.4011  0.2283
 8297SOL    HW225791   4.566   0.277   2.620  2.9828  1.7257  0.6430
 8298SOL     OW25792   2.578   1.423   6.392  0.1109 -0.2059 -0.1239
 8298SOL    HW125793   2.538   1.393   6.479  1.9596 -0.2638  0.7584
 8298SOL    HW225794   2.621   1.512   6.405  0.3307 -0.1744 -1.0212
 8299SOL     OW25795   3.843   0.159   6.411 -0.4412  0.3425 -0.4649
 8299SOL    HW125796   3.912   0.214   6.458 -1.5602  1.0277  0.4156
 8299SOL    HW225797   3.800   0.097   6.477  0.9689 -1.8335 -1.4780
 8300SOL     OW25798   7.000   6.180   2.209 -0.2423  0.0155  0.4427
 8300SOL    HW125799   6.976   6.236   2.288 -0.2544  1.0775 -0.2903
 8300SOL    HW225800   7.089   6.136   2.225 -0.3805 -0.0199  1.1569
 8301SOL     OW25801   0.851   6.090   3.072  0.3637 -0.7463 -0.0859
 8301SOL    HW125802   0.848   6.073   2.973 -0.0478  0.1605 -0.2345
 8301SOL    HW225803   0.760   6.113   3.104  0.9702  1.9139 -0.0420
 8302SOL     OW25804   5.602   1.698   3.734  0.2647 -0.1110 -0.5400
 8302SOL    HW125805   5.613   1.796   3.718 -0.0016 -0.1401 -0.9201
 8302SOL    HW225806   5.527   1.664   3.677  0.2435 -0.5003 -0.2763
 8303SOL     OW25807   4.061   3.838   4.353 -0.1729  0.4543  0.2408
 8303SOL    HW125808   4.088   3.758   4.298 -2.1108  0.3716 -0.6721
 8303SOL    HW225809   3.998   3.894   4.300  0.7301  2.3323  1.0857
 8304SOL     OW25810   0.164   5.125   3.924 -0.1031  0.1538 -0.4826
 8304SOL    HW125811   0.072   5.165   3.915 -0.2424  0.1832  0.8610
 8304SOL    HW225812   0.186   5.116   4.021  0.3395 -2.0983 -0.7543
 8305SOL     OW25813   0.224   5.322   4.811  0.0088 -0.3897 -0.5663
 8305SOL    HW125814   0.221   5.247   4.877  1.1552  0.1339  0.0960
 8305SOL    HW225815   0.131   5.343   4.780 -0.4624 -1.1309  0.3111
 8306SOL     OW25816   5.382   5.362   2.350 -0.4208  0.0104 -0.4256
 8306SOL    HW125817   5.383   5.265   2.373 -1.2312 -0.1117 -0.8814
 8306SOL    HW225818   5.301   5.383   2.296  0.7879  0.5418 -2.1117
 8307SOL     OW25819   4.037   5.321   3.276 -0.2737  0.4452 -0.5349
 8307SOL    HW125820   4.099   5.383   3.229 -0.0084  0.1666 -0.5589
 8307SOL    HW225821   4.089   5.243   3.312 -0.3325  1.0413  0.8990
 8308SOL     OW25822   6.555   3.846   3.481  0.1220 -0.6651  0.2818
 8308SOL    HW125823   6.569   3.749   3.498 -0.7068 -0.8175  0.1762
 8308SOL    HW225824   6.481   3.857   3.414 -0.3814  0.0596  0.9456
 8309SOL     OW25825   0.033   0.410   3.057 -0.8834 -0.1884 -0.2209
 8309SOL    HW125826  -0.038   0.451   3.000 -0.3776 -1.1127 -1.5643
 8309SOL    HW225827   0.107   0.476   3.070 -0.8415 -0.0889 -0.9381
 8310SOL     OW25828   2.824   6.327   3.344  0.2668  0.6270 -0.3076
 8310SOL    HW125829   2.854   6.257   3.409  1.6543  0.8715 -0.6561
 8310SOL    HW225830   2.760   6.388   3.389  0.8180  0.4915  0.6969
 8311SOL     OW25831   2.774   5.688   3.895 -0.2555  0.0571 -0.3925
 8311SOL    HW125832   2.832   5.607   3.896 -1.6330 -0.9995  1.6248
 8311SOL    HW225833   2.831   5.770   3.900  1.0941 -0.9181  1.0219
 8312SOL     OW25834   2.379   1.724   4.330 -0.2247 -0.0450  0.0838
 8312SOL    HW125835   2.370   1.755   4.235 -0.2600  1.7428  0.6447
 8312SOL    HW225836   2.451   1.655   4.335 -0.7007 -0.6906 -1.3446
 8313SOL     OW25837   3.726   5.522   2.158  0.0822 -0.0933 -0.1504
 8313SOL    HW125838   3.687   5.450   2.100 -0.0797 -0.4520  0.3962
 8313SOL    HW225839   3.762   5.481   2.242 -0.9593  0.5795  0.6545
 8314SOL     OW25840   4.039   0.782   2.331  0.2686  0.4101 -0.3310
 8314SOL    HW125841   4.077   0.842   2.402  0.8313  0.8367 -0.9700
 8314SOL    HW225842   4.053   0.825   2.242  1.4201 -1.0316 -0.8884
 8315SOL     OW25843   3.417   4.415   0.341 -0.0161 -0.3286  0.3759
 8315SOL    HW125844   3.435   4.440   0.437 -1.4456  0.8848  0.3652
 8315SOL    HW225845   3.322   4.384   0.332 -0.0064 -0.0670 -0.7126
 8316SOL     OW25846   3.950   5.260   2.262  0.1306 -0.3071  0.3103
 8316SOL    HW125847   3.993   5.170   2.257 -0.6440 -0.6205 -2.2245
 8316SOL    HW225848   4.000   5.324   2.204 -0.4519  0.3791  0.5470
 8317SOL     OW25849   4.507   3.666   0.404  0.1144  0.2835  0.1740
 8317SOL    HW125850   4.565   3.739   0.369 -0.2758  1.2191  1.3872
 8317SOL    HW225851   4.429   3.652   0.343  0.6370  0.2848 -0.5059
 8318SOL     OW25852   6.944   6.470   5.085  0.3364  0.4810 -0.3853
 8318SOL    HW125853   7.020   6.444   5.026  0.6469  1.0368 -0.2370
 8318SOL    HW225854   6.871   6.511   5.031 -0.3820 -1.1065 -0.7014
 8319SOL     OW25855   2.585   1.293   5.864 -0.8307 -0.0791 -0.0113
 8319SOL    HW125856   2.576   1.193   5.863  0.6910 -0.2473 -1.0213
 8319SOL    HW225857   2.584   1.326   5.958 -1.3042 -1.0441  0.3358
 8320SOL     OW25858   3.470   3.408   0.034 -0.4849 -0.3533 -0.0854
 8320SOL    HW125859   3.484   3.490  -0.023  1.0448 -0.8654 -0.5088
 8320SOL    HW225860   3.496   3.429   0.128 -0.4262 -0.2437 -0.1246
 8321SOL     OW25861   4.089   3.315   7.004 -0.3968  0.1374  0.0837
 8321SOL    HW125862   4.173   3.357   7.037  0.5624 -1.2454 -0.5289
 8321SOL    HW225863   4.065   3.353   6.915  1.3651 -1.6791 -1.2311
 8322SOL     OW25864   3.457   1.292   4.155  0.1647 -0.4773  0.1905
 8322SOL    HW125865   3.432   1.238   4.235 -2.1699 -0.5410 -0.5080
 8322SOL    HW225866   3.543   1.258   4.118  1.2118 -0.5735  2.4992
 8323SOL     OW25867   4.919   3.105   7.012  0.3052  1.0980 -0.5362
 8323SOL    HW125868   4.896   3.177   6.947 -1.0122  0.6805 -0.5440
 8323SOL    HW225869   5.017   3.083   7.004  0.1677  1.0328 -2.3784
 8324SOL     OW25870   5.558   2.728   0.163  0.2089 -0.7535  0.3770
 8324SOL    HW125871   5.607   2.806   0.123  0.1368 -1.0462 -0.2964
 8324SOL    HW225872   5.561   2.651   0.100  1.1282 -1.6386  1.4430
 8325SOL     OW25873   1.719   6.982   5.712  0.2405 -0.0543  0.2949
 8325SOL    HW125874   1.647   6.941   5.657  1.1443 -0.3084 -0.7441
 8325SOL    HW225875   1.748   6.917   5.783 -0.9855  0.3042  1.1502
 8326SOL     OW25876   2.096   4.166   6.062  0.1530  0.6347 -0.2817
 8326SOL    HW125877   2.061   4.095   6.123 -2.4131 -0.3717 -2.7083
 8326SOL    HW225878   2.195   4.157   6.052  0.2039 -1.0666  1.2989
 8327SOL     OW25879   0.121   5.557   1.618  0.4060 -0.0809  0.0416
 8327SOL    HW125880   0.044   5.566   1.554  1.4409  0.7299 -1.1256
 8327SOL    HW225881   0.085   5.542   1.710 -1.2502  2.2284 -0.1308
 8328SOL     OW25882   2.460   0.182   2.693 -0.1737  0.8469 -0.5032
 8328SOL    HW125883   2.374   0.176   2.643 -0.0757  0.7411 -0.6611
 8328SOL    HW225884   2.527   0.233   2.637 -0.0967  0.8207 -0.4347
 8329SOL     OW25885   2.051   2.799   0.663  0.2088  0.0897  0.1223
 8329SOL    HW125886   2.012   2.727   0.606  0.4075 -0.3907  0.5923
 8329SOL    HW225887   2.121   2.848   0.611  0.2791 -0.2387 -0.0946
 8330SOL     OW25888   1.001   0.687   3.613  0.1206  0.5549  0.0980
 8330SOL    HW125889   1.069   0.618   3.586  0.2765  1.1536 -1.0802
 8330SOL    HW225890   0.936   0.646   3.677  1.0585 -0.2805  0.5401
 8331SOL     OW25891   2.180   4.333   2.708 -0.0004 -0.3293  0.2124
 8331SOL    HW125892   2.219   4.246   2.678  0.5881 -0.7313  2.0073
 8331SOL    HW225893   2.251   4.389   2.749 -0.4558  0.8614 -0.5804
 8332SOL     OW25894   3.190   3.785   1.301  0.3214  0.2721 -0.0054
 8332SOL    HW125895   3.232   3.695   1.294 -2.9812 -1.5100  0.7434
 8332SOL    HW225896   3.203   3.835   1.215 -0.6453 -2.3997 -1.8446
 8333SOL     OW25897   0.076   2.614   6.202  0.4033  0.5166  0.6407
 8333SOL    HW125898   0.064   2.673   6.282 -3.1640 -0.8344  1.2929
 8333SOL    HW225899   0.036   2.659   6.122  1.6126  0.7625  0.1599
 8334SOL     OW25900   4.647   5.602   1.473 -0.3422  0.7011 -0.1217
 8334SOL    HW125901   4.694   5.633   1.391  2.0374 -0.0214  0.8876
 8334SOL    HW225902   4.638   5.678   1.537  0.1453  0.6740 -0.0193
 8335SOL     OW25903   0.268   5.203   4.430 -0.4332  0.5047  0.0117
 8335SOL    HW125904   0.245   5.112   4.466  0.0534  0.6659  0.7390
 8335SOL    HW225905   0.290   5.195   4.333  0.4628 -0.2957  0.2695
 8336SOL     OW25906   0.772   0.710   4.985 -0.4953 -0.3803 -0.0603
 8336SOL    HW125907   0.719   0.747   4.909  0.6879 -1.1640 -1.3222
 8336SOL    HW225908   0.720   0.636   5.028 -0.7257 -0.6703 -0.8195
 8337SOL     OW25909   4.414   2.178   4.432 -0.3826  0.3637  0.0278
 8337SOL    HW125910   4.389   2.158   4.337 -2.5024  1.3592  0.3294
 8337SOL    HW225911   4.337   2.222   4.479  0.2059 -1.1024  2.5595
 8338SOL     OW25912   3.340   1.183   2.982  0.0605 -0.3210  0.2326
 8338SOL    HW125913   3.429   1.143   3.004  0.1471 -3.0963 -3.9174
 8338SOL    HW225914   3.269   1.141   3.039  0.9476 -1.2787  0.6492
 8339SOL     OW25915   6.725   4.358   0.137 -0.1827 -0.2590 -0.1764
 8339SOL    HW125916   6.657   4.373   0.065  2.1265  0.4501 -2.3666
 8339SOL    HW225917   6.782   4.279   0.114  1.8327  1.1188 -0.2192
 8340SOL     OW25918   6.459   6.756   2.474 -0.2129 -0.5912 -0.3282
 8340SOL    HW125919   6.382   6.693   2.479 -0.7808 -0.0011 -1.3410
 8340SOL    HW225920   6.452   6.812   2.391  0.1447  0.9703  0.6448
 8341SOL     OW25921   4.217   0.978   1.729  0.2482 -0.2250  0.3936
 8341SOL    HW125922   4.225   1.069   1.770 -3.1915  0.7918 -0.7909
 8341SOL    HW225923   4.287   0.918   1.766  0.5908  1.9804  3.7437
 8342SOL     OW25924   6.988   6.464   3.049  0.4781  0.6253  0.1998
 8342SOL    HW125925   7.019   6.415   3.131 -0.3621 -1.1552 -0.4967
 8342SOL    HW225926   7.057   6.456   2.977 -0.2677 -0.8421 -0.3908
 8343SOL     OW25927   6.832   4.681   3.312  0.3735  0.3280  1.0155
 8343SOL    HW125928   6.778   4.666   3.229  2.0042 -2.9721  0.3701
 8343SOL    HW225929   6.798   4.621   3.385 -0.1749  2.2077  2.4053
 8344SOL     OW25930   4.809   0.237   4.470 -0.5676  0.2306  0.4058
 8344SOL    HW125931   4.741   0.261   4.400  0.5677  0.7806 -0.5533
 8344SOL    HW225932   4.793   0.290   4.553 -0.0286  2.0181 -0.5689
 8345SOL     OW25933   0.836   1.792   6.283 -0.2676 -0.2576  0.5261
 8345SOL    HW125934   0.775   1.743   6.219 -0.2795 -0.5112  0.7297
 8345SOL    HW225935   0.870   1.728   6.351  2.0428 -0.6604 -0.9049
 8346SOL     OW25936   2.953   7.000   4.365  0.4577 -0.3110 -0.4782
 8346SOL    HW125937   2.888   6.933   4.401  0.0462  1.3218  2.0715
 8346SOL    HW225938   2.907   7.087   4.349  1.2621 -0.1829 -2.4125
 8347SOL     OW25939   3.582   5.389   1.702  0.2361  0.1295  0.6828
 8347SOL    HW125940   3.556   5.293   1.691 -2.0477  0.8209 -0.6045
 8347SOL    HW225941   3.512   5.438   1.754  0.9662  1.2864  0.6405
 8348SOL     OW25942   3.384   1.682   2.050  0.5040 -0.3878  0.1082
 8348SOL    HW125943   3.420   1.691   1.957  1.4931  0.1703  0.5295
 8348SOL    HW225944   3.337   1.767   2.075 -1.7764 -1.3190 -0.6661
 8349SOL     OW25945   4.097   2.125   6.979 -0.2842  0.5100 -0.3176
 8349SOL    HW125946   4.134   2.140   7.071  1.2051  1.2574 -0.9952
 8349SOL    HW225947   4.006   2.086   6.985  0.5091 -1.1933  1.4648
 8350SOL     OW25948   1.206   4.355   0.636  0.4493 -0.3550 -0.4177
 8350SOL    HW125949   1.224   4.379   0.732  1.9189 -0.0993 -0.7363
 8350SOL    HW225950   1.223   4.435   0.579 -2.0937  0.0111 -0.7551
 8351SOL     OW25951   0.097   5.902   3.134 -0.3297  0.0455  0.3118
 8351SOL    HW125952   0.031   5.880   3.206 -0.4245  1.4297  0.6855
 8351SOL    HW225953   0.156   5.824   3.117 -2.2416 -1.3511 -0.2414
 8352SOL     OW25954   2.271   4.093   5.395  0.2303 -0.1687 -0.0145
 8352SOL    HW125955   2.319   4.079   5.309  1.1331  2.9078 -0.1188
 8352SOL    HW225956   2.185   4.141   5.378 -0.2961 -0.8361  0.6807
 8353SOL     OW25957   6.598   5.440   6.882 -0.0264 -0.8247 -0.1424
 8353SOL    HW125958   6.610   5.420   6.784  1.2169  0.3163 -0.2420
 8353SOL    HW225959   6.550   5.363   6.925 -0.4911 -1.4069 -1.6117
 8354SOL     OW25960   3.807   2.378   1.110  0.0027 -0.5469 -0.4125
 8354SOL    HW125961   3.755   2.464   1.104  0.1166 -0.4141  0.3832
 8354SOL    HW225962   3.744   2.301   1.098  0.0081 -0.3582 -1.8470
 8355SOL     OW25963   1.274   5.713   1.737 -0.3336  0.4578  0.4866
 8355SOL    HW125964   1.240   5.703   1.831 -0.2668 -1.6306  0.3511
 8355SOL    HW225965   1.222   5.652   1.677 -0.6931  2.1124 -0.9537
 8356SOL     OW25966   4.630   0.608   1.206 -0.2625 -0.1552 -0.0826
 8356SOL    HW125967   4.715   0.630   1.254 -0.5147  1.0061 -0.1373
 8356SOL    HW225968   4.592   0.692   1.167 -2.3682 -0.3581  1.4210
 8357SOL     OW25969   4.587   0.231   4.275 -0.0946 -0.0566  0.8074
 8357SOL    HW125970   4.503   0.280   4.251  0.8377 -0.1162 -3.1866
 8357SOL    HW225971   4.564   0.136   4.300 -1.3580  0.6172  2.3778
 8358SOL     OW25972   4.439   4.269   0.182  0.2011  0.4837 -0.4002
 8358SOL    HW125973   4.429   4.236   0.088 -1.3684  1.3920 -0.5915
 8358SOL    HW225974   4.410   4.365   0.187 -0.3430  0.2767  1.1165
 8359SOL     OW25975   2.168   3.221   0.012 -0.0442 -0.1298  0.4028
 8359SOL    HW125976   2.208   3.307   0.041  1.3022  0.0726 -1.8411
 8359SOL    HW225977   2.239   3.151   0.007 -0.7736 -0.8871  0.4189
 8360SOL     OW25978   1.184   1.762   0.157 -0.1692  0.2276  0.1301
 8360SOL    HW125979   1.155   1.714   0.073  0.8240  0.5086 -0.3862
 8360SOL    HW225980   1.187   1.860   0.139 -0.6767  0.3545  0.7264
 8361SOL     OW25981   1.605   0.964   5.525  0.5359 -0.9204 -0.3795
 8361SOL    HW125982   1.543   0.991   5.598  0.3062  1.1040 -1.2605
 8361SOL    HW225983   1.555   0.910   5.457  0.7224 -2.7002  0.8293
 8362SOL     OW25984   5.953   5.384   1.984 -0.1873  0.2088 -0.3389
 8362SOL    HW125985   6.052   5.379   1.989 -0.0569 -0.2658 -2.4593
 8362SOL    HW225986   5.924   5.480   1.984  0.0380  0.3620  2.7215
 8363SOL     OW25987   2.062   1.259   4.106  0.4041  0.0456  0.0501
 8363SOL    HW125988   2.144   1.305   4.069  0.2555 -0.2075 -0.6081
 8363SOL    HW225989   2.006   1.225   4.030  0.0332 -0.3897  0.5144
 8364SOL     OW25990   1.546   4.760   3.187 -0.0894  0.0245 -0.1756
 8364SOL    HW125991   1.646   4.770   3.180 -0.2341  1.1033 -1.0054
 8364SOL    HW225992   1.520   4.753   3.283  0.7685 -0.0355  0.0633
 8365SOL     OW25993   4.697   0.621   2.981 -0.0155  0.4145  0.2966
 8365SOL    HW125994   4.724   0.696   3.042  1.4490  0.4186 -0.2962
 8365SOL    HW225995   4.742   0.537   3.010 -0.4664  0.1017  0.0835
 8366SOL     OW25996   3.332   0.932   3.446 -0.1907  0.0498 -0.6972
 8366SOL    HW125997   3.324   0.971   3.538  0.9650  2.7623 -1.6470
 8366SOL    HW225998   3.241   0.927   3.404 -0.4578  1.2571 -0.3089
 8367SOL     OW25999   5.314   5.685   1.760  0.4227 -0.0501 -0.1811
 8367SOL    HW126000   5.226   5.638   1.756  1.1723 -1.6431  1.0046
 8367SOL    HW226001   5.388   5.618   1.764  1.7605  1.2412 -1.6261
 8368SOL     OW26002   4.360   4.601   4.202  0.0716 -0.2940  0.0588
 8368SOL    HW126003   4.357   4.643   4.111  1.0799 -0.5114 -0.0829
 8368SOL    HW226004   4.370   4.673   4.271 -1.8483 -0.0327  0.1091
 8369SOL     OW26005   1.516   3.702   6.685 -0.1565  0.4961 -0.1996
 8369SOL    HW126006   1.425   3.740   6.700 -0.3626  0.0540 -0.3280
 8369SOL    HW226007   1.528   3.681   6.588 -0.3726 -0.6063  0.0078
 8370SOL     OW26008   6.870   5.853   4.437  0.2111 -0.1083  0.5267
 8370SOL    HW126009   6.929   5.923   4.477 -1.2439  3.0762 -2.3687
 8370SOL    HW226010   6.926   5.782   4.396  1.8962  1.0057  0.7873
 8371SOL     OW26011   4.464   6.651   0.491  0.3818 -0.5414 -0.2168
 8371SOL    HW126012   4.452   6.728   0.428  0.3763 -0.3060  0.0685
 8371SOL    HW226013   4.396   6.656   0.563 -0.3935 -1.4960 -0.8620
 8372SOL     OW26014   6.183   1.453   4.021  0.4225 -0.1459 -0.4887
 8372SOL    HW126015   6.192   1.534   3.963 -0.2328 -0.2000 -0.6741
 8372SOL    HW226016   6.124   1.473   4.098  0.9466 -0.2025 -0.0668
 8373SOL     OW26017   6.226   5.826   4.093  0.3716  0.0605 -0.1960
 8373SOL    HW126018   6.192   5.763   4.163  1.2679 -0.5458 -0.2913
 8373SOL    HW226019   6.204   5.920   4.119 -0.4503 -0.2430  0.2437
 8374SOL     OW26020   2.127   3.349   3.059  0.0713 -0.2557  0.8683
 8374SOL    HW126021   2.132   3.304   2.970  0.4657 -0.5307  1.0264
 8374SOL    HW226022   2.144   3.447   3.048  0.5391 -0.3556  0.6958
 8375SOL     OW26023   6.786   0.004   6.191  0.0796 -0.4086 -0.3487
 8375SOL    HW126024   6.777  -0.024   6.095 -0.9938 -0.6812 -0.1795
 8375SOL    HW226025   6.784  -0.076   6.250 -1.2472 -0.1182  0.0220
 8376SOL     OW26026   6.859   0.518   1.056  0.1302  0.1582  0.6901
 8376SOL    HW126027   6.873   0.611   1.022 -0.0744  0.1232  0.5052
 8376SOL    HW226028   6.864   0.453   0.979 -0.2608  0.0713  0.7365
 8377SOL     OW26029   6.290   4.639   5.138 -0.3828  0.0877 -0.4338
 8377SOL    HW126030   6.298   4.541   5.118  1.3516 -0.2167  1.3675
 8377SOL    HW226031   6.378   4.673   5.171 -1.2182  2.0473 -0.0939
 8378SOL     OW26032   0.345   5.915   2.483  0.1547 -0.0992  0.5645
 8378SOL    HW126033   0.354   5.942   2.387 -0.9218  1.3338  0.8412
 8378SOL    HW226034   0.435   5.892   2.519  0.8252  1.0008 -0.3255
 8379SOL     OW26035   5.297   5.748   1.485 -0.0922  0.2200  0.2673
 8379SOL    HW126036   5.283   5.845   1.462 -2.1412 -0.0632  0.0936
 8379SOL    HW226037   5.308   5.739   1.584 -0.7277  0.5695  0.3772
 8380SOL     OW26038   5.320   3.358   5.102 -0.2437 -0.0555 -0.4634
 8380SOL    HW126039   5.362   3.375   5.191 -0.8721  0.4465 -0.2582
 8380SOL    HW226040   5.292   3.263   5.095  0.2972 -0.2290 -0.3399
 8381SOL     OW26041   2.583   0.268   4.512 -0.1526 -0.1198  0.0722
 8381SOL    HW126042   2.534   0.273   4.599 -0.8464 -2.9023 -0.0450
 8381SOL    HW226043   2.518   0.276   4.437  0.4726  2.4991 -0.2640
 8382SOL     OW26044   3.877   6.434   3.639  0.3428 -0.2199 -0.4270
 8382SOL    HW126045   3.938   6.412   3.563  1.7863  0.4519  0.5046
 8382SOL    HW226046   3.925   6.491   3.705 -1.2105  0.0691  0.5018
 8383SOL     OW26047   1.501   4.400   6.610 -0.4872 -0.0542  0.4237
 8383SOL    HW126048   1.445   4.458   6.669 -0.3158  1.4154 -0.8171
 8383SOL    HW226049   1.447   4.320   6.581 -1.7491  1.0088 -0.2471
 8384SOL     OW26050   4.916   1.512   1.882  0.5885  0.3426  0.1488
 8384SOL    HW126051   4.941   1.547   1.792 -0.5788  0.8967  0.0325
 8384SOL    HW226052   4.886   1.587   1.941 -1.2314 -0.3311  0.1299
 8385SOL     OW26053   3.754   1.802   4.961  0.4172  0.1663  0.1867
 8385SOL    HW126054   3.733   1.839   5.051 -0.4759  0.6080 -0.2035
 8385SOL    HW226055   3.769   1.703   4.969  1.0716  0.3131  0.9294
 8386SOL     OW26056   2.319   7.005   0.619  0.4480 -0.5573 -0.2256
 8386SOL    HW126057   2.252   6.931   0.620 -0.1565 -0.0519 -1.8025
 8386SOL    HW226058   2.351   7.020   0.526  2.8837 -0.8629  0.4877
 8387SOL     OW26059   6.496   6.552   5.863 -0.3629 -0.1593  0.8971
 8387SOL    HW126060   6.557   6.480   5.895 -1.8996 -0.4626  3.4028
 8387SOL    HW226061   6.481   6.542   5.765  2.2658 -1.0322  0.5085
 8388SOL     OW26062   1.675   6.922   5.213 -0.0927  0.0730 -0.2614
 8388SOL    HW126063   1.704   7.016   5.233  0.3229 -0.0246 -0.3937
 8388SOL    HW226064   1.737   6.857   5.257  1.6404 -0.1631 -2.7966
 8389SOL     OW26065   3.572   5.947   3.359  0.1631  0.3679 -0.6076
 8389SOL    HW126066   3.498   6.006   3.391 -0.4804 -2.2979  3.5140
 8389SOL    HW226067   3.540   5.852   3.355  2.6667 -0.5361 -1.4061
 8390SOL     OW26068   1.786   2.439   0.537  0.7329  0.2933  0.3013
 8390SOL    HW126069   1.757   2.404   0.626  3.9120 -0.1629  1.2610
 8390SOL    HW226070   1.787   2.539   0.540 -0.4191  0.3207  0.3016
 8391SOL     OW26071   6.758   6.927   2.903  0.2089 -0.5020 -0.0153
 8391SOL    HW126072   6.839   6.880   2.938  0.1751  0.1385  0.9633
 8391SOL    HW226073   6.711   6.868   2.836  0.6834 -1.4518  0.4716
 8392SOL     OW26074   4.754   2.430   6.902 -0.5962  0.3072  0.1430
 8392SOL    HW126075   4.784   2.413   6.996  0.7048 -0.3295 -0.3477
 8392SOL    HW226076   4.740   2.528   6.888  1.8528  0.7444  0.2990
 8393SOL     OW26077   2.582   2.284   6.164 -0.0691 -0.8515  1.0564
 8393SOL    HW126078   2.533   2.372   6.165  0.1373 -0.6856  3.5407
 8393SOL    HW226079   2.556   2.232   6.083 -0.9474  1.0855  0.0263
 8394SOL     OW26080   5.941   3.275   5.880 -0.0181 -0.6625 -0.3502
 8394SOL    HW126081   5.918   3.334   5.957  0.5707  1.4452 -1.6947
 8394SOL    HW226082   6.040   3.277   5.865 -0.1214 -1.0491 -1.1437
 8395SOL     OW26083   0.864   1.133   1.363  0.4745 -0.0519  0.1462
 8395SOL    HW126084   0.879   1.058   1.428  0.6255 -1.0077 -0.9510
 8395SOL    HW226085   0.930   1.126   1.289 -0.7055  0.0463 -0.9426
 8396SOL     OW26086   6.786   1.761   6.155  0.1322 -0.5529  0.0490
 8396SOL    HW126087   6.719   1.687   6.146 -1.3405  0.5362  1.4769
 8396SOL    HW226088   6.862   1.744   6.093 -1.7824 -1.4689 -2.2292
 8397SOL     OW26089   0.853   3.021   4.169 -0.4957  0.0494 -0.0110
 8397SOL    HW126090   0.943   3.004   4.207  0.2082  1.8537 -0.7432
 8397SOL    HW226091   0.852   2.997   4.072  0.1140  2.5923 -0.7193
 8398SOL     OW26092   1.514   6.079   1.645  0.0679  0.2616  0.0958
 8398SOL    HW126093   1.499   6.127   1.559  0.9595  0.2244 -0.0912
 8398SOL    HW226094   1.542   5.985   1.627 -1.4971 -0.2982  0.4597
 8399SOL     OW26095   0.222   4.904   6.773  0.4473  0.0685  0.0227
 8399SOL    HW126096   0.305   4.856   6.743  0.1892 -0.5939  0.3513
 8399SOL    HW226097   0.187   4.860   6.855 -0.9465 -0.4615 -0.8176
 8400SOL     OW26098   6.605   4.032   4.783 -0.0012 -0.2345 -0.4740
 8400SOL    HW126099   6.599   4.017   4.881 -1.2841 -0.5264 -0.5776
 8400SOL    HW226100   6.569   4.123   4.761  1.2298  0.2353 -0.5720
 8401SOL     OW26101   1.009   4.638   6.273 -0.2595 -0.3150 -0.0311
 8401SOL    HW126102   0.978   4.719   6.223 -2.2684  0.0912  1.7156
 8401SOL    HW226103   1.106   4.622   6.254 -0.3871  1.0636 -2.2722
 8402SOL     OW26104   5.694   4.337   5.581  0.6768  0.0438 -0.0418
 8402SOL    HW126105   5.695   4.427   5.624  0.6767 -0.7338  1.6760
 8402SOL    HW226106   5.607   4.291   5.602  1.1587 -0.8196  0.1041
 8403SOL     OW26107   3.347   0.464   4.743  0.0392  0.8748  0.5211
 8403SOL    HW126108   3.339   0.452   4.644 -0.3611 -2.2990  0.8307
 8403SOL    HW226109   3.259   0.446   4.786  0.0160  2.9688  1.4624
 8404SOL     OW26110   2.875   1.218   6.557  0.2975  0.5144 -0.1708
 8404SOL    HW126111   2.966   1.177   6.557 -0.2115 -0.8566  2.6191
 8404SOL    HW226112   2.821   1.180   6.481  2.0019  1.4615 -1.9507
 8405SOL     OW26113   1.420   0.581   1.345  0.0071 -0.4314 -0.0060
 8405SOL    HW126114   1.356   0.505   1.355  0.7935 -1.0199  0.8013
 8405SOL    HW226115   1.408   0.646   1.420 -1.0501  0.5665 -1.0047
 8406SOL     OW26116   0.585   2.378   6.958  0.0362  0.3503 -0.1534
 8406SOL    HW126117   0.614   2.313   7.028 -0.3421 -0.8361 -1.0704
 8406SOL    HW226118   0.620   2.350   6.869  1.3643  2.3883 -0.3489
 8407SOL     OW26119   2.103   3.544   6.563 -0.3154 -0.2932 -0.2601
 8407SOL    HW126120   2.201   3.557   6.545 -0.7774  2.8397 -1.0717
 8407SOL    HW226121   2.092   3.474   6.634  2.4410 -1.1298 -0.5148
 8408SOL     OW26122   3.732   4.014   7.011  0.6656 -0.8846 -0.9948
 8408SOL    HW126123   3.819   4.025   6.963  0.3806 -1.7197 -1.7180
 8408SOL    HW226124   3.723   4.086   7.080  2.5148 -1.5232 -0.0090
 8409SOL     OW26125   4.216   5.770   1.630 -0.3772  0.4572 -0.1855
 8409SOL    HW126126   4.153   5.698   1.660 -0.4255  0.3025 -0.6516
 8409SOL    HW226127   4.211   5.780   1.531  1.5015 -0.6585 -0.4409
 8410SOL     OW26128   4.105   1.022   0.538  0.0732 -0.3589 -0.0182
 8410SOL    HW126129   4.075   1.017   0.443 -0.5008  0.6040  0.0980
 8410SOL    HW226130   4.176   1.092   0.547  1.0906 -1.3719  0.0358
 8411SOL     OW26131   6.322   0.179   3.772  0.1718 -0.2117 -0.4704
 8411SOL    HW126132   6.277   0.104   3.820  0.1258 -0.1973 -0.4915
 8411SOL    HW226133   6.328   0.259   3.833 -0.3971 -0.0051 -0.6776
 8412SOL     OW26134   2.100   4.708   6.688  0.9330  0.1749  0.0828
 8412SOL    HW126135   2.005   4.697   6.658  1.3647  0.7316 -1.5514
 8412SOL    HW226136   2.135   4.620   6.721  0.3619 -0.4107 -0.8475
 8413SOL     OW26137   5.108   1.728   1.034 -0.0346  0.1106 -0.5605
 8413SOL    HW126138   5.155   1.774   1.110 -1.2744  0.6283 -0.0796
 8413SOL    HW226139   5.018   1.768   1.022  0.2913  0.3168 -2.6141
 8414SOL     OW26140   2.173   2.303   2.715  0.0066 -0.0334 -0.5990
 8414SOL    HW126141   2.198   2.400   2.713 -2.1061  0.5378 -1.5181
 8414SOL    HW226142   2.161   2.274   2.810 -2.7817  1.6236 -0.3332
 8415SOL     OW26143   0.012   1.918   5.935 -0.3055  0.0682 -0.2802
 8415SOL    HW126144  -0.086   1.936   5.927 -0.4893 -0.7044  0.0951
 8415SOL    HW226145   0.036   1.909   6.032 -0.2663 -1.8047 -0.4380
 8416SOL     OW26146   5.802   5.171   2.029  0.0990 -0.0203  0.3866
 8416SOL    HW126147   5.743   5.172   2.110 -0.3178  0.5349  0.0874
 8416SOL    HW226148   5.852   5.258   2.023 -0.5773  0.3240 -0.4493
 8417SOL     OW26149   2.262   5.623   4.385  0.0745  0.3205  0.2874
 8417SOL    HW126150   2.185   5.565   4.360  0.4743  0.2947 -0.9884
 8417SOL    HW226151   2.240   5.676   4.467 -1.9977  1.6635 -1.0647
 8418SOL     OW26152   1.102   3.937   1.111  0.3407  0.4339  0.5403
 8418SOL    HW126153   1.020   3.892   1.076  0.1906  0.7764  0.4480
 8418SOL    HW226154   1.101   3.934   1.211  0.4861 -0.0386  0.5314
 8419SOL     OW26155   6.756   6.778   1.760  0.1797 -0.0372  0.3076
 8419SOL    HW126156   6.813   6.743   1.686  0.3273 -0.4410  0.6134
 8419SOL    HW226157   6.675   6.823   1.722  0.2313 -0.2894 -0.0965
 8420SOL     OW26158   0.193   0.728   4.862  0.0196  0.0270 -0.3144
 8420SOL    HW126159   0.144   0.762   4.942 -0.7980 -1.9871  0.0789
 8420SOL    HW226160   0.243   0.645   4.885  0.0487 -0.4097 -1.8189
 8421SOL     OW26161   1.987   1.506   4.370 -0.0780 -0.6009  0.2622
 8421SOL    HW126162   2.022   1.459   4.289  0.5043 -0.1718  0.2587
 8421SOL    HW226163   1.889   1.525   4.358 -0.2877 -1.6509  0.1972
 8422SOL     OW26164   2.397   0.621   1.973  0.2893 -0.3927  0.3679
 8422SOL    HW126165   2.473   0.638   1.911 -1.8834  0.8644 -2.1198
 8422SOL    HW226166   2.335   0.555   1.933 -1.2656  0.5549  1.1228
 8423SOL     OW26167   2.168   3.641   6.111 -0.2921  0.0980  0.1460
 8423SOL    HW126168   2.229   3.611   6.037 -0.3353  0.5050 -0.0600
 8423SOL    HW226169   2.202   3.727   6.149 -0.2384 -0.1438  0.6409
 8424SOL     OW26170   4.693   2.218   1.548 -0.1133  0.0291 -0.1490
 8424SOL    HW126171   4.649   2.229   1.459  0.3555  1.7994 -0.1958
 8424SOL    HW226172   4.750   2.298   1.567  1.1495 -1.0895  0.9957
 8425SOL     OW26173   3.380   3.766   4.609  0.2502  0.2384  0.1246
 8425SOL    HW126174   3.381   3.724   4.700 -0.2771 -0.0519 -0.0009
 8425SOL    HW226175   3.342   3.858   4.616  1.5794  0.7966  0.4314
 8426SOL     OW26176   1.676   0.902   1.412  0.0332 -0.5189  0.4426
 8426SOL    HW126177   1.752   0.914   1.476  0.4266 -1.1190  0.1015
 8426SOL    HW226178   1.666   0.984   1.357  0.9570 -0.7214 -0.0514
 8427SOL     OW26179   3.477   2.084   2.507 -0.7477 -0.4706  0.1233
 8427SOL    HW126180   3.528   2.092   2.421 -4.1617  2.8087 -1.9140
 8427SOL    HW226181   3.517   2.146   2.575 -0.1944 -0.2655 -0.3749
 8428SOL     OW26182   6.167   3.498   5.692  0.1324  0.0619  0.3566
 8428SOL    HW126183   6.170   3.431   5.766 -2.3718 -1.0547 -0.4352
 8428SOL    HW226184   6.257   3.541   5.682  0.5906  0.1770  3.8862
 8429SOL     OW26185   5.973   2.216   4.941 -0.5288 -0.2408 -0.0209
 8429SOL    HW126186   6.071   2.197   4.944 -0.4781  0.0832  0.5778
 8429SOL    HW226187   5.952   2.292   5.003 -1.1649 -0.3375 -0.1115
 8430SOL     OW26188   1.594   4.029   4.723  0.4668 -0.1408 -0.0857
 8430SOL    HW126189   1.639   3.946   4.758  0.8249 -1.0951 -2.5454
 8430SOL    HW226190   1.658   4.078   4.664 -0.1694  1.2189  0.3252
 8431SOL     OW26191   4.821   1.816   4.866 -0.1133 -0.0727 -0.2440
 8431SOL    HW126192   4.799   1.753   4.940  2.4386  1.5754  2.0854
 8431SOL    HW226193   4.917   1.807   4.841  0.2114  2.4583 -0.1930
 8432SOL     OW26194   2.574   7.006   2.149  1.3300  0.6746 -0.5780
 8432SOL    HW126195   2.566   7.065   2.229  0.6590  2.2060 -1.7410
 8432SOL    HW226196   2.488   7.004   2.099  1.3186 -1.3392 -0.5830
 8433SOL     OW26197   4.451   2.630   5.047 -0.3218 -0.0133 -0.6128
 8433SOL    HW126198   4.365   2.582   5.063 -1.0398  0.9405 -1.5319
 8433SOL    HW226199   4.457   2.658   4.951  1.3242 -0.6553 -0.7453
 8434SOL     OW26200   3.295   3.845   5.106  0.4289 -0.0271 -0.5159
 8434SOL    HW126201   3.347   3.917   5.061  0.2390  0.3198 -0.1838
 8434SOL    HW226202   3.250   3.789   5.037 -0.0477  0.6412 -0.7619
 8435SOL     OW26203   3.076   6.033   1.590  0.1982  0.0149  0.4070
 8435SOL    HW126204   3.045   6.093   1.516 -1.4161 -1.8833 -0.5808
 8435SOL    HW226205   3.176   6.035   1.594  0.4898 -0.8351 -2.8639
 8436SOL     OW26206   1.232   0.392   1.375 -0.3371 -0.4887 -0.2276
 8436SOL    HW126207   1.185   0.344   1.301 -0.7726 -0.6544  0.1577
 8436SOL    HW226208   1.166   0.424   1.443  0.0557 -0.3043  0.0764
 8437SOL     OW26209   0.800   2.814   3.580  0.0441 -0.4491  0.2691
 8437SOL    HW126210   0.891   2.843   3.609 -0.3883  1.3232 -0.0150
 8437SOL    HW226211   0.806   2.765   3.494  0.7464 -0.5811  0.3898
 8438SOL     OW26212   3.562   1.076   1.069  0.7922  0.4768  0.3071
 8438SOL    HW126213   3.548   0.981   1.095  2.5194  0.6992  2.3433
 8438SOL    HW226214   3.473   1.119   1.050 -0.1382 -1.1420  0.7884
 8439SOL     OW26215   1.620   4.741   3.653  0.0513 -0.4992 -0.4488
 8439SOL    HW126216   1.656   4.694   3.734 -1.6058 -1.5369 -0.2746
 8439SOL    HW226217   1.696   4.774   3.597  1.2451  0.2298  1.4982
 8440SOL     OW26218   3.399   5.833   3.973  0.2060  0.7124 -0.5148
 8440SOL    HW126219   3.495   5.810   3.953  0.0428  0.6058 -1.2179
 8440SOL    HW226220   3.391   5.866   4.067  0.2281 -3.7120  1.2642
 8441SOL     OW26221   2.124   1.594   3.619 -0.1257 -0.3353 -0.0610
 8441SOL    HW126222   2.192   1.667   3.630  1.2767 -1.6993  0.7996
 8441SOL    HW226223   2.041   1.616   3.670  0.7640  0.1008  1.2397
 8442SOL     OW26224   0.603   1.436   1.584  0.3573 -0.2610 -0.1449
 8442SOL    HW126225   0.697   1.403   1.597 -0.0320 -1.1000  0.6454
 8442SOL    HW226226   0.572   1.413   1.492  0.5546 -0.9551 -0.0469
 8443SOL     OW26227   0.498   4.382   4.164 -0.3332 -0.1819  0.2578
 8443SOL    HW126228   0.469   4.381   4.259  1.6313 -1.3544  0.9076
 8443SOL    HW226229   0.587   4.336   4.155 -0.7111 -0.6061 -2.2218
 8444SOL     OW26230   5.671   4.534   5.352  0.5154 -0.1534 -0.5146
 8444SOL    HW126231   5.661   4.467   5.425  0.6300 -0.9547 -1.2247
 8444SOL    HW226232   5.632   4.498   5.267 -1.6460  1.6220 -0.3756
 8445SOL     OW26233   4.574   0.299   3.321 -0.5793  0.3142 -0.7448
 8445SOL    HW126234   4.490   0.271   3.276 -0.9260 -0.4404  0.3533
 8445SOL    HW226235   4.648   0.236   3.296 -0.9196 -0.4909  0.2127
 8446SOL     OW26236   3.501   5.616   1.558  0.0757  0.1327  0.4037
 8446SOL    HW126237   3.524   5.525   1.592 -0.2564 -0.0297  0.1944
 8446SOL    HW226238   3.409   5.641   1.586  0.4111  0.6933  1.0438
 8447SOL     OW26239   5.067   2.761   4.250  0.0079  0.4116  0.0669
 8447SOL    HW126240   4.969   2.776   4.263 -0.3051 -2.7971  3.1394
 8447SOL    HW226241   5.081   2.673   4.204  1.4615  0.8589 -0.3962
 8448SOL     OW26242   0.014   1.412   5.283  0.6931  0.0148  0.0229
 8448SOL    HW126243   0.105   1.447   5.304  1.1487 -0.5350 -0.9819
 8448SOL    HW226244  -0.053   1.453   5.345  1.6435  0.2926  0.8800
 8449SOL     OW26245   6.441   1.939   3.432  0.2173  0.0220 -0.3896
 8449SOL    HW126246   6.457   2.031   3.397  0.1398 -0.7010 -2.4379
 8449SOL    HW226247   6.527   1.888   3.432 -0.1349 -0.5893 -1.3964
 8450SOL     OW26248   6.214   3.293   5.859 -0.0517 -0.2981 -0.0955
 8450SOL    HW126249   6.261   3.205   5.868  0.0091 -0.1112  2.1474
 8450SOL    HW226250   6.233   3.348   5.940 -0.3979  1.6525 -1.2905
 8451SOL     OW26251   1.294   4.584   0.513  0.4772  0.1799 -0.0551
 8451SOL    HW126252   1.329   4.654   0.574  1.6767 -1.0890  0.7740
 8451SOL    HW226253   1.346   4.585   0.428  1.1764 -0.3501  0.3585
 8452SOL     OW26254   4.746   6.094   1.992 -0.5854  0.5441  0.0975
 8452SOL    HW126255   4.797   6.009   2.008  0.3624  1.0845 -0.0222
 8452SOL    HW226256   4.710   6.094   1.898 -1.4662 -0.1667  0.4136
 8453SOL     OW26257   1.096   6.386   4.224 -0.1133 -0.7524 -0.4146
 8453SOL    HW126258   1.127   6.480   4.208 -0.0186 -0.7253 -0.0878
 8453SOL    HW226259   1.019   6.388   4.288  0.0691 -0.9185 -0.1899
 8454SOL     OW26260   1.879   3.166   0.217  0.1239 -0.1277  0.3588
 8454SOL    HW126261   1.805   3.233   0.218  2.0139  2.0959  1.9571
 8454SOL    HW226262   1.903   3.144   0.122 -1.2433  0.6290 -0.1884
 8455SOL     OW26263   1.584   2.802   2.334  0.5539 -0.5624  0.5668
 8455SOL    HW126264   1.541   2.866   2.397 -3.2170 -1.6684 -0.6228
 8455SOL    HW226265   1.622   2.852   2.256 -2.2705  0.3896 -0.3223
 8456SOL     OW26266   2.298   2.652   6.901  0.5322 -0.2340  0.3454
 8456SOL    HW126267   2.344   2.610   6.979  2.9454  1.5353 -0.0201
 8456SOL    HW226268   2.350   2.635   6.817 -0.9668 -0.4360 -0.5962
 8457SOL     OW26269   5.535   5.990   6.626  0.0857  0.1516  0.1728
 8457SOL    HW126270   5.580   5.968   6.540  0.8233 -0.6751  0.7503
 8457SOL    HW226271   5.479   6.072   6.615  1.9667  1.4002 -0.4969
 8458SOL     OW26272   5.931   4.362   0.690 -0.2916 -0.4336  0.2649
 8458SOL    HW126273   5.906   4.404   0.778  0.0000  0.5831 -0.1204
 8458SOL    HW226274   6.027   4.379   0.672 -0.1259 -1.4285  0.1618
 8459SOL     OW26275   4.807   6.164   1.071 -0.6894  0.2345  0.5043
 8459SOL    HW126276   4.818   6.249   1.019  0.9849 -0.9311 -1.1923
 8459SOL    HW226277   4.710   6.148   1.088 -1.1375  1.7831 -0.3759
 8460SOL     OW26278   3.400   4.161   4.175  0.0464  0.5456  0.6463
 8460SOL    HW126279   3.407   4.164   4.275 -0.9171  1.7151  0.6912
 8460SOL    HW226280   3.492   4.156   4.135  0.4346 -3.4218  1.6344
 8461SOL     OW26281   6.715   6.652   3.454  0.1393  0.8425 -0.4315
 8461SOL    HW126282   6.666   6.566   3.440  0.1656  0.6731  0.4906
 8461SOL    HW226283   6.790   6.658   3.387 -0.0550  0.2986 -0.7073
 8462SOL     OW26284   0.122   2.105   2.884 -0.0548 -0.1198 -0.2907
 8462SOL    HW126285   0.036   2.140   2.845  0.4081  0.1296 -1.1247
 8462SOL    HW226286   0.198   2.130   2.823  0.5027 -1.0761 -0.0006
 8463SOL     OW26287   6.177   3.186   2.502 -0.5299 -0.7351 -0.4947
 8463SOL    HW126288   6.129   3.237   2.572 -0.6342  0.2751 -1.2850
 8463SOL    HW226289   6.234   3.116   2.545 -0.2872  0.1213  0.6142
 8464SOL     OW26290   5.092   4.139   1.205 -0.1793  0.4033 -0.0386
 8464SOL    HW126291   5.096   4.046   1.241  0.1229 -0.3698 -1.9696
 8464SOL    HW226292   5.000   4.175   1.216 -0.3394 -0.1721  0.5749
 8465SOL     OW26293   1.012   6.181   4.071  0.3038  0.5421  0.3040
 8465SOL    HW126294   1.054   6.256   4.121  0.9393  0.4655 -0.0995
 8465SOL    HW226295   1.073   6.101   4.074  0.4423  0.5954 -0.7362
 8466SOL     OW26296   6.930   4.334   1.515  0.1482 -0.1155  0.0622
 8466SOL    HW126297   6.872   4.353   1.594 -2.3144  0.2291 -1.7387
 8466SOL    HW226298   6.985   4.415   1.495 -0.5453  0.4388  0.3360
 8467SOL     OW26299   4.984   5.418   6.072  0.1463 -0.1154 -0.4450
 8467SOL    HW126300   5.042   5.420   5.990 -1.4502 -0.5854 -1.6325
 8467SOL    HW226301   4.953   5.324   6.088  0.3324 -0.0015  0.6334
 8468SOL     OW26302   5.502   3.495   0.253 -0.1788  0.2825  0.5651
 8468SOL    HW126303   5.482   3.440   0.335  1.3480 -0.1422  0.6868
 8468SOL    HW226304   5.417   3.536   0.219 -0.8414  0.6191  2.4651
 8469SOL     OW26305   6.933   6.375   0.114 -0.1114 -0.4297 -0.2946
 8469SOL    HW126306   6.836   6.367   0.137 -0.3208  1.8661 -0.2119
 8469SOL    HW226307   6.983   6.297   0.153 -1.4199  0.0277  2.5096
 8470SOL     OW26308   6.724   3.792   0.917  0.4935 -0.1455 -0.3506
 8470SOL    HW126309   6.736   3.888   0.941  0.2590 -0.1569 -0.1761
 8470SOL    HW226310   6.806   3.758   0.871  1.1519 -0.2606  0.8740
 8471SOL     OW26311   5.852   3.995   5.191 -0.7150 -0.0175  0.7930
 8471SOL    HW126312   5.935   4.050   5.181 -1.1763  0.6534  0.6050
 8471SOL    HW226313   5.775   4.042   5.147 -1.0476 -0.9801  0.3193
 8472SOL     OW26314   4.817   2.002   6.967 -0.0741 -0.7883  0.3716
 8472SOL    HW126315   4.749   2.041   6.905 -1.5587 -1.4240  1.5408
 8472SOL    HW226316   4.859   2.075   7.021  1.4272 -0.1902 -1.4797
 8473SOL     OW26317   1.111   1.402   1.019 -0.0191  0.2656 -0.1841
 8473SOL    HW126318   1.146   1.490   0.984  0.5454  0.3178  0.4917
 8473SOL    HW226319   1.103   1.407   1.118 -2.3971  0.3969 -0.3184
 8474SOL     OW26320   5.875   4.734   1.467  0.0704 -0.0948 -0.7710
 8474SOL    HW126321   5.908   4.658   1.524  2.6678  0.8383 -0.8987
 8474SOL    HW226322   5.875   4.818   1.520 -1.2585  0.1408 -1.0971
 8475SOL     OW26323   3.767   0.667   3.873  0.1907  0.1290 -0.3631
 8475SOL    HW126324   3.742   0.571   3.890  0.6437  0.1996  0.8304
 8475SOL    HW226325   3.814   0.703   3.954 -2.2167  2.1397  0.2752
 8476SOL     OW26326   6.227   0.547   1.229 -0.5428 -0.1231 -0.0469
 8476SOL    HW126327   6.286   0.470   1.254 -0.0952  0.0907 -0.4147
 8476SOL    HW226328   6.282   0.631   1.229 -0.5322 -0.0924 -1.6403
 8477SOL     OW26329   5.342   1.374   4.334 -0.0265 -0.6526  0.9959
 8477SOL    HW126330   5.422   1.356   4.391  1.3543 -0.3264 -0.7564
 8477SOL    HW226331   5.346   1.317   4.252 -0.8799  0.3667  0.2239
 8478SOL     OW26332   0.506   1.160   4.257  1.0422  0.2865 -0.2397
 8478SOL    HW126333   0.565   1.152   4.177 -0.9429  0.1520 -1.7817
 8478SOL    HW226334   0.418   1.199   4.230 -0.1421 -0.8786  1.6630
 8479SOL     OW26335   6.383   0.705   6.489 -0.5902  0.3729 -0.3942
 8479SOL    HW126336   6.479   0.713   6.516 -0.6437  1.8091 -0.5532
 8479SOL    HW226337   6.332   0.783   6.523 -2.1254 -1.2342  1.2268
 8480SOL     OW26338   5.513   2.125   5.135 -0.1485 -0.2558 -0.0616
 8480SOL    HW126339   5.473   2.185   5.204 -0.9121  0.0000 -0.7043
 8480SOL    HW226340   5.455   2.125   5.053  1.0959 -0.0176 -0.9697
 8481SOL     OW26341   2.532   6.038   1.905  0.5916 -0.5769 -0.3571
 8481SOL    HW126342   2.550   6.024   2.003  1.7093 -1.2408 -0.6438
 8481SOL    HW226343   2.469   5.968   1.873 -3.5070  2.2141  0.8272
 8482SOL     OW26344   4.422   0.015   5.859 -0.6247  0.0578 -0.3364
 8482SOL    HW126345   4.391  -0.040   5.782 -0.4818 -0.9089  0.2767
 8482SOL    HW226346   4.517  -0.007   5.880 -0.7557  0.0833  0.3071
 8483SOL     OW26347   3.934   4.036   0.444 -0.5398  0.3883  0.1260
 8483SOL    HW126348   3.858   3.972   0.428 -0.6180  0.5152 -0.0116
 8483SOL    HW226349   3.983   4.051   0.358  0.3802 -0.6310  0.4525
 8484SOL     OW26350   6.759   3.962   5.938 -0.3063  0.0131 -0.3179
 8484SOL    HW126351   6.703   4.035   5.977 -2.1135 -1.3633 -0.2149
 8484SOL    HW226352   6.839   3.946   5.996 -0.5178  1.0898  0.2908
 8485SOL     OW26353   1.211   4.205   5.219  0.5706  0.0677  0.0486
 8485SOL    HW126354   1.285   4.148   5.255 -0.7727  0.0561  3.0517
 8485SOL    HW226355   1.133   4.147   5.195 -0.1737  0.4272  1.4951
 8486SOL     OW26356   4.620   0.586   6.495  0.3131  0.0130 -0.1677
 8486SOL    HW126357   4.575   0.525   6.429  0.1721  2.3908 -2.4140
 8486SOL    HW226358   4.555   0.610   6.567  0.2743 -2.1277  0.5875
 8487SOL     OW26359   1.290   1.768   6.646  0.1735 -0.3780 -0.6268
 8487SOL    HW126360   1.322   1.782   6.740  1.0523  0.1659 -0.9919
 8487SOL    HW226361   1.290   1.670   6.626 -0.6205 -0.5492  0.1352
 8488SOL     OW26362   2.860   2.148   0.284 -0.0213  0.2859  0.4618
 8488SOL    HW126363   2.925   2.139   0.360 -0.2440  1.4004  0.7972
 8488SOL    HW226364   2.767   2.151   0.320 -0.1069  1.1749  0.1738
 8489SOL     OW26365   3.235   2.895   5.173  0.2487 -0.6753 -0.4184
 8489SOL    HW126366   3.327   2.860   5.155  0.9901  0.1051  1.5656
 8489SOL    HW226367   3.185   2.828   5.228  0.1036 -0.5208 -0.3641
 8490SOL     OW26368   3.180   5.828   3.330 -0.2814  0.0698  0.3009
 8490SOL    HW126369   3.126   5.772   3.267 -2.1905  3.4069 -1.3109
 8490SOL    HW226370   3.135   5.829   3.419 -0.7562 -0.1677  0.0711
 8491SOL     OW26371   0.545   2.845   4.290 -0.0338 -0.1969  0.5255
 8491SOL    HW126372   0.631   2.794   4.291  0.1024  0.0349  1.2125
 8491SOL    HW226373   0.520   2.867   4.195  0.2434 -0.9568  0.2666
 8492SOL     OW26374   5.815   1.206   5.985 -0.0538  0.3302 -0.7204
 8492SOL    HW126375   5.798   1.261   6.067 -1.4368 -0.5726 -0.3782
 8492SOL    HW226376   5.748   1.133   5.979 -0.1867  0.5706 -2.8624
 8493SOL     OW26377   3.331   0.366   6.555 -0.8005  0.1259  0.0000
 8493SOL    HW126378   3.305   0.463   6.559 -0.5535  0.1974 -0.1086
 8493SOL    HW226379   3.392   0.351   6.478  1.1647  0.3785  1.4316
 8494SOL     OW26380   5.215   4.445   6.366 -0.2701 -0.3757 -0.0425
 8494SOL    HW126381   5.132   4.500   6.373 -0.7393 -0.8425 -1.5869
 8494SOL    HW226382   5.269   4.476   6.288  1.8561  0.9704  1.8479
 8495SOL     OW26383   5.799   1.537   3.873 -0.6276  0.0886  0.2315
 8495SOL    HW126384   5.787   1.453   3.820  1.7495  0.5169 -1.1529
 8495SOL    HW226385   5.757   1.614   3.824  0.0607  0.2088 -0.1809
 8496SOL     OW26386   2.288   6.610   2.890 -0.1278  0.3974  0.7801
 8496SOL    HW126387   2.336   6.523   2.882 -0.2435  0.2080  1.9122
 8496SOL    HW226388   2.253   6.637   2.801  3.5304  1.4282 -0.4937
 8497SOL     OW26389   6.259   4.451   1.600  0.3354  0.6617  0.2132
 8497SOL    HW126390   6.164   4.430   1.577  0.2044 -0.5485  1.7207
 8497SOL    HW226391   6.277   4.424   1.694  1.8590  2.0055  0.3456
 8498SOL     OW26392   6.288   2.464   4.955  0.0359 -0.2346  0.3695
 8498SOL    HW126393   6.349   2.422   5.021 -1.7434  0.1478  2.3613
 8498SOL    HW226394   6.205   2.410   4.947 -1.2100  1.4831  1.0713
 8499SOL     OW26395   4.076   0.589   1.491  0.6369 -0.1160  0.0626
 8499SOL    HW126396   3.988   0.633   1.510 -0.7582 -1.4361 -2.7171
 8499SOL    HW226397   4.125   0.641   1.421  0.7600 -0.8631 -0.4218
 8500SOL     OW26398   6.724   6.141   6.351  0.0375 -0.5070 -0.0657
 8500SOL    HW126399   6.713   6.151   6.449  0.3711  0.7007 -0.1347
 8500SOL    HW226400   6.775   6.219   6.315 -0.1521 -0.8889 -1.2060
 8501SOL     OW26401   4.162   3.890   1.676 -0.1979 -0.1879 -0.3295
 8501SOL    HW126402   4.109   3.875   1.760  2.4961 -1.7441  1.2391
 8501SOL    HW226403   4.217   3.974   1.686  0.2987 -0.4984 -0.4166
 8502SOL     OW26404   5.491   6.114   5.971 -0.3665 -0.1440 -0.3157
 8502SOL    HW126405   5.478   6.022   6.009 -0.3757 -0.1094 -0.2336
 8502SOL    HW226406   5.538   6.171   6.039  2.5228 -0.9434 -1.4999
 8503SOL     OW26407   4.710   2.749   1.953 -0.1417 -0.8316 -0.1500
 8503SOL    HW126408   4.692   2.843   1.981 -0.0172 -0.3326 -1.6865
 8503SOL    HW226409   4.796   2.718   1.995 -0.6745 -0.6224  1.1462
 8504SOL     OW26410   4.310   5.835   6.686 -0.5175  0.0546  0.0277
 8504SOL    HW126411   4.214   5.830   6.717 -0.3726 -0.0319  0.4753
 8504SOL    HW226412   4.319   5.910   6.620 -0.5039  1.4113  1.4918
 8505SOL     OW26413   4.392   1.793   5.060 -0.0434 -0.2170  0.3040
 8505SOL    HW126414   4.488   1.806   5.084 -0.0349 -1.8629  1.3025
 8505SOL    HW226415   4.338   1.871   5.093  0.9865  1.0133 -0.7835
 8506SOL     OW26416   5.831   4.132   0.563  0.2220  0.2077  0.2172
 8506SOL    HW126417   5.733   4.149   0.570  0.4026  1.3742  0.1772
 8506SOL    HW226418   5.880   4.201   0.616  1.0484  0.2229 -0.5386
 8507SOL     OW26419   2.006   5.287   0.787  0.3083 -0.0486  0.0024
 8507SOL    HW126420   1.955   5.317   0.868 -0.8775 -0.3979 -0.5827
 8507SOL    HW226421   2.084   5.231   0.816  0.7210  0.9791  0.9476
 8508SOL     OW26422   1.679   2.136   1.898  0.0314 -0.0898 -0.0001
 8508SOL    HW126423   1.649   2.075   1.826  1.1755 -0.0648 -0.5235
 8508SOL    HW226424   1.766   2.179   1.872 -0.7095  1.7412  0.3613
 8509SOL     OW26425   2.430   0.496   3.520  0.7596 -0.4815  0.0848
 8509SOL    HW126426   2.513   0.549   3.504  1.0688 -0.6159  1.1842
 8509SOL    HW226427   2.382   0.484   3.433  2.2092 -0.9508 -0.6883
 8510SOL     OW26428   6.009   3.832   4.495  0.7634  0.5623  0.0101
 8510SOL    HW126429   5.936   3.876   4.444  0.1335 -0.2551  0.1860
 8510SOL    HW226430   6.070   3.784   4.432 -0.5369 -1.2205  0.0561
 8511SOL     OW26431   6.993   2.987   5.663  0.9857 -0.5719  0.0503
 8511SOL    HW126432   7.003   2.888   5.661  0.4152 -0.6324 -1.9430
 8511SOL    HW226433   6.919   3.012   5.726  0.4100 -1.5010 -0.2339
 8512SOL     OW26434   4.252   4.146   1.705  0.3465  0.9156  0.4370
 8512SOL    HW126435   4.327   4.173   1.765  0.1192  0.2230  1.0439
 8512SOL    HW226436   4.286   4.140   1.611  1.5819 -1.3099  0.9477
 8513SOL     OW26437   4.618   3.838   1.145  0.3956 -0.1664  0.4992
 8513SOL    HW126438   4.632   3.900   1.221 -2.2420  0.4194  0.6128
 8513SOL    HW226439   4.527   3.798   1.151  0.5096 -0.9356 -1.7603
 8514SOL     OW26440   4.559   0.099   4.790  0.0208 -0.5266  0.3109
 8514SOL    HW126441   4.638   0.130   4.737 -0.2795 -1.2076 -0.5670
 8514SOL    HW226442   4.568   0.130   4.885  0.4413  0.9626 -0.1794
 8515SOL     OW26443   4.363   3.435   0.099 -0.2496  0.0929 -0.1124
 8515SOL    HW126444   4.421   3.515   0.112  2.1448 -1.4871 -0.4729
 8515SOL    HW226445   4.367   3.377   0.181 -1.7312  0.1447  0.0331
 8516SOL     OW26446   6.951   4.690   0.423 -0.2298 -0.1858 -0.7539
 8516SOL    HW126447   6.913   4.740   0.345 -0.6170  0.9166  0.1165
 8516SOL    HW226448   6.886   4.694   0.499  0.5978 -0.3353 -0.0309
 8517SOL     OW26449   3.759   2.057   3.289  0.0397 -0.0769  0.7008
 8517SOL    HW126450   3.692   2.067   3.216 -0.3825  5.1665  1.4092
 8517SOL    HW226451   3.713   2.042   3.376 -0.2067  1.9535  0.9604
 8518SOL     OW26452   4.316   0.388   5.916 -0.0558  0.3450 -0.8726
 8518SOL    HW126453   4.281   0.419   6.004  0.1200  2.1087 -1.3816
 8518SOL    HW226454   4.248   0.403   5.845 -0.9289 -2.7740 -0.8355
 8519SOL     OW26455   4.212   5.614   6.292  0.4625  0.3548  0.5917
 8519SOL    HW126456   4.241   5.686   6.229 -2.1219  1.3471  0.4358
 8519SOL    HW226457   4.241   5.525   6.256  0.3637  1.0126 -1.2148
 8520SOL     OW26458   2.122   2.429   4.941  0.1948 -0.1123 -0.0660
 8520SOL    HW126459   2.112   2.508   5.001 -0.2505  1.2368 -1.8284
 8520SOL    HW226460   2.038   2.374   4.944 -0.0362  0.2488  0.1486
 8521SOL     OW26461   2.497   5.574   2.293 -0.5410  0.1540 -0.2910
 8521SOL    HW126462   2.433   5.647   2.314 -0.9259 -0.1088 -0.5285
 8521SOL    HW226463   2.587   5.597   2.329 -0.8914  0.2790  0.5362
 8522SOL     OW26464   4.155   3.583   5.067 -0.4865  0.2570 -0.2260
 8522SOL    HW126465   4.123   3.500   5.022  1.1487  0.8482 -2.6675
 8522SOL    HW226466   4.093   3.659   5.046 -1.7832 -0.1747  1.7172
 8523SOL     OW26467   0.337   3.039   2.119  0.7090 -0.5586  0.1501
 8523SOL    HW126468   0.293   2.952   2.140  2.0553 -1.1877  0.5280
 8523SOL    HW226469   0.304   3.109   2.182 -0.9186 -0.6045 -0.6207
 8524SOL     OW26470   0.978   2.167   6.730 -0.0580 -0.1228 -0.5754
 8524SOL    HW126471   0.899   2.112   6.707 -0.9287  0.4626  0.8483
 8524SOL    HW226472   1.034   2.118   6.798  0.1164 -0.0010 -0.6298
 8525SOL     OW26473   3.643   6.514   2.451  0.3174 -0.0544  0.4299
 8525SOL    HW126474   3.656   6.595   2.394  1.7490 -0.7693 -0.3204
 8525SOL    HW226475   3.623   6.435   2.393  1.0534 -0.6462  0.9567
 8526SOL     OW26476   1.818   4.997   6.096  0.2495 -0.8153 -0.9058
 8526SOL    HW126477   1.727   4.960   6.077  0.5239 -1.8445 -0.2868
 8526SOL    HW226478   1.885   4.953   6.036  0.4199 -0.4251 -1.0082
 8527SOL     OW26479   1.597   3.150   5.982 -0.7996 -0.0955  0.0773
 8527SOL    HW126480   1.635   3.057   5.982 -0.7385 -0.0726 -0.1764
 8527SOL    HW226481   1.555   3.169   6.070 -1.5396 -0.6668 -0.1454
 8528SOL     OW26482   6.251   6.136   1.204  0.1108  0.3991 -0.0986
 8528SOL    HW126483   6.261   6.235   1.194 -0.4876  0.6058  1.1744
 8528SOL    HW226484   6.234   6.114   1.300 -1.0272 -0.8342 -0.5553
 8529SOL     OW26485   3.372   1.672   0.574  0.2805 -0.2353 -0.1993
 8529SOL    HW126486   3.375   1.760   0.621 -1.3979 -1.0402  1.5427
 8529SOL    HW226487   3.278   1.650   0.549  0.4699 -2.0812  0.5450
 8530SOL     OW26488   3.469   0.652   1.725  0.0467  0.2521  0.6858
 8530SOL    HW126489   3.488   0.731   1.668  0.8445 -0.5210 -0.1547
 8530SOL    HW226490   3.505   0.668   1.817 -0.1101  0.9899  0.6268
 8531SOL     OW26491   2.889   1.412   2.574 -1.1183  0.0285  0.8417
 8531SOL    HW126492   2.797   1.451   2.571 -0.7508  0.9182  0.6563
 8531SOL    HW226493   2.954   1.478   2.536 -0.3395 -0.3859  1.4273
 8532SOL     OW26494   1.958   0.828   6.433 -0.3480  0.3100  0.3187
 8532SOL    HW126495   1.984   0.833   6.530 -1.4149  0.2756  0.6247
 8532SOL    HW226496   1.859   0.815   6.426 -0.1302 -1.0118 -0.7548
 8533SOL     OW26497   0.524   4.462   1.332  0.2580  0.6454  0.0459
 8533SOL    HW126498   0.568   4.456   1.242 -1.6340 -1.0079 -0.8449
 8533SOL    HW226499   0.489   4.372   1.358 -1.2209  1.5714  1.4096
 8534SOL     OW26500   6.851   6.530   1.206 -0.1626 -0.4028  1.0880
 8534SOL    HW126501   6.769   6.479   1.183 -0.2699  0.4006 -0.4326
 8534SOL    HW226502   6.828   6.627   1.217  0.8921  0.2654 -1.7448
 8535SOL     OW26503   6.786   4.973   1.069  0.1185 -0.1492  0.3489
 8535SOL    HW126504   6.686   4.983   1.071  0.1004 -0.2130 -0.1510
 8535SOL    HW226505   6.827   5.060   1.039  0.0676 -0.8833 -2.0463
 8536SOL     OW26506   4.907   0.878   2.099  0.7167  0.5454  0.0311
 8536SOL    HW126507   4.859   0.831   2.025 -0.9479  1.7176  0.3010
 8536SOL    HW226508   4.939   0.811   2.166  0.0372 -0.3253 -0.4920
 8537SOL     OW26509   3.539   4.711   6.079  1.2192 -0.0866 -0.1637
 8537SOL    HW126510   3.589   4.669   6.003  1.2012  1.3533 -1.0059
 8537SOL    HW226511   3.441   4.703   6.062  1.2192  0.6748 -0.5584
 8538SOL     OW26512   2.968   0.036   5.518 -0.2548 -0.2625  1.1786
 8538SOL    HW126513   2.972   0.135   5.508 -2.4417 -0.3432 -1.7780
 8538SOL    HW226514   3.060  -0.003   5.504  0.2221  1.2076 -0.0332
 8539SOL     OW26515   5.315   2.586   6.325  0.5016  0.1169  0.1388
 8539SOL    HW126516   5.325   2.647   6.404 -0.1588 -0.9388  1.0612
 8539SOL    HW226517   5.226   2.542   6.328  0.8442 -0.6663 -0.6761
 8540SOL     OW26518   6.813   4.946   3.048  0.0967  0.0748  0.4036
 8540SOL    HW126519   6.820   5.013   2.974  2.3346  0.0191  0.4791
 8540SOL    HW226520   6.800   4.854   3.010  0.4826  0.1387  0.1157
 8541SOL     OW26521   5.082   0.565   3.819 -0.0192  0.8340 -0.0550
 8541SOL    HW126522   4.989   0.603   3.811 -0.1704  0.3651 -0.5848
 8541SOL    HW226523   5.079   0.466   3.804  0.5704  0.8142 -0.0573
 8542SOL     OW26524   0.581   2.924   3.989 -0.2279 -0.9378 -0.0031
 8542SOL    HW126525   0.549   3.019   3.986  0.0908 -0.8547 -1.2609
 8542SOL    HW226526   0.535   2.872   3.917  3.0707 -0.5915 -2.6186
 8543SOL     OW26527   1.433   5.065   5.643 -0.8483 -0.0785  0.2765
 8543SOL    HW126528   1.409   5.156   5.679 -1.4140 -0.6520  1.4056
 8543SOL    HW226529   1.405   4.995   5.709 -0.2072 -1.0660 -0.4772
 8544SOL     OW26530   6.592   4.234   1.792 -0.2787 -0.2898  0.5994
 8544SOL    HW126531   6.568   4.140   1.768  2.3201 -0.9853  0.3876
 8544SOL    HW226532   6.662   4.233   1.864  1.7447  1.3358 -1.1982
 8545SOL     OW26533   2.670   5.093   3.897 -0.0544  0.6386 -0.0690
 8545SOL    HW126534   2.672   5.181   3.943 -0.0496  0.7106 -0.2076
 8545SOL    HW226535   2.582   5.048   3.915 -0.9700  1.6340 -1.8100
 8546SOL     OW26536   4.970   3.432   4.337  0.3029  0.3226  0.4038
 8546SOL    HW126537   5.065   3.421   4.367 -0.1221 -1.5276  1.2529
 8546SOL    HW226538   4.911   3.379   4.397 -1.1168  0.2255 -1.0307
 8547SOL     OW26539   4.419   1.145   2.710  0.4054 -0.5188  0.2308
 8547SOL    HW126540   4.400   1.164   2.614 -1.3626 -1.0366  0.4345
 8547SOL    HW226541   4.451   1.051   2.720 -0.8442 -0.9561  0.2767
 8548SOL     OW26542   0.071   1.475   0.702 -0.3038  0.2728  0.5565
 8548SOL    HW126543  -0.007   1.443   0.756 -0.4605 -0.0684  0.1272
 8548SOL    HW226544   0.154   1.470   0.758 -0.5368  0.3528  0.9141
 8549SOL     OW26545   6.210   3.950   2.340 -0.3914  0.3592 -0.2681
 8549SOL    HW126546   6.236   3.971   2.434 -1.8069  0.2238  0.1693
 8549SOL    HW226547   6.123   3.994   2.319 -0.4500 -0.2145 -1.2817
 8550SOL     OW26548   3.524   2.097   4.693  0.1018 -0.7646 -0.3838
 8550SOL    HW126549   3.446   2.137   4.741  0.4296  0.6647 -0.9686
 8550SOL    HW226550   3.499   2.080   4.598  0.4321 -0.4729 -0.5254
 8551SOL     OW26551   6.732   5.589   6.178 -0.1329 -0.1731  0.4772
 8551SOL    HW126552   6.764   5.501   6.144  2.5093  0.3400  1.4059
 8551SOL    HW226553   6.810   5.648   6.198 -1.7790  1.9342  1.1256
 8552SOL     OW26554   5.200   1.846   5.890 -0.1548  0.4899 -0.2132
 8552SOL    HW126555   5.237   1.899   5.814 -1.6008  2.2076  0.1986
 8552SOL    HW226556   5.100   1.854   5.890 -0.1681  1.0167  2.1918
 8553SOL     OW26557   6.367   2.792   4.244 -0.3250  0.3094  1.0326
 8553SOL    HW126558   6.427   2.712   4.257 -0.5063  0.1083  0.6615
 8553SOL    HW226559   6.361   2.813   4.146  2.6451  3.0344  1.2911
 8554SOL     OW26560   4.794   4.241   0.844 -0.4533 -0.6259 -0.1705
 8554SOL    HW126561   4.803   4.143   0.859  0.6309 -0.5392 -0.1573
 8554SOL    HW226562   4.698   4.265   0.834 -0.7394 -1.6578  0.0251
 8555SOL     OW26563   5.828   2.742   0.885  0.4308  0.1650  0.1909
 8555SOL    HW126564   5.789   2.704   0.802 -0.7651  0.2009  0.7180
 8555SOL    HW226565   5.804   2.839   0.892 -0.6991 -0.1754  1.2752
 8556SOL     OW26566   4.905   4.942   0.251 -0.1245 -0.2386 -0.0298
 8556SOL    HW126567   4.835   4.950   0.321  0.2183 -0.4971  0.3522
 8556SOL    HW226568   4.949   4.852   0.258 -0.1956 -0.3287 -0.6804
 8557SOL     OW26569   1.153   4.094   0.761 -0.3328  0.3286  0.3554
 8557SOL    HW126570   1.163   4.189   0.732 -0.0070  0.3272  0.4555
 8557SOL    HW226571   1.212   4.077   0.840  1.7594 -0.6859 -1.3550
 8558SOL     OW26572   4.901   5.569   5.307 -0.2761  0.0324  1.0861
 8558SOL    HW126573   4.923   5.666   5.301  2.5811 -0.5787  0.2527
 8558SOL    HW226574   4.821   5.549   5.250 -0.2744  1.7187  0.4588
 8559SOL     OW26575   3.859   2.199   3.578  0.2079  0.1135  0.2470
 8559SOL    HW126576   3.883   2.182   3.673 -1.1381 -0.0012  0.5831
 8559SOL    HW226577   3.765   2.233   3.572  0.9165  2.0729 -0.8856
 8560SOL     OW26578   1.693   1.215   3.531  0.2912  0.4286 -0.1688
 8560SOL    HW126579   1.718   1.154   3.456  0.3147  0.7074 -0.3902
 8560SOL    HW226580   1.594   1.232   3.528  0.4000  1.0349 -0.5943
 8561SOL     OW26581   1.849   2.574   5.717 -0.7536  0.1452  0.4443
 8561SOL    HW126582   1.947   2.557   5.728 -0.1296  0.4211 -3.3568
 8561SOL    HW226583   1.800   2.487   5.722 -0.1885 -0.1459  1.1650
 8562SOL     OW26584   5.074   3.894   5.327 -0.2403 -0.2550 -0.1766
 8562SOL    HW126585   5.159   3.871   5.279 -0.7343 -2.4643 -0.1050
 8562SOL    HW226586   4.997   3.881   5.264 -0.8647 -2.8022  0.9781
 8563SOL     OW26587   4.578   2.669   4.466  0.3713  0.1454  0.3090
 8563SOL    HW126588   4.614   2.578   4.488  1.7979  0.4388 -0.7157
 8563SOL    HW226589   4.541   2.668   4.372 -0.6142  0.3537  0.6783
 8564SOL     OW26590   5.991   5.310   0.999 -0.3043 -0.0403  0.4737
 8564SOL    HW126591   5.969   5.214   1.018  0.9000 -0.5813 -0.6621
 8564SOL    HW226592   5.907   5.362   0.985 -0.9631 -1.5769 -1.7937
 8565SOL     OW26593   5.720   3.534   0.987 -0.0696  0.6928 -0.2886
 8565SOL    HW126594   5.741   3.468   0.915  1.8204  0.7919  0.1309
 8565SOL    HW226595   5.650   3.496   1.048  1.5581 -1.3014  0.4238
 8566SOL     OW26596   5.041   1.628   1.397 -0.5023  0.6922 -0.7625
 8566SOL    HW126597   5.096   1.594   1.321  1.9811 -1.3582  1.7553
 8566SOL    HW226598   4.960   1.570   1.408 -0.1652  0.1568 -1.0417
 8567SOL     OW26599   2.318   2.359   3.190  0.2441 -0.7328 -0.4842
 8567SOL    HW126600   2.390   2.348   3.259  0.7138  0.7305 -0.7152
 8567SOL    HW226601   2.239   2.404   3.232  0.6776  0.5158 -0.9547
 8568SOL     OW26602   5.122   3.088   0.763  0.1265 -0.6792 -0.0435
 8568SOL    HW126603   5.095   3.013   0.703  1.9206 -0.0892 -1.6874
 8568SOL    HW226604   5.218   3.109   0.750  0.7353 -0.7172  3.3513
 8569SOL     OW26605   6.005   6.538   4.117 -0.1263  0.0152  0.5670
 8569SOL    HW126606   6.092   6.519   4.163  0.5761  0.9958 -0.3092
 8569SOL    HW226607   5.933   6.483   4.159  1.3185 -2.7162 -0.2857
 8570SOL     OW26608   1.052   5.673   4.982 -0.0398 -0.3755 -0.6127
 8570SOL    HW126609   1.081   5.718   4.898 -1.3577 -0.0590 -0.9345
 8570SOL    HW226610   1.084   5.726   5.061 -1.5000  1.1576 -0.9849
 8571SOL     OW26611   0.142   4.948   1.413 -0.0066 -0.5869 -0.1879
 8571SOL    HW126612   0.241   4.959   1.413 -0.0483 -0.1596  0.2175
 8571SOL    HW226613   0.109   4.944   1.319  0.5011 -1.8290 -0.3274
 8572SOL     OW26614   0.669   5.390   1.125 -0.4604  0.1684  0.4175
 8572SOL    HW126615   0.642   5.433   1.211  1.7010 -0.1805  1.3269
 8572SOL    HW226616   0.637   5.445   1.049 -0.5341  1.6638  1.4845
 8573SOL     OW26617   2.211   5.064   0.843  0.0791  0.7899  0.1459
 8573SOL    HW126618   2.220   4.998   0.768 -0.2123 -0.4238  1.1536
 8573SOL    HW226619   2.159   5.023   0.917  1.4357  1.4958  1.5415
 8574SOL     OW26620   2.797   3.414   5.221 -0.4154 -0.0035 -0.1782
 8574SOL    HW126621   2.721   3.350   5.218 -1.5570  1.1240  2.2689
 8574SOL    HW226622   2.841   3.410   5.310  1.1537  0.7741 -0.8872
 8575SOL     OW26623   4.082   3.749   3.688  0.8435  0.0326  0.4899
 8575SOL    HW126624   3.995   3.703   3.667  0.6026  1.3457 -1.7156
 8575SOL    HW226625   4.086   3.769   3.785 -1.2913 -0.1618  0.6746
 8576SOL     OW26626   3.714   6.573   4.652 -0.0055  0.3809  0.3358
 8576SOL    HW126627   3.647   6.606   4.719 -0.3744  0.0618  0.1238
 8576SOL    HW226628   3.678   6.584   4.560  1.0709  2.1731  0.0771
 8577SOL     OW26629   1.089   0.874   2.740  0.6968 -0.5698 -0.1488
 8577SOL    HW126630   1.102   0.973   2.743 -0.8602 -0.3588  1.3420
 8577SOL    HW226631   1.025   0.846   2.812  0.1459 -2.5171 -1.3007
 8578SOL     OW26632   4.405   5.249   0.560 -0.6652 -0.5580  0.5092
 8578SOL    HW126633   4.365   5.167   0.600 -0.1195 -0.4967  1.1942
 8578SOL    HW226634   4.388   5.327   0.620  0.1657 -0.4662  0.6408
 8579SOL     OW26635   3.941   0.140   5.842  0.1493 -0.1573  0.0016
 8579SOL    HW126636   3.997   0.116   5.921 -0.4656  3.1044  1.5761
 8579SOL    HW226637   3.844   0.131   5.865 -0.0489 -1.1845 -1.1307
 8580SOL     OW26638   2.920   4.791   4.308  0.9433 -0.1417 -0.1880
 8580SOL    HW126639   2.850   4.861   4.300 -0.6040 -1.6783 -0.6750
 8580SOL    HW226640   2.939   4.774   4.405  1.6113  1.1769 -0.0703
 8581SOL     OW26641   2.625   0.118   2.386  0.0266 -0.5099 -0.0658
 8581SOL    HW126642   2.652   0.194   2.445  0.6871  0.0454 -1.0441
 8581SOL    HW226643   2.621   0.034   2.439  0.1485  0.0502  0.8545
 8582SOL     OW26644   0.994   2.664   1.310 -0.2141 -0.2399 -0.5976
 8582SOL    HW126645   0.907   2.658   1.359  0.1931  2.1523  0.6159
 8582SOL    HW226646   0.984   2.729   1.235  1.0565  2.0593  1.0932
 8583SOL     OW26647   3.142   0.389   1.019 -0.3918 -0.1117 -0.6454
 8583SOL    HW126648   3.170   0.483   1.040  1.4748 -0.5014 -1.2087
 8583SOL    HW226649   3.083   0.389   0.938  0.1657  0.5326 -1.0666
 8584SOL     OW26650   0.054   6.188   0.912 -0.1232  0.2810 -0.0722
 8584SOL    HW126651   0.038   6.203   1.010 -1.4739  0.3591 -0.2940
 8584SOL    HW226652   0.147   6.218   0.889 -0.7273  2.9418  0.6551
 8585SOL     OW26653   2.697   0.749   3.239 -0.1916  0.5632  0.0899
 8585SOL    HW126654   2.710   0.834   3.291 -3.0003  1.8930 -1.1540
 8585SOL    HW226655   2.713   0.766   3.142 -3.1788  0.4509 -0.5240
 8586SOL     OW26656   5.697   1.678   0.795  0.1256  0.0485  0.1544
 8586SOL    HW126657   5.762   1.608   0.766 -0.9593 -1.6871  1.6800
 8586SOL    HW226658   5.627   1.690   0.724 -0.0057 -0.8573  0.1213
 8587SOL     OW26659   6.858   5.790   0.326  0.5707 -0.4404  0.0697
 8587SOL    HW126660   6.846   5.726   0.402  0.7832 -0.9947 -0.3562
 8587SOL    HW226661   6.892   5.740   0.246  0.8319  0.2265 -0.2366
 8588SOL     OW26662   1.996   3.615   4.575 -0.2416 -0.2339 -0.1598
 8588SOL    HW126663   1.898   3.603   4.593 -0.2823 -1.0944 -0.8495
 8588SOL    HW226664   2.008   3.673   4.495 -0.1296  1.3333  0.9605
 8589SOL     OW26665   0.649   4.143   0.874  0.4336 -0.2903  0.1161
 8589SOL    HW126666   0.737   4.173   0.838 -0.0806  1.7211  0.4530
 8589SOL    HW226667   0.576   4.197   0.834 -0.3912  0.0225  1.9354
 8590SOL     OW26668   6.491   5.026   1.131 -0.4027 -0.0604  0.3861
 8590SOL    HW126669   6.554   5.052   1.204  0.3635  0.5020 -0.4491
 8590SOL    HW226670   6.410   5.085   1.134  0.2144  0.8314  0.0079
 8591SOL     OW26671   5.169   1.343   3.011 -0.0538 -0.2634  0.3817
 8591SOL    HW126672   5.258   1.329   3.056  0.8207  1.1466 -0.8057
 8591SOL    HW226673   5.108   1.391   3.074 -0.0268 -1.3043  1.2367
 8592SOL     OW26674   1.169   3.802   0.239  0.1239  0.3063  0.1322
 8592SOL    HW126675   1.099   3.851   0.187  0.4731  0.5079 -0.1528
 8592SOL    HW226676   1.140   3.707   0.252 -1.0007  0.8122  1.5192
 8593SOL     OW26677   6.536   5.262   3.253 -0.0605  0.2759  0.6532
 8593SOL    HW126678   6.464   5.324   3.223  1.0467  1.3123  0.0537
 8593SOL    HW226679   6.501   5.168   3.253 -0.7693  0.4750 -1.7351
 8594SOL     OW26680   4.875   4.559   2.792 -0.2118  0.2719  0.2615
 8594SOL    HW126681   4.908   4.652   2.779  2.5191 -0.4712  1.1761
 8594SOL    HW226682   4.878   4.510   2.705 -0.7854  0.7763 -0.0469
 8595SOL     OW26683   4.693   4.642   0.851 -0.0753  0.2019 -0.3944
 8595SOL    HW126684   4.697   4.567   0.917  1.0998  0.2484 -0.3980
 8595SOL    HW226685   4.633   4.616   0.775 -0.6393 -0.2480  0.1949
 8596SOL     OW26686   2.242   6.539   6.486  0.0805  0.1309 -0.5490
 8596SOL    HW126687   2.182   6.512   6.562  0.4663 -1.5713 -0.8072
 8596SOL    HW226688   2.337   6.529   6.514  0.2862  2.5341 -0.2417
 8597SOL     OW26689   6.701   3.786   2.288  0.6994 -0.5016  0.0461
 8597SOL    HW126690   6.757   3.869   2.294  1.9604 -1.2094 -1.3945
 8597SOL    HW226691   6.719   3.728   2.367  0.9294 -0.0761  0.3108
 8598SOL     OW26692   5.045   0.715   2.651 -0.0778 -0.0748 -0.3465
 8598SOL    HW126693   5.107   0.652   2.698 -0.9794 -0.6325  0.1144
 8598SOL    HW226694   5.037   0.799   2.705  0.0876 -0.1014 -0.2787
 8599SOL     OW26695   4.420   4.559   2.068 -0.2085 -0.3176  0.2030
 8599SOL    HW126696   4.462   4.470   2.054 -2.7483 -1.6361  0.3941
 8599SOL    HW226697   4.431   4.586   2.164  0.1853 -0.6220  0.2480
 8600SOL     OW26698   6.639   5.306   5.793 -0.2593  0.3061  0.3603
 8600SOL    HW126699   6.645   5.288   5.695 -0.3926  2.1093 -0.0228
 8600SOL    HW226700   6.683   5.232   5.844 -0.9038 -1.0600 -1.0082
 8601SOL     OW26701   1.604   5.563   0.659  0.4743 -0.3407  0.4180
 8601SOL    HW126702   1.703   5.548   0.660  0.8757  1.5879 -1.7416
 8601SOL    HW226703   1.558   5.479   0.633  1.8576 -0.4923 -1.8404
 8602SOL     OW26704   0.610   3.561   2.925 -0.2923 -0.3410  0.3271
 8602SOL    HW126705   0.666   3.503   2.866 -0.8538 -0.1966 -0.3595
 8602SOL    HW226706   0.514   3.538   2.914 -0.4059 -0.3018  1.1859
 8603SOL     OW26707   2.045   1.130   1.356  0.0352 -0.2081  0.2308
 8603SOL    HW126708   2.048   1.224   1.391 -1.4610  0.4572 -1.2914
 8603SOL    HW226709   2.109   1.121   1.280 -0.0978 -0.3119  0.1306
 8604SOL     OW26710   4.126   2.105   3.536  0.1353 -0.8302 -0.0775
 8604SOL    HW126711   4.142   2.029   3.598  0.8582 -0.3403  0.3466
 8604SOL    HW226712   4.029   2.129   3.537  0.2746 -0.1854  1.6408
 8605SOL     OW26713   5.367   2.520   1.910 -0.2377  0.4488 -0.3497
 8605SOL    HW126714   5.343   2.613   1.938 -0.3902  0.2354  0.2409
 8605SOL    HW226715   5.306   2.491   1.836 -0.0030  0.9218 -0.7293
 8606SOL     OW26716   1.847   4.223   5.945  0.3761 -0.3650  0.3378
 8606SOL    HW126717   1.851   4.194   5.850 -0.7046 -0.2003  0.2294
 8606SOL    HW226718   1.939   4.229   5.983  0.7269 -2.0525 -0.2007
 8607SOL     OW26719   4.270   2.326   5.267  0.1859  0.0029 -0.7251
 8607SOL    HW126720   4.358   2.342   5.312  0.2424  0.6651 -1.0623
 8607SOL    HW226721   4.264   2.383   5.185 -0.4582 -0.2213 -0.8335
 8608SOL     OW26722   1.113   3.160   5.798  0.7918  0.0183 -0.0474
 8608SOL    HW126723   1.123   3.070   5.755  0.0741 -0.6194  1.0686
 8608SOL    HW226724   1.196   3.214   5.781  1.2941 -0.9011 -0.6162
 8609SOL     OW26725   0.140   6.093   2.585  0.3467  0.1938  0.1894
 8609SOL    HW126726   0.222   6.036   2.585  1.2667  1.4741 -0.7983
 8609SOL    HW226727   0.115   6.115   2.680  0.7829 -0.6721  0.5196
 8610SOL     OW26728   4.183   2.516   0.630 -0.3587  1.0229 -0.5516
 8610SOL    HW126729   4.193   2.481   0.723 -0.6240 -0.5101 -1.0722
 8610SOL    HW226730   4.089   2.545   0.615 -0.8252 -0.5576 -0.9070
 8611SOL     OW26731   3.014   0.945   3.495 -0.8901 -0.3706  0.1594
 8611SOL    HW126732   2.932   0.995   3.468 -0.6561  0.2541  0.5522
 8611SOL    HW226733   3.052   0.987   3.578  0.4734  0.0897 -0.6686
 8612SOL     OW26734   6.150   0.338   0.694  0.5756 -0.4485  0.8554
 8612SOL    HW126735   6.192   0.269   0.634 -1.2507 -1.3060  0.4949
 8612SOL    HW226736   6.106   0.408   0.638 -1.8707 -1.6999  1.0867
 8613SOL     OW26737   5.062   3.665   2.638 -0.1679 -0.2369 -0.2163
 8613SOL    HW126738   5.147   3.674   2.585  1.2940 -0.1340  2.0162
 8613SOL    HW226739   5.023   3.574   2.622  0.1007 -0.1405 -1.5864
 8614SOL     OW26740   0.459   6.491   0.189 -0.2440  0.8556  0.1269
 8614SOL    HW126741   0.454   6.391   0.189 -0.4954  0.8463 -1.3106
 8614SOL    HW226742   0.446   6.525   0.282  0.8541 -0.4882  0.8023
 8615SOL     OW26743   2.791   3.771   5.339 -0.0546  0.0628  0.1538
 8615SOL    HW126744   2.867   3.722   5.383  0.4839  0.4185 -0.3677
 8615SOL    HW226745   2.711   3.711   5.336  0.0891 -0.1857  1.0469
 8616SOL     OW26746   5.050   4.023   3.362 -0.1426 -0.2794  0.2231
 8616SOL    HW126747   5.017   3.952   3.425  0.6277 -0.9481 -0.1047
 8616SOL    HW226748   4.972   4.073   3.325 -0.7137 -1.0104  0.4030
 8617SOL     OW26749   6.870   5.385   3.736 -0.2388 -0.2373  0.2655
 8617SOL    HW126750   6.917   5.410   3.652  0.1836 -0.7515  0.3413
 8617SOL    HW226751   6.846   5.288   3.734  1.4624 -0.7399  1.5000
 8618SOL     OW26752   4.531   0.297   0.734 -0.3885  0.1013 -0.3489
 8618SOL    HW126753   4.617   0.247   0.721 -0.7785 -0.0686 -2.8031
 8618SOL    HW226754   4.481   0.257   0.811  2.3434  1.2280  2.2224
 8619SOL     OW26755   0.243   0.653   5.416 -0.1195  0.6798 -0.5010
 8619SOL    HW126756   0.215   0.716   5.488  0.4829 -0.2082  0.5375
 8619SOL    HW226757   0.245   0.701   5.328 -0.4875  1.8777  0.1303
 8620SOL     OW26758   5.818   0.565   0.710  0.7161  0.0389 -0.4817
 8620SOL    HW126759   5.832   0.484   0.766  1.0468  1.4576  1.6287
 8620SOL    HW226760   5.860   0.552   0.620  0.8650 -2.0369 -0.1632
 8621SOL     OW26761   4.711   1.598   6.725 -0.7183  0.0284  0.4528
 8621SOL    HW126762   4.638   1.553   6.776 -0.3099 -0.4523  0.6276
 8621SOL    HW226763   4.767   1.652   6.788 -0.2593 -0.5024  0.5046
 8622SOL     OW26764   4.718   5.939   1.388 -0.2719 -0.2899 -0.1295
 8622SOL    HW126765   4.742   5.868   1.322 -0.8267 -0.4958 -0.1145
 8622SOL    HW226766   4.668   5.898   1.465  1.8672 -0.3644  1.3216
 8623SOL     OW26767   2.443   1.650   3.375 -0.4399 -0.2940 -0.6620
 8623SOL    HW126768   2.446   1.566   3.430 -0.0164 -0.4368 -0.8951
 8623SOL    HW226769   2.355   1.695   3.387 -1.3339 -1.6259 -1.7852
 8624SOL     OW26770   0.656   1.990   2.408 -0.2665  0.0444 -0.1073
 8624SOL    HW126771   0.566   1.993   2.450 -0.4264 -1.0135 -0.3557
 8624SOL    HW226772   0.655   2.042   2.322 -0.9385 -0.8609 -0.6584
 8625SOL     OW26773   5.425   5.127   3.458 -0.1642 -0.5403  0.3238
 8625SOL    HW126774   5.448   5.176   3.542  2.6525  1.1090 -1.2446
 8625SOL    HW226775   5.335   5.156   3.425  0.2920  1.6105  0.8640
 8626SOL     OW26776   3.399   1.375   3.621  0.3232  0.3336 -0.0475
 8626SOL    HW126777   3.456   1.315   3.677  1.9560  0.6507 -1.2797
 8626SOL    HW226778   3.437   1.378   3.528 -0.6592  2.0216 -0.4145
 8627SOL     OW26779   5.561   6.853   1.112 -0.1648  0.0302  0.4104
 8627SOL    HW126780   5.527   6.929   1.056 -0.3527  1.5447  2.4275
 8627SOL    HW226781   5.629   6.889   1.177 -0.4813 -1.4852  1.6225
 8628SOL     OW26782   1.288   4.686   4.359 -0.4196  0.2255  0.3013
 8628SOL    HW126783   1.288   4.586   4.360 -0.0243  0.2178  0.0048
 8628SOL    HW226784   1.227   4.721   4.430  0.3200 -0.2144  1.1589
 8629SOL     OW26785   4.416   1.808   1.030 -0.0487 -0.2899  0.4726
 8629SOL    HW126786   4.516   1.811   1.032 -0.0181 -1.4088  1.8361
 8629SOL    HW226787   4.380   1.900   1.012  1.2203 -0.4310 -4.1856
 8630SOL     OW26788   0.377   4.546   0.804  0.3762 -0.2087  0.1906
 8630SOL    HW126789   0.305   4.583   0.745  2.3761 -0.5257 -2.6844
 8630SOL    HW226790   0.441   4.619   0.829  0.3724 -0.3665  0.6721
 8631SOL     OW26791   4.137   1.813   4.374 -0.1185  0.1501  0.1281
 8631SOL    HW126792   4.215   1.757   4.347 -1.7909 -2.7203  0.7199
 8631SOL    HW226793   4.127   1.811   4.473 -0.2718  1.4821  0.1523
 8632SOL     OW26794   4.020   1.464   6.542  0.2139 -0.2391 -0.2247
 8632SOL    HW126795   3.961   1.507   6.610  0.0023  0.0474 -0.5892
 8632SOL    HW226796   4.112   1.504   6.546  0.3476 -0.5889  0.2479
 8633SOL     OW26797   0.705   0.232   2.172 -0.1079 -0.1102  0.1019
 8633SOL    HW126798   0.740   0.292   2.244  1.0145  0.9652 -1.2752
 8633SOL    HW226799   0.657   0.286   2.104 -0.5742 -1.0248 -0.3087
 8634SOL     OW26800   1.324   6.128   0.936 -0.2281  0.5450 -0.1060
 8634SOL    HW126801   1.420   6.116   0.911  0.1076  0.4866  1.1420
 8634SOL    HW226802   1.294   6.219   0.910  0.6131  1.1090  0.8530
 8635SOL     OW26803   2.437   3.982   6.377  0.0254  0.4856 -0.4387
 8635SOL    HW126804   2.523   3.938   6.349 -0.6115 -0.0473 -1.6230
 8635SOL    HW226805   2.443   4.080   6.358  0.2498  0.3980 -0.8419
 8636SOL     OW26806   3.707   5.092   5.524  0.0282 -0.3260 -0.5522
 8636SOL    HW126807   3.745   5.037   5.598 -0.9399 -0.1575  0.1015
 8636SOL    HW226808   3.706   5.189   5.551 -2.4945 -0.4938  0.2660
 8637SOL     OW26809   6.325   6.674   4.912  0.1139  0.0763  0.0608
 8637SOL    HW126810   6.301   6.735   4.987  0.1253 -0.1618  0.2601
 8637SOL    HW226811   6.243   6.653   4.858  0.3550  1.4104 -0.8777
 8638SOL     OW26812   5.091   2.486   3.084  0.1750  0.1962  0.6043
 8638SOL    HW126813   5.007   2.453   3.128  0.3346 -0.7570  0.2188
 8638SOL    HW226814   5.163   2.418   3.094  0.9916  1.1128  1.1453
 8639SOL     OW26815   2.727   4.835   1.280 -0.2690 -0.5121 -0.2431
 8639SOL    HW126816   2.794   4.827   1.354 -0.7663 -2.5366  0.0732
 8639SOL    HW226817   2.772   4.870   1.198  0.1423  2.4455  1.1460
 8640SOL     OW26818   5.840   4.275   5.839  0.7430  0.1767 -0.0939
 8640SOL    HW126819   5.924   4.224   5.859  1.3648  1.2285  0.0736
 8640SOL    HW226820   5.808   4.251   5.747  1.1239 -0.3659 -0.0924
 8641SOL     OW26821   1.921   0.615   0.313 -0.2924 -0.5501  0.1601
 8641SOL    HW126822   1.844   0.556   0.289  0.2259 -1.3034  0.3187
 8641SOL    HW226823   1.981   0.626   0.233 -0.8224  0.4471 -0.1102
 8642SOL     OW26824   0.773   4.121   2.326 -0.1846 -0.1310 -0.3679
 8642SOL    HW126825   0.816   4.064   2.256  0.5571 -0.0519  0.0070
 8642SOL    HW226826   0.701   4.176   2.285  1.2482  1.0547 -1.4035
 8643SOL     OW26827   1.588   4.769   1.511  0.0604 -0.9230 -0.0520
 8643SOL    HW126828   1.653   4.731   1.576  1.2923  0.5622 -0.3736
 8643SOL    HW226829   1.526   4.832   1.558  0.9276  0.1225 -0.2655
 8644SOL     OW26830   6.036   4.805   4.929  0.8627 -0.0952  0.3339
 8644SOL    HW126831   6.081   4.724   4.968  1.2845  0.1065  0.2777
 8644SOL    HW226832   5.969   4.841   4.993 -0.1774 -1.1765 -0.1112
 8645SOL     OW26833   3.260   0.966   0.808  0.3022 -0.1106 -0.0930
 8645SOL    HW126834   3.281   0.897   0.877  0.9496 -0.8906 -1.0556
 8645SOL    HW226835   3.261   1.057   0.852 -0.0322 -0.6438  1.0666
 8646SOL     OW26836   2.871   4.824   5.875  0.3636  0.5289  0.4079
 8646SOL    HW126837   2.861   4.783   5.966  1.1935 -0.1635  0.1992
 8646SOL    HW226838   2.781   4.847   5.839 -0.1521 -1.2549  0.4740
 8647SOL     OW26839   0.064   0.805   1.487 -0.1107  0.1782  0.4877
 8647SOL    HW126840   0.028   0.898   1.494  0.3291  0.4185 -0.2837
 8647SOL    HW226841   0.030   0.763   1.403 -0.0516 -0.2434  0.6746
 8648SOL     OW26842   3.997   5.665   5.592 -0.0517  0.8236  0.0360
 8648SOL    HW126843   4.032   5.695   5.681 -0.1489  0.8659  0.0600
 8648SOL    HW226844   3.898   5.680   5.588 -0.0993  0.5195  0.0435
 8649SOL     OW26845   3.725   5.523   0.819 -0.7456 -0.0055  0.1959
 8649SOL    HW126846   3.694   5.534   0.725  0.5828  1.5208 -0.1028
 8649SOL    HW226847   3.809   5.575   0.833 -2.2346  1.9301  2.8825
 8650SOL     OW26848   3.931   5.975   3.101 -0.2203 -0.1341  0.0031
 8650SOL    HW126849   3.924   5.979   3.001 -0.5717  1.0349  0.0558
 8650SOL    HW226850   4.003   5.911   3.127 -0.2280 -0.5662 -0.9960
 8651SOL     OW26851   3.329   3.029   6.968 -0.2447 -0.0776  0.0391
 8651SOL    HW126852   3.294   3.047   6.876  0.0453  3.1933  0.4588
 8651SOL    HW226853   3.429   3.032   6.966 -0.2398  2.0975  0.7098
 8652SOL     OW26854   4.425   3.580   5.904  0.1792  0.1942 -0.4660
 8652SOL    HW126855   4.479   3.658   5.873 -0.5698  1.2119  0.6668
 8652SOL    HW226856   4.464   3.545   5.990  0.3618 -0.5404 -0.8356
 8653SOL     OW26857   5.257   2.672   3.212  0.3636 -0.1082 -0.3639
 8653SOL    HW126858   5.203   2.605   3.161  0.5827 -1.2698  0.8738
 8653SOL    HW226859   5.260   2.758   3.162 -1.9906 -0.2419 -0.8338
 8654SOL     OW26860   0.072   6.785   0.999 -0.3241  0.1311  0.0574
 8654SOL    HW126861   0.032   6.698   0.969 -1.1649  1.3897 -2.8676
 8654SOL    HW226862   0.172   6.780   0.992 -0.3689 -0.5815 -0.1691
 8655SOL     OW26863   2.037   6.747   3.887 -0.1521 -0.8485  0.0433
 8655SOL    HW126864   2.106   6.681   3.855  0.0733  0.4300 -2.3494
 8655SOL    HW226865   1.977   6.772   3.811  0.3163  2.3466  0.5766
 8656SOL     OW26866   6.717   5.110   0.734 -0.0765  0.1225 -0.0672
 8656SOL    HW126867   6.713   5.033   0.671  0.3628 -1.4867  1.7530
 8656SOL    HW226868   6.629   5.119   0.781 -0.2907  1.0861 -0.6230
 8657SOL     OW26869   6.406   0.921   0.914 -0.6913 -0.1006 -0.0689
 8657SOL    HW126870   6.460   1.000   0.945  0.0630 -0.3970 -0.6264
 8657SOL    HW226871   6.448   0.837   0.947  0.1180 -0.4279 -1.8437
 8658SOL     OW26872   4.692   4.450   1.870  0.5153  0.2046 -0.0827
 8658SOL    HW126873   4.641   4.380   1.919  2.5805 -0.4797  1.1798
 8658SOL    HW226874   4.671   4.444   1.772  0.1509 -1.7489  0.0802
 8659SOL     OW26875   3.579   6.352   4.184  0.0092 -0.1655 -0.2666
 8659SOL    HW126876   3.520   6.432   4.193 -0.6541 -0.4698 -1.5941
 8659SOL    HW226877   3.523   6.270   4.169  0.6296 -1.0612  1.8980
 8660SOL     OW26878   5.263   4.409   1.658  0.1900 -0.1234  0.0089
 8660SOL    HW126879   5.271   4.476   1.732  1.0585 -1.0443  0.7745
 8660SOL    HW226880   5.167   4.397   1.634  0.0087  1.3167 -0.0798
 8661SOL     OW26881   2.824   4.864   3.841  0.7370  0.1571  0.0570
 8661SOL    HW126882   2.785   4.954   3.857 -0.5416  0.0411 -1.9878
 8661SOL    HW226883   2.893   4.844   3.910  0.4412  2.3282  1.0469
 8662SOL     OW26884   1.361   6.543   1.998 -0.2851 -0.1001 -0.1671
 8662SOL    HW126885   1.287   6.482   1.970 -0.7504  0.4542 -0.1508
 8662SOL    HW226886   1.334   6.592   2.080  0.1438  0.0294 -0.1034
 8663SOL     OW26887   3.825   3.022   4.390 -0.2643  0.2366  0.1505
 8663SOL    HW126888   3.890   3.096   4.371  2.0858 -0.9588  2.7450
 8663SOL    HW226889   3.872   2.934   4.383 -2.2770 -0.8637 -0.1615
 8664SOL     OW26890   2.909   4.306   1.726  0.8588  0.2215 -0.1342
 8664SOL    HW126891   2.916   4.400   1.760  0.9874 -0.1852  1.0065
 8664SOL    HW226892   2.940   4.242   1.797 -0.7910 -0.7958 -0.2749
 8665SOL     OW26893   2.100   3.783   2.542  0.3029 -0.5456 -0.5408
 8665SOL    HW126894   2.108   3.773   2.442 -1.0226 -1.9683 -0.5554
 8665SOL    HW226895   2.132   3.699   2.586 -1.6650 -1.0604  0.0292
 8666SOL     OW26896   4.820   3.965   6.902 -0.0734  0.3756  0.2844
 8666SOL    HW126897   4.880   3.900   6.950  3.0239  0.6993 -2.7775
 8666SOL    HW226898   4.792   3.925   6.814 -0.9967  1.8600 -0.1168
 8667SOL     OW26899   6.606   1.713   0.120  0.1664 -0.7162 -0.9328
 8667SOL    HW126900   6.547   1.729   0.042 -0.1631  1.0791 -0.3611
 8667SOL    HW226901   6.701   1.726   0.093 -0.0546  2.5782 -0.5470
 8668SOL     OW26902   2.171   3.133   4.913 -0.5911  0.2802 -0.2415
 8668SOL    HW126903   2.227   3.064   4.959 -2.0397 -0.8350 -0.0829
 8668SOL    HW226904   2.157   3.107   4.818 -0.7663  0.5974 -0.3026
 8669SOL     OW26905   1.281   6.418   4.909 -0.3439 -0.0371  0.0906
 8669SOL    HW126906   1.307   6.514   4.921 -0.8272  0.1733 -0.5138
 8669SOL    HW226907   1.263   6.377   4.998  0.0694  0.3775  0.3669
 8670SOL     OW26908   5.195   2.340   5.021 -0.9132 -0.7633 -0.2503
 8670SOL    HW126909   5.166   2.436   5.029  0.8515 -0.2236  0.0434
 8670SOL    HW226910   5.122   2.287   4.979 -1.9716  0.6887 -0.3200
 8671SOL     OW26911   0.164   0.937   5.740  0.0896 -0.3910 -0.1159
 8671SOL    HW126912   0.115   0.865   5.691 -0.3164  0.7379 -1.4518
 8671SOL    HW226913   0.150   0.926   5.838 -0.8181 -1.5173 -0.3432
 8672SOL     OW26914   2.564   6.235   6.975  0.3300 -0.3683 -0.5388
 8672SOL    HW126915   2.658   6.265   6.958 -0.9470  4.1455 -0.7807
 8672SOL    HW226916   2.552   6.217   7.072  1.0088  0.8868 -0.2052
 8673SOL     OW26917   0.945   2.781   2.303 -0.1661  0.3160 -0.1217
 8673SOL    HW126918   1.022   2.757   2.362 -0.3824  1.8136  0.8297
 8673SOL    HW226919   0.863   2.731   2.334  0.2375 -0.7147 -0.6761
 8674SOL     OW26920   1.748   6.184   3.409  0.1156 -0.0017 -0.1035
 8674SOL    HW126921   1.702   6.105   3.369  1.6546 -0.8307 -0.2953
 8674SOL    HW226922   1.764   6.253   3.338  2.5492 -1.3332 -0.9442
 8675SOL     OW26923   1.596   0.349   2.971 -0.1173 -0.5221 -0.5585
 8675SOL    HW126924   1.586   0.277   3.039 -1.3806  0.5384  0.4277
 8675SOL    HW226925   1.506   0.377   2.937  0.3671  0.3015 -1.2203
 8676SOL     OW26926   3.709   2.805   1.726 -0.3244  0.2030 -0.8059
 8676SOL    HW126927   3.677   2.838   1.637 -1.0588  1.5530 -0.0605
 8676SOL    HW226928   3.631   2.785   1.784  0.1483 -0.9898 -0.5550
 8677SOL     OW26929   3.577   0.934   3.333 -0.3451 -0.2858  0.2777
 8677SOL    HW126930   3.623   1.011   3.379  0.5089 -0.4377 -0.3043
 8677SOL    HW226931   3.486   0.922   3.373 -0.2824  0.6750  0.7574
 8678SOL     OW26932   1.635   5.131   6.314 -0.4996  0.1197  1.1467
 8678SOL    HW126933   1.718   5.126   6.369  0.2349 -0.3546  0.0283
 8678SOL    HW226934   1.613   5.040   6.278 -0.2964  0.6014 -0.2712
 8679SOL     OW26935   3.937   1.678   3.616 -0.0055  0.3152  0.5222
 8679SOL    HW126936   3.883   1.594   3.611 -0.1107  0.3827  0.5011
 8679SOL    HW226937   3.991   1.688   3.532  0.2175  0.1298  0.6439
 8680SOL     OW26938   1.715   3.178   3.475  0.3064 -0.0081  0.3946
 8680SOL    HW126939   1.619   3.159   3.494  0.3812 -1.1193 -0.2241
 8680SOL    HW226940   1.743   3.263   3.520 -0.9131  0.2313  0.7165
 8681SOL     OW26941   4.054   0.686   5.359 -0.1827  0.3131 -0.7787
 8681SOL    HW126942   4.021   0.721   5.447  0.6635 -1.1913  0.1901
 8681SOL    HW226943   4.111   0.754   5.315 -0.6740  1.1157 -0.1919
 8682SOL     OW26944   5.444   5.705   4.561  0.1857  0.6203  0.4789
 8682SOL    HW126945   5.530   5.663   4.592  1.4279  0.6279 -2.6306
 8682SOL    HW226946   5.372   5.636   4.560  0.5745  0.1768  1.4443
 8683SOL     OW26947   0.891   2.228   5.572  0.0220 -0.0093  0.2732
 8683SOL    HW126948   0.908   2.322   5.544  0.6545 -0.2555 -0.2063
 8683SOL    HW226949   0.903   2.219   5.670  0.4817  0.3047  0.2507
 8684SOL     OW26950   1.707   5.602   6.680 -0.1525  0.0400 -0.4645
 8684SOL    HW126951   1.676   5.689   6.641 -1.3081 -0.3140 -0.3865
 8684SOL    HW226952   1.758   5.619   6.764 -4.3196  0.5989  2.2793
 8685SOL     OW26953   5.485   4.113   4.213 -0.0861 -0.0562 -0.0199
 8685SOL    HW126954   5.476   4.164   4.127 -1.9680 -0.6316 -0.1989
 8685SOL    HW226955   5.432   4.029   4.209 -0.1081 -0.1709  1.6652
 8686SOL     OW26956   1.789   6.334   3.651 -0.3448  0.2781 -0.4298
 8686SOL    HW126957   1.883   6.324   3.682 -0.0067  0.7254 -1.2607
 8686SOL    HW226958   1.780   6.297   3.559 -0.8858  0.5773 -0.5033
 8687SOL     OW26959   2.215   4.877   6.118 -0.2339  0.1260  0.2397
 8687SOL    HW126960   2.290   4.840   6.064 -0.3121  0.0294  0.1968
 8687SOL    HW226961   2.250   4.944   6.183 -0.1015  0.0293  0.2673
 8688SOL     OW26962   1.463   6.697   2.268  0.4424  0.3887  0.1038
 8688SOL    HW126963   1.543   6.719   2.324  0.8702  2.5414 -1.2274
 8688SOL    HW226964   1.440   6.776   2.211 -1.1769 -1.0228 -1.2996
 8689SOL     OW26965   1.008   2.803   1.070 -0.1104 -0.1603  0.1611
 8689SOL    HW126966   0.910   2.818   1.060 -0.8580 -2.8340  2.3967
 8689SOL    HW226967   1.038   2.733   1.005  0.1378  0.0071  0.0939
 8690SOL     OW26968   6.657   2.478   3.112 -0.0100  0.3982 -0.0994
 8690SOL    HW126969   6.692   2.462   3.204 -1.4830  1.3100  0.6595
 8690SOL    HW226970   6.721   2.534   3.061  1.1404 -0.6759  0.1129
 8691SOL     OW26971   4.135   4.821   4.197  0.0212 -0.4671 -0.4956
 8691SOL    HW126972   4.190   4.904   4.203 -1.1473  0.2354  1.2591
 8691SOL    HW226973   4.186   4.743   4.234  0.2601 -0.0549  0.0498
 8692SOL     OW26974   4.680   2.602   2.551  0.3219  0.2609  0.8970
 8692SOL    HW126975   4.742   2.523   2.559 -0.6380 -0.3191  3.9825
 8692SOL    HW226976   4.597   2.574   2.504  1.0954  0.2427 -0.5287
 8693SOL     OW26977   2.216   1.783   6.598  0.2197  0.0786 -0.3036
 8693SOL    HW126978   2.280   1.748   6.666 -1.3451 -0.7743  0.8054
 8693SOL    HW226979   2.173   1.866   6.632  0.4452  0.4379 -0.8794
 8694SOL     OW26980   6.001   0.326   6.877  0.0944 -0.1230  0.6839
 8694SOL    HW126981   5.905   0.349   6.867  0.0134 -0.6884  0.1486
 8694SOL    HW226982   6.051   0.352   6.795  0.7390  1.8032  1.6269
 8695SOL     OW26983   2.969   3.719   3.444 -0.0029 -0.2672  0.0699
 8695SOL    HW126984   3.023   3.796   3.410  1.1601 -0.5538  1.2184
 8695SOL    HW226985   2.912   3.684   3.369 -0.4560  1.5801 -0.5273
 8696SOL     OW26986   1.387   2.998   0.560  0.1899  0.1365 -0.2014
 8696SOL    HW126987   1.350   3.016   0.469  1.6440  0.8099 -0.6847
 8696SOL    HW226988   1.356   3.068   0.624 -0.1309  0.1499 -0.3714
 8697SOL     OW26989   0.174   5.339   2.057  0.1361 -0.7938  0.6717
 8697SOL    HW126990   0.181   5.404   2.133 -0.1000  0.2648 -0.1840
 8697SOL    HW226991   0.097   5.365   1.999 -0.1691 -2.0527  0.4926
 8698SOL     OW26992   5.083   6.044   4.663  0.2565 -0.6246 -0.3400
 8698SOL    HW126993   5.134   6.102   4.726 -1.7452  0.7723  0.0896
 8698SOL    HW226994   5.036   6.101   4.596 -1.2941 -1.7737 -0.2785
 8699SOL     OW26995   5.142   4.490   2.338  0.0346 -0.2827  0.1901
 8699SOL    HW126996   5.210   4.424   2.307 -0.1669 -0.8298  0.8859
 8699SOL    HW226997   5.051   4.451   2.329 -0.2589  0.7018 -1.3754
 8700SOL     OW26998   0.477   0.581   0.378 -0.0216 -0.4241  0.2878
 8700SOL    HW126999   0.499   0.512   0.446 -0.2890  0.4778  1.3132
 8700SOL    HW227000   0.468   0.538   0.288  0.0450 -1.6738  0.8665
 8701SOL     OW27001   6.339   4.046   6.474 -0.2881  0.1675  0.3186
 8701SOL    HW127002   6.351   4.071   6.570 -0.2993  0.7035  0.1794
 8701SOL    HW227003   6.252   4.079   6.440 -0.4194 -0.2824  0.2024
 8702SOL     OW27004   5.791   0.731   2.577 -0.0509  0.2493  0.6085
 8702SOL    HW127005   5.755   0.639   2.564  0.2554  0.2361 -0.2067
 8702SOL    HW227006   5.723   0.787   2.623 -1.2242  0.2936 -1.0960
 8703SOL     OW27007   1.396   3.701   4.456 -0.0261 -0.6361 -0.6175
 8703SOL    HW127008   1.353   3.639   4.522 -0.6712  1.0065  0.5646
 8703SOL    HW227009   1.495   3.694   4.464 -0.0804  0.2578  1.2982
 8704SOL     OW27010   2.440   6.602   3.163 -0.0055 -0.1803  0.0218
 8704SOL    HW127011   2.368   6.613   3.094 -0.6755 -0.5124  0.6513
 8704SOL    HW227012   2.425   6.667   3.237  0.5975  0.0373 -0.0445
 8705SOL     OW27013   6.101   2.974   4.491  0.0167 -0.3852 -0.4188
 8705SOL    HW127014   6.194   2.945   4.512 -0.1267 -0.6652 -0.1412
 8705SOL    HW227015   6.053   2.996   4.576 -0.4905 -1.2645 -0.4551
 8706SOL     OW27016   3.928   2.278   0.727 -0.1005  0.3068  0.1155
 8706SOL    HW127017   3.850   2.320   0.680 -0.0062  0.9330  0.4990
 8706SOL    HW227018   3.900   2.249   0.819  0.1091  0.5105  0.2443
 8707SOL     OW27019   6.098   3.364   3.788  0.3164 -0.7078 -0.6836
 8707SOL    HW127020   6.167   3.416   3.739  1.7326  0.7295  2.5450
 8707SOL    HW227021   6.133   3.339   3.879 -3.5486  0.6275  1.3907
 8708SOL     OW27022   3.787   0.752   5.886 -0.1028  0.2332 -0.3741
 8708SOL    HW127023   3.757   0.734   5.979  1.7937 -0.0273  0.2413
 8708SOL    HW227024   3.859   0.687   5.861  0.6424  1.3850 -1.3682
 8709SOL     OW27025   3.531   0.012   6.223 -0.0186  0.1880 -0.1756
 8709SOL    HW127026   3.553  -0.036   6.308 -2.3384  0.0695  0.4432
 8709SOL    HW227027   3.510   0.107   6.243 -0.9901  0.0568 -0.5292
 8710SOL     OW27028   3.249   1.050   3.723  0.5158  0.3438  0.5984
 8710SOL    HW127029   3.300   0.979   3.771 -0.5367  0.0580  1.3241
 8710SOL    HW227030   3.199   1.107   3.789  0.7930  1.3338 -0.0190
 8711SOL     OW27031   5.314   0.214   6.615  0.2875 -0.5818  0.2612
 8711SOL    HW127032   5.413   0.204   6.626  0.4074 -0.0288 -0.2235
 8711SOL    HW227033   5.267   0.183   6.697  1.0197  1.9287  1.7162
 8712SOL     OW27034   1.740   6.442   2.564 -0.5114 -0.4574 -0.8376
 8712SOL    HW127035   1.652   6.489   2.571 -0.4594 -0.4322 -0.2782
 8712SOL    HW227036   1.724   6.344   2.546 -0.6519 -0.4367 -0.8241
 8713SOL     OW27037   3.216   3.510   6.302  0.2271 -0.0907 -0.2412
 8713SOL    HW127038   3.302   3.556   6.325  0.5177 -1.1918  0.9993
 8713SOL    HW227039   3.169   3.482   6.386 -0.0838 -1.7541 -0.9163
 8714SOL     OW27040   6.211   1.442   1.477  0.5635 -0.1602  0.3037
 8714SOL    HW127041   6.265   1.402   1.403  0.1838 -0.6114  0.2637
 8714SOL    HW227042   6.169   1.369   1.530 -0.4776  0.1900 -0.0227
 8715SOL     OW27043   6.889   3.518   1.121 -0.3184 -0.3425 -0.4550
 8715SOL    HW127044   6.816   3.565   1.072 -0.8054 -0.9641 -0.3382
 8715SOL    HW227045   6.855   3.485   1.208  0.0457 -0.8235 -0.4895
 8716SOL     OW27046   4.772   1.854   5.401 -0.2271 -0.0053 -0.1598
 8716SOL    HW127047   4.747   1.757   5.412 -1.1464  0.2485  0.0956
 8716SOL    HW227048   4.839   1.880   5.470 -1.9867  0.2154  1.5418
 8717SOL     OW27049   0.927   2.867   1.678  0.0010 -0.1425  0.9629
 8717SOL    HW127050   0.966   2.862   1.770  0.4172  0.2330  0.8087
 8717SOL    HW227051   0.986   2.816   1.615  0.5050  0.8217  0.6426
 8718SOL     OW27052   4.210   3.013   6.572  0.2263  0.1194 -0.9939
 8718SOL    HW127053   4.305   2.994   6.595  0.6433  2.4065 -0.6187
 8718SOL    HW227054   4.198   3.012   6.473  0.5765 -0.4165 -1.0315
 8719SOL     OW27055   5.689   5.205   0.166 -0.2564 -0.5914  0.2072
 8719SOL    HW127056   5.685   5.144   0.245  2.3290 -0.8188  0.2320
 8719SOL    HW227057   5.780   5.245   0.158 -1.0827  1.1574 -1.4136
 8720SOL     OW27058   5.187   6.154   6.367 -0.2499 -0.5398  0.2930
 8720SOL    HW127059   5.202   6.233   6.425 -1.8651  1.1987 -1.4997
 8720SOL    HW227060   5.149   6.079   6.421  0.1445  0.3213  1.8096
 8721SOL     OW27061   1.744   4.208   4.308  0.3325 -0.1019 -0.5964
 8721SOL    HW127062   1.668   4.273   4.305  0.0472 -0.3021  1.0415
 8721SOL    HW227063   1.762   4.173   4.216 -3.2866 -1.9536 -0.7866
 8722SOL     OW27064   3.320   6.140   5.971 -0.7221 -0.5495 -0.3531
 8722SOL    HW127065   3.234   6.179   6.003 -0.2240 -0.8784  1.5315
 8722SOL    HW227066   3.325   6.044   5.999  0.4394 -0.4111 -0.0590
 8723SOL     OW27067   3.146   2.257   5.659  0.0717 -0.1265 -0.2828
 8723SOL    HW127068   3.111   2.269   5.567  1.7776  1.6829 -0.7644
 8723SOL    HW227069   3.225   2.195   5.657 -1.4171 -2.1866  0.4264
 8724SOL     OW27070   2.053   2.800   5.349 -0.0721 -0.2357  0.5013
 8724SOL    HW127071   2.142   2.838   5.323 -0.6535  0.1823 -0.9665
 8724SOL    HW227072   2.055   2.775   5.445  1.3085  0.7038  0.7510
 8725SOL     OW27073   1.097   1.633   4.708 -0.7663 -0.2151 -0.0313
 8725SOL    HW127074   1.042   1.610   4.628  2.2398  2.0108 -2.9766
 8725SOL    HW227075   1.159   1.557   4.729  0.1683  0.1069 -1.4964
 8726SOL     OW27076   2.650   6.747   3.029 -0.2707 -0.7688  0.1280
 8726SOL    HW127077   2.739   6.749   3.074  0.6806 -0.3488 -1.7215
 8726SOL    HW227078   2.588   6.689   3.083  1.8450 -3.2356  0.1460
 8727SOL     OW27079   6.066   4.667   2.025 -0.2319  0.2172  0.5639
 8727SOL    HW127080   6.026   4.753   1.994  0.0883 -0.1514 -0.9520
 8727SOL    HW227081   6.120   4.683   2.108 -2.8310  0.8662  2.2419
 8728SOL     OW27082   3.131   1.450   3.566 -0.1757  0.0738  0.2133
 8728SOL    HW127083   3.120   1.547   3.586  0.9140  0.5960 -1.5219
 8728SOL    HW227084   3.218   1.418   3.604  0.5208  0.3631 -1.0596
 8729SOL     OW27085   7.009   6.056   4.994 -0.6001 -0.1234 -0.5648
 8729SOL    HW127086   7.003   6.007   4.907  0.4924  1.4830 -1.5991
 8729SOL    HW227087   7.105   6.057   5.024 -0.8905 -0.1951  0.3982
 8730SOL     OW27088   4.121   3.347   0.681  0.4045  0.9229  0.4231
 8730SOL    HW127089   4.184   3.274   0.708 -0.6990 -0.8141 -1.4314
 8730SOL    HW227090   4.057   3.364   0.756 -0.3318 -1.2096  0.3479
 8731SOL     OW27091   2.593   4.958   2.212 -0.4669  0.6824 -0.4550
 8731SOL    HW127092   2.513   4.898   2.200  0.5205 -1.6632  3.1330
 8731SOL    HW227093   2.562   5.054   2.212 -3.5872 -0.1240  1.6997
 8732SOL     OW27094   6.704   0.386   6.735  0.0768  0.5461  0.1501
 8732SOL    HW127095   6.752   0.437   6.806 -1.2541  2.7958 -0.4413
 8732SOL    HW227096   6.605   0.396   6.747 -0.1899  0.0333 -1.3348
 8733SOL     OW27097   0.790   0.674   4.059 -0.4360  0.0022 -0.7334
 8733SOL    HW127098   0.879   0.666   4.014  0.6612  1.7907  0.9250
 8733SOL    HW227099   0.767   0.771   4.069 -1.0501 -0.3306  1.6624
 8734SOL     OW27100   0.661   6.177   0.494 -0.3935  0.4041 -0.0521
 8734SOL    HW127101   0.645   6.081   0.474 -2.1034  0.1268  2.1470
 8734SOL    HW227102   0.758   6.192   0.513  0.4515 -0.1990 -3.2699
 8735SOL     OW27103   0.190   1.679   2.244 -0.1645  0.8484  0.2723
 8735SOL    HW127104   0.248   1.725   2.312  1.9351 -0.7430 -0.3097
 8735SOL    HW227105   0.241   1.671   2.158 -1.3686 -0.4037 -0.3545
 8736SOL     OW27106   4.012   5.887   1.844  0.7713  0.0861  0.3674
 8736SOL    HW127107   4.058   5.814   1.793 -1.9820 -2.0661  0.7229
 8736SOL    HW227108   3.999   5.858   1.939 -0.9209  0.7190  0.3678
 8737SOL     OW27109   6.356   0.049   2.676 -1.0828 -0.0519 -0.3017
 8737SOL    HW127110   6.299   0.013   2.602  1.0356 -2.4074 -0.9400
 8737SOL    HW227111   6.359  -0.017   2.751  1.2669 -0.3586 -0.5829
 8738SOL     OW27112   1.507   3.474   6.992 -0.3597  0.4076 -0.3485
 8738SOL    HW127113   1.501   3.572   6.975 -1.7435  0.5535  0.7649
 8738SOL    HW227114   1.505   3.425   6.905 -0.1084  1.3455 -0.8942
 8739SOL     OW27115   1.284   6.655   3.339  0.4632 -0.4178  0.4418
 8739SOL    HW127116   1.382   6.648   3.323  0.1897 -1.4998 -0.9813
 8739SOL    HW227117   1.266   6.655   3.438  1.7389 -2.9750  0.7465
 8740SOL     OW27118   4.627   4.850   5.124 -0.0517  0.0665  0.0928
 8740SOL    HW127119   4.719   4.884   5.104 -0.8106  2.0294 -0.3200
 8740SOL    HW227120   4.631   4.787   5.202  1.3612  2.0977  1.7961
 8741SOL     OW27121   2.258   2.758   3.039 -0.1003 -0.0479 -0.1030
 8741SOL    HW127122   2.230   2.679   2.985  1.3260 -0.2509 -0.5727
 8741SOL    HW227123   2.202   2.837   3.013 -0.9639 -0.6925 -0.2298
 8742SOL     OW27124   5.479   3.342   0.483  0.6846  0.0267  0.5458
 8742SOL    HW127125   5.384   3.334   0.514  0.8360  0.0457  1.0186
 8742SOL    HW227126   5.532   3.395   0.549  1.1045 -0.2831  0.4673
 8743SOL     OW27127   3.331   3.712   3.528 -0.1100 -0.2300 -0.0230
 8743SOL    HW127128   3.392   3.763   3.468 -2.6286 -0.8326 -3.4232
 8743SOL    HW227129   3.241   3.756   3.530 -0.2070 -0.3175  3.3708
 8744SOL     OW27130   2.239   4.647   3.431 -0.0613  0.7127  0.3471
 8744SOL    HW127131   2.304   4.709   3.387 -0.2988 -0.1320 -1.2766
 8744SOL    HW227132   2.157   4.639   3.374  0.3489 -1.7755 -0.0189
 8745SOL     OW27133   0.470   0.797   0.674 -0.2724  0.0339 -0.1353
 8745SOL    HW127134   0.482   0.699   0.664  1.3900  0.2792 -0.8045
 8745SOL    HW227135   0.549   0.836   0.722 -1.4780  0.8950  1.2481
 8746SOL     OW27136   4.006   6.427   1.738 -0.4000 -0.2212  0.2364
 8746SOL    HW127137   3.959   6.421   1.826 -0.4578 -2.7793  0.0948
 8746SOL    HW227138   4.097   6.385   1.745 -0.0472  0.3225 -0.7262
 8747SOL     OW27139   4.337   6.811   2.484  0.0641  0.6168  0.2049
 8747SOL    HW127140   4.388   6.895   2.465  2.1833 -0.4745  0.7265
 8747SOL    HW227141   4.271   6.827   2.557  0.9455  1.6755  0.8014
 8748SOL     OW27142   5.173   6.463   6.820  0.5046 -0.1333 -0.5175
 8748SOL    HW127143   5.269   6.493   6.817 -0.2367  2.4730 -0.3983
 8748SOL    HW227144   5.152   6.429   6.912  0.8892  0.9086 -0.0311
 8749SOL     OW27145   0.444   4.857   4.032 -0.2239 -0.2159  0.2658
 8749SOL    HW127146   0.515   4.902   4.087 -1.6865  1.6951  0.7096
 8749SOL    HW227147   0.475   4.850   3.937  1.2644 -1.1087  0.7804
 8750SOL     OW27148   0.061   2.478   3.435 -0.3237 -0.3165  0.0943
 8750SOL    HW127149   0.107   2.479   3.524  1.3522  1.2201 -0.7226
 8750SOL    HW227150   0.126   2.504   3.363 -2.2520  1.1513 -1.2394
 8751SOL     OW27151   3.198   5.576   5.023  0.1227  0.2130 -0.0205
 8751SOL    HW127152   3.099   5.562   5.018  0.4053 -2.0496 -0.9751
 8751SOL    HW227153   3.241   5.495   5.064  1.6171  1.0013  0.0578
 8752SOL     OW27154   3.151   3.012   3.922  0.6332  0.0986  0.1045
 8752SOL    HW127155   3.093   2.948   3.871  0.7935 -0.4514  0.5954
 8752SOL    HW227156   3.123   3.106   3.902 -0.5755 -0.1617  0.4894
 8753SOL     OW27157   4.392   6.516   4.794 -0.2339 -0.5042  0.8839
 8753SOL    HW127158   4.430   6.578   4.725 -1.5160 -0.1296  0.4853
 8753SOL    HW227159   4.426   6.543   4.885  0.2219 -0.0113  0.5789
 8754SOL     OW27160   5.653   5.113   2.235  0.6638  0.0194  0.5716
 8754SOL    HW127161   5.725   5.120   2.304  1.1583  1.0480 -0.0111
 8754SOL    HW227162   5.631   5.017   2.219  2.3515 -0.3687  0.3487
 8755SOL     OW27163   0.737   2.000   3.920 -0.3010 -0.2460 -0.5132
 8755SOL    HW127164   0.811   1.975   3.982 -0.5371 -0.5299 -0.3451
 8755SOL    HW227165   0.649   1.981   3.963 -0.4714 -1.7496 -1.4587
 8756SOL     OW27166   6.031   5.427   5.357 -0.0086  0.6271 -0.5840
 8756SOL    HW127167   5.957   5.421   5.289  0.4822 -1.7807 -0.9815
 8756SOL    HW227168   6.115   5.457   5.312 -0.2376  1.3561 -0.5401
 8757SOL     OW27169   1.959   1.466   5.371 -0.1897  0.3804  0.1419
 8757SOL    HW127170   1.911   1.534   5.316 -2.6109 -0.5273  0.9653
 8757SOL    HW227171   1.911   1.454   5.458  0.3167 -2.1354  0.1610
 8758SOL     OW27172   3.671   2.035   4.205  0.4581  0.1510 -0.3658
 8758SOL    HW127173   3.663   2.121   4.256  0.9594  0.4936 -0.8591
 8758SOL    HW227174   3.766   2.005   4.205  0.2639 -0.4775 -0.0856
 8759SOL     OW27175   5.264   4.145   1.727  0.4735  0.2626  0.4563
 8759SOL    HW127176   5.302   4.234   1.701  2.7353 -1.4299 -2.6217
 8759SOL    HW227177   5.187   4.123   1.668  0.2916 -0.0784  0.8178
 8760SOL     OW27178   6.631   4.296   6.473  0.3908  0.2210  1.0910
 8760SOL    HW127179   6.554   4.316   6.413  0.2532  2.0905  1.8178
 8760SOL    HW227180   6.597   4.268   6.563  0.5966 -1.0756  0.7889
 8761SOL     OW27181   2.717   0.229   4.235  0.1239 -0.3927 -0.1874
 8761SOL    HW127182   2.717   0.186   4.325  1.5995 -0.9207 -0.4133
 8761SOL    HW227183   2.748   0.324   4.243 -3.6413  0.9491  0.3880
 8762SOL     OW27184   6.569   2.405   5.909  0.0251 -0.2086  0.7441
 8762SOL    HW127185   6.497   2.416   5.841  0.5754  0.4377  0.2539
 8762SOL    HW227186   6.583   2.307   5.927 -0.1928 -0.3824  0.0068
 8763SOL     OW27187   2.334   2.860   3.310 -0.0914  0.1756  0.0733
 8763SOL    HW127188   2.259   2.818   3.259  0.5550  0.5654 -1.2381
 8763SOL    HW227189   2.405   2.890   3.246  0.1699  1.8540  1.0947
 8764SOL     OW27190   3.294   6.775   3.790  0.3909 -0.6612 -0.2919
 8764SOL    HW127191   3.302   6.728   3.702  1.1272 -1.2975  0.1091
 8764SOL    HW227192   3.321   6.714   3.863 -0.1561 -0.1117  0.3850
 8765SOL     OW27193   0.360   6.925   6.395  0.0534  0.0132  0.1551
 8765SOL    HW127194   0.387   7.020   6.408 -0.6238  0.3589 -0.7856
 8765SOL    HW227195   0.335   6.884   6.483  0.9149  0.5229  0.6409
 8766SOL     OW27196   0.257   0.225   4.903  0.0965 -0.1811 -0.1419
 8766SOL    HW127197   0.210   0.256   4.820  1.0043  0.5803 -0.3933
 8766SOL    HW227198   0.287   0.130   4.891 -0.3041 -0.2707 -0.4511
 8767SOL     OW27199   5.394   2.812   4.832 -0.3384  0.5697  0.5689
 8767SOL    HW127200   5.389   2.820   4.931  0.0640 -0.3885  0.6726
 8767SOL    HW227201   5.483   2.846   4.801  1.4723 -3.2510  1.0359
 8768SOL     OW27202   1.561   5.212   5.103 -0.0805 -0.3612  0.3520
 8768SOL    HW127203   1.586   5.223   5.199 -0.0081 -3.4768  0.8239
 8768SOL    HW227204   1.481   5.152   5.096 -1.6821  1.8074 -1.5001
 8769SOL     OW27205   4.504   6.255   5.841 -0.3071  0.7789  0.1244
 8769SOL    HW127206   4.531   6.194   5.766  0.1856  0.3713  0.6250
 8769SOL    HW227207   4.571   6.248   5.915 -0.7626  1.2190  0.5825
 8770SOL     OW27208   0.596   2.688   3.705  0.1235 -0.4092 -0.0540
 8770SOL    HW127209   0.670   2.746   3.671 -0.0555  0.1064  0.4181
 8770SOL    HW227210   0.605   2.596   3.666  0.8467 -0.2752 -0.2173
 8771SOL     OW27211   4.217   0.759   3.111 -0.0968  0.1056  0.2745
 8771SOL    HW127212   4.120   0.783   3.111  0.2660  1.7132  1.3495
 8771SOL    HW227213   4.234   0.688   3.179 -0.3113  0.8158  1.0787
 8772SOL     OW27214   1.378   0.695   4.712 -0.4104  0.2512 -0.2566
 8772SOL    HW127215   1.403   0.679   4.617 -0.7405  3.1353 -0.9050
 8772SOL    HW227216   1.278   0.703   4.720 -0.4238 -0.4159  0.4425
 8773SOL     OW27217   2.966   0.617   5.982  0.1686  0.0938  0.7842
 8773SOL    HW127218   3.021   0.662   5.912  0.7238 -1.9154 -0.1454
 8773SOL    HW227219   2.871   0.646   5.975  0.5145  1.1118  0.2409
 8774SOL     OW27220   2.877   3.496   0.463  0.0692  0.2048  0.0786
 8774SOL    HW127221   2.907   3.465   0.373  1.4873  0.4062  0.4578
 8774SOL    HW227222   2.953   3.489   0.527 -0.8946  0.1676  1.2440
 8775SOL     OW27223   1.033   0.308   5.142 -0.1464 -0.1814 -0.1962
 8775SOL    HW127224   1.027   0.268   5.050 -1.7197  0.8673 -0.6088
 8775SOL    HW227225   0.941   0.310   5.182  0.0363  1.9920  0.2166
 8776SOL     OW27226   3.211   3.443   4.226  0.3240 -0.2353 -0.1438
 8776SOL    HW127227   3.142   3.383   4.266 -1.3928 -0.0910 -2.6648
 8776SOL    HW227228   3.220   3.525   4.282  0.3499 -1.3639  1.5874
 8777SOL     OW27229   0.040   1.468   3.573 -0.4385 -0.1598 -0.3510
 8777SOL    HW127230   0.106   1.535   3.607 -1.1431  0.4115 -0.0944
 8777SOL    HW227231  -0.024   1.513   3.510 -1.3312 -0.4371  0.3457
 8778SOL     OW27232   0.301   4.841   5.100  0.1467  0.6680 -0.0742
 8778SOL    HW127233   0.374   4.825   5.166 -0.5782  0.2829  0.6688
 8778SOL    HW227234   0.223   4.882   5.147 -0.9400 -0.9655 -0.3392
 8779SOL     OW27235   6.535   6.017   1.693  0.2128  0.4124 -0.1571
 8779SOL    HW127236   6.619   6.023   1.747  0.1859 -1.5126  0.1682
 8779SOL    HW227237   6.457   6.004   1.755  0.0220 -0.5075 -0.5807
 8780SOL     OW27238   1.309   6.005   5.962  0.2334  0.0208  0.5973
 8780SOL    HW127239   1.379   6.069   5.930  0.0407  0.0929  0.3149
 8780SOL    HW227240   1.302   6.011   6.062  0.1126  0.5522  0.5616
 8781SOL     OW27241   3.805   0.214   1.188  0.2990  0.1233 -0.3830
 8781SOL    HW127242   3.765   0.146   1.250 -0.6079  0.3975 -0.6501
 8781SOL    HW227243   3.819   0.300   1.238  0.2101  0.1362 -0.3796
 8782SOL     OW27244   1.907   0.963   4.782 -0.3907  0.0208  0.0935
 8782SOL    HW127245   1.893   1.006   4.692  2.4710  1.6041  0.2755
 8782SOL    HW227246   1.839   0.998   4.846 -0.7914  0.9748 -0.8200
 8783SOL     OW27247   2.052   6.738   0.260  0.1133  0.1307 -0.0896
 8783SOL    HW127248   2.030   6.739   0.162 -2.0657  0.9071  0.3576
 8783SOL    HW227249   2.037   6.829   0.298 -1.0766 -0.6316  1.3597
 8784SOL     OW27250   5.428   5.943   3.871  0.0018  0.4634 -0.1466
 8784SOL    HW127251   5.493   6.015   3.846  0.8655 -0.1606  0.2808
 8784SOL    HW227252   5.391   5.962   3.962 -1.4138  1.4996 -0.8840
 8785SOL     OW27253   1.482   0.780   3.205  0.3372  0.0774 -0.1838
 8785SOL    HW127254   1.445   0.756   3.116 -0.3629 -1.1422  0.4154
 8785SOL    HW227255   1.419   0.750   3.277  0.8873  1.0440  0.7207
 8786SOL     OW27256   1.153   2.769   3.144 -0.5509  0.0201 -0.1977
 8786SOL    HW127257   1.127   2.782   3.240 -4.2786 -0.5526 -0.9609
 8786SOL    HW227258   1.229   2.704   3.139  0.3697  0.7649  2.3659
 8787SOL     OW27259   5.260   4.853   6.635 -0.3631  0.1710 -0.4822
 8787SOL    HW127260   5.241   4.864   6.537  2.0140  0.8699 -0.9301
 8787SOL    HW227261   5.308   4.766   6.650 -0.0977  0.3936 -0.0363
 8788SOL     OW27262   4.845   6.433   4.678 -0.3709 -0.4857  0.1308
 8788SOL    HW127263   4.928   6.477   4.646 -0.7852  0.6250  0.5462
 8788SOL    HW227264   4.799   6.492   4.744 -0.2008 -2.1512  1.8117
 8789SOL     OW27265   3.609   4.769   1.130  0.0291 -0.2629 -0.0097
 8789SOL    HW127266   3.675   4.824   1.078  0.7515 -0.3844  0.7550
 8789SOL    HW227267   3.658   4.698   1.181 -0.7553 -0.7063  0.1303
 8790SOL     OW27268   4.287   6.405   2.716 -0.1014 -1.1366 -0.3383
 8790SOL    HW127269   4.311   6.307   2.719  2.2172 -0.6054  0.9997
 8790SOL    HW227270   4.354   6.454   2.660 -1.3614 -0.2863 -1.1623
 8791SOL     OW27271   4.444   0.606   4.782  0.0138  0.2990 -0.2216
 8791SOL    HW127272   4.499   0.532   4.821 -2.4208 -0.8980  1.2128
 8791SOL    HW227273   4.401   0.658   4.856  0.6241  2.3640 -1.2520
 8792SOL     OW27274   2.613   4.631   3.351  0.0570 -0.5632  0.9356
 8792SOL    HW127275   2.709   4.658   3.348 -0.7327  2.5017 -0.1120
 8792SOL    HW227276   2.588   4.585   3.266 -0.1766  1.9068 -0.4066
 8793SOL     OW27277   2.875   0.662   1.351 -0.8975 -0.2497 -0.3982
 8793SOL    HW127278   2.863   0.568   1.321 -1.1589 -0.8564  1.4704
 8793SOL    HW227279   2.786   0.705   1.363 -0.8597 -0.4729  0.7841
 8794SOL     OW27280   1.465   5.781   2.272 -0.5177  0.1881 -0.4657
 8794SOL    HW127281   1.551   5.751   2.314  0.2518  1.5941 -0.9517
 8794SOL    HW227282   1.442   5.872   2.306 -1.2197  0.2960 -1.1967
 8795SOL     OW27283   6.055   1.836   0.999 -0.2196  0.0551 -0.1965
 8795SOL    HW127284   5.990   1.891   0.946 -3.3752 -1.7180  1.5278
 8795SOL    HW227285   6.025   1.833   1.095  2.4187 -0.9711  0.6763
 8796SOL     OW27286   2.481   1.443   1.340 -0.2220 -0.0082 -0.1266
 8796SOL    HW127287   2.415   1.431   1.414 -1.7898 -0.6859 -1.5683
 8796SOL    HW227288   2.496   1.355   1.295  1.3284  0.2330 -0.1420
 8797SOL     OW27289   4.018   2.236   2.940  0.0365 -0.4807 -0.6370
 8797SOL    HW127290   4.005   2.279   3.030  4.5066 -1.4613  0.7207
 8797SOL    HW227291   4.076   2.294   2.884 -0.7076 -1.0325 -2.0186
 8798SOL     OW27292   4.716   2.115   4.095 -0.0998 -0.0586 -0.5493
 8798SOL    HW127293   4.706   2.092   4.192  1.2266  0.6423 -0.2245
 8798SOL    HW227294   4.769   2.043   4.050  0.6849  0.3971 -0.3807
 8799SOL     OW27295   3.299   3.864   6.453 -0.6202  0.1764 -0.8149
 8799SOL    HW127296   3.354   3.887   6.533 -0.4791  1.2048 -1.1887
 8799SOL    HW227297   3.203   3.881   6.472 -0.6089  0.2135 -0.7916
 8800SOL     OW27298   4.054   5.679   5.940 -0.0436  0.0529 -1.2459
 8800SOL    HW127299   4.138   5.716   5.980 -0.9351 -0.2263  1.0513
 8800SOL    HW227300   3.979   5.691   6.004 -1.3306 -1.5982 -2.3512
 8801SOL     OW27301   6.304   3.140   4.074  0.0369 -0.4885  0.5798
 8801SOL    HW127302   6.269   3.110   4.163  1.2421 -0.0298  1.2426
 8801SOL    HW227303   6.241   3.112   4.002 -1.1494 -0.5601  1.6099
 8802SOL     OW27304   0.956   0.724   0.975  0.4063 -0.2448 -0.3285
 8802SOL    HW127305   1.004   0.695   0.893 -3.1185  0.7931 -2.9987
 8802SOL    HW227306   0.915   0.815   0.960  1.1810  0.9127  3.3493
 8803SOL     OW27307   2.324   2.532   1.759 -0.4959 -0.5199  0.4831
 8803SOL    HW127308   2.342   2.564   1.852 -0.4868  0.2592  0.2204
 8803SOL    HW227309   2.410   2.505   1.716 -0.0712  1.7906 -0.2572
 8804SOL     OW27310   1.449   1.229   2.178 -0.0295  0.0506 -0.2592
 8804SOL    HW127311   1.503   1.244   2.095  0.1822 -0.8248 -0.2871
 8804SOL    HW227312   1.504   1.180   2.245 -0.9484 -1.3308 -0.4861
 8805SOL     OW27313   2.721   6.531   6.089  0.3693  0.1879  0.1344
 8805SOL    HW127314   2.737   6.437   6.060 -1.4884 -0.1649  0.1236
 8805SOL    HW227315   2.785   6.592   6.042  1.9113 -1.0804  0.4859
 8806SOL     OW27316   4.574   3.925   0.060  0.4385 -0.1789  0.0671
 8806SOL    HW127317   4.588   3.958   0.153  1.4366 -2.0694  0.6402
 8806SOL    HW227318   4.649   3.954   0.002  1.2671 -1.2835  0.5472
 8807SOL     OW27319   2.285   4.466   6.402 -0.0373 -0.2187 -0.0185
 8807SOL    HW127320   2.248   4.493   6.313  0.4319 -0.3036 -0.2381
 8807SOL    HW227321   2.295   4.547   6.459 -2.1185 -0.3667  0.6435
 8808SOL     OW27322   0.740   0.408   0.753 -0.1103 -0.0883  0.0265
 8808SOL    HW127323   0.837   0.384   0.756  0.1358  0.7935 -0.5140
 8808SOL    HW227324   0.719   0.471   0.827 -0.0114  0.6136 -0.5368
 8809SOL     OW27325   4.793   0.120   1.760  0.0612  0.1022  0.0777
 8809SOL    HW127326   4.705   0.087   1.792  0.2070  1.0312  1.5509
 8809SOL    HW227327   4.864   0.052   1.778 -0.4028 -0.8556 -1.5675
 8810SOL     OW27328   5.979   2.636   3.206  0.1925  0.0268 -0.0150
 8810SOL    HW127329   5.895   2.664   3.251  0.0893 -2.2967  1.3976
 8810SOL    HW227330   6.043   2.601   3.274  2.5868  2.1945 -0.9700
 8811SOL     OW27331   4.219   0.912   6.890 -0.5923 -0.1016  0.1668
 8811SOL    HW127332   4.296   0.927   6.952 -1.3822 -0.4479  1.2525
 8811SOL    HW227333   4.243   0.946   6.799  0.7590 -0.0035  0.5347
 8812SOL     OW27334   6.418   3.551   1.141  0.2698  0.0911  0.0859
 8812SOL    HW127335   6.369   3.546   1.054  0.3129  0.4489  0.0390
 8812SOL    HW227336   6.403   3.467   1.193 -0.4135  0.2082  0.0819
 8813SOL     OW27337   3.509   2.655   6.060 -0.6915 -0.2720  0.0090
 8813SOL    HW127338   3.459   2.741   6.072 -0.7208 -0.1606 -0.8410
 8813SOL    HW227339   3.607   2.670   6.075 -0.4456  0.3445 -1.9256
 8814SOL     OW27340   3.842   3.736   2.649 -0.2114  0.1781 -0.0450
 8814SOL    HW127341   3.808   3.658   2.597 -0.5768  0.2950  0.0185
 8814SOL    HW227342   3.917   3.780   2.599 -1.1320  0.8284 -0.9075
 8815SOL     OW27343   5.033   4.067   2.486 -0.3206  0.4737 -0.3171
 8815SOL    HW127344   5.053   4.095   2.580 -1.0780 -0.0080  0.0036
 8815SOL    HW227345   5.049   3.968   2.477 -2.4860  0.0483 -0.0242
 8816SOL     OW27346   5.795   2.936   5.108  0.4064  0.3280 -0.2656
 8816SOL    HW127347   5.788   3.002   5.033 -0.6928 -1.6957 -2.0755
 8816SOL    HW227348   5.718   2.949   5.170 -0.4832  0.0420 -1.2674
 8817SOL     OW27349   0.695   4.217   4.286 -0.2966  0.5546  0.5727
 8817SOL    HW127350   0.652   4.154   4.222  1.3323  2.3510 -2.5517
 8817SOL    HW227351   0.787   4.186   4.307 -0.3422  0.6778  0.9687
 8818SOL     OW27352   4.955   5.221   6.699 -0.5195  0.3786 -0.0958
 8818SOL    HW127353   4.877   5.179   6.653 -0.8523  0.5396  0.3114
 8818SOL    HW227354   4.924   5.265   6.783 -0.1924  1.4910 -0.5391
 8819SOL     OW27355   6.011   1.656   5.803  0.7238  0.1128  0.5604
 8819SOL    HW127356   6.007   1.562   5.838 -0.5365  0.1474  0.5558
 8819SOL    HW227357   6.008   1.654   5.703  0.7412  0.1558  0.5591
 8820SOL     OW27358   4.340   4.884   1.160 -0.7645 -0.4239  0.1056
 8820SOL    HW127359   4.278   4.960   1.176 -2.9129 -1.9879 -0.4435
 8820SOL    HW227360   4.379   4.890   1.068  0.3934  0.8575  0.6490
 8821SOL     OW27361   1.488   6.080   0.449 -0.0873 -0.5989 -0.3625
 8821SOL    HW127362   1.512   6.177   0.446  1.0218 -0.8363  0.2221
 8821SOL    HW227363   1.526   6.039   0.531 -1.7352 -1.2441  0.1306
 8822SOL     OW27364   4.513   5.664   3.206  0.2433 -0.6058 -0.3302
 8822SOL    HW127365   4.600   5.616   3.198 -0.3555 -1.4764 -2.1852
 8822SOL    HW227366   4.493   5.711   3.120  0.8251  3.1572  1.4076
 8823SOL     OW27367   1.003   6.098   5.838 -0.3740 -0.1305  0.0352
 8823SOL    HW127368   0.991   6.093   5.937  0.1041 -2.0391  0.0465
 8823SOL    HW227369   1.084   6.044   5.812 -0.5266  0.3022 -1.3918
 8824SOL     OW27370   0.765   2.693   4.288  0.0029  0.8645 -0.2066
 8824SOL    HW127371   0.844   2.718   4.232 -0.8139  0.1204 -1.7539
 8824SOL    HW227372   0.793   2.687   4.384  1.6105  1.4620 -0.6031
 8825SOL     OW27373   5.236   0.314   0.681  0.1136  0.2652  0.2878
 8825SOL    HW127374   5.182   0.335   0.600 -0.3230 -2.1344 -0.1218
 8825SOL    HW227375   5.331   0.342   0.666  0.0313 -0.0971 -1.0510
 8826SOL     OW27376   3.463   0.443   5.951  0.3046  0.2694 -0.3657
 8826SOL    HW127377   3.475   0.463   5.854  0.5223 -0.7598 -0.5569
 8826SOL    HW227378   3.440   0.528   6.000 -2.0534  0.4306 -1.6324
 8827SOL     OW27379   2.084   1.975   2.004  0.8829  0.1438  0.2207
 8827SOL    HW127380   2.125   2.002   1.917 -2.5589  1.6430 -1.1221
 8827SOL    HW227381   2.009   1.910   1.988 -1.6756  2.5019  1.5642
 8828SOL     OW27382   2.440   1.284   0.355 -0.0637  0.7389  0.5106
 8828SOL    HW127383   2.460   1.382   0.361  1.3155  0.4445  1.0318
 8828SOL    HW227384   2.350   1.266   0.396  0.2196  1.6138  1.5696
 8829SOL     OW27385   1.481   6.872   5.370  0.4132 -0.7985  0.0647
 8829SOL    HW127386   1.467   6.942   5.440  0.8050 -1.7132  1.0884
 8829SOL    HW227387   1.554   6.901   5.308  0.8077 -0.4482  0.6850
 8830SOL     OW27388   0.167   0.207   4.115 -0.0291  0.1864  0.0515
 8830SOL    HW127389   0.131   0.251   4.033 -0.6066 -1.6402 -0.7289
 8830SOL    HW227390   0.160   0.107   4.105  1.3840 -0.1159  1.6545
 8831SOL     OW27391   0.554   2.337   5.368 -0.3736  0.6890  0.4911
 8831SOL    HW127392   0.534   2.314   5.463  0.3942 -1.1002  0.2696
 8831SOL    HW227393   0.572   2.253   5.317 -1.0150  1.6039 -1.3041
 8832SOL     OW27394   3.058   6.554   3.572  0.1101  0.3355  0.0736
 8832SOL    HW127395   3.143   6.604   3.558 -0.6071  1.6941  0.3899
 8832SOL    HW227396   3.014   6.537   3.483  0.6106 -0.2287 -0.0758
 8833SOL     OW27397   3.444   3.337   3.758  0.4981  0.1795 -0.2190
 8833SOL    HW127398   3.395   3.364   3.841 -0.1320  0.1516 -0.5747
 8833SOL    HW227399   3.424   3.241   3.738  1.2757 -0.0364  0.0320
 8834SOL     OW27400   5.928   5.132   5.014  0.2121 -0.4295 -0.1285
 8834SOL    HW127401   5.953   5.102   5.107  1.6216  0.0424 -0.3277
 8834SOL    HW227402   5.843   5.185   5.018  0.5306  0.0389  0.9849
 8835SOL     OW27403   5.520   0.009   3.273 -0.2600  0.6695 -0.1001
 8835SOL    HW127404   5.534  -0.078   3.226 -0.3734 -0.1223  1.2610
 8835SOL    HW227405   5.463   0.069   3.218 -2.0547 -0.9698 -0.1280
 8836SOL     OW27406   4.740   2.924   3.839  0.7264 -0.2460  0.0131
 8836SOL    HW127407   4.703   2.834   3.863  2.3781 -0.8452  0.3825
 8836SOL    HW227408   4.755   2.929   3.740  0.8256 -0.4483  0.0187
 8837SOL     OW27409   3.188   6.888   6.615  0.4169  0.4616 -0.0126
 8837SOL    HW127410   3.101   6.860   6.656 -0.6588  1.8170 -1.2807
 8837SOL    HW227411   3.189   6.863   6.518  2.1074 -0.9091  0.2987
 8838SOL     OW27412   1.875   1.560   2.260 -0.0011 -0.1983 -0.7472
 8838SOL    HW127413   1.847   1.628   2.328  0.8600  0.2718 -0.8422
 8838SOL    HW227414   1.866   1.598   2.168 -1.9630 -1.1238 -0.9778
 8839SOL     OW27415   1.169   4.904   1.484 -0.1671  1.1771  0.3905
 8839SOL    HW127416   1.103   4.959   1.433 -0.8276  1.0572  1.1053
 8839SOL    HW227417   1.232   4.861   1.420 -0.9862  1.0242 -0.3344
 8840SOL     OW27418   2.146   2.995   3.455 -0.0780 -0.6666 -0.2363
 8840SOL    HW127419   2.091   2.919   3.490  0.0899 -0.6502  0.0650
 8840SOL    HW227420   2.235   2.960   3.425  0.8958 -0.2727  2.0270
 8841SOL     OW27421   5.186   0.486   0.473  0.4398 -0.6188 -0.1123
 8841SOL    HW127422   5.272   0.503   0.424  0.2967 -0.9446 -0.4907
 8841SOL    HW227423   5.116   0.456   0.407  0.4431 -1.7746  0.3790
 8842SOL     OW27424   0.933   4.076   4.301  0.3284 -0.1258  0.9976
 8842SOL    HW127425   0.886   3.993   4.271  1.5373 -0.0029 -1.4686
 8842SOL    HW227426   0.986   4.056   4.384 -2.3085 -0.7690  2.6516
 8843SOL     OW27427   3.006   5.614   1.732 -0.8204 -0.4228  0.3883
 8843SOL    HW127428   3.073   5.675   1.775  0.9631 -0.6880 -1.8582
 8843SOL    HW227429   3.000   5.529   1.785  1.0775 -0.6281  0.3212
 8844SOL     OW27430   5.802   0.474   3.621 -0.1337 -0.3602 -0.5538
 8844SOL    HW127431   5.720   0.499   3.673  0.0578 -0.6461 -0.1085
 8844SOL    HW227432   5.792   0.504   3.527 -0.4087  0.3428 -0.3079
 8845SOL     OW27433   4.264   0.621   6.284 -0.0719  0.2335 -0.6559
 8845SOL    HW127434   4.191   0.645   6.348 -0.6081  2.5370 -2.0383
 8845SOL    HW227435   4.225   0.598   6.196  0.7015 -2.3919 -0.3959
 8846SOL     OW27436   6.257   4.192   2.652  0.5109  0.0934  0.3948
 8846SOL    HW127437   6.270   4.094   2.642  0.8444  0.0250  1.4471
 8846SOL    HW227438   6.282   4.237   2.566  0.8772 -0.6888  0.0782
 8847SOL     OW27439   1.153   6.191   6.508  0.3308  0.0927 -0.6503
 8847SOL    HW127440   1.215   6.156   6.578  0.1557  0.8000 -0.1327
 8847SOL    HW227441   1.059   6.171   6.534  0.1811  1.5369  0.0091
 8848SOL     OW27442   0.521   0.367   2.001  0.3382  0.2707 -0.2348
 8848SOL    HW127443   0.500   0.363   1.904  0.7399  0.5958 -0.3346
 8848SOL    HW227444   0.506   0.460   2.035  2.9859  0.9201 -0.6330
 8849SOL     OW27445   1.383   3.912   1.566 -0.1338 -0.3305 -0.0268
 8849SOL    HW127446   1.357   3.818   1.547  2.6733 -1.4898  1.3751
 8849SOL    HW227447   1.420   3.954   1.483  0.0769 -1.0165 -0.2873
 8850SOL     OW27448   2.218   2.023   5.011  0.1668  0.2279  0.3551
 8850SOL    HW127449   2.176   2.081   4.940  0.8154 -0.3525 -0.5326
 8850SOL    HW227450   2.222   2.073   5.097  3.0637  2.5902 -0.9567
 8851SOL     OW27451   2.023   3.627   2.792 -0.4771  0.2435  0.6073
 8851SOL    HW127452   2.058   3.649   2.883  0.0881 -0.3230  0.5352
 8851SOL    HW227453   1.931   3.587   2.800 -0.6983  0.8065  0.8767
 8852SOL     OW27454   2.836   2.313   3.309  0.0364 -0.2312  0.8234
 8852SOL    HW127455   2.766   2.343   3.245 -1.1608 -0.5380  1.9401
 8852SOL    HW227456   2.926   2.316   3.265 -0.6311  0.4704 -0.5370
 8853SOL     OW27457   2.014   4.948   5.246 -0.4366  0.7184  0.0494
 8853SOL    HW127458   2.071   5.029   5.232  0.8712 -0.0397  0.7896
 8853SOL    HW227459   2.073   4.868   5.259 -1.6488 -0.7549 -2.6180
 8854SOL     OW27460   1.118   5.532   1.582  0.6790 -0.0638  0.3669
 8854SOL    HW127461   1.022   5.512   1.597  0.8372  0.2697  2.1337
 8854SOL    HW227462   1.172   5.448   1.592  0.6944  0.0013  0.8889
 8855SOL     OW27463   2.469   4.401   1.979 -0.2495  0.4301  0.0162
 8855SOL    HW127464   2.513   4.465   2.042 -0.5732 -0.6139  1.3575
 8855SOL    HW227465   2.378   4.379   2.013  0.1962 -1.4471  0.1140
 8856SOL     OW27466   1.551   2.369   2.918  0.0711  0.0342  0.0913
 8856SOL    HW127467   1.577   2.352   3.013 -0.7916  0.5146  0.4201
 8856SOL    HW227468   1.586   2.295   2.860 -0.6798 -1.0601  0.9965
 8857SOL     OW27469   1.269   3.905   4.333 -0.1366  0.0418 -0.1165
 8857SOL    HW127470   1.205   3.872   4.264  0.2967  0.2367 -0.6111
 8857SOL    HW227471   1.315   3.827   4.376 -0.1581 -0.0606 -0.2816
 8858SOL     OW27472   4.125   1.884   3.028 -0.6893  0.4278 -0.0400
 8858SOL    HW127473   4.165   1.820   3.094 -0.7119 -0.9425 -1.2958
 8858SOL    HW227474   4.030   1.859   3.011 -1.5917  2.5118  1.4868
 8859SOL     OW27475   5.563   0.025   2.229  0.0187 -0.5068 -0.3372
 8859SOL    HW127476   5.528   0.100   2.285 -0.8174 -1.1710  0.0514
 8859SOL    HW227477   5.653   0.050   2.192 -0.4139  0.8271 -0.5311
 8860SOL     OW27478   2.755   1.345   3.473  0.1058  0.6036 -0.4561
 8860SOL    HW127479   2.689   1.283   3.429  0.8227 -0.4850 -0.0526
 8860SOL    HW227480   2.842   1.342   3.424 -0.0671  1.8831 -0.8705
 8861SOL     OW27481   0.821   1.556   6.560  0.3629  0.7013 -0.0917
 8861SOL    HW127482   0.759   1.628   6.529 -1.2604  0.7689  2.9935
 8861SOL    HW227483   0.770   1.471   6.575  1.3782  0.1963  0.6675
 8862SOL     OW27484   5.649   6.384   6.825  0.7246  0.0553  0.8430
 8862SOL    HW127485   5.723   6.413   6.886  0.6194  2.2571  0.0189
 8862SOL    HW227486   5.570   6.444   6.837  0.2635 -0.2133 -0.5930
 8863SOL     OW27487   4.245   0.256   7.000  0.1213 -0.6451 -0.4837
 8863SOL    HW127488   4.273   0.346   6.968 -0.1078 -0.0380  0.9383
 8863SOL    HW227489   4.323   0.211   7.044  0.7171 -1.8915 -2.6805
 8864SOL     OW27490   2.739   3.010   5.645  0.3232 -0.0885 -0.6665
 8864SOL    HW127491   2.780   3.100   5.662 -0.8870  0.4455 -0.4591
 8864SOL    HW227492   2.700   3.008   5.553 -3.1489  1.0640  0.6228
 8865SOL     OW27493   0.047   2.418   6.925  0.2635  0.0472  0.0191
 8865SOL    HW127494   0.119   2.350   6.909 -0.0491 -0.1009 -0.7995
 8865SOL    HW227495  -0.024   2.409   6.855 -1.0621 -0.4633  1.3701
 8866SOL     OW27496   3.574   3.092   3.122 -0.2659  0.6064 -0.4172
 8866SOL    HW127497   3.597   3.142   3.206 -1.0701 -1.2967  1.0325
 8866SOL    HW227498   3.528   3.153   3.058  0.1329  2.0553  0.6184
 8867SOL     OW27499   1.756   0.324   0.040 -0.1831  0.4316  0.3249
 8867SOL    HW127500   1.837   0.295   0.092  0.3665  0.8130 -0.2971
 8867SOL    HW227501   1.676   0.273   0.071  0.4928 -0.7012  0.2457
 8868SOL     OW27502   5.038   0.043   1.541 -0.3609 -0.2186 -0.9091
 8868SOL    HW127503   4.938   0.030   1.543 -0.4685  0.6323 -0.5264
 8868SOL    HW227504   5.082  -0.043   1.514 -1.0704 -1.2407  1.0046
 8869SOL     OW27505   2.952   0.715   2.656  0.3690 -0.2357 -0.0444
 8869SOL    HW127506   2.932   0.662   2.739 -0.9824  0.9433  0.4104
 8869SOL    HW227507   2.909   0.671   2.578 -2.2508  1.0316  0.5859
 8870SOL     OW27508   5.311   3.890   1.031  0.6407  0.0788 -0.5659
 8870SOL    HW127509   5.349   3.923   1.117 -1.9517 -2.1965  1.6569
 8870SOL    HW227510   5.370   3.819   0.993  1.2107  0.2470 -0.0068
 8871SOL     OW27511   0.945   6.657   1.951  0.6186  1.1485  0.3588
 8871SOL    HW127512   0.864   6.677   1.897  0.5128 -2.2747 -1.0054
 8871SOL    HW227513   0.921   6.651   2.048 -0.5808  0.9933  0.0591
 8872SOL     OW27514   5.296   3.387   1.760  0.1384  0.4349  0.0781
 8872SOL    HW127515   5.224   3.449   1.729  1.4787  2.6331  1.1668
 8872SOL    HW227516   5.385   3.418   1.728  0.7718 -1.6680 -0.3922
 8873SOL     OW27517   6.750   2.566   1.120  0.3080 -0.4876  0.2939
 8873SOL    HW127518   6.722   2.481   1.163  0.1527 -0.5523  0.0673
 8873SOL    HW227519   6.818   2.611   1.177 -3.1041  1.7449  3.0871
 8874SOL     OW27520   2.962   5.133   3.154  0.1332 -0.1286 -0.6689
 8874SOL    HW127521   2.895   5.068   3.189  0.2416  0.3520  0.4580
 8874SOL    HW227522   3.054   5.099   3.173  0.1925  0.0589 -0.6211
 8875SOL     OW27523   4.562   0.419   0.148  0.2488  0.2081  0.7600
 8875SOL    HW127524   4.634   0.360   0.110  0.0141 -0.0938  0.7793
 8875SOL    HW227525   4.501   0.365   0.206  0.4188  0.6097  1.3157
 8876SOL     OW27526   3.326   6.018   1.545 -0.3367 -0.0335 -0.7991
 8876SOL    HW127527   3.357   5.959   1.469 -0.1740  0.3342 -1.0202
 8876SOL    HW227528   3.376   6.104   1.542 -0.5273  0.0898 -0.4301
 8877SOL     OW27529   4.587   1.945   5.786  0.0971  0.3077  0.6524
 8877SOL    HW127530   4.519   1.906   5.724  0.9255  2.2096 -1.5970
 8877SOL    HW227531   4.659   1.877   5.803  0.3203  0.0184 -1.2603
 8878SOL     OW27532   3.998   2.059   6.348 -0.4264  0.0671  0.5561
 8878SOL    HW127533   3.939   2.086   6.425 -0.1187 -0.3278  0.9352
 8878SOL    HW227534   4.058   1.984   6.377  1.7044  1.7741  0.8207
 8879SOL     OW27535   4.549   5.252   5.975 -0.0017  0.0932 -0.4179
 8879SOL    HW127536   4.607   5.297   6.042  0.6885  2.0091 -2.1815
 8879SOL    HW227537   4.600   5.240   5.889 -1.6650  0.2364 -1.4758
 8880SOL     OW27538   6.635   3.748   5.345  0.0085  0.0956  0.0961
 8880SOL    HW127539   6.685   3.729   5.431 -0.1385 -0.3891  0.0801
 8880SOL    HW227540   6.538   3.727   5.358  0.3924 -3.0137 -1.0370
 8881SOL     OW27541   5.263   4.956   4.465 -0.1147  0.3676 -0.3194
 8881SOL    HW127542   5.299   4.923   4.553  2.4660 -0.7323 -1.6776
 8881SOL    HW227543   5.296   5.048   4.447 -0.7357  0.6372 -0.1148
 8882SOL     OW27544   3.745   5.820   1.555 -0.7545  0.0349 -0.1830
 8882SOL    HW127545   3.739   5.806   1.456  0.0134  0.5235 -0.3136
 8882SOL    HW227546   3.710   5.740   1.602 -1.3922 -0.0922 -0.8475
 8883SOL     OW27547   1.055   2.970   2.970  0.3556 -0.1664 -0.2233
 8883SOL    HW127548   1.120   2.897   2.952  2.5939  1.8515 -0.8566
 8883SOL    HW227549   0.995   2.944   3.046  1.9609 -2.0815  0.4525
 8884SOL     OW27550   0.288   5.450   5.357 -0.9377 -0.0204 -0.3011
 8884SOL    HW127551   0.325   5.422   5.445 -3.0035  0.1466  0.6834
 8884SOL    HW227552   0.345   5.414   5.283  1.0516  0.1579  1.0811
 8885SOL     OW27553   1.983   0.843   2.394 -0.4765  0.1591 -0.2838
 8885SOL    HW127554   2.061   0.851   2.333 -0.4276 -1.9701 -0.5727
 8885SOL    HW227555   1.912   0.788   2.351 -1.8950  1.4925  0.2450
 8886SOL     OW27556   5.754   6.623   1.581 -0.0590 -0.8376  0.0802
 8886SOL    HW127557   5.717   6.711   1.552  1.1311 -0.2567  0.2466
 8886SOL    HW227558   5.680   6.566   1.618 -0.9781 -0.2314 -0.7710
 8887SOL     OW27559   1.410   0.150   0.900  0.6089 -0.3467  0.1505
 8887SOL    HW127560   1.401   0.180   0.995 -0.8146  0.9890 -0.3562
 8887SOL    HW227561   1.492   0.190   0.859  0.1940  0.6622  0.2833
 8888SOL     OW27562   4.317   3.520   5.284 -0.2159  0.5318 -0.2730
 8888SOL    HW127563   4.280   3.467   5.360 -0.1566  1.3498  0.3359
 8888SOL    HW227564   4.244   3.541   5.220 -0.4495  0.6051  0.0151
 8889SOL     OW27565   0.542   0.088   2.489 -0.1378  0.8005 -0.2143
 8889SOL    HW127566   0.612   0.017   2.497  0.3724  1.3766  0.6415
 8889SOL    HW227567   0.519   0.100   2.392 -0.9947 -1.2131 -0.3083
 8890SOL     OW27568   6.940   0.875   4.892  0.3739 -0.1408 -0.2976
 8890SOL    HW127569   6.847   0.850   4.866  0.3187  0.6099 -0.8839
 8890SOL    HW227570   6.973   0.948   4.831 -0.4113  3.0371  2.7186
 8891SOL     OW27571   6.927   6.210   4.735  0.0352 -0.6058 -0.1585
 8891SOL    HW127572   7.020   6.181   4.713 -0.8562 -2.6497 -1.5610
 8891SOL    HW227573   6.882   6.141   4.791 -0.4358  0.7359  1.2004
 8892SOL     OW27574   0.432   2.932   5.512 -0.5123 -0.8694  0.9682
 8892SOL    HW127575   0.431   3.032   5.515  1.0744 -0.8526  2.8904
 8892SOL    HW227576   0.474   2.902   5.426  0.8330  0.1805  1.2120
 8893SOL     OW27577   4.716   2.558   1.762 -0.2604 -0.4878  0.2092
 8893SOL    HW127578   4.689   2.580   1.668 -0.3779  0.3868  0.4422
 8893SOL    HW227579   4.681   2.628   1.824 -1.1265 -1.6252  1.0527
 8894SOL     OW27580   5.651   3.249   6.210 -0.2465  0.1988 -0.2687
 8894SOL    HW127581   5.664   3.239   6.309  1.2405  1.9847 -0.2246
 8894SOL    HW227582   5.578   3.316   6.193 -1.8221 -1.4771 -0.4542
 8895SOL     OW27583   3.407   3.942   3.974  0.1320 -0.3432 -0.3685
 8895SOL    HW127584   3.458   3.985   4.049  0.9153  1.0059 -1.6116
 8895SOL    HW227585   3.435   3.847   3.965 -0.3260 -0.6733  1.3312
 8896SOL     OW27586   2.092   2.012   6.219  0.0170  0.3104 -0.3209
 8896SOL    HW127587   2.031   1.995   6.141 -0.2557  0.9739 -0.2577
 8896SOL    HW227588   2.058   1.961   6.299  1.4423 -2.0648 -1.1184
 8897SOL     OW27589   3.320   1.406   5.478 -0.0357  0.1033 -0.2969
 8897SOL    HW127590   3.333   1.330   5.415 -0.4162 -0.7271  0.5867
 8897SOL    HW227591   3.223   1.417   5.497  0.0718  0.3359  0.1402
 8898SOL     OW27592   6.907   2.351   4.833 -0.3130 -0.1948 -0.5817
 8898SOL    HW127593   6.985   2.304   4.874  1.6431  0.6690 -3.0689
 8898SOL    HW227594   6.881   2.429   4.890 -0.0483 -1.0641  0.7778
 8899SOL     OW27595   6.800   1.521   5.399 -0.5527 -0.3377  0.3842
 8899SOL    HW127596   6.737   1.459   5.446 -1.2909  0.3231  0.2970
 8899SOL    HW227597   6.762   1.614   5.400 -0.2601 -0.1840 -0.9223
 8900SOL     OW27598   1.607   5.171   3.645  0.2646  0.4170  0.2958
 8900SOL    HW127599   1.647   5.213   3.564 -0.2418 -1.2994 -0.8877
 8900SOL    HW227600   1.665   5.192   3.725  2.1387  0.1160 -0.9193
 8901SOL     OW27601   4.055   3.100   2.215 -0.0071  0.0716  0.1873
 8901SOL    HW127602   3.988   3.087   2.288  1.5224  1.9892  2.0525
 8901SOL    HW227603   4.147   3.092   2.253  0.8400  1.7269 -1.3818
 8902SOL     OW27604   1.961   0.836   1.189  0.3565 -0.3609  0.5075
 8902SOL    HW127605   1.965   0.933   1.214  0.9872  0.2102 -1.5988
 8902SOL    HW227606   1.866   0.807   1.179  0.1409  0.8799 -1.6389
 8903SOL     OW27607   4.084   2.131   0.527 -0.0514  0.6461 -0.0255
 8903SOL    HW127608   4.039   2.180   0.602  1.7475 -0.2487  1.7324
 8903SOL    HW227609   4.169   2.178   0.503 -1.2770  1.7337 -2.5775
 8904SOL     OW27610   6.006   0.913   1.829  0.5920 -0.6131 -0.5025
 8904SOL    HW127611   6.058   0.951   1.752  0.0410 -2.5773 -1.9383
 8904SOL    HW227612   6.042   0.822   1.851 -1.0234 -1.2121 -0.2547
 8905SOL     OW27613   1.059   2.286   6.255 -0.1117  0.0159  0.2788
 8905SOL    HW127614   1.090   2.267   6.348  0.7629 -0.0201 -0.0102
 8905SOL    HW227615   1.101   2.220   6.192  0.9454  1.2961 -0.4019
 8906SOL     OW27616   4.528   2.018   2.052  0.1822 -0.0590 -0.6758
 8906SOL    HW127617   4.597   1.983   1.988 -1.5026  0.1018 -2.6824
 8906SOL    HW227618   4.449   2.050   2.001 -0.9395  0.8250  1.4983
 8907SOL     OW27619   3.265   4.604   6.669  0.1622 -0.2538 -0.0472
 8907SOL    HW127620   3.312   4.643   6.589  0.0643  0.5396  0.2668
 8907SOL    HW227621   3.257   4.674   6.740 -1.8717 -0.2197 -0.2501
 8908SOL     OW27622   5.258   2.138   2.372  0.5696  0.5627 -0.3292
 8908SOL    HW127623   5.305   2.214   2.327  0.4904  0.3787 -0.7265
 8908SOL    HW227624   5.207   2.085   2.304 -1.0583  1.3442  0.2302
 8909SOL     OW27625   3.741   5.794   1.285 -0.1638 -0.2255  0.6322
 8909SOL    HW127626   3.718   5.707   1.242 -0.0142 -0.4843  1.0728
 8909SOL    HW227627   3.825   5.831   1.245 -1.2501  0.6840 -0.9300
 8910SOL     OW27628   1.657   2.217   3.412  0.3314 -0.2879 -0.2567
 8910SOL    HW127629   1.610   2.207   3.500  1.3983 -0.8762  0.2630
 8910SOL    HW227630   1.708   2.133   3.392  1.3698  0.4275 -0.6745
 8911SOL     OW27631   6.381   0.786   5.113 -1.0609 -0.2435 -0.7518
 8911SOL    HW127632   6.377   0.694   5.150 -0.9264 -1.3222 -3.2728
 8911SOL    HW227633   6.288   0.817   5.091 -1.2711  0.8614  1.3835
 8912SOL     OW27634   1.943   0.897   0.900  0.3548 -0.1808  0.5097
 8912SOL    HW127635   1.973   0.864   0.990 -2.3946  0.7437  1.8646
 8912SOL    HW227636   1.914   0.992   0.907 -0.3317 -0.2229 -1.2773
 8913SOL     OW27637   6.744   6.562   4.928  0.0832 -0.5044  0.2100
 8913SOL    HW127638   6.767   6.514   4.844 -2.5584  0.9360 -1.4476
 8913SOL    HW227639   6.750   6.660   4.913 -1.0033 -0.2127  1.5219
 8914SOL     OW27640   3.193   2.526   5.645 -0.9835  0.5637 -0.0177
 8914SOL    HW127641   3.171   2.433   5.676  0.2788 -0.0827 -0.9306
 8914SOL    HW227642   3.162   2.538   5.551 -0.4839  0.8082 -0.1533
 8915SOL     OW27643   0.604   4.715   0.877 -0.3653 -0.1896  0.0644
 8915SOL    HW127644   0.695   4.711   0.836 -0.2422  1.6385  0.1039
 8915SOL    HW227645   0.588   4.805   0.916 -1.9328 -0.7020  0.7115
 8916SOL     OW27646   5.113   1.451   3.280  0.2036 -0.0337  0.0287
 8916SOL    HW127647   5.062   1.532   3.309 -1.1107 -0.0708 -2.0541
 8916SOL    HW227648   5.193   1.440   3.340 -1.4503  0.7760  2.5490
 8917SOL     OW27649   6.989   2.204   6.058 -0.5519 -0.0539  0.3623
 8917SOL    HW127650   6.921   2.140   6.095 -1.8976 -0.9729 -3.3144
 8917SOL    HW227651   6.945   2.289   6.032  0.5174  0.9118  1.5826
 8918SOL     OW27652   0.977   5.207   5.077 -0.2039 -0.3575 -0.6647
 8918SOL    HW127653   1.039   5.232   5.003  0.6960 -2.3238 -0.6209
 8918SOL    HW227654   0.935   5.290   5.114  1.4700  0.9139 -1.4764
 8919SOL     OW27655   4.164   6.015   0.716 -0.9251  0.2796 -0.5953
 8919SOL    HW127656   4.157   6.057   0.626  0.8960  3.0643  0.4403
 8919SOL    HW227657   4.207   5.925   0.708  0.8476  1.2208 -2.3776
 8920SOL     OW27658   3.202   4.875   5.701 -0.7003 -0.0552 -0.2580
 8920SOL    HW127659   3.222   4.877   5.603 -2.3779  1.3555 -0.6312
 8920SOL    HW227660   3.261   4.940   5.749  0.4244 -1.0640 -0.2370
 8921SOL     OW27661   2.841   4.693   6.111 -0.0055 -0.1419 -0.2991
 8921SOL    HW127662   2.917   4.661   6.168 -0.0509 -0.5201 -0.4460
 8921SOL    HW227663   2.781   4.616   6.089  0.1013 -0.0346 -0.9964
 8922SOL     OW27664   3.293   1.159   5.301 -0.4988 -0.5791  0.8130
 8922SOL    HW127665   3.333   1.104   5.228  0.0685  0.4431  0.3260
 8922SOL    HW227666   3.213   1.112   5.338 -1.5457 -0.6099 -1.2974
 8923SOL     OW27667   5.970   1.642   3.163 -0.5207  0.5262 -0.3862
 8923SOL    HW127668   5.892   1.639   3.225 -0.8503  0.7811 -0.7786
 8923SOL    HW227669   5.992   1.737   3.141  0.9546  0.5383  1.0134
 8924SOL     OW27670   6.351   0.018   6.189 -0.1953 -0.4325 -0.4817
 8924SOL    HW127671   6.291  -0.007   6.113  0.1843 -1.0046 -0.5995
 8924SOL    HW227672   6.380  -0.065   6.237 -1.7555 -0.0073  1.3194
 8925SOL     OW27673   2.870   2.173   3.885 -0.6616  0.0337 -0.4404
 8925SOL    HW127674   2.813   2.091   3.884  0.1683 -0.5671 -0.0787
 8925SOL    HW227675   2.823   2.245   3.935  0.0327 -1.3429  2.4166
 8926SOL     OW27676   4.396   4.715   2.326  0.5001  0.1632 -0.3546
 8926SOL    HW127677   4.324   4.722   2.256  1.8267  0.6230 -1.7445
 8926SOL    HW227678   4.478   4.761   2.293  1.9863 -1.7638  0.4588
 8927SOL     OW27679   6.514   3.057   2.038 -0.4596  0.3346  0.2444
 8927SOL    HW127680   6.444   3.121   2.071 -0.3719  0.5785 -0.0439
 8927SOL    HW227681   6.588   3.108   1.994  1.1128  0.3148  2.6420
 8928SOL     OW27682   5.126   4.037   5.940  0.1877  0.3050  0.3762
 8928SOL    HW127683   5.070   3.982   6.003 -0.2990  0.4179  0.0560
 8928SOL    HW227684   5.118   3.999   5.847  1.6903 -0.4635  0.5355
 8929SOL     OW27685   4.309   0.249   3.200 -0.3086  0.1567 -0.0273
 8929SOL    HW127686   4.282   0.154   3.219  0.6847 -0.4687 -1.4884
 8929SOL    HW227687   4.307   0.264   3.101 -0.2220  1.6142  0.1745
 8930SOL     OW27688   1.211   0.096   5.243  0.2458 -1.1302  0.7164
 8930SOL    HW127689   1.162   0.022   5.290  0.4765 -0.7126  1.6361
 8930SOL    HW227690   1.146   0.167   5.216  0.3774 -0.3306  2.4000
 8931SOL     OW27691   1.233   4.356   4.731  0.5402  0.0121  0.0301
 8931SOL    HW127692   1.174   4.420   4.781  1.6737  1.0826  0.0478
 8931SOL    HW227693   1.193   4.264   4.734  0.2839  0.1260  2.4734
 8932SOL     OW27694   4.898   5.012   1.358  0.1158  0.8908 -0.3702
 8932SOL    HW127695   4.970   5.079   1.347  1.1135 -0.0916 -0.0319
 8932SOL    HW227696   4.936   4.920   1.345 -1.0470  0.3500 -0.0751
 8933SOL     OW27697   1.765   6.170   1.746 -0.5924 -0.3078 -0.0676
 8933SOL    HW127698   1.806   6.140   1.833  2.4569  1.1082 -0.8763
 8933SOL    HW227699   1.693   6.107   1.720 -0.3907 -1.7921  2.5920
 8934SOL     OW27700   6.852   2.658   3.321  0.2086 -0.0478  0.4128
 8934SOL    HW127701   6.893   2.746   3.347  0.8304 -0.2502  0.1358
 8934SOL    HW227702   6.804   2.619   3.399  0.5187  0.2077  0.7332
 8935SOL     OW27703   4.967   3.324   2.191 -0.0868  0.6135 -0.7166
 8935SOL    HW127704   4.928   3.316   2.099 -1.2955 -2.4591 -0.0631
 8935SOL    HW227705   4.935   3.248   2.247 -0.6007  3.1870  2.7586
 8936SOL     OW27706   2.247   5.461   5.018 -0.1495  1.2475 -0.2627
 8936SOL    HW127707   2.172   5.416   4.970 -0.1271  1.2413 -0.2917
 8936SOL    HW227708   2.323   5.397   5.028 -0.7637  0.7089  1.2280
 8937SOL     OW27709   4.267   1.498   3.454  0.1621 -0.1964 -0.6252
 8937SOL    HW127710   4.245   1.502   3.551 -2.0059 -3.1918 -0.8557
 8937SOL    HW227711   4.364   1.517   3.441  0.5933 -0.1110  2.1524
 8938SOL     OW27712   1.273   1.179   6.087  0.1428 -0.4509 -0.2019
 8938SOL    HW127713   1.344   1.107   6.086  0.3950 -0.2005 -0.7089
 8938SOL    HW227714   1.208   1.162   6.013  0.5313  0.1655 -0.6887
 8939SOL     OW27715   3.800   2.263   1.662 -0.4199 -0.4936 -0.0537
 8939SOL    HW127716   3.752   2.209   1.594 -1.3488  0.1525  0.0726
 8939SOL    HW227717   3.737   2.291   1.734 -0.7684  3.0584 -1.4922
 8940SOL     OW27718   3.129   3.701   0.579 -0.2485 -0.4268 -0.2677
 8940SOL    HW127719   3.095   3.773   0.639  0.6714 -0.2226  0.0357
 8940SOL    HW227720   3.150   3.740   0.489  1.3008 -0.0488  0.2288
 8941SOL     OW27721   0.533   0.766   1.587 -0.7871  0.8189 -0.5354
 8941SOL    HW127722   0.529   0.866   1.580  0.1197  0.8670 -0.3898
 8941SOL    HW227723   0.625   0.737   1.614 -0.3254 -0.1916 -2.9193
 8942SOL     OW27724   4.505   2.439   3.407 -0.5150 -0.0129 -0.1333
 8942SOL    HW127725   4.536   2.478   3.320 -1.0995  0.7238 -0.0210
 8942SOL    HW227726   4.517   2.507   3.480  0.4092 -0.7788  0.4631
 8943SOL     OW27727   6.199   3.218   1.139  0.4179  0.3972  0.3117
 8943SOL    HW127728   6.250   3.282   1.197  0.0127  0.0103  1.1020
 8943SOL    HW227729   6.137   3.269   1.079  2.6197  0.9977 -1.6256
 8944SOL     OW27730   1.496   0.920   6.636  0.2450 -0.5688  0.1426
 8944SOL    HW127731   1.567   0.946   6.701  0.6354  0.5145 -0.6881
 8944SOL    HW227732   1.416   0.887   6.686  0.7813 -0.3963  1.1401
 8945SOL     OW27733   4.084   1.471   4.074  0.1154 -0.4220 -0.1229
 8945SOL    HW127734   4.052   1.480   4.169  0.9650 -0.3281  0.1588
 8945SOL    HW227735   4.084   1.561   4.030 -1.5547 -0.6431 -0.6476
 8946SOL     OW27736   0.659   4.138   3.572  0.2768  0.4420  0.1371
 8946SOL    HW127737   0.638   4.235   3.590 -0.1232  0.3477  0.1861
 8946SOL    HW227738   0.611   4.108   3.490 -0.9616 -0.1717  1.0585
 8947SOL     OW27739   3.478   1.481   6.931 -0.5983 -0.3497  0.5202
 8947SOL    HW127740   3.567   1.436   6.926 -0.9117 -0.9214 -0.0982
 8947SOL    HW227741   3.467   1.523   7.021 -0.1225 -1.1565  0.9696
 8948SOL     OW27742   1.581   6.295   1.955  0.0952  1.1406 -0.5217
 8948SOL    HW127743   1.633   6.244   1.886  1.3030  0.3507  0.9091
 8948SOL    HW227744   1.493   6.249   1.971  1.6505 -1.3627  1.6087
 8949SOL     OW27745   4.994   1.333   6.882 -0.0567  0.1928  0.9143
 8949SOL    HW127746   5.082   1.309   6.923 -0.1882 -0.8116  0.6496
 8949SOL    HW227747   5.008   1.403   6.812  0.3755  0.8162  1.6075
 8950SOL     OW27748   6.534   0.156   5.262  0.3907 -0.0166  0.1393
 8950SOL    HW127749   6.604   0.225   5.244 -0.7886  0.5336 -3.0448
 8950SOL    HW227750   6.573   0.064   5.251  0.9207  0.2485 -0.1961
 8951SOL     OW27751   3.152   6.757   2.550  0.1388 -0.5053 -0.1865
 8951SOL    HW127752   3.132   6.660   2.565 -1.6758  0.3057  4.3087
 8951SOL    HW227753   3.240   6.779   2.592  0.1253 -0.0230 -0.4052
 8952SOL     OW27754   0.412   0.155   5.542  0.0970  0.8189 -0.0058
 8952SOL    HW127755   0.369   0.102   5.469 -0.4953  0.3855  0.6454
 8952SOL    HW227756   0.365   0.243   5.551 -0.3238  0.5612  0.3532
 8953SOL     OW27757   2.871   6.627   1.850 -0.3392  0.6556 -0.2199
 8953SOL    HW127758   2.951   6.640   1.791 -0.9034  0.5484 -1.0095
 8953SOL    HW227759   2.844   6.531   1.849  0.7979  0.2589  1.7232
 8954SOL     OW27760   5.135   4.591   5.891 -0.1134  0.1443 -0.2275
 8954SOL    HW127761   5.115   4.577   5.794 -0.0880 -0.1884 -0.1894
 8954SOL    HW227762   5.169   4.505   5.930  0.7103  0.4987 -0.1288
 8955SOL     OW27763   5.765   4.146   3.266  0.7833 -0.1828  0.5617
 8955SOL    HW127764   5.786   4.077   3.197 -0.6805  1.1330 -1.3121
 8955SOL    HW227765   5.849   4.194   3.292  1.1448  0.6729 -1.9206
 8956SOL     OW27766   5.909   6.747   1.776 -0.5326 -0.4929 -0.2891
 8956SOL    HW127767   5.920   6.675   1.844  0.2229  0.0242  0.1421
 8956SOL    HW227768   5.852   6.713   1.701  0.0082 -1.6151 -0.2108
 8957SOL     OW27769   1.913   5.550   0.306 -0.4156  0.2901 -0.2033
 8957SOL    HW127770   1.953   5.614   0.241 -2.9994  0.6796 -1.5069
 8957SOL    HW227771   1.932   5.456   0.276  0.2795  0.4479 -0.2741
 8958SOL     OW27772   6.287   5.307   0.842  0.2135 -0.1914 -0.3344
 8958SOL    HW127773   6.282   5.248   0.761 -0.0043 -2.6738  1.3720
 8958SOL    HW227774   6.203   5.297   0.896 -0.5841  3.0589 -0.7804
 8959SOL     OW27775   6.914   4.631   5.401  0.4328  0.7960  0.0155
 8959SOL    HW127776   6.923   4.542   5.356 -1.1509 -0.3909  1.9101
 8959SOL    HW227777   7.000   4.680   5.394  1.8389 -1.5056  0.2021
 8960SOL     OW27778   0.824   3.029   2.224  0.2573  0.0065 -0.1454
 8960SOL    HW127779   0.904   3.085   2.203  0.8973 -0.2928  1.3911
 8960SOL    HW227780   0.852   2.949   2.277 -1.1492  0.2648  1.0336
 8961SOL     OW27781   1.628   1.276   6.803  0.0172 -0.2067 -0.3735
 8961SOL    HW127782   1.640   1.349   6.871  0.0814 -0.0565 -0.5444
 8961SOL    HW227783   1.700   1.284   6.733 -0.3780 -0.0233 -0.7596
 8962SOL     OW27784   3.943   0.302   5.594  0.2606 -0.4101 -0.1081
 8962SOL    HW127785   3.924   0.255   5.680 -0.1523 -1.8583 -0.9648
 8962SOL    HW227786   3.954   0.236   5.520 -2.3932  0.8117 -1.7821
 8963SOL     OW27787   5.592   1.727   4.401 -0.3653 -0.7909  0.1037
 8963SOL    HW127788   5.625   1.688   4.315  1.3929  0.6565  0.0751
 8963SOL    HW227789   5.551   1.816   4.384  1.6594  0.3631  0.9134
 8964SOL     OW27790   3.575   1.994   5.165  0.3863 -0.5677  0.3281
 8964SOL    HW127791   3.657   2.043   5.137  0.9931 -0.5698  1.9702
 8964SOL    HW227792   3.495   2.053   5.152  1.0208  0.6378  1.6126
 8965SOL     OW27793   5.114   5.409   2.147  0.1945  0.2599  0.2927
 8965SOL    HW127794   5.073   5.399   2.238 -0.0786  1.6029  0.3392
 8965SOL    HW227795   5.077   5.338   2.086  2.2963 -2.3665  1.8092
 8966SOL     OW27796   5.608   6.084   6.254 -1.2687 -0.0524  0.1461
 8966SOL    HW127797   5.676   6.068   6.182  0.2705  2.0681  1.0142
 8966SOL    HW227798   5.609   6.008   6.319  0.2187 -0.1131  0.0787
 8967SOL     OW27799   2.607   4.602   1.235  0.4297  0.0531 -0.1719
 8967SOL    HW127800   2.646   4.689   1.266  0.3146 -0.8182  2.8021
 8967SOL    HW227801   2.511   4.597   1.263 -0.4537  0.1121 -2.9559
 8968SOL     OW27802   4.491   6.105   1.416 -0.1058  0.0460  0.0998
 8968SOL    HW127803   4.457   6.075   1.505  0.0511  0.2747  0.2358
 8968SOL    HW227804   4.584   6.071   1.402 -0.6082 -1.1190 -0.5408
 8969SOL     OW27805   3.125   1.453   4.697 -0.0985  0.1530  0.2939
 8969SOL    HW127806   3.136   1.473   4.600  0.4362 -1.8556 -0.0996
 8969SOL    HW227807   3.213   1.426   4.736 -0.4522  0.2391  1.1753
 8970SOL     OW27808   5.948   4.993   5.992  0.0388 -0.2401 -0.1124
 8970SOL    HW127809   6.005   4.948   6.061 -0.3973  0.9191  1.0503
 8970SOL    HW227810   5.854   4.963   6.002 -0.1462  0.4530  0.2664
 8971SOL     OW27811   0.590   6.406   4.859  0.0041 -0.3134 -0.6126
 8971SOL    HW127812   0.654   6.337   4.824  2.4633  1.0202  0.9423
 8971SOL    HW227813   0.567   6.471   4.786  2.3972  0.5284 -0.7141
 8972SOL     OW27814   6.092   5.084   3.587 -0.3242  0.7164 -0.4856
 8972SOL    HW127815   6.111   4.999   3.538 -1.2690  1.8594 -3.0070
 8972SOL    HW227816   6.171   5.145   3.582 -0.6796  1.1231 -1.2696
 8973SOL     OW27817   6.245   2.216   0.882 -0.1025 -0.1578 -0.6465
 8973SOL    HW127818   6.244   2.116   0.872 -0.1572 -0.3659  1.0587
 8973SOL    HW227819   6.339   2.248   0.884 -0.0853 -0.1532 -1.2558
 8974SOL     OW27820   2.451   6.096   5.829  0.2156 -0.9052 -0.3218
 8974SOL    HW127821   2.400   6.172   5.868 -0.0787 -1.1303 -0.2636
 8974SOL    HW227822   2.510   6.129   5.755 -0.3494 -0.7079 -0.6948
 8975SOL     OW27823   5.297   0.401   4.176  0.3525 -0.4701  0.0192
 8975SOL    HW127824   5.360   0.343   4.228 -1.2201 -0.1131  2.4672
 8975SOL    HW227825   5.208   0.356   4.169 -0.1005  0.4777 -0.4535
 8976SOL     OW27826   1.492   2.156   5.612 -0.4216  0.0479  0.5889
 8976SOL    HW127827   1.518   2.059   5.617  0.4117  0.3258  2.9851
 8976SOL    HW227828   1.425   2.169   5.539  2.2824 -1.6317 -2.4650
 8977SOL     OW27829   5.323   1.574   5.943 -0.0551  0.5779 -0.0446
 8977SOL    HW127830   5.403   1.524   5.977  0.5194 -0.3432 -2.5397
 8977SOL    HW227831   5.340   1.672   5.950 -0.3071  0.5008  2.9007
 8978SOL     OW27832   2.235   4.269   4.498 -0.0187 -0.1854  0.5616
 8978SOL    HW127833   2.232   4.288   4.399 -1.2988 -0.7513  0.4816
 8978SOL    HW227834   2.328   4.287   4.531 -0.2709  3.1473 -0.0976
 8979SOL     OW27835   2.098   0.559   4.219 -0.2034 -0.2732 -0.0844
 8979SOL    HW127836   2.107   0.594   4.126 -0.6984  0.5657  0.1754
 8979SOL    HW227837   2.052   0.626   4.276  1.0630 -0.3058  1.0360
 8980SOL     OW27838   0.230   6.384   1.397  0.0415 -0.5327  0.3554
 8980SOL    HW127839   0.302   6.325   1.360 -1.5588 -1.5028 -1.3925
 8980SOL    HW227840   0.238   6.475   1.357  0.9984 -0.2970  1.0795
 8981SOL     OW27841   5.197   3.675   2.374 -0.4639  0.0672 -0.5134
 8981SOL    HW127842   5.207   3.579   2.400  0.4154 -0.3605 -2.3319
 8981SOL    HW227843   5.129   3.682   2.301 -0.1612  0.7691 -0.7294
 8982SOL     OW27844   3.984   3.409   2.698 -0.3926 -0.4016  0.5356
 8982SOL    HW127845   3.934   3.400   2.612  0.0427  1.2850  0.0697
 8982SOL    HW227846   3.980   3.504   2.730 -0.8871 -1.0560  2.6078
 8983SOL     OW27847   0.242   2.220   2.503  0.0498  0.3452  0.1948
 8983SOL    HW127848   0.143   2.216   2.503 -0.1197 -0.2533  4.2905
 8983SOL    HW227849   0.272   2.309   2.538  0.7723 -0.4892  1.8454
 8984SOL     OW27850   5.457   4.891   3.775 -0.0856  0.1687 -0.1332
 8984SOL    HW127851   5.489   4.970   3.827 -0.1939 -0.1635  0.4497
 8984SOL    HW227852   5.465   4.809   3.832 -0.7577 -0.1141 -0.4432
 8985SOL     OW27853   3.258   3.433   3.024  0.9664  0.5882  0.1630
 8985SOL    HW127854   3.264   3.532   3.033 -0.6482  0.8125 -0.9143
 8985SOL    HW227855   3.223   3.394   3.109 -1.5044  1.3093 -0.4533
 8986SOL     OW27856   5.901   1.777   0.072 -0.3434 -0.0275 -0.4161
 8986SOL    HW127857   5.994   1.813   0.071  0.2442 -1.3385  1.4549
 8986SOL    HW227858   5.898   1.690   0.023 -0.6128  0.0690 -0.5723
 8987SOL     OW27859   1.707   6.606   4.687 -0.2334 -0.3498  0.1249
 8987SOL    HW127860   1.699   6.678   4.755  0.1813 -1.2021  1.0933
 8987SOL    HW227861   1.776   6.632   4.619 -0.8669  0.6337 -0.1696
 8988SOL     OW27862   0.330   0.511   4.911 -0.3673  0.3714  0.0819
 8988SOL    HW127863   0.262   0.494   4.982 -0.2276  0.1918  0.1739
 8988SOL    HW227864   0.406   0.448   4.922 -0.3763  0.2964 -0.2700
 8989SOL     OW27865   1.070   2.821   3.389  0.5759  0.2205  0.1866
 8989SOL    HW127866   1.092   2.761   3.466 -0.1096 -0.3315 -0.0356
 8989SOL    HW227867   1.042   2.910   3.424  0.7045  0.1194  0.5579
 8990SOL     OW27868   2.251   1.827   3.664 -0.1352  0.4170  0.2181
 8990SOL    HW127869   2.156   1.853   3.682 -0.9626 -0.8522 -1.9471
 8990SOL    HW227870   2.297   1.902   3.617  0.1751  1.2688  1.7905
 8991SOL     OW27871   2.095   0.147   6.514  0.2295  0.5353 -0.7163
 8991SOL    HW127872   2.166   0.094   6.560 -0.9957 -0.3016  0.2824
 8991SOL    HW227873   2.054   0.092   6.442 -0.2863  0.5259 -0.4206
 8992SOL     OW27874   1.121   7.006   4.616  0.0271 -0.0809 -0.3355
 8992SOL    HW127875   1.051   6.936   4.610  1.4530 -1.6771  0.6520
 8992SOL    HW227876   1.107   7.060   4.699  0.4153 -0.9444  0.3087
 8993SOL     OW27877   4.875   1.324   2.363  0.1357  0.5314 -0.0157
 8993SOL    HW127878   4.875   1.334   2.263  1.2273  0.7607 -0.0098
 8993SOL    HW227879   4.950   1.378   2.401  0.7852 -0.8835  0.7806
 8994SOL     OW27880   5.831   5.398   5.993 -0.5492 -0.0876  0.1417
 8994SOL    HW127881   5.878   5.354   5.916 -0.1624  0.1463  0.2414
 8994SOL    HW227882   5.847   5.497   5.990 -0.3384 -0.1029  0.6507
 8995SOL     OW27883   0.419   4.220   1.408  0.0559 -0.0780 -0.6304
 8995SOL    HW127884   0.484   4.155   1.448 -1.5489 -0.7808  0.9959
 8995SOL    HW227885   0.356   4.252   1.479 -0.4937  1.6909 -1.8380
 8996SOL     OW27886   0.763   1.026   0.426 -0.7428 -0.1629  0.2454
 8996SOL    HW127887   0.790   1.040   0.521 -0.1792 -3.6070  0.7117
 8996SOL    HW227888   0.677   0.976   0.422 -0.4361 -0.6345 -1.0116
 8997SOL     OW27889   3.169   5.914   2.834 -0.2135 -0.0227  0.3050
 8997SOL    HW127890   3.177   5.873   2.925  1.0861  0.2386  0.3298
 8997SOL    HW227891   3.245   5.882   2.777  0.4212  1.7594  0.1014
 8998SOL     OW27892   5.667   3.358   2.579 -0.3752 -0.1827 -0.1492
 8998SOL    HW127893   5.672   3.258   2.588  1.0569 -0.0910  0.3770
 8998SOL    HW227894   5.615   3.395   2.655 -0.4565 -0.4951 -0.0503
 8999SOL     OW27895   1.742   5.857   1.880 -0.3966 -0.2079  0.7806
 8999SOL    HW127896   1.674   5.801   1.928  1.3150 -2.4142  0.7820
 8999SOL    HW227897   1.800   5.903   1.946 -1.4333  1.2047  0.7704
 9000SOL     OW27898   1.997   6.498   2.547  0.3412 -0.5696 -0.6642
 9000SOL    HW127899   1.899   6.486   2.532  0.0791 -0.3955  0.7657
 9000SOL    HW227900   2.012   6.569   2.617  1.5207  0.1083 -1.5490
 9001SOL     OW27901   3.983   2.404   6.791  0.4281 -0.2318  0.1076
 9001SOL    HW127902   3.903   2.410   6.732 -0.3142 -0.0041  1.1038
 9001SOL    HW227903   3.983   2.316   6.839 -0.6143  0.7317  1.9818
 9002SOL     OW27904   3.600   0.339   2.931 -0.0671  0.4685 -0.3624
 9002SOL    HW127905   3.575   0.430   2.898 -0.7407  0.1814 -0.6574
 9002SOL    HW227906   3.700   0.331   2.935  0.0884  0.2165 -3.1880
 9003SOL     OW27907   3.489   4.982   6.100  0.2533  0.3659  0.3604
 9003SOL    HW127908   3.494   4.883   6.087 -1.4609  0.3366 -0.4524
 9003SOL    HW227909   3.552   5.027   6.037 -1.9439 -0.1254 -2.3911
 9004SOL     OW27910   6.602   0.707   4.451  0.7626  0.2447 -0.1366
 9004SOL    HW127911   6.688   0.666   4.482  0.0105 -1.2009  0.1712
 9004SOL    HW227912   6.607   0.726   4.353  0.8092 -1.6207 -0.5424
 9005SOL     OW27913   3.206   6.301   4.855 -0.1433  0.2861  0.3407
 9005SOL    HW127914   3.276   6.241   4.895 -1.2005 -1.0451  0.2621
 9005SOL    HW227915   3.234   6.328   4.763  0.4469  0.1089  0.4607
 9006SOL     OW27916   1.411   2.145   1.979 -0.3827 -0.1025 -0.0975
 9006SOL    HW127917   1.414   2.045   1.978 -1.2840 -0.1396 -0.8942
 9006SOL    HW227918   1.497   2.181   1.943 -1.2067 -0.6718 -2.9293
 9007SOL     OW27919   6.278   1.467   2.817 -0.0131 -0.7042 -0.6744
 9007SOL    HW127920   6.350   1.423   2.871  0.4307  1.5796  0.7535
 9007SOL    HW227921   6.319   1.538   2.759 -1.0063  0.1159 -0.4074
 9008SOL     OW27922   6.523   5.636   2.079  0.5911 -0.2101  0.2993
 9008SOL    HW127923   6.540   5.577   2.000  1.2048  1.5082 -0.9121
 9008SOL    HW227924   6.457   5.591   2.140  1.2075 -2.2205 -0.4154
 9009SOL     OW27925   4.029   6.176   4.324  0.3324 -0.6656 -0.2629
 9009SOL    HW127926   4.079   6.091   4.338 -0.5751 -1.2616 -0.5354
 9009SOL    HW227927   4.009   6.187   4.226 -1.2533 -1.1526 -0.0274
 9010SOL     OW27928   1.728   2.316   5.715  0.1819 -0.3888  0.3052
 9010SOL    HW127929   1.710   2.267   5.800  1.8787 -2.0564 -0.2253
 9010SOL    HW227930   1.770   2.254   5.649  1.6921  1.5859 -0.7067
 9011SOL     OW27931   3.833   5.227   4.714 -0.3303 -0.0067 -0.4557
 9011SOL    HW127932   3.802   5.275   4.795  1.2078  0.9715 -0.4272
 9011SOL    HW227933   3.827   5.287   4.634  0.0020 -0.3215 -0.7256
 9012SOL     OW27934   1.503   1.027   3.835 -0.1096  0.3831  0.3229
 9012SOL    HW127935   1.421   1.082   3.847 -0.3399  0.2481 -0.5843
 9012SOL    HW227936   1.486   0.934   3.868 -1.4261 -0.5755 -2.7206
 9013SOL     OW27937   5.910   5.675   4.046 -0.2486  0.3063 -0.1659
 9013SOL    HW127938   5.903   5.766   4.007 -2.0270  0.1915 -0.1881
 9013SOL    HW227939   6.000   5.664   4.089  0.6063  1.4697 -1.5722
 9014SOL     OW27940   5.476   5.338   0.362 -0.1190 -0.4683  0.2222
 9014SOL    HW127941   5.378   5.321   0.349 -0.1239  0.0649 -0.4933
 9014SOL    HW227942   5.513   5.384   0.281  0.8740 -1.2845  0.1935
 9015SOL     OW27943   2.451   5.122   5.224  0.2529  0.5481 -0.2637
 9015SOL    HW127944   2.449   5.181   5.143  2.9104  1.3487  0.1536
 9015SOL    HW227945   2.546   5.100   5.246 -0.4793 -0.6480  1.9557
 9016SOL     OW27946   5.819   3.148   0.647 -0.3195  0.7964 -0.3626
 9016SOL    HW127947   5.888   3.080   0.670 -0.4638  0.6392 -0.3947
 9016SOL    HW227948   5.771   3.120   0.564  1.0158  1.9466 -1.5745
 9017SOL     OW27949   3.695   3.866   0.435  0.6732 -0.1673 -0.1864
 9017SOL    HW127950   3.624   3.816   0.485 -0.6655  2.6309  0.9357
 9017SOL    HW227951   3.687   3.847   0.337  1.0089 -2.9578  0.2593
 9018SOL     OW27952   5.123   6.758   5.589 -0.5295 -1.2096  0.5453
 9018SOL    HW127953   5.174   6.681   5.628 -0.3010 -1.8793 -0.9960
 9018SOL    HW227954   5.026   6.748   5.612 -0.3405 -1.3013  1.3505
 9019SOL     OW27955   1.245   1.388   4.680 -0.5292  0.1052  1.0402
 9019SOL    HW127956   1.231   1.369   4.583  2.3619 -0.0446  0.5367
 9019SOL    HW227957   1.232   1.304   4.733 -0.0907 -0.3165  0.4858
 9020SOL     OW27958   0.466   6.064   5.108 -0.4690 -0.0118  0.0012
 9020SOL    HW127959   0.559   6.102   5.109 -0.6393  0.4936 -1.2392
 9020SOL    HW227960   0.431   6.059   5.201  0.5553  0.4280  0.4254
 9021SOL     OW27961   1.433   0.292   3.762  0.2237 -0.2437  0.0325
 9021SOL    HW127962   1.357   0.238   3.725  1.4774 -0.6386 -2.1529
 9021SOL    HW227963   1.422   0.387   3.735 -0.0079 -0.1067  0.5974
 9022SOL     OW27964   6.848   0.538   6.924  0.2242 -0.5480 -0.1464
 9022SOL    HW127965   6.853   0.607   6.996 -0.7495  1.3660 -1.8108
 9022SOL    HW227966   6.890   0.453   6.956 -1.2799 -0.2109  3.0896
 9023SOL     OW27967   4.285   0.064   0.843  0.9372 -0.0056  0.1738
 9023SOL    HW127968   4.313   0.016   0.760 -0.8438 -1.9873  0.6472
 9023SOL    HW227969   4.366   0.102   0.888  2.0547  0.1197 -1.8331
 9024SOL     OW27970   0.347   1.028   2.376  0.2253  0.1776  0.2033
 9024SOL    HW127971   0.440   1.014   2.411  0.6788  0.2627 -0.9330
 9024SOL    HW227972   0.347   1.019   2.276 -0.8459  0.9704  0.1170
 9025SOL     OW27973   4.351   0.238   4.680 -0.0521  0.2166  0.4020
 9025SOL    HW127974   4.347   0.330   4.641 -1.5850  0.1476  0.3511
 9025SOL    HW227975   4.442   0.223   4.720  1.5149  0.4345 -2.7524
 9026SOL     OW27976   0.056   1.681   1.155 -0.4223 -0.2880  0.1656
 9026SOL    HW127977  -0.042   1.677   1.175 -0.3781 -0.6916  0.2999
 9026SOL    HW227978   0.107   1.688   1.241 -0.4628  3.0952  0.0591
 9027SOL     OW27979   4.752   1.204   0.562 -0.5948 -0.1293  0.5733
 9027SOL    HW127980   4.691   1.158   0.627 -1.8996  1.2120  0.3573
 9027SOL    HW227981   4.757   1.150   0.478  1.0095 -1.8181  1.6829
 9028SOL     OW27982   2.677   2.785   0.367  0.2179  0.0646  0.0255
 9028SOL    HW127983   2.646   2.861   0.310 -1.0136 -0.9650 -0.7011
 9028SOL    HW227984   2.600   2.747   0.417  1.0276 -0.0066  1.2814
 9029SOL     OW27985   2.553   1.788   4.576  0.1580  0.7699 -0.5359
 9029SOL    HW127986   2.533   1.875   4.620  2.1261  1.0543 -0.1013
 9029SOL    HW227987   2.497   1.778   4.494  0.0663  2.5515 -0.7131
 9030SOL     OW27988   0.614   3.525   1.189 -0.0290  0.8988  0.1850
 9030SOL    HW127989   0.703   3.540   1.233  0.8290  3.3928 -2.1162
 9030SOL    HW227990   0.541   3.556   1.250  0.6571 -0.5896  1.8478
 9031SOL     OW27991   4.919   3.729   4.183  0.6206 -0.3697  0.2288
 9031SOL    HW127992   5.018   3.716   4.181  0.6486 -0.1340 -1.6840
 9031SOL    HW227993   4.874   3.646   4.151  0.3179  0.2545 -1.0275
 9032SOL     OW27994   2.475   4.273   6.306  0.6785  0.6263 -0.3610
 9032SOL    HW127995   2.558   4.324   6.330  0.9990 -0.2580  0.5144
 9032SOL    HW227996   2.394   4.324   6.334  1.0170  0.0006  2.0501
 9033SOL     OW27997   1.556   5.140   5.395 -0.3791 -0.1735 -0.7582
 9033SOL    HW127998   1.517   5.105   5.481 -2.4207 -2.3349 -2.4259
 9033SOL    HW227999   1.652   5.114   5.389 -0.4992 -0.9500  0.3963
 9034SOL     OW28000   4.906   5.162   2.822  0.5523  0.3876  0.7916
 9034SOL    HW128001   4.971   5.103   2.775 -2.2014 -0.7841 -1.8728
 9034SOL    HW228002   4.911   5.254   2.783  0.0277  0.0595 -0.0840
 9035SOL     OW28003   1.324   1.542   0.864 -0.0757  0.4151 -0.1982
 9035SOL    HW128004   1.269   1.513   0.786  0.0528  0.7025 -0.3965
 9035SOL    HW228005   1.342   1.464   0.923 -1.9354  0.5519  0.6573
 9036SOL     OW28006   3.335   1.002   2.169 -0.3820  0.4205  0.2255
 9036SOL    HW128007   3.395   1.081   2.183  2.5343 -1.9092  2.1317
 9036SOL    HW228008   3.286   0.982   2.253  0.5461 -0.9557  0.4764
 9037SOL     OW28009   2.884   5.855   5.402 -0.3880 -0.0387 -0.0555
 9037SOL    HW128010   2.858   5.776   5.346  0.7799  1.1017 -2.3345
 9037SOL    HW228011   2.808   5.880   5.462 -2.4888 -0.1089 -2.5410
 9038SOL     OW28012   4.315   0.075   3.661 -0.4955 -0.7679 -0.5697
 9038SOL    HW128013   4.371   0.158   3.662 -1.4405  0.0542 -3.8547
 9038SOL    HW228014   4.223   0.095   3.695 -0.6371 -0.5039 -1.0950
 9039SOL     OW28015   3.051   0.851   6.927 -0.5412  0.2849 -0.1561
 9039SOL    HW128016   3.081   0.927   6.985 -2.8474  0.8356  0.4239
 9039SOL    HW228017   2.957   0.826   6.951  0.2293 -3.0201 -0.0852
 9040SOL     OW28018   1.281   2.244   0.229 -0.7629 -0.6663 -0.1845
 9040SOL    HW128019   1.229   2.259   0.145 -0.1491  1.5982 -0.2280
 9040SOL    HW228020   1.379   2.253   0.211 -0.3899 -3.1019  0.2528
 9041SOL     OW28021   0.267   2.598   5.992  0.2525 -0.0449 -0.4094
 9041SOL    HW128022   0.194   2.583   6.058  1.7488 -0.9510  1.1212
 9041SOL    HW228023   0.329   2.520   5.993 -0.0732 -0.4571 -3.4957
 9042SOL     OW28024   4.620   6.104   1.754  0.0065  0.1476  0.0069
 9042SOL    HW128025   4.526   6.135   1.772 -0.3910 -0.7396 -0.4478
 9042SOL    HW228026   4.676   6.180   1.722 -0.6949  0.5793 -0.2086
 9043SOL     OW28027   0.515   4.202   2.211  0.1062 -0.5862  0.7885
 9043SOL    HW128028   0.508   4.265   2.133  0.2857 -0.8435  0.5606
 9043SOL    HW228029   0.441   4.136   2.206  1.1732 -1.7649 -0.2255
 9044SOL     OW28030   3.857   5.412   1.772 -0.0452 -0.1892 -0.1208
 9044SOL    HW128031   3.764   5.407   1.734 -0.3685 -1.4141  0.7862
 9044SOL    HW228032   3.893   5.504   1.758 -1.7772  0.6113  0.3827
 9045SOL     OW28033   0.635   4.941   4.560  0.7250  0.3306 -0.3493
 9045SOL    HW128034   0.632   4.881   4.640  0.6665  0.0336 -0.5675
 9045SOL    HW228035   0.699   4.903   4.493 -3.1356 -2.5672 -2.8601
 9046SOL     OW28036   6.961   1.084   1.493  0.2583  0.0767 -0.2738
 9046SOL    HW128037   7.033   1.101   1.560 -0.7174  0.3014  0.7427
 9046SOL    HW228038   6.938   1.170   1.447  0.3943  0.0725 -0.3505
 9047SOL     OW28039   0.626   5.274   1.716 -0.4445 -0.6035  0.5813
 9047SOL    HW128040   0.547   5.299   1.772 -0.1908  0.7469  0.3667
 9047SOL    HW228041   0.594   5.232   1.631 -1.0990  1.8972 -0.5080
 9048SOL     OW28042   6.726   1.367   4.340 -0.6378  0.1536 -0.5607
 9048SOL    HW128043   6.711   1.296   4.271  0.2249 -1.1392  0.5552
 9048SOL    HW228044   6.754   1.325   4.426  1.7860  1.9343 -0.3779
 9049SOL     OW28045   3.474   4.952   1.271 -0.5762 -0.1117 -0.0557
 9049SOL    HW128046   3.486   5.039   1.224  1.1890 -0.3411 -0.0646
 9049SOL    HW228047   3.517   4.878   1.219 -3.7871 -1.4230 -1.1310
 9050SOL     OW28048   6.467   1.114   2.333 -0.2393 -0.2057  0.1081
 9050SOL    HW128049   6.370   1.126   2.310  0.0434 -1.1427 -1.7988
 9050SOL    HW228050   6.485   1.017   2.348  0.5681 -0.1532 -0.4688
 9051SOL     OW28051   5.608   6.343   5.554 -0.8759 -0.6889 -0.0741
 9051SOL    HW128052   5.631   6.422   5.611  1.2659  1.0295 -3.0595
 9051SOL    HW228053   5.684   6.277   5.557 -0.5271 -0.3530 -1.2661
 9052SOL     OW28054   4.827   2.282   4.641 -0.5144 -0.2115 -0.2940
 9052SOL    HW128055   4.912   2.233   4.625 -0.2084 -0.2186  1.2072
 9052SOL    HW228056   4.765   2.226   4.696 -1.1657  0.1182 -0.6660
 9053SOL     OW28057   2.978   6.101   0.655  0.0233  0.3196  0.4060
 9053SOL    HW128058   2.928   6.159   0.591 -2.4541 -0.1737  1.7908
 9053SOL    HW228059   2.916   6.034   0.696  2.1047 -1.1894  1.3197
 9054SOL     OW28060   6.108   0.342   3.977 -0.9148 -0.3687  0.1903
 9054SOL    HW128061   6.161   0.405   4.034  0.7345 -1.2179 -0.3138
 9054SOL    HW228062   6.058   0.393   3.908 -0.2770  0.4550  0.3249
 9055SOL     OW28063   1.808   6.575   6.154 -0.1716 -0.0605 -0.1053
 9055SOL    HW128064   1.791   6.493   6.209 -1.4474  0.7518  0.7862
 9055SOL    HW228065   1.769   6.655   6.201  1.1932  1.0984 -0.8510
 9056SOL     OW28066   5.017   1.306   4.662  0.4859 -0.3716 -0.0030
 9056SOL    HW128067   4.931   1.261   4.688 -0.1697 -0.2487 -1.7999
 9056SOL    HW228068   5.066   1.249   4.598  1.9877 -0.6124  1.3069
 9057SOL     OW28069   4.626   1.869   3.777  0.2936  0.3373  0.4316
 9057SOL    HW128070   4.577   1.950   3.809  0.1815  0.7196 -0.6592
 9057SOL    HW228071   4.559   1.800   3.748  0.3832  0.8568 -1.0539
 9058SOL     OW28072   4.255   1.268   0.604 -0.1012 -0.1822  0.0575
 9058SOL    HW128073   4.325   1.319   0.553  2.6205 -2.9175  0.7976
 9058SOL    HW228074   4.208   1.331   0.667  1.8177  1.7602 -0.3226
 9059SOL     OW28075   5.395   5.124   2.076  0.2393  0.1573  0.0197
 9059SOL    HW128076   5.483   5.108   2.033 -0.7370 -1.2378 -1.5325
 9059SOL    HW228077   5.384   5.062   2.154  1.2104  1.3750  1.1771
 9060SOL     OW28078   2.705   3.433   0.199 -0.1501  0.7360 -0.3354
 9060SOL    HW128079   2.671   3.408   0.290 -0.7033  2.6970  0.0338
 9060SOL    HW228080   2.767   3.361   0.166 -1.2723 -0.8440  0.8245
 9061SOL     OW28081   1.971   1.235   1.679  0.4620 -0.3414  0.0973
 9061SOL    HW128082   2.023   1.285   1.610  2.6246 -1.5111  0.7623
 9061SOL    HW228083   2.013   1.248   1.768 -0.2055 -1.5896  0.6228
 9062SOL     OW28084   5.645   0.595   1.848  0.2846  0.0094 -0.0303
 9062SOL    HW128085   5.561   0.581   1.794 -0.1002  0.6408  0.3953
 9062SOL    HW228086   5.717   0.631   1.789  1.0431 -2.7683 -0.9767
 9063SOL     OW28087   3.908   3.106   3.684 -0.0570  0.2045  0.0427
 9063SOL    HW128088   3.955   3.128   3.769  1.7361 -1.2609 -0.4901
 9063SOL    HW228089   3.848   3.027   3.697  1.6489 -1.2511 -0.3745
 9064SOL     OW28090   4.281   1.594   6.194  0.1189 -0.2323  0.0823
 9064SOL    HW128091   4.237   1.662   6.136  1.0117  0.5835  0.3377
 9064SOL    HW228092   4.365   1.562   6.150  0.7618  0.3336  0.8650
 9065SOL     OW28093   1.798   2.982   1.700 -0.3948 -0.3995 -0.2343
 9065SOL    HW128094   1.890   2.944   1.690 -0.2032 -0.5712  1.8656
 9065SOL    HW228095   1.735   2.930   1.643  0.7696 -0.3415 -1.6323
 9066SOL     OW28096   6.442   0.352   5.664  0.1907 -0.3531 -0.0727
 9066SOL    HW128097   6.458   0.448   5.638  2.1943 -0.5377  0.3416
 9066SOL    HW228098   6.393   0.349   5.751  2.0456  0.3619  1.0588
 9067SOL     OW28099   0.433   2.981   1.482  0.0797 -0.6561 -0.1393
 9067SOL    HW128100   0.522   2.990   1.528  0.0089  2.7125 -0.3925
 9067SOL    HW228101   0.360   2.979   1.551  0.2176 -0.8694  0.0029
 9068SOL     OW28102   2.846   0.962   2.536 -0.3346  0.6506 -0.1546
 9068SOL    HW128103   2.869   0.881   2.589 -1.8483 -0.2892 -0.8615
 9068SOL    HW228104   2.840   1.041   2.597 -0.0604 -0.0080  0.7411
 9069SOL     OW28105   4.001   0.750   0.302 -0.7748  0.3710 -0.6495
 9069SOL    HW128106   3.935   0.824   0.289  0.2883  1.9012  1.8978
 9069SOL    HW228107   4.092   0.780   0.273 -0.3046  0.1575  0.5256
 9070SOL     OW28108   1.854   1.008   7.011 -0.1601 -0.2988 -0.7947
 9070SOL    HW128109   1.921   1.067   7.056 -0.5584  0.8442 -1.6448
 9070SOL    HW228110   1.899   0.926   6.978  0.9768  0.7155 -1.8655
 9071SOL     OW28111   3.911   5.601   0.602 -0.4276  0.3025 -0.7476
 9071SOL    HW128112   3.946   5.653   0.680  0.9347 -1.4536 -0.1058
 9071SOL    HW228113   3.827   5.643   0.569 -0.0205  2.1907  0.4563
 9072SOL     OW28114   0.987   3.851   6.108  0.1776 -0.2297  0.2832
 9072SOL    HW128115   1.046   3.906   6.049 -1.8466  1.6155 -0.1718
 9072SOL    HW228116   0.924   3.797   6.053  1.1674 -1.9549  0.7641
 9073SOL     OW28117   5.454   3.386   6.370 -0.5400  0.5051  0.0193
 9073SOL    HW128118   5.404   3.361   6.453  0.8863  0.8237  1.0142
 9073SOL    HW228119   5.550   3.403   6.393 -0.1957  0.9747 -1.6436
 9074SOL     OW28120   3.016   5.790   6.380  0.3550  0.5173 -0.0296
 9074SOL    HW128121   3.030   5.878   6.427  0.1516  0.1730  0.6976
 9074SOL    HW228122   2.974   5.725   6.444  0.1735  0.0002 -0.6713
 9075SOL     OW28123   1.934   0.139   0.578 -0.1212  0.3539  0.1830
 9075SOL    HW128124   1.996   0.214   0.604  1.7492 -1.1455  0.2767
 9075SOL    HW228125   1.914   0.083   0.659  0.9761 -0.9510 -0.4013
 9076SOL     OW28126   0.783   1.181   6.795  0.2889  0.0741 -0.1931
 9076SOL    HW128127   0.834   1.239   6.732 -1.2133 -0.0140 -1.5466
 9076SOL    HW228128   0.757   1.234   6.876  1.2121  0.5179 -0.1713
 9077SOL     OW28129   0.320   1.167   5.413  0.1009 -0.3229  0.1489
 9077SOL    HW128130   0.376   1.092   5.447 -0.0821 -0.6019 -0.1576
 9077SOL    HW228131   0.237   1.175   5.467  0.5830  0.3053  0.8169
 9078SOL     OW28132   0.129   0.816   0.539 -0.1742 -0.3903  0.1956
 9078SOL    HW128133   0.146   0.830   0.637  1.1415 -0.7709  0.0367
 9078SOL    HW228134   0.184   0.881   0.486 -0.2290 -0.7574 -0.3226
 9079SOL     OW28135   2.382   1.086   4.503  0.7490  0.0570 -0.0877
 9079SOL    HW128136   2.330   1.029   4.567  1.0778 -0.2554 -0.0944
 9079SOL    HW228137   2.365   1.183   4.522  0.7895 -0.0370  0.4230
 9080SOL     OW28138   5.673   5.416   1.500 -0.4044 -0.4103  0.3565
 9080SOL    HW128139   5.647   5.512   1.492  0.0394 -0.3780 -0.9803
 9080SOL    HW228140   5.666   5.387   1.595 -0.2743  1.0215  0.8247
 9081SOL     OW28141   6.570   6.799   4.985  0.4234  0.2191 -0.1504
 9081SOL    HW128142   6.655   6.817   4.935  0.0476  1.4841 -0.3461
 9081SOL    HW228143   6.518   6.729   4.936 -0.4527  2.1806 -2.1969
 9082SOL     OW28144   0.879   0.935   3.639 -0.0782 -0.7823 -0.3263
 9082SOL    HW128145   0.786   0.900   3.649  0.1958 -1.0036  2.3178
 9082SOL    HW228146   0.942   0.858   3.627  0.1235 -1.0277  1.8344
 9083SOL     OW28147   0.458   1.938   6.422 -0.2728 -0.1313 -0.0915
 9083SOL    HW128148   0.481   1.938   6.325 -0.1440 -1.2067 -0.0760
 9083SOL    HW228149   0.359   1.939   6.434 -0.2854  0.2221 -0.2291
 9084SOL     OW28150   4.109   0.899   1.494  0.3195 -0.2846  0.1236
 9084SOL    HW128151   4.013   0.926   1.493  0.1145 -0.7902  1.9765
 9084SOL    HW228152   4.149   0.920   1.584  1.9481 -0.0822 -0.6031
 9085SOL     OW28153   5.709   5.031   2.665 -0.0991  0.0340 -0.3489
 9085SOL    HW128154   5.635   4.978   2.705  0.5846 -0.0281  0.8793
 9085SOL    HW228155   5.774   5.057   2.736  1.3895 -0.4323 -1.4924
 9086SOL     OW28156   1.206   2.920   5.698 -0.6330 -0.0744  0.4891
 9086SOL    HW128157   1.264   2.940   5.619 -0.2130 -0.8592  0.5872
 9086SOL    HW228158   1.261   2.880   5.771 -0.5079  2.9927  2.2187
 9087SOL     OW28159   6.858   1.384   0.824  0.2715  0.1206  0.0055
 9087SOL    HW128160   6.817   1.315   0.764  0.4511  0.5639 -0.6341
 9087SOL    HW228161   6.881   1.342   0.912 -0.3331 -0.4473 -0.1039
 9088SOL     OW28162   4.833   2.071   2.124  0.0189  0.4671 -1.0243
 9088SOL    HW128163   4.812   2.133   2.199  0.1866 -1.2685  0.5376
 9088SOL    HW228164   4.748   2.031   2.089  0.1034 -1.0008  0.3356
 9089SOL     OW28165   4.361   0.823   6.052  0.4815  0.0527  0.6343
 9089SOL    HW128166   4.279   0.803   5.998  0.1011  1.6158  0.6000
 9089SOL    HW228167   4.437   0.768   6.018 -0.2739 -0.5920 -0.0646
 9090SOL     OW28168   5.162   4.072   4.726  0.2799  0.2874  0.6103
 9090SOL    HW128169   5.072   4.106   4.700  1.4732  2.6329 -0.7243
 9090SOL    HW228170   5.185   4.105   4.818  0.4348  1.0927  0.2882
 9091SOL     OW28171   0.362   5.989   2.212  0.1687 -0.2762  0.7012
 9091SOL    HW128172   0.425   6.063   2.189 -0.5718 -0.0419 -0.7074
 9091SOL    HW228173   0.329   5.945   2.127 -2.0957  0.0859  1.3161
 9092SOL     OW28174   4.985   2.946   0.549 -0.1698  0.1894  1.0094
 9092SOL    HW128175   4.959   2.898   0.465  1.2090  0.2213  0.5459
 9092SOL    HW228176   4.908   2.944   0.613 -1.6785  1.1599 -0.6657
 9093SOL     OW28177   5.868   4.821   2.305  0.4380 -0.6540  0.1250
 9093SOL    HW128178   5.784   4.804   2.358 -0.1832  1.6303 -0.0018
 9093SOL    HW228179   5.926   4.885   2.355 -1.5082  4.0382 -2.8997
 9094SOL     OW28180   6.380   5.670   6.259 -0.3919 -0.4720  0.2821
 9094SOL    HW128181   6.439   5.665   6.178 -0.7439 -2.0812  0.0745
 9094SOL    HW228182   6.427   5.627   6.337  0.9625  3.1891  1.6777
 9095SOL     OW28183   6.795   5.599   1.961 -0.5167  0.5794  0.1306
 9095SOL    HW128184   6.728   5.643   1.901  0.3322  0.8006 -0.6832
 9095SOL    HW228185   6.827   5.665   2.029  0.5438  1.1788 -0.9105
 9096SOL     OW28186   2.323   2.551   5.450  0.3852 -0.2323  0.3757
 9096SOL    HW128187   2.304   2.647   5.469 -0.2286  0.0175 -1.2802
 9096SOL    HW228188   2.370   2.544   5.362  2.3286 -1.3288  1.4329
 9097SOL     OW28189   4.886   4.065   3.657 -0.0052 -0.7184  0.0189
 9097SOL    HW128190   4.979   4.099   3.640  0.1812 -0.7694  0.8951
 9097SOL    HW228191   4.867   3.987   3.597  0.6209 -0.8837  0.0314
 9098SOL     OW28192   5.886   6.770   0.251  0.2312 -0.3570 -0.5031
 9098SOL    HW128193   5.877   6.689   0.193  1.0265  0.0650 -1.2365
 9098SOL    HW228194   5.848   6.751   0.342 -1.9754 -0.7125 -1.4265
 9099SOL     OW28195   2.148   2.556   4.157 -0.0930 -0.1507 -0.0259
 9099SOL    HW128196   2.142   2.630   4.090 -0.7738 -0.0149  0.1751
 9099SOL    HW228197   2.232   2.564   4.209  0.2091  0.0278 -0.5327
 9100SOL     OW28198   0.953   2.110   5.320  0.0686 -0.0262 -0.4607
 9100SOL    HW128199   0.986   2.203   5.339 -0.3687  0.1443 -0.5173
 9100SOL    HW228200   0.899   2.077   5.397 -0.7675  0.2306 -0.9209
 9101SOL     OW28201   5.799   0.777   1.696  0.4923  0.5950 -0.0339
 9101SOL    HW128202   5.727   0.845   1.703  0.0945  0.2774 -0.9115
 9101SOL    HW228203   5.886   0.817   1.725 -0.1539  0.7523  1.7931
 9102SOL     OW28204   6.234   6.288   3.372 -0.2009  0.1516 -0.4894
 9102SOL    HW128205   6.328   6.252   3.376 -0.3205 -0.1671 -0.5015
 9102SOL    HW228206   6.235   6.379   3.332  0.2833  0.7812  0.8931
 9103SOL     OW28207   5.006   3.765   0.648  0.0197  0.3138 -0.7405
 9103SOL    HW128208   4.990   3.851   0.598 -0.8014  1.0786  0.7626
 9103SOL    HW228209   4.971   3.774   0.741 -0.9563 -1.9898 -0.8251
 9104SOL     OW28210   4.060   2.834   6.735  0.3302 -0.0621 -0.1425
 9104SOL    HW128211   4.107   2.917   6.707 -0.4597  0.3193 -0.3748
 9104SOL    HW228212   4.124   2.757   6.732  1.1010  0.5514  0.1982
 9105SOL     OW28213   0.493   0.891   0.130 -0.2995 -0.1629  0.4065
 9105SOL    HW128214   0.402   0.890   0.089 -0.9758 -0.1299  1.8411
 9105SOL    HW228215   0.487   0.926   0.224  1.2890  0.4482  0.3124
 9106SOL     OW28216   5.097   3.408   6.380 -1.0775  0.0175 -0.5574
 9106SOL    HW128217   5.139   3.348   6.312  1.3259 -0.1653  0.9945
 9106SOL    HW228218   5.055   3.486   6.333 -0.3347 -0.5849 -2.3139
 9107SOL     OW28219   2.296   6.478   1.359 -0.0728  0.2461  0.1609
 9107SOL    HW128220   2.231   6.553   1.362 -0.6961 -0.3261  1.5306
 9107SOL    HW228221   2.316   6.446   1.452  2.2733  0.4826 -0.1852
 9108SOL     OW28222   3.511   4.396   1.675 -0.0764  0.1118 -0.6910
 9108SOL    HW128223   3.433   4.339   1.702 -0.3768  0.6162 -0.4848
 9108SOL    HW228224   3.532   4.460   1.748  0.8689 -0.3612 -0.5291
 9109SOL     OW28225   3.617   1.047   4.508 -0.0985  0.1557  0.3076
 9109SOL    HW128226   3.573   1.082   4.591 -0.9710  0.0079 -0.0874
 9109SOL    HW228227   3.713   1.077   4.507  0.5172 -1.4201  2.3306
 9110SOL     OW28228   0.535   2.375   0.269  0.0757  0.4766  0.5653
 9110SOL    HW128229   0.488   2.320   0.339  0.4907 -0.5979  0.0159
 9110SOL    HW228230   0.604   2.319   0.223  1.0515  1.6835  0.5123
 9111SOL     OW28231   2.218   5.539   0.405 -0.4014 -0.2704 -0.2213
 9111SOL    HW128232   2.250   5.539   0.310  0.7532  2.1962  0.0909
 9111SOL    HW228233   2.134   5.593   0.411 -0.5881 -0.5962  0.1519
 9112SOL     OW28234   1.320   0.206   0.369 -0.5373 -0.3648 -0.2341
 9112SOL    HW128235   1.357   0.215   0.462 -0.6280  1.1545 -0.3146
 9112SOL    HW228236   1.289   0.112   0.354 -1.1162 -0.4951  1.5060
 9113SOL     OW28237   6.708   5.828   4.676 -0.5097  0.1151 -0.6334
 9113SOL    HW128238   6.668   5.736   4.685  3.2535 -1.7082 -0.5404
 9113SOL    HW228239   6.754   5.836   4.588  2.1652  0.5316  0.7149
 9114SOL     OW28240   4.644   2.752   2.807 -0.6451  0.0668 -0.3430
 9114SOL    HW128241   4.681   2.688   2.874  0.6393  2.0824  0.9927
 9114SOL    HW228242   4.662   2.718   2.714  1.8105 -0.5660  0.2932
 9115SOL     OW28243   5.925   0.085   0.884  0.4446 -0.0154 -0.1515
 9115SOL    HW128244   5.896   0.101   0.979  0.6256  0.0797 -0.1135
 9115SOL    HW228245   6.024   0.082   0.879  0.4469  0.4879 -0.4266
 9116SOL     OW28246   3.758   0.654   4.657 -0.6021 -0.2528 -0.1362
 9116SOL    HW128247   3.821   0.691   4.725 -0.6705 -1.3005  0.5218
 9116SOL    HW228248   3.703   0.728   4.619 -1.3082  0.2417  1.7183
 9117SOL     OW28249   2.005   0.866   5.036 -0.0410  0.2909 -0.8358
 9117SOL    HW128250   2.100   0.834   5.046 -0.4902 -1.1519 -0.8818
 9117SOL    HW228251   1.985   0.880   4.940  0.0326  0.2561 -0.8568
 9118SOL     OW28252   5.447   5.514   0.657 -0.3085 -0.6492  1.2496
 9118SOL    HW128253   5.389   5.433   0.671 -0.8001 -0.3108  1.1888
 9118SOL    HW228254   5.450   5.536   0.560 -2.5668  1.1178  1.4882
 9119SOL     OW28255   0.876   4.192   0.764 -0.4347  0.0506  0.0633
 9119SOL    HW128256   0.898   4.245   0.682 -0.6826 -0.1551 -0.1365
 9119SOL    HW228257   0.960   4.158   0.805 -0.4059 -1.5486 -1.2324
 9120SOL     OW28258   2.679   5.116   6.980  0.2960  0.9267  0.7240
 9120SOL    HW128259   2.655   5.056   7.056  1.9555 -0.2538  0.3936
 9120SOL    HW228260   2.615   5.192   6.975 -0.3605  0.5541  2.7363
 9121SOL     OW28261   5.506   3.563   1.955  0.5504 -0.2653  0.6647
 9121SOL    HW128262   5.492   3.643   2.013 -0.2455  0.4335 -0.4636
 9121SOL    HW228263   5.456   3.485   1.993 -1.6751  0.7074 -0.1449
 9122SOL     OW28264   2.942   3.074   5.235 -0.3444  0.3108 -0.0515
 9122SOL    HW128265   2.969   3.123   5.152  0.4660 -0.7850 -0.4699
 9122SOL    HW228266   2.992   3.111   5.313 -1.5448  1.7418  0.0839
 9123SOL     OW28267   0.327   1.417   4.675  0.3177  0.0505 -0.3416
 9123SOL    HW128268   0.308   1.439   4.771 -2.8836 -1.6518 -0.4689
 9123SOL    HW228269   0.313   1.498   4.619  1.9483  0.9919  0.5411
 9124SOL     OW28270   4.647   0.388   1.043 -0.0756 -0.1618 -0.7388
 9124SOL    HW128271   4.681   0.402   0.949 -1.3229 -0.6253 -1.2825
 9124SOL    HW228272   4.644   0.475   1.091  0.9014  0.0336 -1.0149
 9125SOL     OW28273   4.528   5.762   0.076  0.5450 -0.5243  0.2420
 9125SOL    HW128274   4.551   5.784  -0.019  0.6320 -1.0645  0.1322
 9125SOL    HW228275   4.487   5.842   0.120 -3.2743 -1.3170 -1.4520
 9126SOL     OW28276   0.768   0.926   6.657 -0.2178  0.2912  0.0949
 9126SOL    HW128277   0.762   1.018   6.696 -1.0965 -0.9573  3.2087
 9126SOL    HW228278   0.771   0.932   6.557 -1.8665  3.6200  0.1167
 9127SOL     OW28279   1.743   4.689   6.006 -0.0545 -0.0935 -0.0877
 9127SOL    HW128280   1.784   4.614   5.953 -0.0639  0.1569 -0.4575
 9127SOL    HW228281   1.804   4.715   6.080  0.6039  0.4669 -0.8079
 9128SOL     OW28282   6.770   2.064   6.188 -0.4858  0.0715  0.3507
 9128SOL    HW128283   6.818   2.095   6.270 -0.3015  1.8041 -0.3695
 9128SOL    HW228284   6.752   1.966   6.195  3.2866 -0.7511  0.5819
 9129SOL     OW28285   3.059   4.214   6.519  0.1069  0.4498  0.6419
 9129SOL    HW128286   3.088   4.275   6.593 -1.5404  0.5265  1.2672
 9129SOL    HW228287   3.058   4.265   6.433 -0.7757  1.2038  1.0727
 9130SOL     OW28288   6.225   4.882   5.253  0.2068  0.3771  0.1675
 9130SOL    HW128289   6.240   4.797   5.201 -1.8124 -2.0916  3.2763
 9130SOL    HW228290   6.133   4.916   5.235  0.2257  0.6536  0.5993
 9131SOL     OW28291   0.254   3.637   5.735  0.2004  0.2647  0.4378
 9131SOL    HW128292   0.339   3.627   5.683 -0.2003 -0.3857 -0.1063
 9131SOL    HW228293   0.270   3.698   5.813  0.7996  1.3059 -0.4652
 9132SOL     OW28294   0.645   4.691   3.675 -0.2681  0.4962  0.7433
 9132SOL    HW128295   0.616   4.773   3.724  0.3228  0.2826  1.4692
 9132SOL    HW228296   0.576   4.620   3.684 -0.4881  0.6996  0.6540
 9133SOL     OW28297   4.688   2.038   4.791 -0.3102  0.1842 -0.1395
 9133SOL    HW128298   4.596   2.030   4.828 -0.3527  0.8213 -0.0869
 9133SOL    HW228299   4.738   1.952   4.804 -1.9416 -1.3764 -3.1010
 9134SOL     OW28300   2.012   0.434   0.527 -0.1142  0.0546  0.3294
 9134SOL    HW128301   1.966   0.490   0.595 -0.4335 -1.0517  1.0640
 9134SOL    HW228302   1.971   0.449   0.437  0.5253  1.7803  0.2863
 9135SOL     OW28303   5.277   6.133   3.412  0.1198  0.4938  0.2539
 9135SOL    HW128304   5.328   6.190   3.476  1.6303 -0.7826  0.2625
 9135SOL    HW228305   5.341   6.083   3.354 -1.0067 -2.6084  1.4935
 9136SOL     OW28306   6.028   6.959   5.767  0.1523  0.3680 -0.0926
 9136SOL    HW128307   5.928   6.961   5.769  0.0932  0.4307 -1.6632
 9136SOL    HW228308   6.061   7.040   5.718  0.7642 -1.4725 -2.9799
 9137SOL     OW28309   3.727   6.648   0.479 -0.1218  0.2149  0.3807
 9137SOL    HW128310   3.732   6.652   0.579 -1.2470  0.1417  0.4614
 9137SOL    HW228311   3.718   6.740   0.442  1.4313  0.3351  0.2512
 9138SOL     OW28312   0.631   4.926   2.487 -0.0913  0.4558 -0.2138
 9138SOL    HW128313   0.565   4.866   2.441 -0.6034  0.5341  0.4065
 9138SOL    HW228314   0.588   4.968   2.567  0.4807  1.1079 -0.2383
 9139SOL     OW28315   2.217   0.617   6.637  0.2892  0.1750  0.1285
 9139SOL    HW128316   2.298   0.632   6.580 -0.3191 -0.3650 -0.9126
 9139SOL    HW228317   2.148   0.566   6.584 -1.3945  2.0466  0.3856
 9140SOL     OW28318   6.907   2.106   4.683 -0.1205 -0.7548 -0.1463
 9140SOL    HW128319   6.893   2.205   4.675  0.1768 -0.6276  0.8451
 9140SOL    HW228320   6.998   2.083   4.648  0.9046 -0.2866  2.0232
 9141SOL     OW28321   3.878   1.004   2.610 -0.1104 -0.0250 -0.5047
 9141SOL    HW128322   3.905   1.098   2.627 -0.2419  0.1129 -1.0537
 9141SOL    HW228323   3.957   0.944   2.621 -0.1355  0.0761  0.3642
 9142SOL     OW28324   1.077   1.115   3.629 -0.2052 -0.1657  0.3875
 9142SOL    HW128325   1.011   1.040   3.635 -0.2678 -0.0430  1.3184
 9142SOL    HW228326   1.051   1.175   3.553  0.3470 -1.5405 -0.9513
 9143SOL     OW28327   4.293   0.918   2.164 -0.6684 -0.0876  0.2449
 9143SOL    HW128328   4.280   0.840   2.104  1.1579 -1.0211  0.9817
 9143SOL    HW228329   4.360   0.980   2.123 -0.1050 -0.2684  0.8832
 9144SOL     OW28330   5.203   6.522   5.162  0.4041 -0.2751  0.2589
 9144SOL    HW128331   5.296   6.546   5.191 -0.0183  0.1187  1.3349
 9144SOL    HW228332   5.192   6.545   5.065  0.7440  1.8008  0.6564
 9145SOL     OW28333   1.100   3.829   4.790  0.7009 -0.3594 -0.2073
 9145SOL    HW128334   1.155   3.848   4.708  0.8256 -1.4134 -0.3886
 9145SOL    HW228335   1.149   3.861   4.871  2.0892 -2.1477 -0.2779
 9146SOL     OW28336   5.970   3.752   5.057 -0.2893  0.0006 -1.2681
 9146SOL    HW128337   5.943   3.834   5.107 -0.7699 -0.6408 -0.4492
 9146SOL    HW228338   5.981   3.774   4.960  0.2394  1.1668 -0.9501
 9147SOL     OW28339   6.304   5.395   6.643 -0.1154 -0.2054  0.1582
 9147SOL    HW128340   6.313   5.495   6.652 -0.0709  0.0374 -2.0075
 9147SOL    HW228341   6.230   5.374   6.579  0.9591 -1.4939 -0.7053
 9148SOL     OW28342   3.766   2.049   4.802  0.0015 -0.4714 -0.2524
 9148SOL    HW128343   3.677   2.070   4.761  0.8707 -1.6423 -3.0073
 9148SOL    HW228344   3.758   1.969   4.861 -0.6977 -0.9117 -0.9243
 9149SOL     OW28345   1.969   6.561   1.699  0.1364  0.3924  0.1422
 9149SOL    HW128346   2.021   6.551   1.615 -1.2698  0.7729 -0.8218
 9149SOL    HW228347   2.016   6.515   1.774  0.4919 -1.6359 -1.2506
 9150SOL     OW28348   1.418   4.867   3.907  0.1397  0.7893  0.1046
 9150SOL    HW128349   1.348   4.913   3.852 -0.3045  1.6188  1.3121
 9150SOL    HW228350   1.507   4.908   3.888 -0.0618  1.2945  0.2353
 9151SOL     OW28351   1.936   4.502   2.125  0.8900  0.1520 -0.4088
 9151SOL    HW128352   1.942   4.443   2.044  3.3462 -1.6050  0.9436
 9151SOL    HW228353   1.861   4.471   2.183 -0.1652  0.7319 -1.3923
 9152SOL     OW28354   0.262   6.749   6.953 -0.2201  0.0869 -0.0406
 9152SOL    HW128355   0.337   6.739   6.887 -0.5798  0.8335 -0.5744
 9152SOL    HW228356   0.210   6.664   6.957  0.7743 -0.5236  0.5056
 9153SOL     OW28357   4.085   5.038   5.964  0.1989 -0.0244 -0.7292
 9153SOL    HW128358   4.058   5.123   6.008  0.1651  0.1662 -1.1119
 9153SOL    HW228359   4.073   4.961   6.028  1.2985  0.3850  0.0021
 9154SOL     OW28360   4.916   2.492   0.862 -0.0127  0.3551 -0.4679
 9154SOL    HW128361   4.957   2.411   0.904  0.4497  0.2553 -1.0953
 9154SOL    HW228362   4.935   2.492   0.764 -1.5783  0.2843 -0.7959
 9155SOL     OW28363   3.657   6.260   0.509  0.2270  0.1728  0.2783
 9155SOL    HW128364   3.600   6.190   0.466  0.0924  0.5595 -0.1805
 9155SOL    HW228365   3.677   6.233   0.604  2.4020 -1.7965 -0.6330
 9156SOL     OW28366   4.116   5.016   0.193 -0.1477 -0.0891 -0.6467
 9156SOL    HW128367   4.152   4.948   0.257 -3.0426 -0.6128  0.5519
 9156SOL    HW228368   4.175   5.097   0.195 -0.0030 -0.1248  2.6577
 9157SOL     OW28369   0.818   0.567   4.309  0.4076  1.0281 -0.3625
 9157SOL    HW128370   0.901   0.547   4.361 -0.0143 -0.3760 -0.1872
 9157SOL    HW228371   0.842   0.610   4.222  1.3432  0.4315 -0.4123
 9158SOL     OW28372   0.037   4.443   0.284  0.3586  0.3222  1.1187
 9158SOL    HW128373  -0.038   4.479   0.229  1.0252  2.2150  1.3768
 9158SOL    HW228374   0.124   4.475   0.248  0.9794 -0.7785  1.5892
 9159SOL     OW28375   4.805   5.857   2.657 -0.7135 -0.5089 -1.0247
 9159SOL    HW128376   4.891   5.837   2.705 -1.1046 -2.2508 -0.9594
 9159SOL    HW228377   4.811   5.946   2.612  0.2787  0.4481  0.8763
 9160SOL     OW28378   4.812   3.968   0.919  0.0002 -0.1621 -0.0602
 9160SOL    HW128379   4.790   3.990   1.014  0.2065  0.0002 -0.0501
 9160SOL    HW228380   4.896   3.914   0.915  1.6751  2.3273 -0.3313
 9161SOL     OW28381   6.324   0.658   4.819  0.3507 -0.4644  0.1612
 9161SOL    HW128382   6.251   0.661   4.887  1.6589  0.9937  1.5873
 9161SOL    HW228383   6.393   0.591   4.847  0.3942 -0.6090 -0.2838
 9162SOL     OW28384   2.004   3.451   0.912  0.6583  0.1323 -0.6630
 9162SOL    HW128385   1.992   3.450   1.011  1.4941  1.7570 -0.5178
 9162SOL    HW228386   1.915   3.437   0.867 -0.0514  1.3526  0.3221
 9163SOL     OW28387   6.447   0.917   6.227 -0.2667  0.4297  0.0038
 9163SOL    HW128388   6.546   0.910   6.238  0.0058  1.8780 -1.2486
 9163SOL    HW228389   6.426   0.972   6.146 -2.1011  0.0606  0.1882
 9164SOL     OW28390   1.680   1.855   1.106 -0.3408 -0.4492 -0.0360
 9164SOL    HW128391   1.636   1.857   1.016  1.2271  0.0004 -0.8295
 9164SOL    HW228392   1.778   1.876   1.096 -0.5175  1.8501  2.0192
 9165SOL     OW28393   1.305   0.343   4.789 -0.1545 -0.0287 -0.3624
 9165SOL    HW128394   1.349   0.300   4.867  0.7605  0.3181 -0.6832
 9165SOL    HW228395   1.368   0.346   4.712 -0.5565  0.9344 -0.6741
 9166SOL     OW28396   3.820   5.903   4.154  0.0663  0.0574  0.2707
 9166SOL    HW128397   3.865   5.992   4.159  1.0983 -0.4621  0.4068
 9166SOL    HW228398   3.767   5.887   4.237 -0.2711  0.6198  0.1664
 9167SOL     OW28399   3.137   6.471   6.169 -0.5428 -0.1545 -0.3195
 9167SOL    HW128400   3.115   6.385   6.216 -1.9136  0.1391 -0.3765
 9167SOL    HW228401   3.205   6.521   6.222 -0.4326 -0.8501  0.2097
 9168SOL     OW28402   6.582   0.956   3.198  0.7731  0.1645  0.1850
 9168SOL    HW128403   6.662   0.919   3.152  2.0307  1.5565  1.1880
 9168SOL    HW228404   6.518   0.882   3.217  1.6796 -0.9290 -0.8737
 9169SOL     OW28405   5.613   5.362   3.016 -0.0960  0.3205 -0.1662
 9169SOL    HW128406   5.585   5.374   2.920  1.1711  0.6987 -0.5055
 9169SOL    HW228407   5.551   5.296   3.060  0.7076 -1.7387 -1.9188
 9170SOL     OW28408   4.960   6.746   5.975  0.5361 -0.5009  0.3221
 9170SOL    HW128409   4.884   6.692   6.012 -0.5827  1.3315  0.8423
 9170SOL    HW228410   5.044   6.724   6.025 -0.3404 -0.2039  2.0057
 9171SOL     OW28411   3.591   6.693   1.821 -0.2084 -0.0681  0.2646
 9171SOL    HW128412   3.580   6.667   1.918  0.2887  0.0463  0.3537
 9171SOL    HW228413   3.539   6.776   1.803 -0.4875 -0.2152  0.3748
 9172SOL     OW28414   0.126   5.462   5.915 -0.3714  0.5229  0.2830
 9172SOL    HW128415   0.105   5.444   6.011 -2.0803 -0.6034 -0.2596
 9172SOL    HW228416   0.215   5.506   5.908 -0.7695  1.8340  2.4791
 9173SOL     OW28417   0.702   3.910   1.347 -0.0962 -0.1812  0.2376
 9173SOL    HW128418   0.721   3.916   1.249  0.0931 -1.5979  0.1738
 9173SOL    HW228419   0.615   3.864   1.362  0.4722 -1.1148  0.7600
 9174SOL     OW28420   1.392   0.294   2.176 -0.4772  0.1176  0.3274
 9174SOL    HW128421   1.371   0.391   2.169  2.2958  0.8526  0.9698
 9174SOL    HW228422   1.367   0.260   2.267 -1.6053  0.1388  0.0447
 9175SOL     OW28423   6.162   2.618   4.336  0.0343 -0.0045 -0.4255
 9175SOL    HW128424   6.214   2.696   4.304  0.8565 -0.7330 -0.9028
 9175SOL    HW228425   6.165   2.615   4.436 -3.2279  2.7488 -0.0430
 9176SOL     OW28426   0.783   1.916   0.761  0.6017  0.3626  0.0228
 9176SOL    HW128427   0.821   1.941   0.850 -2.4776 -0.0494  1.5658
 9176SOL    HW228428   0.752   1.821   0.763 -2.4343  1.2480 -0.2991
 9177SOL     OW28429   1.750   0.479   3.183  0.5443 -0.4819  0.3458
 9177SOL    HW128430   1.751   0.395   3.236  0.4864 -0.3248  0.5957
 9177SOL    HW228431   1.731   0.458   3.087 -0.4512 -0.6600  0.5725
 9178SOL     OW28432   5.974   4.164   3.986 -0.1581  0.6567 -0.1343
 9178SOL    HW128433   6.039   4.189   4.058  1.3410 -1.3462 -0.6871
 9178SOL    HW228434   5.895   4.118   4.027  0.0903  0.6443  0.3386
 9179SOL     OW28435   2.161   4.610   2.290 -0.7287  0.3338  0.2276
 9179SOL    HW128436   2.150   4.524   2.339 -1.1164 -0.5796 -1.3764
 9179SOL    HW228437   2.083   4.624   2.228  0.1876  0.9409 -0.8367
 9180SOL     OW28438   2.929   2.306   4.228 -0.1173  0.1281  0.2286
 9180SOL    HW128439   2.959   2.309   4.323  1.0880  2.0073 -0.1495
 9180SOL    HW228440   2.984   2.239   4.178  0.1899  0.1287  0.5611
 9181SOL     OW28441   3.999   2.118   4.690 -0.0367 -0.0283 -0.1172
 9181SOL    HW128442   3.911   2.097   4.732 -0.0836 -1.0465 -0.6734
 9181SOL    HW228443   4.029   2.039   4.636  0.8565  0.5915 -0.5476
 9182SOL     OW28444   4.824   0.969   3.218 -0.0111 -0.1799 -0.1434
 9182SOL    HW128445   4.791   1.056   3.253  1.8602 -0.2934  2.1713
 9182SOL    HW228446   4.799   0.896   3.281 -0.1323 -1.0823 -1.2097
 9183SOL     OW28447   1.821   0.765   3.542 -0.2621  0.2812  0.2976
 9183SOL    HW128448   1.768   0.703   3.483 -1.0984 -0.1294  1.4506
 9183SOL    HW228449   1.761   0.836   3.578  0.6492  1.6772 -0.8355
 9184SOL     OW28450   2.254   2.222   6.626 -0.1142  0.3037  0.4597
 9184SOL    HW128451   2.181   2.290   6.631  0.3395  0.7268  1.4931
 9184SOL    HW228452   2.314   2.245   6.549 -1.2419 -0.2541 -0.6289
 9185SOL     OW28453   2.399   5.438   6.788 -0.3721  0.7270  0.1915
 9185SOL    HW128454   2.386   5.353   6.839 -0.1018 -1.0331 -2.4787
 9185SOL    HW228455   2.310   5.479   6.769 -0.5256  0.8760  1.1537
 9186SOL     OW28456   6.764   6.408   0.510  0.1012  0.6565  0.1844
 9186SOL    HW128457   6.711   6.396   0.594 -0.1490  2.1708  0.2685
 9186SOL    HW228458   6.729   6.487   0.459  0.6808  0.1591 -1.0170
 9187SOL     OW28459   3.403   3.029   3.516  0.4357 -0.1076 -0.0324
 9187SOL    HW128460   3.390   3.128   3.506  0.5193  0.0370  1.1088
 9187SOL    HW228461   3.422   2.988   3.427 -0.6337  0.7543 -0.6802
 9188SOL     OW28462   1.040   5.212   0.131 -0.0688 -0.1775 -0.3806
 9188SOL    HW128463   1.126   5.161   0.131  0.0112 -0.0436 -0.1850
 9188SOL    HW228464   0.997   5.204   0.041  1.0933  1.3327 -1.1160
 9189SOL     OW28465   6.944   5.450   5.583  0.0620  0.2769 -0.3723
 9189SOL    HW128466   6.957   5.393   5.665 -2.0854  0.2985  0.0543
 9189SOL    HW228467   6.847   5.474   5.575  0.6015  2.3037 -1.6019
 9190SOL     OW28468   3.386   3.195   4.491  0.0113  0.6623  1.0716
 9190SOL    HW128469   3.324   3.182   4.414  0.3513  0.7255  0.7853
 9190SOL    HW228470   3.336   3.236   4.568 -0.2687  0.8299  0.8004
 9191SOL     OW28471   2.652   4.228   5.549  0.0787  0.0820  0.1990
 9191SOL    HW128472   2.646   4.130   5.527  2.7987 -0.6882  2.3153
 9191SOL    HW228473   2.709   4.274   5.482 -1.2753  0.2961 -0.8500
 9192SOL     OW28474   6.886   5.739   4.962 -0.0815  0.3538  0.1055
 9192SOL    HW128475   6.931   5.698   5.041 -1.3187 -0.4539  0.4229
 9192SOL    HW228476   6.953   5.790   4.908  0.7124  1.2853  1.8753
 9193SOL     OW28477   2.042   6.852   5.906  0.0091 -0.3438  0.3108
 9193SOL    HW128478   2.098   6.851   5.989 -1.9471  4.2556  2.0493
 9193SOL    HW228479   1.951   6.817   5.927  0.0828 -1.0356 -0.4954
 9194SOL     OW28480   3.857   0.594   3.568  0.6722  0.7835 -0.5900
 9194SOL    HW128481   3.784   0.573   3.503 -0.0665  1.2811  0.0492
 9194SOL    HW228482   3.898   0.509   3.601 -0.4858  0.4163 -0.0137
 9195SOL     OW28483   5.334   6.436   4.608  0.1839  0.0213  0.0973
 9195SOL    HW128484   5.385   6.520   4.625  0.5025 -0.0717 -0.3860
 9195SOL    HW228485   5.367   6.363   4.668 -1.5110  0.7723  2.0411
 9196SOL     OW28486   1.941   3.994   3.191 -1.0631  0.1580  0.2493
 9196SOL    HW128487   1.911   4.083   3.156 -1.1558  0.4646  1.0928
 9196SOL    HW228488   2.040   3.985   3.177 -1.1107  0.2461 -0.1540
 9197SOL     OW28489   1.968   6.284   6.087 -0.6328  0.2345  0.3577
 9197SOL    HW128490   1.904   6.218   6.127  0.5498  0.3776  2.6954
 9197SOL    HW228491   2.046   6.296   6.149  0.8971  1.2440 -1.6498
 9198SOL     OW28492   2.167   0.600   5.717 -0.0104  0.4126 -0.1594
 9198SOL    HW128493   2.265   0.589   5.732 -0.6664 -2.7457  2.9100
 9198SOL    HW228494   2.140   0.548   5.636  0.7325  0.8046 -0.6711
 9199SOL     OW28495   0.690   2.730   0.035  0.3067  0.2438  0.0739
 9199SOL    HW128496   0.701   2.688  -0.055  0.1094  0.7246 -0.1785
 9199SOL    HW228497   0.699   2.660   0.106  0.8797 -0.0727 -0.3000
 9200SOL     OW28498   0.806   1.163   2.655  0.1372 -0.4178  0.5456
 9200SOL    HW128499   0.713   1.165   2.618 -0.3680 -0.5925  1.7814
 9200SOL    HW228500   0.813   1.094   2.727  1.2531 -0.4666  0.4171
 9201SOL     OW28501   6.781   4.493   5.771 -0.3106  0.0994 -0.2343
 9201SOL    HW128502   6.860   4.481   5.711 -0.3830  0.7659 -0.4702
 9201SOL    HW228503   6.768   4.590   5.791  0.5463 -0.1646  1.9879
 9202SOL     OW28504   3.957   3.351   6.011 -0.5486 -0.5181  0.5510
 9202SOL    HW128505   3.947   3.450   6.000  0.6705  0.1223  4.0568
 9202SOL    HW228506   3.904   3.305   5.939 -1.4773  2.6073 -0.9836
 9203SOL     OW28507   0.866   2.709   2.752 -0.5856  0.3264 -0.7740
 9203SOL    HW128508   0.933   2.694   2.825  0.2833  1.6884 -1.2415
 9203SOL    HW228509   0.890   2.654   2.672 -0.2276  0.5287 -0.8072
 9204SOL     OW28510   3.015   4.871   5.188  0.2149  0.2934 -0.1047
 9204SOL    HW128511   3.003   4.970   5.184 -0.5361  0.2058 -0.2605
 9204SOL    HW228512   3.061   4.839   5.106 -0.6023  0.3843 -0.6101
 9205SOL     OW28513   1.958   4.999   6.699  0.0171  0.1131 -0.4166
 9205SOL    HW128514   1.986   4.948   6.617  1.3270 -0.7576  0.5154
 9205SOL    HW228515   1.866   5.034   6.686  0.9153  1.8246 -3.0919
 9206SOL     OW28516   6.806   0.575   4.584 -0.3063 -0.1083 -0.5192
 9206SOL    HW128517   6.854   0.565   4.671  0.1441 -1.2500 -0.8868
 9206SOL    HW228518   6.858   0.635   4.523  0.0136 -0.3168 -0.4518
 9207SOL     OW28519   5.934   6.845   2.800 -0.0048 -0.1759  0.0253
 9207SOL    HW128520   5.893   6.754   2.805 -0.7247  0.2055  2.1766
 9207SOL    HW228521   5.879   6.909   2.854  1.1766  1.2705 -0.4218
 9208SOL     OW28522   5.854   4.035   5.638  0.1573  0.4736 -0.4770
 9208SOL    HW128523   5.936   4.041   5.582 -0.1401 -1.3109 -1.1563
 9208SOL    HW228524   5.871   3.974   5.716 -1.4684 -2.9301 -2.5607
 9209SOL     OW28525   0.477   5.305   5.172 -0.7882  0.3382  0.0555
 9209SOL    HW128526   0.559   5.267   5.130 -0.9752  0.7239 -0.6769
 9209SOL    HW228527   0.453   5.251   5.253 -1.0456 -1.1043 -0.9411
 9210SOL     OW28528   3.657   5.612   0.255  0.2873 -0.3299  0.0263
 9210SOL    HW128529   3.635   5.526   0.210  0.0794 -0.1149 -0.2872
 9210SOL    HW228530   3.756   5.629   0.248  0.3611 -0.6415  0.2742
 9211SOL     OW28531   6.623   1.962   6.720 -0.2968 -0.2348  0.4204
 9211SOL    HW128532   6.711   1.914   6.718 -1.0806 -1.9274  2.5456
 9211SOL    HW228533   6.549   1.896   6.733 -2.2615  0.8518 -3.6497
 9212SOL     OW28534   1.686   5.536   3.224 -0.4153  0.1863 -0.0029
 9212SOL    HW128535   1.767   5.504   3.175 -0.5626  0.5733 -0.5085
 9212SOL    HW228536   1.615   5.464   3.223 -0.8414  0.6047 -1.3562
 9213SOL     OW28537   3.010   2.155   2.564  0.0504 -0.2005 -0.7529
 9213SOL    HW128538   3.081   2.093   2.530 -1.6219 -2.2854 -0.7190
 9213SOL    HW228539   2.951   2.183   2.488 -0.1956 -0.0237 -0.4999
 9214SOL     OW28540   3.084   2.075   0.167 -0.4187 -0.1826  0.1665
 9214SOL    HW128541   2.995   2.100   0.205 -0.1309 -0.3562  0.9771
 9214SOL    HW228542   3.093   2.113   0.075 -0.6531  1.2506  0.7207
 9215SOL     OW28543   2.608   4.987   4.977 -0.2088  0.3886  0.4856
 9215SOL    HW128544   2.629   4.906   4.922  0.1444  0.8627 -0.0810
 9215SOL    HW228545   2.535   4.964   5.042 -0.1334 -0.3765  0.3122
 9216SOL     OW28546   2.689   6.492   6.355  0.1738 -0.1256 -0.2623
 9216SOL    HW128547   2.761   6.449   6.408  0.7053  0.2452 -0.6744
 9216SOL    HW228548   2.725   6.520   6.266 -0.6108 -0.4140 -0.6789
 9217SOL     OW28549   1.262   3.826   6.709 -0.0956  0.0829 -0.1280
 9217SOL    HW128550   1.234   3.882   6.631 -0.2146 -1.6993 -1.4494
 9217SOL    HW228551   1.263   3.881   6.792  0.4409  2.1540 -1.4495
 9218SOL     OW28552   5.159   0.310   3.277 -0.4379  0.2763  0.5868
 9218SOL    HW128553   5.061   0.329   3.272 -0.3155  0.7085 -0.4149
 9218SOL    HW228554   5.174   0.217   3.312 -1.1874  0.2875  0.9496
 9219SOL     OW28555   3.634   7.011   4.721  0.2799 -0.7567  0.0852
 9219SOL    HW128556   3.631   7.093   4.777 -3.3275 -1.8557  1.7598
 9219SOL    HW228557   3.617   7.035   4.626 -0.0340  0.4928  0.4364
 9220SOL     OW28558   4.596   1.295   4.960  0.0233 -0.4336 -0.1509
 9220SOL    HW128559   4.601   1.321   5.057  0.6545  0.2905 -0.3690
 9220SOL    HW228560   4.564   1.373   4.906 -0.1524 -0.7784 -0.5511
 9221SOL     OW28561   1.085   3.363   4.362 -0.8962  0.4489  0.1116
 9221SOL    HW128562   1.162   3.386   4.422  0.0321 -0.6051 -0.6480
 9221SOL    HW228563   1.003   3.347   4.418 -0.1754 -0.0055  1.0589
 9222SOL     OW28564   2.086   2.240   5.702  0.0766 -0.2895 -0.5517
 9222SOL    HW128565   2.000   2.199   5.732 -0.6311 -0.2129 -2.3280
 9222SOL    HW228566   2.145   2.169   5.665  0.3094 -0.1914 -0.3654
 9223SOL     OW28567   6.347   4.794   6.131  0.2339  0.5153  0.2327
 9223SOL    HW128568   6.294   4.710   6.119  0.3413  0.4141  0.4653
 9223SOL    HW228569   6.430   4.789   6.076  0.4127  0.3197  0.5167
 9224SOL     OW28570   4.086   3.693   3.400 -0.3597  0.2785  0.8679
 9224SOL    HW128571   4.131   3.701   3.489 -1.0294  0.3323  1.2100
 9224SOL    HW228572   4.126   3.617   3.349  1.0681  1.1738  0.5811
 9225SOL     OW28573   6.090   3.671   4.268  0.1767 -0.6778 -0.5361
 9225SOL    HW128574   6.016   3.616   4.228  0.7418 -0.2442 -2.2303
 9225SOL    HW228575   6.170   3.669   4.209  0.2333  1.9533 -0.6858
 9226SOL     OW28576   0.898   3.965   5.498  0.5300  0.6400  0.2934
 9226SOL    HW128577   0.854   3.902   5.435 -0.7612  4.0364 -2.5727
 9226SOL    HW228578   0.996   3.969   5.478  0.1110  1.8258 -1.8682
 9227SOL     OW28579   5.032   0.381   0.259  0.3930  0.0776 -0.1733
 9227SOL    HW128580   5.042   0.347   0.165  1.4557 -0.2335  0.0302
 9227SOL    HW228581   5.002   0.476   0.257  1.3060  0.3744 -0.8750
 9228SOL     OW28582   3.801   2.082   4.469  0.0360  0.7133  0.1970
 9228SOL    HW128583   3.792   1.982   4.469 -2.1542  0.8613 -0.7439
 9228SOL    HW228584   3.767   2.118   4.556 -2.7144  0.8004 -0.8026
 9229SOL     OW28585   0.722   0.583   1.232 -0.5264  0.0554 -0.0569
 9229SOL    HW128586   0.630   0.545   1.219 -1.8475  2.5947  1.1256
 9229SOL    HW228587   0.751   0.628   1.147  0.5909 -2.4547 -1.1072
 9230SOL     OW28588   4.757   4.336   3.228 -0.1473 -0.3447  0.2733
 9230SOL    HW128589   4.700   4.403   3.181  0.5721  2.2153  2.7809
 9230SOL    HW228590   4.852   4.367   3.228  0.6579 -2.5405 -0.3399
 9231SOL     OW28591   1.630   3.155   4.784 -0.1116  0.0955  0.0499
 9231SOL    HW128592   1.670   3.208   4.709  2.0490 -1.4647  0.0021
 9231SOL    HW228593   1.552   3.103   4.751 -1.8184  2.5502 -0.0714
 9232SOL     OW28594   4.100   3.256   6.239  0.5593 -0.0114  0.3561
 9232SOL    HW128595   4.071   3.303   6.156  0.7601  0.3626  0.4964
 9232SOL    HW228596   4.086   3.315   6.318 -0.5051 -0.6995  0.7129
 9233SOL     OW28597   2.514   5.663   0.790  0.1170 -0.0403 -0.1476
 9233SOL    HW128598   2.497   5.761   0.786  2.8493  0.4880 -0.6992
 9233SOL    HW228599   2.491   5.621   0.702 -0.4263  0.2048 -0.1260
 9234SOL     OW28600   6.617   1.785   2.470  0.3601 -0.6179  0.7012
 9234SOL    HW128601   6.662   1.861   2.516  0.7314 -0.8525  0.7318
 9234SOL    HW228602   6.518   1.798   2.472  0.4905  1.0262 -1.3241
 9235SOL     OW28603   1.425   6.914   3.813  0.3761  0.3155  0.6419
 9235SOL    HW128604   1.499   6.970   3.775 -0.5716  0.8627 -0.4293
 9235SOL    HW228605   1.462   6.857   3.887  1.8085  0.7686  0.3111
 9236SOL     OW28606   4.485   6.587   5.023 -0.2548  0.6018 -0.1315
 9236SOL    HW128607   4.511   6.682   5.042 -0.1670  0.6190 -0.3333
 9236SOL    HW228608   4.451   6.545   5.107  1.4351  0.2593  0.4214
 9237SOL     OW28609   5.672   4.045   6.084 -0.2805  0.9249 -0.0914
 9237SOL    HW128610   5.632   4.064   5.995 -1.2482 -1.8582 -0.3701
 9237SOL    HW228611   5.606   4.069   6.156 -1.1420 -0.4775 -0.3761
 9238SOL     OW28612   5.075   2.244   1.900  0.1245  0.9217 -0.7087
 9238SOL    HW128613   4.978   2.265   1.898  0.2483  1.6016 -0.0873
 9238SOL    HW228614   5.117   2.289   1.980  0.6347 -0.6970 -0.0286
 9239SOL     OW28615   6.730   5.090   5.935 -0.4140 -0.1115 -0.2608
 9239SOL    HW128616   6.738   5.027   6.012  0.0268  1.0497  0.6794
 9239SOL    HW228617   6.775   5.051   5.855  0.3390 -0.7579  0.4634
 9240SOL     OW28618   0.006   0.056   5.490 -0.1941  0.2183 -0.8310
 9240SOL    HW128619  -0.086   0.095   5.496  0.2668  1.1567  0.4075
 9240SOL    HW228620   0.040   0.065   5.396 -1.2242  0.1548 -1.2258
 9241SOL     OW28621   3.563   6.683   3.468  0.5052 -0.2126 -0.3390
 9241SOL    HW128622   3.468   6.697   3.493  0.5723 -1.3993  0.7076
 9241SOL    HW228623   3.573   6.596   3.420  1.4856 -1.8759  2.6440
 9242SOL     OW28624   1.263   0.281   5.432 -1.0832 -0.1339 -0.3311
 9242SOL    HW128625   1.254   0.267   5.531  0.5627 -0.9033 -0.2481
 9242SOL    HW228626   1.244   0.195   5.385 -0.5211 -0.1342 -0.5666
 9243SOL     OW28627   2.807   5.598   2.025  0.7056  0.4148  0.4934
 9243SOL    HW128628   2.883   5.619   2.086  0.9530  0.7799  0.0650
 9243SOL    HW228629   2.842   5.558   1.940  0.2221 -2.8182  1.6556
 9244SOL     OW28630   1.189   2.893   4.579  0.4258  0.2175 -0.1648
 9244SOL    HW128631   1.219   2.799   4.566 -0.0838 -0.1342  1.0111
 9244SOL    HW228632   1.094   2.894   4.610  0.2218  1.1582 -0.7680
 9245SOL     OW28633   1.641   4.824   5.786 -0.1880  0.3270  0.2884
 9245SOL    HW128634   1.699   4.756   5.831  0.2564 -0.9390 -2.0043
 9245SOL    HW228635   1.597   4.882   5.855  0.8123 -1.1247  2.2532
 9246SOL     OW28636   5.816   5.537   0.973  0.4546 -0.4491  0.1120
 9246SOL    HW128637   5.749   5.550   1.046  0.4393  1.1063 -0.1481
 9246SOL    HW228638   5.779   5.573   0.887  0.4432 -2.3198 -0.7054
 9247SOL     OW28639   6.442   3.886   4.173 -0.0981  0.1832 -0.3579
 9247SOL    HW128640   6.378   3.810   4.174 -1.2973  1.1709 -0.4805
 9247SOL    HW228641   6.533   3.852   4.198 -0.5742 -1.2971 -0.5104
 9248SOL     OW28642   1.355   0.967   3.005  0.0603 -0.1023 -0.0039
 9248SOL    HW128643   1.360   0.876   2.965  2.0986 -0.3034  0.5979
 9248SOL    HW228644   1.447   1.004   3.016 -0.7294  2.4086 -1.0041
 9249SOL     OW28645   3.150   5.817   0.675  0.3223  0.6896 -0.5557
 9249SOL    HW128646   3.106   5.906   0.671  0.3481  0.6818 -1.1049
 9249SOL    HW228647   3.182   5.791   0.584 -1.8025 -0.9274 -0.9296
 9250SOL     OW28648   5.217   0.699   2.900 -0.1558  1.0896  0.0754
 9250SOL    HW128649   5.155   0.760   2.948  2.5723  2.0392  2.7152
 9250SOL    HW228650   5.225   0.613   2.950 -0.7128  0.2394 -1.2568
 9251SOL     OW28651   1.782   4.167   1.007  0.3144 -0.2206 -0.3938
 9251SOL    HW128652   1.880   4.178   1.022  0.5316 -0.1015 -1.7069
 9251SOL    HW228653   1.752   4.234   0.939 -0.6699 -0.3011 -0.0501
 9252SOL     OW28654   3.206   0.507   5.547 -0.1846 -0.0377 -0.8349
 9252SOL    HW128655   3.181   0.516   5.450 -1.4855 -0.7880 -0.5940
 9252SOL    HW228656   3.178   0.417   5.580 -0.0817  0.3433  0.3306
 9253SOL     OW28657   2.319   4.958   0.343  0.8886 -0.2753  0.2665
 9253SOL    HW128658   2.244   4.979   0.405  0.5117 -0.3801 -0.1487
 9253SOL    HW228659   2.293   4.982   0.249  1.7384  0.5984  0.2399
 9254SOL     OW28660   1.698   5.309   1.133 -0.1364  0.1789 -0.2487
 9254SOL    HW128661   1.752   5.225   1.121 -0.2190 -0.5426  3.3070
 9254SOL    HW228662   1.759   5.388   1.124  0.4996 -0.3693 -0.9915
 9255SOL     OW28663   3.465   5.312   4.123  0.2919  0.1754 -0.1128
 9255SOL    HW128664   3.451   5.263   4.209  0.9216 -0.5853 -0.4317
 9255SOL    HW228665   3.494   5.406   4.143 -2.3783  0.9427  0.5218
 9256SOL     OW28666   1.922   6.342   1.384  0.6892 -0.0010 -0.0973
 9256SOL    HW128667   2.003   6.310   1.336  0.5840  0.4199 -0.5661
 9256SOL    HW228668   1.944   6.355   1.481  1.6813  1.7351 -0.5030
 9257SOL     OW28669   4.106   3.672   6.824 -0.4486 -0.6049  0.1998
 9257SOL    HW128670   4.196   3.628   6.826  0.6844  1.5936  1.3572
 9257SOL    HW228671   4.118   3.770   6.803 -2.5399 -0.2002  0.7374
 9258SOL     OW28672   0.644   1.175   6.244  0.6015 -0.2024 -0.2204
 9258SOL    HW128673   0.707   1.169   6.167  0.6144  1.1228 -0.3313
 9258SOL    HW228674   0.580   1.251   6.230  1.5218  1.0209  1.6951
 9259SOL     OW28675   2.823   6.593   4.913  0.3793 -0.2062  0.2955
 9259SOL    HW128676   2.771   6.593   4.998 -1.2123  1.4380 -0.6141
 9259SOL    HW228677   2.871   6.681   4.903  0.2665 -0.2383 -0.6453
 9260SOL     OW28678   2.102   5.942   0.775 -0.2845 -0.4447 -0.0430
 9260SOL    HW128679   2.015   5.907   0.811  0.3409 -2.3892 -0.3091
 9260SOL    HW228680   2.111   5.915   0.679 -0.2364  1.4285 -0.5951
 9261SOL     OW28681   2.922   6.329   0.228  0.1781 -0.7368 -0.2257
 9261SOL    HW128682   3.021   6.320   0.234  0.4880  1.5513 -0.9022
 9261SOL    HW228683   2.893   6.315   0.133 -0.0092 -0.4499 -0.2120
 9262SOL     OW28684   1.637   2.781   6.860  0.4173  0.0347 -0.0351
 9262SOL    HW128685   1.597   2.857   6.809 -1.7734  0.1639  1.6959
 9262SOL    HW228686   1.609   2.694   6.818 -1.6002  0.1329  0.9759
 9263SOL     OW28687   5.855   3.341   4.949 -0.6832 -0.6051 -0.3412
 9263SOL    HW128688   5.851   3.241   4.955  1.0814 -0.6410  1.5156
 9263SOL    HW228689   5.795   3.382   5.018 -1.6932 -0.3534 -1.3504
 9264SOL     OW28690   0.361   0.137   0.910 -0.3599  0.2901  0.0173
 9264SOL    HW128691   0.415   0.152   0.827 -0.6285 -0.4793 -0.3035
 9264SOL    HW228692   0.264   0.137   0.886 -0.4016 -1.1447  0.1241
 9265SOL     OW28693   6.562   6.761   3.928  0.2798  0.4578  0.0057
 9265SOL    HW128694   6.532   6.818   4.004 -0.2084 -0.8816  0.8509
 9265SOL    HW228695   6.497   6.768   3.853  1.2292  2.4922 -0.6936
 9266SOL     OW28696   5.368   2.211   0.585 -0.0190 -0.2425  0.5600
 9266SOL    HW128697   5.285   2.193   0.637  0.1711  2.0835  1.7864
 9266SOL    HW228698   5.448   2.199   0.643  0.3771 -0.3721  0.0014
 9267SOL     OW28699   1.082   2.567   0.948  0.5289  0.0892  0.0942
 9267SOL    HW128700   1.026   2.567   0.865  1.6182  0.0957 -0.6641
 9267SOL    HW228701   1.179   2.567   0.922  0.9070  1.9752  1.3603
 9268SOL     OW28702   5.047   6.217   2.046  0.2015  0.2416  0.3036
 9268SOL    HW128703   5.075   6.261   2.131 -0.9790  2.0252 -0.1832
 9268SOL    HW228704   5.086   6.125   2.043  2.9818  1.2610  1.2580
 9269SOL     OW28705   5.485   0.461   3.553 -0.4539 -0.4500  0.4079
 9269SOL    HW128706   5.516   0.437   3.461  0.3165  2.7600 -0.2642
 9269SOL    HW228707   5.385   0.463   3.555 -0.4726 -0.4636 -0.3813
 9270SOL     OW28708   4.551   1.433   6.160 -0.0900 -0.5777 -0.5771
 9270SOL    HW128709   4.487   1.369   6.118 -1.5388 -0.4127  1.2575
 9270SOL    HW228710   4.609   1.385   6.225 -1.4229 -0.0664  1.0742
 9271SOL     OW28711   0.512   4.882   5.290  0.2319 -0.0816  0.0561
 9271SOL    HW128712   0.472   4.901   5.380  1.2604  0.4168  0.4322
 9271SOL    HW228713   0.584   4.813   5.299  1.0404  0.7016 -0.1897
 9272SOL     OW28714   0.739   6.349   2.338 -0.1899  0.1191 -0.3741
 9272SOL    HW128715   0.757   6.401   2.421 -1.5362 -1.2613  0.8545
 9272SOL    HW228716   0.669   6.395   2.283 -0.1548  0.4396 -0.1479
 9273SOL     OW28717   5.359   3.124   4.466  0.0656  0.0573  0.3859
 9273SOL    HW128718   5.444   3.079   4.438  0.5141  1.4007 -0.5331
 9273SOL    HW228719   5.320   3.077   4.545  1.1314 -1.1836  0.2015
 9274SOL     OW28720   4.807   0.251   4.822 -0.2148  0.4634 -0.0357
 9274SOL    HW128721   4.883   0.315   4.814  0.8226 -0.8611 -1.2978
 9274SOL    HW228722   4.840   0.166   4.865 -0.9108 -0.1979 -0.7808
 9275SOL     OW28723   3.950   0.861   6.707 -0.2785 -0.8496 -0.1945
 9275SOL    HW128724   3.956   0.947   6.657  1.2320 -1.6568 -1.5166
 9275SOL    HW228725   3.993   0.871   6.796 -1.5997  0.1917  0.3459
 9276SOL     OW28726   5.969   2.591   2.069  0.2341 -0.3349  0.4803
 9276SOL    HW128727   6.016   2.504   2.053 -0.5783 -0.3528 -2.6175
 9276SOL    HW228728   5.872   2.579   2.047 -0.2585  0.9255  1.8599
 9277SOL     OW28729   5.811   4.421   6.269 -0.4637 -0.0916 -0.7160
 9277SOL    HW128730   5.844   4.329   6.246  2.2341  0.6382 -0.0720
 9277SOL    HW228731   5.754   4.416   6.351  2.1184 -0.9334  1.1727
 9278SOL     OW28732   1.434   2.273   6.077  0.4104 -0.9545  0.2403
 9278SOL    HW128733   1.516   2.323   6.048  0.1172 -0.2896  0.5222
 9278SOL    HW228734   1.450   2.231   6.166 -0.4020  1.4839  1.6558
 9279SOL     OW28735   1.934   2.561   0.861 -0.3481  0.4293 -0.0867
 9279SOL    HW128736   1.976   2.641   0.818 -0.9964  0.1936 -1.1962
 9279SOL    HW228737   1.838   2.580   0.879 -0.0779  0.5416  1.3456
 9280SOL     OW28738   5.875   4.043   4.300  0.0939 -0.1386  0.1255
 9280SOL    HW128739   5.797   4.064   4.358  1.9149 -1.3073  3.2639
 9280SOL    HW228740   5.951   4.104   4.324  1.5772 -2.0683  0.5997
 9281SOL     OW28741   0.851   2.413   6.382  0.3141 -0.4132 -0.0728
 9281SOL    HW128742   0.922   2.359   6.336  1.4540  0.3067  0.7776
 9281SOL    HW228743   0.761   2.382   6.352  0.9851 -0.7725 -1.8565
 9282SOL     OW28744   5.127   1.224   0.708 -0.1050 -0.1859 -1.2541
 9282SOL    HW128745   5.052   1.290   0.707 -0.3209 -0.3097  0.7650
 9282SOL    HW228746   5.166   1.221   0.801  1.2072 -1.4424 -1.8172
 9283SOL     OW28747   6.465   1.326   2.940  0.3296 -0.6752 -0.0518
 9283SOL    HW128748   6.491   1.256   3.007  1.4050  0.4497  0.7445
 9283SOL    HW228749   6.538   1.393   2.932 -1.2341  1.1447  0.2628
 9284SOL     OW28750   2.899   6.320   4.560 -0.2331  0.3961  0.3623
 9284SOL    HW128751   2.985   6.295   4.516 -0.3025  1.0192 -0.1380
 9284SOL    HW228752   2.874   6.249   4.626  0.7181  0.2606  0.5951
 9285SOL     OW28753   0.221   3.517   2.194 -0.2772  0.3088  0.2044
 9285SOL    HW128754   0.286   3.443   2.210  0.7164  1.5901  2.7326
 9285SOL    HW228755   0.139   3.502   2.250 -0.8785  0.2307 -0.6716
 9286SOL     OW28756   4.770   3.940   0.498 -0.4887  0.0210 -0.4998
 9286SOL    HW128757   4.831   3.993   0.557 -0.9194 -0.5769  0.5111
 9286SOL    HW228758   4.699   4.000   0.462 -1.5102  0.0360  1.3587
 9287SOL     OW28759   2.270   6.538   5.993 -0.2050 -0.8528 -0.5160
 9287SOL    HW128760   2.343   6.479   5.959  2.3238  1.8214 -0.1473
 9287SOL    HW228761   2.192   6.535   5.930  1.8865 -0.6609 -3.2751
 9288SOL     OW28762   2.533   1.318   5.561 -0.7658 -0.0816 -0.3401
 9288SOL    HW128763   2.562   1.328   5.657  2.1069 -1.1491 -1.0166
 9288SOL    HW228764   2.546   1.405   5.514 -0.8416  0.0526 -0.1201
 9289SOL     OW28765   3.056   1.820   4.019 -0.4059 -0.0540  0.1741
 9289SOL    HW128766   3.091   1.820   3.925 -0.4708 -3.7592  0.0122
 9289SOL    HW228767   2.957   1.810   4.018 -0.4401  0.1853  0.6631
 9290SOL     OW28768   0.573   0.424   2.696  0.4909  0.6331  0.6434
 9290SOL    HW128769   0.534   0.405   2.606  1.8388 -1.2297  0.3828
 9290SOL    HW228770   0.633   0.349   2.723 -0.7480  0.5444  3.6408
 9291SOL     OW28771   2.502   4.696   1.916 -0.5869  0.1953  0.2395
 9291SOL    HW128772   2.591   4.664   1.949 -0.3243  0.3801 -0.2862
 9291SOL    HW228773   2.463   4.760   1.982  0.5772  1.6653 -0.4603
 9292SOL     OW28774   6.111   0.974   4.531 -0.5297 -0.1602  0.1086
 9292SOL    HW128775   6.088   1.018   4.618 -0.1388 -0.5553  0.4137
 9292SOL    HW228776   6.049   1.007   4.460 -0.3944  0.7061  0.3802
 9293SOL     OW28777   6.362   6.412   3.679 -0.0415  0.3406 -0.2699
 9293SOL    HW128778   6.302   6.375   3.750  2.0648 -2.5331  0.1823
 9293SOL    HW228779   6.309   6.470   3.618 -2.5930  0.3607  1.7920
 9294SOL     OW28780   2.171   2.327   6.964  0.2323  0.2557  0.4698
 9294SOL    HW128781   2.255   2.367   7.002 -0.7983  2.1746  0.8285
 9294SOL    HW228782   2.111   2.399   6.931 -1.4063 -1.0495  0.4380
 9295SOL     OW28783   1.634   5.447   4.264 -0.3447  0.7701 -0.3463
 9295SOL    HW128784   1.550   5.415   4.219  0.5459  0.1553 -1.6320
 9295SOL    HW228785   1.663   5.379   4.331 -1.9454  1.9125  1.6044
 9296SOL     OW28786   2.136   3.711   2.283  0.3734  0.3023 -0.2838
 9296SOL    HW128787   2.137   3.686   2.186 -1.2241  1.0093 -0.5125
 9296SOL    HW228788   2.155   3.809   2.292  0.1330  0.3157  0.0798
 9297SOL     OW28789   1.172   5.618   0.087  0.3822  0.4491 -0.1037
 9297SOL    HW128790   1.075   5.598   0.096  0.1738  1.8073  1.0685
 9297SOL    HW228791   1.222   5.535   0.064 -0.9553 -0.4206  0.0585
 9298SOL     OW28792   1.225   2.112   4.819 -0.2173  0.4346 -0.3398
 9298SOL    HW128793   1.148   2.132   4.880 -0.4591 -1.7316  0.1395
 9298SOL    HW228794   1.288   2.189   4.820 -0.7894  0.9540  1.7495
 9299SOL     OW28795   2.314   1.138   5.591  0.0191 -0.4649  0.4142
 9299SOL    HW128796   2.408   1.173   5.599  0.0135 -0.3991  0.1905
 9299SOL    HW228797   2.275   1.167   5.504 -0.2643 -0.3607  0.5755
 9300SOL     OW28798   6.081   1.344   4.980  0.3328  0.0076  0.0392
 9300SOL    HW128799   6.127   1.429   4.953  0.4902  0.0840  0.5192
 9300SOL    HW228800   6.077   1.340   5.080  0.6289 -0.7073  0.0260
 9301SOL     OW28801   4.556   5.473   4.797  0.1571 -0.3665 -0.1429
 9301SOL    HW128802   4.635   5.412   4.802 -0.0831 -0.6245  0.6666
 9301SOL    HW228803   4.477   5.430   4.842 -0.4934 -0.1768 -1.0645
 9302SOL     OW28804   4.051   0.138   0.750  0.0490  0.0840  0.5952
 9302SOL    HW128805   3.998   0.192   0.816 -0.0361 -0.8542  1.3096
 9302SOL    HW228806   4.139   0.112   0.791 -0.4128 -1.3476  0.7386
 9303SOL     OW28807   0.607   3.855   3.640  0.1416  0.0761 -1.0316
 9303SOL    HW128808   0.681   3.809   3.591  0.1241 -0.7897 -0.2851
 9303SOL    HW228809   0.620   3.841   3.739 -2.0261 -1.7151 -0.9355
 9304SOL     OW28810   0.200   1.059   6.616 -0.5500  0.5702  0.0800
 9304SOL    HW128811   0.211   0.994   6.540  0.7916  0.5021  0.3153
 9304SOL    HW228812   0.121   1.031   6.672 -0.1518 -0.7155  0.0280
 9305SOL     OW28813   2.355   4.530   0.377 -0.2884 -0.0097 -0.2954
 9305SOL    HW128814   2.382   4.499   0.286  0.4365  0.6118 -0.3091
 9305SOL    HW228815   2.431   4.515   0.441 -0.6050  0.0286  0.0917
 9306SOL     OW28816   2.173   6.225   1.310  0.1846 -0.5969  0.1536
 9306SOL    HW128817   2.204   6.173   1.389  1.6806 -0.7619 -0.5140
 9306SOL    HW228818   2.220   6.313   1.307 -2.0015  0.6882  1.0303
 9307SOL     OW28819   6.790   1.702   6.422  0.9350 -0.4506 -0.7050
 9307SOL    HW128820   6.802   1.773   6.492 -0.1254 -0.3032 -0.6523
 9307SOL    HW228821   6.804   1.742   6.331  2.0870 -0.5907 -0.6070
 9308SOL     OW28822   4.644   1.599   1.080  0.1155 -0.0331  0.1748
 9308SOL    HW128823   4.609   1.558   0.996 -2.2384 -1.0165  1.5475
 9308SOL    HW228824   4.730   1.555   1.106 -0.3539 -1.3686 -0.4631
 9309SOL     OW28825   2.516   2.120   0.066 -0.0375 -0.1888  0.4735
 9309SOL    HW128826   2.551   2.132   0.159  1.9664  1.3773 -0.4131
 9309SOL    HW228827   2.589   2.086   0.007 -1.0741 -0.4441 -0.7096
 9310SOL     OW28828   1.159   3.707   0.753 -0.0164 -0.3322 -0.1568
 9310SOL    HW128829   1.143   3.763   0.672 -0.3732 -1.3815 -0.8248
 9310SOL    HW228830   1.121   3.753   0.833 -2.3893 -0.6517 -1.0256
 9311SOL     OW28831   4.976   0.435   2.530 -0.2938 -0.0556  0.2652
 9311SOL    HW128832   4.984   0.444   2.629 -1.7788 -0.2866  0.4332
 9311SOL    HW228833   4.988   0.524   2.487  1.6554 -0.1449  0.5064
 9312SOL     OW28834   4.215   5.788   1.353  0.4486  0.0776 -0.1352
 9312SOL    HW128835   4.257   5.708   1.309  1.1229  0.0155  0.6065
 9312SOL    HW228836   4.262   5.871   1.324  1.7506 -0.0669  1.4025
 9313SOL     OW28837   4.637   2.169   0.732  0.3923 -0.2300 -0.2455
 9313SOL    HW128838   4.650   2.119   0.817 -2.1796 -3.2695 -1.4613
 9313SOL    HW228839   4.561   2.234   0.742 -0.2544 -0.9600 -0.3112
 9314SOL     OW28840   3.051   6.652   4.690 -0.3840 -0.0180  0.0684
 9314SOL    HW128841   3.124   6.583   4.690 -0.5466 -0.1894  0.0151
 9314SOL    HW228842   2.973   6.618   4.638 -0.5880  0.0758  0.3137
 9315SOL     OW28843   6.316   5.224   3.581  0.2029  0.4496 -0.2704
 9315SOL    HW128844   6.412   5.253   3.569  0.4020 -0.3239 -0.6160
 9315SOL    HW228845   6.275   5.276   3.656  0.3110  2.1680 -1.3367
 9316SOL     OW28846   6.927   4.506   4.101 -0.3520 -0.7534 -0.2183
 9316SOL    HW128847   6.910   4.495   4.003 -0.7648 -2.3975  0.0151
 9316SOL    HW228848   6.877   4.436   4.152 -0.8664  0.6377  1.2521
 9317SOL     OW28849   4.059   5.567   6.985  0.6352 -0.1813 -0.3775
 9317SOL    HW128850   4.070   5.653   6.936 -1.9047  0.7918  0.5758
 9317SOL    HW228851   4.008   5.503   6.927  2.8040 -1.2473 -1.2152
 9318SOL     OW28852   6.349   6.705   1.685 -0.1943  0.1570  0.6361
 9318SOL    HW128853   6.419   6.661   1.742  1.3739 -2.6320 -3.0955
 9318SOL    HW228854   6.393   6.766   1.619 -1.7021  1.2507  0.5727
 9319SOL     OW28855   6.707   0.608   1.439  0.1896 -0.3100 -0.0704
 9319SOL    HW128856   6.680   0.602   1.536 -0.2406 -3.4661 -0.2770
 9319SOL    HW228857   6.792   0.558   1.426  0.4180  0.3759 -1.2878
 9320SOL     OW28858   3.009   6.700   0.295 -0.2045 -0.1599  0.0542
 9320SOL    HW128859   2.913   6.680   0.311  0.0720 -0.3838  1.6541
 9320SOL    HW228860   3.031   6.792   0.329  0.0947 -0.0104 -0.5297
 9321SOL     OW28861   6.773   5.177   2.523 -0.4703 -0.3735 -0.1167
 9321SOL    HW128862   6.766   5.077   2.528 -1.3474 -0.2917  0.6514
 9321SOL    HW228863   6.735   5.209   2.436 -0.6598 -0.6780 -0.1483
 9322SOL     OW28864   6.137   2.358   5.536  0.0287  0.6788 -0.2591
 9322SOL    HW128865   6.050   2.392   5.571  0.2027  0.4976  0.3622
 9322SOL    HW228866   6.135   2.258   5.536  0.6431  0.6575  0.8128
 9323SOL     OW28867   1.036   2.380   1.458 -0.0384 -0.0420 -0.2094
 9323SOL    HW128868   1.000   2.300   1.410 -3.5823  2.2069 -1.7079
 9323SOL    HW228869   0.977   2.400   1.537  0.2179  1.5909 -0.4034
 9324SOL     OW28870   3.870   1.060   1.529 -0.8354 -0.3158 -0.4611
 9324SOL    HW128871   3.804   1.097   1.464 -0.2316  1.3340 -0.1764
 9324SOL    HW228872   3.828   1.054   1.620 -0.2683  1.9612  0.0063
 9325SOL     OW28873   2.140   4.674   0.655 -0.3374  0.5814  0.1337
 9325SOL    HW128874   2.056   4.721   0.681 -0.7066  0.6891 -1.1790
 9325SOL    HW228875   2.121   4.612   0.579  0.3935 -0.8179  1.0468
 9326SOL     OW28876   0.879   1.909   2.544  0.0830  0.2149  0.3033
 9326SOL    HW128877   0.802   1.942   2.490  1.6278  0.9394 -1.5856
 9326SOL    HW228878   0.963   1.957   2.516  1.1908 -0.2727  2.5250
 9327SOL     OW28879   5.484   0.250   2.914 -0.2864 -0.0797 -0.1971
 9327SOL    HW128880   5.530   0.318   2.857  1.2015 -1.5106 -0.7630
 9327SOL    HW228881   5.503   0.158   2.880 -0.1527 -0.9333  2.0238
 9328SOL     OW28882   0.611   2.246   1.975 -0.0069 -0.2194 -0.2963
 9328SOL    HW128883   0.541   2.178   1.997 -1.6099  1.1619 -0.8789
 9328SOL    HW228884   0.641   2.291   2.059  1.3534 -1.8397  0.1437
 9329SOL     OW28885   6.133   1.821   0.468  0.0848  0.2857  0.1703
 9329SOL    HW128886   6.120   1.733   0.513  1.0911 -0.1239 -0.3013
 9329SOL    HW228887   6.138   1.808   0.369 -1.4019  1.0922 -0.0461
 9330SOL     OW28888   0.703   5.095   1.926  0.0701  0.0363  0.2483
 9330SOL    HW128889   0.647   5.021   1.888 -1.4938  1.4596 -0.3334
 9330SOL    HW228890   0.726   5.159   1.853 -1.0370  1.6097  1.2174
 9331SOL     OW28891   5.420   1.284   3.149 -0.3478 -0.6969 -0.1201
 9331SOL    HW128892   5.418   1.197   3.198  0.3485  0.2816  1.7155
 9331SOL    HW228893   5.488   1.279   3.076 -0.6342 -1.8218 -0.3357
 9332SOL     OW28894   6.282   2.202   0.521  0.1177 -0.3850 -0.3474
 9332SOL    HW128895   6.360   2.226   0.578  0.2635  1.7422 -1.3664
 9332SOL    HW228896   6.313   2.188   0.427 -0.1119 -3.8741 -0.0524
 9333SOL     OW28897   0.901   0.383   3.366  0.1180 -0.2509 -0.0028
 9333SOL    HW128898   0.881   0.465   3.314  0.3523 -0.0328  0.2479
 9333SOL    HW228899   0.823   0.320   3.362 -0.2345  0.1728  0.1698
 9334SOL     OW28900   1.990   5.839   4.834  0.4715  0.7029  0.4878
 9334SOL    HW128901   1.995   5.875   4.927  4.4898  1.6643  0.0922
 9334SOL    HW228902   2.036   5.903   4.771 -1.8469 -0.0418 -2.1952
 9335SOL     OW28903   6.144   5.913   2.983 -0.0027 -0.0337 -0.3423
 9335SOL    HW128904   6.048   5.923   2.954  0.0231 -2.8000 -1.6881
 9335SOL    HW228905   6.202   5.970   2.925 -0.6390  0.0316 -0.9313
 9336SOL     OW28906   2.552   5.729   1.757  0.5288 -0.0314 -0.7871
 9336SOL    HW128907   2.641   5.764   1.726  1.2835 -0.2860  0.9757
 9336SOL    HW228908   2.548   5.631   1.742 -0.2929  0.2538 -2.7166
 9337SOL     OW28909   0.810   5.961   5.708  0.3264  0.4984 -0.6681
 9337SOL    HW128910   0.856   5.897   5.647 -0.7437 -0.7738 -0.1940
 9337SOL    HW228911   0.878   6.020   5.752  1.7321 -2.1563  0.9893
 9338SOL     OW28912   2.716   0.786   4.865  0.2144  0.2184 -0.1669
 9338SOL    HW128913   2.713   0.851   4.941 -1.5998 -0.9017  0.7958
 9338SOL    HW228914   2.641   0.805   4.801 -1.3739 -1.8114  0.9723
 9339SOL     OW28915   2.497   2.476   5.146  0.4725  0.5732  0.1282
 9339SOL    HW128916   2.591   2.443   5.156  0.3271  0.0547 -0.1601
 9339SOL    HW228917   2.489   2.568   5.184  1.0728  0.5792  0.2416
 9340SOL     OW28918   1.192   6.360   3.908  0.7438  0.6858  0.0953
 9340SOL    HW128919   1.094   6.338   3.915  0.6006  1.3919  0.3696
 9340SOL    HW228920   1.245   6.275   3.913  0.1771  0.3463  0.5366
 9341SOL     OW28921   4.015   5.799   6.400 -0.1444 -0.2048  0.5274
 9341SOL    HW128922   4.022   5.874   6.334  0.8603  0.4621  1.3499
 9341SOL    HW228923   4.066   5.720   6.366  2.5982  0.9841  1.5701
 9342SOL     OW28924   1.731   1.534   0.575  0.0156 -0.1136  0.1336
 9342SOL    HW128925   1.813   1.476   0.569 -0.5606 -0.8335 -1.9968
 9342SOL    HW228926   1.758   1.630   0.573  0.8394 -0.3339  0.1845
 9343SOL     OW28927   1.732   3.519   3.045  0.4687 -0.4366 -0.1883
 9343SOL    HW128928   1.719   3.460   3.124  0.4845 -0.0105  0.1359
 9343SOL    HW228929   1.755   3.611   3.076  1.7262 -0.5603 -0.7026
 9344SOL     OW28930   2.889   6.114   2.035 -0.1196  0.1538 -0.5662
 9344SOL    HW128931   2.820   6.076   2.097  0.9082  1.2855  1.3813
 9344SOL    HW228932   2.893   6.059   1.952 -2.6898 -0.4923 -0.3559
 9345SOL     OW28933   3.116   5.734   1.152  0.2565 -0.1041 -0.6757
 9345SOL    HW128934   3.103   5.762   1.056 -0.5837  0.1072 -0.5037
 9345SOL    HW228935   3.096   5.637   1.161 -2.1241  0.3621 -0.2713
 9346SOL     OW28936   5.968   4.057   6.784 -0.0313 -0.1839 -0.4535
 9346SOL    HW128937   5.996   4.025   6.875  1.2118  0.5189 -0.5762
 9346SOL    HW228938   5.962   4.157   6.784 -0.4136 -0.1972 -1.0531
 9347SOL     OW28939   0.111   1.718   4.804  0.0177  0.4160  0.1032
 9347SOL    HW128940   0.071   1.659   4.734 -1.7104  1.7688 -0.1063
 9347SOL    HW228941   0.202   1.747   4.776 -0.3590  0.3454 -1.2223
 9348SOL     OW28942   2.592   4.641   5.821  0.3399  0.2647  0.2754
 9348SOL    HW128943   2.655   4.570   5.790  0.0103 -0.0391  0.3042
 9348SOL    HW228944   2.544   4.681   5.743 -0.3540 -0.3727  0.3682
 9349SOL     OW28945   6.186   5.523   0.481 -0.2282 -0.5264  0.4564
 9349SOL    HW128946   6.165   5.559   0.390 -1.1622 -0.8198  0.5492
 9349SOL    HW228947   6.282   5.543   0.503 -0.7883  2.3348  0.6944
 9350SOL     OW28948   1.511   3.903   0.566  0.8972 -0.4341  0.4664
 9350SOL    HW128949   1.463   3.821   0.534 -0.5517  1.3535 -2.3298
 9350SOL    HW228950   1.606   3.900   0.536 -0.0424  0.4577 -3.1000
 9351SOL     OW28951   6.773   3.129   5.782 -0.6366 -0.1051  0.3227
 9351SOL    HW128952   6.686   3.155   5.825 -2.1086 -1.6133 -1.5696
 9351SOL    HW228953   6.848   3.148   5.845 -2.2022  2.2005  1.6538
 9352SOL     OW28954   2.513   2.348   0.808 -0.5999 -0.5227  0.2682
 9352SOL    HW128955   2.436   2.285   0.800  0.2789 -1.6348  0.3943
 9352SOL    HW228956   2.524   2.374   0.904 -0.6782 -0.5452  0.2836
 9353SOL     OW28957   0.200   5.121   5.006  0.0293  0.0734  0.0988
 9353SOL    HW128958   0.151   5.063   5.072  0.1731 -0.8079 -0.5534
 9353SOL    HW228959   0.294   5.088   4.997  0.0854  0.3529 -0.3557
 9354SOL     OW28960   0.841   2.241   4.976  0.1160  0.4200  0.3808
 9354SOL    HW128961   0.843   2.259   4.877  1.3390 -1.1259  0.0792
 9354SOL    HW228962   0.934   2.221   5.007 -0.1926  1.3140  1.9499
 9355SOL     OW28963   6.840   3.147   4.199 -0.2729  0.7250 -0.0269
 9355SOL    HW128964   6.859   3.130   4.102 -1.3293  0.6277 -0.2304
 9355SOL    HW228965   6.742   3.133   4.216 -0.4488  2.5308  0.6665
 9356SOL     OW28966   6.306   3.480   0.029  0.1871  0.3492 -0.0979
 9356SOL    HW128967   6.316   3.418   0.106 -1.3750  1.2457  0.8712
 9356SOL    HW228968   6.209   3.501   0.015  0.5881  1.6807 -1.1128
 9357SOL     OW28969   5.514   3.941   3.396  0.4140 -0.3809 -0.0941
 9357SOL    HW128970   5.459   3.924   3.314 -1.3357  1.1867  0.6837
 9357SOL    HW228971   5.599   3.987   3.370 -0.0230 -0.0940 -1.0575
 9358SOL     OW28972   2.297   1.087   2.219 -0.2923  0.2838  0.9006
 9358SOL    HW128973   2.211   1.056   2.178  0.6526  0.3989 -1.2863
 9358SOL    HW228974   2.326   1.171   2.174  0.7313  0.5024  1.9499
 9359SOL     OW28975   4.697   4.360   3.988  0.2527  0.2236  0.6669
 9359SOL    HW128976   4.761   4.284   4.001  1.3430  1.1449  0.8254
 9359SOL    HW228977   4.670   4.395   4.078 -0.5860 -0.2303  0.6040
 9360SOL     OW28978   4.489   1.307   5.465  0.4092 -0.2171 -0.2159
 9360SOL    HW128979   4.419   1.323   5.535  1.4667 -0.0870  0.8519
 9360SOL    HW228980   4.562   1.250   5.504 -0.6694 -3.2414 -2.2799
 9361SOL     OW28981   3.079   3.833   1.669  0.3731 -0.0329  0.1784
 9361SOL    HW128982   3.094   3.907   1.603  0.5605  2.6588  3.0193
 9361SOL    HW228983   3.163   3.778   1.676  0.9455  0.7136 -0.5753
 9362SOL     OW28984   2.851   2.245   2.987 -0.5689  0.3487 -0.1333
 9362SOL    HW128985   2.893   2.168   3.036  2.6851  1.6847 -0.6121
 9362SOL    HW228986   2.780   2.286   3.045 -0.8301 -1.6099  1.0294
 9363SOL     OW28987   5.232   5.893   0.289  0.1225  0.0442  0.3507
 9363SOL    HW128988   5.285   5.960   0.340  1.5380 -0.8424  0.1070
 9363SOL    HW228989   5.150   5.869   0.341 -0.1415  1.5479  0.6728
 9364SOL     OW28990   2.037   6.011   0.186 -0.1760 -0.3193  0.1665
 9364SOL    HW128991   2.099   6.034   0.261 -0.3241 -1.4788  0.6810
 9364SOL    HW228992   2.030   6.088   0.123 -1.8934  1.6692  2.5789
 9365SOL     OW28993   5.021   2.079   5.260  0.0047  0.3174  0.1167
 9365SOL    HW128994   5.070   2.117   5.182 -1.2606 -1.7666 -1.7985
 9365SOL    HW228995   5.024   1.979   5.257 -0.1437  0.1460  2.7458
 9366SOL     OW28996   2.586   3.474   1.495  0.0929 -0.4874  0.3458
 9366SOL    HW128997   2.549   3.381   1.499 -0.1584 -0.3702  0.7520
 9366SOL    HW228998   2.629   3.496   1.583 -1.0420  0.2786  0.7235
 9367SOL     OW28999   4.948   5.662   2.188 -0.0412 -0.1077 -0.4634
 9367SOL    HW129000   5.038   5.630   2.217 -0.5169 -0.3091  0.8228
 9367SOL    HW229001   4.897   5.695   2.267 -0.9900  0.2950 -1.2290
 9368SOL     OW29002   6.719   5.258   2.258  0.3580  0.0793 -0.3245
 9368SOL    HW129003   6.813   5.293   2.259  0.4769 -0.0373 -2.5349
 9368SOL    HW229004   6.658   5.330   2.223 -0.2549 -0.1169  0.3317
 9369SOL     OW29005   1.535   4.929   6.072 -0.1772  0.2595  0.1379
 9369SOL    HW129006   1.473   4.884   6.007  1.0595 -1.1883 -0.1045
 9369SOL    HW229007   1.506   5.024   6.085 -1.4416  0.1119 -1.2406
 9370SOL     OW29008   5.805   0.240   0.688  0.0906 -0.4060  0.3306
 9370SOL    HW129009   5.849   0.212   0.603  1.2522  1.3928  0.2949
 9370SOL    HW229010   5.852   0.196   0.765  2.5360  1.9615  0.3431
 9371SOL     OW29011   3.982   6.802   4.552  0.3393 -0.2382  0.5003
 9371SOL    HW129012   3.991   6.702   4.561 -1.7075 -0.3338  2.3029
 9371SOL    HW229013   3.986   6.827   4.455  1.3017 -1.9932  0.0317
 9372SOL     OW29014   6.520   4.478   3.314  0.1196  0.2665 -0.5496
 9372SOL    HW129015   6.586   4.525   3.257  1.3206 -1.6067 -0.7993
 9372SOL    HW229016   6.465   4.417   3.258  0.2812 -0.4569  0.0612
 9373SOL     OW29017   6.852   3.826   0.400 -0.7909 -0.2115 -0.3075
 9373SOL    HW129018   6.821   3.809   0.307  0.0799 -1.2252 -0.4279
 9373SOL    HW229019   6.777   3.863   0.454 -0.7598  2.5060 -1.9459
 9374SOL     OW29020   3.224   4.944   4.969 -0.1139 -0.2395  0.1409
 9374SOL    HW129021   3.152   4.904   4.913  0.5912 -2.0990  0.4968
 9374SOL    HW229022   3.218   5.044   4.965 -2.3046 -0.3453 -0.3184
 9375SOL     OW29023   4.395   0.041   5.399 -0.0876  0.1619 -0.7326
 9375SOL    HW129024   4.331   0.069   5.327  0.1010 -1.2418 -1.4899
 9375SOL    HW229025   4.369   0.083   5.485 -2.0357 -0.3563 -1.0112
 9376SOL     OW29026   3.290   2.935   0.232 -0.1650  0.0104  0.3289
 9376SOL    HW129027   3.265   2.849   0.277 -2.7845  0.2979 -0.4376
 9376SOL    HW229028   3.299   2.919   0.134  0.7449  0.3449  0.3543
 9377SOL     OW29029   2.031   3.347   4.348  0.3704 -0.4104 -0.0567
 9377SOL    HW129030   2.083   3.408   4.407  0.7660 -1.7327  1.0110
 9377SOL    HW229031   2.070   3.348   4.256  0.8814  0.2906  0.1606
 9378SOL     OW29032   1.534   3.664   6.427 -0.8022  0.2029 -0.0828
 9378SOL    HW129033   1.620   3.623   6.398 -0.4967  0.2260  0.7710
 9378SOL    HW229034   1.483   3.695   6.347 -0.5430 -0.8491 -0.6715
 9379SOL     OW29035   6.600   5.688   5.039  0.2931 -0.7597 -0.2072
 9379SOL    HW129036   6.618   5.633   5.121  0.1045  0.3421  0.6020
 9379SOL    HW229037   6.676   5.677   4.974  1.0415 -0.7208  0.6356
 9380SOL     OW29038   5.315   3.873   3.563  0.1557  0.2341  0.2553
 9380SOL    HW129039   5.391   3.904   3.505 -0.0899  2.0655  0.8473
 9380SOL    HW229040   5.259   3.808   3.512  0.7435  0.7355 -1.0834
 9381SOL     OW29041   4.774   3.436   1.261 -0.4346 -0.2918 -0.5374
 9381SOL    HW129042   4.814   3.373   1.327 -0.1213  0.0456 -0.3951
 9381SOL    HW229043   4.675   3.425   1.259 -0.7226  1.2834  1.7185
 9382SOL     OW29044   1.279   4.077   3.885  0.2209 -0.2131  0.3264
 9382SOL    HW129045   1.220   4.082   3.966  1.2921 -0.8630  1.1827
 9382SOL    HW229046   1.336   3.996   3.891 -0.0984 -0.5950 -1.4096
 9383SOL     OW29047   1.549   5.190   0.441 -0.1063  0.4741  0.1962
 9383SOL    HW129048   1.563   5.223   0.534 -0.9451  0.5472  0.2995
 9383SOL    HW229049   1.504   5.101   0.443 -1.8317  1.2869 -0.1459
 9384SOL     OW29050   6.812   3.957   5.237 -0.4672 -0.1275 -0.5892
 9384SOL    HW129051   6.910   3.978   5.230 -0.3983  0.7415  1.9261
 9384SOL    HW229052   6.799   3.882   5.302 -1.4233 -1.3264 -2.0887
 9385SOL     OW29053   6.280   5.080   1.441 -0.3892 -0.4613  0.1316
 9385SOL    HW129054   6.245   5.141   1.512  0.3626 -0.1792  0.2767
 9385SOL    HW229055   6.308   5.134   1.361 -0.0046 -0.6422  0.1399
 9386SOL     OW29056   4.954   6.932   3.203 -0.4943 -0.2401 -0.3264
 9386SOL    HW129057   4.966   6.978   3.115  1.8127 -0.8130 -0.3881
 9386SOL    HW229058   4.968   6.834   3.191  0.5226 -0.2530  0.7598
 9387SOL     OW29059   3.388   6.673   6.598  0.3998  0.5010  0.0738
 9387SOL    HW129060   3.429   6.637   6.682 -0.7739 -3.5555 -0.8847
 9387SOL    HW229061   3.299   6.714   6.619 -0.1634 -1.0128  0.8365
 9388SOL     OW29062   0.868   6.099   2.796 -0.2756  0.3383 -0.6159
 9388SOL    HW129063   0.858   6.021   2.735  2.7522  1.0488 -2.2017
 9388SOL    HW229064   0.956   6.144   2.780 -0.2474  1.8911  2.8226
 9389SOL     OW29065   6.121   5.589   6.170 -0.2708  0.2734  0.4741
 9389SOL    HW129066   6.220   5.588   6.187  0.1970 -1.9986 -1.7849
 9389SOL    HW229067   6.079   5.510   6.215 -0.3795 -0.8721 -1.5173
 9390SOL     OW29068   6.055   2.107   0.015 -0.4279 -0.0415  0.3518
 9390SOL    HW129069   6.092   2.189  -0.029 -1.6292 -0.7547 -2.1231
 9390SOL    HW229070   6.118   2.031   0.000 -0.4820 -0.1215  0.5306
 9391SOL     OW29071   5.939   1.560   1.220  0.1306  0.1872  0.4367
 9391SOL    HW129072   6.003   1.621   1.265  2.6132 -1.2844 -0.8801
 9391SOL    HW229073   5.931   1.475   1.273  1.9264 -0.9548 -0.9907
 9392SOL     OW29074   5.725   4.061   1.328 -0.0381  0.3984  0.4610
 9392SOL    HW129075   5.786   3.983   1.339  0.9796  1.3737  2.0242
 9392SOL    HW229076   5.748   4.110   1.243  1.4476  0.7923  1.0563
 9393SOL     OW29077   4.395   1.688   4.315  0.5197 -0.2099 -0.2623
 9393SOL    HW129078   4.486   1.729   4.312  0.3522  0.1534 -0.4081
 9393SOL    HW229079   4.377   1.640   4.229  0.0516  0.8619 -0.7887
 9394SOL     OW29080   6.605   2.098   5.916  0.3526 -0.2957  0.4238
 9394SOL    HW129081   6.650   2.057   5.995 -1.2116 -0.3123  1.3487
 9394SOL    HW229082   6.650   2.068   5.832  1.2285 -1.3273  1.2358
 9395SOL     OW29083   6.600   2.808   6.194  0.2801  0.1339  0.0142
 9395SOL    HW129084   6.534   2.742   6.158  0.6163 -0.8124  1.0654
 9395SOL    HW229085   6.560   2.857   6.272  0.6556 -0.1216  0.3717
 9396SOL     OW29086   1.172   5.265   0.613 -0.0519  0.4228  0.6696
 9396SOL    HW129087   1.171   5.299   0.519 -1.5612  1.1961  0.9241
 9396SOL    HW229088   1.263   5.278   0.652  0.0279  2.1510  0.0143
 9397SOL     OW29089   4.179   5.319   1.132 -0.1503 -0.0601  0.1968
 9397SOL    HW129090   4.185   5.221   1.116 -0.2542 -0.4237  2.1108
 9397SOL    HW229091   4.125   5.337   1.214 -0.1036  1.5980 -0.0866
 9398SOL     OW29092   4.727   2.685   3.456 -0.3796 -0.2413  0.0696
 9398SOL    HW129093   4.728   2.720   3.363  1.0374 -0.9180 -0.1930
 9398SOL    HW229094   4.782   2.601   3.461 -0.7584 -0.4366  1.4304
 9399SOL     OW29095   2.042   7.008   1.483  0.0843 -0.9578  0.4494
 9399SOL    HW129096   2.136   6.997   1.515  1.0159  0.0190 -1.8111
 9399SOL    HW229097   1.991   7.065   1.548  1.5688  0.0281  0.7845
 9400SOL     OW29098   4.964   2.683   6.932  0.2333  0.0415  0.1080
 9400SOL    HW129099   5.010   2.609   6.883  1.0444 -0.7940  2.0539
 9400SOL    HW229100   4.874   2.697   6.892  0.6477 -0.9616 -1.2707
 9401SOL     OW29101   0.063   3.222   5.616  0.5420 -0.2761 -0.0442
 9401SOL    HW129102   0.056   3.125   5.640 -0.3199 -0.5759 -1.3945
 9401SOL    HW229103   0.132   3.265   5.674  0.3957 -1.5089  1.1160
 9402SOL     OW29104   6.815   1.490   3.801 -0.1754  0.4790  0.0633
 9402SOL    HW129105   6.843   1.416   3.740  1.0105  0.0436  1.0888
 9402SOL    HW229106   6.725   1.524   3.774  0.2439  0.1997 -1.8071
 9403SOL     OW29107   6.140   2.659   0.136  0.3389 -0.2640  0.2800
 9403SOL    HW129108   6.206   2.586   0.155 -2.7166 -3.6194 -0.8274
 9403SOL    HW229109   6.146   2.686   0.040  2.1239  1.8208  0.9037
 9404SOL     OW29110   4.074   0.734   4.024 -0.1024 -0.6290  0.1289
 9404SOL    HW129111   4.068   0.642   3.986  0.1205  0.2330 -2.1318
 9404SOL    HW229112   4.170   0.756   4.042 -0.0184 -0.3920 -0.5689
 9405SOL     OW29113   3.213   0.118   1.869 -0.0023  0.2143 -0.0690
 9405SOL    HW129114   3.182   0.134   1.963 -0.0826  0.1196 -0.0793
 9405SOL    HW229115   3.305   0.157   1.858  0.6748 -1.1421  0.5060
 9406SOL     OW29116   6.813   4.014   2.349  0.6067 -0.4666  0.1597
 9406SOL    HW129117   6.804   4.109   2.318  0.8910  0.8769  3.7390
 9406SOL    HW229118   6.909   3.995   2.370  0.5075 -1.4766 -0.2764
 9407SOL     OW29119   0.760   5.828   0.152  0.1291  0.5706  0.5285
 9407SOL    HW129120   0.779   5.757   0.220  0.9340  0.5109  0.2524
 9407SOL    HW229121   0.819   5.907   0.170  0.3087  0.5736 -0.0632
 9408SOL     OW29122   6.274   6.390   1.144  0.1136  0.4761 -0.4637
 9408SOL    HW129123   6.195   6.414   1.089  0.2905 -0.8545 -1.3233
 9408SOL    HW229124   6.259   6.420   1.239 -0.8784  1.3142 -0.8680
 9409SOL     OW29125   4.349   6.168   4.121  0.2995 -0.7237 -0.0940
 9409SOL    HW129126   4.357   6.100   4.048 -0.7426 -1.6799  0.6411
 9409SOL    HW229127   4.306   6.251   4.085 -0.5700 -1.3305 -0.5031
 9410SOL     OW29128   5.920   6.965   3.559 -0.0085  0.1857 -0.0905
 9410SOL    HW129129   5.971   7.051   3.568  1.2626 -0.6828  1.5685
 9410SOL    HW229130   5.832   6.983   3.516  1.0422  1.9891 -1.6462
 9411SOL     OW29131   3.996   2.753   5.280  0.3085 -0.6949  0.1155
 9411SOL    HW129132   3.958   2.703   5.358 -2.3024 -1.6166 -1.5972
 9411SOL    HW229133   4.063   2.696   5.233  1.6214 -0.2749  1.4276
 9412SOL     OW29134   0.106   1.178   4.387  0.1671  0.1564  0.5177
 9412SOL    HW129135   0.124   1.183   4.486  0.0659 -2.7177  0.7504
 9412SOL    HW229136   0.053   1.096   4.367  1.4857 -0.1318 -2.1220
 9413SOL     OW29137   2.256   6.057   0.351 -0.0581  0.0577  0.3848
 9413SOL    HW129138   2.286   6.138   0.401  0.1660  0.4408 -0.3536
 9413SOL    HW229139   2.266   5.976   0.409 -1.1806  0.6619  1.4726
 9414SOL     OW29140   5.277   5.946   4.143  0.4042  0.0305 -0.5615
 9414SOL    HW129141   5.253   6.015   4.212  3.6175 -0.0076  0.7275
 9414SOL    HW229142   5.222   5.864   4.159 -0.5037  0.7959  0.5223
 9415SOL     OW29143   6.889   0.410   1.365 -0.3743 -0.0600  0.6821
 9415SOL    HW129144   6.908   0.359   1.281 -0.7778 -0.6740  0.9561
 9415SOL    HW229145   6.895   0.348   1.443  1.7585  0.8503  1.3179
 9416SOL     OW29146   6.305   3.930   2.614 -0.3707  0.1473 -0.2085
 9416SOL    HW129147   6.282   3.872   2.692 -0.3777  0.9950  0.4307
 9416SOL    HW229148   6.400   3.912   2.587  0.8414  2.2356  2.2150
 9417SOL     OW29149   2.254   2.897   4.248 -0.3512  0.5755  0.1514
 9417SOL    HW129150   2.156   2.906   4.267 -0.3867  3.7155 -0.8763
 9417SOL    HW229151   2.272   2.925   4.153  1.5853  0.1509  0.3464
 9418SOL     OW29152   5.220   2.217   5.746  0.9821  0.7243 -0.3359
 9418SOL    HW129153   5.259   2.305   5.717 -0.7745  1.5881 -0.2361
 9418SOL    HW229154   5.170   2.177   5.669  2.1690 -0.4635 -0.5264
 9419SOL     OW29155   3.984   3.307   5.219 -0.5249 -0.1751 -0.1851
 9419SOL    HW129156   3.920   3.235   5.244 -0.4019  0.0083  0.6904
 9419SOL    HW229157   3.987   3.316   5.119 -2.8831  0.7247 -0.2233
 9420SOL     OW29158   3.621   4.808   6.760  0.0959  0.6316  0.0434
 9420SOL    HW129159   3.565   4.797   6.677  0.9853 -0.7852 -0.4081
 9420SOL    HW229160   3.587   4.746   6.831  1.0670 -0.2877 -0.2535
 9421SOL     OW29161   6.955   1.280   1.071  0.5017 -0.9207  0.1028
 9421SOL    HW129162   7.027   1.342   1.041 -1.1406  0.9635 -0.2124
 9421SOL    HW229163   6.918   1.313   1.159 -2.0039  0.0693 -1.2070
 9422SOL     OW29164   6.465   3.661   3.135 -0.2851 -0.1761  0.4825
 9422SOL    HW129165   6.497   3.566   3.128  0.0581 -0.1510  1.6498
 9422SOL    HW229166   6.541   3.721   3.160 -1.1116 -0.0880  3.0945
 9423SOL     OW29167   0.860   6.179   6.621 -0.2948  0.5973 -0.3862
 9423SOL    HW129168   0.799   6.101   6.634 -1.8436  1.5660 -1.4279
 9423SOL    HW229169   0.916   6.192   6.703 -0.1749 -1.4218 -0.0994
 9424SOL     OW29170   4.829   0.289   0.414  0.1604 -0.0648 -0.9029
 9424SOL    HW129171   4.804   0.380   0.447  0.2367 -0.8476  1.4682
 9424SOL    HW229172   4.908   0.297   0.354  1.8270  1.2329  1.3135
 9425SOL     OW29173   1.174   2.724   2.443  0.0904 -0.2214  0.4093
 9425SOL    HW129174   1.260   2.679   2.420 -0.4282 -0.4339 -1.2383
 9425SOL    HW229175   1.184   2.773   2.529  1.0246 -2.4894  1.6596
 9426SOL     OW29176   0.120   0.521   3.648 -0.3957 -0.1762 -0.0061
 9426SOL    HW129177   0.112   0.607   3.597  1.2435  0.3466  0.5657
 9426SOL    HW229178   0.197   0.527   3.711  0.0713 -2.2526 -0.3211
 9427SOL     OW29179   5.125   2.118   6.464  0.5442 -0.3199  0.1754
 9427SOL    HW129180   5.106   2.078   6.374 -0.9238  2.0948 -0.6825
 9427SOL    HW229181   5.041   2.118   6.518  1.1547 -0.7227  1.1494
 9428SOL     OW29182   4.555   6.957   1.677 -0.1430 -0.4066 -0.1935
 9428SOL    HW129183   4.469   7.006   1.666 -0.5009 -0.3535  2.3432
 9428SOL    HW229184   4.541   6.859   1.660 -0.5406 -0.2964 -0.4881
 9429SOL     OW29185   5.380   0.896   0.409  0.3602 -0.4163  0.4156
 9429SOL    HW129186   5.319   0.918   0.485  0.8816  0.7817  0.5084
 9429SOL    HW229187   5.418   0.980   0.372  1.5319 -1.1119  0.0020
 9430SOL     OW29188   1.498   3.940   2.038 -0.3133 -0.2055 -0.2547
 9430SOL    HW129189   1.484   3.877   1.962  1.0350 -0.8118 -0.0318
 9430SOL    HW229190   1.498   4.034   2.004  0.3899 -0.4779 -1.0379
 9431SOL     OW29191   5.328   2.260   4.154 -0.4957 -0.3860  0.1653
 9431SOL    HW129192   5.411   2.248   4.208  0.6901  0.3676 -1.3932
 9431SOL    HW229193   5.277   2.174   4.152  0.0712 -0.7729  1.4146
 9432SOL     OW29194   5.754   3.514   2.373  0.3527  0.1704  0.7450
 9432SOL    HW129195   5.726   3.608   2.393  0.2724  0.3100  0.0143
 9432SOL    HW229196   5.719   3.453   2.444 -0.4979  0.5460  0.6602
 9433SOL     OW29197   5.460   0.675   3.746  0.3296  0.2523  0.1398
 9433SOL    HW129198   5.388   0.653   3.812 -0.8803  2.4112 -0.3614
 9433SOL    HW229199   5.489   0.592   3.698  1.0703 -1.3489  3.1269
 9434SOL     OW29200   2.372   0.558   1.376 -0.4835  0.4548 -0.5235
 9434SOL    HW129201   2.382   0.647   1.421  0.7265  0.1130 -0.0847
 9434SOL    HW229202   2.308   0.567   1.299 -2.2270  1.1492  0.9346
 9435SOL     OW29203   5.234   6.386   6.528 -0.2467 -0.0841  0.4725
 9435SOL    HW129204   5.259   6.429   6.441  0.6425 -1.4533 -0.0022
 9435SOL    HW229205   5.147   6.422   6.560 -0.8579  0.0680 -1.2692
 9436SOL     OW29206   0.517   5.656   0.737 -0.0206  0.4648  0.3207
 9436SOL    HW129207   0.455   5.624   0.665 -0.0821  0.7105  0.2624
 9436SOL    HW229208   0.475   5.640   0.826 -0.3934  1.0879  0.2641
 9437SOL     OW29209   2.209   0.250   2.317 -0.3098  1.0889 -0.0883
 9437SOL    HW129210   2.163   0.214   2.235 -0.8573  2.5419 -0.4523
 9437SOL    HW229211   2.185   0.347   2.329 -0.1439  0.9441  1.7327
 9438SOL     OW29212   0.934   3.906   5.762  0.0336  0.6694 -0.0600
 9438SOL    HW129213   0.893   3.978   5.818  0.6112  0.9505  0.0092
 9438SOL    HW229214   0.927   3.931   5.665  1.5729  1.5559  0.0299
 9439SOL     OW29215   5.287   0.725   3.335 -0.3275 -0.1420  0.2705
 9439SOL    HW129216   5.194   0.748   3.306 -0.6325 -1.5275  0.1051
 9439SOL    HW229217   5.305   0.764   3.425 -1.2410 -0.2718  0.5111
 9440SOL     OW29218   4.404   2.462   4.051  0.1031  0.0797 -0.0308
 9440SOL    HW129219   4.320   2.414   4.076  0.4021 -0.2092  0.4347
 9440SOL    HW229220   4.408   2.473   3.952 -1.1160  1.2699  0.0239
 9441SOL     OW29221   2.062   5.934   1.550 -0.0756  0.2171  0.8069
 9441SOL    HW129222   1.984   5.874   1.568  0.4593 -0.7491 -0.0103
 9441SOL    HW229223   2.072   6.000   1.625 -0.1791 -1.2465  2.1560
 9442SOL     OW29224   4.907   6.979   4.483 -0.6309 -0.2197  0.2001
 9442SOL    HW129225   4.882   7.074   4.505  0.2195  0.0870 -0.1009
 9442SOL    HW229226   4.958   6.940   4.559  1.7387  0.6241 -0.8724
 9443SOL     OW29227   3.779   1.464   2.397 -0.2750 -0.4262 -0.2786
 9443SOL    HW129228   3.849   1.420   2.341  0.6948  0.4087  0.2358
 9443SOL    HW229229   3.724   1.525   2.340  1.0872  0.8768 -0.2667
 9444SOL     OW29230   4.819   0.044   6.618 -0.0694 -0.2858  0.0770
 9444SOL    HW129231   4.856   0.025   6.710 -0.2969  0.2263  0.2771
 9444SOL    HW229232   4.805   0.142   6.607 -1.7783 -0.4854  0.1755
 9445SOL     OW29233   3.079   0.870   0.263 -0.0468  0.4184 -0.4293
 9445SOL    HW129234   3.156   0.834   0.316 -0.5993  0.1988  0.2442
 9445SOL    HW229235   3.007   0.800   0.257 -1.4162  1.5641  1.4507
 9446SOL     OW29236   6.486   4.351   0.354  0.4795  0.1224  0.0623
 9446SOL    HW129237   6.409   4.398   0.398 -0.8448 -2.2762  0.4993
 9446SOL    HW229238   6.563   4.346   0.418  0.9681  2.2589 -0.2667
 9447SOL     OW29239   3.888   3.408   3.074  0.1923 -0.5063 -0.5957
 9447SOL    HW129240   3.819   3.474   3.105 -0.4977 -0.6266 -1.8166
 9447SOL    HW229241   3.865   3.317   3.110  1.4964 -0.0301  1.6188
 9448SOL     OW29242   0.134   3.776   7.001 -0.3847 -0.3965 -0.4746
 9448SOL    HW129243   0.054   3.751   6.947 -1.1081  0.5458  0.1418
 9448SOL    HW229244   0.137   3.720   7.084 -0.0140 -0.8967 -0.8117
 9449SOL     OW29245   3.496   5.278   1.249  0.1063 -0.0273  0.0417
 9449SOL    HW129246   3.424   5.302   1.314  1.7282  3.6000  0.7228
 9449SOL    HW229247   3.506   5.351   1.181  2.7898 -0.6300 -0.3146
 9450SOL     OW29248   5.519   5.047   6.624 -0.7547 -0.1255  0.1779
 9450SOL    HW129249   5.479   5.052   6.532 -2.4437  0.1576  0.8881
 9450SOL    HW229250   5.584   5.122   6.637 -1.0807  0.2883 -0.5166
 9451SOL     OW29251   6.415   1.631   2.641 -0.3338 -0.0402 -0.0405
 9451SOL    HW129252   6.358   1.611   2.561  0.0661  2.5730 -1.0826
 9451SOL    HW229253   6.509   1.605   2.622 -0.3849 -0.1606 -0.1261
 9452SOL     OW29254   2.447   1.476   3.164  0.1053 -0.2394  0.0207
 9452SOL    HW129255   2.349   1.458   3.155  0.1816 -0.5277 -0.2485
 9452SOL    HW229256   2.461   1.546   3.234 -0.1582 -1.8040  1.7330
 9453SOL     OW29257   4.635   0.413   4.615  0.4414  0.5606 -0.8001
 9453SOL    HW129258   4.676   0.504   4.628  0.1858  0.5359  0.3179
 9453SOL    HW229259   4.628   0.367   4.704  0.8216 -0.6714 -1.3836
 9454SOL     OW29260   5.750   5.154   6.154 -0.2740  1.0656  0.2538
 9454SOL    HW129261   5.747   5.239   6.101 -0.4439  0.6342 -0.4355
 9454SOL    HW229262   5.751   5.076   6.092  2.4858  0.5806  0.7845
 9455SOL     OW29263   6.506   2.834   3.276 -0.1184  0.3967 -0.3962
 9455SOL    HW129264   6.438   2.884   3.330 -0.1063 -0.4358  0.4124
 9455SOL    HW229265   6.510   2.739   3.308  0.6049  0.1504 -1.2078
 9456SOL     OW29266   2.852   5.425   4.735  0.3417  0.6887 -1.0133
 9456SOL    HW129267   2.926   5.492   4.741  0.4313  0.4663  1.0928
 9456SOL    HW229268   2.782   5.459   4.672  0.7466  2.3932 -0.6034
 9457SOL     OW29269   0.711   3.014   5.409 -0.0284  0.3249  0.5497
 9457SOL    HW129270   0.801   2.992   5.446 -1.3687 -1.2000  3.1360
 9457SOL    HW229271   0.677   3.098   5.452 -0.6638 -0.2139  1.1144
 9458SOL     OW29272   3.235   5.746   6.597 -0.6071  0.0084 -0.5099
 9458SOL    HW129273   3.176   5.823   6.573  0.7595  0.6852 -1.8876
 9458SOL    HW229274   3.327   5.780   6.618 -0.5653 -1.0503  1.2159
 9459SOL     OW29275   6.065   3.314   1.834 -0.2047 -0.0876 -0.3385
 9459SOL    HW129276   6.014   3.398   1.818 -1.4003 -0.7014  0.1558
 9459SOL    HW229277   6.093   3.310   1.930  1.3867  0.5558 -0.7431
 9460SOL     OW29278   4.776   5.296   5.785  0.2647  0.6529  0.2943
 9460SOL    HW129279   4.818   5.336   5.703  0.2026 -0.0424 -0.0827
 9460SOL    HW229280   4.744   5.203   5.764  1.2521  0.0387  1.4139
 9461SOL     OW29281   3.350   5.158   4.319 -0.2380  0.0712  0.1259
 9461SOL    HW129282   3.375   5.075   4.268 -1.7723  0.0655 -0.6771
 9461SOL    HW229283   3.251   5.173   4.311 -0.0393  1.7747  0.5886
 9462SOL     OW29284   1.391   2.593   0.852  0.2987 -0.4313  0.1490
 9462SOL    HW129285   1.422   2.687   0.837  2.2641 -1.3999 -3.1533
 9462SOL    HW229286   1.471   2.534   0.864 -0.7942 -1.9004  0.4677
 9463SOL     OW29287   2.052   6.527   6.985  0.0088  0.1455 -0.1528
 9463SOL    HW129288   2.089   6.526   6.892  1.0958 -1.6006  0.2547
 9463SOL    HW229289   2.079   6.443   7.033  0.6341  1.5950  2.2083
 9464SOL     OW29290   5.996   3.632   5.534  0.0714  0.3991  0.7219
 9464SOL    HW129291   6.066   3.582   5.585  0.6843 -0.0688 -0.5134
 9464SOL    HW229292   6.037   3.714   5.494  0.0386 -0.0921 -0.3509
 9465SOL     OW29293   4.298   1.052   5.428  0.0307  0.2648 -0.3414
 9465SOL    HW129294   4.272   0.985   5.358  0.1587  0.3442 -0.4641
 9465SOL    HW229295   4.219   1.108   5.451 -0.5258 -0.9776  0.9229
 9466SOL     OW29296   2.536   0.093   6.333  0.0294  0.3066 -0.6008
 9466SOL    HW129297   2.625   0.096   6.378 -0.1116 -1.5924 -0.1138
 9466SOL    HW229298   2.478   0.026   6.379 -2.2149  2.5707  0.0660
 9467SOL     OW29299   5.653   2.515   3.159  0.1476  0.0285  0.1998
 9467SOL    HW129300   5.584   2.445   3.139 -0.4524  0.8964 -0.8398
 9467SOL    HW229301   5.744   2.480   3.134 -0.0231 -0.7359  0.6103
 9468SOL     OW29302   2.232   2.264   3.597 -0.3061 -0.1647 -0.9568
 9468SOL    HW129303   2.195   2.196   3.534 -0.9149  0.8491 -1.7112
 9468SOL    HW229304   2.167   2.339   3.608  1.0674  1.1587 -1.5096
 9469SOL     OW29305   3.044   6.157   6.115 -0.0925 -0.3864  0.4109
 9469SOL    HW129306   2.988   6.199   6.043 -1.7336  0.8520  2.2928
 9469SOL    HW229307   3.002   6.071   6.144 -1.0013  0.4762  1.7328
 9470SOL     OW29308   0.261   2.475   1.751  0.1419  0.2157 -0.0327
 9470SOL    HW129309   0.338   2.412   1.762 -0.0286  0.2016  1.2250
 9470SOL    HW229310   0.295   2.569   1.753  0.2684  0.1906 -0.7918
 9471SOL     OW29311   4.123   5.146   3.848 -0.4430  0.6096 -0.6268
 9471SOL    HW129312   4.062   5.158   3.769 -1.1160 -0.9291 -0.3689
 9471SOL    HW229313   4.071   5.156   3.932  0.2118  1.9201 -0.3452
 9472SOL     OW29314   1.289   1.813   5.943 -0.3494 -0.0179  0.2245
 9472SOL    HW129315   1.281   1.732   5.884 -2.0323 -1.3966  2.1524
 9472SOL    HW229316   1.331   1.786   6.030 -0.4012  1.3252  0.6832
 9473SOL     OW29317   3.920   5.112   3.072  0.0806 -0.4422  0.2128
 9473SOL    HW129318   3.961   5.060   2.997  1.6197 -1.5227  1.7271
 9473SOL    HW229319   3.992   5.151   3.129 -1.0525  0.3408  1.1631
 9474SOL     OW29320   5.072   2.782   3.862  0.1144 -0.3958 -0.3307
 9474SOL    HW129321   5.016   2.841   3.921 -0.2734 -0.9666 -0.1159
 9474SOL    HW229322   5.018   2.753   3.783  0.7152  0.5752 -1.1204
 9475SOL     OW29323   3.657   3.373   4.974  0.4070  0.6025 -0.0398
 9475SOL    HW129324   3.676   3.465   4.941  0.7455  0.5644  0.0422
 9475SOL    HW229325   3.725   3.310   4.937 -0.3865  0.2106 -0.8817
 9476SOL     OW29326   1.941   6.610   6.479 -0.6329 -0.1519  0.4074
 9476SOL    HW129327   1.958   6.520   6.440 -0.1342 -0.0217  0.3153
 9476SOL    HW229328   1.876   6.602   6.554 -0.7938 -0.5496  0.2292
 9477SOL     OW29329   0.568   6.491   2.163 -0.0082 -0.1039 -0.3424
 9477SOL    HW129330   0.529   6.512   2.073 -0.3425 -1.3600 -0.5054
 9477SOL    HW229331   0.495   6.474   2.228  0.2436 -1.3411 -0.3723
 9478SOL     OW29332   4.273   0.829   0.645 -0.5963  0.8778  0.1916
 9478SOL    HW129333   4.218   0.751   0.676  2.6725 -1.9592 -0.5531
 9478SOL    HW229334   4.214   0.894   0.597 -3.1840 -2.4099 -1.4714
 9479SOL     OW29335   4.973   1.138   0.081 -0.2701  0.4951 -0.5263
 9479SOL    HW129336   5.017   1.058   0.041  3.6195  3.0053 -1.8891
 9479SOL    HW229337   4.912   1.180   0.014 -1.4539 -0.6678 -0.1998
 9480SOL     OW29338   2.441   5.527   5.738 -0.3102 -0.2619 -0.0986
 9480SOL    HW129339   2.513   5.531   5.669 -1.3402 -1.2568 -1.2787
 9480SOL    HW229340   2.465   5.587   5.814  1.3770  0.0329 -0.8062
 9481SOL     OW29341   0.907   0.399   2.278 -0.2694 -0.4308  0.5662
 9481SOL    HW129342   0.964   0.477   2.254  0.5166 -0.7204  1.4398
 9481SOL    HW229343   0.836   0.429   2.342 -2.0438  0.2307 -1.5900
 9482SOL     OW29344   5.787   1.776   2.924  0.5006  0.5347  0.4281
 9482SOL    HW129345   5.815   1.857   2.872 -0.0773  0.1479 -0.5011
 9482SOL    HW229346   5.730   1.718   2.867 -0.1634  0.1028  1.5019
 9483SOL     OW29347   6.430   0.413   7.009  0.3877  0.6246 -0.1403
 9483SOL    HW129348   6.466   0.500   7.043 -0.8318  1.4387 -0.8467
 9483SOL    HW229349   6.405   0.422   6.912 -0.6432 -0.2110  0.0194
 9484SOL     OW29350   6.080   4.124   6.451 -0.1849 -0.0461  0.0049
 9484SOL    HW129351   6.014   4.178   6.398  0.3504  1.2564  0.6296
 9484SOL    HW229352   6.067   4.027   6.431 -0.5412  0.3577 -1.8619
 9485SOL     OW29353   0.128   6.595   5.601  0.0114 -0.3359 -0.5539
 9485SOL    HW129354   0.196   6.572   5.532  0.6395  0.3265 -0.1712
 9485SOL    HW229355   0.171   6.647   5.675 -1.2699  1.9387 -1.2798
 9486SOL     OW29356   5.139   6.242   1.467  0.1599  0.0680  0.2537
 9486SOL    HW129357   5.110   6.314   1.403 -0.3178 -0.3646 -0.0212
 9486SOL    HW229358   5.137   6.277   1.560  0.6814  0.6506  0.0513
 9487SOL     OW29359   0.763   4.573   4.851  0.8393  0.4696 -0.5399
 9487SOL    HW129360   0.733   4.479   4.863 -1.7060  1.0835 -1.5401
 9487SOL    HW229361   0.795   4.609   4.938 -0.3354 -0.6244  0.3806
 9488SOL     OW29362   5.897   3.106   3.685 -0.0928  0.5298 -0.2574
 9488SOL    HW129363   5.945   3.194   3.677  0.5079  0.1918 -0.4538
 9488SOL    HW229364   5.800   3.123   3.699  0.2349  1.2486  1.3684
 9489SOL     OW29365   6.058   2.817   6.491  0.2500 -0.3667 -0.6122
 9489SOL    HW129366   5.971   2.830   6.443 -0.1797  1.4018  0.5706
 9489SOL    HW229367   6.118   2.894   6.473  0.2087  0.1757  1.3641
 9490SOL     OW29368   2.306   2.721   1.028  0.2895 -0.2958  0.0916
 9490SOL    HW129369   2.376   2.764   1.085 -0.1291  0.5629 -0.0340
 9490SOL    HW229370   2.291   2.627   1.059 -0.3393  0.3247  1.7553
 9491SOL     OW29371   5.513   2.873   1.315  0.7207  0.0081 -0.1333
 9491SOL    HW129372   5.536   2.811   1.240  0.2627 -0.5806  0.2120
 9491SOL    HW229373   5.415   2.873   1.330  0.5211  1.9349 -1.0904
 9492SOL     OW29374   6.436   2.453   1.704  0.6674  0.3041  0.1592
 9492SOL    HW129375   6.462   2.436   1.799  0.9691 -0.1885 -0.0096
 9492SOL    HW229376   6.517   2.476   1.650  0.3172  2.0799  0.3174
 9493SOL     OW29377   6.221   5.766   2.418 -0.0174 -0.1779 -0.5291
 9493SOL    HW129378   6.272   5.851   2.406  1.7148 -1.0368  0.2963
 9493SOL    HW229379   6.160   5.752   2.340 -1.2682  2.3797 -0.1006
 9494SOL     OW29380   4.380   1.300   4.415  0.6200  0.4789  0.6453
 9494SOL    HW129381   4.458   1.258   4.462 -0.6701 -1.3746  1.2618
 9494SOL    HW229382   4.398   1.302   4.316  0.3190 -2.7385  0.4213
 9495SOL     OW29383   5.608   5.413   4.117 -0.0763  0.0453  0.3564
 9495SOL    HW129384   5.549   5.333   4.126  0.3132 -0.3269 -0.2909
 9495SOL    HW229385   5.565   5.479   4.056 -1.9820  1.8699  3.4146
 9496SOL     OW29386   0.002   0.662   6.119  0.3259 -0.8222  0.3736
 9496SOL    HW129387  -0.090   0.700   6.123  0.6611  0.6051 -2.4995
 9496SOL    HW229388   0.007   0.578   6.173 -1.5711  0.9929  3.7007
 9497SOL     OW29389   5.634   5.753   2.363 -0.3646 -0.4535 -0.7709
 9497SOL    HW129390   5.668   5.672   2.411  1.7196  0.8101  0.0066
 9497SOL    HW229391   5.615   5.730   2.268  3.1061 -1.2775 -1.4046
 9498SOL     OW29392   0.211   2.340   5.225 -0.1404 -0.7468  0.0098
 9498SOL    HW129393   0.162   2.363   5.140  0.9665  1.7962 -0.0274
 9498SOL    HW229394   0.200   2.242   5.244 -2.0101 -1.0158 -2.0166
 9499SOL     OW29395   5.438   2.801   3.479  0.1899 -0.5246 -0.1284
 9499SOL    HW129396   5.401   2.773   3.391 -0.5671 -1.0252  0.3312
 9499SOL    HW229397   5.363   2.826   3.540  0.7577  1.1351 -0.0372
 9500SOL     OW29398   6.895   6.860   6.783  0.8228  0.8069 -0.1663
 9500SOL    HW129399   6.908   6.927   6.709  0.3323  0.2076 -0.8064
 9500SOL    HW229400   6.959   6.880   6.857  1.2401  1.4935 -0.6957
 9501SOL     OW29401   6.315   4.643   2.511  0.0100  0.0506  0.1388
 9501SOL    HW129402   6.387   4.586   2.550 -0.3153  0.3401  1.1871
 9501SOL    HW229403   6.253   4.674   2.584 -0.1666  1.2423 -0.4862
 9502SOL     OW29404   0.686   2.357   2.332 -0.4675  0.1627  0.0458
 9502SOL    HW129405   0.677   2.317   2.424 -2.2110  1.5271  0.5243
 9502SOL    HW229406   0.704   2.455   2.340  0.5531  0.1007 -1.1115
 9503SOL     OW29407   6.494   0.281   4.023  0.0453  0.1571  0.5701
 9503SOL    HW129408   6.590   0.268   4.048  0.2482  0.7245  0.1257
 9503SOL    HW229409   6.488   0.350   3.951 -0.8273  1.5320  1.8898
 9504SOL     OW29410   2.998   3.832   5.147 -0.2398 -0.1555 -0.8640
 9504SOL    HW129411   2.922   3.804   5.206  0.4390  1.4917  0.8738
 9504SOL    HW229412   3.078   3.854   5.203  0.6291  0.9197 -2.4432
 9505SOL     OW29413   3.745   4.682   6.264 -0.7127 -0.6572  1.0526
 9505SOL    HW129414   3.779   4.752   6.326  2.3042 -0.4147 -0.6593
 9505SOL    HW229415   3.681   4.722   6.199  1.0728  0.6770  0.0099
 9506SOL     OW29416   3.836   6.124   1.964  0.2438  0.1455  0.5733
 9506SOL    HW129417   3.776   6.053   1.928 -0.7048  1.3931 -0.4028
 9506SOL    HW229418   3.791   6.213   1.955  1.9587  1.0365  0.4847
 9507SOL     OW29419   0.145   5.878   5.608 -0.3636  0.0805  0.5293
 9507SOL    HW129420   0.196   5.936   5.545 -0.3851 -0.2068  0.2432
 9507SOL    HW229421   0.130   5.788   5.566 -0.1542 -0.2004  1.0463
 9508SOL     OW29422   5.161   4.860   5.989 -0.0618  0.0580  0.2850
 9508SOL    HW129423   5.175   4.772   5.944  2.9792 -0.0907  1.3541
 9508SOL    HW229424   5.078   4.856   6.044 -0.9316 -1.5026 -1.0330
 9509SOL     OW29425   5.068   2.927   5.768 -0.1949  0.4214 -0.7751
 9509SOL    HW129426   5.009   2.982   5.826  0.0379 -0.6217  0.4997
 9509SOL    HW229427   5.058   2.956   5.673 -3.2286 -0.0861 -0.7212
 9510SOL     OW29428   2.614   6.315   4.452  0.3225 -0.2897 -0.0455
 9510SOL    HW129429   2.711   6.312   4.476  0.8821  0.9406 -1.9337
 9510SOL    HW229430   2.560   6.280   4.528  2.0599  1.3708  2.1019
 9511SOL     OW29431   1.921   4.369   2.873 -0.5597 -0.4193 -0.4511
 9511SOL    HW129432   2.005   4.361   2.819 -1.9572  0.8074 -2.9556
 9511SOL    HW229433   1.854   4.304   2.839 -0.5757 -1.7279  1.8406
 9512SOL     OW29434   2.209   4.446   0.973  0.0683 -0.4371  0.3080
 9512SOL    HW129435   2.274   4.395   1.029  0.0640  0.5863  1.2597
 9512SOL    HW229436   2.235   4.542   0.971 -0.5843 -0.2692 -0.5307
 9513SOL     OW29437   1.613   2.710   3.024 -0.0609  0.5467 -0.0628
 9513SOL    HW129438   1.684   2.779   3.007  0.3953  0.0906 -0.0065
 9513SOL    HW229439   1.590   2.664   2.938 -0.4035  0.7994 -0.1096
 9514SOL     OW29440   6.466   4.996   2.812  0.1383 -0.4031 -0.0649
 9514SOL    HW129441   6.405   5.005   2.733  1.1975 -1.0543 -0.9820
 9514SOL    HW229442   6.497   5.086   2.840 -1.2524 -0.0511  0.4477
 9515SOL     OW29443   1.961   5.872   6.620 -0.1088 -0.1680 -0.0560
 9515SOL    HW129444   1.994   5.871   6.714 -0.6135 -0.6356  0.1237
 9515SOL    HW229445   2.018   5.932   6.564  0.9630 -0.8678  0.2749
 9516SOL     OW29446   6.897   4.389   6.123 -0.6761  0.1887  0.5830
 9516SOL    HW129447   6.813   4.442   6.116 -2.2030 -1.9658  1.7443
 9516SOL    HW229448   6.917   4.346   6.035  1.1329  3.2706 -0.6906
 9517SOL     OW29449   4.658   5.203   5.336 -0.2538  1.0092 -0.4918
 9517SOL    HW129450   4.702   5.185   5.248 -0.3269  2.0392 -0.7593
 9517SOL    HW229451   4.560   5.212   5.323 -0.9641 -3.3065  0.4046
 9518SOL     OW29452   5.264   5.944   2.681 -0.2959 -0.1879  0.8082
 9518SOL    HW129453   5.343   5.979   2.631 -0.6222  1.2055  1.2163
 9518SOL    HW229454   5.232   5.859   2.639 -0.2363  0.6600 -1.0240
 9519SOL     OW29455   6.608   6.279   1.350 -0.0865  0.2652  0.7624
 9519SOL    HW129456   6.528   6.218   1.354  0.2717 -0.1978  0.9870
 9519SOL    HW229457   6.636   6.291   1.255 -1.0446  1.2655  0.5769
 9520SOL     OW29458   6.248   1.443   5.229 -0.1316  0.6674  0.4927
 9520SOL    HW129459   6.271   1.527   5.179  0.8575  0.5352  0.6979
 9520SOL    HW229460   6.331   1.405   5.270 -0.4670 -0.7642 -0.1136
 9521SOL     OW29461   0.518   2.018   5.810 -0.5539  0.0741  0.3927
 9521SOL    HW129462   0.450   1.988   5.877 -0.7382  0.6214  0.4556
 9521SOL    HW229463   0.604   1.970   5.827 -0.7916 -0.2934  0.5926
 9522SOL     OW29464   0.371   2.660   6.958  0.4110 -0.6422 -0.4181
 9522SOL    HW129465   0.397   2.601   7.035 -1.6756 -1.2728 -0.1239
 9522SOL    HW229466   0.409   2.624   6.874  2.2151 -0.2931  0.2034
 9523SOL     OW29467   0.728   3.502   5.397 -0.2316  0.1388  0.4619
 9523SOL    HW129468   0.772   3.456   5.473 -1.8171  1.4799  2.2930
 9523SOL    HW229469   0.657   3.443   5.358 -0.9118  0.2478  1.4998
 9524SOL     OW29470   6.411   2.634   4.782 -0.0093 -1.1121 -0.0157
 9524SOL    HW129471   6.391   2.558   4.843 -0.0203 -1.4148 -0.3955
 9524SOL    HW229472   6.419   2.601   4.689 -0.0091 -0.6469 -0.1837
 9525SOL     OW29473   1.800   0.797   0.464  0.5768 -0.2081 -0.7932
 9525SOL    HW129474   1.839   0.717   0.418 -0.5267 -1.3499  0.1918
 9525SOL    HW229475   1.867   0.833   0.530  0.4212 -1.4943  0.1129
 9526SOL     OW29476   4.909   6.245   0.079 -0.0059 -0.0855  0.0435
 9526SOL    HW129477   4.847   6.311   0.120 -1.2348 -1.9603  1.4020
 9526SOL    HW229478   4.991   6.291   0.046 -1.7509  2.4110 -1.1620
 9527SOL     OW29479   2.194   1.478   6.565  0.0724  0.2296  0.4290
 9527SOL    HW129480   2.144   1.392   6.579  0.4005  0.2613  1.9978
 9527SOL    HW229481   2.146   1.533   6.497 -0.2979 -1.0672 -0.3987
 9528SOL     OW29482   1.801   5.736   5.281 -0.1143 -0.1351  0.1587
 9528SOL    HW129483   1.842   5.664   5.224 -1.0890 -0.7056  0.1485
 9528SOL    HW229484   1.860   5.753   5.360  1.4743  0.9652 -1.2004
 9529SOL     OW29485   5.204   0.256   2.888 -0.3512 -0.0765  0.7020
 9529SOL    HW129486   5.302   0.253   2.911 -0.4094  0.4637  1.0358
 9529SOL    HW229487   5.156   0.183   2.937  0.1066 -1.3005 -0.6066
 9530SOL     OW29488   0.521   5.581   0.305 -0.5720 -0.3812 -0.1645
 9530SOL    HW129489   0.477   5.608   0.219  1.0861  1.1758 -0.5671
 9530SOL    HW229490   0.615   5.615   0.307 -0.1751 -1.4421  1.7622
 9531SOL     OW29491   2.500   1.721   2.732 -0.1004  0.1042  0.2168
 9531SOL    HW129492   2.431   1.768   2.677 -0.3263 -0.1815  0.2525
 9531SOL    HW229493   2.455   1.662   2.799  0.1673 -1.3781 -0.8531
 9532SOL     OW29494   5.541   6.582   2.784 -0.5677 -0.6132  0.1246
 9532SOL    HW129495   5.496   6.498   2.815  0.9444 -1.3726  0.3977
 9532SOL    HW229496   5.633   6.586   2.823 -1.2869  2.2294  1.8532
 9533SOL     OW29497   6.332   1.133   4.231  0.4513 -0.4614  0.0199
 9533SOL    HW129498   6.237   1.102   4.230 -1.1811  3.8498  0.5751
 9533SOL    HW229499   6.374   1.112   4.319 -0.8583 -0.1757  0.7217
 9534SOL     OW29500   6.733   0.194   0.728 -0.2446  0.1117  0.1531
 9534SOL    HW129501   6.642   0.190   0.687  0.2023  3.3414 -1.4990
 9534SOL    HW229502   6.803   0.180   0.658  0.5340 -0.0140  0.9388
 9535SOL     OW29503   3.983   6.134   4.036 -0.2569 -0.2007  0.2860
 9535SOL    HW129504   4.062   6.078   4.011 -0.9419 -1.0361 -0.0447
 9535SOL    HW229505   3.906   6.112   3.977  0.2064  3.1033 -1.8462
 9536SOL     OW29506   4.380   5.482   5.184  0.0695 -0.0138 -0.2407
 9536SOL    HW129507   4.317   5.488   5.107 -0.3126  0.5403  0.1091
 9536SOL    HW229508   4.351   5.408   5.246  0.9772 -1.1727 -1.1470
 9537SOL     OW29509   2.827   0.806   2.307  0.2932 -0.2107  0.0429
 9537SOL    HW129510   2.837   0.874   2.380 -0.7090 -1.1320  1.0709
 9537SOL    HW229511   2.817   0.715   2.346 -1.9823 -0.5462 -1.1538
 9538SOL     OW29512   1.691   2.319   0.271 -0.0170 -0.1437  0.0853
 9538SOL    HW129513   1.760   2.383   0.238 -1.8549  2.8103  1.5620
 9538SOL    HW229514   1.713   2.292   0.365  0.5949 -1.6108 -0.4311
 9539SOL     OW29515   1.966   1.870   6.423 -0.4687 -0.5443 -0.9852
 9539SOL    HW129516   2.031   1.812   6.471 -0.9807 -1.6949 -1.6546
 9539SOL    HW229517   1.881   1.821   6.408 -1.1711  0.6217 -0.9524
 9540SOL     OW29518   0.478   5.252   6.706 -0.1691 -0.0094 -0.0882
 9540SOL    HW129519   0.432   5.333   6.670  3.0341  1.7278 -0.6726
 9540SOL    HW229520   0.420   5.208   6.775 -3.0492  1.2939 -1.5213
 9541SOL     OW29521   3.284   1.647   3.338  0.0612 -0.2741  0.4347
 9541SOL    HW129522   3.268   1.672   3.433 -0.0858  2.9287 -0.3310
 9541SOL    HW229523   3.196   1.628   3.294 -0.3637  2.2468  0.0258
 9542SOL     OW29524   2.006   0.509   1.018 -0.5368 -0.7754 -0.1759
 9542SOL    HW129525   2.034   0.418   0.989  0.7057 -0.6576  0.5778
 9542SOL    HW229526   2.080   0.552   1.070 -0.6493  1.1122 -1.4563
 9543SOL     OW29527   0.613   5.658   5.195 -0.1326 -0.7122  0.0284
 9543SOL    HW129528   0.673   5.662   5.275  2.4068 -0.5042 -1.7255
 9543SOL    HW229529   0.669   5.662   5.112 -2.6528 -0.4924 -1.7874
 9544SOL     OW29530   0.873   1.878   5.579 -0.0148 -0.5318 -0.4905
 9544SOL    HW129531   0.971   1.880   5.559  0.0091  0.4899 -0.2934
 9544SOL    HW229532   0.858   1.862   5.676  0.0566  2.2926  0.0652
 9545SOL     OW29533   0.391   0.998   2.107 -0.0086 -0.7877 -0.5044
 9545SOL    HW129534   0.489   1.019   2.117 -0.2812  1.7942 -2.2962
 9545SOL    HW229535   0.372   0.977   2.011 -1.5952  1.1926 -0.6685
 9546SOL     OW29536   1.797   2.061   3.761  0.4261  0.2798 -0.5992
 9546SOL    HW129537   1.771   2.074   3.856  0.0262 -1.6825 -0.4006
 9546SOL    HW229538   1.716   2.073   3.702 -0.2077 -2.0963 -0.3162
 9547SOL     OW29539   1.677   1.487   5.647 -0.6576  0.4678 -0.7473
 9547SOL    HW129540   1.733   1.558   5.689 -2.0322  1.9319 -1.3030
 9547SOL    HW229541   1.638   1.429   5.718  0.7819  0.0000 -0.3074
 9548SOL     OW29542   3.642   5.654   0.511 -0.0780 -0.0673 -0.1925
 9548SOL    HW129543   3.568   5.597   0.547 -0.0588 -0.4862 -0.7900
 9548SOL    HW229544   3.640   5.651   0.411  0.8479 -0.2158 -0.2140
 9549SOL     OW29545   6.990   2.607   5.439  0.5653 -0.3062 -0.4376
 9549SOL    HW129546   6.974   2.695   5.483 -0.6058 -2.0760  3.0741
 9549SOL    HW229547   7.087   2.583   5.446  0.4768 -0.3672  0.9871
 9550SOL     OW29548   3.922   5.690   2.861  0.1521  0.4654 -0.2042
 9550SOL    HW129549   4.011   5.700   2.905 -0.0936 -1.8012  0.9719
 9550SOL    HW229550   3.868   5.620   2.910 -1.7135  0.7392 -1.7399
 9551SOL     OW29551   6.265   5.232   4.290 -0.2348  0.1059 -0.5826
 9551SOL    HW129552   6.301   5.144   4.259  1.0054 -0.0545  1.1564
 9551SOL    HW229553   6.341   5.294   4.309 -0.9137  0.4198  1.3493
 9552SOL     OW29554   3.997   0.408   3.264  0.0235 -0.2656 -0.1274
 9552SOL    HW129555   3.998   0.325   3.208 -1.6652  0.8163 -1.8522
 9552SOL    HW229556   3.970   0.383   3.358  1.5005 -1.8934 -0.0697
 9553SOL     OW29557   1.490   6.355   1.567  0.0068  0.1782  0.0641
 9553SOL    HW129558   1.562   6.404   1.616 -0.7069  0.2239  1.0941
 9553SOL    HW229559   1.411   6.343   1.627 -1.3986  1.3451 -1.4406
 9554SOL     OW29560   5.629   5.790   5.551  0.1195  0.8572  0.1335
 9554SOL    HW129561   5.700   5.745   5.605 -1.9685  2.2950  4.6234
 9554SOL    HW229562   5.550   5.729   5.541  0.3884  0.6936 -1.2226
 9555SOL     OW29563   1.866   3.375   3.860  0.2636  0.5535  0.1136
 9555SOL    HW129564   1.850   3.277   3.870 -2.0385  0.6038 -2.0085
 9555SOL    HW229565   1.964   3.391   3.848  0.5511 -1.7501 -1.4029
 9556SOL     OW29566   6.931   1.759   5.111 -0.3075 -0.3751  0.5986
 9556SOL    HW129567   6.916   1.804   5.023 -0.5750  0.5840  1.1146
 9556SOL    HW229568   6.908   1.662   5.103 -0.6233 -0.2389 -0.3047
 9557SOL     OW29569   3.982   0.607   4.895 -0.6811 -0.0846 -0.4203
 9557SOL    HW129570   4.035   0.522   4.894 -2.3674 -1.1771 -0.6446
 9557SOL    HW229571   3.910   0.600   4.963  1.7378  2.9155  2.8014
 9558SOL     OW29572   4.964   1.686   0.154 -0.0961 -0.0125 -0.4853
 9558SOL    HW129573   5.057   1.671   0.119 -0.2536  1.3542 -1.5747
 9558SOL    HW229574   4.901   1.696   0.077 -1.1457 -0.7910  0.2483
 9559SOL     OW29575   3.262   1.921   3.809 -0.1353  0.1260 -0.0588
 9559SOL    HW129576   3.224   1.982   3.879 -1.1842 -1.8871  1.2191
 9559SOL    HW229577   3.343   1.875   3.845  1.1397  1.3192 -1.3073
 9560SOL     OW29578   6.070   2.368   6.416 -0.1528 -0.2480  0.4220
 9560SOL    HW129579   6.089   2.420   6.333 -2.5754  0.2361  0.1266
 9560SOL    HW229580   6.148   2.308   6.435  0.7135  0.0640 -1.8270
 9561SOL     OW29581   3.382   0.194   0.635 -0.0323 -0.1329 -0.4707
 9561SOL    HW129582   3.333   0.108   0.624  0.7778 -0.8916  1.4116
 9561SOL    HW229583   3.429   0.195   0.723  2.4938  0.9869 -1.7287
 9562SOL     OW29584   6.227   3.561   3.657 -0.4623  0.3839  0.0314
 9562SOL    HW129585   6.285   3.616   3.717 -2.7339  1.4907  1.3341
 9562SOL    HW229586   6.217   3.608   3.569 -0.2770  0.7447  0.1983
 9563SOL     OW29587   5.841   1.084   3.656  0.1730 -0.2857  0.7888
 9563SOL    HW129588   5.822   1.085   3.558  1.7313 -1.2908  0.4329
 9563SOL    HW229589   5.813   0.997   3.695 -1.4450  0.5049  1.5065
 9564SOL     OW29590   4.795   4.904   2.571 -0.6269  0.5652  0.4056
 9564SOL    HW129591   4.706   4.872   2.603 -0.4573  0.4319  0.7598
 9564SOL    HW229592   4.867   4.853   2.618 -0.3644 -0.5007 -1.0958
 9565SOL     OW29593   4.914   4.312   6.474  0.1103 -0.8655  0.0468
 9565SOL    HW129594   4.871   4.381   6.414 -1.0627 -1.0808  0.6217
 9565SOL    HW229595   4.952   4.358   6.554 -1.2835 -0.9241  0.7773
 9566SOL     OW29596   2.369   6.770   4.239 -0.1520 -0.0057  0.0625
 9566SOL    HW129597   2.427   6.690   4.227  0.1394  0.2243 -0.1056
 9566SOL    HW229598   2.317   6.762   4.323  1.7310  0.7457  1.3649
 9567SOL     OW29599   1.410   0.655   4.442  0.4998  0.1984 -0.0232
 9567SOL    HW129600   1.456   0.700   4.366 -1.3994  0.7923 -0.8913
 9567SOL    HW229601   1.368   0.570   4.410 -1.0870  0.9048  0.0918
 9568SOL     OW29602   0.265   6.754   2.406  0.1429 -0.2147  0.5869
 9568SOL    HW129603   0.236   6.781   2.315  1.0480  0.4045  0.4729
 9568SOL    HW229604   0.193   6.698   2.449 -0.9154  0.7095  0.0688
 9569SOL     OW29605   4.061   1.220   3.969 -0.2402 -0.4538  0.2741
 9569SOL    HW129606   4.007   1.251   3.890  0.6019  2.0135  0.5861
 9569SOL    HW229607   4.078   1.297   4.030  3.3130 -1.1722  0.3692
 9570SOL     OW29608   4.622   5.915   3.346 -0.2555  0.2656  0.0824
 9570SOL    HW129609   4.640   5.862   3.263  0.9081  0.2599  0.3172
 9570SOL    HW229610   4.656   5.864   3.426  1.3509  1.5586  0.2684
 9571SOL     OW29611   2.010   6.939   3.020 -0.0394 -0.0471  0.2451
 9571SOL    HW129612   1.990   7.014   3.083 -0.2289 -1.4637  1.9424
 9571SOL    HW229613   1.931   6.926   2.959 -0.5713  0.2346  0.8552
 9572SOL     OW29614   4.894   6.435   5.081  0.0514 -0.2265  0.0133
 9572SOL    HW129615   4.884   6.347   5.128  0.6439 -0.9060 -1.0966
 9572SOL    HW229616   4.988   6.446   5.051 -0.4185 -0.0864 -1.5079
 9573SOL     OW29617   3.091   0.325   4.508  0.0978 -0.2485  0.1686
 9573SOL    HW129618   3.011   0.371   4.546 -0.7433 -1.5142  0.0077
 9573SOL    HW229619   3.167   0.390   4.499 -0.9005  0.9721  0.3406
 9574SOL     OW29620   5.953   0.049   5.250 -0.7825 -0.8198  0.4353
 9574SOL    HW129621   5.919   0.131   5.295  0.7957  0.9224 -1.3321
 9574SOL    HW229622   6.051   0.038   5.271 -0.3074 -0.6335 -1.4768
 9575SOL     OW29623   6.309   2.234   4.507  0.1002 -0.5130  0.2315
 9575SOL    HW129624   6.219   2.250   4.548  0.2562  0.4382  0.2055
 9575SOL    HW229625   6.345   2.146   4.540 -0.2374 -0.2642  1.2940
 9576SOL     OW29626   6.115   2.886   1.397 -0.0950  0.3012  0.2062
 9576SOL    HW129627   6.096   2.863   1.301 -1.8167  0.7365  0.4081
 9576SOL    HW229628   6.039   2.855   1.454  0.6446  0.5628  1.3646
 9577SOL     OW29629   0.596   0.460   4.029 -0.3846  0.5407  0.3538
 9577SOL    HW129630   0.598   0.432   3.933 -2.0374  2.0229 -0.1720
 9577SOL    HW229631   0.657   0.538   4.042  0.4032 -0.1214  0.6920
 9578SOL     OW29632   0.158   4.520   4.213  0.1505  0.1045  0.2854
 9578SOL    HW129633   0.063   4.505   4.184  0.3149 -0.8155  0.1922
 9578SOL    HW229634   0.189   4.609   4.178 -0.6035  0.3196  0.1311
 9579SOL     OW29635   0.335   6.158   0.560 -0.2918  0.7961  0.4232
 9579SOL    HW129636   0.399   6.196   0.626 -0.0600  1.1743 -0.0095
 9579SOL    HW229637   0.337   6.058   0.565 -0.4380  0.8265  1.1288
 9580SOL     OW29638   5.725   2.403   1.661 -0.0188 -0.6113 -0.4979
 9580SOL    HW129639   5.670   2.472   1.614 -1.6705 -2.4151 -1.3365
 9580SOL    HW229640   5.812   2.443   1.690 -0.5428  1.5472 -1.7525
 9581SOL     OW29641   3.161   4.305   1.217  0.7615  0.1718  0.3117
 9581SOL    HW129642   3.092   4.234   1.227 -0.9073  1.4439 -1.3806
 9581SOL    HW229643   3.140   4.382   1.277 -0.6549  1.4694 -1.7003
 9582SOL     OW29644   3.163   0.507   5.262  0.1520  0.2725 -0.1974
 9582SOL    HW129645   3.228   0.451   5.212  1.3891 -2.6954  4.1249
 9582SOL    HW229646   3.071   0.470   5.249  0.3374  0.0065 -0.7966
 9583SOL     OW29647   5.689   5.739   3.762  0.6000  0.0720  0.1418
 9583SOL    HW129648   5.736   5.652   3.777  1.8955  0.6346 -0.4805
 9583SOL    HW229649   5.683   5.789   3.848  2.4751  0.6128 -0.0099
 9584SOL     OW29650   6.130   5.835   1.159 -0.1353  0.6176  0.2504
 9584SOL    HW129651   6.197   5.842   1.233 -1.4046 -0.7572  1.6062
 9584SOL    HW229652   6.156   5.760   1.098 -1.4345 -1.3604  1.9779
 9585SOL     OW29653   3.076   6.164   6.923  0.2727 -0.5997 -0.3030
 9585SOL    HW129654   3.102   6.067   6.920  0.2793 -0.5783 -1.5462
 9585SOL    HW229655   3.156   6.221   6.905  0.3626 -0.3273  0.8720
 9586SOL     OW29656   4.477   2.866   5.879  0.5255  0.2489 -0.6359
 9586SOL    HW129657   4.458   2.767   5.875  2.0329 -0.0394 -1.4569
 9586SOL    HW229658   4.396   2.916   5.848  0.6934 -0.8623 -3.1812
 9587SOL     OW29659   4.138   4.015   0.224  0.2806  0.2677  0.3685
 9587SOL    HW129660   4.118   3.940   0.161 -1.3229  0.4459  0.6170
 9587SOL    HW229661   4.223   3.995   0.274  0.3477 -0.9541 -0.1967
 9588SOL     OW29662   4.892   6.684   5.695 -0.5579 -0.3225  0.0634
 9588SOL    HW129663   4.923   6.716   5.784 -0.5765 -2.9002  1.0931
 9588SOL    HW229664   4.826   6.609   5.707 -0.5393 -0.7667 -2.1151
 9589SOL     OW29665   4.153   5.818   5.379 -0.4443  0.0862 -0.2486
 9589SOL    HW129666   4.117   5.739   5.429  1.2171 -0.0116  0.8527
 9589SOL    HW229667   4.077   5.874   5.346 -1.6057 -0.5117  1.3110
 9590SOL     OW29668   3.964   5.638   1.640 -0.8526 -0.0035 -0.2298
 9590SOL    HW129669   3.888   5.698   1.665  0.4182  0.8727  1.8594
 9590SOL    HW229670   3.974   5.635   1.541 -2.1922  1.6420 -0.4580
 9591SOL     OW29671   0.869   7.010   3.958 -0.0245  0.2720 -0.0504
 9591SOL    HW129672   0.945   7.074   3.973 -0.8052  1.0509  0.7122
 9591SOL    HW229673   0.794   7.032   4.020 -0.9506 -0.3835 -0.8996
 9592SOL     OW29674   6.258   4.831   4.724 -0.4589  0.3759  0.3661
 9592SOL    HW129675   6.170   4.814   4.769 -1.2738  0.4127 -1.1459
 9592SOL    HW229676   6.249   4.908   4.661  1.1743  1.5909  1.5171
 9593SOL     OW29677   5.467   6.584   5.220 -0.0634  0.1203 -0.3884
 9593SOL    HW129678   5.560   6.565   5.187  0.3499 -2.4883  1.9703
 9593SOL    HW229679   5.468   6.595   5.319 -2.0867  1.7846 -0.4854
 9594SOL     OW29680   5.468   2.449   5.012  0.4756 -0.2523  0.3102
 9594SOL    HW129681   5.463   2.480   4.917 -1.1089  2.7371  1.2361
 9594SOL    HW229682   5.392   2.386   5.031  0.6226 -0.6215 -0.3032
 9595SOL     OW29683   1.308   3.346   5.729 -0.0042 -0.2617  0.3323
 9595SOL    HW129684   1.309   3.378   5.635 -0.6302 -0.8040  0.1402
 9595SOL    HW229685   1.398   3.363   5.771 -0.8148  3.6650  0.8885
 9596SOL     OW29686   3.459   1.767   4.393  0.8358 -0.0823 -0.1066
 9596SOL    HW129687   3.393   1.753   4.320  0.1478  0.1185  0.4710
 9596SOL    HW229688   3.503   1.680   4.415  0.6204 -0.2552 -0.3483
 9597SOL     OW29689   5.717   6.801   3.158 -0.0803 -0.2808  0.1292
 9597SOL    HW129690   5.712   6.712   3.114 -2.5075  0.2652 -0.8548
 9597SOL    HW229691   5.757   6.791   3.250 -0.1225 -2.3216 -0.0370
 9598SOL     OW29692   2.176   4.914   3.184  0.3454  0.0887  0.2146
 9598SOL    HW129693   2.269   4.878   3.184  0.0832 -0.7136 -1.7025
 9598SOL    HW229694   2.171   4.995   3.127 -0.1602  0.0322  0.1673
 9599SOL     OW29695   6.154   3.433   1.414 -0.1071 -0.5300  0.2968
 9599SOL    HW129696   6.190   3.466   1.502 -1.2677  0.5172  0.4107
 9599SOL    HW229697   6.087   3.360   1.431 -1.0270  0.3011  0.3857
 9600SOL     OW29698   0.387   4.728   0.073 -0.9687  0.6099 -0.0036
 9600SOL    HW129699   0.472   4.689   0.036 -1.6874 -0.1757 -0.8922
 9600SOL    HW229700   0.405   4.821   0.105  0.0408  0.7966 -1.0037
 9601SOL     OW29701   3.099   3.610   0.127 -0.2221  0.8580 -0.4391
 9601SOL    HW129702   3.109   3.519   0.167  0.2578  1.1383  0.1097
 9601SOL    HW229703   3.006   3.623   0.095 -0.2392  0.0952 -0.7255
 9602SOL     OW29704   3.189   6.287   0.282  0.2069  0.4545 -0.2374
 9602SOL    HW129705   3.204   6.357   0.352  0.9062 -0.8138  0.9294
 9602SOL    HW229706   3.272   6.275   0.228  0.2072  0.2632 -0.1939
 9603SOL     OW29707   6.126   5.727   5.940  0.5189 -1.1977 -0.0144
 9603SOL    HW129708   6.194   5.685   5.879  0.4363 -0.1468 -0.8537
 9603SOL    HW229709   6.121   5.674   6.025  4.0805 -0.0551  1.0744
 9604SOL     OW29710   6.351   6.107   1.497  0.3077  0.3226  0.3451
 9604SOL    HW129711   6.436   6.070   1.534  0.7408  0.5943 -0.3518
 9604SOL    HW229712   6.274   6.053   1.529  0.9543 -1.4967 -1.0173
 9605SOL     OW29713   3.687   2.109   0.281 -0.1282  1.1449 -0.1262
 9605SOL    HW129714   3.716   2.041   0.348  1.2432  1.5345 -0.2900
 9605SOL    HW229715   3.588   2.103   0.268  0.0052 -1.1922 -0.5563
 9606SOL     OW29716   2.828   1.888   1.748 -0.2056  0.1820  0.3815
 9606SOL    HW129717   2.842   1.795   1.781  1.1050  0.6094  1.1026
 9606SOL    HW229718   2.915   1.924   1.712  0.2416  2.3130  3.2474
 9607SOL     OW29719   6.625   3.458   1.789  0.7083  0.5422 -0.2589
 9607SOL    HW129720   6.624   3.515   1.707 -0.7417  4.5513  2.2861
 9607SOL    HW229721   6.715   3.464   1.833  1.3270 -1.2100 -1.1907
 9608SOL     OW29722   6.729   1.616   4.659 -0.2152  0.3745  0.3776
 9608SOL    HW129723   6.640   1.602   4.702 -0.3383  0.0472  0.0217
 9608SOL    HW229724   6.722   1.693   4.595  0.2345  1.5334  1.6838
 9609SOL     OW29725   3.914   0.588   0.524 -0.0480 -0.8706 -0.1945
 9609SOL    HW129726   3.879   0.499   0.496  0.0119 -0.8198 -0.4380
 9609SOL    HW229727   3.957   0.633   0.445  0.7731 -1.0274  0.1569
 9610SOL     OW29728   4.374   5.225   5.304  0.5844  0.0766  0.1645
 9610SOL    HW129729   4.321   5.177   5.233 -0.8821  0.1335  1.1810
 9610SOL    HW229730   4.351   5.187   5.393  3.3086 -0.8216  0.5723
 9611SOL     OW29731   6.664   1.937   5.661 -0.1541  0.1438  0.9556
 9611SOL    HW129732   6.754   1.970   5.634 -0.1401  1.7181  2.7706
 9611SOL    HW229733   6.594   1.983   5.606  0.0643  0.1207  0.6549
 9612SOL     OW29734   2.220   5.349   2.578 -0.0499  0.3786  0.0930
 9612SOL    HW129735   2.299   5.335   2.518  0.1459 -0.0333  0.4448
 9612SOL    HW229736   2.145   5.387   2.525  0.5335  1.2213 -0.1537
 9613SOL     OW29737   0.617   6.688   1.828 -0.4072  0.2295  0.0928
 9613SOL    HW129738   0.542   6.696   1.762  0.8149  0.3629 -1.3393
 9613SOL    HW229739   0.582   6.706   1.920 -2.3544 -0.8727 -0.3734
 9614SOL     OW29740   4.519   2.114   0.259 -0.1274  0.0684 -0.3111
 9614SOL    HW129741   4.490   2.097   0.354 -0.7952  1.3073 -0.2626
 9614SOL    HW229742   4.584   2.044   0.231 -1.0493 -1.1800  0.5595
 9615SOL     OW29743   2.439   5.801   3.569 -0.3598  0.0214  0.0441
 9615SOL    HW129744   2.371   5.736   3.535 -0.2895  0.3514 -0.7694
 9615SOL    HW229745   2.529   5.779   3.531  0.0705 -0.6081  1.3718
 9616SOL     OW29746   0.527   2.539   1.000 -0.3306  0.3747 -0.2536
 9616SOL    HW129747   0.616   2.503   1.027 -0.0880  0.5995 -0.7343
 9616SOL    HW229748   0.455   2.478   1.032  0.0676 -0.5368 -1.0257
 9617SOL     OW29749   0.286   0.199   2.727  0.5828  0.1880 -0.3872
 9617SOL    HW129750   0.289   0.126   2.659  1.0892 -1.0433  0.9108
 9617SOL    HW229751   0.373   0.248   2.727  1.1190 -0.7233  0.3011
 9618SOL     OW29752   4.902   4.288   1.560 -0.1114 -0.3667  0.0159
 9618SOL    HW129753   4.945   4.200   1.542  1.6150  1.1880 -5.1983
 9618SOL    HW229754   4.803   4.280   1.551 -0.0158 -1.7844  0.0060
 9619SOL     OW29755   0.851   0.156   3.708  0.1956 -1.2053 -0.1500
 9619SOL    HW129756   0.864   0.094   3.786 -2.9502 -0.8268  0.8281
 9619SOL    HW229757   0.797   0.109   3.638  0.6621 -0.6289 -0.9089
 9620SOL     OW29758   3.305   4.213   1.726  0.2269 -0.3633  0.8196
 9620SOL    HW129759   3.330   4.165   1.809  1.1183  3.0267  2.6819
 9620SOL    HW229760   3.206   4.206   1.712  0.1950 -1.7902  1.5426
 9621SOL     OW29761   0.390   5.960   4.708 -0.1634 -0.0371 -0.9157
 9621SOL    HW129762   0.440   5.896   4.767  0.0037  0.1665 -0.8353
 9621SOL    HW229763   0.427   5.954   4.615 -0.0104  0.0859 -0.8643
 9622SOL     OW29764   4.744   2.751   6.590  0.0165  0.1477 -0.4483
 9622SOL    HW129765   4.660   2.764   6.536  0.0795 -0.5803 -0.7435
 9622SOL    HW229766   4.789   2.667   6.560  0.3113 -0.0123  0.4185
 9623SOL     OW29767   3.903   2.121   0.973 -0.1541 -0.0647  0.3326
 9623SOL    HW129768   3.969   2.108   1.048  0.2392  1.2410  0.2283
 9623SOL    HW229769   3.811   2.127   1.011 -0.0110  0.0886  0.6611
 9624SOL     OW29770   5.282   4.191   3.390 -0.0516  0.2528  0.8496
 9624SOL    HW129771   5.204   4.129   3.383  0.0337  0.2054  0.2669
 9624SOL    HW229772   5.250   4.282   3.417 -0.4811  0.5585 -0.5783
 9625SOL     OW29773   0.459   0.832   4.039  0.2119  0.0229  0.6654
 9625SOL    HW129774   0.451   0.733   4.042 -1.9008  0.1120 -0.1814
 9625SOL    HW229775   0.380   0.874   4.085  0.0385  1.2669 -0.6695
 9626SOL     OW29776   4.706   6.517   5.346  0.1665 -0.4355 -0.6450
 9626SOL    HW129777   4.763   6.545   5.269 -0.4298 -0.3850 -1.0748
 9626SOL    HW229778   4.646   6.593   5.372  2.1616  0.5080  1.5966
 9627SOL     OW29779   1.993   5.455   2.492 -0.8075 -0.0179  0.8770
 9627SOL    HW129780   1.932   5.381   2.463 -0.9035 -0.5782  2.4119
 9627SOL    HW229781   1.938   5.530   2.529 -0.6895  0.6844 -0.3399
 9628SOL     OW29782   1.121   2.956   4.284  0.2447 -0.1624  0.0264
 9628SOL    HW129783   1.134   2.944   4.382  2.1136  0.3029 -0.1132
 9628SOL    HW229784   1.179   3.032   4.252  0.0875 -0.6540 -1.5216
 9629SOL     OW29785   2.688   5.758   3.472  0.3935 -0.3395  0.3513
 9629SOL    HW129786   2.758   5.687   3.480 -0.2568 -1.1867 -1.0569
 9629SOL    HW229787   2.671   5.777   3.375  2.0070  3.2695  0.6165
 9630SOL     OW29788   2.646   6.886   2.516  0.3503 -0.0838 -0.2463
 9630SOL    HW129789   2.723   6.897   2.454 -0.0740  0.2213 -0.7282
 9630SOL    HW229790   2.680   6.862   2.607  0.9583 -0.7768 -0.6486
 9631SOL     OW29791   3.260   1.954   6.946 -0.1677  0.5801 -0.3361
 9631SOL    HW129792   3.240   1.896   7.024  1.4445 -0.1118 -0.4047
 9631SOL    HW229793   3.234   2.048   6.967 -0.2503  0.3134  0.8187
 9632SOL     OW29794   2.423   6.566   2.477 -0.6121  0.3479 -0.0889
 9632SOL    HW129795   2.405   6.600   2.385  0.1712  1.1360  0.0414
 9632SOL    HW229796   2.375   6.479   2.490 -1.7712  0.8527 -0.7927
 9633SOL     OW29797   2.966   4.709   1.107  0.5455 -0.5064 -0.1868
 9633SOL    HW129798   2.989   4.618   1.072  0.6796 -1.7309  2.7541
 9633SOL    HW229799   3.032   4.735   1.177  0.1663  1.6559 -0.5773
 9634SOL     OW29800   1.856   1.327   6.660 -0.0913  0.0858  0.6821
 9634SOL    HW129801   1.926   1.256   6.655  0.5914  0.7776  0.3303
 9634SOL    HW229802   1.893   1.409   6.703  0.2161  1.4586 -1.9981
 9635SOL     OW29803   5.995   3.084   4.719 -0.0176  0.2673  0.4409
 9635SOL    HW129804   6.013   3.181   4.735 -1.3577  0.3250  1.8327
 9635SOL    HW229805   5.990   3.036   4.807 -0.2973 -0.8907 -0.1871
 9636SOL     OW29806   3.435   0.708   0.964  0.2488  0.7484 -0.1866
 9636SOL    HW129807   3.466   0.717   0.870 -0.3310 -2.2581 -0.7774
 9636SOL    HW229808   3.505   0.662   1.018 -0.3697  0.3071  0.2498
 9637SOL     OW29809   0.442   5.595   1.002  0.8092 -0.0496 -0.0092
 9637SOL    HW129810   0.388   5.511   1.003  1.2323 -0.3209  1.1613
 9637SOL    HW229811   0.472   5.617   1.095  2.8067  0.0308 -0.6256
 9638SOL     OW29812   5.845   3.567   1.859 -0.6565  0.3667  0.1151
 9638SOL    HW129813   5.886   3.593   1.771 -0.5013 -2.7661 -0.8642
 9638SOL    HW229814   5.745   3.574   1.852 -0.7007 -0.8703 -0.7100
 9639SOL     OW29815   4.190   0.311   2.946  0.3911  0.1974  0.4683
 9639SOL    HW129816   4.130   0.371   2.999 -0.1092  1.1858 -1.1201
 9639SOL    HW229817   4.224   0.361   2.866  0.1685 -1.5535 -0.7855
 9640SOL     OW29818   5.357   0.145   1.300  0.1961  0.0580 -0.5038
 9640SOL    HW129819   5.266   0.139   1.260 -0.8709  1.2144  1.6156
 9640SOL    HW229820   5.423   0.169   1.229 -1.0538 -1.0863 -2.1319
 9641SOL     OW29821   4.179   0.553   1.738 -0.0775  0.0963  0.0411
 9641SOL    HW129822   4.252   0.622   1.734 -0.7737  0.9026  0.7207
 9641SOL    HW229823   4.119   0.566   1.659 -0.8076  0.9836  0.7208
 9642SOL     OW29824   6.412   5.113   5.819  0.1273  0.7249 -0.5747
 9642SOL    HW129825   6.510   5.128   5.832  0.4527  1.3004 -3.2216
 9642SOL    HW229826   6.363   5.147   5.899  2.0383  0.7843  0.6401
 9643SOL     OW29827   5.996   3.087   1.649 -0.6808  0.6628  0.4171
 9643SOL    HW129828   6.024   3.135   1.565 -1.8812 -1.0931 -1.0481
 9643SOL    HW229829   5.982   3.154   1.722 -0.7626  2.3784 -1.1031
 9644SOL     OW29830   5.734   3.003   0.902 -0.1362 -0.4576 -0.0381
 9644SOL    HW129831   5.748   3.032   0.807  1.4922 -3.0761 -0.7351
 9644SOL    HW229832   5.763   3.076   0.964  2.6396 -0.0511 -1.6140
 9645SOL     OW29833   0.168   0.420   0.681 -0.1967 -0.1503 -0.5465
 9645SOL    HW129834   0.159   0.464   0.592 -0.8096  1.4819  0.2712
 9645SOL    HW229835   0.077   0.399   0.718  0.0523 -0.8990 -0.3488
 9646SOL     OW29836   3.716   0.725   2.899  0.6536 -0.4324 -0.3496
 9646SOL    HW129837   3.650   0.739   2.972  2.0294  0.8945  0.7167
 9646SOL    HW229838   3.674   0.674   2.824 -0.9617 -1.3516  1.1185
 9647SOL     OW29839   4.097   1.549   5.496  0.8618 -0.5682  0.4452
 9647SOL    HW129840   4.008   1.581   5.530 -0.0874 -2.2904 -0.2936
 9647SOL    HW229841   4.161   1.626   5.492 -1.8223  1.8006 -3.1652
 9648SOL     OW29842   3.430   4.367   6.978  0.0100  0.6737  0.8289
 9648SOL    HW129843   3.435   4.292   6.912 -2.0392  1.6376 -0.4957
 9648SOL    HW229844   3.387   4.334   7.062 -0.3473  0.2094  0.4716
 9649SOL     OW29845   6.230   2.997   5.191  0.2452 -0.3777  0.4710
 9649SOL    HW129846   6.219   3.079   5.136 -0.0086  0.9384  2.3843
 9649SOL    HW229847   6.256   2.920   5.132 -0.2789  0.8682 -1.4695
 9650SOL     OW29848   0.396   0.051   6.890  0.0117  0.4419  0.5237
 9650SOL    HW129849   0.449   0.029   6.972 -0.4335  0.1847  0.7427
 9650SOL    HW229850   0.384   0.150   6.883  0.9856  0.5464  0.1790
 9651SOL     OW29851   6.014   6.686   0.700 -0.4256 -0.4532  0.1748
 9651SOL    HW129852   6.048   6.780   0.699  1.3316 -1.0369  1.2606
 9651SOL    HW229853   5.947   6.676   0.774 -0.1644 -0.2062  0.4460
 9652SOL     OW29854   0.877   1.594   1.768 -0.0437  0.3554  0.6236
 9652SOL    HW129855   0.878   1.512   1.710 -0.6436  0.5126  0.3875
 9652SOL    HW229856   0.938   1.663   1.729 -1.2285  0.8603 -0.4274
 9653SOL     OW29857   2.031   0.043   3.589  0.8973 -0.0059  0.0935
 9653SOL    HW129858   2.087   0.085   3.660 -0.2361  2.8696 -0.5634
 9653SOL    HW229859   2.037   0.097   3.505 -0.8716 -1.0238 -0.7472
 9654SOL     OW29860   0.256   3.377   3.394  0.0287 -0.2976  0.2030
 9654SOL    HW129861   0.324   3.358   3.465  1.0262 -1.4901 -1.0068
 9654SOL    HW229862   0.242   3.475   3.386  0.1429 -0.1190  1.7884
 9655SOL     OW29863   5.893   6.500   1.352  0.6316  0.3955  0.3997
 9655SOL    HW129864   5.938   6.413   1.373 -1.7674 -0.3538  3.0565
 9655SOL    HW229865   5.831   6.525   1.427  0.3411  3.8467 -0.8045
 9656SOL     OW29866   1.120   6.423   1.938  0.3169 -0.6581 -0.7354
 9656SOL    HW129867   1.072   6.510   1.928 -0.2796 -0.7630  0.9714
 9656SOL    HW229868   1.058   6.355   1.979  2.1505 -0.4694  2.6969
 9657SOL     OW29869   0.424   3.153   5.890 -0.2918  0.1487  0.1439
 9657SOL    HW129870   0.398   3.155   5.987 -0.5224 -0.6040  0.1039
 9657SOL    HW229871   0.361   3.094   5.840 -0.2543  0.6422 -0.4962
 9658SOL     OW29872   1.663   5.608   0.372  0.0641 -0.1872  0.0389
 9658SOL    HW129873   1.647   5.618   0.471  0.3235 -2.4991  0.3756
 9658SOL    HW229874   1.761   5.599   0.355  0.0548  0.6274 -0.5129
 9659SOL     OW29875   5.365   2.271   0.959 -0.3392  0.2899 -0.2347
 9659SOL    HW129876   5.433   2.296   0.891 -1.3559 -1.7489 -2.1503
 9659SOL    HW229877   5.276   2.258   0.914 -1.2719 -0.2217  1.6456
 9660SOL     OW29878   5.563   4.897   3.385 -0.1479  0.3464  0.0597
 9660SOL    HW129879   5.510   4.975   3.417  0.9643  1.0617  0.2127
 9660SOL    HW229880   5.616   4.858   3.460  0.8605  0.7256 -0.4346
 9661SOL     OW29881   5.247   3.519   6.610  0.4980  0.3090  0.1723
 9661SOL    HW129882   5.327   3.576   6.593 -0.9320  2.3152 -0.1584
 9661SOL    HW229883   5.225   3.466   6.528  0.7595  0.7001 -0.1517
 9662SOL     OW29884   2.300   4.755   4.330  0.3140 -0.0751 -0.2565
 9662SOL    HW129885   2.290   4.697   4.411 -2.1188 -0.1558 -0.5418
 9662SOL    HW229886   2.364   4.829   4.350 -0.4759  0.1126  1.8658
 9663SOL     OW29887   2.695   5.995   1.244 -0.1928  0.3013  0.1351
 9663SOL    HW129888   2.758   5.997   1.166 -1.8770 -0.4873 -1.3002
 9663SOL    HW229889   2.607   6.034   1.217 -1.1099 -0.8516  1.3692
 9664SOL     OW29890   4.655   0.758   0.641 -0.0985 -0.2140 -0.6305
 9664SOL    HW129891   4.743   0.764   0.687  0.3907  1.6892 -1.6830
 9664SOL    HW229892   4.594   0.697   0.692  1.3606 -0.4864  0.8623
 9665SOL     OW29893   5.686   6.229   0.557  0.0686 -0.2184  0.6596
 9665SOL    HW129894   5.703   6.204   0.652 -0.7689 -0.7147  0.6868
 9665SOL    HW229895   5.662   6.147   0.505 -0.8020  0.2445  0.3193
 9666SOL     OW29896   3.570   5.963   5.578  0.4387  0.1411 -0.4663
 9666SOL    HW129897   3.561   6.060   5.558  3.2680  0.8265  1.1381
 9666SOL    HW229898   3.661   5.931   5.552  0.5317 -1.3882  1.4743
 9667SOL     OW29899   2.726   0.967   6.758 -0.3269  0.8007 -0.4184
 9667SOL    HW129900   2.712   1.059   6.797 -1.9764  2.2361 -3.9569
 9667SOL    HW229901   2.648   0.944   6.700  0.6254 -2.3897 -0.5858
 9668SOL     OW29902   6.369   3.833   5.075 -0.0773  0.0396 -0.1058
 9668SOL    HW129903   6.461   3.799   5.055 -0.5767  0.0602 -2.8991
 9668SOL    HW229904   6.304   3.757   5.076 -0.1568  0.1102  1.1025
 9669SOL     OW29905   3.216   4.937   3.162  0.2373 -0.5675  0.3288
 9669SOL    HW129906   3.302   4.896   3.193 -0.1036 -0.1843  1.8466
 9669SOL    HW229907   3.172   4.877   3.096  2.1415 -0.3230 -1.2566
 9670SOL     OW29908   0.203   6.218   4.710  0.4009  0.3657  0.3366
 9670SOL    HW129909   0.266   6.262   4.646 -0.5196  0.0475 -0.8531
 9670SOL    HW229910   0.228   6.122   4.720 -0.7593 -0.1884 -1.4196
 9671SOL     OW29911   1.587   0.044   2.691 -0.3496 -0.2077  0.2909
 9671SOL    HW129912   1.496   0.052   2.732 -0.3925 -1.1773  0.4177
 9671SOL    HW229913   1.604  -0.052   2.666  0.0697  0.2001 -1.0531
 9672SOL     OW29914   2.725   4.864   6.568  0.3785  0.4919  0.1926
 9672SOL    HW129915   2.690   4.772   6.587 -1.1353  0.9635 -0.2327
 9672SOL    HW229916   2.775   4.863   6.481  0.2455  0.1044  0.1172
 9673SOL     OW29917   6.879   0.590   4.258 -0.5807 -0.2680  0.2869
 9673SOL    HW129918   6.906   0.674   4.304  0.7415  0.6059 -1.9395
 9673SOL    HW229919   6.779   0.587   4.251 -0.6759  2.6720 -2.0685
 9674SOL     OW29920   1.404   1.562   5.371 -0.0109 -0.0950  0.4414
 9674SOL    HW129921   1.504   1.571   5.377 -0.0122  1.6089 -1.1927
 9674SOL    HW229922   1.375   1.483   5.425  2.1309 -0.2083  1.5556
 9675SOL     OW29923   3.786   3.780   2.250 -0.3641 -0.2928  0.4452
 9675SOL    HW129924   3.785   3.864   2.305  0.5386  0.0960 -0.1038
 9675SOL    HW229925   3.818   3.801   2.157  0.3492 -1.3209  0.4397
 9676SOL     OW29926   0.974   0.790   2.974  0.4842  0.1213  0.0363
 9676SOL    HW129927   0.925   0.722   3.028 -1.4617  1.7755  0.4334
 9676SOL    HW229928   1.049   0.827   3.028 -0.0319  0.1246  0.7634
 9677SOL     OW29929   6.877   3.782   1.916 -0.4069  0.0680  0.2709
 9677SOL    HW129930   6.974   3.756   1.914  0.2218  1.8363  2.3400
 9677SOL    HW229931   6.826   3.715   1.970 -0.1862 -0.4902 -0.2085
 9678SOL     OW29932   4.745   1.947   1.896  0.2964 -0.4912 -0.0568
 9678SOL    HW129933   4.745   1.856   1.937  1.4196 -0.0931  0.8982
 9678SOL    HW229934   4.839   1.973   1.874 -0.0404  0.3271 -0.5726
 9679SOL     OW29935   5.832   6.578   2.833  0.1307  0.5974  0.0365
 9679SOL    HW129936   5.806   6.493   2.787 -0.0131  0.4240  0.4315
 9679SOL    HW229937   5.848   6.559   2.930  1.8694  0.6734 -0.2103
 9680SOL     OW29938   3.594   6.439   3.324 -0.1621  0.1744 -0.3055
 9680SOL    HW129939   3.531   6.450   3.247  0.8198  0.3231 -1.1150
 9680SOL    HW229940   3.661   6.368   3.302 -0.5140 -0.5532  0.8707
 9681SOL     OW29941   0.385   1.747   4.700 -0.1673 -0.2929  0.4547
 9681SOL    HW129942   0.424   1.832   4.665  0.5144 -0.8400 -0.1357
 9681SOL    HW229943   0.455   1.676   4.701 -0.7944 -0.9200  0.7090
 9682SOL     OW29944   0.888   2.805   5.943 -0.0564 -0.8170  0.0715
 9682SOL    HW129945   0.938   2.763   6.018  0.8226  2.3355  1.4057
 9682SOL    HW229946   0.890   2.905   5.952 -2.0323 -0.3630 -2.8226
 9683SOL     OW29947   1.761   3.845   5.760  0.2872  0.0495  0.0905
 9683SOL    HW129948   1.711   3.764   5.728  0.8316 -0.3018  0.1297
 9683SOL    HW229949   1.857   3.823   5.773  0.3954  0.6404  0.3456
 9684SOL     OW29950   6.153   0.927   0.024  0.1606 -0.3409  0.6328
 9684SOL    HW129951   6.232   0.954  -0.030 -0.2720 -1.0648 -0.3974
 9684SOL    HW229952   6.176   0.845   0.077  0.1311 -0.5197  0.3750
 9685SOL     OW29953   3.272   5.325   4.675 -0.6226  0.4639 -0.2841
 9685SOL    HW129954   3.357   5.296   4.633  0.2663 -1.0442  2.3205
 9685SOL    HW229955   3.264   5.425   4.669  1.0457  0.5836 -1.0276
 9686SOL     OW29956   4.918   6.049   6.870  0.0412  0.7209  0.5036
 9686SOL    HW129957   4.953   5.981   6.934  0.0862 -0.8808 -1.1200
 9686SOL    HW229958   4.884   6.128   6.920  1.7940  0.3706  2.3637
 9687SOL     OW29959   4.576   5.374   1.842  0.2072 -0.5380  0.2559
 9687SOL    HW129960   4.643   5.323   1.788 -0.0011 -1.7988  1.1418
 9687SOL    HW229961   4.592   5.472   1.831  1.1100 -0.7868 -0.8846
 9688SOL     OW29962   6.145   5.188   4.869 -0.5519 -0.0320 -0.4741
 9688SOL    HW129963   6.099   5.206   4.783 -0.6999 -0.4510 -0.4793
 9688SOL    HW229964   6.078   5.166   4.940 -0.5242  1.2811  0.0050
 9689SOL     OW29965   0.504   6.290   3.709  0.0712  0.0737 -0.4584
 9689SOL    HW129966   0.523   6.199   3.673  1.8763  0.8317 -1.5595
 9689SOL    HW229967   0.478   6.351   3.634 -4.3321 -0.1843  0.6135
 9690SOL     OW29968   3.968   1.859   3.348 -0.3665  0.2579  0.5359
 9690SOL    HW129969   3.940   1.791   3.280 -1.7704  0.9865  0.3509
 9690SOL    HW229970   3.903   1.934   3.348  1.8354  2.2905 -0.1956
 9691SOL     OW29971   6.267   4.499   0.492  0.3198  0.1759 -0.2084
 9691SOL    HW129972   6.251   4.444   0.574 -0.9815  1.1712  0.2278
 9691SOL    HW229973   6.179   4.533   0.457  0.8642 -0.1145 -1.9360
 9692SOL     OW29974   4.744   1.619   3.480  0.1076  0.1874 -0.0123
 9692SOL    HW129975   4.816   1.657   3.423 -0.1214  0.2058 -0.2893
 9692SOL    HW229976   4.781   1.597   3.571  0.4924  0.0591 -0.2015
 9693SOL     OW29977   4.337   6.315   3.544  0.2446 -0.4339 -0.2475
 9693SOL    HW129978   4.353   6.345   3.638  2.7633 -1.2513 -0.3303
 9693SOL    HW229979   4.314   6.394   3.487 -3.1174 -0.1530  1.3044
 9694SOL     OW29980   5.438   5.733   3.143 -0.3599 -0.1678  0.3266
 9694SOL    HW129981   5.437   5.813   3.202  2.2100  0.3309 -0.1964
 9694SOL    HW229982   5.448   5.650   3.199  0.1368  0.1413  0.6982
 9695SOL     OW29983   0.295   3.266   4.267  0.0236 -0.2370 -0.2653
 9695SOL    HW129984   0.197   3.261   4.284  0.0121  0.3389 -0.1320
 9695SOL    HW229985   0.312   3.275   4.168  0.0343 -2.2629 -0.4802
 9696SOL     OW29986   3.929   3.376   2.419 -0.2971  0.5489  0.1668
 9696SOL    HW129987   3.866   3.439   2.374 -0.1210  0.1683 -0.6140
 9696SOL    HW229988   3.899   3.282   2.405 -0.2820  0.4233  0.9160
 9697SOL     OW29989   5.372   4.922   4.194  0.1371  0.2959  0.0594
 9697SOL    HW129990   5.369   4.856   4.269 -0.9469 -0.5676 -0.7036
 9697SOL    HW229991   5.330   4.881   4.113 -0.0207  1.7295 -0.6054
 9698SOL     OW29992   2.788   3.387   6.240  1.1852 -0.1475 -0.5368
 9698SOL    HW129993   2.850   3.465   6.228 -0.5499  1.4829  0.5961
 9698SOL    HW229994   2.742   3.395   6.328 -1.1147 -0.9308 -1.5985
 9699SOL     OW29995   2.495   5.807   5.404 -0.2275 -0.2299  0.7331
 9699SOL    HW129996   2.417   5.748   5.426 -0.9910  1.6873  3.6678
 9699SOL    HW229997   2.510   5.805   5.305 -1.6225 -3.4957  0.4445
 9700SOL     OW29998   3.724   6.227   3.178  0.7278 -0.0449 -0.3062
 9700SOL    HW129999   3.665   6.253   3.101 -2.5511 -0.1669  1.9640
 9700SOL    HW230000   3.712   6.130   3.198  0.9808  0.1364  0.7910
 9701SOL     OW30001   3.704   2.897   1.036 -0.5824  0.3336  0.4225
 9701SOL    HW130002   3.719   2.940   1.124  0.9819  1.1677 -0.2199
 9701SOL    HW230003   3.606   2.896   1.016 -0.9901 -0.1002  2.2523
 9702SOL     OW30004   6.763   5.878   6.706 -0.0036 -0.4643 -0.7839
 9702SOL    HW130005   6.863   5.887   6.707  0.0469 -0.7650  1.1674
 9702SOL    HW230006   6.722   5.967   6.689  0.6282  0.3754  1.6338
 9703SOL     OW30007   5.807   0.009   4.696  0.8699 -0.0178 -0.1130
 9703SOL    HW130008   5.749   0.029   4.775 -0.4724 -1.3465 -0.7169
 9703SOL    HW230009   5.817   0.092   4.640 -1.6330 -0.0565 -0.7210
 9704SOL     OW30010   2.714   1.576   1.439 -0.2535 -0.0840  0.2771
 9704SOL    HW130011   2.772   1.533   1.507  1.2728 -0.0043 -0.9248
 9704SOL    HW230012   2.626   1.529   1.435 -0.6899  0.3756  2.7847
 9705SOL     OW30013   4.385   5.427   2.883  0.7018 -0.2409  0.2511
 9705SOL    HW130014   4.444   5.483   2.941  0.6347 -0.4446  0.5175
 9705SOL    HW230015   4.430   5.409   2.796  0.8049  0.0630  0.2401
 9706SOL     OW30016   3.076   3.444   0.648  0.0347 -0.0710  0.4559
 9706SOL    HW130017   3.038   3.454   0.739  1.5771 -0.9252  1.2415
 9706SOL    HW230018   3.111   3.532   0.616 -0.3569  0.1933  0.7526
 9707SOL     OW30019   4.227   6.492   3.103  0.0469 -0.0307 -0.4369
 9707SOL    HW130020   4.216   6.556   3.026  0.0328  1.3910  0.7102
 9707SOL    HW230021   4.167   6.518   3.178  1.3864 -0.2700  0.7686
 9708SOL     OW30022   6.763   3.391   1.387 -0.2612  0.1957 -0.5509
 9708SOL    HW130023   6.703   3.316   1.359  0.4408  1.1062 -5.1633
 9708SOL    HW230024   6.858   3.359   1.387 -0.0955  0.6767 -0.9846
 9709SOL     OW30025   6.024   6.124   6.751  0.7623 -0.1819 -0.3111
 9709SOL    HW130026   6.055   6.083   6.836  0.4682 -0.7240 -0.4642
 9709SOL    HW230027   5.925   6.118   6.745  0.6359  1.2306  0.0127
 9710SOL     OW30028   2.775   3.134   6.403  0.3621  0.8501 -0.2453
 9710SOL    HW130029   2.782   3.060   6.469  1.5973  3.2400  2.5558
 9710SOL    HW230030   2.713   3.108   6.330  1.6206 -3.2808 -0.0491
 9711SOL     OW30031   3.439   6.172   6.633  0.1281 -0.5000 -0.0794
 9711SOL    HW130032   3.370   6.181   6.561 -0.0720  0.1878  0.1943
 9711SOL    HW230033   3.490   6.258   6.641 -1.0958  0.0969  1.8813
 9712SOL     OW30034   4.016   2.244   4.341  0.8390  0.1732  0.1587
 9712SOL    HW130035   4.059   2.306   4.406 -0.4806  1.0794  0.2153
 9712SOL    HW230036   3.946   2.190   4.388  1.2583 -0.6192 -0.1096
 9713SOL     OW30037   3.366   6.207   3.710 -0.1168 -0.9070  0.3018
 9713SOL    HW130038   3.426   6.272   3.663 -1.2617 -0.4917 -0.6139
 9713SOL    HW230039   3.303   6.166   3.645 -3.2612  1.3074  1.6831
 9714SOL     OW30040   3.011   3.825   4.641  0.4172 -0.6928 -0.1143
 9714SOL    HW130041   2.951   3.795   4.567  0.6571 -1.1750 -0.1142
 9714SOL    HW230042   2.956   3.841   4.723 -0.2691  2.3811 -1.0445
 9715SOL     OW30043   2.455   2.028   5.276  0.1093  0.1227 -0.3873
 9715SOL    HW130044   2.370   1.986   5.307 -0.8954  0.6048 -2.3357
 9715SOL    HW230045   2.457   2.124   5.304 -0.4476  0.3624 -1.1479
 9716SOL     OW30046   1.960   5.692   5.908 -0.2027  0.8243  0.0966
 9716SOL    HW130047   1.868   5.674   5.872  0.0405 -0.1647 -0.0745
 9716SOL    HW230048   2.028   5.667   5.839  0.3107 -1.9112  1.4293
 9717SOL     OW30049   1.520   1.747   4.009 -0.0330 -0.0380  0.6644
 9717SOL    HW130050   1.519   1.757   3.909 -0.7486  2.5317  0.8444
 9717SOL    HW230051   1.576   1.668   4.034  1.7856  0.3697 -1.7093
 9718SOL     OW30052   6.937   6.562   5.890 -0.0019  0.0753  0.0012
 9718SOL    HW130053   6.907   6.589   5.799 -0.7929 -0.7040  0.0170
 9718SOL    HW230054   7.035   6.540   5.888  0.8762  3.4357  0.1164
 9719SOL     OW30055   1.836   1.616   3.365 -0.2588  0.1155 -0.2452
 9719SOL    HW130056   1.835   1.520   3.339  0.0282  0.0504 -0.0169
 9719SOL    HW230057   1.826   1.673   3.284  2.7981 -0.0132 -0.8180
 9720SOL     OW30058   1.736   4.699   0.418 -0.6429  0.1573 -0.4554
 9720SOL    HW130059   1.818   4.737   0.376 -1.4670  0.7063 -1.6182
 9720SOL    HW230060   1.748   4.600   0.431  0.5165  0.3629  0.1989
 9721SOL     OW30061   3.806   3.644   6.918 -0.0426 -0.5889  0.3521
 9721SOL    HW130062   3.896   3.688   6.915 -0.8746  1.2497  0.6800
 9721SOL    HW230063   3.796   3.594   7.004 -0.1255  1.1031  1.3828
 9722SOL     OW30064   6.050   0.462   3.743  0.4827 -0.7345 -0.0707
 9722SOL    HW130065   5.957   0.459   3.706 -0.3211 -1.8429  1.8981
 9722SOL    HW230066   6.115   0.441   3.670 -0.9267 -1.6702 -1.1277
 9723SOL     OW30067   4.814   4.518   5.940 -0.4173 -0.1266 -0.0710
 9723SOL    HW130068   4.835   4.606   5.895  0.1421 -0.3664 -0.2939
 9723SOL    HW230069   4.726   4.484   5.907 -0.9379  0.6524  0.4802
 9724SOL     OW30070   3.219   3.658   4.416 -0.1473  0.3674  0.3364
 9724SOL    HW130071   3.282   3.720   4.462  2.9688 -2.1870 -0.1399
 9724SOL    HW230072   3.144   3.635   4.478  1.3076  0.7815  2.3345
 9725SOL     OW30073   4.394   6.240   0.684 -0.1895  0.0857 -0.0959
 9725SOL    HW130074   4.422   6.234   0.588 -1.5928 -0.2129 -0.4986
 9725SOL    HW230075   4.386   6.148   0.722  1.5126  0.2054  0.6945
 9726SOL     OW30076   6.351   2.408   2.322  0.0190  0.4574 -0.5551
 9726SOL    HW130077   6.428   2.348   2.343 -0.9597 -0.0474  1.9254
 9726SOL    HW230078   6.381   2.503   2.325  0.5672  0.2614  0.2728
 9727SOL     OW30079   0.385   3.240   5.055 -0.5563 -0.6646  0.2896
 9727SOL    HW130080   0.319   3.298   5.007  1.3088 -0.9494 -2.8831
 9727SOL    HW230081   0.338   3.159   5.090 -2.3222  0.4319  0.6095
 9728SOL     OW30082   4.462   0.660   1.993 -0.1033 -0.3346 -0.1835
 9728SOL    HW130083   4.503   0.706   2.072  0.9172  0.7300 -1.2992
 9728SOL    HW230084   4.508   0.572   1.978 -0.5755 -0.7325  0.6330
 9729SOL     OW30085   5.826   1.283   3.200 -0.5138  0.3318 -0.3393
 9729SOL    HW130086   5.861   1.328   3.282 -1.0564 -0.5571  0.3953
 9729SOL    HW230087   5.842   1.342   3.120  1.6213  0.4592  0.1174
 9730SOL     OW30088   4.554   4.382   5.902  0.1458  0.0475 -0.2176
 9730SOL    HW130089   4.471   4.415   5.945 -0.7167 -0.9193 -1.0985
 9730SOL    HW230090   4.533   4.344   5.812  1.5775  0.0271 -0.5751
 9731SOL     OW30091   3.826   2.914   5.089 -0.3663  0.4984 -0.0073
 9731SOL    HW130092   3.860   2.913   4.995  0.1215 -0.4396  0.1740
 9731SOL    HW230093   3.879   2.850   5.145 -2.3143 -0.9366  0.3071
 9732SOL     OW30094   5.135   4.153   5.398 -0.6297 -0.1569  0.2175
 9732SOL    HW130095   5.135   4.058   5.367  0.9285  0.0695 -0.5491
 9732SOL    HW230096   5.042   4.189   5.394 -1.1525 -1.4622 -0.0324
 9733SOL     OW30097   4.480   6.267   2.124  0.0204 -0.6475  0.6227
 9733SOL    HW130098   4.578   6.284   2.131 -0.3739  2.8873 -0.3839
 9733SOL    HW230099   4.435   6.301   2.207 -0.6490  1.4697 -0.5468
 9734SOL     OW30100   4.672   6.861   5.908 -0.0051  0.0324  0.4924
 9734SOL    HW130101   4.688   6.872   6.006  2.7222 -1.4462  0.3151
 9734SOL    HW230102   4.622   6.776   5.892 -3.3833  1.8200  0.6829
 9735SOL     OW30103   3.198   5.224   4.972  0.1188  0.2945  0.0431
 9735SOL    HW130104   3.225   5.285   5.046  1.4309  0.7066 -0.7400
 9735SOL    HW230105   3.212   5.270   4.884 -1.2263 -0.2521 -0.4861
 9736SOL     OW30106   6.210   6.228   4.758  0.3397  0.0882  0.1667
 9736SOL    HW130107   6.110   6.222   4.754  0.3355  0.1702  0.1421
 9736SOL    HW230108   6.243   6.172   4.834  0.1676  1.2319  1.1257
 9737SOL     OW30109   1.163   0.296   5.763 -0.2196  0.3395  0.1033
 9737SOL    HW130110   1.173   0.380   5.818  1.2086 -0.0111  0.4179
 9737SOL    HW230111   1.253   0.260   5.741 -0.8117 -0.6994 -0.7008
 9738SOL     OW30112   4.458   0.754   0.426 -0.1415 -0.1374  0.9478
 9738SOL    HW130113   4.544   0.751   0.477  0.0037  1.2926  0.8294
 9738SOL    HW230114   4.385   0.786   0.486 -0.5983 -1.3348  1.0426
 9739SOL     OW30115   3.491   3.037   1.707 -0.3074 -0.2940 -0.2612
 9739SOL    HW130116   3.536   3.083   1.630  1.5208 -1.4742  0.0546
 9739SOL    HW230117   3.411   3.091   1.735  0.3585  1.4069 -1.4328
 9740SOL     OW30118   1.791   4.684   4.868  0.2750 -0.1912 -0.3252
 9740SOL    HW130119   1.764   4.740   4.946 -0.5797 -0.3264 -0.5123
 9740SOL    HW230120   1.865   4.621   4.895  0.4185  0.1993  0.1974
 9741SOL     OW30121   0.833   5.509   3.742 -0.2388  0.0765 -0.2815
 9741SOL    HW130122   0.835   5.496   3.643 -1.3750  1.4083 -0.5283
 9741SOL    HW230123   0.870   5.600   3.765  1.7763 -0.9325  0.7223
 9742SOL     OW30124   1.374   2.603   0.193  0.1704  0.3677  0.2076
 9742SOL    HW130125   1.310   2.667   0.151 -0.8566 -0.5545  0.3239
 9742SOL    HW230126   1.389   2.525   0.132  1.0228  0.4639  0.2778
 9743SOL     OW30127   1.425   0.537   2.701  0.3026  0.4120  0.1371
 9743SOL    HW130128   1.521   0.559   2.684  1.4404 -3.9348 -0.4408
 9743SOL    HW230129   1.372   0.550   2.618  0.6501  1.6188  0.0955
 9744SOL     OW30130   0.858   1.010   1.653 -0.2958 -0.3839 -0.1272
 9744SOL    HW130131   0.789   0.993   1.724  0.2864  0.8443  0.7770
 9744SOL    HW230132   0.946   1.032   1.697 -0.0845  1.0582 -1.2111
 9745SOL     OW30133   3.792   5.554   1.146  0.1555  0.1100 -0.5742
 9745SOL    HW130134   3.739   5.477   1.181  0.2137  0.0801 -0.5529
 9745SOL    HW230135   3.796   5.549   1.046 -0.4914  0.5043 -0.6252
 9746SOL     OW30136   5.248   3.621   5.596  0.2723 -0.1116  0.0492
 9746SOL    HW130137   5.248   3.719   5.573 -0.6183  0.0997  0.9008
 9746SOL    HW230138   5.165   3.579   5.561 -0.0412 -0.2543  0.9442
 9747SOL     OW30139   6.881   2.233   5.149 -0.0102  0.2299  0.0639
 9747SOL    HW130140   6.975   2.266   5.147  0.3035 -0.6569  0.1316
 9747SOL    HW230141   6.825   2.291   5.089  0.2910  1.5755  1.0451
 9748SOL     OW30142   1.698   3.080   1.929  0.4766  0.3589 -0.3046
 9748SOL    HW130143   1.639   3.154   1.896 -1.0585 -0.5571  0.2592
 9748SOL    HW230144   1.730   3.026   1.852  0.6285  0.9095 -0.6293
 9749SOL     OW30145   5.286   2.674   2.449  0.4194  0.2333 -0.1773
 9749SOL    HW130146   5.220   2.718   2.509 -0.2691 -0.0717 -0.6923
 9749SOL    HW230147   5.252   2.583   2.423  0.6083  0.4396 -1.1807
 9750SOL     OW30148   2.549   5.852   4.047  0.2037 -0.1039  0.2738
 9750SOL    HW130149   2.640   5.833   4.082 -0.0284 -0.6503  0.5993
 9750SOL    HW230150   2.495   5.768   4.047  0.5362 -0.3861 -2.4941
 9751SOL     OW30151   5.681   6.873   1.470 -0.1556  0.1236 -0.1588
 9751SOL    HW130152   5.715   6.931   1.544  1.2110 -1.3562  0.4495
 9751SOL    HW230153   5.586   6.895   1.451 -0.6729  0.3197  2.3197
 9752SOL     OW30154   5.769   2.637   5.037  0.4439 -0.0026  0.1866
 9752SOL    HW130155   5.808   2.725   5.064 -0.5141  0.4114  0.2797
 9752SOL    HW230156   5.813   2.606   4.953  0.4825  0.8021 -0.1062
 9753SOL     OW30157   2.055   5.097   4.702 -0.0242 -0.1933 -0.2744
 9753SOL    HW130158   1.971   5.073   4.655 -0.9615 -0.3990  1.4247
 9753SOL    HW230159   2.075   5.029   4.773  1.5683 -0.1343 -0.6154
 9754SOL     OW30160   0.614   3.640   3.880  0.2004  0.0973 -0.1278
 9754SOL    HW130161   0.587   3.718   3.937 -0.7022  0.1528 -0.6111
 9754SOL    HW230162   0.533   3.603   3.835  0.8287 -0.2568 -0.9840
 9755SOL     OW30163   6.103   0.474   4.756  0.1183  0.6243  0.1057
 9755SOL    HW130164   6.072   0.548   4.817 -0.0010  0.3544  0.3758
 9755SOL    HW230165   6.161   0.512   4.684  0.7909  0.8711  0.7597
 9756SOL     OW30166   0.019   6.046   5.919  0.1539  0.3707 -0.3173
 9756SOL    HW130167  -0.040   6.102   5.861 -0.5793 -0.4858 -0.4222
 9756SOL    HW230168  -0.016   5.952   5.921  0.4095  0.2873  1.1756
 9757SOL     OW30169   2.183   4.949   0.588  0.5594 -0.1022 -0.2133
 9757SOL    HW130170   2.089   4.976   0.610  0.4726  0.1632 -0.8648
 9757SOL    HW230171   2.190   4.850   0.584  0.4050 -0.1330  0.2405
 9758SOL     OW30172   3.435   5.662   1.309 -0.0993 -0.3657  0.2211
 9758SOL    HW130173   3.472   5.630   1.396 -3.5968 -0.6185  1.7877
 9758SOL    HW230174   3.423   5.584   1.248  2.4442 -0.1779 -0.6415
 9759SOL     OW30175   4.028   5.213   1.697 -0.1246  0.1354  0.4959
 9759SOL    HW130176   3.957   5.274   1.731 -0.3532  1.4376 -2.0391
 9759SOL    HW230177   4.101   5.204   1.765 -0.1195  3.2082  1.0125
 9760SOL     OW30178   0.987   3.904   3.027  0.2520 -0.0389  0.7379
 9760SOL    HW130179   0.976   3.990   2.978 -2.5185  0.0427  1.3416
 9760SOL    HW230180   1.040   3.841   2.971  2.2604  1.9748  0.2503
 9761SOL     OW30181   5.059   3.311   0.260 -0.4889  0.1255 -0.0029
 9761SOL    HW130182   5.127   3.382   0.277 -0.2159  0.6897 -3.0497
 9761SOL    HW230183   5.010   3.291   0.346  1.2904  1.9648  1.5359
 9762SOL     OW30184   6.043   4.432   5.131 -0.0416  0.6248  0.3958
 9762SOL    HW130185   5.963   4.445   5.074 -0.4256 -0.5053  0.6435
 9762SOL    HW230186   6.116   4.389   5.077 -0.4097 -0.4563  0.7310
 9763SOL     OW30187   3.403   3.734   2.378  0.2923  0.1338  0.3820
 9763SOL    HW130188   3.428   3.683   2.296  0.3163  2.0660 -0.8954
 9763SOL    HW230189   3.304   3.730   2.391  0.1001  0.9999 -0.6336
 9764SOL     OW30190   5.608   3.114   2.926  0.0602 -0.1523  0.0791
 9764SOL    HW130191   5.672   3.069   2.863  0.2239  1.5742 -1.0867
 9764SOL    HW230192   5.658   3.179   2.983 -0.1256 -1.5539  1.9191
 9765SOL     OW30193   6.382   5.920   0.881  0.0094  0.5848  0.4888
 9765SOL    HW130194   6.314   5.990   0.904  0.7941  1.1777  1.0576
 9765SOL    HW230195   6.356   5.875   0.796 -0.8504  1.1177  0.4570
 9766SOL     OW30196   3.490   1.176   0.479 -0.1700 -0.0595  0.0099
 9766SOL    HW130197   3.469   1.260   0.528 -0.5695  0.7950 -1.5743
 9766SOL    HW230198   3.555   1.195   0.405 -0.9702 -0.9422 -0.9530
 9767SOL     OW30199   2.769   3.751   0.407 -0.2356 -0.1443 -0.0808
 9767SOL    HW130200   2.713   3.775   0.486  0.5499  1.6298 -0.0186
 9767SOL    HW230201   2.831   3.676   0.431  0.8359  1.1456  1.4029
 9768SOL     OW30202   6.782   6.565   1.995 -0.1672  0.3293  0.0185
 9768SOL    HW130203   6.813   6.658   1.974  1.2576  0.2399  1.4889
 9768SOL    HW230204   6.852   6.500   1.968 -0.3373 -0.1485  0.7118
 9769SOL     OW30205   2.677   0.130   3.713  0.3683 -0.3146 -0.1133
 9769SOL    HW130206   2.737   0.176   3.779  0.0587 -0.5209  0.3141
 9769SOL    HW230207   2.721   0.131   3.622  0.9629 -0.3475  0.1654
 9770SOL     OW30208   1.873   6.988   0.043 -0.4813  0.1591 -0.3786
 9770SOL    HW130209   1.891   6.894   0.012  0.5243 -0.5341  2.1038
 9770SOL    HW230210   1.798   6.987   0.109 -0.0526  0.9906  0.1357
 9771SOL     OW30211   1.575   3.579   2.205 -0.3945 -0.1235  0.5354
 9771SOL    HW130212   1.609   3.672   2.190  1.9064 -0.8570  0.8489
 9771SOL    HW230213   1.650   3.520   2.233 -1.6957 -2.2191 -0.1418
 9772SOL     OW30214   0.511   3.514   2.400 -0.2029 -0.0350 -0.2679
 9772SOL    HW130215   0.473   3.520   2.492 -0.0971 -2.0420 -0.0602
 9772SOL    HW230216   0.545   3.604   2.372 -0.2362  0.6079  1.6461
 9773SOL     OW30217   3.229   6.978   0.638 -0.4165 -0.1664 -0.4401
 9773SOL    HW130218   3.148   6.938   0.681  0.5352 -1.6303  0.0653
 9773SOL    HW230219   3.309   6.921   0.657  1.3143  2.6367  1.4208
 9774SOL     OW30220   2.548   1.657   6.029  0.3199  0.1598  0.3199
 9774SOL    HW130221   2.641   1.649   6.065  0.0500  1.5568  1.4005
 9774SOL    HW230222   2.552   1.703   5.940  0.6610  0.2637  0.3845
 9775SOL     OW30223   3.814   0.013   5.121  0.2980 -0.0693  0.3651
 9775SOL    HW130224   3.871  -0.058   5.164 -0.0806 -1.5459 -1.4775
 9775SOL    HW230225   3.783  -0.018   5.032 -1.2514  1.7946  0.1950
 9776SOL     OW30226   1.668   1.982   4.789 -0.3649 -0.4762  0.3009
 9776SOL    HW130227   1.626   2.049   4.850  1.1827  0.3465  0.5036
 9776SOL    HW230228   1.759   1.959   4.822  0.2556 -0.5042 -1.3302
 9777SOL     OW30229   6.914   6.701   2.932 -0.3700  0.2203  0.7135
 9777SOL    HW130230   6.980   6.755   2.879  0.8933 -0.8656  1.1478
 9777SOL    HW230231   6.946   6.607   2.940 -0.4978  0.3308  3.4215
 9778SOL     OW30232   0.505   2.906   6.417  0.2539  0.5489  0.1260
 9778SOL    HW130233   0.412   2.905   6.380 -0.2169 -0.9227  1.2496
 9778SOL    HW230234   0.571   2.903   6.342 -0.5580  2.1283 -0.7115
 9779SOL     OW30235   3.553   2.946   2.438  0.4080  0.3137 -0.7712
 9779SOL    HW130236   3.587   2.922   2.529 -0.3029 -0.7043 -0.7595
 9779SOL    HW230237   3.517   3.039   2.439 -0.7312 -0.1254  0.3190
 9780SOL     OW30238   0.443   3.323   6.542 -0.1428  0.1136  0.0695
 9780SOL    HW130239   0.473   3.390   6.610  0.8542  0.1523 -0.3857
 9780SOL    HW230240   0.498   3.240   6.551 -1.1555 -0.5303  0.4168
 9781SOL     OW30241   1.252   6.675   6.601 -0.2037 -0.2442  0.2672
 9781SOL    HW130242   1.226   6.701   6.508  0.4999  0.4699  0.2573
 9781SOL    HW230243   1.192   6.720   6.666 -0.0769  0.0448  0.1866
 9782SOL     OW30244   6.754   2.486   5.424 -0.1107  0.2361 -0.7183
 9782SOL    HW130245   6.840   2.528   5.452 -1.3575  1.0002  2.3041
 9782SOL    HW230246   6.759   2.387   5.438 -0.4980  0.5367  1.9047
 9783SOL     OW30247   2.310   0.296   5.974  0.1897 -0.2826  0.0820
 9783SOL    HW130248   2.251   0.362   6.020 -1.7272 -1.1289 -1.0630
 9783SOL    HW230249   2.321   0.322   5.878 -1.2184 -1.9772 -0.5831
 9784SOL     OW30250   6.469   6.336   0.080 -0.0922 -0.5203  0.0688
 9784SOL    HW130251   6.510   6.426   0.067 -0.1641 -0.4606  0.2555
 9784SOL    HW230252   6.370   6.342   0.063 -0.1767 -0.4543  0.5825
 9785SOL     OW30253   6.141   0.899   6.503  0.3422 -0.0348 -0.7605
 9785SOL    HW130254   6.113   0.930   6.412  1.1331 -2.2881 -1.8533
 9785SOL    HW230255   6.062   0.857   6.549 -0.0813  1.1893 -0.3400
 9786SOL     OW30256   4.847   3.212   3.416  0.4022 -0.3097  0.2517
 9786SOL    HW130257   4.829   3.293   3.361  0.0930 -1.2671 -1.1240
 9786SOL    HW230258   4.928   3.226   3.472  1.0705  0.5051 -0.8784
 9787SOL     OW30259   3.250   1.143   4.904 -0.5033  0.0745 -0.4753
 9787SOL    HW130260   3.220   1.105   4.816  1.3752 -0.4199 -0.9497
 9787SOL    HW230261   3.170   1.175   4.955 -1.7652 -0.8040 -1.8011
 9788SOL     OW30262   5.593   4.702   6.724 -0.3470 -0.2786 -0.8959
 9788SOL    HW130263   5.574   4.724   6.629 -2.2064  0.1489 -0.4732
 9788SOL    HW230264   5.682   4.739   6.750 -0.6723  1.3372 -1.9370
 9789SOL     OW30265   4.329   1.734   5.742  0.2717  0.3717 -0.8033
 9789SOL    HW130266   4.331   1.723   5.642 -2.3785  0.6908 -0.9671
 9789SOL    HW230267   4.275   1.815   5.765  0.1854 -0.1453  0.9150
 9790SOL     OW30268   5.123   6.125   5.689  0.3883  0.5395  0.0406
 9790SOL    HW130269   5.070   6.207   5.669  0.1539  0.2111 -0.7151
 9790SOL    HW230270   5.219   6.140   5.665  0.0660  0.0555 -1.6960
 9791SOL     OW30271   6.765   1.409   6.513 -0.5499  0.1484 -0.3693
 9791SOL    HW130272   6.676   1.384   6.551 -0.0376 -0.9393  0.1760
 9791SOL    HW230273   6.779   1.507   6.520 -0.9427  0.1059  1.2603
 9792SOL     OW30274   1.285   5.961   2.750 -0.3403  0.0572 -0.7685
 9792SOL    HW130275   1.217   5.887   2.749 -0.7491  0.3951  0.4740
 9792SOL    HW230276   1.372   5.926   2.717 -0.7082 -0.8054 -0.8627
 9793SOL     OW30277   5.046   0.324   4.272  0.5996 -0.1408 -0.5930
 9793SOL    HW130278   5.009   0.348   4.182 -1.1691  0.7509  0.3119
 9793SOL    HW230279   4.972   0.291   4.330  1.5511  0.0664  0.7863
 9794SOL     OW30280   1.429   6.500   5.470  0.1342 -0.0015 -0.0129
 9794SOL    HW130281   1.467   6.411   5.495  0.8063 -0.0693 -1.2319
 9794SOL    HW230282   1.408   6.501   5.373 -1.1698  0.7129  0.2548
 9795SOL     OW30283   4.126   1.145   4.513 -0.1669  0.7628 -0.3205
 9795SOL    HW130284   4.210   1.091   4.513 -2.0111 -2.5496  2.3700
 9795SOL    HW230285   4.096   1.161   4.418  1.1071 -2.0825 -1.3081
 9796SOL     OW30286   0.920   4.543   3.181 -0.1969  0.0396 -0.0356
 9796SOL    HW130287   0.839   4.602   3.185  0.7561  1.4123 -0.3860
 9796SOL    HW230288   0.905   4.463   3.239 -2.7298 -0.9419 -1.8779
 9797SOL     OW30289   4.381   2.919   0.322  0.2155 -0.0221  0.1693
 9797SOL    HW130290   4.470   2.955   0.296 -0.1108  1.2594  0.7937
 9797SOL    HW230291   4.315   2.938   0.249  0.2680 -0.2609  0.0582
 9798SOL     OW30292   3.685   5.846   2.548  0.2988  0.5931 -0.2648
 9798SOL    HW130293   3.739   5.762   2.560 -0.5512  0.0778 -0.0023
 9798SOL    HW230294   3.637   5.867   2.633 -2.3648 -0.6874 -1.3384
 9799SOL     OW30295   5.662   1.375   1.709  0.8902  0.2041  0.2037
 9799SOL    HW130296   5.675   1.449   1.644 -0.7005  0.4250  0.0921
 9799SOL    HW230297   5.594   1.402   1.777  1.3719 -0.6120  1.0378
 9800SOL     OW30298   0.253   4.116   4.975 -0.1700  0.4590 -0.1990
 9800SOL    HW130299   0.172   4.070   5.010 -0.3654  1.2573  0.4152
 9800SOL    HW230300   0.330   4.052   4.973 -0.6257 -0.0960 -0.0797
 9801SOL     OW30301   1.931   4.914   6.409 -0.0907 -0.4188 -0.3488
 9801SOL    HW130302   1.963   4.978   6.339 -0.5788  2.1667  1.6387
 9801SOL    HW230303   1.834   4.895   6.395 -1.0787  2.7204  1.3209
 9802SOL     OW30304   2.681   2.631   5.401 -0.1937  0.0791 -0.2656
 9802SOL    HW130305   2.711   2.550   5.350  0.1250  1.0227 -1.6452
 9802SOL    HW230306   2.754   2.700   5.398 -1.3245  1.2790 -1.0978
 9803SOL     OW30307   4.757   1.160   0.952 -0.0508  0.4658 -0.2549
 9803SOL    HW130308   4.726   1.114   1.036 -1.9256  3.1285  0.6310
 9803SOL    HW230309   4.694   1.140   0.878 -0.6169  1.2320  0.0150
 9804SOL     OW30310   6.235   2.815   6.064  0.4714 -0.1170  0.4241
 9804SOL    HW130311   6.290   2.893   6.094 -0.1431  0.2751  0.5554
 9804SOL    HW230312   6.146   2.848   6.032  0.5862 -0.6656 -0.4905
 9805SOL     OW30313   6.606   6.776   2.718  0.0332 -0.1343 -0.2425
 9805SOL    HW130314   6.596   6.678   2.736  0.9453 -0.3763 -0.9668
 9805SOL    HW230315   6.547   6.801   2.641 -2.0678  0.4201  1.4461
 9806SOL     OW30316   2.657   1.004   2.858 -0.0111  0.3105 -0.2912
 9806SOL    HW130317   2.697   1.057   2.784 -1.2449  1.8322  0.0692
 9806SOL    HW230318   2.574   0.958   2.826 -0.0124  0.1727 -0.0972
 9807SOL     OW30319   4.642   1.980   0.960  0.5165  0.5194  1.2030
 9807SOL    HW130320   4.693   2.041   1.020 -0.0779  0.6548  1.5858
 9807SOL    HW230321   4.545   2.007   0.960  0.4479  0.3043  0.4555
 9808SOL     OW30322   3.774   2.397   6.621 -0.2386 -0.3184 -0.1478
 9808SOL    HW130323   3.745   2.487   6.589  0.3909  0.2827  0.9353
 9808SOL    HW230324   3.694   2.346   6.653 -0.4920  0.1488 -0.0318
 9809SOL     OW30325   0.214   4.970   4.514 -0.1791  0.1345 -0.2603
 9809SOL    HW130326   0.169   4.940   4.598  0.7338  0.8912  0.5235
 9809SOL    HW230327   0.287   4.906   4.491  1.5335  1.4747  1.2135
 9810SOL     OW30328   4.786   0.444   5.117 -0.1151 -0.1159 -0.4644
 9810SOL    HW130329   4.765   0.539   5.144  0.7385  0.6858 -2.4512
 9810SOL    HW230330   4.853   0.445   5.044 -2.4109 -2.1354 -2.7722
 9811SOL     OW30331   1.299   6.038   4.919  0.1314 -0.1532  0.3984
 9811SOL    HW130332   1.370   6.053   4.849  1.4225 -0.8446  1.5060
 9811SOL    HW230333   1.209   6.037   4.876  0.9795 -2.0117 -1.5046
 9812SOL     OW30334   6.286   1.951   3.058  0.3847  0.3335  0.1339
 9812SOL    HW130335   6.204   1.945   3.115 -0.4721  0.6102 -1.0297
 9812SOL    HW230336   6.270   1.903   2.972  1.0982  1.2241 -0.5145
 9813SOL     OW30337   4.865   4.939   5.079 -0.3214  0.0934  0.2762
 9813SOL    HW130338   4.843   5.035   5.096  0.5259 -0.1086  2.9250
 9813SOL    HW230339   4.960   4.931   5.050 -0.2589  0.0327  0.4947
 9814SOL     OW30340   3.307   5.128   2.010  0.1316  0.3128  0.5806
 9814SOL    HW130341   3.282   5.034   2.035 -0.1946  0.7358  1.9321
 9814SOL    HW230342   3.393   5.126   1.959 -0.5683 -0.8182 -0.6234
 9815SOL     OW30343   6.953   5.024   0.022 -0.3525 -0.4024  0.5624
 9815SOL    HW130344   7.022   4.952   0.031  0.4909  0.2179 -0.6339
 9815SOL    HW230345   6.911   5.020  -0.069  1.2500  1.8874 -0.3828
 9816SOL     OW30346   4.627   0.887   0.245  0.6320  0.9243 -0.0642
 9816SOL    HW130347   4.585   0.833   0.318  2.9255 -1.1650 -0.1541
 9816SOL    HW230348   4.647   0.829   0.167 -0.1895  2.7647 -1.7410
 9817SOL     OW30349   1.342   1.996   5.184 -0.1788  0.6885  0.5674
 9817SOL    HW130350   1.417   1.932   5.166 -0.0438  0.7367  0.9508
 9817SOL    HW230351   1.257   1.945   5.198 -0.4920  0.6792 -1.1038
 9818SOL     OW30352   5.271   1.187   4.608 -0.0464  0.1388  0.8064
 9818SOL    HW130353   5.368   1.164   4.618 -0.0222  0.1251  0.5377
 9818SOL    HW230354   5.230   1.130   4.537  0.2149  1.5030 -0.4914
 9819SOL     OW30355   5.877   2.853   4.055  0.0824  0.2293  0.3559
 9819SOL    HW130356   5.882   2.920   4.129 -0.7126  0.7050 -0.0152
 9819SOL    HW230357   5.927   2.887   3.976  1.7294 -0.6852  0.9555
 9820SOL     OW30358   0.605   2.230   0.913  0.6446  0.8243  0.0970
 9820SOL    HW130359   0.521   2.284   0.916  0.3643  0.3500  1.2665
 9820SOL    HW230360   0.659   2.248   0.996  0.4393 -0.8495  0.6180
 9821SOL     OW30361   0.661   2.568   1.613  0.6582  0.1023  0.7887
 9821SOL    HW130362   0.755   2.551   1.643  0.6722 -1.8021 -0.1765
 9821SOL    HW230363   0.601   2.566   1.693  1.0861 -1.7587  1.1233
 9822SOL     OW30364   2.782   6.472   1.583 -0.0482 -0.2271 -0.3801
 9822SOL    HW130365   2.763   6.562   1.542 -1.3610  0.1322  0.9229
 9822SOL    HW230366   2.841   6.419   1.521  0.9190  1.5802 -1.0931
 9823SOL     OW30367   0.696   6.238   5.371  0.5664  0.2005  0.0790
 9823SOL    HW130368   0.696   6.225   5.271 -0.7945  1.1527 -0.0584
 9823SOL    HW230369   0.789   6.225   5.405  1.1268  0.2181 -1.3556
 9824SOL     OW30370   0.449   6.537   6.334 -0.0071 -1.0102 -0.7846
 9824SOL    HW130371   0.379   6.552   6.404 -0.2518  0.2423 -1.2743
 9824SOL    HW230372   0.459   6.439   6.318 -1.1049 -1.2467 -0.1479
 9825SOL     OW30373   5.640   4.706   0.559  0.0508 -0.0238 -0.6507
 9825SOL    HW130374   5.663   4.614   0.525 -0.8371 -0.0619 -1.1770
 9825SOL    HW230375   5.594   4.698   0.647 -0.0712 -0.0897 -0.7201
 9826SOL     OW30376   5.742   4.612   4.161 -1.0397 -0.4782  0.0701
 9826SOL    HW130377   5.729   4.670   4.242  1.3807 -0.3739  0.4646
 9826SOL    HW230378   5.712   4.519   4.182 -0.7765 -0.3705  1.0106
 9827SOL     OW30379   3.004   4.668   6.559 -0.0332  0.1121 -0.2114
 9827SOL    HW130380   3.088   4.672   6.612  1.1720 -1.5477 -1.8473
 9827SOL    HW230381   2.936   4.614   6.608 -0.2152  1.5160  1.1534
 9828SOL     OW30382   0.418   1.738   5.456  0.4119 -0.6604 -0.2894
 9828SOL    HW130383   0.517   1.727   5.452  0.6685  0.7043  1.1058
 9828SOL    HW230384   0.394   1.834   5.438 -0.7017 -1.0491 -1.0147
 9829SOL     OW30385   0.196   0.570   0.184  0.0419 -0.1469 -0.1219
 9829SOL    HW130386   0.182   0.489   0.127  0.9833  0.8050 -1.7964
 9829SOL    HW230387   0.294   0.591   0.187 -0.1549  0.7159  0.5730
 9830SOL     OW30388   0.941   5.258   5.950 -0.0788  0.3346 -0.4196
 9830SOL    HW130389   0.973   5.336   6.003 -0.5004  0.1204  0.1674
 9830SOL    HW230390   0.997   5.247   5.869  3.2166 -1.6657  1.8957
 9831SOL     OW30391   5.624   0.361   5.967  0.4005  0.2567  0.5081
 9831SOL    HW130392   5.685   0.435   5.940  0.1095  0.5887  0.7434
 9831SOL    HW230393   5.678   0.281   5.994  0.7013 -0.3113 -1.6250
 9832SOL     OW30394   5.222   5.474   3.424 -0.1105 -0.4402  0.1130
 9832SOL    HW130395   5.313   5.492   3.388 -1.1431 -0.1905 -2.6139
 9832SOL    HW230396   5.229   5.436   3.516  2.8974 -3.8508 -1.2982
 9833SOL     OW30397   4.228   4.754   0.787  1.3285  0.1542 -0.0936
 9833SOL    HW130398   4.254   4.722   0.878  1.0727 -2.3112 -0.8115
 9833SOL    HW230399   4.301   4.733   0.722  1.1432  1.0981 -0.6294
 9834SOL     OW30400   6.682   2.673   2.751  0.5967 -0.6711  0.4655
 9834SOL    HW130401   6.730   2.671   2.839  3.5423 -1.4672 -1.0268
 9834SOL    HW230402   6.693   2.764   2.709  3.1415 -1.5380 -0.9658
 9835SOL     OW30403   2.735   3.848   0.919  0.2799 -0.4834  0.3707
 9835SOL    HW130404   2.720   3.936   0.964 -0.0574 -0.0784 -0.5364
 9835SOL    HW230405   2.708   3.774   0.981  0.5281  0.0436  1.1209
 9836SOL     OW30406   4.434   5.982   0.430  0.7072 -0.3658 -0.1048
 9836SOL    HW130407   4.474   5.950   0.344  0.0713  0.4442 -0.7180
 9836SOL    HW230408   4.337   6.002   0.416  1.0169  1.6008  0.2907
 9837SOL     OW30409   1.463   1.317   1.458  0.0531 -0.1289 -0.5929
 9837SOL    HW130410   1.553   1.328   1.501  0.0267 -0.8113 -0.3454
 9837SOL    HW230411   1.464   1.360   1.368 -0.0426  1.7672  0.2696
 9838SOL     OW30412   6.936   4.554   1.748  0.0839 -0.5813  0.8953
 9838SOL    HW130413   6.854   4.604   1.718 -0.0425 -2.0169 -1.4067
 9838SOL    HW230414   7.017   4.595   1.706  0.1607 -1.2220  0.4055
 9839SOL     OW30415   1.463   0.442   0.446 -0.1082 -0.6868  0.3504
 9839SOL    HW130416   1.403   0.381   0.395  1.1037 -0.8052 -0.9867
 9839SOL    HW230417   1.477   0.526   0.394 -1.0918  0.4393  1.7960
 9840SOL     OW30418   5.860   6.992   3.963  0.5212  0.1394  0.3788
 9840SOL    HW130419   5.916   7.022   4.040 -0.3598  0.9545  0.7073
 9840SOL    HW230420   5.832   7.072   3.909 -0.4909 -0.2488  0.3236
 9841SOL     OW30421   0.247   5.710   2.633 -0.1250 -0.0123 -0.3094
 9841SOL    HW130422   0.166   5.730   2.688  0.3549 -0.8443  0.7328
 9841SOL    HW230423   0.282   5.795   2.592  2.1542  1.6355  4.3411
 9842SOL     OW30424   6.550   1.180   3.590 -0.0574  0.3892  0.0912
 9842SOL    HW130425   6.485   1.254   3.610 -0.8076 -0.0376 -0.6999
 9842SOL    HW230426   6.589   1.194   3.499  0.9568  0.6272  0.5528
 9843SOL     OW30427   2.727   1.714   2.560 -0.3808  0.4685 -0.3506
 9843SOL    HW130428   2.811   1.746   2.603 -0.6843  2.0026 -0.8328
 9843SOL    HW230429   2.650   1.726   2.622 -0.5785  1.2017 -0.7268
 9844SOL     OW30430   5.094   5.849   3.152  0.3138  0.5954 -0.2449
 9844SOL    HW130431   5.139   5.816   3.069 -1.1019 -0.9537 -0.4537
 9844SOL    HW230432   5.136   5.806   3.232  0.5120  0.7239 -0.2778
 9845SOL     OW30433   2.544   6.265   1.420  0.0869 -0.4696 -0.3259
 9845SOL    HW130434   2.601   6.280   1.500  0.7232 -3.2557 -0.1536
 9845SOL    HW230435   2.458   6.222   1.448  0.2662 -1.3578 -1.0720
 9846SOL     OW30436   1.736   3.808   2.144 -0.2469  0.1288 -0.2106
 9846SOL    HW130437   1.662   3.860   2.101  0.7082  0.2751 -1.7722
 9846SOL    HW230438   1.783   3.753   2.074 -0.4181 -1.8822  1.1603
 9847SOL     OW30439   0.198   5.777   0.776 -0.2015 -0.0902 -0.2932
 9847SOL    HW130440   0.260   5.779   0.855  0.0810  0.3258 -0.5194
 9847SOL    HW230441   0.149   5.690   0.774 -1.2077  0.4043  1.0992
 9848SOL     OW30442   3.492   3.453   2.781 -0.4869 -0.3715 -0.4559
 9848SOL    HW130443   3.399   3.442   2.817 -1.4870  0.8390 -2.4709
 9848SOL    HW230444   3.502   3.545   2.743  2.2557  0.2853  1.5543
 9849SOL     OW30445   3.730   2.605   0.371 -0.5633  0.0220 -0.3396
 9849SOL    HW130446   3.757   2.509   0.367 -0.3858  0.0951 -2.9612
 9849SOL    HW230447   3.631   2.612   0.365 -0.6839 -0.0091  1.3001
 9850SOL     OW30448   0.954   0.790   1.923  0.4784 -0.5083 -0.2580
 9850SOL    HW130449   0.984   0.880   1.956  1.7033 -0.2651 -1.9039
 9850SOL    HW230450   0.855   0.790   1.911 -0.0513 -0.5728  3.1110
 9851SOL     OW30451   5.913   0.786   2.198 -0.1843  0.1555 -0.5078
 9851SOL    HW130452   5.831   0.777   2.142 -1.4382  0.1663  1.2731
 9851SOL    HW230453   5.962   0.698   2.199 -0.9062 -0.2530 -0.4860
 9852SOL     OW30454   5.583   6.050   4.317  0.2445 -0.6353 -0.3319
 9852SOL    HW130455   5.679   6.066   4.292  0.7937 -0.0263  1.8740
 9852SOL    HW230456   5.537   6.138   4.331 -0.6292 -0.9275 -1.2700
 9853SOL     OW30457   0.806   3.581   1.811  0.0377 -0.1422  0.0596
 9853SOL    HW130458   0.787   3.527   1.893 -0.1822 -0.9653 -0.5193
 9853SOL    HW230459   0.753   3.666   1.814  1.3256  0.6592  1.5722
 9854SOL     OW30460   3.758   3.239   6.846  0.1536 -0.0699 -0.6309
 9854SOL    HW130461   3.720   3.209   6.759 -0.0173 -1.3298 -0.1488
 9854SOL    HW230462   3.854   3.262   6.835  0.4302 -1.2885 -0.9533
 9855SOL     OW30463   3.669   6.374   3.813 -0.3828  0.1425 -0.4106
 9855SOL    HW130464   3.624   6.463   3.824  2.8824  1.8769  0.2215
 9855SOL    HW230465   3.759   6.387   3.770  0.4337 -2.7943  0.1594
 9856SOL     OW30466   2.238   4.038   0.074 -0.7914 -0.4516  0.2181
 9856SOL    HW130467   2.265   4.074  -0.015 -0.6752 -0.6056  0.1897
 9856SOL    HW230468   2.244   3.938   0.073  1.7799 -0.3789  1.1924
 9857SOL     OW30469   2.145   3.734   3.313 -0.4166 -0.2492 -0.1042
 9857SOL    HW130470   2.059   3.685   3.303  1.1941 -3.3287  0.0064
 9857SOL    HW230471   2.159   3.757   3.409 -0.6451 -0.7043  0.0424
 9858SOL     OW30472   2.128   1.664   4.029 -0.0403  0.8762  0.0941
 9858SOL    HW130473   2.193   1.740   4.026 -0.2015  0.9911 -1.0826
 9858SOL    HW230474   2.048   1.685   3.973  0.8500 -0.9380 -2.0480
 9859SOL     OW30475   1.382   0.625   5.825 -0.2428 -0.0829  0.5123
 9859SOL    HW130476   1.398   0.578   5.739 -0.4744  1.1440 -0.2287
 9859SOL    HW230477   1.401   0.563   5.901  1.8948 -0.6166 -0.3718
 9860SOL     OW30478   1.789   2.726   0.207  0.6358 -0.1716  0.2666
 9860SOL    HW130479   1.814   2.749   0.114 -2.2377 -0.8581 -0.7877
 9860SOL    HW230480   1.721   2.791   0.241 -0.2573 -1.3678  0.8955
 9861SOL     OW30481   3.009   5.464   2.405  0.0035  0.3841 -0.1871
 9861SOL    HW130482   2.990   5.368   2.386  1.1987  0.0854  0.0626
 9861SOL    HW230483   3.094   5.472   2.456 -0.2161  1.5648  0.0217
 9862SOL     OW30484   3.128   0.675   5.762  0.2026  0.4098 -0.0805
 9862SOL    HW130485   3.147   0.604   5.694  3.2364  0.8441  0.1794
 9862SOL    HW230486   3.139   0.765   5.720  1.0697  0.6825  0.7009
 9863SOL     OW30487   1.577   6.484   0.200 -0.0934  0.0956  0.0584
 9863SOL    HW130488   1.668   6.443   0.189 -1.7751 -4.5793  1.1099
 9863SOL    HW230489   1.535   6.450   0.283 -3.9766 -0.6040 -1.9622
 9864SOL     OW30490   1.209   5.230   1.624  0.2535  0.1334  0.3625
 9864SOL    HW130491   1.125   5.226   1.678  0.1010  0.6027  0.1682
 9864SOL    HW230492   1.212   5.151   1.563  0.3204 -0.2779  0.9032
 9865SOL     OW30493   0.291   3.921   4.492  0.0547 -0.2977 -0.0115
 9865SOL    HW130494   0.234   3.997   4.523  1.2113  1.3870 -1.7995
 9865SOL    HW230495   0.347   3.888   4.569 -1.4625 -0.3266  1.1302
 9866SOL     OW30496   5.425   6.298   1.188  0.2540  0.0277 -0.0225
 9866SOL    HW130497   5.512   6.249   1.190 -0.1155 -0.6533 -0.0348
 9866SOL    HW230498   5.399   6.322   1.281 -0.1996 -0.9991  0.1387
 9867SOL     OW30499   6.169   4.333   6.099 -0.2701 -0.4131 -0.2894
 9867SOL    HW130500   6.158   4.297   6.006  0.3269 -1.2691 -0.0380
 9867SOL    HW230501   6.128   4.269   6.164  0.1576 -0.2863  0.1053
 9868SOL     OW30502   1.021   4.807   2.947 -0.3788 -0.0062 -0.0921
 9868SOL    HW130503   0.980   4.723   2.911 -1.8503 -0.9276  3.3234
 9868SOL    HW230504   1.094   4.783   3.011 -0.6996  1.3162  0.8060
 9869SOL     OW30505   7.012   5.486   6.799  0.3735 -0.7109  0.0895
 9869SOL    HW130506   7.028   5.434   6.882  0.5069 -1.4475 -0.3897
 9869SOL    HW230507   6.923   5.533   6.805 -0.2562 -1.8591  0.1001
 9870SOL     OW30508   2.889   4.213   1.463 -0.1258 -0.3301 -0.2325
 9870SOL    HW130509   2.837   4.279   1.411  0.0266  0.7126  0.8807
 9870SOL    HW230510   2.896   4.243   1.558 -0.8090 -2.3894  0.5373
 9871SOL     OW30511   6.022   4.708   0.496  0.1475 -0.3996  0.2312
 9871SOL    HW130512   6.001   4.706   0.593  0.1004 -1.6978  0.2074
 9871SOL    HW230513   5.969   4.638   0.448  0.9387 -0.4754 -0.5680
 9872SOL     OW30514   5.470   5.090   0.569 -0.3691 -0.1070 -0.0199
 9872SOL    HW130515   5.539   5.103   0.641  0.1978 -1.3982 -0.2948
 9872SOL    HW230516   5.470   5.170   0.508  1.2242 -0.2489 -0.2632
 9873SOL     OW30517   2.047   4.443   4.257  0.1109  0.2446 -0.0902
 9873SOL    HW130518   1.993   4.405   4.182 -2.2269  1.1286  1.0610
 9873SOL    HW230519   2.058   4.542   4.243 -0.4260  0.4333  0.7485
 9874SOL     OW30520   6.714   3.332   0.238 -0.2969 -0.0901  0.4874
 9874SOL    HW130521   6.685   3.421   0.276 -1.9054  0.1633 -1.2173
 9874SOL    HW230522   6.814   3.328   0.238 -0.1611  1.8896  0.2877
 9875SOL     OW30523   4.793   1.557   3.737 -0.4072  0.2171 -0.5728
 9875SOL    HW130524   4.844   1.471   3.742  0.7588  0.9073 -0.1792
 9875SOL    HW230525   4.732   1.564   3.817 -0.9779 -0.5076 -0.9285
 9876SOL     OW30526   5.942   4.325   2.245 -0.1025 -0.4129 -0.0914
 9876SOL    HW130527   5.932   4.414   2.289  1.9680  0.3163 -0.9884
 9876SOL    HW230528   5.966   4.338   2.149  1.7108 -1.9061  0.1007
 9877SOL     OW30529   6.413   4.302   0.099 -0.3172  0.3851 -0.1341
 9877SOL    HW130530   6.444   4.320   0.193 -0.8596  0.2656  0.0738
 9877SOL    HW230531   6.443   4.376   0.040 -1.0442  1.1215  0.3873
 9878SOL     OW30532   6.982   4.424   6.736 -0.0594  0.2839  0.2240
 9878SOL    HW130533   6.986   4.334   6.779  0.0616 -0.4720 -1.3217
 9878SOL    HW230534   6.887   4.455   6.733 -0.5810 -1.3329 -2.2480
 9879SOL     OW30535   1.037   1.456   6.384 -0.0861  0.3422 -0.3597
 9879SOL    HW130536   1.009   1.413   6.298 -0.2127  2.8245 -1.6650
 9879SOL    HW230537   0.957   1.496   6.429  0.2135  0.4199  0.1078
 9880SOL     OW30538   0.788   1.321   0.313  0.2782  0.0888  0.2325
 9880SOL    HW130539   0.784   1.222   0.329 -0.0663 -0.3837 -2.3923
 9880SOL    HW230540   0.883   1.351   0.315  0.5542 -0.6701 -0.7947
 9881SOL     OW30541   0.231   5.824   5.858  0.5873  0.7171  0.3457
 9881SOL    HW130542   0.175   5.849   5.779 -1.6884 -1.0322  1.2772
 9881SOL    HW230543   0.272   5.907   5.897 -1.5858  2.1725 -0.2599
 9882SOL     OW30544   5.696   6.287   3.127  0.1680 -0.1669 -0.1876
 9882SOL    HW130545   5.656   6.227   3.058 -2.7956  0.7364  0.5691
 9882SOL    HW230546   5.682   6.246   3.218  0.7574  0.3182  0.1247
 9883SOL     OW30547   3.854   4.177   5.034  0.3195  0.9468  0.2934
 9883SOL    HW130548   3.917   4.216   4.967  0.3129  1.4381  0.5653
 9883SOL    HW230549   3.863   4.227   5.120 -0.1535  0.7588  0.4531
 9884SOL     OW30550   6.606   4.093   3.621 -0.3496  0.0288  0.0626
 9884SOL    HW130551   6.595   4.015   3.559  1.1535  0.4194 -0.7676
 9884SOL    HW230552   6.612   4.177   3.568 -0.4892  0.5488  0.8489
 9885SOL     OW30553   6.330   5.385   4.950 -0.8448  0.1995 -0.1819
 9885SOL    HW130554   6.278   5.310   4.908 -1.3290  0.6464 -0.3883
 9885SOL    HW230555   6.276   5.426   5.023 -1.1501  1.2416 -0.9803
 9886SOL     OW30556   2.312   2.429   1.070  0.3103 -0.8206 -0.2630
 9886SOL    HW130557   2.250   2.380   1.009 -1.3045  1.0822 -0.2542
 9886SOL    HW230558   2.272   2.434   1.161  0.6255  0.1702 -0.1686
 9887SOL     OW30559   5.206   3.657   4.117 -0.0345 -0.0402 -0.3363
 9887SOL    HW130560   5.203   3.655   4.017  1.5649  0.1748 -0.4099
 9887SOL    HW230561   5.197   3.564   4.152 -1.4941 -0.0343 -0.6117
 9888SOL     OW30562   2.410   2.602   0.771  0.8529 -0.5497  0.5849
 9888SOL    HW130563   2.421   2.504   0.785 -0.1012 -0.7197  0.2579
 9888SOL    HW230564   2.374   2.644   0.854 -1.4804 -0.9813 -0.1201
 9889SOL     OW30565   5.158   5.050   1.256  0.0186  0.4818 -0.1316
 9889SOL    HW130566   5.145   4.977   1.189 -0.3241 -0.2538  0.7188
 9889SOL    HW230567   5.199   5.130   1.211  1.9609 -0.7864 -0.7635
 9890SOL     OW30568   3.468   2.083   2.087  0.0330  0.7177  0.5775
 9890SOL    HW130569   3.424   2.110   2.001  0.0952  0.4374  0.4599
 9890SOL    HW230570   3.562   2.118   2.089  0.2523  0.1608  0.2443
 9891SOL     OW30571   2.193   3.950   3.164  0.0883  0.0675 -0.7505
 9891SOL    HW130572   2.195   3.873   3.228  1.9260  0.3710 -0.4100
 9891SOL    HW230573   2.228   4.032   3.209 -0.0879  0.6596 -1.6782
 9892SOL     OW30574   3.482   5.721   2.310 -0.2688  0.4017  0.1310
 9892SOL    HW130575   3.557   5.780   2.280 -0.8113  1.0851  0.0896
 9892SOL    HW230576   3.410   5.777   2.351 -0.8386 -0.2263 -0.0001
 9893SOL     OW30577   3.680   4.602   5.886  0.2137  0.6300 -0.0202
 9893SOL    HW130578   3.754   4.668   5.893  0.3089  0.4750  0.4487
 9893SOL    HW230579   3.697   4.541   5.809  0.0261  1.2681 -0.5791
 9894SOL     OW30580   0.047   4.970   5.176  0.4768  0.0673  0.5368
 9894SOL    HW130581  -0.038   4.934   5.138  0.2507  0.3030  0.8176
 9894SOL    HW230582   0.047   4.962   5.275  0.3050  1.0655  0.6345
 9895SOL     OW30583   0.892   0.474   2.973  0.2141 -0.3197 -0.2505
 9895SOL    HW130584   0.856   0.495   3.064  0.0585 -0.9175 -0.1696
 9895SOL    HW230585   0.819   0.481   2.905 -0.2071 -2.0267 -0.0175
 9896SOL     OW30586   3.600   2.308   6.275 -0.1628  0.4678  0.1372
 9896SOL    HW130587   3.666   2.382   6.263  1.9876 -0.7724  3.0610
 9896SOL    HW230588   3.533   2.310   6.201 -0.3226  5.3296  0.0744
 9897SOL     OW30589   2.453   5.360   2.427  0.1714 -0.0922 -0.2924
 9897SOL    HW130590   2.546   5.326   2.426  0.3304  0.3464 -0.7432
 9897SOL    HW230591   2.448   5.446   2.376 -0.7497 -0.8332 -1.5092
 9898SOL     OW30592   2.665   0.746   0.435  0.2411  0.1252 -0.2757
 9898SOL    HW130593   2.701   0.663   0.392  1.7754  1.0214 -0.8162
 9898SOL    HW230594   2.726   0.774   0.509 -1.7831 -0.7791  1.8389
 9899SOL     OW30595   5.672   5.292   3.718 -0.2575  0.3152  0.0168
 9899SOL    HW130596   5.739   5.224   3.686 -0.3251  0.1665  0.1884
 9899SOL    HW230597   5.719   5.365   3.768  0.0094  1.2402 -1.5248
 9900SOL     OW30598   3.226   1.284   3.994  0.4253 -0.2897  0.2941
 9900SOL    HW130599   3.321   1.260   4.016  0.8548  2.8865  2.7225
 9900SOL    HW230600   3.174   1.294   4.080 -1.1358  1.4636 -0.7862
 9901SOL     OW30601   5.432   0.047   5.298 -0.1443  0.2410  0.1400
 9901SOL    HW130602   5.367  -0.026   5.276  0.0813  0.1662 -0.2953
 9901SOL    HW230603   5.424   0.072   5.394 -1.2142  0.6118 -0.0323
 9902SOL     OW30604   1.126   0.067   6.413 -0.3584  0.3979 -0.3830
 9902SOL    HW130605   1.090   0.038   6.502 -1.9883  0.3158 -1.0324
 9902SOL    HW230606   1.203   0.008   6.388  0.1492  0.4418  0.9707
 9903SOL     OW30607   0.608   1.630   3.243 -0.3731  0.2504 -0.5543
 9903SOL    HW130608   0.547   1.664   3.315 -0.6180  1.9517 -1.5131
 9903SOL    HW230609   0.594   1.684   3.160  2.0091  0.2560 -0.9975
 9904SOL     OW30610   6.702   4.609   3.103 -0.1494 -0.4204  0.4546
 9904SOL    HW130611   6.663   4.639   3.015 -2.6411 -1.9481  0.9233
 9904SOL    HW230612   6.747   4.521   3.090 -1.1193 -0.9825  0.7881
 9905SOL     OW30613   3.496   1.580   2.522  0.5701 -0.2291  0.4340
 9905SOL    HW130614   3.510   1.625   2.611 -1.3688  0.3855  0.4773
 9905SOL    HW230615   3.429   1.507   2.532  0.0294  0.1143 -0.6034
 9906SOL     OW30616   6.846   1.602   2.086  0.4391 -0.1210  0.2253
 9906SOL    HW130617   6.907   1.606   2.007 -0.2532 -0.3212 -0.3391
 9906SOL    HW230618   6.886   1.652   2.162  0.8388  0.6285 -0.4610
 9907SOL     OW30619   4.727   2.124   5.243 -0.0591 -0.5639 -0.2934
 9907SOL    HW130620   4.704   2.110   5.339  1.3567  1.4234  0.3967
 9907SOL    HW230621   4.824   2.101   5.228  1.0457  3.2884 -0.1273
 9908SOL     OW30622   1.601   3.992   5.240 -0.1694 -0.1089  0.1149
 9908SOL    HW130623   1.549   4.061   5.189 -0.1837  0.8739  1.4227
 9908SOL    HW230624   1.670   3.951   5.180  0.2182  1.4459 -0.5415
 9909SOL     OW30625   0.742   6.977   2.169  0.4085 -0.8205  0.0670
 9909SOL    HW130626   0.668   6.947   2.108 -1.4829  0.2107  1.7253
 9909SOL    HW230627   0.752   7.077   2.163  1.7529 -0.9434 -0.1674
 9910SOL     OW30628   2.158   0.177   1.197  0.5390  0.2149  0.0262
 9910SOL    HW130629   2.098   0.098   1.184 -0.0775  0.8036 -0.7812
 9910SOL    HW230630   2.253   0.146   1.201  0.2118 -0.7359  1.3368
 9911SOL     OW30631   2.934   1.815   2.714  0.1627 -0.1313 -0.2825
 9911SOL    HW130632   2.965   1.861   2.631  0.3624  1.2155  0.5038
 9911SOL    HW230633   3.012   1.774   2.761  0.3403  0.6916  0.1645
 9912SOL     OW30634   2.647   3.873   1.597 -0.1144  0.0602 -0.2661
 9912SOL    HW130635   2.648   3.969   1.626 -1.1390  0.6477 -2.0342
 9912SOL    HW230636   2.569   3.827   1.640  0.5226 -0.0837  0.7847
 9913SOL     OW30637   6.052   4.316   1.440  0.0584 -0.4194  0.3444
 9913SOL    HW130638   6.059   4.249   1.514 -0.0057  0.3716  1.0932
 9913SOL    HW230639   6.072   4.272   1.353  1.4403 -1.1065  0.9688
 9914SOL     OW30640   2.968   5.276   3.659  0.1594 -0.1949 -0.5897
 9914SOL    HW130641   2.896   5.233   3.604 -0.2854 -2.4536  1.5752
 9914SOL    HW230642   3.042   5.210   3.674  0.6338  0.6228  0.8489
 9915SOL     OW30643   3.408   5.578   5.895 -0.1145 -0.9943 -0.0356
 9915SOL    HW130644   3.408   5.660   5.839 -2.1453 -1.1493 -0.3459
 9915SOL    HW230645   3.393   5.603   5.991  1.5635 -0.8685  0.2254
 9916SOL     OW30646   6.351   1.405   2.452  0.3347 -0.2637 -0.2690
 9916SOL    HW130647   6.253   1.425   2.445 -0.1068 -1.6976  1.0524
 9916SOL    HW230648   6.363   1.319   2.502  2.3374  0.8076  1.2199
 9917SOL     OW30649   6.652   1.681   3.475  0.3042 -0.0246 -0.0574
 9917SOL    HW130650   6.732   1.699   3.418  0.4320 -0.2368  0.0533
 9917SOL    HW230651   6.595   1.612   3.430  0.7711 -0.7297  0.4057
 9918SOL     OW30652   4.841   1.368   1.083 -0.5952  0.2022  0.2775
 9918SOL    HW130653   4.893   1.426   1.021 -1.1225  0.5806  0.1747
 9918SOL    HW230654   4.793   1.298   1.031  0.1713 -0.4388  0.4182
 9919SOL     OW30655   6.231   5.862   0.671  0.1854  0.2892  0.7075
 9919SOL    HW130656   6.288   5.813   0.605  1.8329 -1.1614  3.0429
 9919SOL    HW230657   6.145   5.814   0.683  0.1387  0.2140  0.1005
 9920SOL     OW30658   6.942   2.925   2.217  0.1288  0.0742 -0.1602
 9920SOL    HW130659   6.931   2.857   2.145  0.3322 -0.7741  0.5919
 9920SOL    HW230660   7.037   2.927   2.247  0.1990  0.9467 -0.4073
 9921SOL     OW30661   2.075   5.269   6.824 -0.3825 -0.0353 -0.3721
 9921SOL    HW130662   2.024   5.313   6.898  0.1129  0.4135 -0.2901
 9921SOL    HW230663   2.025   5.189   6.791 -1.2389  0.5252 -0.4380
 9922SOL     OW30664   5.112   4.650   6.773 -0.0775  0.4406 -0.4414
 9922SOL    HW130665   5.125   4.749   6.772  0.1699  0.4206  0.3267
 9922SOL    HW230666   5.151   4.610   6.690 -2.3726  1.2281 -2.0312
 9923SOL     OW30667   4.702   1.015   1.177  0.0062  0.2958  0.1609
 9923SOL    HW130668   4.647   0.936   1.149 -1.9437  2.0687 -1.3650
 9923SOL    HW230669   4.661   1.055   1.260  0.9134 -0.1791  0.8553
 9924SOL     OW30670   2.919   1.226   0.790  0.2052  0.2741  0.1546
 9924SOL    HW130671   2.948   1.189   0.701 -1.6677 -1.2727  0.1365
 9924SOL    HW230672   2.956   1.168   0.863 -1.8830 -1.1643  0.1625
 9925SOL     OW30673   2.796   0.784   6.981  0.4041 -0.1421  0.5766
 9925SOL    HW130674   2.740   0.780   7.063  0.4630 -0.2270  0.6132
 9925SOL    HW230675   2.763   0.857   6.921 -0.9931 -1.4445 -0.3183
 9926SOL     OW30676   4.262   2.632   0.340 -0.3313  0.0983  0.3457
 9926SOL    HW130677   4.175   2.653   0.296 -1.4079  0.5578  2.5446
 9926SOL    HW230678   4.315   2.716   0.350 -0.4804  0.1520  0.6989
 9927SOL     OW30679   4.037   1.825   2.091 -0.0805  0.0138 -0.0119
 9927SOL    HW130680   4.093   1.874   2.157 -3.8216  0.8674  2.8730
 9927SOL    HW230681   3.979   1.890   2.041 -0.3173 -0.9815 -1.0848
 9928SOL     OW30682   5.071   3.305   5.236 -0.1569  0.8518 -0.1950
 9928SOL    HW130683   5.069   3.276   5.140  3.7696 -0.5589  0.0115
 9928SOL    HW230684   5.095   3.402   5.240  1.6308  0.4621 -0.6682
 9929SOL     OW30685   3.489   0.138   5.564  0.5823 -0.1460  0.4293
 9929SOL    HW130686   3.567   0.174   5.616  0.0578  2.1295 -0.2909
 9929SOL    HW230687   3.523   0.078   5.491  1.4567 -1.3817  1.7796
 9930SOL     OW30688   2.121   5.639   0.760  0.4474 -0.1268  0.1353
 9930SOL    HW130689   2.182   5.669   0.834 -0.2853 -0.2548  0.8002
 9930SOL    HW230690   2.028   5.669   0.779  0.3323  0.3133 -1.0228
 9931SOL     OW30691   0.577   5.694   2.861 -0.6615 -0.1076 -0.3598
 9931SOL    HW130692   0.509   5.621   2.851  0.3766 -1.1269 -0.0908
 9931SOL    HW230693   0.647   5.666   2.927 -0.0298  0.9643 -0.5603
 9932SOL     OW30694   0.209   0.339   6.179 -0.1986 -0.3513  0.5559
 9932SOL    HW130695   0.116   0.369   6.200 -1.5999 -2.7983 -1.5939
 9932SOL    HW230696   0.255   0.310   6.263 -1.0163  1.6120  1.7573
 9933SOL     OW30697   2.115   2.089   0.553 -0.1234  0.2475 -0.2114
 9933SOL    HW130698   2.131   2.092   0.455  0.0874 -0.7315 -0.2170
 9933SOL    HW230699   2.086   2.179   0.585  0.7464  0.8257 -1.0040
 9934SOL     OW30700   4.788   1.579   1.413 -0.1607 -0.6832  0.2300
 9934SOL    HW130701   4.771   1.545   1.506 -2.7218 -1.5416 -0.4703
 9934SOL    HW230702   4.703   1.616   1.376  0.2159 -2.3833 -2.5717
 9935SOL     OW30703   5.331   3.346   6.990  0.5974 -0.1488  0.3778
 9935SOL    HW130704   5.282   3.319   6.907  3.0385  0.0300 -1.2159
 9935SOL    HW230705   5.293   3.432   7.024 -0.7640 -0.4666 -0.2437
 9936SOL     OW30706   4.743   5.870   5.109 -0.5273  0.5695  0.6898
 9936SOL    HW130707   4.765   5.861   5.206 -0.7863  1.0113  0.7911
 9936SOL    HW230708   4.691   5.791   5.079  0.5173 -0.1126  0.6388
 9937SOL     OW30709   6.298   1.696   3.319 -0.7945  0.0003 -0.0060
 9937SOL    HW130710   6.221   1.739   3.366 -0.8415  1.8562 -1.6463
 9937SOL    HW230711   6.357   1.767   3.280  2.0440 -1.3470  1.5827
 9938SOL     OW30712   6.187   2.412   5.268 -0.6347 -0.2318  0.2884
 9938SOL    HW130713   6.203   2.416   5.367  2.2713 -0.0969 -0.0858
 9938SOL    HW230714   6.235   2.488   5.224  1.0283 -2.1559 -1.4590
 9939SOL     OW30715   3.651   2.155   1.154  0.9146  0.3190 -0.5133
 9939SOL    HW130716   3.571   2.109   1.116  1.0737  0.7951 -1.4431
 9939SOL    HW230717   3.696   2.095   1.220 -0.4838  0.2373  0.3903
 9940SOL     OW30718   0.819   2.063   6.328  0.2693  0.5425  0.2346
 9940SOL    HW130719   0.842   2.061   6.425 -0.3054  1.0253  0.3922
 9940SOL    HW230720   0.833   1.973   6.288  0.0071  0.2010  0.8953
 9941SOL     OW30721   6.174   6.719   6.172 -0.1499  0.0931 -0.1332
 9941SOL    HW130722   6.104   6.764   6.117  0.4333  1.9955  0.6136
 9941SOL    HW230723   6.134   6.690   6.259 -0.0994  0.8673  0.1528
 9942SOL     OW30724   5.790   4.231   2.711 -0.0724 -0.4355 -0.6293
 9942SOL    HW130725   5.720   4.222   2.782  0.5829  0.7805  0.2100
 9942SOL    HW230726   5.880   4.216   2.752  0.3921  1.2577 -0.9611
 9943SOL     OW30727   5.580   6.794   4.901 -0.1316  0.4087  0.0508
 9943SOL    HW130728   5.577   6.840   4.990  1.5710  1.9756 -0.6476
 9943SOL    HW230729   5.642   6.716   4.905  0.7205  1.0663  0.0184
 9944SOL     OW30730   1.709   5.034   4.923  0.0108 -0.1993  0.2036
 9944SOL    HW130731   1.735   4.952   4.974  2.7375  0.9566  0.8523
 9944SOL    HW230732   1.663   5.098   4.984 -0.2707 -0.3911  0.1983
 9945SOL     OW30733   3.448   2.624   6.610  0.2235 -0.0323  0.5203
 9945SOL    HW130734   3.464   2.697   6.677 -1.3649 -0.5719  1.5496
 9945SOL    HW230735   3.429   2.665   6.521  1.3460  0.7284  0.6057
 9946SOL     OW30736   4.915   0.619   0.289 -0.3081 -0.5443 -0.3268
 9946SOL    HW130737   4.943   0.704   0.334 -0.7299  1.1534 -3.0663
 9946SOL    HW230738   4.818   0.623   0.267  0.0239 -0.9736 -1.9930
 9947SOL     OW30739   0.041   4.955   1.146 -0.4277  0.6362 -0.5183
 9947SOL    HW130740   0.033   4.857   1.129  0.7468  0.7992 -2.2953
 9947SOL    HW230741  -0.049   4.998   1.139 -0.9991 -0.3125  0.5481
 9948SOL     OW30742   6.662   6.932   5.219  0.5207  0.0603 -0.3314
 9948SOL    HW130743   6.610   6.888   5.146  1.6987 -1.8399 -0.0921
 9948SOL    HW230744   6.757   6.943   5.190  0.8555 -0.1222  0.6685
 9949SOL     OW30745   3.158   3.380   5.312  0.1242  0.1208  0.2002
 9949SOL    HW130746   3.229   3.445   5.284  0.4243  0.4763  1.6895
 9949SOL    HW230747   3.191   3.286   5.298  1.8344  0.2144  2.8216
 9950SOL     OW30748   5.329   3.921   2.835 -0.7712 -0.3308 -0.1012
 9950SOL    HW130749   5.238   3.962   2.849 -0.4362  0.3197  0.2068
 9950SOL    HW230750   5.320   3.841   2.776 -1.6979 -0.9343  0.8265
 9951SOL     OW30751   1.367   5.073   3.617  0.5127  0.4382  0.2024
 9951SOL    HW130752   1.363   4.980   3.581  0.4130 -0.2767  1.9654
 9951SOL    HW230753   1.462   5.097   3.638  0.5696  0.8526 -0.4745
 9952SOL     OW30754   3.092   5.982   5.231 -0.0322 -0.3015 -0.4258
 9952SOL    HW130755   3.085   5.929   5.147  1.2600 -0.9933 -0.1246
 9952SOL    HW230756   3.026   5.949   5.298 -0.8941  0.0882 -1.0691
 9953SOL     OW30757   6.839   0.541   2.937 -0.1963  0.4024 -0.1701
 9953SOL    HW130758   6.799   0.603   3.004 -0.4652 -0.8398  0.8429
 9953SOL    HW230759   6.777   0.465   2.920  1.4225 -1.2766  1.0271
 9954SOL     OW30760   6.246   5.880   6.392 -0.9180  0.4568 -0.5926
 9954SOL    HW130761   6.289   5.799   6.352 -0.1877  1.8876 -2.8997
 9954SOL    HW230762   6.146   5.870   6.388 -1.0371 -2.0878  3.1405
 9955SOL     OW30763   5.066   4.497   5.164 -0.0864  0.5402 -0.1887
 9955SOL    HW130764   5.004   4.437   5.113  0.1578  0.0340  0.1078
 9955SOL    HW230765   5.141   4.444   5.201 -0.1750  0.9363  0.5687
 9956SOL     OW30766   1.481   4.735   4.163  0.0711 -0.1610 -0.3753
 9956SOL    HW130767   1.393   4.729   4.210 -0.1074  0.8080 -0.5477
 9956SOL    HW230768   1.466   4.766   4.069  0.6038  0.1578 -0.3610
 9957SOL     OW30769   1.292   0.412   4.328 -0.3493  0.4334  0.1231
 9957SOL    HW130770   1.290   0.328   4.382  0.7923 -0.5583 -1.2978
 9957SOL    HW230771   1.346   0.397   4.245  1.9403  3.2422  0.9307
 9958SOL     OW30772   1.691   5.033   6.660  0.4197 -0.1788  0.0582
 9958SOL    HW130773   1.634   4.952   6.647  1.2195 -0.7131 -0.1868
 9958SOL    HW230774   1.646   5.112   6.619  0.1216 -0.7095 -0.6579
 9959SOL     OW30775   1.870   5.508   5.103 -0.1476 -0.0488  0.0204
 9959SOL    HW130776   1.899   5.419   5.067 -1.7072 -0.5681 -0.0609
 9959SOL    HW230777   1.775   5.525   5.076  0.1376  1.6834 -0.0110
 9960SOL     OW30778   2.100   2.977   1.712  0.5405  0.1194 -0.1560
 9960SOL    HW130779   2.125   2.924   1.793 -2.2871  0.5652  1.1255
 9960SOL    HW230780   2.145   3.066   1.716  0.9930 -0.1304  0.5594
 9961SOL     OW30781   5.191   0.856   4.748  0.5178 -0.2355  0.2384
 9961SOL    HW130782   5.229   0.945   4.771 -0.0709 -0.1256  0.7933
 9961SOL    HW230783   5.156   0.811   4.830  0.9235 -1.0380 -0.0117
 9962SOL     OW30784   6.662   2.199   6.850  0.0226  0.2046 -0.4073
 9962SOL    HW130785   6.759   2.205   6.872 -0.6347 -0.9077  3.6184
 9962SOL    HW230786   6.644   2.114   6.800  0.7455 -1.5950  2.2086
 9963SOL     OW30787   6.578   4.594   0.276  0.3848 -0.3412  0.2920
 9963SOL    HW130788   6.590   4.521   0.343 -0.2787  0.3042  1.1345
 9963SOL    HW230789   6.632   4.574   0.194 -0.5971 -2.2846  0.0740
 9964SOL     OW30790   3.371   5.775   5.194 -0.1207 -0.8753  0.0833
 9964SOL    HW130791   3.331   5.844   5.254 -0.3612 -1.1253  0.2090
 9964SOL    HW230792   3.298   5.723   5.149  0.0210  0.1267 -1.3932
 9965SOL     OW30793   4.505   2.329   6.642 -0.3041  0.1744 -0.1543
 9965SOL    HW130794   4.433   2.291   6.586 -1.6742  2.3110  0.0417
 9965SOL    HW230795   4.467   2.359   6.730  0.7842  1.3412 -0.0448
 9966SOL     OW30796   1.302   3.287   3.311  0.1003 -0.5562 -0.5455
 9966SOL    HW130797   1.246   3.246   3.239  0.4562 -0.3700 -0.9267
 9966SOL    HW230798   1.246   3.352   3.363 -0.0483 -0.4051 -0.8946
 9967SOL     OW30799   6.893   5.286   1.758 -0.6062 -0.2432  0.0208
 9967SOL    HW130800   6.825   5.270   1.830  1.5160 -2.7838  1.6786
 9967SOL    HW230801   6.967   5.219   1.768  0.6858  0.4725 -3.5136
 9968SOL     OW30802   5.527   4.002   2.077 -0.2585  0.2643  0.1481
 9968SOL    HW130803   5.511   4.063   2.154  0.4920  1.5433 -0.6468
 9968SOL    HW230804   5.484   3.914   2.093  1.1126 -0.0313  2.6768
 9969SOL     OW30805   1.094   0.466   4.677 -0.2208  0.3019  0.5353
 9969SOL    HW130806   1.154   0.408   4.732 -1.6643 -1.3359  0.4350
 9969SOL    HW230807   1.073   0.550   4.728 -0.4857 -0.5901  1.9433
 9970SOL     OW30808   0.228   0.859   0.794 -0.6164 -0.6127 -0.1645
 9970SOL    HW130809   0.313   0.854   0.741 -0.3272 -3.1180  0.4085
 9970SOL    HW230810   0.249   0.851   0.891 -1.4745 -1.4003 -0.0261
 9971SOL     OW30811   0.430   4.881   5.581 -0.0462  0.0389 -0.2833
 9971SOL    HW130812   0.516   4.930   5.573 -0.0571  0.4963  1.7846
 9971SOL    HW230813   0.404   4.875   5.678 -1.6107 -1.3459 -0.7457
 9972SOL     OW30814   6.964   5.006   6.722  0.0158 -0.1704 -0.1919
 9972SOL    HW130815   6.962   5.097   6.681 -0.2945  0.5371  1.3190
 9972SOL    HW230816   7.059   4.982   6.745 -0.1430  1.2586  2.4251
 9973SOL     OW30817   5.526   2.780   5.980  0.6615  0.3679  0.0073
 9973SOL    HW130818   5.507   2.855   5.915  0.1356  0.2150 -0.0179
 9973SOL    HW230819   5.479   2.698   5.950  2.2307 -0.3294 -0.6475
 9974SOL     OW30820   5.645   0.732   5.409 -0.1542 -0.3560 -0.0650
 9974SOL    HW130821   5.677   0.656   5.352 -3.0750 -1.3641 -0.5313
 9974SOL    HW230822   5.613   0.698   5.497 -1.2870  0.3230 -0.1844
 9975SOL     OW30823   5.941   2.467   4.447 -0.6410 -0.4482  0.0025
 9975SOL    HW130824   5.943   2.520   4.363 -0.4859 -0.0304  0.2636
 9975SOL    HW230825   5.848   2.466   4.485 -0.2701  1.3816  1.0704
 9976SOL     OW30826   5.982   6.484   2.441 -0.0775  0.5021  0.3634
 9976SOL    HW130827   5.929   6.399   2.449 -1.2536  1.3890  3.0706
 9976SOL    HW230828   5.920   6.562   2.441  1.0884  1.4540 -0.0044
 9977SOL     OW30829   5.481   3.850   4.982  0.6862  0.0901  0.5210
 9977SOL    HW130830   5.522   3.867   4.893  1.2988  1.2638  1.0000
 9977SOL    HW230831   5.553   3.828   5.048  0.4667  1.1309  1.1374
 9978SOL     OW30832   3.032   0.314   4.076  0.6651 -0.3078 -0.3563
 9978SOL    HW130833   3.068   0.373   4.003  0.9248 -1.6647 -1.3752
 9978SOL    HW230834   2.986   0.370   4.145 -0.7934  0.9473 -2.2415
 9979SOL     OW30835   1.525   1.710   2.170  0.0540  0.8509  0.6478
 9979SOL    HW130836   1.490   1.782   2.231 -3.2251 -0.1773  0.1994
 9979SOL    HW230837   1.482   1.623   2.194 -0.1232  0.1063 -2.0939
 9980SOL     OW30838   1.233   6.842   5.684 -0.4146 -0.1314  0.3532
 9980SOL    HW130839   1.284   6.758   5.706  2.0311  1.3045  0.5676
 9980SOL    HW230840   1.217   6.894   5.768 -0.2845  0.4526  0.0240
 9981SOL     OW30841   3.185   0.548   0.175  0.3468  0.1093 -0.4740
 9981SOL    HW130842   3.096   0.590   0.192  0.5471  0.4948 -0.3641
 9981SOL    HW230843   3.174   0.449   0.166 -0.2615  0.2616 -1.6555
 9982SOL     OW30844   6.648   2.137   4.608  0.1252  0.5829  0.6998
 9982SOL    HW130845   6.682   2.231   4.615  1.1667  0.4493 -1.5561
 9982SOL    HW230846   6.724   2.073   4.615 -0.4419 -0.0566  1.1769
 9983SOL     OW30847   0.160   0.077   1.581  0.0492 -0.1205 -0.3180
 9983SOL    HW130848   0.086   0.143   1.565 -0.4892 -0.5170  0.4468
 9983SOL    HW230849   0.224   0.080   1.505 -2.1262 -1.6099 -2.3549
 9984SOL     OW30850   2.811   2.078   4.424 -0.0580  0.0541 -0.1465
 9984SOL    HW130851   2.836   2.078   4.521  0.8599  0.0544 -0.3820
 9984SOL    HW230852   2.874   2.020   4.372 -0.7057 -0.1648 -0.7076
 9985SOL     OW30853   5.109   2.400   3.801  0.2078 -0.7785  0.3606
 9985SOL    HW130854   5.036   2.333   3.808  1.1387 -1.7643  0.7965
 9985SOL    HW230855   5.196   2.358   3.826  1.0373  0.1889 -0.7697
 9986SOL     OW30856   1.083   4.551   2.740 -0.0275 -1.0269  0.6198
 9986SOL    HW130857   0.993   4.546   2.785 -0.6458  1.8944 -0.0818
 9986SOL    HW230858   1.070   4.549   2.641  0.6209 -0.1776  0.5109
 9987SOL     OW30859   2.282   4.422   5.331 -0.1691 -0.2711 -0.6601
 9987SOL    HW130860   2.354   4.371   5.285 -0.3796 -2.2296  1.0473
 9987SOL    HW230861   2.195   4.373   5.323 -0.1816 -0.8034  1.8624
 9988SOL     OW30862   5.595   5.521   4.724  0.0975 -0.1566 -0.0097
 9988SOL    HW130863   5.675   5.489   4.673 -0.3365 -1.6311  0.2109
 9988SOL    HW230864   5.546   5.443   4.763 -0.6041  0.8181  1.1441
 9989SOL     OW30865   6.936   0.447   4.790  0.2745 -0.1340 -0.0140
 9989SOL    HW130866   6.991   0.425   4.710 -0.7920 -1.3226 -0.4585
 9989SOL    HW230867   6.903   0.362   4.831  0.6728  0.4532  1.6140
 9990SOL     OW30868   0.476   3.676   6.454 -0.3149  0.0847  0.0020
 9990SOL    HW130869   0.393   3.696   6.506 -0.1563 -0.4903  0.4795
 9990SOL    HW230870   0.551   3.657   6.516  0.3755  1.3173 -0.4126
 9991SOL     OW30871   5.398   4.347   1.426 -0.0504  0.1064 -0.5376
 9991SOL    HW130872   5.463   4.277   1.459  1.1387  2.3299  2.2586
 9991SOL    HW230873   5.332   4.367   1.498 -1.6212  0.4926 -2.0357
 9992SOL     OW30874   0.759   5.968   4.858  0.1981  1.0960 -0.3966
 9992SOL    HW130875   0.782   6.002   4.767 -1.4542  1.3115 -0.7652
 9992SOL    HW230876   0.728   5.873   4.852 -0.2336  1.2154 -0.1171
 9993SOL     OW30877   6.683   0.550   5.635 -0.2200  0.3829 -0.3374
 9993SOL    HW130878   6.624   0.531   5.714  1.5324  1.6726  1.3903
 9993SOL    HW230879   6.759   0.484   5.635  0.9585  1.6907  0.3760
 9994SOL     OW30880   3.884   4.465   0.544  0.3499  0.3186 -0.0899
 9994SOL    HW130881   3.790   4.433   0.553  0.1302  1.2235  1.1122
 9994SOL    HW230882   3.947   4.391   0.571 -0.1302  0.6327  2.1222
 9995SOL     OW30883   1.556   1.384   6.257  0.4632  0.1663 -0.2909
 9995SOL    HW130884   1.651   1.361   6.279  0.2138 -1.1619 -0.5159
 9995SOL    HW230885   1.495   1.313   6.292 -0.3456  0.3584 -1.2531
 9996SOL     OW30886   5.771   6.339   2.724 -0.1949  0.2851 -0.1950
 9996SOL    HW130887   5.803   6.259   2.775 -1.3935  0.7634  1.3827
 9996SOL    HW230888   5.676   6.324   2.695  0.2381  0.3096 -1.7500
 9997SOL     OW30889   2.767   1.355   4.005  0.7875 -0.4412  0.3752
 9997SOL    HW130890   2.845   1.401   4.047  1.3312  0.5826 -1.6142
 9997SOL    HW230891   2.795   1.265   3.970  1.3277  0.2261 -0.9913
 9998SOL     OW30892   6.278   5.473   1.724 -0.4130 -0.0921  0.6608
 9998SOL    HW130893   6.354   5.414   1.698  0.0824  1.7623 -2.5143
 9998SOL    HW230894   6.295   5.511   1.815  2.1190 -0.2489  0.3243
 9999SOL     OW30895   1.598   0.907   0.280 -0.4264 -0.2437  0.3141
 9999SOL    HW130896   1.660   0.852   0.335  1.1315  2.1703  1.1310
 9999SOL    HW230897   1.651   0.961   0.214 -1.9302 -0.2157 -0.9303
10000SOL     OW30898   5.332   0.500   6.904  0.2474 -0.3736  0.4690
10000SOL    HW130899   5.387   0.418   6.920 -0.1924 -0.4452  1.6761
10000SOL    HW230900   5.308   0.504   6.807  0.3305 -1.6444  0.3694
10001SOL     OW30901   1.723   1.480   1.811 -0.2371  0.3965 -0.7184
10001SOL    HW130902   1.708   1.571   1.850  0.2100 -0.3225  1.2466
10001SOL    HW230903   1.806   1.440   1.850 -0.6392 -1.0142 -1.2498
10002SOL     OW30904   2.392   1.052   4.925 -0.0854 -0.0623 -0.0806
10002SOL    HW130905   2.458   1.047   4.850  1.0608  2.9724  0.5791
10002SOL    HW230906   2.435   1.096   5.004 -2.9988  2.8041  0.1479
10003SOL     OW30907   3.023   1.604   0.251  0.0751  0.1801 -0.2573
10003SOL    HW130908   2.994   1.509   0.251 -1.2047  0.5279  1.3017
10003SOL    HW230909   3.068   1.625   0.164  0.3599 -1.8089 -0.6469
10004SOL     OW30910   5.698   5.159   4.493  0.4185 -0.5521  0.2399
10004SOL    HW130911   5.785   5.133   4.452  0.7182  0.7979 -0.0276
10004SOL    HW230912   5.640   5.078   4.504  0.7485 -1.1042 -1.8259
10005SOL     OW30913   3.503   2.393   1.327 -0.3714  0.4279  0.5113
10005SOL    HW130914   3.554   2.309   1.311 -0.2530  0.7524 -0.9313
10005SOL    HW230915   3.520   2.458   1.253  0.8335  2.3970  2.4011
10006SOL     OW30916   2.233   5.636   2.682  0.2970 -0.2545  0.2692
10006SOL    HW130917   2.209   5.679   2.770 -1.0315  1.4682 -0.8602
10006SOL    HW230918   2.206   5.540   2.683 -0.0675 -0.1552  1.6072
10007SOL     OW30919   3.030   0.638   3.336  0.2621  0.4128 -0.1595
10007SOL    HW130920   2.972   0.719   3.331  0.1821  0.4755  1.2546
10007SOL    HW230921   3.066   0.628   3.429 -0.4840 -1.6942 -0.0419
10008SOL     OW30922   2.432   6.501   4.359 -0.3759 -0.4474  0.6560
10008SOL    HW130923   2.488   6.433   4.405 -2.2348 -2.0554  0.6726
10008SOL    HW230924   2.399   6.568   4.426 -0.1179 -0.6443  0.9840
10009SOL     OW30925   6.091   6.265   3.770 -0.2027 -0.4973  0.4170
10009SOL    HW130926   6.040   6.231   3.849  1.8200 -1.4004  1.3849
10009SOL    HW230927   6.109   6.190   3.707 -0.0873 -0.1699  0.0534
10010SOL     OW30928   0.239   3.879   2.752  0.4442  0.4671  0.4333
10010SOL    HW130929   0.331   3.840   2.742 -0.2292 -0.9218 -0.8097
10010SOL    HW230930   0.213   3.923   2.666  0.3536  1.8302  1.1396
10011SOL     OW30931   2.857   0.398   1.279 -0.0089 -0.4436 -0.1328
10011SOL    HW130932   2.761   0.372   1.294 -0.6483  0.8071 -1.7637
10011SOL    HW230933   2.898   0.338   1.211 -0.5057  0.7154 -1.4931
10012SOL     OW30934   4.925   6.594   0.498  0.8063 -0.5004 -0.0478
10012SOL    HW130935   4.931   6.682   0.449  0.0464 -0.6093 -0.3535
10012SOL    HW230936   4.969   6.523   0.443  0.8962 -0.4210 -0.0789
10013SOL     OW30937   0.348   2.927   6.634 -0.0148 -0.2663  0.1168
10013SOL    HW130938   0.290   2.845   6.626 -1.1272  0.2908  1.9014
10013SOL    HW230939   0.426   2.918   6.573 -0.7736 -2.0920 -0.6706
10014SOL     OW30940   3.070   3.418   1.794 -0.0297  0.0196 -0.1588
10014SOL    HW130941   2.985   3.393   1.841 -0.6739 -1.3728 -1.9652
10014SOL    HW230942   3.127   3.473   1.856 -1.0536 -1.2506  2.0539
10015SOL     OW30943   1.150   1.063   6.507  0.3433  0.3216 -0.2061
10015SOL    HW130944   1.158   1.126   6.585  0.9423  0.7180 -0.5798
10015SOL    HW230945   1.143   0.969   6.541 -1.0486  0.6094  0.3700
10016SOL     OW30946   6.055   5.286   0.490  0.3213  0.0102  0.4101
10016SOL    HW130947   5.960   5.287   0.522  0.1966 -1.4293  0.1722
10016SOL    HW230948   6.089   5.379   0.482 -1.2954  0.5864 -0.1350
10017SOL     OW30949   5.732   5.849   1.955 -0.6665  0.0148  0.1672
10017SOL    HW130950   5.776   5.896   2.031 -1.3774  0.1545  0.5044
10017SOL    HW230951   5.639   5.884   1.944 -2.3585 -3.2301  2.3145
10018SOL     OW30952   3.781   5.690   6.649 -0.4803 -0.5707  0.3564
10018SOL    HW130953   3.865   5.636   6.658 -1.1523 -1.8695 -0.8345
10018SOL    HW230954   3.709   5.634   6.608 -1.6411  0.8284  0.3964
10019SOL     OW30955   1.194   0.740   1.838 -0.3663  0.1631  0.0473
10019SOL    HW130956   1.101   0.761   1.869 -1.1643 -1.8535 -0.8090
10019SOL    HW230957   1.190   0.700   1.746  1.5466  1.8142 -0.8233
10020SOL     OW30958   5.363   2.205   1.228  0.1738  0.4683  0.1500
10020SOL    HW130959   5.376   2.254   1.142 -1.1961 -0.7169 -0.7797
10020SOL    HW230960   5.276   2.155   1.225 -0.0598  0.6519  2.3532
10021SOL     OW30961   4.519   5.275   4.327  0.2257  0.1602  0.6633
10021SOL    HW130962   4.515   5.175   4.337 -2.3187  0.1847  0.5428
10021SOL    HW230963   4.481   5.318   4.409 -2.3307  0.8591 -0.7827
10022SOL     OW30964   2.881   0.829   1.091 -0.0253 -0.0373 -0.0981
10022SOL    HW130965   2.803   0.815   1.152 -2.4864 -1.5249 -3.3236
10022SOL    HW230966   2.956   0.768   1.119 -0.5684  0.1755  2.0326
10023SOL     OW30967   4.914   5.494   4.394 -0.1073 -0.2539 -0.5195
10023SOL    HW130968   5.000   5.509   4.346 -0.7438 -0.3146 -1.7311
10023SOL    HW230969   4.894   5.396   4.397 -0.0752 -0.2500 -0.1236
10024SOL     OW30970   0.452   4.438   0.525  0.7089 -0.6019 -0.3753
10024SOL    HW130971   0.529   4.379   0.550  1.7790  1.0503  0.3966
10024SOL    HW230972   0.455   4.522   0.580 -1.8425 -0.6211 -0.0863
10025SOL     OW30973   6.865   0.628   2.239 -0.3624 -0.5718 -0.3949
10025SOL    HW130974   6.954   0.665   2.215 -0.7509  0.2908 -0.5552
10025SOL    HW230975   6.795   0.667   2.178 -1.1399  0.4455  1.0771
10026SOL     OW30976   2.172   3.960   3.861  0.0348 -0.4378 -0.2722
10026SOL    HW130977   2.227   4.041   3.884 -2.5225  1.3729 -0.0766
10026SOL    HW230978   2.170   3.897   3.938  1.8487 -0.5919 -0.3197
10027SOL     OW30979   3.630   0.351   2.070  0.4856 -0.0650 -0.1241
10027SOL    HW130980   3.673   0.440   2.085 -0.5738  0.1202  2.3996
10027SOL    HW230981   3.658   0.288   2.143 -0.7647 -0.9913 -0.4193
10028SOL     OW30982   6.157   2.610   4.638 -0.0399 -0.1888  0.4544
10028SOL    HW130983   6.234   2.548   4.653 -0.4278 -0.9277 -0.5080
10028SOL    HW230984   6.183   2.702   4.667  1.0450 -0.5154  0.5792
10029SOL     OW30985   3.956   0.315   3.512 -0.1542 -0.1267 -0.3006
10029SOL    HW130986   3.948   0.216   3.511 -0.6874 -0.1231  0.9975
10029SOL    HW230987   3.961   0.347   3.607  1.5494  0.9879 -0.7165
10030SOL     OW30988   6.650   6.199   2.994  0.0504  0.2018 -0.6465
10030SOL    HW130989   6.574   6.183   3.056 -1.1851  0.3272 -2.0730
10030SOL    HW230990   6.667   6.297   2.987  1.4661  0.1149  0.9181
10031SOL     OW30991   1.262   5.268   2.463  0.2494 -0.1466  0.0414
10031SOL    HW130992   1.333   5.200   2.450 -0.4569 -1.1362  1.1447
10031SOL    HW230993   1.301   5.360   2.452  1.4107 -0.7001 -0.5638
10032SOL     OW30994   5.369   4.563   0.654 -0.4667 -0.2803  0.1603
10032SOL    HW130995   5.454   4.533   0.698 -0.3612 -0.8277 -0.3979
10032SOL    HW230996   5.291   4.533   0.708 -0.3532 -1.3454 -0.2499
10033SOL     OW30997   1.849   3.575   4.069  0.2007 -0.3473  0.6286
10033SOL    HW130998   1.815   3.667   4.047  1.1441  0.2277  1.4456
10033SOL    HW230999   1.844   3.517   3.988 -1.0198  0.2310  0.2700
10034SOL     OW31000   1.589   5.864   5.688 -0.2211  0.1650 -0.3175
10034SOL    HW131001   1.596   5.960   5.713 -0.0538 -0.1489  0.8864
10034SOL    HW231002   1.492   5.839   5.679 -0.2640  0.4498 -0.6562
10035SOL     OW31003   0.941   3.035   5.572  0.0947  0.1622  0.3233
10035SOL    HW131004   1.004   2.958   5.583 -0.4665 -0.1682  1.4510
10035SOL    HW231005   0.921   3.074   5.662 -1.0675  0.4515 -0.0472
10036SOL     OW31006   1.723   4.656   2.673 -0.3008 -0.6329  0.1218
10036SOL    HW131007   1.677   4.646   2.585  0.1384  3.5894 -0.8375
10036SOL    HW231008   1.822   4.656   2.660 -0.2221  2.1888  0.1046
10037SOL     OW31009   3.648   4.856   0.353  0.1781 -0.3698  0.8630
10037SOL    HW131010   3.713   4.885   0.423 -1.6505  0.8303  2.1394
10037SOL    HW231011   3.567   4.816   0.397 -0.7948 -0.0580 -0.5713
10038SOL     OW31012   2.637   6.976   5.588  0.2085 -0.1211  0.8226
10038SOL    HW131013   2.613   7.033   5.667  0.0975  1.1114 -0.0692
10038SOL    HW231014   2.589   6.888   5.594 -0.4261  0.2774  1.7136
10039SOL     OW31015   6.599   2.903   1.569  0.1090  0.4949  0.3816
10039SOL    HW131016   6.614   2.837   1.642  0.3511  0.4375  0.2820
10039SOL    HW231017   6.564   2.989   1.607  2.0002  1.1323  0.8104
10040SOL     OW31018   1.422   5.343   4.932  0.3915 -0.5089  0.3849
10040SOL    HW131019   1.474   5.357   4.849 -0.3712  1.1322  0.1420
10040SOL    HW231020   1.468   5.275   4.990  0.8481 -1.7782 -1.4092
10041SOL     OW31021   0.047   1.944   3.989 -0.3312 -0.5794 -0.8582
10041SOL    HW131022   0.028   2.012   4.061  1.1233 -2.4712  1.4602
10041SOL    HW231023   0.145   1.940   3.973 -0.2585 -2.7887 -0.1726
10042SOL     OW31024   1.003   6.650   6.174  0.1662  0.0758 -0.0887
10042SOL    HW131025   0.996   6.621   6.270  1.3730  1.7630  0.5520
10042SOL    HW231026   0.912   6.645   6.132 -0.7207  0.8116  1.6199
10043SOL     OW31027   1.206   2.024   5.793 -0.1107  0.5830 -0.1811
10043SOL    HW131028   1.195   1.989   5.700 -2.1380  0.4761  0.0559
10043SOL    HW231029   1.260   1.959   5.847  0.2929  0.1988 -1.0303
10044SOL     OW31030   4.349   2.689   6.766  0.2774 -0.0603 -0.0199
10044SOL    HW131031   4.335   2.677   6.668 -0.7966  1.2024 -0.0430
10044SOL    HW231032   4.331   2.602   6.813  0.4787 -0.5866 -0.8972
10045SOL     OW31033   6.181   2.527   3.372  0.4127  0.4363 -0.1294
10045SOL    HW131034   6.252   2.597   3.380  1.4089 -0.2323 -2.3051
10045SOL    HW231035   6.197   2.456   3.441  0.7058  1.2565  0.6555
10046SOL     OW31036   2.001   5.317   5.718  0.3162  0.2326 -0.0483
10046SOL    HW131037   2.022   5.354   5.809 -0.1027 -0.7869  0.4725
10046SOL    HW231038   2.044   5.375   5.649  1.4550  0.4875  0.8270
10047SOL     OW31039   2.675   0.243   0.468  0.3321  0.3804  0.7560
10047SOL    HW131040   2.594   0.253   0.526 -0.3167 -2.0533  0.3715
10047SOL    HW231041   2.660   0.169   0.402  2.1333  1.2020 -0.6778
10048SOL     OW31042   3.478   0.544   3.193 -0.4350 -0.3712  0.3926
10048SOL    HW131043   3.390   0.554   3.239 -1.4641 -0.9068 -1.3558
10048SOL    HW231044   3.550   0.579   3.252 -1.9514  1.3818  1.3396
10049SOL     OW31045   0.922   6.248   6.893 -0.3113 -0.0101  0.1909
10049SOL    HW131046   0.866   6.326   6.866 -0.0279  0.4516  0.8949
10049SOL    HW231047   0.882   6.204   6.973 -0.0013 -0.0432  0.3312
10050SOL     OW31048   4.982   6.397   6.214  0.4906  0.3351  0.2543
10050SOL    HW131049   5.074   6.412   6.179  1.1877 -1.4065  1.2623
10050SOL    HW231050   4.983   6.397   6.314 -0.6802  0.6569  0.2828
10051SOL     OW31051   6.733   1.727   4.248 -0.3538  1.5080 -0.3134
10051SOL    HW131052   6.655   1.737   4.311 -1.4875  0.5640 -1.5096
10051SOL    HW231053   6.709   1.763   4.158 -0.9850 -2.3730 -1.8797
10052SOL     OW31054   3.521   4.068   5.640  0.7140 -0.2974  0.0137
10052SOL    HW131055   3.457   4.108   5.706  1.2920 -2.5945  2.1233
10052SOL    HW231056   3.498   4.099   5.548 -1.7631  1.0236  0.9954
10053SOL     OW31057   2.324   1.661   0.676 -0.0617 -0.5236 -1.1061
10053SOL    HW131058   2.227   1.649   0.700 -0.4105  0.6833 -1.7921
10053SOL    HW231059   2.381   1.635   0.753 -1.0242  0.5786  0.0271
10054SOL     OW31060   5.848   5.094   2.431  0.3026  0.3240 -0.3278
10054SOL    HW131061   5.918   5.165   2.442  0.1741  0.2449  1.1196
10054SOL    HW231062   5.817   5.064   2.520 -2.2768  1.0089 -0.9090
10055SOL     OW31063   0.272   1.554   5.302  0.0732  0.1754  0.1009
10055SOL    HW131064   0.257   1.641   5.255  1.4926  0.4488  0.1113
10055SOL    HW231065   0.312   1.571   5.392  0.4688 -0.4819  0.0569
10056SOL     OW31066   6.790   1.647   1.052 -0.2516  0.5335 -0.5502
10056SOL    HW131067   6.705   1.624   1.006  0.2822 -1.9094 -0.4336
10056SOL    HW231068   6.787   1.614   1.146  0.3018  1.7355 -0.0803
10057SOL     OW31069   1.914   4.886   4.510 -0.4277  0.3259 -0.4267
10057SOL    HW131070   1.963   4.816   4.562 -0.1795 -1.5312 -2.9456
10057SOL    HW231071   1.818   4.862   4.502 -0.4106  0.4362 -1.0355
10058SOL     OW31072   3.022   0.132   5.962 -0.0208 -0.4705 -0.1574
10058SOL    HW131073   2.995   0.169   6.051  2.1583 -0.9106  0.7422
10058SOL    HW231074   3.024   0.205   5.895 -1.4800 -0.0929  0.1658
10059SOL     OW31075   4.476   6.721   6.818  0.3762 -0.3911  0.3352
10059SOL    HW131076   4.481   6.820   6.832 -1.9740 -0.4830  2.7387
10059SOL    HW231077   4.442   6.702   6.726  0.2016  1.0728  0.0692
10060SOL     OW31078   1.135   5.915   6.982 -0.0721  0.2561 -0.1830
10060SOL    HW131079   1.090   5.923   7.071  0.6419 -1.2471  0.3453
10060SOL    HW231080   1.234   5.902   6.997  0.2728  1.4866 -1.2527
10061SOL     OW31081   2.278   5.042   0.084  0.1379  0.3021  0.3243
10061SOL    HW131082   2.262   5.138   0.108  0.4047  0.2635  0.6635
10061SOL    HW231083   2.196   5.004   0.040 -0.2236  0.4782  0.8407
10062SOL     OW31084   3.235   5.705   3.015 -0.3707 -0.3838 -0.2187
10062SOL    HW131085   3.177   5.683   3.094  0.4546  1.4129  0.9804
10062SOL    HW231086   3.313   5.642   3.012 -1.4592 -1.7254 -0.8161
10063SOL     OW31087   1.979   6.618   3.561 -0.0238 -0.1463  0.5023
10063SOL    HW131088   2.055   6.682   3.577 -0.8723  0.8598  0.6196
10063SOL    HW231089   1.979   6.548   3.632 -0.2705  0.8901  1.5457
10064SOL     OW31090   6.988   5.643   5.799 -0.4401  0.1431  0.3949
10064SOL    HW131091   6.952   5.582   5.728 -0.9374 -0.4632  1.1448
10064SOL    HW231092   7.043   5.589   5.864  0.0159  0.6876  0.4683
10065SOL     OW31093   3.593   1.641   2.262 -0.1514 -0.0127 -0.0917
10065SOL    HW131094   3.548   1.636   2.351 -0.5053 -2.7177 -0.3382
10065SOL    HW231095   3.524   1.658   2.191 -0.0956  0.5393 -0.0167
10066SOL     OW31096   1.884   0.083   0.899 -0.4686 -0.2396 -0.0566
10066SOL    HW131097   1.800   0.137   0.902 -1.7467 -2.1059 -0.1666
10066SOL    HW231098   1.864  -0.010   0.930  1.3624 -0.9951 -1.0294
10067SOL     OW31099   0.650   5.009   6.709  0.7579 -0.4107  0.2783
10067SOL    HW131100   0.594   5.090   6.693  0.5325 -0.4076  1.0777
10067SOL    HW231101   0.695   4.983   6.623  1.9946  1.4176  0.3272
10068SOL     OW31102   5.405   4.364   4.760 -0.0942 -0.2060  0.1287
10068SOL    HW131103   5.326   4.326   4.807  0.1073 -0.7124  0.0635
10068SOL    HW231104   5.476   4.387   4.827  0.5222 -1.6948  0.0411
10069SOL     OW31105   2.104   1.145   4.917 -0.1952 -0.0158  0.3784
10069SOL    HW131106   2.063   1.065   4.874  3.1483 -0.3150 -2.7974
10069SOL    HW231107   2.198   1.124   4.944  0.2647  2.3847  0.9000
10070SOL     OW31108   6.141   3.990   6.199  0.1489 -0.4745 -0.0206
10070SOL    HW131109   6.098   3.916   6.251 -1.6693  1.2933  1.1354
10070SOL    HW231110   6.203   3.951   6.131  1.6279 -2.9397  2.5427
10071SOL     OW31111   1.115   2.189   1.194  0.1100  0.1486  0.4825
10071SOL    HW131112   1.131   2.287   1.186 -0.4489  0.0906 -2.0224
10071SOL    HW231113   1.030   2.173   1.244 -1.1510  1.0850 -1.2794
10072SOL     OW31114   5.716   2.253   4.735 -0.0736  0.6298 -0.4971
10072SOL    HW131115   5.801   2.241   4.785 -0.5509 -0.8251  0.0113
10072SOL    HW231116   5.666   2.166   4.732 -1.4842  1.4160 -0.8734
10073SOL     OW31117   5.343   4.525   5.513  0.5640 -0.2485 -0.0205
10073SOL    HW131118   5.258   4.492   5.554  0.0013  0.9193 -0.1912
10073SOL    HW231119   5.397   4.571   5.583  0.8924 -0.6921  0.0147
10074SOL     OW31120   2.273   0.138   4.861  0.1162 -0.4644  0.3523
10074SOL    HW131121   2.212   0.061   4.842  0.6969 -0.7610 -0.3528
10074SOL    HW231122   2.341   0.110   4.929  0.9386 -0.9108 -0.6242
10075SOL     OW31123   2.692   5.608   0.143  0.4463 -0.2201  0.4420
10075SOL    HW131124   2.714   5.559   0.227  2.2373 -0.6822 -0.2540
10075SOL    HW231125   2.667   5.542   0.072  0.9095  0.0177  0.0555
10076SOL     OW31126   5.493   5.965   2.468 -0.0990 -0.1193 -0.6009
10076SOL    HW131127   5.456   6.025   2.396  3.0008  3.1857  0.2923
10076SOL    HW231128   5.539   5.887   2.426 -0.8867  0.1623 -2.0421
10077SOL     OW31129   2.079   3.414   6.248 -0.1255 -0.2350  0.6195
10077SOL    HW131130   2.122   3.468   6.175 -0.4492 -1.2735 -0.3729
10077SOL    HW231131   2.026   3.474   6.308  2.8133  1.1591  2.0444
10078SOL     OW31132   4.193   3.778   0.051  0.3069  0.3960 -0.1914
10078SOL    HW131133   4.155   3.713  -0.016  2.8518 -1.3626 -0.0716
10078SOL    HW231134   4.267   3.829   0.008 -1.1758  2.8202 -0.0479
10079SOL     OW31135   6.963   4.576   2.248  0.1471 -0.3496 -0.4664
10079SOL    HW131136   6.921   4.531   2.169  0.2516 -0.4657 -0.4571
10079SOL    HW231137   7.051   4.616   2.221  0.2912 -0.5864 -0.3584
10080SOL     OW31138   2.226   0.112   2.578  0.5628 -0.3849  0.3428
10080SOL    HW131139   2.204   0.163   2.495 -0.0281  0.6225  1.0784
10080SOL    HW231140   2.289   0.038   2.557 -0.4091 -0.8307 -1.1758
10081SOL     OW31141   0.315   6.353   6.514  0.4380  0.6614 -0.3023
10081SOL    HW131142   0.398   6.297   6.516 -0.6944 -1.1346  1.9019
10081SOL    HW231143   0.235   6.293   6.504 -0.7545  2.0146  0.6717
10082SOL     OW31144   2.115   2.653   3.794 -0.5974  0.1303  0.1366
10082SOL    HW131145   2.091   2.695   3.881  0.6196  1.9611 -0.3330
10082SOL    HW231146   2.212   2.672   3.774 -0.9430  0.0989 -1.7750
10083SOL     OW31147   5.382   3.244   6.621 -0.0775  0.3225 -0.0668
10083SOL    HW131148   5.292   3.247   6.665 -0.3622 -2.1764 -0.3314
10083SOL    HW231149   5.440   3.179   6.669  1.6605  1.9266  0.1174
10084SOL     OW31150   6.438   4.584   2.139  0.1556 -0.6997  0.4387
10084SOL    HW131151   6.475   4.615   2.052 -0.0470 -2.4162 -0.2946
10084SOL    HW231152   6.512   4.576   2.206  0.4630 -0.3478  0.1463
10085SOL     OW31153   5.831   0.187   1.135  0.3184  0.3376  0.1035
10085SOL    HW131154   5.907   0.243   1.167  1.6589 -0.5693 -1.3309
10085SOL    HW231155   5.767   0.171   1.210  1.7010  0.8658  1.4447
10086SOL     OW31156   1.395   2.455   1.399 -0.0124  0.3665  0.4931
10086SOL    HW131157   1.374   2.374   1.344  0.6983  0.6408 -0.2109
10086SOL    HW231158   1.345   2.451   1.485 -0.4814 -0.5036  0.1944
10087SOL     OW31159   1.476   3.021   4.024  0.1665  0.2591  0.4585
10087SOL    HW131160   1.466   2.922   4.021  3.2680 -0.1540  0.3825
10087SOL    HW231161   1.448   3.060   3.936 -1.3032 -0.4604  0.5653
10088SOL     OW31162   0.106   1.078   1.704  0.5725  0.0560  0.7343
10088SOL    HW131163   0.139   1.015   1.774  0.1474 -1.4736 -0.3777
10088SOL    HW231164   0.161   1.067   1.621 -1.4985 -1.2644 -0.5642
10089SOL     OW31165   1.441   3.095   3.509 -0.4508  0.0719 -0.2585
10089SOL    HW131166   1.378   3.132   3.440  0.7420 -0.2374 -1.5428
10089SOL    HW231167   1.452   2.997   3.494 -0.8306 -0.1559  0.9115
10090SOL     OW31168   2.494   6.474   0.469  0.0194 -0.0549  0.3017
10090SOL    HW131169   2.534   6.508   0.554  1.4973  0.7419 -0.6630
10090SOL    HW231170   2.424   6.538   0.437 -0.0690 -0.0184  0.5670
10091SOL     OW31171   5.553   3.988   6.542 -0.4607  0.2359 -0.1373
10091SOL    HW131172   5.608   4.032   6.613  0.8201  0.1349 -1.0484
10091SOL    HW231173   5.458   3.981   6.574 -0.3851  2.1992  0.6615
10092SOL     OW31174   4.320   5.245   0.099 -0.2871  0.1870  0.8904
10092SOL    HW131175   4.411   5.209   0.078 -1.1940 -1.5947 -0.1785
10092SOL    HW231176   4.316   5.341   0.073  0.5532 -0.3407 -1.4540
10093SOL     OW31177   6.824   4.727   0.659  0.4511  0.0152 -0.0996
10093SOL    HW131178   6.875   4.712   0.744 -0.1062 -1.6766 -0.0332
10093SOL    HW231179   6.735   4.681   0.665 -0.6916  2.0363 -0.6240
10094SOL     OW31180   6.780   2.775   5.579  0.1406  0.4229  0.3051
10094SOL    HW131181   6.719   2.854   5.591  1.1264  1.1749  0.4570
10094SOL    HW231182   6.785   2.723   5.664  1.8053  1.8971  1.1633
10095SOL     OW31183   5.591   4.464   0.791  0.0481 -0.6385 -0.1913
10095SOL    HW131184   5.552   4.432   0.878 -0.0071 -0.2473 -0.0681
10095SOL    HW231185   5.691   4.463   0.797  0.0760 -2.1300 -0.6872
10096SOL     OW31186   2.023   2.316   0.653  0.3241  0.3990 -0.2575
10096SOL    HW131187   2.035   2.363   0.741 -4.0549 -1.7544  1.7897
10096SOL    HW231188   1.972   2.375   0.591 -3.1779 -0.5079  1.5087
10097SOL     OW31189   4.176   4.994   0.645  0.5906 -0.1239  0.2537
10097SOL    HW131190   4.169   5.081   0.693  1.4703 -1.1801  2.4195
10097SOL    HW231191   4.189   4.920   0.711 -0.3169 -1.9529 -1.4965
10098SOL     OW31192   3.292   0.698   7.004 -0.1215 -0.2421  0.4109
10098SOL    HW131193   3.253   0.657   7.087  0.4845 -1.0339  0.3164
10098SOL    HW231194   3.219   0.739   6.950 -0.5688 -0.0186  1.1701
10099SOL     OW31195   6.157   0.582   5.690 -0.4781 -0.2549 -0.0990
10099SOL    HW131196   6.153   0.666   5.745  2.0557  0.4896 -0.9160
10099SOL    HW231197   6.095   0.591   5.612  0.0639  1.0715 -0.4026
10100SOL     OW31198   5.978   2.952   5.840  0.3099 -0.5325 -0.3485
10100SOL    HW131199   5.888   2.908   5.833 -0.2848  0.4345  0.8613
10100SOL    HW231200   5.970   3.049   5.817  1.0974 -0.4806 -0.4494
10101SOL     OW31201   5.949   1.312   1.368  0.2216 -0.6996 -0.2639
10101SOL    HW131202   5.861   1.267   1.351  0.0272 -1.1143  1.5948
10101SOL    HW231203   5.957   1.332   1.466  0.9610  1.9642 -0.8080
10102SOL     OW31204   2.686   0.092   2.821 -0.3639 -0.3733 -0.1790
10102SOL    HW131205   2.602   0.121   2.775  0.5374 -0.7142 -2.1476
10102SOL    HW231206   2.714   0.003   2.785  1.1072 -0.0371  0.0853
10103SOL     OW31207   0.094   2.199   6.317 -0.5516 -0.1569  0.4473
10103SOL    HW131208   0.082   2.202   6.218  0.9855 -1.1709  0.1872
10103SOL    HW231209   0.100   2.293   6.353 -0.7681  0.2173 -0.4678
10104SOL     OW31210   0.789   2.707   3.324  0.4292 -0.8517  0.4677
10104SOL    HW131211   0.883   2.717   3.292  0.3936 -2.9252 -0.4384
10104SOL    HW231212   0.754   2.617   3.298 -1.0508 -1.0197  2.7788
10105SOL     OW31213   2.272   5.522   1.578 -0.1072 -0.1490 -0.0250
10105SOL    HW131214   2.237   5.511   1.670  0.1968 -0.2812  0.0769
10105SOL    HW231215   2.368   5.552   1.582  0.1782 -1.0028 -0.2891
10106SOL     OW31216   6.954   3.198   5.392  0.0093  0.1036 -0.3095
10106SOL    HW131217   7.012   3.206   5.473 -0.6368 -1.1708  0.3010
10106SOL    HW231218   6.859   3.211   5.418 -0.1957 -0.2169 -0.8832
10107SOL     OW31219   4.166   1.839   3.643  0.1003  0.1598  0.6171
10107SOL    HW131220   4.097   1.767   3.644 -1.5679  1.6820  0.0675
10107SOL    HW231221   4.198   1.854   3.550  0.4107  0.1640  0.7226
10108SOL     OW31222   5.788   3.324   2.110  0.2303 -0.1024  0.8821
10108SOL    HW131223   5.834   3.270   2.181  1.3604  0.3286  0.5056
10108SOL    HW231224   5.713   3.376   2.151  0.6576 -0.1195  1.7024
10109SOL     OW31225   4.413   1.764   0.126  0.3617  0.0840  0.6215
10109SOL    HW131226   4.392   1.765   0.028  2.2838 -1.1695  0.1592
10109SOL    HW231227   4.494   1.820   0.144  1.2813 -1.3616  1.1472
10110SOL     OW31228   3.463   6.648   0.387  0.0085  0.0183 -0.1564
10110SOL    HW131229   3.491   6.639   0.482  0.3254  1.2447 -0.1214
10110SOL    HW231230   3.371   6.610   0.375 -0.3796  0.6326  0.8140
10111SOL     OW31231   3.220   1.299   0.538  0.0233 -0.0873 -0.2578
10111SOL    HW131232   3.243   1.349   0.455  1.0033 -1.3330 -0.7854
10111SOL    HW231233   3.147   1.234   0.519  4.2509 -5.0257 -2.1689
10112SOL     OW31234   2.775   1.394   0.453 -0.1900 -0.2869  0.1360
10112SOL    HW131235   2.760   1.473   0.512 -1.5860  0.6778 -1.4001
10112SOL    HW231236   2.721   1.317   0.486 -0.9738  0.2443  0.1267
10113SOL     OW31237   3.276   3.735   6.999 -0.3398 -0.2310 -0.5607
10113SOL    HW131238   3.211   3.685   7.055  0.5007 -0.7340 -0.0218
10113SOL    HW231239   3.281   3.694   6.908 -1.7226  0.6024 -1.0537
10114SOL     OW31240   0.797   6.487   4.469  0.1210  0.6832 -0.5363
10114SOL    HW131241   0.730   6.489   4.395 -1.2068 -0.5328  0.5548
10114SOL    HW231242   0.773   6.557   4.537  1.7806  2.3344 -1.5395
10115SOL     OW31243   4.512   6.946   4.264  0.6849 -0.5013  0.7082
10115SOL    HW131244   4.416   6.920   4.268  0.5339 -0.2842 -0.9453
10115SOL    HW231245   4.557   6.897   4.189  1.1116  1.6333 -0.5095
10116SOL     OW31246   6.992   3.527   4.619  0.0456 -0.3100  0.2057
10116SOL    HW131247   6.964   3.597   4.684 -0.3596 -0.9668  0.7570
10116SOL    HW231248   7.015   3.569   4.531 -0.1403  0.5062  0.5453
10117SOL     OW31249   4.155   0.930   2.689  0.0415 -0.7770  0.3986
10117SOL    HW131250   4.188   0.838   2.671  0.0154 -0.3634 -2.2209
10117SOL    HW231251   4.172   0.988   2.609 -0.0425  1.4803  1.9102
10118SOL     OW31252   4.545   0.811   1.553  0.0888  0.2752 -0.2460
10118SOL    HW131253   4.482   0.864   1.496  0.1415  1.3746  0.6868
10118SOL    HW231254   4.639   0.842   1.536  0.2990 -0.7237 -0.9563
10119SOL     OW31255   6.138   6.360   6.636  0.1904  0.5014  0.1941
10119SOL    HW131256   6.082   6.284   6.668 -1.2082  1.2508 -0.3976
10119SOL    HW231257   6.218   6.324   6.588 -1.4878 -0.6686 -1.9057
10120SOL     OW31258   3.373   3.583   4.800 -0.2306 -0.2955  0.5460
10120SOL    HW131259   3.457   3.533   4.824 -0.1473 -0.4208 -0.0025
10120SOL    HW231260   3.294   3.534   4.835 -0.2212 -1.3309 -0.7864
10121SOL     OW31261   4.713   1.032   5.864 -0.1119 -0.5176  0.2120
10121SOL    HW131262   4.614   1.039   5.881 -0.1720 -3.4201  1.7036
10121SOL    HW231263   4.761   1.101   5.918 -1.2518  0.6087 -0.1487
10122SOL     OW31264   0.515   3.668   5.607 -0.2476 -0.5164  0.2278
10122SOL    HW131265   0.580   3.713   5.667 -0.2578 -1.2348  0.7913
10122SOL    HW231266   0.564   3.618   5.536 -0.2402  1.7141 -1.4688
10123SOL     OW31267   6.383   1.245   1.329  0.2424  0.1855 -0.4166
10123SOL    HW131268   6.443   1.171   1.298 -0.1914 -0.6877  0.7580
10123SOL    HW231269   6.299   1.244   1.274 -0.2023 -0.8741  0.2357
10124SOL     OW31270   1.800   1.131   5.664 -0.2152 -0.3185  0.1079
10124SOL    HW131271   1.741   1.211   5.673  1.7746  1.2225  0.1154
10124SOL    HW231272   1.767   1.073   5.590 -1.2732  0.8977 -0.4106
10125SOL     OW31273   3.908   0.182   1.568  0.3351 -0.1031 -0.1539
10125SOL    HW131274   3.868   0.122   1.498 -0.5926 -1.2567  1.3016
10125SOL    HW231275   3.950   0.126   1.639 -0.6716  0.9557  1.3070
10126SOL     OW31276   3.946   1.179   6.604  0.0296 -0.2111  0.2737
10126SOL    HW131277   3.948   1.275   6.576  0.6600 -0.0220  0.9484
10126SOL    HW231278   3.977   1.171   6.698 -0.9365 -0.9765  0.5508
10127SOL     OW31279   5.048   2.315   6.913 -0.1109 -0.9565 -0.1997
10127SOL    HW131280   5.111   2.393   6.914 -2.3691  1.0163  1.4817
10127SOL    HW231281   4.998   2.314   6.826  0.0477 -0.6459 -0.2968
10128SOL     OW31282   5.286   2.441   6.797 -0.0246 -0.3512 -0.1055
10128SOL    HW131283   5.356   2.508   6.774 -0.6815  0.2931 -0.2694
10128SOL    HW231284   5.201   2.462   6.748  0.5529 -2.9820 -2.5116
10129SOL     OW31285   4.118   4.800   5.546  0.4783 -0.2258  0.3827
10129SOL    HW131286   4.215   4.806   5.523  0.5442 -1.8681  0.1029
10129SOL    HW231287   4.063   4.830   5.469  0.7618 -1.2048 -0.2244
10130SOL     OW31288   2.195   1.763   1.464  0.4773  0.5856  0.0149
10130SOL    HW131289   2.126   1.810   1.518  0.7777 -0.3596  1.2837
10130SOL    HW231290   2.152   1.716   1.387 -0.2669  0.2051  0.6518
10131SOL     OW31291   6.751   5.388   5.269  0.0253  0.3360 -0.8161
10131SOL    HW131292   6.722   5.480   5.296  2.9425  0.9212  0.7586
10131SOL    HW231293   6.845   5.392   5.235  0.9260 -2.2856  1.1234
10132SOL     OW31294   2.407   1.657   6.780 -0.3358  0.7730  0.1601
10132SOL    HW131295   2.453   1.572   6.805 -0.7580  0.0229 -1.4301
10132SOL    HW231296   2.475   1.724   6.750 -0.1115  0.4208 -0.1276
10133SOL     OW31297   2.149   5.132   1.719  0.3089  0.5887 -0.5342
10133SOL    HW131298   2.238   5.165   1.686  0.1415  0.9841 -0.5952
10133SOL    HW231299   2.164   5.071   1.798  0.7169 -0.4795 -1.4052
10134SOL     OW31300   1.369   4.977   0.370 -0.2640 -0.2564 -0.0252
10134SOL    HW131301   1.293   4.969   0.434 -0.0034  0.9744  0.4654
10134SOL    HW231302   1.342   5.033   0.292 -0.6241 -1.8593 -1.1079
10135SOL     OW31303   6.507   0.264   0.200 -0.4475 -0.1699 -0.2290
10135SOL    HW131304   6.475   0.308   0.116 -3.2082 -1.7750 -0.1255
10135SOL    HW231305   6.561   0.183   0.177  0.7371  0.6522 -0.4138
10136SOL     OW31306   3.938   1.480   3.364  0.0826 -0.0385 -0.7289
10136SOL    HW131307   4.002   1.404   3.380  2.8238  1.7897 -2.1337
10136SOL    HW231308   3.890   1.466   3.278  0.4161 -0.3123 -0.8733
10137SOL     OW31309   2.906   1.955   3.600 -0.5931  0.0716 -0.5914
10137SOL    HW131310   2.961   2.038   3.612 -0.9411  0.2823 -0.4488
10137SOL    HW231311   2.927   1.913   3.512  0.6784 -0.5084 -0.0346
10138SOL     OW31312   2.752   2.376   5.209  0.0192 -0.0231 -0.4660
10138SOL    HW131313   2.836   2.334   5.174  1.0288  0.7003  0.9964
10138SOL    HW231314   2.722   2.326   5.290 -0.0181  0.7292 -0.0089
10139SOL     OW31315   6.222   1.264   0.856  0.2323 -0.2680  0.0927
10139SOL    HW131316   6.189   1.182   0.809 -1.9746  0.4613  0.2551
10139SOL    HW231317   6.144   1.313   0.896  1.6585  1.1184  1.2970
10140SOL     OW31318   4.212   6.423   6.145 -0.4558  0.0210 -0.8251
10140SOL    HW131319   4.275   6.497   6.121  1.0474 -0.9755 -0.1096
10140SOL    HW231320   4.133   6.461   6.194  0.2865  1.1636 -0.4710
10141SOL     OW31321   1.677   4.107   6.904  0.6300 -0.7695 -0.2305
10141SOL    HW131322   1.713   4.176   6.841 -1.8408 -0.0454 -0.9818
10141SOL    HW231323   1.684   4.017   6.862 -0.1736 -0.3980 -1.2226
10142SOL     OW31324   4.383   4.891   3.603 -0.0594 -0.4174  0.2182
10142SOL    HW131325   4.442   4.844   3.668  1.4301 -3.5017 -3.0534
10142SOL    HW231326   4.296   4.844   3.597  0.4438 -1.2125 -1.1632
10143SOL     OW31327   1.041   5.592   6.811  0.1016  0.2213 -0.3091
10143SOL    HW131328   1.124   5.648   6.815 -0.3832  0.9597 -0.3439
10143SOL    HW231329   0.997   5.590   6.900 -0.3267  0.5884 -0.5086
10144SOL     OW31330   5.420   2.922   2.914 -0.4876  0.0878 -0.0377
10144SOL    HW131331   5.356   2.910   2.990 -0.5114 -1.0558 -0.2276
10144SOL    HW231332   5.482   2.998   2.936 -0.9761  0.2674  0.7868
10145SOL     OW31333   2.924   6.921   6.268  0.1348  0.3530  0.8025
10145SOL    HW131334   2.900   7.018   6.268 -1.6989 -0.0297  2.9142
10145SOL    HW231335   2.864   6.872   6.205  0.9530  0.5203 -0.1390
10146SOL     OW31336   3.844   6.730   4.177  0.9555 -0.0729 -0.0219
10146SOL    HW131337   3.786   6.786   4.117 -0.2623  1.1192  2.1398
10146SOL    HW231338   3.826   6.633   4.159  0.0187  0.2557 -1.0019
10147SOL     OW31339   6.218   3.029   0.099  0.1961 -0.3542  0.3622
10147SOL    HW131340   6.276   3.004   0.021 -0.3762  2.4236 -1.1166
10147SOL    HW231341   6.249   3.117   0.137 -1.1529 -0.3536  1.5446
10148SOL     OW31342   4.744   0.603   4.842  0.1721  0.1712 -0.2774
10148SOL    HW131343   4.756   0.670   4.915 -1.8659 -0.8323  1.0888
10148SOL    HW231344   4.833   0.568   4.813  1.0235 -0.1978  2.5311
10149SOL     OW31345   3.667   2.121   1.475 -0.1149  0.2157 -0.2304
10149SOL    HW131346   3.575   2.085   1.495  0.3055 -0.6884  0.1618
10149SOL    HW231347   3.713   2.060   1.411  0.5973  0.0821  0.3997
10150SOL     OW31348   2.312   5.976   5.558  0.4403  0.2521 -0.0018
10150SOL    HW131349   2.379   6.007   5.626 -1.2630  1.8684  1.0295
10150SOL    HW231350   2.360   5.950   5.474  2.5597 -1.1338  1.5107
10151SOL     OW31351   0.441   6.561   1.066  0.5904  0.2098  0.1989
10151SOL    HW131352   0.347   6.568   1.100  1.1303 -1.6319  2.2852
10151SOL    HW231353   0.446   6.489   0.997  0.0050  2.2111 -2.0726
10152SOL     OW31354   0.912   4.338   6.797 -0.2675 -0.0822  0.5609
10152SOL    HW131355   0.907   4.435   6.771 -1.4255 -0.7961 -2.1820
10152SOL    HW231356   0.820   4.306   6.821  0.4947  0.0988  4.3318
10153SOL     OW31357   3.557   3.503   3.351 -0.0137 -0.2059  0.1034
10153SOL    HW131358   3.575   3.541   3.442  0.9416 -1.8785  0.6784
10153SOL    HW231359   3.586   3.568   3.281  0.2473  0.6785  1.0130
10154SOL     OW31360   2.731   5.601   2.437  0.0812  0.0025 -0.4482
10154SOL    HW131361   2.824   5.595   2.474 -0.8124 -1.8710  1.7359
10154SOL    HW231362   2.675   5.529   2.477 -2.3186  1.0059 -1.8108
10155SOL     OW31363   5.259   5.596   1.279  0.4528  0.1803 -0.7753
10155SOL    HW131364   5.287   5.654   1.356 -0.6292  0.3347 -0.4747
10155SOL    HW231365   5.311   5.621   1.197  0.7464  0.8549 -0.3922
10156SOL     OW31366   1.155   4.992   0.526 -0.0421  0.3708 -0.0794
10156SOL    HW131367   1.123   4.954   0.613 -0.9522 -1.9538 -1.3306
10156SOL    HW231368   1.170   5.090   0.536 -1.4626  0.4286  2.3088
10157SOL     OW31369   3.870   0.277   5.046  0.4923 -0.4902 -0.6820
10157SOL    HW131370   3.861   0.186   5.085  2.2713 -0.8920 -1.0954
10157SOL    HW231371   3.949   0.323   5.088 -1.2053  1.4523  0.5804
10158SOL     OW31372   4.065   6.236   3.493 -0.0844 -0.3717 -0.4803
10158SOL    HW131373   4.032   6.261   3.402 -0.5656  0.5908 -0.0530
10158SOL    HW231374   4.162   6.260   3.501  0.6465 -2.6757 -1.5397
10159SOL     OW31375   6.211   5.859   4.829  0.3729  0.3835  0.4133
10159SOL    HW131376   6.200   5.820   4.738  3.5394  0.2721 -0.0290
10159SOL    HW231377   6.217   5.784   4.896  2.7218  0.1294  0.0274
10160SOL     OW31378   0.627   5.956   5.489 -0.6264  0.2099 -0.0440
10160SOL    HW131379   0.616   6.049   5.453  1.6148  0.8378  0.7444
10160SOL    HW231380   0.701   5.954   5.556  2.3765 -2.8846 -3.0340
10161SOL     OW31381   1.340   3.380   6.055  0.0067 -0.7559  0.0322
10161SOL    HW131382   1.422   3.374   5.998 -0.3476  0.8842 -0.7185
10161SOL    HW231383   1.296   3.468   6.039 -2.0545 -1.7129  0.2299
10162SOL     OW31384   2.400   4.607   1.665 -0.3553 -0.0245 -0.3338
10162SOL    HW131385   2.365   4.514   1.652 -1.0569  0.3182 -0.9570
10162SOL    HW231386   2.456   4.610   1.748 -0.5740 -0.9313 -0.1411
10163SOL     OW31387   5.806   2.098   0.160 -0.0537  0.2368 -0.0145
10163SOL    HW131388   5.728   2.136   0.110  0.0684  3.8330  2.1761
10163SOL    HW231389   5.883   2.087   0.098 -1.4586 -0.8607 -1.6745
10164SOL     OW31390   3.340   2.940   0.796 -0.1825 -0.1827  0.3699
10164SOL    HW131391   3.272   2.965   0.727 -1.2743  0.1782  1.5379
10164SOL    HW231392   3.431   2.966   0.764 -1.0261  3.6379  0.6408
10165SOL     OW31393   3.201   2.573   0.555 -0.2640  0.6128 -0.5196
10165SOL    HW131394   3.124   2.600   0.613  0.6118  1.9911  0.0544
10165SOL    HW231395   3.192   2.617   0.465  0.6859  2.1916  0.1108
10166SOL     OW31396   3.239   6.043   5.714 -0.4662 -0.3699 -0.6034
10166SOL    HW131397   3.252   6.084   5.804 -1.9724 -0.8456 -0.1255
10166SOL    HW231398   3.152   5.993   5.713  0.5293 -2.1909 -1.6562
10167SOL     OW31399   1.572   1.569   1.184 -0.3856 -0.5373  0.3179
10167SOL    HW131400   1.473   1.557   1.173 -0.3814 -0.4384  0.1574
10167SOL    HW231401   1.603   1.641   1.121  0.2543 -2.4883 -1.7341
10168SOL     OW31402   3.916   0.803   5.587  0.7075  0.4261 -0.2328
10168SOL    HW131403   3.816   0.804   5.589  0.6806  1.2090 -1.2999
10168SOL    HW231404   3.950   0.731   5.648 -0.5415 -0.9948 -1.1544
10169SOL     OW31405   6.394   1.934   4.582  0.0516  0.8105  0.6952
10169SOL    HW131406   6.390   1.986   4.667  0.8038  0.6499  0.8314
10169SOL    HW231407   6.318   1.869   4.579  0.3770  0.3787  1.5328
10170SOL     OW31408   0.376   2.357   1.358 -0.2374 -0.4317  0.1858
10170SOL    HW131409   0.350   2.453   1.362  0.0953 -0.1792 -2.2926
10170SOL    HW231410   0.433   2.341   1.277  0.5836 -2.5253  1.1020
10171SOL     OW31411   1.951   1.941   4.043  0.1750 -0.0223 -0.1439
10171SOL    HW131412   1.961   1.907   3.950  0.2388 -0.1835 -0.0779
10171SOL    HW231413   1.903   2.029   4.042  1.5852  0.7629 -0.4659
10172SOL     OW31414   4.162   1.828   6.108 -0.0076 -0.5914 -0.1203
10172SOL    HW131415   4.107   1.897   6.063  0.1603 -0.1228  0.3724
10172SOL    HW231416   4.258   1.840   6.083 -0.0939 -1.2580 -0.7936
10173SOL     OW31417   1.202   3.235   5.016 -0.0079 -0.1814  0.0453
10173SOL    HW131418   1.269   3.294   4.973 -1.4097  0.6075 -1.1678
10173SOL    HW231419   1.133   3.208   4.949 -1.1297 -0.6242  1.3190
10174SOL     OW31420   5.153   5.722   3.828 -0.0217  0.0968 -0.5584
10174SOL    HW131421   5.138   5.808   3.779  0.8358  0.2572 -0.5617
10174SOL    HW231422   5.142   5.737   3.926 -2.9299 -0.4804 -0.7053
10175SOL     OW31423   5.173   0.284   1.514  0.2838 -0.5624 -0.0427
10175SOL    HW131424   5.108   0.208   1.518  1.2182 -1.4556 -1.0140
10175SOL    HW231425   5.250   0.259   1.454  0.8440  0.9820 -0.0153
10176SOL     OW31426   1.046   4.811   1.700  0.2975  0.6231  0.3732
10176SOL    HW131427   1.107   4.847   1.630  0.5691 -0.4513  0.0365
10176SOL    HW231428   1.099   4.757   1.766 -0.1297  0.5945  0.6964
10177SOL     OW31429   0.704   3.821   2.096  0.4316 -0.1644 -0.6630
10177SOL    HW131430   0.771   3.866   2.036  0.8094 -1.5393 -1.3062
10177SOL    HW231431   0.612   3.846   2.067  0.6183 -0.3495 -1.4468
10178SOL     OW31432   5.910   4.181   6.205  0.1067 -0.1230 -0.3440
10178SOL    HW131433   5.996   4.131   6.204  0.0312 -0.3702  1.6383
10178SOL    HW231434   5.837   4.123   6.169  0.4935 -0.4749 -0.5657
10179SOL     OW31435   1.936   4.164   2.092 -0.0842 -0.1111 -0.1222
10179SOL    HW131436   1.912   4.206   2.180 -0.0534 -0.0813 -0.1282
10179SOL    HW231437   1.870   4.193   2.023  1.5109  2.1536 -0.7781
10180SOL     OW31438   1.159   4.963   3.791  0.0817 -0.0591 -0.6779
10180SOL    HW131439   1.178   5.056   3.760 -0.5504  0.6369  0.9202
10180SOL    HW231440   1.093   4.920   3.729  0.5545  0.4558 -1.5560
10181SOL     OW31441   2.783   6.974   1.791 -0.1546 -0.0845 -0.0580
10181SOL    HW131442   2.880   6.953   1.797  0.0665  1.1904  1.2991
10181SOL    HW231443   2.734   6.925   1.863 -0.0413  1.6459  1.2557
10182SOL     OW31444   6.246   5.416   3.825  0.0884  0.5776 -0.0711
10182SOL    HW131445   6.335   5.461   3.817  0.8836 -0.6877  1.1765
10182SOL    HW231446   6.212   5.427   3.919 -0.4866 -0.0038 -0.2068
10183SOL     OW31447   6.251   4.484   6.334  0.7089 -0.6001 -0.3470
10183SOL    HW131448   6.218   4.435   6.415 -2.1691  1.5080 -0.0791
10183SOL    HW231449   6.216   4.439   6.252  2.1155 -1.6897 -0.3827
10184SOL     OW31450   1.250   5.978   1.158  0.2649  0.0584  0.3250
10184SOL    HW131451   1.319   5.988   1.229  1.4916  0.1048 -0.8458
10184SOL    HW231452   1.251   6.058   1.098 -1.0169  0.1926  0.4378
10185SOL     OW31453   1.807   4.323   2.311 -0.1891 -0.1755 -0.1552
10185SOL    HW131454   1.734   4.276   2.360 -0.2559 -0.0738 -0.1549
10185SOL    HW231455   1.886   4.335   2.371 -0.5641  0.6693  0.1989
10186SOL     OW31456   1.261   1.571   5.849  0.3818  0.0233  0.1925
10186SOL    HW131457   1.344   1.523   5.878  1.0660 -0.3175 -2.1048
10186SOL    HW231458   1.185   1.506   5.848  0.6703 -0.3199 -0.1530
10187SOL     OW31459   5.930   6.551   4.637 -0.5053 -0.3170  0.0188
10187SOL    HW131460   5.917   6.638   4.589 -2.7771  0.0600  1.1975
10187SOL    HW231461   5.982   6.567   4.721 -0.9491 -0.0852  0.2508
10188SOL     OW31462   6.348   0.043   5.009 -0.4397 -0.9582  0.0050
10188SOL    HW131463   6.369  -0.053   5.029 -1.1431 -0.7621  1.9203
10188SOL    HW231464   6.265   0.070   5.059 -0.2813  0.6272 -0.5362
10189SOL     OW31465   1.696   3.565   4.282 -0.3078  0.1382  0.3477
10189SOL    HW131466   1.616   3.618   4.254 -0.0959  1.4919  2.1307
10189SOL    HW231467   1.758   3.555   4.204 -0.3615  2.5383 -0.0949
10190SOL     OW31468   4.474   6.013   6.329  0.4732  0.2317  0.0490
10190SOL    HW131469   4.426   6.043   6.412 -0.0383 -1.1734  0.2906
10190SOL    HW231470   4.441   6.065   6.251  0.2971  0.9459  0.5898
10191SOL     OW31471   2.991   5.068   5.898 -0.2449 -0.0495 -0.4487
10191SOL    HW131472   2.907   5.120   5.888 -0.8018 -1.2807 -2.8708
10191SOL    HW231473   2.971   4.970   5.887  1.2843 -0.5085  0.5127
10192SOL     OW31474   0.450   1.495   2.247  0.4528 -0.1440  0.0244
10192SOL    HW131475   0.502   1.424   2.294  0.5162  0.2182  0.5166
10192SOL    HW231476   0.512   1.569   2.220  0.5482 -0.6888 -1.3240
10193SOL     OW31477   0.907   3.404   5.616 -0.0511 -0.1147 -0.1343
10193SOL    HW131478   0.950   3.315   5.600  0.8084  0.4228 -0.9135
10193SOL    HW231479   0.919   3.430   5.712 -1.0535 -1.2086  0.3070
10194SOL     OW31480   4.148   6.889   4.762  0.7295  0.4517  0.3346
10194SOL    HW131481   4.139   6.790   4.766  0.5445  0.4701  0.4031
10194SOL    HW231482   4.084   6.926   4.694 -0.3530  0.6656  1.4494
10195SOL     OW31483   6.229   6.741   1.346  0.7629 -0.2899 -1.1187
10195SOL    HW131484   6.169   6.748   1.427  0.4307 -1.7910 -1.1960
10195SOL    HW231485   6.316   6.786   1.365  0.4607 -0.0905 -0.1388
10196SOL     OW31486   5.513   3.386   1.053  0.5708  0.1695  0.3399
10196SOL    HW131487   5.528   3.290   1.076  1.1372  0.2820  0.4378
10196SOL    HW231488   5.496   3.438   1.137  2.4806  0.5512  0.5245
10197SOL     OW31489   3.501   6.282   4.589 -0.3817  0.0727 -0.7261
10197SOL    HW131490   3.586   6.276   4.537  0.8827  0.0884  1.2370
10197SOL    HW231491   3.429   6.233   4.540  0.2184  1.5954 -3.3481
10198SOL     OW31492   6.508   3.119   4.960 -0.4612  0.6463 -0.0525
10198SOL    HW131493   6.563   3.198   4.987 -2.1438  1.4995  1.0827
10198SOL    HW231494   6.546   3.036   5.000  0.7706  1.0012 -0.4456
10199SOL     OW31495   6.620   3.163   0.060 -0.2193 -0.5763  0.4943
10199SOL    HW131496   6.661   3.231   0.121  0.0509 -0.6627  0.4087
10199SOL    HW231497   6.692   3.107   0.019 -0.3584 -0.1830 -0.3022
10200SOL     OW31498   2.988   0.281   5.195  0.5882  0.1093  0.1581
10200SOL    HW131499   3.070   0.230   5.168  0.9855 -0.4936  2.3504
10200SOL    HW231500   2.907   0.227   5.172  0.9575 -0.9654  1.2885
10201SOL     OW31501   1.274   0.520   1.070 -0.0735 -0.0283  0.0800
10201SOL    HW131502   1.183   0.511   1.029  0.1683 -2.5968 -0.0785
10201SOL    HW231503   1.266   0.567   1.158 -1.5752 -0.2639  0.1018
10202SOL     OW31504   1.954   0.210   3.119  0.5505  0.1658 -0.3242
10202SOL    HW131505   1.874   0.166   3.160 -0.5294  1.1501 -1.3057
10202SOL    HW231506   1.930   0.248   3.030  2.1414  0.4452 -0.6811
10203SOL     OW31507   2.806   4.411   6.144  0.0836 -0.4047 -0.2407
10203SOL    HW131508   2.897   4.386   6.110  1.0417  2.0400  0.3735
10203SOL    HW231509   2.739   4.401   6.070  0.7813 -2.3027 -0.6785
10204SOL     OW31510   3.128   3.936   3.367  0.0333 -0.0774 -0.0887
10204SOL    HW131511   3.137   3.987   3.452 -0.8654  3.5290 -1.9881
10204SOL    HW231512   3.216   3.934   3.319 -0.3107  1.3078 -0.8168
10205SOL     OW31513   2.467   6.989   3.342  0.1231  0.1129  0.3735
10205SOL    HW131514   2.463   6.998   3.242 -0.5226  0.1611  0.4029
10205SOL    HW231515   2.418   7.065   3.384 -0.0657 -0.1987  0.7209
10206SOL     OW31516   6.413   1.120   4.479 -0.0610  0.3497 -0.3784
10206SOL    HW131517   6.342   1.190   4.489 -0.0265  0.1404  1.8675
10206SOL    HW231518   6.390   1.041   4.536  1.2330 -0.3470 -0.7872
10207SOL     OW31519   2.149   3.879   5.572  0.7528 -0.0199 -0.2415
10207SOL    HW131520   2.180   3.965   5.532  2.9867 -1.6451 -2.3843
10207SOL    HW231521   2.083   3.836   5.510 -0.3275  0.0717  0.7992
10208SOL     OW31522   3.363   5.897   1.197  0.3481  0.4828  0.3734
10208SOL    HW131523   3.265   5.877   1.205 -0.3268  3.0204 -0.5988
10208SOL    HW231524   3.415   5.832   1.253 -1.8491 -1.0231  0.8030
10209SOL     OW31525   4.923   2.459   2.265 -0.1692  0.0055 -0.2751
10209SOL    HW131526   4.857   2.386   2.251 -0.4913  0.5542 -1.7997
10209SOL    HW231527   4.902   2.535   2.203  0.6700  1.0326  0.6628
10210SOL     OW31528   0.650   6.807   3.953 -0.3524  0.5394 -0.2975
10210SOL    HW131529   0.742   6.841   3.972 -0.2826  0.2109 -0.0331
10210SOL    HW231530   0.593   6.882   3.919  0.2741  0.5416 -1.3697
10211SOL     OW31531   3.497   3.361   2.097  0.0960  0.3871  0.0508
10211SOL    HW131532   3.551   3.342   2.015  0.0046 -0.3139  0.1441
10211SOL    HW231533   3.421   3.295   2.102  0.1313  0.3938  0.7258
10212SOL     OW31534   3.405   6.059   2.573 -0.1005 -0.7730  0.0605
10212SOL    HW131535   3.498   6.089   2.593 -0.5232  0.7049 -0.0521
10212SOL    HW231536   3.392   5.966   2.607  0.8795 -0.3679  1.6542
10213SOL     OW31537   4.820   1.627   2.942  0.5059 -0.6237 -0.1967
10213SOL    HW131538   4.821   1.650   2.845 -0.5944 -0.3345 -0.1509
10213SOL    HW231539   4.799   1.530   2.953 -0.5041 -0.4113 -0.2169
10214SOL     OW31540   6.196   3.573   4.716 -0.4018  0.1631 -0.2394
10214SOL    HW131541   6.274   3.609   4.766 -0.4639  1.6888 -1.2081
10214SOL    HW231542   6.111   3.601   4.762 -0.4245 -0.6913  0.2713
10215SOL     OW31543   1.026   1.759   3.834 -0.0193  0.1455 -0.2523
10215SOL    HW131544   0.969   1.677   3.828  0.0818  0.0598 -0.0743
10215SOL    HW231545   1.100   1.742   3.900  1.1634 -0.3229 -1.6618
10216SOL     OW31546   5.966   1.979   0.600 -0.0337  0.6614 -0.0949
10216SOL    HW131547   6.039   1.921   0.564 -0.8149 -1.7620  1.9272
10216SOL    HW231548   5.901   2.000   0.527  0.7692 -0.2475 -1.0942
10217SOL     OW31549   2.196   1.576   0.448 -0.5449  0.4152 -0.0245
10217SOL    HW131550   2.202   1.626   0.535 -0.5572 -0.5248  0.5363
10217SOL    HW231551   2.287   1.553   0.416 -0.5181 -2.4750  1.7153
10218SOL     OW31552   6.559   1.922   0.760 -0.0873 -0.0703  0.6136
10218SOL    HW131553   6.610   1.931   0.846 -0.4547  1.1055  0.7169
10218SOL    HW231554   6.464   1.947   0.774 -0.5495 -1.5290  0.2377
10219SOL     OW31555   5.468   5.907   1.835  0.2670 -0.6647 -0.3999
10219SOL    HW131556   5.415   5.826   1.809  0.5830 -0.6227 -1.1994
10219SOL    HW231557   5.455   5.979   1.767  0.4580 -0.2494 -0.0038
10220SOL     OW31558   4.490   4.649   0.616  0.0672 -0.0612 -0.1184
10220SOL    HW131559   4.534   4.699   0.542 -0.0613 -0.1691 -0.2674
10220SOL    HW231560   4.468   4.556   0.586  1.7298 -0.7520  0.6440
10221SOL     OW31561   6.739   3.831   0.070 -0.2467  0.0404 -0.2599
10221SOL    HW131562   6.804   3.758   0.092 -0.1402  0.4638  0.9338
10221SOL    HW231563   6.646   3.795   0.075 -0.3342  0.3820  2.3974
10222SOL     OW31564   3.873   1.456   0.335  0.0853  0.7829 -0.2012
10222SOL    HW131565   3.932   1.472   0.255 -0.4301  0.1285 -0.7200
10222SOL    HW231566   3.813   1.536   0.348 -1.3458  0.0433 -1.8080
10223SOL     OW31567   4.250   1.997   2.177 -0.7243 -0.5492 -0.1300
10223SOL    HW131568   4.207   2.084   2.153 -0.6683  0.3049  2.5406
10223SOL    HW231569   4.350   2.006   2.173 -0.7121 -0.3589  0.4979
10224SOL     OW31570   1.970   1.458   6.220 -0.2002 -0.5453  0.4941
10224SOL    HW131571   1.914   1.395   6.274  0.5812 -1.0423  0.7261
10224SOL    HW231572   2.056   1.414   6.195 -0.0491  0.1001 -0.1510
10225SOL     OW31573   5.742   5.986   1.433 -0.6294 -0.2723  0.4711
10225SOL    HW131574   5.750   6.005   1.531  0.3961  4.0007 -0.2214
10225SOL    HW231575   5.833   5.985   1.391 -1.0464 -2.0651 -0.5047
10226SOL     OW31576   1.706   6.433   1.225  0.0646  0.4547 -0.3113
10226SOL    HW131577   1.653   6.504   1.272  3.0983  2.2670  0.6610
10226SOL    HW231578   1.784   6.407   1.282 -0.2424 -2.8609 -1.1999
10227SOL     OW31579   5.351   2.158   6.613 -0.1742 -0.2562 -0.2445
10227SOL    HW131580   5.264   2.145   6.565  0.0692 -1.0758 -0.4816
10227SOL    HW231581   5.352   2.248   6.657 -1.3036 -0.3988  0.0995
10228SOL     OW31582   0.963   5.778   5.554 -0.4626 -0.0612  0.3311
10228SOL    HW131583   0.885   5.735   5.509 -1.4742  1.0691  0.9313
10228SOL    HW231584   1.030   5.709   5.580 -0.5584 -0.8920 -1.5274
10229SOL     OW31585   1.893   2.959   4.610  0.0785  0.1189  0.6291
10229SOL    HW131586   1.844   2.949   4.697  0.9600 -0.5367  1.0537
10229SOL    HW231587   1.959   2.885   4.600 -1.8602 -1.4163 -1.8394
10230SOL     OW31588   1.620   2.588   6.372  1.6788 -0.5246 -0.0726
10230SOL    HW131589   1.685   2.539   6.430  0.7564 -2.0671 -0.2770
10230SOL    HW231590   1.538   2.532   6.359  1.1803  0.4790 -1.5244
10231SOL     OW31591   1.093   2.453   3.533  0.2667  0.4503 -0.4475
10231SOL    HW131592   1.013   2.436   3.476  0.6588 -1.1140 -0.5814
10231SOL    HW231593   1.172   2.405   3.495  0.8703  0.5605  0.6201
10232SOL     OW31594   4.524   5.126   2.522 -0.6716 -0.3086  0.3512
10232SOL    HW131595   4.459   5.052   2.537  0.1439 -1.0521  0.2815
10232SOL    HW231596   4.610   5.089   2.487 -0.2414  0.6679  0.3331
10233SOL     OW31597   1.312   6.587   4.561  0.2317  0.2602 -0.4311
10233SOL    HW131598   1.223   6.543   4.578  0.0159  0.3032 -1.3898
10233SOL    HW231599   1.309   6.681   4.595  0.3163 -0.0972  0.6043
10234SOL     OW31600   2.601   1.318   2.128  0.0599  0.4587  0.0786
10234SOL    HW131601   2.635   1.406   2.095  0.2866 -0.6732 -3.0752
10234SOL    HW231602   2.502   1.324   2.146 -0.3755  0.9015 -2.1912
10235SOL     OW31603   3.182   2.680   5.320 -0.3613 -0.3816 -0.2417
10235SOL    HW131604   3.167   2.593   5.274 -2.6845 -0.6404  0.8935
10235SOL    HW231605   3.256   2.670   5.387  0.0853 -1.1630 -0.8364
10236SOL     OW31606   0.238   3.948   1.548 -0.0441  0.0032 -0.7699
10236SOL    HW131607   0.234   3.851   1.522  0.6489 -0.8273  1.9039
10236SOL    HW231608   0.156   3.994   1.515 -0.1996 -1.3717 -2.4714
10237SOL     OW31609   2.969   5.482   3.843 -0.0346  0.1159  0.0613
10237SOL    HW131610   3.045   5.483   3.909  0.5308  1.3113 -0.5660
10237SOL    HW231611   2.969   5.395   3.794  1.6740  0.4977 -0.7147
10238SOL     OW31612   6.052   1.193   2.458  0.2427 -0.4867  0.2880
10238SOL    HW131613   6.006   1.106   2.442 -1.1755  0.6934 -2.8391
10238SOL    HW231614   6.025   1.229   2.547 -1.1477 -2.0333  0.5457
10239SOL     OW31615   3.426   2.596   1.499  0.0052 -0.3871 -0.1014
10239SOL    HW131616   3.447   2.508   1.457  1.4573 -0.8464  1.4716
10239SOL    HW231617   3.510   2.638   1.533 -1.1019 -0.5717  3.2276
10240SOL     OW31618   2.753   4.098   6.528 -0.1962  0.1947 -0.2726
10240SOL    HW131619   2.718   4.005   6.518 -2.2098  1.1089 -3.4867
10240SOL    HW231620   2.843   4.104   6.485 -0.9215  0.0907 -1.8778
10241SOL     OW31621   5.372   6.141   1.680 -0.0664 -0.5698 -0.2642
10241SOL    HW131622   5.458   6.177   1.716 -0.5044 -0.4027  0.6652
10241SOL    HW231623   5.307   6.216   1.668 -0.1068 -0.7031 -0.8926
10242SOL     OW31624   0.438   4.952   3.524 -0.5168 -0.4367 -0.7573
10242SOL    HW131625   0.537   4.960   3.529 -0.5865  0.3332 -0.5510
10242SOL    HW231626   0.405   4.998   3.442 -0.7601 -0.1019 -0.4759
10243SOL     OW31627   6.274   6.874   1.084 -0.2264  0.1305  0.2018
10243SOL    HW131628   6.233   6.852   1.173  2.6273 -1.3037  1.3046
10243SOL    HW231629   6.282   6.790   1.030 -0.2348  0.6711 -0.6580
10244SOL     OW31630   4.927   3.293   4.914  0.2013  0.2891  0.5141
10244SOL    HW131631   5.021   3.314   4.887  0.9242 -0.5340  2.1934
10244SOL    HW231632   4.875   3.378   4.925  0.8039  0.7620 -0.2083
10245SOL     OW31633   2.552   5.444   6.080 -0.0590 -0.1173  0.5185
10245SOL    HW131634   2.467   5.404   6.046  0.8438 -1.9815  0.3207
10245SOL    HW231635   2.567   5.416   6.174 -0.1496  1.0536  0.8986
10246SOL     OW31636   6.433   1.721   1.861 -0.0791  0.1189  0.5623
10246SOL    HW131637   6.399   1.653   1.796 -1.1547  2.5887 -1.6435
10246SOL    HW231638   6.531   1.735   1.846 -0.2388  0.3931 -0.3046
10247SOL     OW31639   3.495   4.918   3.284 -0.2261 -0.4961 -0.4011
10247SOL    HW131640   3.453   4.906   3.374  1.4269 -1.9838  0.2063
10247SOL    HW231641   3.593   4.930   3.294 -0.0995  0.0312 -1.9865
10248SOL     OW31642   5.549   4.061   5.826  0.1924  0.6129  0.0246
10248SOL    HW131643   5.497   4.133   5.780 -0.6288 -1.4833 -2.6016
10248SOL    HW231644   5.610   4.017   5.760 -0.2285 -1.8760  1.1745
10249SOL     OW31645   5.181   1.299   0.958  0.5440  0.3413 -0.1859
10249SOL    HW131646   5.119   1.375   0.942 -0.4580 -0.0210  1.6243
10249SOL    HW231647   5.242   1.321   1.034  1.2256 -0.0978 -0.6010
10250SOL     OW31648   4.101   3.832   4.824 -0.1980  0.4476  0.2211
10250SOL    HW131649   4.046   3.858   4.904 -0.9907  2.2178 -0.8241
10250SOL    HW231650   4.198   3.832   4.849 -0.4900 -0.0883  1.4369
10251SOL     OW31651   0.116   5.421   6.222  0.1972 -0.2983  0.6318
10251SOL    HW131652   0.081   5.328   6.236  0.3009 -0.2556  1.2183
10251SOL    HW231653   0.055   5.486   6.267 -0.4840  0.0253 -0.7134
10252SOL     OW31654   6.105   4.707   2.696  0.2054  0.1899  0.0944
10252SOL    HW131655   6.118   4.785   2.758  0.2362  0.9890 -0.8846
10252SOL    HW231656   6.024   4.723   2.639  1.3002  0.4704 -1.4768
10253SOL     OW31657   6.685   5.227   1.226 -0.1286 -0.3978  0.3720
10253SOL    HW131658   6.768   5.224   1.282  0.2476 -0.8506 -0.2051
10253SOL    HW231659   6.673   5.320   1.191  1.0003 -0.6674 -0.8068
10254SOL     OW31660   2.776   4.726   5.469  0.1034  0.6369 -0.2148
10254SOL    HW131661   2.830   4.802   5.506  0.5174  1.3143 -2.1338
10254SOL    HW231662   2.684   4.729   5.509  0.5021  1.3801  0.6960
10255SOL     OW31663   4.140   4.644   1.762 -0.2138 -0.2914 -1.0191
10255SOL    HW131664   4.179   4.691   1.683  1.0127  1.4747  0.5255
10255SOL    HW231665   4.200   4.569   1.789  0.7782  0.7353 -0.2632
10256SOL     OW31666   1.705   3.455   4.719 -0.0494  0.4737  0.0562
10256SOL    HW131667   1.691   3.442   4.817 -0.9684  0.1090 -0.1177
10256SOL    HW231668   1.802   3.438   4.697  0.6934  2.7860  1.2254
10257SOL     OW31669   2.103   5.373   1.045 -0.1252  0.5746  0.5187
10257SOL    HW131670   2.193   5.391   1.005  0.9811 -1.3253  2.0140
10257SOL    HW231671   2.109   5.298   1.111 -2.9108  0.0756  0.3505
10258SOL     OW31672   0.980   0.007   2.471 -0.3299 -0.3599  0.0696
10258SOL    HW131673   0.967   0.076   2.542  1.2412 -0.5082  0.5293
10258SOL    HW231674   1.000   0.052   2.384  0.6313 -0.2188  0.3547
10259SOL     OW31675   1.106   2.660   2.889 -0.1822 -0.0646  0.0852
10259SOL    HW131676   1.115   2.701   2.980  0.6041 -0.6963  0.3062
10259SOL    HW231677   1.190   2.610   2.866 -0.3637  0.0973 -0.9979
10260SOL     OW31678   6.424   5.133   6.433 -0.5640  0.2119 -0.2092
10260SOL    HW131679   6.488   5.064   6.399 -0.0804  0.2651  0.5727
10260SOL    HW231680   6.340   5.088   6.464 -0.5141  0.0436 -0.3191
10261SOL     OW31681   6.399   3.237   0.192  0.1589 -0.0050 -0.2689
10261SOL    HW131682   6.434   3.249   0.285  1.3043  0.1198 -0.7014
10261SOL    HW231683   6.475   3.215   0.130 -0.4865  0.5634 -1.2923
10262SOL     OW31684   1.838   3.373   1.887 -0.0304 -0.0067  0.4194
10262SOL    HW131685   1.742   3.357   1.865 -0.2187  0.9949  0.4227
10262SOL    HW231686   1.895   3.343   1.812 -0.5688  2.0602 -0.9146
10263SOL     OW31687   0.460   4.973   0.150 -0.1269  0.7004  0.1488
10263SOL    HW131688   0.371   5.017   0.160 -1.3245 -1.9306  2.3828
10263SOL    HW231689   0.489   4.936   0.239  2.9294  0.8744 -0.6482
10264SOL     OW31690   5.293   0.048   5.911  0.0014  0.3807  0.4215
10264SOL    HW131691   5.197   0.042   5.940  0.1833 -0.9467  0.8179
10264SOL    HW231692   5.304  -0.000   5.824  0.4266 -0.0018  0.6851
10265SOL     OW31693   2.951   5.267   6.858  0.1871 -0.1040  0.3727
10265SOL    HW131694   2.890   5.222   6.923  0.1720 -0.4249  0.1348
10265SOL    HW231695   2.924   5.245   6.765 -0.2016  0.8898  0.2389
10266SOL     OW31696   1.441   1.728   5.166 -0.3364  0.0873  0.6919
10266SOL    HW131697   1.366   1.714   5.101 -0.1952  2.0811  0.0394
10266SOL    HW231698   1.426   1.671   5.246 -1.1584 -1.5290 -0.5446
10267SOL     OW31699   0.379   5.602   5.913  0.5561  0.0831 -0.1905
10267SOL    HW131700   0.312   5.676   5.903 -0.5080 -0.8166  0.1435
10267SOL    HW231701   0.453   5.615   5.847 -0.5948  0.3859 -1.4618
10268SOL     OW31702   2.285   0.158   2.911 -0.3677 -0.0684  0.0376
10268SOL    HW131703   2.340   0.159   2.827 -1.3893  0.3920 -0.6455
10268SOL    HW231704   2.310   0.079   2.966 -0.8279 -1.3347 -1.4993
10269SOL     OW31705   1.443   6.438   2.380 -0.5690  0.5751  0.1668
10269SOL    HW131706   1.447   6.435   2.480 -2.0646  2.0879  0.3332
10269SOL    HW231707   1.468   6.530   2.349 -2.5572  0.9113 -0.6156
10270SOL     OW31708   6.540   4.505   6.989 -0.1705  0.3742  0.2486
10270SOL    HW131709   6.610   4.502   6.917 -1.9815 -0.7064 -1.5587
10270SOL    HW231710   6.464   4.563   6.959 -0.9565 -0.0773  1.3236
10271SOL     OW31711   6.578   5.269   4.993  0.1642 -0.4663 -0.0349
10271SOL    HW131712   6.651   5.312   5.046  0.7197 -0.8791 -0.4573
10271SOL    HW231713   6.509   5.338   4.970  0.8910  0.1484 -0.4426
10272SOL     OW31714   4.930   1.986   4.494  0.1964 -0.4231 -0.5163
10272SOL    HW131715   4.930   1.896   4.538 -0.4775  0.1935  0.7915
10272SOL    HW231716   4.951   2.056   4.562 -0.2040  0.5052 -1.3284
10273SOL     OW31717   3.196   1.890   5.407  0.4072  0.0438 -0.9393
10273SOL    HW131718   3.103   1.923   5.392  0.4067 -0.1540 -1.4074
10273SOL    HW231719   3.195   1.790   5.415  0.6189  0.0134 -1.2817
10274SOL     OW31720   0.329   4.482   2.311 -0.0355  0.1662  0.0373
10274SOL    HW131721   0.283   4.567   2.335 -1.5404 -0.9900  1.5275
10274SOL    HW231722   0.301   4.454   2.220 -0.8863  0.4136  0.2121
10275SOL     OW31723   1.395   5.423   3.230  0.0490 -0.0551 -0.3640
10275SOL    HW131724   1.356   5.352   3.171 -0.4896 -0.3437  0.3306
10275SOL    HW231725   1.365   5.513   3.197 -1.2493 -0.2705  0.1712
10276SOL     OW31726   1.699   4.934   2.288 -0.1474 -0.4947  0.0613
10276SOL    HW131727   1.783   4.988   2.279 -0.6667  0.2379 -0.5690
10276SOL    HW231728   1.676   4.892   2.200 -2.0863  1.8661 -0.6933
10277SOL     OW31729   3.320   3.348   4.974  0.1439 -0.5071  0.1944
10277SOL    HW131730   3.327   3.406   5.056 -0.7118 -0.2677  0.1060
10277SOL    HW231731   3.386   3.273   4.981  0.9424  0.2080  0.5291
10278SOL     OW31732   3.202   0.835   2.664 -0.2156  0.3015  0.3324
10278SOL    HW131733   3.207   0.935   2.673  0.2659  0.4772 -1.4828
10278SOL    HW231734   3.109   0.808   2.643 -0.0584  0.5454 -0.7301
10279SOL     OW31735   0.727   6.873   2.449  0.0800 -0.0612  0.1162
10279SOL    HW131736   0.669   6.833   2.378  0.1568  1.8484 -1.1009
10279SOL    HW231737   0.804   6.919   2.406  0.4306  0.6810  1.4883
10280SOL     OW31738   6.571   6.395   3.469 -0.3417 -0.2536 -0.1695
10280SOL    HW131739   6.527   6.381   3.558 -1.0870  2.1645 -0.0810
10280SOL    HW231740   6.554   6.315   3.411 -5.0306  0.4118 -0.1466
10281SOL     OW31741   0.617   6.269   6.589  0.0792 -0.1478  0.0131
10281SOL    HW131742   0.715   6.250   6.601  0.3261  0.5314 -0.8323
10281SOL    HW231743   0.601   6.308   6.498 -0.9599 -0.1121  0.1978
10282SOL     OW31744   5.117   4.857   4.977 -0.0823 -0.5474 -0.0532
10282SOL    HW131745   5.213   4.881   4.987  0.0476 -1.0096 -0.1767
10282SOL    HW231746   5.109   4.761   4.949 -0.5810 -0.5553  0.1045
10283SOL     OW31747   1.581   6.285   5.527  0.0489 -0.2106  0.6110
10283SOL    HW131748   1.645   6.243   5.592  2.1022  2.2851  0.3785
10283SOL    HW231749   1.585   6.236   5.440  0.4525 -1.0391  1.0861
10284SOL     OW31750   5.854   2.514   6.199  0.0469  0.8562  0.6318
10284SOL    HW131751   5.770   2.568   6.202 -0.2668  0.3300  1.9325
10284SOL    HW231752   5.931   2.570   6.228  0.4519  1.7743 -1.9139
10285SOL     OW31753   6.665   5.765   2.866  0.0708  0.4530 -1.0324
10285SOL    HW131754   6.721   5.846   2.850  1.0331 -0.4179 -2.3164
10285SOL    HW231755   6.668   5.706   2.784  0.1112 -1.2798  0.1576
10286SOL     OW31756   0.589   0.602   6.002  0.2150  0.2695  0.2360
10286SOL    HW131757   0.622   0.586   5.909  0.3559  1.0937  0.1382
10286SOL    HW231758   0.587   0.515   6.052  1.0495 -0.0347 -0.2364
10287SOL     OW31759   6.418   1.506   0.187  1.2818 -0.4411  0.5479
10287SOL    HW131760   6.484   1.571   0.222  1.2729 -1.0643  1.7893
10287SOL    HW231761   6.370   1.463   0.263 -0.8325  0.2519 -0.3025
10288SOL     OW31762   4.293   3.522   1.370  0.2860  0.3694 -0.4313
10288SOL    HW131763   4.210   3.559   1.328 -0.0924 -2.4964 -2.5416
10288SOL    HW231764   4.267   3.453   1.438  0.9090 -0.1586 -0.7201
10289SOL     OW31765   2.899   2.346   5.765  0.1355  0.3423  0.5204
10289SOL    HW131766   2.990   2.313   5.740 -0.4235 -0.4988 -0.4773
10289SOL    HW231767   2.882   2.433   5.719  0.2374  0.2533  0.3146
10290SOL     OW31768   3.664   3.311   5.413  0.1907  0.1823  0.3468
10290SOL    HW131769   3.751   3.359   5.406 -0.5809  1.5029 -0.6894
10290SOL    HW231770   3.660   3.238   5.345 -0.2466  1.3738 -0.9375
10291SOL     OW31771   5.290   0.791   1.984 -0.2107  0.0221  0.4321
10291SOL    HW131772   5.280   0.886   1.951 -0.1295 -0.0240  0.2753
10291SOL    HW231773   5.327   0.734   1.911 -2.9639 -0.7493 -0.4988
10292SOL     OW31774   6.977   2.990   6.790  0.0486 -0.2580  0.1326
10292SOL    HW131775   6.968   3.043   6.706 -0.1629 -1.1389 -0.4131
10292SOL    HW231776   7.064   3.011   6.834 -0.5362  1.3924  0.5366
10293SOL     OW31777   5.692   0.385   4.796  0.1690  0.1081  0.0166
10293SOL    HW131778   5.733   0.345   4.714 -0.8170 -0.5925 -0.1532
10293SOL    HW231779   5.760   0.387   4.870 -0.2518 -3.9957  0.7388
10294SOL     OW31780   5.543   2.703   2.575 -0.1250  0.0771 -0.4602
10294SOL    HW131781   5.587   2.772   2.518  0.2520 -0.2853 -0.6126
10294SOL    HW231782   5.451   2.685   2.540 -0.3335  0.7080 -0.2450
10295SOL     OW31783   3.830   6.867   5.622 -0.0990 -0.5041 -0.7898
10295SOL    HW131784   3.925   6.858   5.650 -0.1462 -1.4481 -0.9166
10295SOL    HW231785   3.824   6.935   5.549 -0.1160  2.8510  2.0711
10296SOL     OW31786   6.228   5.719   3.197 -0.0796 -0.2737  0.0772
10296SOL    HW131787   6.214   5.816   3.177  0.8839 -0.6680 -3.1341
10296SOL    HW231788   6.167   5.664   3.140  1.1599 -1.5634 -0.0768
10297SOL     OW31789   6.941   5.114   0.903 -0.9585  0.2262 -0.2340
10297SOL    HW131790   6.866   5.095   0.841 -0.1222  1.4545 -1.6973
10297SOL    HW231791   7.025   5.074   0.867 -0.4878  0.8288  0.1709
10298SOL     OW31792   0.757   5.523   6.341  0.6957  0.3102  0.2088
10298SOL    HW131793   0.763   5.599   6.405 -0.5254 -0.4867  1.3153
10298SOL    HW231794   0.662   5.495   6.331  1.1229 -1.1071 -0.1340
10299SOL     OW31795   7.000   3.836   6.066  0.4614 -0.7437 -0.1599
10299SOL    HW131796   6.981   3.769   5.994  0.8734 -0.7548 -0.2587
10299SOL    HW231797   7.011   3.789   6.154 -1.7854 -0.5933  0.2562
10300SOL     OW31798   3.247   2.328   0.880 -0.5337  0.0474  0.1046
10300SOL    HW131799   3.334   2.366   0.849 -1.5861  1.5236 -1.2411
10300SOL    HW231800   3.244   2.328   0.979  1.5684 -1.4801  0.2476
10301SOL     OW31801   1.684   5.965   6.034  0.5880 -0.0088 -0.0408
10301SOL    HW131802   1.640   5.875   6.024  0.5489  0.0770 -0.6539
10301SOL    HW231803   1.618   6.036   6.011  0.6307  0.1776  0.4134
10302SOL     OW31804   1.845   6.324   5.842 -0.3473 -0.1593  0.1705
10302SOL    HW131805   1.881   6.315   5.935 -2.7129  0.7585  1.2761
10302SOL    HW231806   1.883   6.406   5.799  1.6914 -1.2316 -0.2019
10303SOL     OW31807   3.738   5.383   6.118  0.7093  0.2526 -0.2603
10303SOL    HW131808   3.823   5.425   6.150  0.2064  0.2619  1.1815
10303SOL    HW231809   3.666   5.398   6.187 -0.3832 -0.0044 -1.3059
10304SOL     OW31810   2.233   2.887   6.023  0.6947 -0.8914  0.2381
10304SOL    HW131811   2.328   2.863   6.002  0.8397 -0.9523  0.9245
10304SOL    HW231812   2.195   2.942   5.949  0.5695 -2.6853 -1.0897
10305SOL     OW31813   4.663   3.189   5.459 -0.4347  0.3948 -0.0133
10305SOL    HW131814   4.699   3.111   5.509 -1.2762  0.5959  0.9531
10305SOL    HW231815   4.708   3.197   5.371  0.3600 -0.5849  0.2964
10306SOL     OW31816   0.672   0.369   1.547  0.0718  0.5899 -0.7988
10306SOL    HW131817   0.762   0.330   1.524 -0.4075 -1.6369  0.7336
10306SOL    HW231818   0.605   0.340   1.479 -0.2085 -1.1100  0.1364
10307SOL     OW31819   1.273   4.307   3.381  0.3853 -0.2501  0.2414
10307SOL    HW131820   1.209   4.361   3.327  1.0922 -0.2772 -0.6453
10307SOL    HW231821   1.320   4.241   3.322 -0.0179 -1.4298  1.1903
10308SOL     OW31822   2.861   0.174   1.965  0.0629 -1.0462 -0.0219
10308SOL    HW131823   2.854   0.082   1.927 -0.1646 -1.6226  1.3301
10308SOL    HW231824   2.943   0.179   2.023  0.2667 -0.2859 -0.3718
10309SOL     OW31825   4.086   4.263   6.556  0.3429  0.3860 -0.8222
10309SOL    HW131826   4.057   4.335   6.620  0.1904  0.7186 -1.2603
10309SOL    HW231827   4.005   4.221   6.515  0.4242 -0.1906 -0.4069
10310SOL     OW31828   6.881   1.398   2.415  0.1494  0.0640  0.8980
10310SOL    HW131829   6.909   1.312   2.457  0.8121 -1.0498 -1.6593
10310SOL    HW231830   6.823   1.380   2.336 -0.1015  1.9881  0.5989
10311SOL     OW31831   0.866   3.337   3.698  0.3304 -0.4740 -0.8716
10311SOL    HW131832   0.770   3.314   3.713  0.4306 -0.4781 -0.1950
10311SOL    HW231833   0.899   3.292   3.615  0.0067 -1.2453 -0.5867
10312SOL     OW31834   2.947   0.151   2.357  0.4760  0.2147  0.2661
10312SOL    HW131835   2.966   0.188   2.448  0.9562  1.6748 -0.3944
10312SOL    HW231836   2.868   0.198   2.318 -1.0470 -1.8356  0.7035
10313SOL     OW31837   5.290   5.592   6.061 -0.0008 -0.2298  0.4487
10313SOL    HW131838   5.198   5.577   6.023 -0.5924 -2.3209  2.4899
10313SOL    HW231839   5.357   5.539   6.009 -0.4568 -1.2684  0.9024
10314SOL     OW31840   6.759   3.225   4.616  0.1502 -0.0807  0.4462
10314SOL    HW131841   6.841   3.275   4.588 -0.3161  1.0178  0.9764
10314SOL    HW231842   6.687   3.239   4.549  0.7288 -2.0161 -0.6376
10315SOL     OW31843   0.410   3.334   2.228 -0.3756 -0.0375  0.3393
10315SOL    HW131844   0.460   3.322   2.142 -2.4857  0.2910 -0.9877
10315SOL    HW231845   0.451   3.409   2.280 -0.2988  1.1354 -1.3445
10316SOL     OW31846   1.645   5.700   2.969  0.5754 -0.3740  0.1333
10316SOL    HW131847   1.642   5.636   3.046 -2.1992  0.1846  0.6087
10316SOL    HW231848   1.679   5.788   3.000  0.3913 -0.4322  0.5071
10317SOL     OW31849   0.615   4.126   6.138  0.3355 -0.2206  0.3124
10317SOL    HW131850   0.607   4.212   6.190 -0.4336 -0.6797  0.9873
10317SOL    HW231851   0.591   4.050   6.198  1.2093 -0.9309 -0.2287
10318SOL     OW31852   3.849   5.511   3.718  0.8729 -0.0450 -0.7263
10318SOL    HW131853   3.851   5.510   3.618 -0.3928 -2.7462 -0.8084
10318SOL    HW231854   3.939   5.487   3.753  0.9370 -0.6095 -1.2598
10319SOL     OW31855   4.335   6.146   2.633 -0.1023  0.1554  0.3408
10319SOL    HW131856   4.335   6.063   2.689 -1.6091  0.0733  0.2645
10319SOL    HW231857   4.415   6.146   2.573 -0.4838 -1.6652 -0.2409
10320SOL     OW31858   2.655   2.553   1.216 -0.6242 -0.1043 -0.0668
10320SOL    HW131859   2.624   2.647   1.203 -0.3795 -0.0053  0.0574
10320SOL    HW231860   2.585   2.500   1.263 -0.9957 -0.1305 -0.6478
10321SOL     OW31861   1.098   0.740   1.202  0.1921 -0.2593 -0.0232
10321SOL    HW131862   1.152   0.818   1.170  0.4054 -0.6757 -0.7242
10321SOL    HW231863   1.027   0.719   1.135  0.6894 -1.1978 -0.2838
10322SOL     OW31864   0.065   6.605   1.775 -0.5497 -0.0951  0.5688
10322SOL    HW131865   0.125   6.682   1.752 -0.1294 -0.8103 -0.8062
10322SOL    HW231866   0.105   6.552   1.849  1.1107 -1.2042 -1.0665
10323SOL     OW31867   1.086   4.218   1.387  0.1999 -0.0605  0.3808
10323SOL    HW131868   1.099   4.120   1.371  2.3660  0.6101 -2.7927
10323SOL    HW231869   1.001   4.248   1.344  1.0789 -0.0616 -1.4366
10324SOL     OW31870   5.297   3.717   0.678  0.2737  0.2796  0.1834
10324SOL    HW131871   5.268   3.642   0.737  0.1408  0.2925  0.1364
10324SOL    HW231872   5.232   3.726   0.603 -0.3244  1.1515  0.7931
10325SOL     OW31873   0.021   1.644   0.265 -0.1241 -0.0471  0.0194
10325SOL    HW131874   0.071   1.576   0.320 -1.3477 -0.6675  0.3887
10325SOL    HW231875  -0.000   1.606   0.175 -1.1265 -0.2998  0.3537
10326SOL     OW31876   5.375   0.825   2.512 -0.0978 -0.1920 -0.4699
10326SOL    HW131877   5.326   0.906   2.542 -2.0169 -1.8638  1.2118
10326SOL    HW231878   5.456   0.812   2.570 -0.1050  0.1894 -0.3691
10327SOL     OW31879   3.191   0.641   2.833  0.4018 -0.6375  0.0053
10327SOL    HW131880   3.192   0.711   2.761 -1.1685 -1.5367 -0.9450
10327SOL    HW231881   3.188   0.686   2.923  0.6610  0.5069 -0.5439
10328SOL     OW31882   0.237   2.743   2.952 -0.0919  0.1650 -0.6135
10328SOL    HW131883   0.159   2.804   2.935 -0.7644 -0.5533 -0.1903
10328SOL    HW231884   0.263   2.748   3.049 -1.1205 -1.3007 -0.2266
10329SOL     OW31885   2.040   4.514   6.027 -0.7275 -0.1861 -0.2422
10329SOL    HW131886   2.121   4.470   6.065 -1.3142 -0.3785  0.8378
10329SOL    HW231887   2.012   4.590   6.087 -0.5079  0.8148 -1.3665
10330SOL     OW31888   4.902   6.712   1.214 -0.4522  0.0252 -0.4926
10330SOL    HW131889   4.957   6.764   1.280  1.3839 -0.3364 -1.6596
10330SOL    HW231890   4.927   6.739   1.121 -2.3242 -0.1402 -1.0839
10331SOL     OW31891   6.786   2.469   0.535 -0.2695 -0.3271  0.4721
10331SOL    HW131892   6.686   2.467   0.534 -0.2919  0.6054 -0.5132
10331SOL    HW231893   6.821   2.375   0.535 -1.1308 -0.6670  1.5440
10332SOL     OW31894   5.219   0.499   6.647  0.2309  0.1283 -0.0164
10332SOL    HW131895   5.232   0.400   6.636 -2.7415 -0.3228 -0.4884
10332SOL    HW231896   5.213   0.542   6.557  0.0420  0.4772  0.1585
10333SOL     OW31897   0.459   1.209   4.534 -0.1825 -0.7074  0.2806
10333SOL    HW131898   0.413   1.293   4.564  2.5322  0.9244  0.2975
10333SOL    HW231899   0.452   1.201   4.435  0.2110  0.0399  0.1795
10334SOL     OW31900   3.048   6.932   1.844 -0.0831  0.0070 -0.7531
10334SOL    HW131901   3.111   7.009   1.848  1.0009 -0.6989 -2.8770
10334SOL    HW231902   3.064   6.873   1.924  0.2692  1.0602 -0.0184
10335SOL     OW31903   0.324   3.979   0.024  0.2138  0.2724  0.6220
10335SOL    HW131904   0.254   3.909   0.014  2.0005 -1.3968 -1.2366
10335SOL    HW231905   0.285   4.061   0.067 -2.3309 -1.2534  1.4015
10336SOL     OW31906   3.533   5.651   6.237  0.1576  0.0200  0.0348
10336SOL    HW131907   3.518   5.625   6.141  0.3312  0.8893 -0.2347
10336SOL    HW231908   3.507   5.575   6.296  2.6518 -1.6183 -0.8044
10337SOL     OW31909   0.455   6.224   1.299 -0.0140 -0.6635  0.2879
10337SOL    HW131910   0.459   6.174   1.212 -1.2818 -1.5819  0.7358
10337SOL    HW231911   0.524   6.296   1.299  0.2090 -0.8492 -1.3539
10338SOL     OW31912   6.357   2.976   1.352  0.4394 -0.7580 -0.7086
10338SOL    HW131913   6.268   2.953   1.392  1.4037 -1.1966  1.3661
10338SOL    HW231914   6.414   2.894   1.349  1.2483 -0.2034 -0.6603
10339SOL     OW31915   2.715   1.614   0.655  0.6842  0.4001 -0.5641
10339SOL    HW131916   2.710   1.674   0.575 -1.1433 -0.2244 -0.9579
10339SOL    HW231917   2.625   1.608   0.698  1.5647  0.5545  1.4526
10340SOL     OW31918   6.493   5.545   0.144  0.0733 -0.3091  0.5186
10340SOL    HW131919   6.482   5.467   0.082  0.6261 -0.7305  0.9523
10340SOL    HW231920   6.590   5.567   0.153 -0.1249  0.9982 -0.2954
10341SOL     OW31921   3.482   4.402   5.979 -1.0029  0.1441  0.8409
10341SOL    HW131922   3.570   4.446   5.962 -1.2619  0.7167  0.9539
10341SOL    HW231923   3.419   4.424   5.904 -1.0742 -0.2204  0.7882
10342SOL     OW31924   6.700   1.216   0.661  0.7025  0.0186  0.4447
10342SOL    HW131925   6.660   1.134   0.701 -0.3068 -1.1259 -2.6064
10342SOL    HW231926   6.631   1.289   0.657 -1.2754 -1.7464 -4.2199
10343SOL     OW31927   4.044   6.791   0.591  0.5799 -0.2470 -0.0417
10343SOL    HW131928   4.012   6.764   0.681 -1.6328 -0.6894 -0.8894
10343SOL    HW231929   3.967   6.822   0.536  2.0065  0.9159 -1.4942
10344SOL     OW31930   5.580   1.003   5.471 -0.6539  0.1284  0.5140
10344SOL    HW131931   5.639   1.045   5.540  0.9213 -1.3928  0.1359
10344SOL    HW231932   5.617   0.914   5.444 -0.7111  1.0064 -2.9269
10345SOL     OW31933   6.154   2.164   5.791 -0.5804  0.1716  0.4287
10345SOL    HW131934   6.062   2.133   5.814 -0.6530 -0.3895 -0.5381
10345SOL    HW231935   6.158   2.263   5.792 -0.9469  0.1840  1.3746
10346SOL     OW31936   0.199   1.783   1.688 -0.3092 -0.2270 -0.0094
10346SOL    HW131937   0.276   1.722   1.668  0.9626  1.4037 -0.2748
10346SOL    HW231938   0.228   1.854   1.752 -1.1620  1.3007 -1.2491
10347SOL     OW31939   4.454   6.621   5.844 -0.6165 -0.3159 -0.3301
10347SOL    HW131940   4.423   6.621   5.939  1.3623  3.4204  0.5222
10347SOL    HW231941   4.540   6.570   5.838 -0.5498 -0.2500  0.0026
10348SOL     OW31942   5.179   6.190   0.397 -0.4022 -0.5937 -0.4357
10348SOL    HW131943   5.112   6.172   0.470  0.5620 -1.9885  0.1585
10348SOL    HW231944   5.151   6.143   0.314 -0.5160 -0.5975 -0.3957
10349SOL     OW31945   3.959   4.049   6.832 -0.2641 -0.2249 -0.0012
10349SOL    HW131946   3.970   4.146   6.849  0.5064 -0.2704 -0.2223
10349SOL    HW231947   4.044   4.011   6.795 -0.1022 -1.2654  1.3720
10350SOL     OW31948   3.493   4.178   5.408  0.3516 -0.2860  0.0306
10350SOL    HW131949   3.542   4.140   5.330  2.3508  1.3540  0.4118
10350SOL    HW231950   3.429   4.248   5.377  0.2811 -0.4632 -0.2228
10351SOL     OW31951   1.769   0.150   5.334 -0.3596 -0.3930  0.0663
10351SOL    HW131952   1.753   0.163   5.431 -1.9396 -1.5068 -0.0105
10351SOL    HW231953   1.798   0.237   5.293 -0.8675  0.3764  1.2995
10352SOL     OW31954   3.814   2.962   3.093 -0.0739 -0.7484 -0.3560
10352SOL    HW131955   3.736   3.021   3.113  1.2354  1.6503 -1.7973
10352SOL    HW231956   3.787   2.892   3.027 -0.8635  0.5944 -1.5269
10353SOL     OW31957   2.864   1.360   4.720 -0.1516 -0.0982  0.1193
10353SOL    HW131958   2.853   1.304   4.638 -2.2352 -2.9402  2.1547
10353SOL    HW231959   2.961   1.369   4.742  0.3438 -4.3470  0.4386
10354SOL     OW31960   0.315   4.036   5.801  0.4097 -0.2247  0.1955
10354SOL    HW131961   0.216   4.050   5.801  0.3028 -0.1576 -2.8750
10354SOL    HW231962   0.361   4.121   5.826 -0.3027  0.0135  0.7129
10355SOL     OW31963   6.033   2.639   0.515  0.3431 -0.9169  0.0884
10355SOL    HW131964   5.957   2.578   0.535 -1.2552  0.8342 -0.3051
10355SOL    HW231965   6.024   2.673   0.421 -0.0770  1.5734  0.9710
10356SOL     OW31966   2.833   5.560   3.572 -0.0282  0.0164  0.0922
10356SOL    HW131967   2.916   5.504   3.568 -1.6180 -2.4293 -0.4104
10356SOL    HW231968   2.804   5.569   3.668  0.4446  0.3642  0.2097
10357SOL     OW31969   3.771   0.646   6.450  0.5019  0.2786  0.8005
10357SOL    HW131970   3.769   0.746   6.452  2.6501  0.3608  1.9323
10357SOL    HW231971   3.780   0.611   6.544  0.8029 -0.9406  0.3350
10358SOL     OW31972   3.349   6.893   6.835 -0.0719  0.5354 -0.2889
10358SOL    HW131973   3.293   6.919   6.756 -2.2121 -0.7273  0.7539
10358SOL    HW231974   3.375   6.975   6.886 -0.4114  1.1850 -1.1344
10359SOL     OW31975   0.535   4.658   2.392  0.2066  0.0532 -0.6117
10359SOL    HW131976   0.508   4.587   2.326  1.1776 -0.1585 -0.7970
10359SOL    HW231977   0.510   4.628   2.485 -2.1970  0.8463 -0.9401
10360SOL     OW31978   1.625   0.029   4.126  0.0119  0.2652  0.1588
10360SOL    HW131979   1.654   0.113   4.170  0.9783  0.6285 -1.1285
10360SOL    HW231980   1.528   0.036   4.101  0.0352  0.9122  0.2373
10361SOL     OW31981   3.045   0.567   6.759 -0.0614 -0.2266  0.0752
10361SOL    HW131982   3.083   0.581   6.668  0.6187 -0.3922  0.3287
10361SOL    HW231983   3.078   0.639   6.820  0.3981 -0.7579  0.4605
10362SOL     OW31984   0.654   2.111   5.235 -0.1100 -0.8777 -0.2691
10362SOL    HW131985   0.649   2.127   5.136  1.2997 -0.4539 -0.2956
10362SOL    HW231986   0.746   2.081   5.259  0.0054  0.4801  1.1068
10363SOL     OW31987   5.649   4.102   4.428  0.7360 -0.3976 -0.2499
10363SOL    HW131988   5.592   4.118   4.347 -1.4368 -2.3057  0.8081
10363SOL    HW231989   5.654   4.186   4.482  1.9362  0.8054 -2.1056
10364SOL     OW31990   5.082   1.684   2.913  0.2524  0.5772 -0.7541
10364SOL    HW131991   5.076   1.603   2.854  1.0091  0.7702 -1.1131
10364SOL    HW231992   4.996   1.697   2.961  0.9447 -2.0516  1.4526
10365SOL     OW31993   0.464   6.418   6.770  0.1148 -0.1404  0.0238
10365SOL    HW131994   0.525   6.374   6.705  0.4822 -1.5875  1.2898
10365SOL    HW231995   0.416   6.348   6.824 -0.3213  0.9955  1.1753
10366SOL     OW31996   2.204   5.327   2.042 -0.1638  0.0255  0.0087
10366SOL    HW131997   2.239   5.240   2.075 -1.3517  0.0296  1.3389
10366SOL    HW231998   2.279   5.382   2.005  1.7853  0.9670  4.7361
10367SOL     OW31999   3.580   2.960   0.697 -0.6995  0.1141 -0.4636
10367SOL    HW132000   3.619   3.029   0.637 -1.0239  0.5524 -0.1750
10367SOL    HW232001   3.653   2.919   0.753 -0.8175  2.1583  1.3480
10368SOL     OW32002   1.193   2.463   1.196  0.3013  1.1997  0.0387
10368SOL    HW132003   1.155   2.498   1.110  0.9331 -0.3366 -0.9031
10368SOL    HW232004   1.140   2.499   1.272 -1.7154  0.8050 -1.1059
10369SOL     OW32005   1.462   1.619   4.313 -0.5118  0.4330 -0.8800
10369SOL    HW132006   1.380   1.671   4.339 -2.2691 -2.2631 -0.6552
10369SOL    HW232007   1.448   1.579   4.222  0.4594 -0.2828 -0.7200
10370SOL     OW32008   0.812   2.180   3.726  0.1515  0.7256 -0.4704
10370SOL    HW132009   0.798   2.144   3.633 -0.3878  0.1454 -0.1690
10370SOL    HW232010   0.770   2.118   3.792 -0.4855  1.7229  0.0828
10371SOL     OW32011   4.531   0.833   6.319  0.4943 -0.1912  0.2437
10371SOL    HW132012   4.484   0.829   6.231 -0.8776 -2.3481  0.9778
10371SOL    HW232013   4.602   0.762   6.322  0.9558  0.2792  0.6530
10372SOL     OW32014   0.200   1.340   3.216  0.4135  0.1461 -0.8124
10372SOL    HW132015   0.268   1.291   3.162 -0.5466 -1.1020 -0.9201
10372SOL    HW232016   0.246   1.409   3.273  1.6576 -0.0732 -1.5178
10373SOL     OW32017   6.345   2.435   6.646 -0.0392  0.0123 -0.4889
10373SOL    HW132018   6.362   2.353   6.591 -2.6280 -2.7619  2.4685
10373SOL    HW232019   6.260   2.478   6.615 -0.3356 -0.2750 -0.0861
10374SOL     OW32020   6.446   3.209   6.469  0.1479 -0.2002  0.2918
10374SOL    HW132021   6.502   3.181   6.547  0.4209  1.0024  0.5489
10374SOL    HW232022   6.469   3.303   6.444 -0.6670 -0.2240 -0.5938
10375SOL     OW32023   4.892   5.472   1.530 -0.3497 -0.3347  0.2341
10375SOL    HW132024   4.799   5.496   1.503 -0.3457 -1.5572 -1.0071
10375SOL    HW232025   4.941   5.436   1.451  1.3233  0.6580  0.7795
10376SOL     OW32026   3.068   3.915   6.579 -0.6544  0.0958 -0.1981
10376SOL    HW132027   3.073   4.013   6.596  1.8729 -0.0758  0.3711
10376SOL    HW232028   3.040   3.868   6.663  0.4044  0.1739  0.2126
10377SOL     OW32029   4.052   6.567   1.520  0.0988 -0.2814 -0.0479
10377SOL    HW132030   4.138   6.523   1.494  0.5044 -0.2712  1.1912
10377SOL    HW232031   4.014   6.521   1.601 -0.8995 -0.0776 -0.3843
10378SOL     OW32032   6.338   0.565   5.230  0.1909 -0.0745 -0.6421
10378SOL    HW132033   6.376   0.508   5.158  1.0243 -0.8806  0.4001
10378SOL    HW232034   6.252   0.525   5.262 -0.9494  1.0530 -2.1115
10379SOL     OW32035   4.338   2.268   5.611 -0.4025  0.1993 -0.7239
10379SOL    HW132036   4.388   2.242   5.529  1.4565  0.0800  0.3685
10379SOL    HW232037   4.250   2.307   5.587 -0.0608 -0.1959 -2.7311
10380SOL     OW32038   4.276   4.745   4.788 -0.0520  0.5215 -0.3671
10380SOL    HW132039   4.279   4.692   4.873 -0.1915 -1.3617 -1.4874
10380SOL    HW232040   4.368   4.750   4.749  0.4116  3.0806  0.8118
10381SOL     OW32041   0.084   2.597   0.774  0.8432  0.0051  0.1364
10381SOL    HW132042   0.076   2.542   0.857  2.1932  2.8400  2.3105
10381SOL    HW232043  -0.005   2.637   0.751  0.5379 -0.5154  0.4201
10382SOL     OW32044   2.683   4.971   1.686 -0.3098  0.2602  0.0712
10382SOL    HW132045   2.595   5.010   1.712  0.1729  1.2022  0.3384
10382SOL    HW232046   2.732   4.942   1.768  0.3065  1.2516  0.0733
10383SOL     OW32047   6.817   5.613   0.134 -0.2489  0.2269 -0.5194
10383SOL    HW132048   6.797   5.647   0.042  1.3304  0.5564 -0.7783
10383SOL    HW232049   6.786   5.518   0.142 -2.8448  0.9909 -0.4647
10384SOL     OW32050   5.621   2.390   5.816 -0.0820 -0.8764  0.5465
10384SOL    HW132051   5.675   2.465   5.854  0.4295 -1.2968  0.6579
10384SOL    HW232052   5.550   2.364   5.881 -0.9810  0.2405  0.0509
10385SOL     OW32053   1.638   4.510   5.182 -0.0703  0.0800 -0.2081
10385SOL    HW132054   1.545   4.501   5.217 -0.1347 -1.2998 -0.6690
10385SOL    HW232055   1.690   4.573   5.240  0.1203 -2.7271  2.9964
10386SOL     OW32056   5.357   0.612   0.294  0.7934 -0.0754 -0.2458
10386SOL    HW132057   5.389   0.686   0.352 -0.6920  0.1490  0.3206
10386SOL    HW232058   5.318   0.649   0.210  0.8533 -0.2751 -0.3650
10387SOL     OW32059   6.846   6.163   0.769  0.3337  0.5164  0.1311
10387SOL    HW132060   6.866   6.126   0.678 -0.1185  2.0143 -0.6104
10387SOL    HW232061   6.930   6.164   0.824  0.2324 -2.2325  0.4772
10388SOL     OW32062   4.127   5.131   2.642  0.4840  0.3931  0.5140
10388SOL    HW132063   4.173   5.207   2.688 -1.4134  1.2377  1.1094
10388SOL    HW232064   4.144   5.136   2.544 -1.0156  2.6698  0.3005
10389SOL     OW32065   1.178   1.939   1.759  0.0864 -0.4859 -0.2452
10389SOL    HW132066   1.222   2.016   1.713 -2.2314  0.6297 -0.7426
10389SOL    HW232067   1.224   1.921   1.845  1.8723  0.1709 -1.0076
10390SOL     OW32068   6.404   6.958   6.981  0.5596 -0.9207  0.6074
10390SOL    HW132069   6.315   6.933   7.019 -1.0092  1.3561 -1.2997
10390SOL    HW232070   6.428   6.894   6.908  0.8044 -1.8698  1.4905
10391SOL     OW32071   4.177   0.961   6.348 -0.2404 -0.0661 -0.3789
10391SOL    HW132072   4.088   0.951   6.394  0.3769 -0.1118  0.8519
10391SOL    HW232073   4.197   0.877   6.297 -0.5680 -0.3582 -0.0385
10392SOL     OW32074   4.210   3.107   0.900  0.4368  0.3268  0.2211
10392SOL    HW132075   4.120   3.143   0.875  0.0632 -1.4233 -1.1385
10392SOL    HW232076   4.203   3.054   0.985 -0.1467 -0.9823 -0.6171
10393SOL     OW32077   6.229   4.857   0.463 -0.4103  0.0955  0.1114
10393SOL    HW132078   6.257   4.879   0.556 -1.1924 -0.2352  0.4401
10393SOL    HW232079   6.146   4.801   0.466 -0.9576  0.8240 -0.8081
10394SOL     OW32080   4.713   4.140   3.420 -0.1581 -0.0888 -0.2386
10394SOL    HW132081   4.753   4.210   3.362  0.3815  0.3511  0.6352
10394SOL    HW232082   4.653   4.183   3.488  0.4107 -0.4402  0.4914
10395SOL     OW32083   6.719   2.940   1.090 -0.1498 -0.1736  0.6194
10395SOL    HW132084   6.787   2.889   1.037 -1.1865 -0.4223 -0.5307
10395SOL    HW232085   6.665   2.997   1.028 -1.1720 -0.1999  1.4620
10396SOL     OW32086   2.519   5.440   1.703 -0.2322  0.1526  0.2793
10396SOL    HW132087   2.493   5.381   1.627  0.7334 -0.0229  0.0714
10396SOL    HW232088   2.488   5.400   1.789  0.0135 -0.4293  0.0997
10397SOL     OW32089   6.312   2.062   6.764 -0.2251 -0.6812  0.3308
10397SOL    HW132090   6.309   2.108   6.853 -0.9133 -0.0118 -0.0238
10397SOL    HW232091   6.371   2.113   6.701  1.1955 -1.7744  0.7150
10398SOL     OW32092   3.346   4.869   3.509 -0.3436 -0.1700  0.1306
10398SOL    HW132093   3.349   4.917   3.597 -0.5890  2.0931 -1.0122
10398SOL    HW232094   3.251   4.850   3.485 -0.4276  0.8970 -0.4551
10399SOL     OW32095   1.985   3.456   0.187 -0.4318 -0.4417 -0.3908
10399SOL    HW132096   1.977   3.441   0.089  0.6683 -0.0599 -0.5480
10399SOL    HW232097   2.002   3.369   0.233  0.3811 -0.4537 -0.6948
10400SOL     OW32098   3.412   0.375   5.149 -0.2339 -0.1522 -0.4338
10400SOL    HW132099   3.374   0.337   5.065  2.0134 -2.5012 -0.4945
10400SOL    HW232100   3.497   0.424   5.129 -1.3409  2.1483  0.1181
10401SOL     OW32101   2.655   4.346   6.567  0.4536 -0.2344  0.5557
10401SOL    HW132102   2.678   4.252   6.542 -0.5296 -0.4720  0.5317
10401SOL    HW232103   2.559   4.352   6.591  0.9252  0.3963  2.4145
10402SOL     OW32104   3.944   6.272   6.261 -0.0497  0.5627  0.1881
10402SOL    HW132105   3.954   6.239   6.167 -0.2914  0.0562  0.3353
10402SOL    HW232106   3.854   6.246   6.296 -0.0167  0.8730  0.5144
10403SOL     OW32107   6.545   0.673   0.032  0.0042  0.0380  0.3868
10403SOL    HW132108   6.554   0.732  -0.048 -1.4639 -1.1372 -0.7122
10403SOL    HW232109   6.633   0.667   0.079  1.1442  0.1001 -1.6377
10404SOL     OW32110   3.557   1.357   1.104  0.1239 -0.4193  0.2812
10404SOL    HW132111   3.592   1.266   1.083 -0.0643 -0.6636  0.9925
10404SOL    HW232112   3.551   1.411   1.020 -0.5080 -1.3240 -0.2676
10405SOL     OW32113   3.164   6.057   2.012 -0.9174  0.4744  0.6160
10405SOL    HW132114   3.139   5.961   2.020 -0.5961  0.4713  1.8087
10405SOL    HW232115   3.102   6.112   2.069 -1.4570  1.0522 -0.4930
10406SOL     OW32116   4.620   4.507   6.512 -0.2109 -0.0219  0.4270
10406SOL    HW132117   4.635   4.457   6.426  0.1459  0.6669  0.0820
10406SOL    HW232118   4.591   4.443   6.583  0.0253 -0.6829 -0.0627
10407SOL     OW32119   5.256   2.414   1.349 -0.2969 -0.2638  0.0426
10407SOL    HW132120   5.282   2.322   1.320 -1.2079 -0.1402 -1.1967
10407SOL    HW232121   5.234   2.470   1.270  3.1093  1.9937  0.4578
10408SOL     OW32122   6.644   0.253   5.810 -0.2815  0.7364 -0.3295
10408SOL    HW132123   6.585   0.304   5.749 -1.6313  1.0766  1.1945
10408SOL    HW232124   6.590   0.188   5.863  0.9895 -0.2505 -0.1790
10409SOL     OW32125   4.315   0.239   0.563 -0.0533 -0.1914 -0.2795
10409SOL    HW132126   4.400   0.247   0.615  0.2792 -0.0465 -0.8383
10409SOL    HW232127   4.250   0.309   0.594 -0.4153 -1.0272  0.9527
10410SOL     OW32128   2.282   5.865   6.689 -0.8742  0.5024  0.6541
10410SOL    HW132129   2.225   5.786   6.666  0.8102 -1.0037  1.3925
10410SOL    HW232130   2.237   5.918   6.760 -2.3879  0.6625 -0.3905
10411SOL     OW32131   5.060   3.511   1.645 -0.3728 -0.5321 -0.3656
10411SOL    HW132132   5.079   3.606   1.618  1.9299 -0.1142  2.3122
10411SOL    HW232133   4.978   3.508   1.702  0.1614  0.0522  0.4534
10412SOL     OW32134   6.293   3.451   0.553  0.1469  0.5284 -0.5736
10412SOL    HW132135   6.317   3.442   0.649  1.4310  0.0015 -0.9204
10412SOL    HW232136   6.266   3.545   0.534 -2.9073  0.0508  0.8678
10413SOL     OW32137   5.643   4.039   1.800 -0.6723 -0.2109 -0.0510
10413SOL    HW132138   5.599   4.033   1.890  0.0807  1.8968  0.5248
10413SOL    HW232139   5.722   3.978   1.797 -0.5093 -0.0559  0.8495
10414SOL     OW32140   0.013   0.556   5.063  0.9422 -0.5238  0.4356
10414SOL    HW132141  -0.014   0.488   4.996 -0.6054 -0.5954  1.0826
10414SOL    HW232142  -0.069   0.597   5.104  1.8121  1.6922  0.1075
10415SOL     OW32143   5.808   1.278   4.082  0.6964  0.2035 -0.2173
10415SOL    HW132144   5.862   1.203   4.044  1.2336 -0.0778  1.0495
10415SOL    HW232145   5.856   1.365   4.068  0.9198  0.0945 -0.1263
10416SOL     OW32146   6.712   6.312   2.648 -0.1883 -0.0977 -0.5378
10416SOL    HW132147   6.742   6.330   2.554 -1.5626  1.2474 -0.7577
10416SOL    HW232148   6.791   6.289   2.704  1.0381  1.6014 -1.4719
10417SOL     OW32149   6.737   0.019   4.450 -0.1946 -0.4281  0.4879
10417SOL    HW132150   6.683   0.093   4.410  1.1202  0.4094  0.2217
10417SOL    HW232151   6.740  -0.058   4.386 -1.0071 -0.4578  0.4781
10418SOL     OW32152   0.449   1.140   6.568  0.3128  0.1012 -0.0237
10418SOL    HW132153   0.386   1.111   6.640  1.0879 -1.0265  0.2347
10418SOL    HW232154   0.442   1.076   6.491  1.5162 -0.3638  0.2344
10419SOL     OW32155   6.474   7.006   4.075 -0.5134 -0.5780  0.5281
10419SOL    HW132156   6.572   7.017   4.060 -0.5119 -1.7455 -0.4062
10419SOL    HW232157   6.426   7.089   4.043  0.0676 -0.4526 -0.0299
10420SOL     OW32158   6.719   3.724   2.730 -0.6378 -0.0926  0.6201
10420SOL    HW132159   6.694   3.633   2.764 -1.4523 -0.2420 -0.3197
10420SOL    HW232160   6.784   3.766   2.792 -1.3768 -0.7158  1.8497
10421SOL     OW32161   5.661   3.704   4.500  0.2436 -0.1180  0.0081
10421SOL    HW132162   5.646   3.802   4.483 -1.1669 -0.2618  0.3004
10421SOL    HW232163   5.691   3.691   4.594 -0.6312 -0.0519  0.2998
10422SOL     OW32164   5.750   3.697   3.174  0.2893 -0.0929  0.3255
10422SOL    HW132165   5.659   3.705   3.214  1.2420 -1.4614  2.9550
10422SOL    HW232166   5.785   3.788   3.151 -0.5955  0.7065  2.0077
10423SOL     OW32167   3.459   6.776   4.977 -0.0204 -0.8227  0.0336
10423SOL    HW132168   3.554   6.772   5.006 -0.1543 -2.4294  0.3012
10423SOL    HW232169   3.405   6.711   5.030 -1.1228 -0.5022 -0.6723
10424SOL     OW32170   6.499   0.547   5.849  0.1200  0.5081 -0.5839
10424SOL    HW132171   6.566   0.523   5.920 -1.1131 -1.4383  0.0184
10424SOL    HW232172   6.449   0.629   5.877 -1.1678 -0.8853  1.4880
10425SOL     OW32173   3.151   6.227   2.247  0.2067 -0.4947 -0.2043
10425SOL    HW132174   3.241   6.199   2.215 -0.5405 -1.7802 -1.3284
10425SOL    HW232175   3.129   6.178   2.332  0.5757 -0.1492  0.0917
10426SOL     OW32176   2.327   5.294   5.999  0.2107  0.4426 -0.5901
10426SOL    HW132177   2.229   5.301   6.019  0.1878  0.1946 -0.6048
10426SOL    HW232178   2.340   5.233   5.921  0.4657 -0.7601  0.3527
10427SOL     OW32179   0.109   6.073   2.927  0.5546 -0.4242 -0.8792
10427SOL    HW132180   0.091   6.028   3.015 -0.1043  0.1127 -0.7383
10427SOL    HW232181   0.207   6.068   2.908  0.8545  0.3220  0.3633
10428SOL     OW32182   5.515   6.632   6.575  0.6470 -0.1323  0.1070
10428SOL    HW132183   5.521   6.534   6.557  0.2216  0.1545 -1.8352
10428SOL    HW232184   5.427   6.667   6.543  1.9612  1.3825 -2.1231
10429SOL     OW32185   4.187   0.391   4.847  0.3570  0.1034  0.4122
10429SOL    HW132186   4.212   0.328   4.774  0.5767  0.3036  0.3120
10429SOL    HW232187   4.269   0.437   4.880  0.1500  0.5970  0.2425
10430SOL     OW32188   2.928   3.642   2.806  0.0813  0.2317  0.0382
10430SOL    HW132189   3.013   3.589   2.797  0.7275  0.8906  1.8063
10430SOL    HW232190   2.850   3.580   2.809  0.7662 -0.6131  1.3220
10431SOL     OW32191   0.629   4.736   2.848 -0.6375  0.5232  0.0087
10431SOL    HW132192   0.673   4.654   2.884  0.6909  0.1388 -2.2579
10431SOL    HW232193   0.672   4.817   2.889 -1.1142  0.1317  1.3383
10432SOL     OW32194   4.978   1.218   3.350  0.3822 -0.4838 -0.3947
10432SOL    HW132195   5.048   1.288   3.335  1.1305 -0.9843  0.6093
10432SOL    HW232196   4.894   1.243   3.302  0.7874  0.8561 -0.4340
10433SOL     OW32197   6.750   4.021   3.845 -0.0840  0.4586 -0.2149
10433SOL    HW132198   6.677   4.043   3.780  0.0121  1.8407  0.1228
10433SOL    HW232199   6.797   4.105   3.873  1.3324 -0.3601 -0.0585
10434SOL     OW32200   1.784   2.548   4.808  0.6432 -0.4937  0.2665
10434SOL    HW132201   1.810   2.630   4.860  1.3726 -1.2744  1.1573
10434SOL    HW232202   1.691   2.522   4.831  0.5346 -0.1309  0.2482
10435SOL     OW32203   6.633   0.493   0.260  0.2825  0.3108  0.0563
10435SOL    HW132204   6.731   0.479   0.243  0.3270 -0.8690  1.1500
10435SOL    HW232205   6.582   0.412   0.229 -0.1624  0.2363  0.9545
10436SOL     OW32206   5.001   2.750   0.944 -0.2584  0.2122 -0.6443
10436SOL    HW132207   5.083   2.754   0.887  0.3852 -0.6701  0.1939
10436SOL    HW232208   4.948   2.669   0.921 -0.6093  0.4732 -0.7801
10437SOL     OW32209   3.230   3.300   4.704  0.4070  0.4159  0.0661
10437SOL    HW132210   3.263   3.319   4.796  1.9059  0.4465 -0.4438
10437SOL    HW232211   3.140   3.256   4.709 -0.1315  1.6091  1.4756
10438SOL     OW32212   4.100   6.321   0.327  0.3088  1.0268  0.3387
10438SOL    HW132213   4.046   6.395   0.366  0.4395  1.3713 -0.1230
10438SOL    HW232214   4.050   6.280   0.251  0.9791  1.8072 -0.5446
10439SOL     OW32215   3.211   1.367   2.647  0.3912 -0.1974 -0.1736
10439SOL    HW132216   3.295   1.385   2.697 -0.0140  1.1271  0.0706
10439SOL    HW232217   3.186   1.270   2.657  0.4612 -0.0408  1.9899
10440SOL     OW32218   3.252   2.705   1.685 -0.4192 -0.1724  0.0002
10440SOL    HW132219   3.289   2.662   1.603  0.0408  0.2761 -0.0308
10440SOL    HW232220   3.170   2.655   1.714  0.4761 -1.4882  0.3587
10441SOL     OW32221   3.922   0.964   6.438 -0.0838 -0.2286 -0.2976
10441SOL    HW132222   3.929   1.049   6.490  0.5415 -0.3687 -0.1430
10441SOL    HW232223   3.881   0.983   6.349 -1.5762 -0.0557  0.3994
10442SOL     OW32224   3.555   5.918   6.389 -0.0301 -0.2420 -0.2288
10442SOL    HW132225   3.551   5.828   6.344 -2.7859 -0.1675 -0.2964
10442SOL    HW232226   3.515   5.910   6.481  0.8716  0.6736  0.2522
10443SOL     OW32227   5.581   1.450   5.897 -0.4785 -0.5838  0.3283
10443SOL    HW132228   5.592   1.547   5.875  0.4911 -0.2939  1.9443
10443SOL    HW232229   5.612   1.395   5.819  1.9474  0.4053  0.4938
10444SOL     OW32230   0.259   0.757   6.727  0.0440  0.3410 -0.0566
10444SOL    HW132231   0.274   0.837   6.669  0.4044 -0.6969 -1.4557
10444SOL    HW232232   0.347   0.716   6.750 -0.1742 -0.1194 -0.0317
10445SOL     OW32233   2.423   3.571   0.264  0.4976  0.4177  0.1302
10445SOL    HW132234   2.480   3.641   0.222  0.9723  0.6189  1.0947
10445SOL    HW232235   2.475   3.486   0.270 -0.2451 -0.2022 -1.5107
10446SOL     OW32236   2.028   1.722   2.913 -0.2787  0.6526 -0.0376
10446SOL    HW132237   2.113   1.699   2.962 -0.9358 -0.8069  0.4622
10446SOL    HW232238   2.026   1.821   2.896  0.9531  0.8945  1.0051
10447SOL     OW32239   3.009   4.116   0.105  0.6053  0.4937  0.3170
10447SOL    HW132240   3.087   4.068   0.066 -0.4476 -0.9611 -0.1112
10447SOL    HW232241   2.965   4.057   0.173 -0.9810  0.6570 -0.5186
10448SOL     OW32242   4.976   5.656   0.320  0.0448 -0.0145  0.4628
10448SOL    HW132243   4.966   5.730   0.386  2.3293  0.7888 -0.0072
10448SOL    HW232244   4.893   5.648   0.266 -0.2777  2.1878  0.5458
10449SOL     OW32245   4.857   4.449   3.604 -0.0894  0.4425 -0.0893
10449SOL    HW132246   4.916   4.518   3.646 -0.4855 -0.0614  1.3457
10449SOL    HW232247   4.914   4.386   3.550  0.4432  1.0461 -0.2490
10450SOL     OW32248   3.911   5.559   3.457  0.4029  0.1964 -0.0666
10450SOL    HW132249   3.836   5.583   3.395  0.9956 -0.7346 -1.1813
10450SOL    HW232250   3.955   5.475   3.425  1.8573  0.6641  0.6246
10451SOL     OW32251   3.002   6.138   4.774 -0.1389 -0.0543 -0.3044
10451SOL    HW132252   3.034   6.058   4.724 -2.1597 -0.5973 -0.8465
10451SOL    HW232253   3.080   6.192   4.805  1.2573  0.3962 -4.1070
10452SOL     OW32254   2.308   5.006   3.740  0.1705 -0.0036  0.2865
10452SOL    HW132255   2.383   5.070   3.721 -1.7320  2.2529 -0.0784
10452SOL    HW232256   2.222   5.045   3.708 -1.0780 -3.0039 -0.3297
10453SOL     OW32257   1.129   4.596   1.017 -0.0203 -0.1761 -0.0920
10453SOL    HW132258   1.095   4.580   1.109  2.5876 -0.3756  0.9285
10453SOL    HW232259   1.120   4.693   0.995  2.1867  0.5583  1.7514
10454SOL     OW32260   3.741   5.503   3.971 -0.5056  0.3816 -0.4022
10454SOL    HW132261   3.781   5.498   3.879  0.3705 -0.5309  0.0033
10454SOL    HW232262   3.672   5.575   3.974  0.7101  1.6275 -1.2854
10455SOL     OW32263   1.737   3.057   2.705 -0.1885  0.1156 -0.2066
10455SOL    HW132264   1.672   3.101   2.643 -0.1306  0.3281 -0.1188
10455SOL    HW232265   1.769   3.124   2.772  0.6316  0.1833 -0.6573
10456SOL     OW32266   5.447   0.637   4.369 -0.1165 -0.6388 -0.6754
10456SOL    HW132267   5.450   0.701   4.292 -0.1048  0.4608  0.2205
10456SOL    HW232268   5.357   0.594   4.373 -0.4286  0.0014 -0.7464
10457SOL     OW32269   6.125   6.562   3.790 -0.0261  0.2538  0.0443
10457SOL    HW132270   6.073   6.478   3.778 -0.2068  0.6401 -2.3614
10457SOL    HW232271   6.077   6.622   3.855 -0.4686 -1.0137  0.9206
10458SOL     OW32272   0.225   4.126   2.909  0.4883  0.2144 -0.3056
10458SOL    HW132273   0.241   4.034   2.874  0.9189  0.3451 -0.4619
10458SOL    HW232274   0.277   4.192   2.854 -0.8840  0.7073 -1.0514
10459SOL     OW32275   0.305   2.790   4.635 -0.0035  0.0522 -0.2961
10459SOL    HW132276   0.289   2.867   4.696 -1.1315 -1.2843  1.1775
10459SOL    HW232277   0.229   2.783   4.569  0.0983  0.2097 -0.4285
10460SOL     OW32278   2.930   6.859   1.297  0.9812 -0.2948  0.5833
10460SOL    HW132279   3.017   6.901   1.271  2.5107 -3.3490  0.2796
10460SOL    HW232280   2.923   6.856   1.397  1.2578 -0.1090  0.6101
10461SOL     OW32281   1.415   3.922   0.206 -1.3415 -0.0868  0.0309
10461SOL    HW132282   1.403   4.002   0.266 -0.4335 -0.8705  1.3104
10461SOL    HW232283   1.327   3.877   0.193 -1.8888  1.1651 -0.8047
10462SOL     OW32284   2.252   4.054   3.494 -0.3319 -0.5528  0.8088
10462SOL    HW132285   2.336   4.068   3.442 -0.9811 -1.7732 -0.6616
10462SOL    HW232286   2.189   4.130   3.477 -0.2674 -0.5974  0.3572
10463SOL     OW32287   0.322   4.463   3.497  0.1557 -0.3076  0.3169
10463SOL    HW132288   0.234   4.500   3.468 -0.0200 -0.3357  0.8085
10463SOL    HW232289   0.343   4.496   3.590  0.5411 -0.5057  0.3014
10464SOL     OW32290   4.647   4.402   4.701 -0.6031  0.4914  0.1901
10464SOL    HW132291   4.616   4.416   4.607 -0.3534  2.4305  0.3427
10464SOL    HW232292   4.601   4.467   4.761  0.3711  0.3176  1.1500
10465SOL     OW32293   5.020   6.000   1.393  0.0046  0.0955 -0.6461
10465SOL    HW132294   4.983   5.971   1.482 -1.1211 -0.4349 -1.2622
10465SOL    HW232295   5.061   6.091   1.402 -0.5294  0.2536  0.3133
10466SOL     OW32296   2.738   5.452   5.882  0.2161 -0.3492 -0.1047
10466SOL    HW132297   2.685   5.424   5.962 -0.7352  0.3105 -0.4953
10466SOL    HW232298   2.826   5.489   5.912  0.1275 -0.6844  0.5971
10467SOL     OW32299   5.405   6.175   5.140 -0.2676 -0.0034 -0.1723
10467SOL    HW132300   5.494   6.209   5.169  0.1052 -0.3487 -0.8954
10467SOL    HW232301   5.417   6.092   5.085 -0.9360  0.7682 -1.5290
10468SOL     OW32302   4.883   2.329   6.690 -0.0697 -0.1224 -0.3220
10468SOL    HW132303   4.837   2.309   6.604  0.5680 -0.3598 -0.6121
10468SOL    HW232304   4.815   2.340   6.763 -0.5734 -0.5763 -0.7187
10469SOL     OW32305   0.190   4.818   3.506  0.3307  0.2585 -0.4961
10469SOL    HW132306   0.177   4.881   3.582  0.9860 -1.0834  0.7845
10469SOL    HW232307   0.288   4.804   3.491  0.1958 -1.0417 -0.2413
10470SOL     OW32308   0.827   2.041   4.624  0.0804 -0.9028 -0.2365
10470SOL    HW132309   0.854   2.121   4.677  1.5498 -0.4252 -1.6198
10470SOL    HW232310   0.908   1.992   4.594 -0.6876 -1.3306 -1.7543
10471SOL     OW32311   1.391   0.246   1.145  0.2797 -0.1790 -0.3481
10471SOL    HW132312   1.367   0.337   1.114 -0.6504 -0.3318 -0.0889
10471SOL    HW232313   1.318   0.209   1.202  0.8163 -0.9330 -0.1282
10472SOL     OW32314   6.034   1.837   4.235  0.0034  0.0426 -0.0529
10472SOL    HW132315   6.107   1.873   4.178  0.1384  0.0047  0.0963
10472SOL    HW232316   5.945   1.862   4.195  0.0630  2.0288  0.9144
10473SOL     OW32317   5.040   4.392   0.222 -0.3237  0.3716 -0.0352
10473SOL    HW132318   4.955   4.399   0.169 -0.9632  1.6140  1.0823
10473SOL    HW232319   5.034   4.453   0.301  0.4024 -1.7490  1.7525
10474SOL     OW32320   6.577   6.734   4.483 -0.5949  0.4012 -0.1544
10474SOL    HW132321   6.614   6.779   4.403  0.3168  0.0105  0.0324
10474SOL    HW232322   6.652   6.701   4.541 -1.1152 -2.9893 -1.1810
10475SOL     OW32323   1.107   5.478   5.289  0.1639 -0.8880  0.1922
10475SOL    HW132324   1.115   5.406   5.359  0.6105 -2.3001 -1.2578
10475SOL    HW232325   1.118   5.438   5.199 -2.8537  0.4518 -0.9146
10476SOL     OW32326   0.011   1.067   6.353  0.7885 -0.5176 -0.0498
10476SOL    HW132327   0.034   1.154   6.396  1.8181 -0.4758 -0.6289
10476SOL    HW232328  -0.077   1.074   6.306  0.6378  0.0633  0.3201
10477SOL     OW32329   6.872   2.237   5.783  0.3083 -0.2759  0.1090
10477SOL    HW132330   6.941   2.282   5.726  0.9466 -2.0455 -0.6205
10477SOL    HW232331   6.834   2.302   5.848  2.1091  0.9447  0.0059
10478SOL     OW32332   5.281   4.991   5.690 -0.2870 -0.4630  0.1144
10478SOL    HW132333   5.351   4.925   5.717 -0.3974 -0.2750  0.8703
10478SOL    HW232334   5.287   5.007   5.591  0.1193 -1.1567  0.0243
10479SOL     OW32335   5.274   2.799   6.911  0.6111  0.0664 -0.2773
10479SOL    HW132336   5.270   2.840   7.003 -1.6076  2.9932 -1.5171
10479SOL    HW232337   5.186   2.756   6.890  1.5034 -1.6761 -0.6612
10480SOL     OW32338   1.002   6.713   3.318 -0.2764 -0.3429 -0.3928
10480SOL    HW132339   1.098   6.682   3.311 -0.1146 -0.0988  0.6228
10480SOL    HW232340   0.962   6.715   3.227  0.5855 -0.7815 -0.8016
10481SOL     OW32341   0.284   3.357   1.465  0.2005 -0.2119 -0.1974
10481SOL    HW132342   0.328   3.279   1.421  0.9666 -0.0399  0.2394
10481SOL    HW232343   0.270   3.338   1.562  0.0807  0.0623 -0.1592
10482SOL     OW32344   5.022   3.039   2.702 -0.2676  0.7004 -0.2192
10482SOL    HW132345   5.039   2.948   2.665 -0.1511  1.1680 -1.3238
10482SOL    HW232346   5.006   3.103   2.628 -0.8494  1.4920  0.5682
10483SOL     OW32347   3.911   5.174   6.261  0.0447 -0.2212  0.1181
10483SOL    HW132348   3.945   5.185   6.167 -1.9226  1.3078 -0.4844
10483SOL    HW232349   3.959   5.237   6.321  3.4613 -3.2114  0.8902
10484SOL     OW32350   1.144   5.853   2.178  0.5868 -1.2002  0.4271
10484SOL    HW132351   1.183   5.860   2.270 -0.7669  0.9308  0.9058
10484SOL    HW232352   1.044   5.856   2.185  0.4696 -1.0392 -1.1222
10485SOL     OW32353   3.207   4.014   2.678 -0.5182 -0.0672 -0.3956
10485SOL    HW132354   3.141   3.945   2.707 -0.1318  0.5131  2.0550
10485SOL    HW232355   3.245   4.060   2.758  3.2822 -0.7051 -1.6164
10486SOL     OW32356   1.315   0.756   2.851  0.3514  0.4615 -0.0535
10486SOL    HW132357   1.226   0.792   2.824 -0.3517 -0.7419  0.5925
10486SOL    HW232358   1.340   0.679   2.792  0.9682  0.7801 -0.2230
10487SOL     OW32359   2.881   0.490   3.668 -0.2246 -0.2737 -0.1344
10487SOL    HW132360   2.935   0.570   3.694 -2.6298  1.0720  1.0607
10487SOL    HW232361   2.900   0.415   3.732  1.1008 -0.2580 -0.4878
10488SOL     OW32362   2.241   5.531   1.867  0.1369 -0.0232 -0.2024
10488SOL    HW132363   2.322   5.540   1.926 -0.4512 -2.4958  1.1221
10488SOL    HW232364   2.179   5.607   1.885  0.2410 -0.3892  2.0411
10489SOL     OW32365   5.461   6.759   5.783  0.6262  0.3641  0.2618
10489SOL    HW132366   5.495   6.804   5.866  0.7989  0.3505  0.1992
10489SOL    HW232367   5.416   6.826   5.725 -0.3778  0.1920  0.8230
10490SOL     OW32368   1.754   0.700   1.742  0.0857 -0.1876  0.0494
10490SOL    HW132369   1.792   0.647   1.666 -0.5093 -0.6353  0.0532
10490SOL    HW232370   1.670   0.745   1.712 -1.9754 -2.9497  1.2588
10491SOL     OW32371   3.869   2.143   2.673 -0.8829 -0.2786  0.0552
10491SOL    HW132372   3.911   2.209   2.735 -1.2319  1.0841 -1.1249
10491SOL    HW232373   3.774   2.127   2.701 -0.9417  0.0837  0.0720
10492SOL     OW32374   5.809   3.954   2.116 -0.8809 -0.2250 -0.6058
10492SOL    HW132375   5.733   3.984   2.059 -2.1639 -2.1229  0.0031
10492SOL    HW232376   5.879   3.911   2.060 -1.4911 -0.8304 -0.9127
10493SOL     OW32377   0.896   2.002   0.226 -0.1351 -0.6237  0.5866
10493SOL    HW132378   0.886   1.984   0.324  1.6230 -0.3166  0.8478
10493SOL    HW232379   0.919   2.098   0.213  0.1648 -0.7862 -0.0930
10494SOL     OW32380   0.991   4.502   3.771 -0.8389 -0.2853  0.0775
10494SOL    HW132381   1.006   4.464   3.862 -1.3005 -2.6730 -0.7775
10494SOL    HW232382   1.068   4.477   3.711 -1.9442 -1.3661 -0.9456
10495SOL     OW32383   6.058   2.358   1.991  0.2000  0.3268 -0.1359
10495SOL    HW132384   6.078   2.345   2.088  0.3791 -0.8507 -0.3134
10495SOL    HW232385   6.028   2.271   1.951  0.4033  0.7250 -1.1951
10496SOL     OW32386   0.408   0.769   5.853  0.1985 -0.6745 -0.2737
10496SOL    HW132387   0.446   0.700   5.915  1.2490  0.8002  0.7714
10496SOL    HW232388   0.343   0.827   5.903  0.4063 -0.0020 -0.7741
10497SOL     OW32389   3.679   6.031   2.802 -0.2284  0.4500  0.6311
10497SOL    HW132390   3.778   6.027   2.786 -0.4020  2.5094 -1.5659
10497SOL    HW232391   3.654   6.122   2.834 -1.5030  0.2040  0.3871
10498SOL     OW32392   6.178   0.972   5.052 -0.1506  0.1061 -0.3545
10498SOL    HW132393   6.086   0.945   5.082 -0.0595 -0.4817 -0.5899
10498SOL    HW232394   6.227   1.014   5.128 -0.3265 -0.3293  0.0007
10499SOL     OW32395   4.085   6.961   0.352 -0.3019  0.0933  0.1709
10499SOL    HW132396   4.120   6.896   0.419  0.3479 -0.3643 -0.5973
10499SOL    HW232397   4.082   6.917   0.262 -0.2438  0.9968 -0.2778
10500SOL     OW32398   3.738   4.099   3.775 -0.0638 -0.0308 -0.1478
10500SOL    HW132399   3.806   4.030   3.750 -0.2027  0.3301 -1.6275
10500SOL    HW232400   3.711   4.150   3.693 -1.6531  0.2437  0.5091
10501SOL     OW32401   1.539   6.735   5.918  0.5278 -0.8036 -0.4583
10501SOL    HW132402   1.481   6.693   5.849  0.8062 -1.2704 -0.4137
10501SOL    HW232403   1.631   6.697   5.912  0.4968 -1.0303  0.3253
10502SOL     OW32404   4.388   6.409   3.781 -0.1045  0.2519  0.3593
10502SOL    HW132405   4.482   6.376   3.790 -0.8340 -2.2293 -0.2161
10502SOL    HW232406   4.331   6.367   3.851 -0.9071  1.3149  0.3699
10503SOL     OW32407   0.571   1.296   0.674  0.4102  0.6302 -0.3063
10503SOL    HW132408   0.624   1.377   0.646  0.5827 -0.4384 -3.5019
10503SOL    HW232409   0.513   1.267   0.598 -0.2882 -1.7650  1.0475
10504SOL     OW32410   2.825   1.642   5.651 -0.2361 -0.2399  0.5954
10504SOL    HW132411   2.812   1.555   5.699  0.2269 -0.2996  0.6185
10504SOL    HW232412   2.819   1.717   5.715 -1.5485 -0.1794  0.4387
10505SOL     OW32413   1.588   4.644   1.286 -0.0749 -0.5497  0.2835
10505SOL    HW132414   1.629   4.554   1.297  0.7265 -0.3254 -0.7413
10505SOL    HW232415   1.605   4.698   1.369  0.8444 -0.8057  0.2801
10506SOL     OW32416   1.284   6.917   1.254  0.0558 -0.0957  0.4560
10506SOL    HW132417   1.210   6.946   1.314  0.6617 -0.6568  1.4867
10506SOL    HW232418   1.347   6.857   1.303 -0.0581 -1.5318 -1.0534
10507SOL     OW32419   5.449   6.600   0.168  0.1487 -0.3609 -0.6777
10507SOL    HW132420   5.450   6.521   0.230 -0.1498  0.8104  0.8904
10507SOL    HW232421   5.358   6.640   0.166 -0.2116 -1.1802 -3.0053
10508SOL     OW32422   4.409   3.103   1.700  0.3597  0.0298  0.0040
10508SOL    HW132423   4.398   3.035   1.628  2.9661  0.0530 -0.5013
10508SOL    HW232424   4.472   3.069   1.769  0.8909  1.5072  0.2824
10509SOL     OW32425   5.351   4.677   4.356  0.0599 -0.3136 -0.0619
10509SOL    HW132426   5.346   4.624   4.440  0.4152  0.3923  0.4191
10509SOL    HW232427   5.263   4.674   4.308 -0.3160 -0.2699  0.6171
10510SOL     OW32428   1.294   6.977   0.209 -0.1958 -0.0747 -0.0835
10510SOL    HW132429   1.316   6.885   0.176  0.6568  0.0136  0.2119
10510SOL    HW232430   1.287   7.039   0.132  2.3178  0.2456 -0.1572
10511SOL     OW32431   0.348   2.331   6.019  0.2531  0.0141 -0.8023
10511SOL    HW132432   0.295   2.250   5.993  0.4205 -1.4793  2.9132
10511SOL    HW232433   0.445   2.308   6.019  0.3964  0.6075 -0.8493
10512SOL     OW32434   0.540   0.861   0.422  0.4101 -0.0693 -1.0109
10512SOL    HW132435   0.490   0.866   0.508  1.2734 -0.5824 -0.4653
10512SOL    HW232436   0.536   0.768   0.386 -0.9210  0.3894 -2.1429
10513SOL     OW32437   2.022   3.006   4.324 -0.0575  0.3482  0.4073
10513SOL    HW132438   1.947   3.033   4.385  0.2398  1.2212  0.4086
10513SOL    HW232439   2.054   3.087   4.274  1.5633  0.1969  1.1646
10514SOL     OW32440   4.551   1.983   5.485 -0.0888  0.1239  0.4062
10514SOL    HW132441   4.471   1.982   5.426 -0.3612 -2.0405  0.7562
10514SOL    HW232442   4.623   1.927   5.445  1.1412  1.6955  0.3056
10515SOL     OW32443   2.469   6.618   3.696  0.6981  0.2211 -0.1686
10515SOL    HW132444   2.510   6.535   3.656 -0.3496 -0.5696  0.3536
10515SOL    HW232445   2.476   6.693   3.630 -0.6692 -0.9635 -1.7421
10516SOL     OW32446   1.302   6.928   3.223 -0.2832  0.0355  0.3007
10516SOL    HW132447   1.391   6.939   3.267  0.7697 -0.5680 -1.6027
10516SOL    HW232448   1.269   6.835   3.238  0.5915 -0.5119 -1.0665
10517SOL     OW32449   6.430   5.117   0.517  1.0744 -0.2578  0.5556
10517SOL    HW132450   6.343   5.085   0.553 -0.9703 -0.9380 -4.2021
10517SOL    HW232451   6.427   5.217   0.506  1.0330 -0.2457  0.6743
10518SOL     OW32452   5.168   5.233   1.685  0.1279  0.0471 -0.1516
10518SOL    HW132453   5.113   5.158   1.649 -1.3869  1.3394 -0.6596
10518SOL    HW232454   5.164   5.311   1.622  1.2286  0.7349  0.5914
10519SOL     OW32455   1.514   4.201   3.908  0.2206  0.1949  0.0230
10519SOL    HW132456   1.558   4.192   3.818 -1.7570  2.3862 -1.2993
10519SOL    HW232457   1.423   4.160   3.905 -0.0330  0.6731  0.8596
10520SOL     OW32458   0.571   4.766   6.032 -0.5026 -0.0064 -0.1652
10520SOL    HW132459   0.583   4.743   6.129 -0.9394  2.7391  0.6430
10520SOL    HW232460   0.620   4.700   5.976  1.4888 -0.5667  2.0349
10521SOL     OW32461   4.706   6.983   1.021 -0.3179 -0.1459 -0.1778
10521SOL    HW132462   4.671   6.987   0.927 -3.4089 -1.1322  0.7967
10521SOL    HW232463   4.773   6.908   1.028  1.0637  0.8510 -1.8250
10522SOL     OW32464   1.331   1.402   0.237 -0.2622 -0.6966 -0.1439
10522SOL    HW132465   1.374   1.314   0.216  0.4092 -0.2557 -0.6501
10522SOL    HW232466   1.366   1.437   0.324  0.0347 -0.5754 -0.3114
10523SOL     OW32467   4.561   0.893   2.682  0.1613 -0.5073  0.3771
10523SOL    HW132468   4.612   0.899   2.596  0.7187  2.0921  0.8020
10523SOL    HW232469   4.588   0.810   2.730  0.3524 -1.6661 -1.6093
10524SOL     OW32470   1.735   0.389   3.631 -0.4451 -0.2594 -0.2479
10524SOL    HW132471   1.823   0.429   3.605  0.1360 -0.6322  1.0846
10524SOL    HW232472   1.700   0.436   3.712 -1.5715  0.0011 -0.8640
10525SOL     OW32473   5.451   1.309   3.695  0.1831  0.0555 -0.0566
10525SOL    HW132474   5.358   1.276   3.677 -0.1310  0.0251  1.5116
10525SOL    HW232475   5.448   1.377   3.769  1.1516  1.6525 -1.4129
10526SOL     OW32476   5.769   1.734   0.324 -0.2131 -0.3785 -0.1812
10526SOL    HW132477   5.748   1.641   0.352  0.2996 -0.3082  0.4697
10526SOL    HW232478   5.809   1.734   0.232 -0.5875 -0.7553 -0.3449
10527SOL     OW32479   3.800   3.000   0.137 -0.4097 -0.2837 -0.4118
10527SOL    HW132480   3.872   3.067   0.118 -2.7596  2.3627 -0.6249
10527SOL    HW232481   3.822   2.950   0.221  2.0072 -0.1751 -0.9160
10528SOL     OW32482   0.018   4.697   1.168  0.5745 -1.0796  0.5235
10528SOL    HW132483   0.100   4.640   1.166  1.8822  0.6671  1.4518
10528SOL    HW232484  -0.025   4.690   1.258  0.7315 -0.6472  0.6364
10529SOL     OW32485   4.683   2.063   4.352 -0.3081 -1.2988  0.2845
10529SOL    HW132486   4.599   2.098   4.392  0.3383 -0.5363  1.0130
10529SOL    HW232487   4.742   2.027   4.424  0.1763 -1.4135 -0.1605
10530SOL     OW32488   3.256   5.389   2.121  0.1202 -0.4724 -0.9343
10530SOL    HW132489   3.319   5.317   2.094 -0.6532 -1.2648 -0.6864
10530SOL    HW232490   3.289   5.433   2.205  1.4323  0.5846 -1.9579
10531SOL     OW32491   0.523   4.908   3.793 -0.6427  0.6348  0.2511
10531SOL    HW132492   0.456   4.926   3.722 -0.7747  1.5734  0.6035
10531SOL    HW232493   0.560   4.994   3.828 -0.7710  0.2072  1.4949
10532SOL     OW32494   3.334   4.166   1.372 -0.2490 -0.1368 -1.2812
10532SOL    HW132495   3.351   4.230   1.448  2.0055 -1.8883 -0.1666
10532SOL    HW232496   3.294   4.215   1.295 -0.8698  2.0975  0.3535
10533SOL     OW32497   4.290   6.515   6.566 -0.8551 -0.4739  0.0595
10533SOL    HW132498   4.245   6.602   6.587  0.3042  0.2623 -0.4479
10533SOL    HW232499   4.223   6.452   6.526 -1.8896 -0.1104  1.1522
10534SOL     OW32500   0.531   5.912   1.371  0.1528  0.4660 -0.4846
10534SOL    HW132501   0.582   5.842   1.420 -1.2166  0.4883  1.0653
10534SOL    HW232502   0.592   5.961   1.308  1.3448 -1.4066 -0.8556
10535SOL     OW32503   4.449   2.382   6.283 -0.4646 -0.0404  0.0875
10535SOL    HW132504   4.437   2.309   6.350 -0.3524  0.1746  0.3453
10535SOL    HW232505   4.415   2.352   6.194 -0.7445 -0.2788  0.2727
10536SOL     OW32506   6.811   2.630   4.580 -0.2117 -0.0557  0.5522
10536SOL    HW132507   6.797   2.560   4.510  0.4436 -0.3441  0.6969
10536SOL    HW232508   6.848   2.713   4.537  0.9809 -0.5154  0.6554
10537SOL     OW32509   3.118   3.705   2.414 -0.1332 -0.3700  0.7009
10537SOL    HW132510   3.074   3.640   2.352  1.8204 -0.4641 -0.7141
10537SOL    HW232511   3.078   3.796   2.402 -1.3998 -0.8524  1.0996
10538SOL     OW32512   6.026   4.632   5.950  0.2549 -0.5311 -0.6455
10538SOL    HW132513   6.041   4.538   5.980  1.5181  0.5946  2.8055
10538SOL    HW232514   5.957   4.675   6.008  0.3015  0.9063 -1.6062
10539SOL     OW32515   3.062   1.946   1.586 -0.2496  0.6493 -0.5079
10539SOL    HW132516   3.123   1.919   1.660 -1.8923  2.7095  1.7940
10539SOL    HW232517   3.087   2.037   1.552 -0.0298  0.0827 -1.9266
10540SOL     OW32518   6.485   5.891   4.006  0.0985  0.4113  0.1744
10540SOL    HW132519   6.406   5.857   4.056 -0.7559  0.5409 -1.0512
10540SOL    HW232520   6.550   5.932   4.070 -0.5043 -0.3104  1.2676
10541SOL     OW32521   3.748   3.920   1.947  0.2951  0.1772  0.1074
10541SOL    HW132522   3.700   3.944   1.863  0.2894  2.4471  0.7019
10541SOL    HW232523   3.844   3.946   1.940  0.4363 -0.2062  0.5685
10542SOL     OW32524   0.678   3.241   5.782  0.1378 -0.5637  0.3623
10542SOL    HW132525   0.679   3.338   5.806 -2.0734 -0.4705  0.2020
10542SOL    HW232526   0.597   3.197   5.820  1.3904 -2.5192  0.9341
10543SOL     OW32527   0.868   3.054   4.977  0.3992 -0.3925  0.4899
10543SOL    HW132528   0.916   3.126   4.926 -1.4192  1.4367  1.2176
10543SOL    HW232529   0.772   3.052   4.950  0.4420 -2.8355  0.2755
10544SOL     OW32530   0.866   4.793   2.626  0.1713  0.3743  0.0810
10544SOL    HW132531   0.802   4.860   2.589 -1.1505 -1.2770 -0.7760
10544SOL    HW232532   0.833   4.760   2.715 -0.1678 -0.4352 -0.3337
10545SOL     OW32533   5.872   6.011   2.112 -0.4503  0.3992 -0.4386
10545SOL    HW132534   5.896   5.957   2.192 -0.1217 -0.3720 -1.0394
10545SOL    HW232535   5.951   6.018   2.051 -0.4304  1.7100 -0.3063
10546SOL     OW32536   3.165   3.607   1.973 -0.2521  0.1621 -1.0403
10546SOL    HW132537   3.121   3.640   2.056 -0.2774 -1.6155 -0.3065
10546SOL    HW232538   3.261   3.635   1.972  0.1724 -1.0759  0.3990
10547SOL     OW32539   2.776   5.944   0.811 -0.0571 -0.1613  0.2167
10547SOL    HW132540   2.722   5.924   0.729 -1.0085  0.5793  0.6436
10547SOL    HW232541   2.733   6.018   0.862  1.2848  0.3385  0.6704
10548SOL     OW32542   4.256   5.375   2.393 -0.7535  0.5231  0.6898
10548SOL    HW132543   4.332   5.311   2.391 -0.0057  1.4148 -0.5897
10548SOL    HW232544   4.171   5.326   2.373 -0.3959 -0.2985  1.1254
10549SOL     OW32545   2.034   5.742   1.882  0.0956 -0.2540  0.9025
10549SOL    HW132546   1.972   5.729   1.805 -2.5889 -2.0734  3.1799
10549SOL    HW232547   1.993   5.806   1.947  2.2982  1.2280  0.9450
10550SOL     OW32548   0.291   3.465   4.912  0.0136 -0.2942  0.2735
10550SOL    HW132549   0.307   3.523   4.991  0.4712 -1.6122  1.1893
10550SOL    HW232550   0.278   3.521   4.830 -1.3034  1.1360  1.4073
10551SOL     OW32551   6.585   1.465   2.336  0.0673 -0.1504  0.0347
10551SOL    HW132552   6.496   1.438   2.373 -0.8565 -0.0588 -2.0184
10551SOL    HW232553   6.608   1.557   2.368 -0.6586 -0.0896  0.3969
10552SOL     OW32554   0.390   2.559   3.823  0.1226 -0.3601 -0.3455
10552SOL    HW132555   0.443   2.637   3.789 -1.2003  0.2237 -1.1706
10552SOL    HW232556   0.451   2.481   3.837  1.2548  0.3975 -0.8714
10553SOL     OW32557   5.583   3.445   1.607 -0.2272  0.9631  0.2803
10553SOL    HW132558   5.634   3.359   1.609 -0.0243  1.0549 -0.5748
10553SOL    HW232559   5.515   3.441   1.534  1.5198  2.4794 -1.5351
10554SOL     OW32560   4.175   0.694   2.040  0.5895 -0.3217 -0.9807
10554SOL    HW132561   4.266   0.660   2.019  0.0666 -0.9920 -2.2646
10554SOL    HW232562   4.111   0.617   2.048  0.2705  0.0734  0.7428
10555SOL     OW32563   5.956   5.763   2.649  0.4508  0.2776 -0.3278
10555SOL    HW132564   5.896   5.839   2.673 -1.2429 -1.0526 -0.0913
10555SOL    HW232565   5.907   5.677   2.665  0.9034 -0.8370 -4.0638
10556SOL     OW32566   3.558   6.648   0.141 -0.0344  0.5123  0.2522
10556SOL    HW132567   3.547   6.655   0.241  1.0407 -0.3416  0.4541
10556SOL    HW232568   3.469   6.657   0.097 -1.0732 -2.2778  1.4908
10557SOL     OW32569   0.048   4.910   0.728 -0.0372 -0.1208 -0.6033
10557SOL    HW132570  -0.028   4.926   0.666 -0.3617  0.7936  0.0009
10557SOL    HW232571   0.123   4.972   0.705 -0.1221  0.1560 -0.1589
10558SOL     OW32572   5.000   1.779   2.661 -0.3195 -0.7014  0.1708
10558SOL    HW132573   5.032   1.746   2.750  1.2351 -0.7823 -0.3838
10558SOL    HW232574   5.076   1.823   2.612 -1.4485  0.4295 -0.6280
10559SOL     OW32575   1.726   3.202   6.819  0.2595  0.0739  0.4680
10559SOL    HW132576   1.686   3.201   6.728 -1.2645 -0.0403  1.1067
10559SOL    HW232577   1.801   3.135   6.824 -0.8823 -1.3075 -0.1788
10560SOL     OW32578   4.593   1.555   4.530  0.6248  0.5498 -0.1096
10560SOL    HW132579   4.508   1.533   4.482 -0.0757  0.5613  1.0684
10560SOL    HW232580   4.641   1.627   4.481  0.5242 -0.2219 -1.4002
10561SOL     OW32581   6.383   0.332   1.288  0.1960 -0.0426  0.1709
10561SOL    HW132582   6.371   0.237   1.260 -2.2798  0.5680 -1.0452
10561SOL    HW232583   6.478   0.360   1.271  1.6385 -2.8516  2.6035
10562SOL     OW32584   4.630   1.592   3.963 -0.5091  0.4684  0.0279
10562SOL    HW132585   4.547   1.557   4.005 -0.2239  2.2776  2.2429
10562SOL    HW232586   4.709   1.569   4.020  0.2497  0.7131 -0.8850
10563SOL     OW32587   6.695   5.579   4.436  0.6008  0.5420  0.2736
10563SOL    HW132588   6.636   5.541   4.365 -0.1479 -0.2146  1.2512
10563SOL    HW232589   6.791   5.573   4.407  0.4766 -1.6524  0.1410
10564SOL     OW32590   1.519   4.590   4.831 -0.3318  0.4235 -0.3010
10564SOL    HW132591   1.547   4.497   4.855  0.1288  0.9440  1.3063
10564SOL    HW232592   1.600   4.645   4.810 -0.7011  0.0460 -3.0454
10565SOL     OW32593   5.092   4.256   6.970  0.0336  0.0475  0.0787
10565SOL    HW132594   5.067   4.274   7.065 -0.8938 -2.2074  0.3289
10565SOL    HW232595   5.186   4.286   6.953  0.6025 -0.5118  2.0454
10566SOL     OW32596   5.441   1.042   1.441  0.1951 -0.1405  0.0184
10566SOL    HW132597   5.504   1.114   1.413 -0.3318 -0.3721 -1.9351
10566SOL    HW232598   5.426   0.980   1.364 -0.2618 -1.6838  1.3049
10567SOL     OW32599   5.491   1.963   6.467 -0.0043 -0.0853  0.3582
10567SOL    HW132600   5.587   1.973   6.490  0.2281  1.0049 -0.9585
10567SOL    HW232601   5.437   2.027   6.522  0.1874  0.2923  0.1111
10568SOL     OW32602   6.227   0.707   3.616 -0.2106  0.7286  0.1461
10568SOL    HW132603   6.211   0.610   3.632  2.9372 -0.2444 -1.6089
10568SOL    HW232604   6.166   0.740   3.544 -1.3212  0.0892  0.7781
10569SOL     OW32605   4.356   6.495   5.240 -0.1155  0.3886 -0.4150
10569SOL    HW132606   4.360   6.413   5.298  2.3499 -0.5079 -1.6989
10569SOL    HW232607   4.337   6.575   5.296  0.4513 -0.6713  1.3698
10570SOL     OW32608   5.816   5.073   4.257 -0.1895 -0.0335  0.0871
10570SOL    HW132609   5.821   5.060   4.158  1.8989  1.8344 -0.1473
10570SOL    HW232610   5.727   5.111   4.282 -0.2254  0.8638 -1.2950
10571SOL     OW32611   2.638   6.736   0.080  0.1319 -0.1425 -0.4482
10571SOL    HW132612   2.604   6.644   0.100  0.4352 -0.1186  0.1812
10571SOL    HW232613   2.721   6.754   0.132  0.0470  0.5091 -0.5206
10572SOL     OW32614   6.023   3.990   3.503  0.4703 -0.1305  0.4838
10572SOL    HW132615   6.017   3.965   3.599 -0.7861 -1.0314  0.1972
10572SOL    HW232616   5.969   3.926   3.448 -3.0541  3.1047 -0.2843
10573SOL     OW32617   0.305   0.204   1.774 -0.1504 -0.0567 -0.1417
10573SOL    HW132618   0.245   0.162   1.706 -0.5532 -2.6377  1.6362
10573SOL    HW232619   0.340   0.291   1.740 -3.3200  0.5948 -2.0421
10574SOL     OW32620   5.977   5.363   6.270  0.8506 -0.5874 -0.1400
10574SOL    HW132621   5.941   5.352   6.178  1.6705 -1.1659 -0.4074
10574SOL    HW232622   5.902   5.376   6.335 -0.0252 -3.9148 -0.3501
10575SOL     OW32623   1.250   5.264   3.747 -0.1299  0.5195  0.3370
10575SOL    HW132624   1.320   5.333   3.768  1.2820 -0.4705 -0.8400
10575SOL    HW232625   1.293   5.188   3.697 -1.8978 -0.5765  0.4008
10576SOL     OW32626   6.352   1.282   4.908 -0.2609 -0.5712 -0.3318
10576SOL    HW132627   6.260   1.273   4.947 -0.1384  0.9466  0.3362
10576SOL    HW232628   6.386   1.191   4.885 -0.8600 -1.4205  1.8869
10577SOL     OW32629   1.918   3.734   3.663 -0.6159  1.1561 -0.0431
10577SOL    HW132630   1.919   3.652   3.721 -1.4621  1.9224  1.1114
10577SOL    HW232631   2.010   3.773   3.660 -0.0636 -0.1563 -1.1151
10578SOL     OW32632   4.261   1.909   2.447  0.4174 -0.3202 -0.2149
10578SOL    HW132633   4.249   1.938   2.351 -0.3675 -0.8844 -0.2886
10578SOL    HW232634   4.201   1.963   2.505 -1.1918 -1.8659 -0.3715
10579SOL     OW32635   5.516   6.084   3.012 -0.1753  0.5787  0.0437
10579SOL    HW132636   5.534   6.012   2.945 -0.3496 -1.6252  2.2408
10579SOL    HW232637   5.505   6.044   3.103  2.0031  3.5824  1.8305
10580SOL     OW32638   5.780   5.790   3.490  0.2288  0.3994 -0.7197
10580SOL    HW132639   5.764   5.759   3.584  1.9436 -2.1933 -1.1933
10580SOL    HW232640   5.695   5.829   3.454 -1.1280 -0.6599  1.1273
10581SOL     OW32641   4.028   1.314   6.872  0.1284 -0.4871 -0.4258
10581SOL    HW132642   4.024   1.413   6.855  2.7039 -0.5774 -2.0550
10581SOL    HW232643   4.064   1.298   6.964 -1.0478  0.0496  0.1540
10582SOL     OW32644   5.800   5.532   3.137  0.6014  0.2204  0.5805
10582SOL    HW132645   5.821   5.487   3.223  1.1800  0.2845  0.4770
10582SOL    HW232646   5.755   5.467   3.075  0.3163  0.1352  0.8757
10583SOL     OW32647   5.903   5.867   2.345 -0.1659  0.5810  0.1490
10583SOL    HW132648   5.811   5.856   2.384  0.8026  0.1182  2.4959
10583SOL    HW232649   5.966   5.894   2.418  1.7118  0.1523 -1.2583
10584SOL     OW32650   5.069   6.551   3.195  0.0537  0.0578 -0.3197
10584SOL    HW132651   5.036   6.464   3.231  0.7867 -0.4219 -0.8004
10584SOL    HW232652   5.098   6.610   3.270 -0.5137 -0.0788  0.0100
10585SOL     OW32653   2.602   5.025   5.902 -1.0221  0.1539 -0.0183
10585SOL    HW132654   2.598   5.014   6.001 -1.5836 -1.3953 -0.1988
10585SOL    HW232655   2.510   5.031   5.865 -0.8123  1.0712 -0.4407
10586SOL     OW32656   5.380   4.914   6.302 -0.1081  0.3679 -0.2569
10586SOL    HW132657   5.283   4.918   6.323 -0.3223 -2.8067 -0.1967
10586SOL    HW232658   5.417   5.007   6.297 -2.4789  1.6253  2.6116
10587SOL     OW32659   0.872   4.782   4.066  0.2801  0.0805  0.2837
10587SOL    HW132660   0.909   4.819   3.981  0.8291 -1.8261 -0.3573
10587SOL    HW232661   0.938   4.718   4.106 -0.8359 -0.6417  1.0318
10588SOL     OW32662   1.112   1.605   2.765 -0.2668  0.2843  0.0498
10588SOL    HW132663   1.173   1.637   2.693 -0.1035  1.1820  0.5620
10588SOL    HW232664   1.152   1.526   2.811  0.4809  0.8033  0.3137
10589SOL     OW32665   1.178   0.896   0.032  0.3765 -0.2932 -0.5713
10589SOL    HW132666   1.201   0.897  -0.065  0.7297 -0.7263 -0.4976
10589SOL    HW232667   1.197   0.805   0.069  0.0106 -0.2003 -0.1514
10590SOL     OW32668   6.932   0.776   0.958 -0.0217  0.1660 -0.0785
10590SOL    HW132669   6.926   0.873   0.934  0.2679  0.0892 -0.4755
10590SOL    HW232670   6.998   0.731   0.897 -1.0379 -0.5289 -0.6907
10591SOL     OW32671   1.071   1.000   4.552  0.2367 -0.3543 -0.7168
10591SOL    HW132672   1.143   1.066   4.572  1.5208 -2.0447  0.5235
10591SOL    HW232673   1.101   0.939   4.478 -0.5523 -0.1610 -1.2127
10592SOL     OW32674   6.348   4.725   6.472 -1.2453 -0.5491  0.3727
10592SOL    HW132675   6.318   4.648   6.415 -1.0824 -1.4464  1.4711
10592SOL    HW232676   6.285   4.802   6.459 -1.0511 -0.6138 -1.2237
10593SOL     OW32677   3.606   4.012   6.420  0.2204 -0.2953  0.1153
10593SOL    HW132678   3.565   4.055   6.339  3.8028 -0.1461 -1.8797
10593SOL    HW232679   3.683   4.068   6.452  1.1361 -2.1347  1.3401
10594SOL     OW32680   5.686   1.312   0.083  0.1527  0.7081 -0.7721
10594SOL    HW132681   5.759   1.246   0.104  0.0066  0.4531 -1.0473
10594SOL    HW232682   5.611   1.264   0.038 -1.5357  0.3909  2.1851
10595SOL     OW32683   1.248   2.380   1.970  0.3271  0.3376 -0.0160
10595SOL    HW132684   1.316   2.311   1.992 -1.4828 -1.6040 -0.1197
10595SOL    HW232685   1.225   2.375   1.873 -0.2174  0.7198  0.0857
10596SOL     OW32686   6.273   0.035   6.572 -0.3153 -0.3485 -0.0219
10596SOL    HW132687   6.234   0.050   6.482  1.5770  1.7669 -0.5786
10596SOL    HW232688   6.371   0.017   6.564 -0.6952 -3.7784  1.4250
10597SOL     OW32689   1.666   3.692   2.632 -0.0972  0.0554 -0.2370
10597SOL    HW132690   1.724   3.711   2.553  1.5444 -1.5833  0.5002
10597SOL    HW232691   1.570   3.689   2.603  0.5087 -1.1114 -2.3243
10598SOL     OW32692   4.796   2.552   6.410 -0.1893  0.1400  0.1030
10598SOL    HW132693   4.781   2.462   6.451 -1.2064 -0.1735 -0.8999
10598SOL    HW232694   4.737   2.562   6.329  0.9730  1.1374 -0.6560
10599SOL     OW32695   3.539   5.575   4.477  0.0698 -0.0673  0.3945
10599SOL    HW132696   3.521   5.481   4.505  0.0436 -0.3240 -0.4610
10599SOL    HW232697   3.568   5.628   4.556  0.1799 -0.8141  0.8667
10600SOL     OW32698   0.003   1.329   6.461  0.1495 -0.0530 -0.3542
10600SOL    HW132699  -0.092   1.331   6.494  0.5001  0.9057  0.6446
10600SOL    HW232700   0.065   1.323   6.538  0.9022 -1.6492 -1.0532
10601SOL     OW32701   2.235   5.767   0.990  0.4501 -0.2271  0.0766
10601SOL    HW132702   2.202   5.832   0.921 -0.9392  0.5055  1.3910
10601SOL    HW232703   2.274   5.817   1.067  1.1180 -1.0259  0.2707
10602SOL     OW32704   0.131   4.810   0.019  0.3836 -0.7816 -0.4268
10602SOL    HW132705   0.080   4.725   0.019  0.1388 -0.6405 -0.9129
10602SOL    HW232706   0.228   4.791   0.031  0.1018 -0.9536  1.8563
10603SOL     OW32707   3.711   1.837   6.592 -0.1563 -0.0769 -0.0701
10603SOL    HW132708   3.701   1.937   6.586 -0.2527 -0.1476 -1.3596
10603SOL    HW232709   3.686   1.796   6.505  0.5006 -1.1961  0.2520
10604SOL     OW32710   5.064   6.788   2.786 -0.2213 -0.2348 -0.6973
10604SOL    HW132711   5.159   6.762   2.803 -0.3462 -1.3323 -1.5496
10604SOL    HW232712   5.003   6.719   2.825 -0.5891 -0.8927 -2.3492
10605SOL     OW32713   2.276   6.820   1.286  0.2485  0.1372  0.1320
10605SOL    HW132714   2.215   6.859   1.216 -1.6000  0.3104  1.7583
10605SOL    HW232715   2.351   6.883   1.303  0.7097  0.1147 -1.6330
10606SOL     OW32716   6.719   1.156   2.151  0.5523 -0.2793 -0.0699
10606SOL    HW132717   6.695   1.252   2.160  0.2589 -0.2172 -1.3171
10606SOL    HW232718   6.650   1.099   2.195  1.4769  0.0979  1.9851
10607SOL     OW32719   5.774   0.979   0.814 -0.3983  0.1591  0.0077
10607SOL    HW132720   5.729   0.904   0.863  0.2115 -1.4914 -1.8287
10607SOL    HW232721   5.872   0.963   0.811 -0.3350  0.6418 -1.0332
10608SOL     OW32722   3.427   4.022   4.930  0.0168 -0.4043  0.0664
10608SOL    HW132723   3.344   4.069   4.901 -1.7240 -4.0213 -1.4423
10608SOL    HW232724   3.480   3.997   4.849  0.9152 -0.9515  0.8060
10609SOL     OW32725   4.464   1.885   2.639  0.3899  0.5196 -0.2852
10609SOL    HW132726   4.401   1.866   2.715  0.1382  0.0942 -0.5965
10609SOL    HW232727   4.420   1.862   2.553  1.1044 -0.1549 -0.4857
10610SOL     OW32728   6.129   3.945   5.533  0.2211 -0.0127  0.5174
10610SOL    HW132729   6.112   4.017   5.465  0.4016  0.2390  0.7415
10610SOL    HW232730   6.225   3.918   5.530  0.3015  0.2321  0.9065
10611SOL     OW32731   0.699   3.947   2.510  0.5795  0.0914 -0.5309
10611SOL    HW132732   0.685   3.977   2.605  2.4333 -0.0219 -0.1693
10611SOL    HW232733   0.717   4.027   2.453  0.4226  0.0809 -0.5946
10612SOL     OW32734   1.063   1.669   0.399 -0.1722 -0.2416 -0.6577
10612SOL    HW132735   1.103   1.717   0.321  1.8487  0.8403  0.9441
10612SOL    HW232736   1.046   1.574   0.374 -0.2805  0.2595 -2.6286
10613SOL     OW32737   0.926   2.527   2.110  0.6170  0.3062 -0.0665
10613SOL    HW132738   0.959   2.433   2.113 -0.5557 -0.1289 -0.2112
10613SOL    HW232739   0.964   2.578   2.187  1.0111 -0.3747  0.1998
10614SOL     OW32740   0.043   6.930   0.749  0.3974  0.1669 -0.6320
10614SOL    HW132741   0.042   6.873   0.831 -0.6861  1.2396  0.1496
10614SOL    HW232742  -0.023   6.895   0.683 -0.4009  0.5943 -0.0787
10615SOL     OW32743   2.799   3.294   5.549 -0.5609 -0.2816 -0.4618
10615SOL    HW132744   2.777   3.368   5.613  0.1618 -0.3429 -0.1235
10615SOL    HW232745   2.738   3.298   5.470  0.5909  1.7881 -1.3234
10616SOL     OW32746   5.658   0.702   2.940  0.2443 -0.2028 -0.2320
10616SOL    HW132747   5.649   0.603   2.930 -0.1555 -0.1974  0.0184
10616SOL    HW232748   5.751   0.725   2.967  0.1253 -0.5832  0.5323
10617SOL     OW32749   4.573   0.949   4.871  0.0474  0.1744 -0.1443
10617SOL    HW132750   4.568   0.894   4.788  0.6885  0.1324 -0.1561
10617SOL    HW232751   4.657   0.928   4.921 -1.0682 -0.9447  1.3349
10618SOL     OW32752   1.181   2.261   6.961 -0.4017  0.0707 -0.4093
10618SOL    HW132753   1.121   2.302   6.892  0.0473 -0.0153 -0.8560
10618SOL    HW232754   1.151   2.168   6.980 -0.0318 -0.1985 -1.1078
10619SOL     OW32755   4.660   5.845   1.640  0.4626  0.0878 -0.2351
10619SOL    HW132756   4.636   5.935   1.677  0.8192  0.2912 -0.4845
10619SOL    HW232757   4.749   5.817   1.675  0.2688 -0.2542 -0.0142
10620SOL     OW32758   1.534   5.820   1.605 -0.3222 -1.1307 -0.0911
10620SOL    HW132759   1.585   5.760   1.544 -0.1035 -0.5813 -0.4577
10620SOL    HW232760   1.475   5.765   1.663  1.3589 -1.8788  1.0079
10621SOL     OW32761   6.766   4.642   4.692  0.2745  0.2988 -0.4174
10621SOL    HW132762   6.682   4.692   4.672 -0.4135 -0.7052 -0.1078
10621SOL    HW232763   6.816   4.689   4.765  0.0043  0.9127 -0.6175
10622SOL     OW32764   4.571   3.156   1.189  0.2541  0.5319  0.1868
10622SOL    HW132765   4.584   3.128   1.284 -2.3622  1.1422  0.8036
10622SOL    HW232766   4.541   3.252   1.186  0.4101  0.5554 -1.2654
10623SOL     OW32767   6.653   3.373   2.185 -0.1769  0.1445 -0.2746
10623SOL    HW132768   6.563   3.343   2.154 -0.1828  0.1473 -0.2602
10623SOL    HW232769   6.651   3.386   2.285 -0.1339  0.0510 -0.2616
10624SOL     OW32770   3.196   4.934   4.561  0.6071 -0.3575 -0.3571
10624SOL    HW132771   3.288   4.918   4.598  0.6236 -0.8166 -0.5929
10624SOL    HW232772   3.167   5.027   4.585  0.3175 -0.8638  1.4610
10625SOL     OW32773   6.162   5.643   2.929 -0.1675  0.0175 -0.8551
10625SOL    HW132774   6.220   5.674   2.854  0.1031  0.1664 -0.5867
10625SOL    HW232775   6.088   5.710   2.944  0.9619  1.0669  0.3470
10626SOL     OW32776   2.955   0.865   6.657 -0.3669 -0.4584 -0.2545
10626SOL    HW132777   3.015   0.851   6.735  0.3136  2.4717 -0.1235
10626SOL    HW232778   2.861   0.878   6.689 -0.3320 -0.6589 -0.0694
10627SOL     OW32779   5.706   6.671   2.033  0.0431  0.1567 -0.2219
10627SOL    HW132780   5.692   6.710   2.124 -0.6019 -1.7430  0.5390
10627SOL    HW232781   5.676   6.736   1.963 -0.2277  1.3132  0.9477
10628SOL     OW32782   4.145   0.226   4.293  0.0719 -0.4974 -0.6034
10628SOL    HW132783   4.175   0.140   4.333  0.4764 -0.0888  0.0037
10628SOL    HW232784   4.087   0.275   4.359 -0.6255 -0.5549 -1.1590
10629SOL     OW32785   5.475   3.717   0.939 -0.2158 -0.0152  0.0671
10629SOL    HW132786   5.501   3.731   0.844 -1.2430  1.7310 -0.0152
10629SOL    HW232787   5.535   3.649   0.981  1.6516  0.7295 -1.2411
10630SOL     OW32788   2.531   6.759   6.435 -0.4373  0.5732 -0.0118
10630SOL    HW132789   2.518   6.686   6.502 -0.0776  0.9570  0.4889
10630SOL    HW232790   2.511   6.725   6.343  0.0642 -0.2470  0.1738
10631SOL     OW32791   6.704   6.670   6.863 -0.0426  0.0662  0.5752
10631SOL    HW132792   6.762   6.738   6.817 -1.4190  0.5840 -0.4689
10631SOL    HW232793   6.621   6.655   6.808 -0.4426 -1.3796  1.5349
10632SOL     OW32794   1.116   1.794   2.137  0.7431  0.1862  0.0235
10632SOL    HW132795   1.149   1.793   2.232  0.9326  0.9535 -0.0278
10632SOL    HW232796   1.120   1.702   2.099  3.7132  0.3542 -0.2742
10633SOL     OW32797   3.196   5.561   0.801  0.6442 -0.0476 -0.1650
10633SOL    HW132798   3.138   5.634   0.765  0.9557  0.5486  0.5191
10633SOL    HW232799   3.139   5.481   0.824 -0.0376  0.7847  1.1902
10634SOL     OW32800   4.829   1.837   3.136 -0.9349  0.8339 -0.7745
10634SOL    HW132801   4.830   1.768   3.064 -0.6370  1.7425 -1.6599
10634SOL    HW232802   4.737   1.843   3.175 -0.2321 -2.6026  1.8895
10635SOL     OW32803   4.188   0.972   4.987  0.4408 -0.4970 -0.1410
10635SOL    HW132804   4.098   1.011   4.965 -1.1523 -3.3405  0.8429
10635SOL    HW232805   4.244   1.043   5.030 -1.6809  1.1218  0.1600
10636SOL     OW32806   2.828   3.039   0.780 -0.2058 -0.0157 -0.0460
10636SOL    HW132807   2.754   3.035   0.847 -0.7393 -2.4025 -0.6867
10636SOL    HW232808   2.806   3.107   0.710 -0.7157  0.8759  0.9462
10637SOL     OW32809   5.993   1.870   3.802 -0.8000 -0.5393 -0.4372
10637SOL    HW132810   6.011   1.780   3.763  0.2224  0.3989 -2.2589
10637SOL    HW232811   6.077   1.923   3.803 -1.0335 -0.0844  2.0720
10638SOL     OW32812   3.516   2.032   1.803  0.2372 -0.1318 -0.3934
10638SOL    HW132813   3.482   2.042   1.710 -0.8230  1.8349  0.1574
10638SOL    HW232814   3.558   2.118   1.833  1.7654 -1.1309  0.5236
10639SOL     OW32815   6.852   6.891   1.153 -0.1271 -0.1732 -0.3980
10639SOL    HW132816   6.764   6.842   1.148  0.0139 -0.6430  1.2763
10639SOL    HW232817   6.915   6.851   1.087 -0.7107 -0.8057 -0.5975
10640SOL     OW32818   1.727   6.457   4.955 -0.1907  0.1312  0.1567
10640SOL    HW132819   1.660   6.384   4.968 -0.1110 -0.7522 -3.4171
10640SOL    HW232820   1.680   6.545   4.953 -1.0806 -0.3313 -0.6360
10641SOL     OW32821   5.126   6.602   1.581  0.2710 -0.9557 -0.6522
10641SOL    HW132822   5.170   6.519   1.616 -1.3591 -1.3488  0.6129
10641SOL    HW232823   5.062   6.577   1.508 -0.3455 -0.8478 -0.1547
10642SOL     OW32824   1.989   3.074   6.873 -0.3645  0.4400 -0.3177
10642SOL    HW132825   2.055   3.110   6.940 -0.2869 -0.3019  0.0271
10642SOL    HW232826   2.036   3.011   6.812 -0.7346 -0.0470 -0.1097
10643SOL     OW32827   6.145   1.716   1.346 -0.5141 -0.2428 -0.0573
10643SOL    HW132828   6.105   1.742   1.434 -0.0344 -0.6392  0.2856
10643SOL    HW232829   6.206   1.638   1.359  0.3443  0.3225 -0.5609
10644SOL     OW32830   2.187   3.148   4.628  0.0339 -0.1888 -0.2940
10644SOL    HW132831   2.246   3.068   4.615 -0.6596 -0.3997 -2.5236
10644SOL    HW232832   2.204   3.214   4.555 -0.7096  0.8903  0.4858
10645SOL     OW32833   5.901   0.921   2.450 -0.5507  0.2322 -0.5737
10645SOL    HW132834   5.921   0.885   2.360  2.5535 -0.7619  0.3907
10645SOL    HW232835   5.873   0.847   2.511  1.8514  0.0047  0.3657
10646SOL     OW32836   4.655   5.972   5.772  0.4095  0.3571 -0.0393
10646SOL    HW132837   4.630   5.878   5.751  0.2209  0.2887  0.4617
10646SOL    HW232838   4.693   5.976   5.865  1.8409  0.5361 -0.6151
10647SOL     OW32839   0.720   5.216   3.611 -0.1863 -0.2529 -0.1028
10647SOL    HW132840   0.684   5.221   3.704 -0.1432  0.0033 -0.0992
10647SOL    HW232841   0.788   5.143   3.605  1.2562  0.9684  0.5744
10648SOL     OW32842   0.299   5.855   6.237 -0.0473 -0.1373 -0.0152
10648SOL    HW132843   0.215   5.897   6.201  0.1491  0.4870  0.2463
10648SOL    HW232844   0.301   5.758   6.212 -0.2550  0.1264 -1.0693
10649SOL     OW32845   0.239   5.999   3.561  0.4387  0.0875 -0.3149
10649SOL    HW132846   0.159   6.022   3.617 -0.3371 -2.3010 -0.3520
10649SOL    HW232847   0.321   6.035   3.606 -0.3947  0.3186  1.0941
10650SOL     OW32848   5.441   5.729   0.314 -0.3559 -0.5907 -0.4525
10650SOL    HW132849   5.363   5.790   0.324  1.0204  1.1054  0.5971
10650SOL    HW232850   5.412   5.644   0.269 -3.3126 -1.0906  2.0620
10651SOL     OW32851   5.463   1.032   5.040 -0.1948 -0.3593 -0.2225
10651SOL    HW132852   5.501   0.987   4.959  0.2411 -0.7121  0.1706
10651SOL    HW232853   5.523   1.107   5.067 -0.6584  0.1487 -0.5802
10652SOL     OW32854   4.460   6.566   2.577  0.2102 -0.2396  0.4005
10652SOL    HW132855   4.413   6.647   2.540 -2.0227 -1.7635 -0.2745
10652SOL    HW232856   4.556   6.588   2.591 -0.0471  2.1501 -0.9516
10653SOL     OW32857   3.461   3.647   6.348  0.4528  0.2645 -0.0339
10653SOL    HW132858   3.557   3.661   6.322  1.1412 -2.0724  1.0100
10653SOL    HW232859   3.409   3.730   6.328  2.3487  1.0608 -2.0671
10654SOL     OW32860   3.475   5.897   6.644 -0.7643  0.1818  0.0164
10654SOL    HW132861   3.531   5.869   6.722 -0.8400 -0.5508 -0.1857
10654SOL    HW232862   3.462   5.996   6.646  1.7200  0.5882 -0.6960
10655SOL     OW32863   3.185   1.578   2.390 -0.6787 -0.8294  0.1880
10655SOL    HW132864   3.153   1.645   2.323 -0.1631  0.8723  1.5606
10655SOL    HW232865   3.177   1.616   2.482  2.2218 -1.5349  0.8399
10656SOL     OW32866   4.031   0.418   5.262  0.2423  0.3526  0.2498
10656SOL    HW132867   3.936   0.392   5.276  0.1347  0.7521  0.2825
10656SOL    HW232868   4.041   0.516   5.279  0.5586  0.4074 -0.2566
10657SOL     OW32869   5.216   1.608   0.066  0.0487  0.1250 -0.2200
10657SOL    HW132870   5.182   1.514   0.073 -1.3502  0.5232 -1.1000
10657SOL    HW232871   5.295   1.620   0.126 -1.2032 -0.9475  1.7542
10658SOL     OW32872   6.635   4.605   0.991 -0.1058 -0.4139 -0.4144
10658SOL    HW132873   6.649   4.568   1.083 -3.1894 -0.1235  0.2727
10658SOL    HW232874   6.713   4.661   0.965  0.8492 -0.5010  2.0249
10659SOL     OW32875   0.402   5.579   4.101  0.0385 -0.3312 -0.0093
10659SOL    HW132876   0.432   5.518   4.027 -1.5190  1.2971 -2.1374
10659SOL    HW232877   0.480   5.634   4.132  0.4158  0.2325 -1.7916
10660SOL     OW32878   6.973   0.150   4.542  0.2079 -0.5088  0.3345
10660SOL    HW132879   6.881   0.130   4.509 -0.3477 -0.0185  1.5010
10660SOL    HW232880   7.008   0.072   4.594  0.3202 -0.5685  0.1705
10661SOL     OW32881   3.060   4.660   6.295  0.1469  0.5181 -0.2155
10661SOL    HW132882   3.075   4.566   6.265  2.5130  0.9648 -0.6279
10661SOL    HW232883   3.021   4.660   6.387  1.5731 -0.8980  0.4356
10662SOL     OW32884   1.755   3.923   0.830 -0.1186 -0.1897  0.2511
10662SOL    HW132885   1.744   4.001   0.892 -1.1789  0.8522 -1.1688
10662SOL    HW232886   1.671   3.868   0.831  0.2242 -0.7141  0.4533
10663SOL     OW32887   2.583   3.694   5.662 -0.5373  0.1232 -0.8211
10663SOL    HW132888   2.533   3.657   5.583  0.5379  1.0670 -1.9982
10663SOL    HW232889   2.534   3.774   5.697 -0.6489  0.1360 -1.0017
10664SOL     OW32890   2.995   2.000   0.939  0.2653  0.4389  0.1499
10664SOL    HW132891   3.004   1.911   0.895  0.3272  0.3182  0.4033
10664SOL    HW232892   3.062   2.007   1.013  0.6816  0.9351 -0.2639
10665SOL     OW32893   6.160   5.512   2.497  0.3499  0.5107 -0.4021
10665SOL    HW132894   6.226   5.501   2.571  1.1317 -2.1038 -1.3741
10665SOL    HW232895   6.171   5.602   2.455 -1.2344  2.8135  3.5659
10666SOL     OW32896   3.586   5.286   3.816 -0.2593  0.1313  0.2779
10666SOL    HW132897   3.521   5.300   3.890 -0.1256  0.5371  0.3208
10666SOL    HW232898   3.674   5.257   3.853 -0.7441 -1.6242  0.1429
10667SOL     OW32899   1.119   2.791   3.891  0.6151 -0.0993  0.0223
10667SOL    HW132900   1.095   2.756   3.981  2.6120  1.4384  1.2191
10667SOL    HW232901   1.104   2.890   3.888 -0.5100 -0.2657 -1.7501
10668SOL     OW32902   1.930   3.941   1.868  0.1632 -0.4300  0.0303
10668SOL    HW132903   1.918   3.945   1.967 -0.2356  0.2110 -0.0450
10668SOL    HW232904   2.028   3.949   1.846  0.4126 -1.9789  0.4372
10669SOL     OW32905   3.448   1.096   4.315 -0.2821 -0.4977 -0.3831
10669SOL    HW132906   3.378   1.024   4.322 -0.7132  0.0265  0.9281
10669SOL    HW232907   3.520   1.080   4.383  0.9679 -1.0861 -1.7835
10670SOL     OW32908   4.275   4.351   6.049  0.6804 -0.2050 -0.3371
10670SOL    HW132909   4.215   4.393   6.117  2.5616 -0.0340  1.2981
10670SOL    HW232910   4.221   4.296   5.986 -1.0851 -0.9408  1.7096
10671SOL     OW32911   3.185   4.789   6.860  0.5199 -0.0628  0.3082
10671SOL    HW132912   3.188   4.871   6.803 -1.0277 -1.0015 -1.2511
10671SOL    HW232913   3.110   4.797   6.926 -1.3379 -1.1663 -1.5480
10672SOL     OW32914   4.256   0.969   3.373 -0.0699  0.2968 -0.2120
10672SOL    HW132915   4.306   1.010   3.297 -1.1625  2.2383  0.0311
10672SOL    HW232916   4.159   0.962   3.348 -0.1762 -0.5602  0.4182
10673SOL     OW32917   2.135   3.418   0.588 -0.7409 -0.1698 -0.4523
10673SOL    HW132918   2.221   3.468   0.576 -0.0628 -1.1957 -0.0228
10673SOL    HW232919   2.126   3.349   0.516 -0.3824 -1.1813  0.4516
10674SOL     OW32920   3.129   5.952   4.662 -0.0507 -0.2774  0.0739
10674SOL    HW132921   3.120   5.880   4.592  0.4648  0.8462 -1.1882
10674SOL    HW232922   3.206   5.930   4.721  0.0303 -0.8241 -0.2185
10675SOL     OW32923   5.778   3.260   3.087 -0.3465 -0.0916  0.5715
10675SOL    HW132924   5.842   3.331   3.117 -0.4648  0.0974  0.3839
10675SOL    HW232925   5.791   3.177   3.141 -0.7678  0.3453  1.3618
10676SOL     OW32926   0.186   2.004   1.435  0.0671 -0.3203  0.2661
10676SOL    HW132927   0.177   1.947   1.516 -2.0837  0.2457  0.4804
10676SOL    HW232928   0.173   2.100   1.459 -2.4018 -0.2750 -0.9361
10677SOL     OW32929   6.558   0.511   4.732  0.2028 -0.2044 -0.3462
10677SOL    HW132930   6.498   0.549   4.661  0.4545  0.5422 -0.1567
10677SOL    HW232931   6.648   0.492   4.692  0.4460  0.5244 -0.1497
10678SOL     OW32932   2.577   0.676   1.006 -0.1874  0.3553 -0.4494
10678SOL    HW132933   2.487   0.689   0.963 -0.4988  3.7665  0.9083
10678SOL    HW232934   2.649   0.705   0.944 -0.2192  0.0947 -0.6083
10679SOL     OW32935   0.522   0.783   6.811  0.5166 -0.3017  0.1056
10679SOL    HW132936   0.598   0.839   6.779 -0.9412  0.8248 -1.6066
10679SOL    HW232937   0.504   0.803   6.907  2.1133 -0.3230  0.4390
10680SOL     OW32938   3.687   0.348   3.430  0.2638  0.3635 -0.9120
10680SOL    HW132939   3.661   0.276   3.365 -4.5585 -0.9057  1.8431
10680SOL    HW232940   3.773   0.324   3.474 -0.0095 -2.6196 -1.7592
10681SOL     OW32941   5.470   1.225   6.272  0.0768  0.0547 -0.3139
10681SOL    HW132942   5.416   1.202   6.191  0.7140 -1.8125 -0.2758
10681SOL    HW232943   5.445   1.164   6.347  1.5871 -0.2898 -0.0431
10682SOL     OW32944   2.115   6.519   5.308  0.0087 -0.0570 -0.0579
10682SOL    HW132945   2.158   6.429   5.315  1.0672  0.2706 -1.8382
10682SOL    HW232946   2.129   6.556   5.216 -1.3172  1.4879  0.3138
10683SOL     OW32947   3.324   2.054   3.574 -0.3670 -0.1114 -0.2956
10683SOL    HW132948   3.236   2.097   3.555 -1.3935 -2.1733 -0.6048
10683SOL    HW232949   3.315   1.994   3.654  1.0364  0.3956  0.2673
10684SOL     OW32950   1.035   5.527   5.964  0.3943  0.3730  0.0546
10684SOL    HW132951   1.099   5.604   5.966  1.4765 -0.4641  2.7749
10684SOL    HW232952   0.946   5.557   5.998 -0.5535  1.3391 -2.9549
10685SOL     OW32953   2.546   0.691   3.771  0.0400  0.4269  0.1281
10685SOL    HW132954   2.591   0.672   3.684 -2.0541  0.1657 -0.9618
10685SOL    HW232955   2.447   0.686   3.759 -0.3025 -1.0476  2.8767
10686SOL     OW32956   2.035   5.454   4.299  0.3706  0.3960 -0.2310
10686SOL    HW132957   2.010   5.428   4.392  0.9514  0.8930  0.0690
10686SOL    HW232958   1.966   5.516   4.262  0.0546  0.0704 -0.1954
10687SOL     OW32959   1.531   5.732   3.353  0.9433  0.1871 -0.0547
10687SOL    HW132960   1.575   5.652   3.312  1.1690  0.6761 -0.7891
10687SOL    HW232961   1.465   5.702   3.422  2.5275 -0.5605  1.2111
10688SOL     OW32962   5.319   6.969   6.359  0.2096 -0.3130  0.7638
10688SOL    HW132963   5.406   7.010   6.385  0.3787  0.1683 -0.4868
10688SOL    HW232964   5.246   7.037   6.369  0.4453  0.2556 -1.0248
10689SOL     OW32965   5.374   5.102   2.459  0.1748  0.1135  0.5841
10689SOL    HW132966   5.358   5.154   2.543  2.4941  1.3075  0.3847
10689SOL    HW232967   5.362   5.004   2.477 -0.2283  0.4143  2.0651
10690SOL     OW32968   3.618   0.961   2.026  0.1953 -0.0987  0.0454
10690SOL    HW132969   3.709   0.969   2.067  0.1769  0.3982 -0.0024
10690SOL    HW232970   3.572   1.050   2.029 -0.2950 -0.3483  0.0789
10691SOL     OW32971   0.517   5.786   4.882  0.5971 -0.3079 -0.3660
10691SOL    HW132972   0.512   5.844   4.963 -0.4260  0.5121 -0.9964
10691SOL    HW232973   0.480   5.695   4.904  0.2300 -0.0590  0.0597
10692SOL     OW32974   5.155   2.432   2.399 -0.1852  0.1146 -0.2836
10692SOL    HW132975   5.230   2.393   2.345 -1.0161 -0.2398 -1.2179
10692SOL    HW232976   5.069   2.423   2.348 -0.7005  1.4878  0.2916
10693SOL     OW32977   1.693   3.062   0.592  0.2069 -0.4183  0.4735
10693SOL    HW132978   1.597   3.039   0.575  0.5082 -0.6771 -0.9973
10693SOL    HW232979   1.702   3.099   0.684 -1.4789  0.5471  0.2984
10694SOL     OW32980   2.485   2.533   4.631 -0.6512 -0.2317 -0.1663
10694SOL    HW132981   2.564   2.472   4.639 -1.3861 -1.1951  0.0565
10694SOL    HW232982   2.456   2.562   4.722  0.3710  1.3839 -0.3278
10695SOL     OW32983   4.286   6.826   4.385 -0.0468 -0.6273 -0.2427
10695SOL    HW132984   4.248   6.865   4.469 -0.3907  0.8042 -1.0222
10695SOL    HW232985   4.212   6.811   4.319  0.6142  2.4115 -1.8717
10696SOL     OW32986   0.462   0.481   1.734  0.2886  0.3736  0.4291
10696SOL    HW132987   0.397   0.552   1.761 -2.7838 -1.3852 -1.7528
10696SOL    HW232988   0.544   0.524   1.696 -1.3435  2.8043 -0.6045
10697SOL     OW32989   3.376   3.645   6.760 -0.7294 -0.6556  0.1328
10697SOL    HW132990   3.410   3.739   6.753 -1.6057 -0.2713  0.8200
10697SOL    HW232991   3.449   3.582   6.736  0.4443  0.1432  1.4193
10698SOL     OW32992   0.341   4.149   4.685 -0.4738 -0.1962  0.3670
10698SOL    HW132993   0.435   4.117   4.697 -0.4600 -0.0950  0.5281
10698SOL    HW232994   0.294   4.146   4.773  0.1696  2.2927  0.8881
10699SOL     OW32995   0.162   6.488   6.726  0.9204  0.3875 -0.6834
10699SOL    HW132996   0.208   6.477   6.814 -1.8085 -1.0155  0.6965
10699SOL    HW232997   0.213   6.438   6.656  1.1538 -1.7700  0.9095
10700SOL     OW32998   4.114   1.424   0.756  0.4319  0.3118 -0.2136
10700SOL    HW132999   4.164   1.490   0.811 -1.4447  1.8274 -0.2130
10700SOL    HW233000   4.070   1.357   0.816 -0.4365  1.1113  0.0689
10701SOL     OW33001   6.468   2.082   1.145  0.8294 -0.2956 -0.3525
10701SOL    HW133002   6.401   2.011   1.165  1.6313 -0.8952  0.3091
10701SOL    HW233003   6.426   2.172   1.156 -0.5868 -0.6210 -2.5083
10702SOL     OW33004   4.049   6.793   5.997 -0.5843 -0.0329 -0.6087
10702SOL    HW133005   3.959   6.824   5.965 -0.9410  0.1315  0.5392
10702SOL    HW233006   4.037   6.730   6.074  0.2689 -0.4406 -0.7983
10703SOL     OW33007   0.034   0.612   3.990  0.3329  0.1365  0.1886
10703SOL    HW133008  -0.040   0.593   4.055 -0.6713 -1.1853 -1.2714
10703SOL    HW233009   0.063   0.527   3.946  2.4748  0.6996  0.4165
10704SOL     OW33010   6.491   3.955   2.236 -0.0860  0.0411  0.2664
10704SOL    HW133011   6.410   3.916   2.279 -1.4793  0.3958 -1.8417
10704SOL    HW233012   6.566   3.890   2.239 -1.1024 -1.1492  0.4082
10705SOL     OW33013   3.783   0.959   4.768 -0.4264  0.1544 -0.0199
10705SOL    HW133014   3.740   0.950   4.858 -1.3070 -1.5325 -0.5523
10705SOL    HW233015   3.878   0.928   4.772 -0.6450 -0.5004  0.2201
10706SOL     OW33016   5.964   1.037   1.556 -0.0443  0.1560  0.4749
10706SOL    HW133017   5.923   1.126   1.576  0.3271  0.5395 -0.4341
10706SOL    HW233018   6.058   1.050   1.525  0.1203 -0.5817  0.6449
10707SOL     OW33019   1.555   0.597   6.486  0.5063  0.2487 -0.8588
10707SOL    HW133020   1.459   0.614   6.508  0.6487 -0.8548  0.7904
10707SOL    HW233021   1.603   0.684   6.479 -0.2423  0.7623  0.1713
10708SOL     OW33022   4.792   5.125   3.554 -0.3649 -0.0276  0.3125
10708SOL    HW133023   4.729   5.190   3.598  0.9515  2.0235 -0.6543
10708SOL    HW233024   4.883   5.167   3.546  0.7476 -2.3162  0.2899
10709SOL     OW33025   3.567   3.152   6.034 -0.3431 -0.2050  0.3595
10709SOL    HW133026   3.475   3.189   6.035 -0.1163  0.3914  1.4757
10709SOL    HW233027   3.593   3.129   5.941 -0.9984  1.2072 -0.2029
10710SOL     OW33028   5.734   6.404   0.820  0.2324  0.3659  0.9046
10710SOL    HW133029   5.682   6.323   0.847 -2.0377  2.0970  2.0187
10710SOL    HW233030   5.745   6.465   0.899  2.3338  0.9729  0.2199
10711SOL     OW33031   2.255   2.798   4.882 -0.1315  0.7203 -0.5580
10711SOL    HW133032   2.314   2.721   4.907 -0.9037  0.1699 -0.4048
10711SOL    HW233033   2.283   2.880   4.933  0.7359  0.5673 -0.7730
10712SOL     OW33034   3.521   3.840   4.384 -0.7439 -0.0812 -0.3216
10712SOL    HW133035   3.535   3.938   4.395  0.7998 -0.3233  0.1721
10712SOL    HW233036   3.473   3.804   4.464  1.5545 -0.1946  1.1150
10713SOL     OW33037   3.874   2.797   6.990  0.1081  0.2190 -0.0033
10713SOL    HW133038   3.847   2.872   7.050  0.5280 -0.2267  0.7613
10713SOL    HW233039   3.939   2.831   6.922  1.2623  0.3257  1.1064
10714SOL     OW33040   5.487   5.499   3.270 -0.4286  0.3082  0.5065
10714SOL    HW133041   5.500   5.452   3.183 -1.0747  1.3688 -0.1875
10714SOL    HW233042   5.568   5.488   3.327  0.1763 -0.0212 -0.4093
10715SOL     OW33043   1.924   2.959   2.540  0.1369  0.3193 -0.1300
10715SOL    HW133044   1.835   2.971   2.584 -0.0489 -0.0786 -0.3932
10715SOL    HW233045   1.911   2.924   2.448  0.6456 -2.4845  0.7637
10716SOL     OW33046   1.664   0.635   3.380  0.3238  0.3675 -0.5920
10716SOL    HW133047   1.690   0.575   3.304 -0.3962 -0.4129 -0.2381
10716SOL    HW233048   1.587   0.692   3.353 -1.0030 -1.0537  0.0356
10717SOL     OW33049   0.808   3.712   3.085  0.1722  0.3643 -0.0490
10717SOL    HW133050   0.840   3.806   3.071 -0.1216  0.4840  0.0701
10717SOL    HW233051   0.766   3.678   3.001 -0.3388  0.5843  0.1186
10718SOL     OW33052   5.218   5.622   5.621  0.2060  0.2260 -0.4476
10718SOL    HW133053   5.118   5.620   5.619  0.2001  0.7502 -0.7357
10718SOL    HW233054   5.253   5.646   5.530  0.6200 -0.8095 -0.5866
10719SOL     OW33055   5.958   3.238   2.877 -0.4942  0.1179 -0.3398
10719SOL    HW133056   5.976   3.280   2.788 -1.7356  1.7787  0.1649
10719SOL    HW233057   5.872   3.272   2.913 -0.8274 -1.7902  0.7800
10720SOL     OW33058   0.264   3.840   3.811  0.4384 -0.4999 -0.7481
10720SOL    HW133059   0.290   3.914   3.749 -0.7606  1.4976  0.9980
10720SOL    HW233060   0.166   3.822   3.803  0.4674 -0.9445 -0.1939
10721SOL     OW33061   5.007   0.509   4.682  0.7828  0.3712  0.1130
10721SOL    HW133062   5.068   0.500   4.604  0.3286  3.0993 -0.6680
10721SOL    HW233063   5.060   0.500   4.767  1.9696  0.9374 -0.5359
10722SOL     OW33064   3.274   1.733   6.023  0.3240 -0.2743 -0.5417
10722SOL    HW133065   3.210   1.661   6.050 -0.3558 -0.7605 -3.1336
10722SOL    HW233066   3.301   1.719   5.927  1.6127  1.9085 -0.5664
10723SOL     OW33067   4.985   2.803   3.044  0.0866  0.4854  0.4419
10723SOL    HW133068   5.068   2.757   3.012  0.3575  1.4112 -0.2089
10723SOL    HW233069   4.962   2.877   2.981 -1.5035 -0.0557  0.3440
10724SOL     OW33070   2.834   0.474   4.237  0.3511 -0.4976 -0.1321
10724SOL    HW133071   2.854   0.547   4.172 -0.9995  0.1016  0.0847
10724SOL    HW233072   2.815   0.513   4.327 -3.5672 -0.7139 -0.7039
10725SOL     OW33073   3.423   3.324   0.422  0.4267 -0.3351  0.1956
10725SOL    HW133074   3.466   3.245   0.379 -0.9758  0.1781 -2.3339
10725SOL    HW233075   3.333   3.299   0.457  1.8508 -0.9667  3.9073
10726SOL     OW33076   6.553   4.365   0.956  0.7408 -0.6014 -0.6116
10726SOL    HW133077   6.575   4.462   0.966  0.5766 -0.6662  0.4807
10726SOL    HW233078   6.634   4.310   0.978  0.4258 -0.7489  0.1929
10727SOL     OW33079   0.374   1.474   0.012  0.0507  0.1995  0.8248
10727SOL    HW133080   0.372   1.550   0.078  1.7181  0.1530  0.9813
10727SOL    HW233081   0.451   1.487  -0.050 -1.7972  0.5253 -1.5347
10728SOL     OW33082   2.535   2.446   5.736  0.1144 -0.7356  0.5684
10728SOL    HW133083   2.484   2.371   5.695  0.2710  0.7474 -2.6314
10728SOL    HW233084   2.472   2.521   5.759  0.0721 -1.4219  2.9480
10729SOL     OW33085   4.105   6.411   4.431 -0.0209 -0.1196 -0.2767
10729SOL    HW133086   4.064   6.331   4.388  0.3429 -0.5802  0.2212
10729SOL    HW233087   4.184   6.441   4.377 -0.5923  0.3577 -0.8642
10730SOL     OW33088   3.338   4.640   5.533  0.0358  0.3642  0.1520
10730SOL    HW133089   3.410   4.703   5.503  0.5505 -0.5047 -0.4850
10730SOL    HW233090   3.252   4.664   5.487  0.1223  0.8532  0.2352
10731SOL     OW33091   6.760   0.188   6.581 -0.0966  0.0667  0.8584
10731SOL    HW133092   6.708   0.206   6.498 -0.4501  2.0925  1.4785
10731SOL    HW233093   6.742   0.260   6.648  2.2606 -0.0456  1.6868
10732SOL     OW33094   4.549   2.542   1.120  0.3352 -0.0192  0.7857
10732SOL    HW133095   4.591   2.543   1.030 -0.6509 -0.4278  0.3014
10732SOL    HW233096   4.449   2.541   1.111  0.2183 -0.5341  1.8670
10733SOL     OW33097   4.123   4.215   5.252  0.1612 -0.6959 -0.2357
10733SOL    HW133098   4.204   4.261   5.218 -0.2753 -0.6101 -1.1728
10733SOL    HW233099   4.042   4.271   5.234 -0.0894 -0.6523  0.9323
10734SOL     OW33100   6.413   3.871   5.779 -0.1465  0.5215 -0.0971
10734SOL    HW133101   6.337   3.873   5.843  0.3785  1.0311  0.5201
10734SOL    HW233102   6.443   3.964   5.758 -0.9475  0.4217 -1.8752
10735SOL     OW33103   1.363   6.123   4.646  0.4585  0.5204  0.2296
10735SOL    HW133104   1.293   6.108   4.576  2.1467 -1.5356 -1.1281
10735SOL    HW233105   1.370   6.221   4.667 -1.0326  1.0268 -1.4426
10736SOL     OW33106   3.353   1.000   5.100 -0.3912 -0.1533 -0.2456
10736SOL    HW133107   3.303   1.048   5.028  1.7373  1.8336 -0.5294
10736SOL    HW233108   3.361   0.903   5.077  0.3729  0.4451 -2.8234
10737SOL     OW33109   5.391   4.580   1.290  0.2903  0.3971  0.2130
10737SOL    HW133110   5.486   4.610   1.286  0.5938 -0.6447 -2.3032
10737SOL    HW233111   5.385   4.495   1.342  1.0337 -0.3383 -0.8448
10738SOL     OW33112   6.209   0.749   6.186 -0.4496 -0.0441 -0.1732
10738SOL    HW133113   6.296   0.794   6.207 -0.9881  1.8570 -1.7202
10738SOL    HW233114   6.135   0.796   6.234 -0.7901 -0.8611  0.1285
10739SOL     OW33115   6.956   6.536   0.902  0.4149 -0.3692  0.1712
10739SOL    HW133116   6.887   6.565   0.835  0.1132  0.3004  0.7552
10739SOL    HW233117   6.912   6.523   0.991  1.0713  0.2919  0.6037
10740SOL     OW33118   1.957   3.745   5.403 -0.7674  0.6371  0.0364
10740SOL    HW133119   1.872   3.797   5.411 -0.8600  0.8440 -1.7595
10740SOL    HW233120   1.955   3.691   5.318  0.2331 -0.6078  0.7689
10741SOL     OW33121   6.890   0.862   6.477 -0.2656  0.3079 -0.3507
10741SOL    HW133122   6.923   0.947   6.436  0.6476 -0.4035 -1.1275
10741SOL    HW233123   6.944   0.841   6.558 -1.0464  0.8960  0.3360
10742SOL     OW33124   5.785   5.420   4.566  0.1936  0.0371 -0.0240
10742SOL    HW133125   5.760   5.328   4.534  0.0017 -0.5582  1.7267
10742SOL    HW233126   5.850   5.461   4.502  1.9370 -2.1583  0.2145
10743SOL     OW33127   4.764   6.365   1.771  0.5057  0.0362  0.1254
10743SOL    HW133128   4.759   6.439   1.704  0.6608 -0.1355 -0.0775
10743SOL    HW233129   4.856   6.362   1.811  1.0493 -1.1358 -1.1280
10744SOL     OW33130   6.677   1.148   4.196  0.1028  0.2391  0.0935
10744SOL    HW133131   6.676   1.160   4.097  0.6275 -0.8180 -0.0612
10744SOL    HW233132   6.585   1.123   4.228 -0.4445  2.1404  0.1174
10745SOL     OW33133   1.959   6.480   2.170 -0.1919 -0.3745  0.7949
10745SOL    HW133134   1.978   6.574   2.201  0.7019 -0.3512  0.1947
10745SOL    HW233135   1.861   6.470   2.154  0.0183  1.5876 -2.6698
10746SOL     OW33136   6.386   0.828   3.905 -0.1075  0.2407 -0.1971
10746SOL    HW133137   6.437   0.835   3.820 -0.7879 -0.7062 -0.7020
10746SOL    HW233138   6.384   0.917   3.950  0.4671  0.6965 -1.0426
10747SOL     OW33139   6.932   0.390   0.778  0.3456 -0.7101  0.3945
10747SOL    HW133140   6.889   0.448   0.709  0.7518 -0.7658  0.0899
10747SOL    HW233141   6.878   0.307   0.790 -1.7158  0.8034  2.7067
10748SOL     OW33142   6.954   0.206   5.191 -0.4695 -0.1468 -0.2092
10748SOL    HW133143   6.972   0.108   5.176  1.1172  0.2605 -1.1100
10748SOL    HW233144   7.038   0.258   5.178 -1.5736  1.5018 -1.1146
10749SOL     OW33145   3.586   0.832   1.193 -0.0989  0.1389  0.4518
10749SOL    HW133146   3.657   0.768   1.221 -1.6323 -2.6623 -1.5721
10749SOL    HW233147   3.496   0.791   1.210 -1.2893  2.9277  1.5025
10750SOL     OW33148   0.464   3.909   0.381  0.4606 -0.2352  0.0096
10750SOL    HW133149   0.466   4.006   0.358  2.0595 -0.0210  0.9345
10750SOL    HW233150   0.382   3.889   0.435 -1.5660 -0.0847 -2.7906
10751SOL     OW33151   1.066   4.747   4.526  0.3617 -0.2317 -0.2997
10751SOL    HW133152   1.034   4.841   4.516  1.0272  0.0297  0.0018
10751SOL    HW233153   0.987   4.686   4.541  0.0400  0.4716  0.9693
10752SOL     OW33154   0.414   3.892   5.020 -0.0856 -0.1985  0.2414
10752SOL    HW133155   0.475   3.845   4.956 -0.5539 -0.0510 -0.3257
10752SOL    HW233156   0.455   3.892   5.111  1.8743  1.8700 -0.5311
10753SOL     OW33157   1.073   1.655   5.501 -0.2253  0.2450  0.5383
10753SOL    HW133158   1.106   1.702   5.419  2.2531 -0.8379  0.8174
10753SOL    HW233159   1.012   1.581   5.475  1.0759 -0.5332 -0.4622
10754SOL     OW33160   2.904   5.646   2.649  0.3231 -0.0058 -0.1258
10754SOL    HW133161   2.914   5.609   2.742 -0.0298  1.3338  0.4658
10754SOL    HW233162   2.978   5.611   2.592  0.7100 -0.6365  0.7319
10755SOL     OW33163   4.764   6.422   0.244 -0.0595 -0.4836  0.1767
10755SOL    HW133164   4.748   6.453   0.337  0.5823 -1.7334  0.7210
10755SOL    HW233165   4.682   6.375   0.210 -0.9869  1.5740 -0.6047
10756SOL     OW33166   0.148   5.448   2.525  0.6879 -0.0011 -0.2851
10756SOL    HW133167   0.205   5.507   2.583  0.6327 -0.3200  0.0999
10756SOL    HW233168   0.151   5.481   2.431 -0.0028  1.1277  0.0597
10757SOL     OW33169   1.088   5.455   3.053 -0.1070 -0.1463 -0.5298
10757SOL    HW133170   1.100   5.523   3.125 -0.4770  0.5408 -1.1121
10757SOL    HW233171   1.158   5.384   3.063  1.6509  1.4105 -1.1574
10758SOL     OW33172   2.460   6.651   6.186 -0.2479  0.4409  0.1215
10758SOL    HW133173   2.545   6.608   6.157 -0.8151 -0.9680  0.4515
10758SOL    HW233174   2.385   6.620   6.128 -1.0011 -0.6002  1.5701
10759SOL     OW33175   3.032   1.009   4.767 -0.4462 -0.3462 -0.3734
10759SOL    HW133176   3.046   0.925   4.820 -0.3466 -0.9773 -1.3835
10759SOL    HW233177   2.988   1.077   4.826  0.3396 -0.7623  0.7426
10760SOL     OW33178   1.836   1.395   3.187  0.6583  0.5173 -0.4015
10760SOL    HW133179   1.882   1.395   3.098  0.1286 -1.3849 -0.7091
10760SOL    HW233180   1.737   1.393   3.174  0.5608  0.7888  0.2399
10761SOL     OW33181   6.598   4.998   3.614 -0.5345  0.7012 -0.1416
10761SOL    HW133182   6.539   4.950   3.549 -0.5591  1.4376 -0.6862
10761SOL    HW233183   6.607   4.944   3.697  0.1430 -0.6395 -1.0515
10762SOL     OW33184   6.618   6.781   1.159  0.2497 -0.7887 -0.4010
10762SOL    HW133185   6.553   6.802   1.232  0.7814  0.6313 -0.3140
10762SOL    HW233186   6.570   6.732   1.086 -0.3383 -2.0193  0.7598
10763SOL     OW33187   3.503   5.117   5.344 -0.0035  0.7375 -0.0268
10763SOL    HW133188   3.430   5.156   5.400  0.5998 -1.3757  2.4048
10763SOL    HW233189   3.586   5.106   5.399  0.0832 -3.2126 -0.6359
10764SOL     OW33190   1.490   2.140   2.569 -0.2874 -0.2985  0.2041
10764SOL    HW133191   1.394   2.165   2.559  0.0544  0.9754 -0.0588
10764SOL    HW233192   1.538   2.156   2.483  0.4614  0.5386  0.7508
10765SOL     OW33193   2.261   5.422   4.147 -0.4298 -0.3084 -0.3996
10765SOL    HW133194   2.176   5.437   4.197  0.4586  1.0105  0.8247
10765SOL    HW233195   2.294   5.509   4.110  2.0215 -0.0738  2.0008
10766SOL     OW33196   4.712   2.730   6.857 -0.5387  0.2162 -0.1072
10766SOL    HW133197   4.708   2.748   6.758  0.9372  1.4478  0.0199
10766SOL    HW233198   4.662   2.801   6.906 -2.6907 -1.2667  0.0310
10767SOL     OW33199   1.206   1.961   2.640  0.7458 -0.3413 -1.2958
10767SOL    HW133200   1.159   1.977   2.727  0.7346 -1.0945 -1.1545
10767SOL    HW233201   1.151   1.997   2.565  0.4370 -0.2933 -1.0469
10768SOL     OW33202   1.969   6.256   2.384  0.0119 -0.1139  0.1579
10768SOL    HW133203   1.982   6.292   2.292  0.7068 -0.5892  0.0620
10768SOL    HW233204   2.047   6.280   2.441  1.4425 -2.9814 -0.4155
10769SOL     OW33205   3.759   1.286   5.837  0.0644  0.5397 -0.1391
10769SOL    HW133206   3.854   1.274   5.810  0.1251  0.2259  0.2038
10769SOL    HW233207   3.737   1.384   5.840  0.1537  0.5931 -0.9556
10770SOL     OW33208   3.175   6.792   2.285  0.3772  0.0532 -0.2760
10770SOL    HW133209   3.132   6.753   2.366 -0.3453  0.2088 -0.5779
10770SOL    HW233210   3.128   6.760   2.203  1.3599 -0.4328 -0.6675
10771SOL     OW33211   2.474   5.513   2.020 -0.2601 -0.4839 -0.4453
10771SOL    HW133212   2.563   5.553   1.997 -1.9211  2.9067 -1.5880
10771SOL    HW233213   2.439   5.555   2.104 -1.2722 -0.9161 -0.6407
10772SOL     OW33214   1.406   5.723   6.210 -0.1210 -0.0090  0.2594
10772SOL    HW133215   1.379   5.819   6.216  0.6056  0.2715 -0.7072
10772SOL    HW233216   1.325   5.665   6.222 -0.6224  0.7275  0.5118
10773SOL     OW33217   1.840   4.278   3.151 -0.5523  0.1094  0.3356
10773SOL    HW133218   1.755   4.330   3.161  0.1671  1.3890  0.0867
10773SOL    HW233219   1.885   4.303   3.065  0.0625 -0.5738  0.4419
10774SOL     OW33220   3.943   1.666   6.052 -0.0595  0.3575  0.6403
10774SOL    HW133221   4.012   1.732   6.081  1.3264 -0.4364 -0.7413
10774SOL    HW233222   3.879   1.650   6.128  0.2409  2.3790  1.3788
10775SOL     OW33223   0.754   2.441   0.615 -0.1502  0.3863  0.0811
10775SOL    HW133224   0.798   2.363   0.660  0.8754  0.3601 -0.9360
10775SOL    HW233225   0.662   2.414   0.585  0.0104 -0.2796  0.1703
10776SOL     OW33226   6.694   2.415   4.696 -0.1045 -0.4044 -0.1510
10776SOL    HW133227   6.724   2.511   4.694 -1.4336  0.0449  0.2232
10776SOL    HW233228   6.754   2.363   4.757  1.6801 -0.2201 -1.6699
10777SOL     OW33229   3.896   0.596   0.081  0.0128 -0.3543  0.1593
10777SOL    HW133230   3.937   0.636   0.163  0.5445  1.4312 -0.9048
10777SOL    HW233231   3.797   0.614   0.081 -0.1735 -1.3403  0.9267
10778SOL     OW33232   6.583   2.235   2.432 -0.2378 -0.2451 -0.0886
10778SOL    HW133233   6.612   2.310   2.492 -0.0265 -0.5164  0.1529
10778SOL    HW233234   6.588   2.149   2.482 -0.2859 -0.4459 -0.4278
10779SOL     OW33235   1.969   0.221   0.165 -0.3356  0.5020 -0.4579
10779SOL    HW133236   1.944   0.146   0.104 -0.5913  0.4660 -0.3062
10779SOL    HW233237   2.029   0.284   0.115 -0.1703  0.2330 -0.6046
10780SOL     OW33238   4.983   4.039   6.527  0.1997  0.0847  0.1079
10780SOL    HW133239   4.935   4.116   6.485  0.1677 -0.6222 -1.1751
10780SOL    HW233240   4.938   3.953   6.503  0.9918 -0.4421  0.4576
10781SOL     OW33241   1.497   3.665   3.657  0.7084  0.0467 -0.1827
10781SOL    HW133242   1.529   3.576   3.689  0.8690 -0.0123 -0.5018
10781SOL    HW233243   1.563   3.703   3.592  1.0666  0.7916  0.6072
10782SOL     OW33244   4.013   0.068   1.799  0.5512  0.0460  0.4015
10782SOL    HW133245   3.955  -0.014   1.806 -0.2385  0.4093 -1.3799
10782SOL    HW233246   4.008   0.119   1.885 -0.7703 -0.5902  0.7374
10783SOL     OW33247   6.351   3.724   2.793  0.0198  0.2675 -0.0329
10783SOL    HW133248   6.434   3.669   2.787  0.4694  1.0787 -1.6596
10783SOL    HW233249   6.328   3.739   2.890  2.6552  1.3415  0.5152
10784SOL     OW33250   3.893   5.430   0.233 -0.5341 -0.7462  0.0306
10784SOL    HW133251   3.962   5.496   0.265  0.8142  0.0346 -3.8805
10784SOL    HW233252   3.881   5.358   0.302  2.3460  0.4323  1.9609
10785SOL     OW33253   2.205   2.049   1.757 -0.1563 -0.5932  0.6722
10785SOL    HW133254   2.295   2.006   1.749 -0.3024 -0.5567 -2.1338
10785SOL    HW233255   2.218   2.147   1.775  0.5853  0.0083 -2.5180
10786SOL     OW33256   0.946   5.336   1.891 -0.5374 -0.0608  0.5359
10786SOL    HW133257   1.046   5.339   1.891 -0.5422  0.1930  0.3242
10786SOL    HW233258   0.915   5.242   1.877 -0.3150  0.2013 -2.2174
10787SOL     OW33259   6.607   2.463   6.761 -0.1455  0.4221 -0.1473
10787SOL    HW133260   6.524   2.475   6.707 -0.6086  1.0403  0.6775
10787SOL    HW233261   6.622   2.365   6.777 -2.1001  0.3506  1.7384
10788SOL     OW33262   1.656   0.099   3.114 -0.1034 -0.0530 -0.3167
10788SOL    HW133263   1.604   0.026   3.070  1.7195 -1.2503 -0.5794
10788SOL    HW233264   1.647   0.090   3.213  0.4092 -0.9066 -0.3333
10789SOL     OW33265   6.128   1.373   3.351 -0.3073 -0.2140 -0.0308
10789SOL    HW133266   6.142   1.366   3.252  1.1676 -0.6933  0.1880
10789SOL    HW233267   6.173   1.456   3.385 -1.5210  0.4006  0.1428
10790SOL     OW33268   0.358   4.399   5.575 -0.2409  0.4501  0.1075
10790SOL    HW133269   0.353   4.424   5.478 -1.6617 -1.1689 -0.2889
10790SOL    HW233270   0.445   4.355   5.593 -0.0776  0.5063 -0.5057
10791SOL     OW33271   3.024   1.263   6.929  0.4210 -0.0273  0.6578
10791SOL    HW133272   3.116   1.288   6.898 -0.3452  0.8279 -0.9883
10791SOL    HW233273   3.032   1.190   6.998  2.3510  0.4221  0.9764
10792SOL     OW33274   1.035   4.874   3.406  0.2194  0.2711  0.3810
10792SOL    HW133275   1.097   4.795   3.412  3.0045  2.3148  0.8558
10792SOL    HW233276   1.057   4.926   3.323 -0.2997  1.4933  0.9877
10793SOL     OW33277   1.494   1.918   4.235  0.1466 -0.2868  0.6743
10793SOL    HW133278   1.505   1.851   4.162  0.0485  1.1443 -0.7187
10793SOL    HW233279   1.526   1.879   4.321  2.1245 -1.3818 -0.4789
10794SOL     OW33280   5.355   1.949   2.115 -0.3708  0.3938  0.0709
10794SOL    HW133281   5.260   1.976   2.133 -0.6537 -0.0818 -0.6325
10794SOL    HW233282   5.371   1.949   2.016 -0.0914 -0.9606  0.0950
10795SOL     OW33283   1.298   0.554   2.200  0.5746 -0.0499 -0.0534
10795SOL    HW133284   1.341   0.635   2.241  0.7001  0.6179 -1.4230
10795SOL    HW233285   1.199   0.562   2.207  0.5659  0.5374 -0.7135
10796SOL     OW33286   1.055   1.817   3.569  0.0712 -0.3356 -0.2980
10796SOL    HW133287   1.041   1.793   3.665  1.1604 -1.1508 -0.3197
10796SOL    HW233288   0.971   1.799   3.518 -0.1678 -0.9729  0.3025
10797SOL     OW33289   0.458   1.358   6.101 -0.5415  0.3833 -0.5560
10797SOL    HW133290   0.443   1.284   6.035 -1.1040 -1.7825  1.8515
10797SOL    HW233291   0.369   1.392   6.133 -0.3459 -0.5880  1.1254
10798SOL     OW33292   2.756   3.268   5.984  0.7194  0.1970  0.0137
10798SOL    HW133293   2.771   3.288   6.081  3.4143 -0.7872 -0.1190
10798SOL    HW233294   2.754   3.354   5.932  0.0644  0.6818  0.8098
10799SOL     OW33295   5.208   1.390   1.974 -0.5112 -0.3972 -0.0635
10799SOL    HW133296   5.195   1.297   2.009  1.2453  0.0295  1.9133
10799SOL    HW233297   5.119   1.437   1.971 -1.1291 -1.4465  0.9477
10800SOL     OW33298   3.375   6.714   0.786 -0.4321 -0.0457 -0.1573
10800SOL    HW133299   3.381   6.711   0.886 -1.0163 -2.4901 -0.1111
10800SOL    HW233300   3.301   6.653   0.756  2.3624 -2.8087 -2.1962
10801SOL     OW33301   2.058   0.917   2.650 -0.3666  0.4716  0.1145
10801SOL    HW133302   2.031   0.892   2.557  1.8325 -1.3530 -0.1256
10801SOL    HW233303   2.100   1.007   2.651  1.0734 -0.1554 -1.0075
10802SOL     OW33304   6.071   3.298   3.367 -0.5072 -0.2806  0.0130
10802SOL    HW133305   5.972   3.290   3.381 -0.4699  1.1913  1.3428
10802SOL    HW233306   6.090   3.384   3.320  0.3551  1.1938  2.8922
10803SOL     OW33307   2.879   5.131   2.217 -0.2068  0.0270  0.2863
10803SOL    HW133308   2.879   5.031   2.208 -0.0927 -0.2877  2.8434
10803SOL    HW233309   2.945   5.171   2.154 -0.2346 -1.5017 -0.7669
10804SOL     OW33310   0.772   1.789   3.470 -0.2559  0.0559 -0.0031
10804SOL    HW133311   0.752   1.773   3.373  2.1340  0.1971 -0.5702
10804SOL    HW233312   0.702   1.849   3.509 -1.4889 -0.3388 -1.5211
10805SOL     OW33313   3.219   4.870   0.238 -0.0653  0.2923  0.3150
10805SOL    HW133314   3.141   4.819   0.274  0.6525 -0.9439  0.1805
10805SOL    HW233315   3.299   4.810   0.235  0.5500  1.1324 -0.8284
10806SOL     OW33316   0.969   2.576   2.544  0.5202  0.1315 -0.8322
10806SOL    HW133317   1.049   2.615   2.498 -0.1519  1.7873 -0.6539
10806SOL    HW233318   1.000   2.507   2.610  2.1763  2.9440  1.5712
10807SOL     OW33319   6.655   5.562   3.503 -0.1700 -0.3855  0.6235
10807SOL    HW133320   6.634   5.544   3.600 -0.4340 -0.7130  0.5075
10807SOL    HW233321   6.583   5.618   3.463  0.4042  0.5417  0.8546
10808SOL     OW33322   6.996   1.670   1.563 -0.1477  0.4758 -0.3071
10808SOL    HW133323   6.993   1.577   1.600  1.5375 -0.1945 -1.7149
10808SOL    HW233324   7.073   1.719   1.604 -0.4393  0.9261 -0.2957
10809SOL     OW33325   4.394   1.219   2.436 -0.0855  0.5975  0.0337
10809SOL    HW133326   4.348   1.284   2.376 -0.0513 -0.8746 -1.6894
10809SOL    HW233327   4.463   1.168   2.383 -0.7580 -1.4656  1.0314
10810SOL     OW33328   3.158   1.366   6.577  0.9142 -0.0950  0.2256
10810SOL    HW133329   3.134   1.272   6.553 -0.9161  0.7335 -1.4168
10810SOL    HW233330   3.078   1.424   6.569  2.1350  1.7281  0.6764
10811SOL     OW33331   2.741   5.264   1.913 -0.4459 -0.1278  0.4420
10811SOL    HW133332   2.818   5.213   1.952 -0.3517  0.9786  1.7877
10811SOL    HW233333   2.764   5.296   1.821 -0.3489 -2.0996 -0.2577
10812SOL     OW33334   3.353   1.734   6.346  0.6021  0.7160 -0.7208
10812SOL    HW133335   3.342   1.653   6.403  1.6462  1.7911  1.1286
10812SOL    HW233336   3.315   1.717   6.255 -1.8928 -0.8179  0.4912
10813SOL     OW33337   1.032   6.231   0.983 -0.0548 -0.0694  0.0571
10813SOL    HW133338   1.053   6.147   0.932 -4.2418 -1.3530  0.0229
10813SOL    HW233339   0.989   6.297   0.921 -1.4467  0.0003  1.0577
10814SOL     OW33340   4.939   1.399   0.554 -0.6656 -0.2436  0.7023
10814SOL    HW133341   4.918   1.464   0.482  0.6424 -0.1141  0.4049
10814SOL    HW233342   4.872   1.324   0.553 -1.6521  0.6296  0.4788
10815SOL     OW33343   0.050   4.886   1.796  0.0699  0.1694 -0.4282
10815SOL    HW133344  -0.027   4.824   1.779 -0.1273  0.2641  0.1230
10815SOL    HW233345   0.017   4.969   1.840  0.6148 -0.2136  0.7525
10816SOL     OW33346   5.136   4.371   5.620 -0.4276  0.0775 -0.3960
10816SOL    HW133347   5.132   4.290   5.561 -1.5753  0.3276 -0.6751
10816SOL    HW233348   5.059   4.370   5.683  0.3249  0.2566  0.5395
10817SOL     OW33349   2.485   3.481   1.011 -0.6098 -0.1113  0.0079
10817SOL    HW133350   2.551   3.549   1.044 -0.7169  0.1571 -0.3304
10817SOL    HW233351   2.409   3.476   1.075 -0.0975 -0.6831  0.5922
10818SOL     OW33352   1.632   6.688   1.333 -0.5232 -0.3026 -0.1110
10818SOL    HW133353   1.722   6.709   1.372 -0.3731  1.2848 -1.2384
10818SOL    HW233354   1.561   6.730   1.390 -0.4711 -0.3183 -0.0332
10819SOL     OW33355   3.677   3.617   6.551  0.2121  0.3211 -0.1195
10819SOL    HW133356   3.742   3.687   6.580  0.3829 -0.4582  1.4400
10819SOL    HW233357   3.625   3.584   6.629 -0.9817 -0.2031 -1.0853
10820SOL     OW33358   0.818   4.246   1.266  0.4130  0.1115 -0.1356
10820SOL    HW133359   0.765   4.321   1.226 -0.6627 -0.5533 -0.0012
10820SOL    HW233360   0.773   4.214   1.349  0.7384 -0.8264 -0.3050
10821SOL     OW33361   6.762   4.673   7.009 -0.3361  0.0340  0.3333
10821SOL    HW133362   6.668   4.641   7.010 -0.4938  0.4837  0.3094
10821SOL    HW233363   6.772   4.749   7.074  0.0359 -0.0840  0.4178
10822SOL     OW33364   4.282   3.835   5.265 -0.3194  0.3314  0.5330
10822SOL    HW133365   4.314   3.740   5.268  1.7435  1.0083  2.8488
10822SOL    HW233366   4.350   3.895   5.306 -2.6724  2.4969  1.5865
10823SOL     OW33367   6.091   4.678   4.328 -0.5621  0.1867 -0.1584
10823SOL    HW133368   6.116   4.643   4.238  0.7348  0.4087  0.0921
10823SOL    HW233369   6.072   4.776   4.321  0.6164  0.4372 -0.0144
10824SOL     OW33370   3.594   3.826   3.465 -0.0559  0.1982  0.3530
10824SOL    HW133371   3.596   3.854   3.561 -0.5502 -1.0575  0.7381
10824SOL    HW233372   3.618   3.905   3.408 -0.5933  1.1930  1.4467
10825SOL     OW33373   1.213   4.336   0.929  0.4990  0.4959 -0.3937
10825SOL    HW133374   1.196   4.432   0.954  0.3298  0.7004 -1.2710
10825SOL    HW233375   1.143   4.278   0.969 -0.7077  1.0126 -1.6914
10826SOL     OW33376   1.327   6.698   0.184 -0.4484  0.2023 -0.0009
10826SOL    HW133377   1.407   6.657   0.142  0.6108  3.0154 -0.9648
10826SOL    HW233378   1.332   6.685   0.283 -0.1231 -1.7830 -0.2453
10827SOL     OW33379   2.948   6.084   1.082 -0.2086  0.3078  0.5696
10827SOL    HW133380   3.017   6.156   1.076  1.1579 -0.7241  2.6830
10827SOL    HW233381   2.977   6.006   1.026 -0.1122  0.2396  0.7120
10828SOL     OW33382   5.314   4.308   2.227 -0.4782 -0.5493  0.8240
10828SOL    HW133383   5.310   4.274   2.133  0.5623  0.9347  0.2076
10828SOL    HW233384   5.367   4.245   2.283  0.3471 -0.5962  0.0039
10829SOL     OW33385   0.140   2.249   4.931  0.2538 -0.2372  0.4477
10829SOL    HW133386   0.209   2.317   4.910  0.0749  0.3930  1.7743
10829SOL    HW233387   0.184   2.163   4.957  0.4837 -0.5327 -0.8641
10830SOL     OW33388   1.512   0.130   6.687 -0.2063  0.0567  0.6575
10830SOL    HW133389   1.583   0.093   6.748 -0.4913 -2.4111 -0.3738
10830SOL    HW233390   1.547   0.211   6.641  2.6136 -1.8175 -0.8605
10831SOL     OW33391   0.875   0.485   5.475  0.1001  0.3134  0.1835
10831SOL    HW133392   0.924   0.566   5.442 -2.9767  2.9528  1.5859
10831SOL    HW233393   0.785   0.479   5.431 -0.8029 -0.8220  2.0292
10832SOL     OW33394   5.344   2.867   6.213 -0.4050 -0.1857 -0.2078
10832SOL    HW133395   5.374   2.939   6.275 -0.5290 -0.0622 -0.2913
10832SOL    HW233396   5.373   2.778   6.249  1.2775  0.0144 -0.9739
10833SOL     OW33397   5.653   6.968   4.319 -0.4570  0.8188  0.2292
10833SOL    HW133398   5.697   6.968   4.230 -0.6200  0.7261  0.1477
10833SOL    HW233399   5.658   6.876   4.359  1.5055  1.3322  1.2610
10834SOL     OW33400   3.076   5.520   6.629 -0.6489  0.1397 -0.1909
10834SOL    HW133401   3.133   5.601   6.641  1.0032 -0.9567 -0.3733
10834SOL    HW233402   2.980   5.545   6.645 -0.4346  2.5152 -1.9709
10835SOL     OW33403   1.850   6.800   0.987  0.1356  0.0717  0.0571
10835SOL    HW133404   1.837   6.791   0.889 -0.5749 -1.0515  0.2404
10835SOL    HW233405   1.764   6.781   1.034  0.8478 -1.0522  0.9730
10836SOL     OW33406   1.860   2.323   2.722 -0.6136 -0.4444 -0.0470
10836SOL    HW133407   1.948   2.279   2.739 -0.8457 -0.5781  0.9001
10836SOL    HW233408   1.787   2.255   2.727 -0.6084 -0.8890 -3.5213
10837SOL     OW33409   4.154   5.360   3.601  0.1314  0.2932  0.4114
10837SOL    HW133410   4.174   5.263   3.588 -3.4958 -0.5669  0.1206
10837SOL    HW233411   4.199   5.414   3.530  1.3814 -1.2886 -0.0375
10838SOL     OW33412   5.583   5.057   1.442  0.7204  0.4186  0.7535
10838SOL    HW133413   5.513   5.078   1.511  0.3234 -1.9342  1.1441
10838SOL    HW233414   5.550   4.984   1.383  2.3179  0.2563  0.0212
10839SOL     OW33415   1.758   2.891   4.848 -0.1763  0.2795  0.2563
10839SOL    HW133416   1.809   2.871   4.931  0.2839  0.8566  0.1213
10839SOL    HW233417   1.660   2.882   4.866 -0.1196  1.1510  1.0768
10840SOL     OW33418   3.685   6.319   1.225  0.3119  0.3514 -0.2698
10840SOL    HW133419   3.775   6.339   1.265  0.3053 -1.2208  0.6034
10840SOL    HW233420   3.657   6.226   1.249 -1.3713  0.6529 -0.8943
10841SOL     OW33421   6.399   6.253   0.723  0.4066 -0.3525  0.0235
10841SOL    HW133422   6.355   6.341   0.705 -1.5363 -1.3931 -0.5849
10841SOL    HW233423   6.447   6.222   0.641  0.4582 -0.2136  0.0018
10842SOL     OW33424   5.359   2.079   3.837 -0.3647  0.0352 -0.6723
10842SOL    HW133425   5.308   2.034   3.911 -4.1708 -0.3195 -3.2100
10842SOL    HW233426   5.350   2.178   3.846  0.8324  0.0740  0.3206
10843SOL     OW33427   2.018   0.809   6.680 -0.4733  0.1755  0.7051
10843SOL    HW133428   1.993   0.810   6.776  0.4745  0.1375  0.9661
10843SOL    HW233429   2.103   0.757   6.668 -0.5386  0.2415 -0.1355
10844SOL     OW33430   1.435   2.834   5.851 -0.0562  0.4131  0.3121
10844SOL    HW133431   1.509   2.802   5.791 -0.3941  0.2196 -0.0046
10844SOL    HW233432   1.397   2.756   5.900 -0.7747  0.3394 -0.3396
10845SOL     OW33433   2.913   4.843   3.305  0.3979 -0.6571  0.0425
10845SOL    HW133434   2.840   4.820   3.241 -1.1366  0.0535  1.4604
10845SOL    HW233435   2.901   4.792   3.390  3.6822 -3.3373 -0.8780
10846SOL     OW33436   5.216   1.043   5.146 -0.2488  0.1371 -0.4506
10846SOL    HW133437   5.308   1.046   5.106 -0.7179 -2.1543 -1.8367
10846SOL    HW233438   5.224   1.038   5.245  1.1383 -0.4739 -0.5660
10847SOL     OW33439   5.000   3.569   3.467 -0.5052  0.0958 -0.2788
10847SOL    HW133440   4.985   3.500   3.538 -0.6415  0.2845 -0.1251
10847SOL    HW233441   4.935   3.553   3.392  0.2386 -0.6643 -0.7815
10848SOL     OW33442   4.420   2.309   0.830 -0.4692 -0.2094  0.5786
10848SOL    HW133443   4.323   2.331   0.839  0.0241  1.7053  1.9126
10848SOL    HW233444   4.466   2.384   0.781  0.6797 -0.0163  1.8878
10849SOL     OW33445   1.670   4.780   4.495 -0.8324 -0.4651 -0.0315
10849SOL    HW133446   1.646   4.690   4.532 -1.6685  0.0093  0.6155
10849SOL    HW233447   1.599   4.846   4.519  1.1034  1.0291  1.9727
10850SOL     OW33448   2.442   2.201   2.933 -0.0734 -0.2411  0.4545
10850SOL    HW133449   2.510   2.257   2.886 -0.6370  0.0507 -0.0323
10850SOL    HW233450   2.482   2.161   3.015  0.6053  0.1333  0.3094
10851SOL     OW33451   5.001   0.568   5.428 -0.1201  0.0412  0.6438
10851SOL    HW133452   4.931   0.500   5.404 -0.6457  0.2771  1.4449
10851SOL    HW233453   5.066   0.527   5.492 -0.4675  0.2994  1.1681
10852SOL     OW33454   3.143   6.994   1.235  0.3485 -0.1245  0.5591
10852SOL    HW133455   3.189   7.053   1.169  1.9109 -0.4220  1.3453
10852SOL    HW233456   3.196   6.910   1.248 -0.1754 -0.2823  1.8293
10853SOL     OW33457   0.041   3.965   5.776  0.2864 -0.1314  0.4210
10853SOL    HW133458   0.004   3.898   5.841 -0.4272 -1.6236 -1.4188
10853SOL    HW233459   0.029   3.930   5.683  0.3067  2.3891 -0.5958
10854SOL     OW33460   3.922   0.664   3.174  0.2119  0.4652  0.7806
10854SOL    HW133461   3.954   0.584   3.225 -2.2348 -0.7367  0.5955
10854SOL    HW233462   3.898   0.636   3.081  1.0461  1.8391  0.1269
10855SOL     OW33463   5.652   0.723   6.643 -0.3709  0.3888  0.2526
10855SOL    HW133464   5.623   0.682   6.730 -1.7804 -0.3722 -0.5348
10855SOL    HW233465   5.578   0.713   6.576 -0.3045  3.2050 -0.3277
10856SOL     OW33466   5.204   2.001   4.081  0.3878  0.2205 -0.2844
10856SOL    HW133467   5.165   1.919   4.038 -0.1741  0.4335 -0.1980
10856SOL    HW233468   5.152   2.022   4.164  1.1716  0.0823  0.2446
10857SOL     OW33469   2.998   0.879   5.159  0.4309 -0.3641 -0.2750
10857SOL    HW133470   3.089   0.848   5.131  0.4203 -2.8495  2.0772
10857SOL    HW233471   2.933   0.803   5.152 -0.7765  0.4942  1.0809
10858SOL     OW33472   4.795   3.278   6.046  0.4073  0.2303 -0.1230
10858SOL    HW133473   4.819   3.374   6.033 -0.7337  0.7849  1.4463
10858SOL    HW233474   4.710   3.258   5.998 -0.4682  0.5958  1.2288
10859SOL     OW33475   3.380   0.176   4.859 -0.2225 -0.1349  0.1059
10859SOL    HW133476   3.353   0.102   4.798 -0.5201 -0.7839  0.9998
10859SOL    HW233477   3.360   0.264   4.816  0.7506 -0.5421 -1.2494
10860SOL     OW33478   6.092   1.034   4.232 -0.2340  0.2256  0.0440
10860SOL    HW133479   6.056   1.090   4.158  0.7364 -0.8954 -1.3264
10860SOL    HW233480   6.066   0.938   4.218 -0.9577  0.1217  1.7621
10861SOL     OW33481   6.276   4.810   6.754  0.2105  0.0473 -0.0975
10861SOL    HW133482   6.179   4.831   6.752  0.5944  2.0556  0.0268
10861SOL    HW233483   6.306   4.778   6.664 -0.8940 -2.4695  0.3631
10862SOL     OW33484   1.468   5.328   6.239  0.3360  0.4147 -0.2881
10862SOL    HW133485   1.442   5.348   6.333 -0.5124 -0.5432 -0.3044
10862SOL    HW233486   1.521   5.242   6.237 -1.9470 -1.0566 -0.9416
10863SOL     OW33487   5.704   2.972   6.540 -0.4212 -0.3421  0.0814
10863SOL    HW133488   5.768   3.044   6.515  0.8696 -0.7553  2.0116
10863SOL    HW233489   5.721   2.891   6.483  0.3324 -0.2245  0.1313
10864SOL     OW33490   4.823   2.313   2.883 -0.0986  0.2981  0.4617
10864SOL    HW133491   4.737   2.263   2.878 -0.2808  0.3346  2.4738
10864SOL    HW233492   4.895   2.260   2.838 -0.4500 -1.4291  1.8193
10865SOL     OW33493   1.061   5.778   2.766  0.0391 -0.0828  0.4662
10865SOL    HW133494   1.055   5.679   2.775  1.8118 -0.4828 -1.9199
10865SOL    HW233495   0.984   5.812   2.712 -1.1931  0.0685  2.2159
10866SOL     OW33496   4.034   4.621   5.702 -0.3992  0.2956  0.1143
10866SOL    HW133497   4.054   4.528   5.670 -0.7768 -0.0752  0.9153
10866SOL    HW233498   4.078   4.687   5.642  0.9212 -0.4307  0.2323
10867SOL     OW33499   6.581   1.671   0.698  0.1591 -0.2774 -0.2742
10867SOL    HW133500   6.671   1.665   0.653  0.9781 -0.0644  1.2868
10867SOL    HW233501   6.553   1.766   0.703 -0.7670 -0.4205 -1.8434
10868SOL     OW33502   4.873   1.409   5.553 -0.0548 -0.2270  0.2113
10868SOL    HW133503   4.821   1.325   5.562 -0.4965 -0.4027 -2.7668
10868SOL    HW233504   4.839   1.461   5.474  2.6019  0.9229 -0.2898
10869NA      NA33505   4.189   1.380   4.560  0.1126 -0.0922 -0.4857
10870NA      NA33506   4.975   5.645   6.446 -0.3972  0.4185  0.2419
10871NA      NA33507   2.045   1.373   4.896  0.2781  0.3173  0.2804
10872NA      NA33508   3.900   5.826   3.532 -0.6313  0.1862 -0.3673
10873NA      NA33509   3.739   3.771   5.917  0.1804  0.3106 -0.0025
10874NA      NA33510   3.165   3.828   3.963  0.0134  0.3062  0.2565
10875NA      NA33511   2.172   3.305   0.834 -0.0923  0.0159 -0.2840
10876NA      NA33512   3.700   4.756   1.708  0.0969  0.0739 -0.1294
10877NA      NA33513   0.184   2.844   0.019  0.6222 -0.0831 -0.1901
10878NA      NA33514   0.015   4.361   6.305  0.3397 -0.5283 -0.0485
10879NA      NA33515   5.815   2.165   0.923  0.3765 -0.6715 -0.0713
10880NA      NA33516   2.811   4.735   5.232  0.3308 -0.1918 -0.2523
10881NA      NA33517   5.790   1.928   5.734  0.1303  0.0240 -0.0072
10882NA      NA33518   4.989   3.671   4.982 -0.1433  0.2598  0.0553
   7.01496   7.01496   7.01496
