CNT in water
33518
    1C        C    1   2.839   2.763   4.737 -0.2390 -0.3473  0.2640
    1C        C    2   2.887   2.706   4.857  0.1520 -0.3822  0.0966
    1C        C    3   2.835   2.762   4.975 -0.3135  0.1446 -0.3522
    1C        C    4   2.849   2.770   4.251  0.1327  0.1049  0.0188
    1C        C    5   2.900   2.721   4.374 -0.1053 -0.4480 -0.0994
    1C        C    6   2.849   2.776   4.494  0.5706  0.6735 -0.3106
    1C        C    7   3.012   2.641   4.617 -0.1656  0.5491 -0.0393
    1C        C    8   2.895   2.720   4.615 -0.0607  0.7146 -0.0479
    1C        C    9   3.072   2.598   4.737 -0.2626 -0.3851 -0.3073
    1C        C   10   3.002   2.625   4.857  0.5365  0.1540  0.0498
    1C        C   11   3.174   2.486   4.974 -0.3589 -0.0679  0.1171
    1C        C   12   3.054   2.559   4.969  0.2376  0.9791  0.6950
    1C        C   13   2.843   2.761   3.763 -0.2479 -0.4681 -0.1815
    1C        C   14   2.896   2.717   3.886  0.0534  0.4056  0.0077
    1C        C   15   2.849   2.771   4.008  0.0077  0.2598  0.0568
    1C        C   16   3.012   2.635   4.129 -0.1073 -0.0481 -0.2858
    1C        C   17   2.896   2.716   4.130 -0.0702  0.0100 -0.0211
    1C        C   18   3.074   2.603   4.252  0.1059  0.6173 -0.2129
    1C        C   19   3.014   2.639   4.375  0.3379  0.1562  0.0406
    1C        C   20   3.203   2.545   4.497  0.2422  0.4205  0.1096
    1C        C   21   3.073   2.600   4.497  0.2802  0.5234  0.1908
    1C        C   22   3.272   2.524   4.619  0.0988  0.0385  0.1321
    1C        C   23   3.203   2.543   4.741 -0.2334 -0.3118  0.0053
    1C        C   24   3.405   2.486   4.859 -0.2695  0.2826  0.1440
    1C        C   25   3.264   2.505   4.864 -0.3525 -0.2730  0.0813
    1C        C   26   3.484   2.472   4.974 -0.0219 -0.0375 -0.0596
    1C        C   27   2.842   2.761   3.279 -0.0631  0.1735 -0.1821
    1C        C   28   2.899   2.715   3.399 -0.1084  0.2104 -0.1464
    1C        C   29   2.842   2.761   3.520  0.2190  0.7299 -0.1881
    1C        C   30   3.013   2.634   3.645  0.0856  0.3312 -0.0384
    1C        C   31   2.897   2.714   3.641 -0.2142 -0.1074 -0.3078
    1C        C   32   3.073   2.595   3.767 -0.0689 -0.3781 -0.1828
    1C        C   33   3.010   2.634   3.886  0.0313  0.3693 -0.3672
    1C        C   34   3.200   2.537   4.009  0.2292  0.7792 -0.2045
    1C        C   35   3.074   2.600   4.008  0.1730  0.6679 -0.3567
    1C        C   36   3.271   2.527   4.131 -0.2449  0.4526  0.0493
    1C        C   37   3.206   2.551   4.253 -0.0358  0.2606  0.2031
    1C        C   38   3.409   2.495   4.375 -0.0205 -0.0763 -0.1565
    1C        C   39   3.271   2.521   4.375 -0.0887 -0.4107  0.0757
    1C        C   40   3.481   2.495   4.496 -0.4069  0.1910  0.0759
    1C        C   41   3.411   2.503   4.619  0.0804 -0.1122  0.3804
    1C        C   42   3.624   2.501   4.741  0.2125 -0.3137 -0.2468
    1C        C   43   3.483   2.490   4.740  0.1382  0.3750  0.4043
    1C        C   44   3.698   2.507   4.862 -0.0496  0.1332 -0.1013
    1C        C   45   3.621   2.492   4.978 -0.0001 -0.1693 -0.1068
    1C        C   46   2.842   2.759   2.790  0.5590  0.3255  0.2472
    1C        C   47   2.899   2.719   2.912  0.2774  0.4312  0.4178
    1C        C   48   2.851   2.771   3.035  0.3592  0.5394  0.4054
    1C        C   49   3.021   2.646   3.153  0.4983  0.0353  0.2207
    1C        C   50   2.900   2.720   3.157  0.4385 -0.0550  0.1321
    1C        C   51   3.082   2.611   3.276  0.5782  0.1322  0.2091
    1C        C   52   3.018   2.638   3.398 -0.0321  0.3271 -0.1486
    1C        C   53   3.206   2.547   3.521 -0.1293  0.1327 -0.1396
    1C        C   54   3.077   2.604   3.522  0.1373  0.7469 -0.1129
    1C        C   55   3.272   2.522   3.643 -0.3304 -0.7613 -0.2074
    1C        C   56   3.206   2.547   3.765  0.0420 -0.0790 -0.1362
    1C        C   57   3.410   2.498   3.891  0.2577  0.5833  0.2516
    1C        C   58   3.271   2.520   3.888  0.2163  0.2888 -0.1462
    1C        C   59   3.482   2.492   4.012 -0.2410  0.0798  0.5284
    1C        C   60   3.410   2.503   4.134 -0.3694 -0.2786  0.4882
    1C        C   61   3.624   2.494   4.254  0.3864 -0.4389 -0.3545
    1C        C   62   3.483   2.491   4.254  0.3725 -0.0457  0.0749
    1C        C   63   3.693   2.509   4.376 -0.5477  0.4997  0.0872
    1C        C   64   3.622   2.502   4.498 -0.4097  0.3058  0.1585
    1C        C   65   3.830   2.549   4.616  0.2870 -0.1148 -0.2489
    1C        C   66   3.694   2.514   4.619  0.2537  0.0159 -0.1929
    1C        C   67   3.897   2.576   4.737 -0.2648  0.4016 -0.0595
    1C        C   68   3.834   2.545   4.860  0.1249 -0.4690 -0.0709
    1C        C   69   4.051   2.580   4.967  0.2580  0.3567  0.2908
    1C        C   70   3.919   2.534   4.970  0.4347 -0.2146 -0.2810
    1C        C   71   2.826   2.735   2.304  0.0837 -0.1130 -0.0203
    1C        C   72   2.879   2.692   2.428 -0.0618  0.1689  0.1407
    1C        C   73   2.825   2.745   2.548  0.5162  0.1608  0.4071
    1C        C   74   3.003   2.624   2.669  0.3036 -0.1869  0.2705
    1C        C   75   2.886   2.703   2.668  0.2451 -0.2672  0.3999
    1C        C   76   3.062   2.583   2.791  0.0683 -0.2899  0.3541
    1C        C   77   3.006   2.627   2.913  0.1282  0.2508  0.1924
    1C        C   78   3.203   2.538   3.033  0.1420 -0.1829  0.2122
    1C        C   79   3.074   2.596   3.033  0.2919  0.1554  0.0778
    1C        C   80   3.270   2.515   3.155  0.0400 -0.4403  0.2213
    1C        C   81   3.208   2.548   3.278  0.2197 -0.5882  0.3529
    1C        C   82   3.413   2.494   3.403  0.3531 -0.6521  0.6444
    1C        C   83   3.276   2.527   3.400  0.3585 -0.6546  0.2656
    1C        C   84   3.483   2.488   3.525  0.3819  0.0166  0.6685
    1C        C   85   3.411   2.499   3.646 -0.2947 -0.4974  0.3224
    1C        C   86   3.621   2.481   3.768  0.0089 -0.3454  0.0287
    1C        C   87   3.481   2.491   3.769 -0.0072 -0.5797  0.1563
    1C        C   88   3.695   2.497   3.888 -0.0989 -0.2082  0.0766
    1C        C   89   3.623   2.499   4.009 -0.2447 -0.0276 -0.0118
    1C        C   90   3.828   2.545   4.131  0.2291  0.3450 -0.0705
    1C        C   91   3.693   2.506   4.131  0.3511 -0.0968 -0.3429
    1C        C   92   3.896   2.569   4.252 -0.2012  0.0386  0.2310
    1C        C   93   3.831   2.537   4.374 -0.5240  0.3956  0.1571
    1C        C   94   4.027   2.629   4.491  0.3132  0.0715 -0.1518
    1C        C   95   3.897   2.574   4.494  0.2713  0.1684 -0.2007
    1C        C   96   4.088   2.670   4.612 -0.1825  0.0700  0.1008
    1C        C   97   4.027   2.632   4.734 -0.0242 -0.1467  0.1120
    1C        C   98   4.198   2.756   4.855 -0.0263  0.0216 -0.0118
    1C        C   99   4.105   2.647   4.852  0.2389 -0.2060 -0.0514
    1C        C  100   4.208   2.839   4.967 -0.3620 -0.1121  0.1172
    1C        C  101   2.809   2.721   2.068 -0.1563  0.0857  0.2685
    1C        C  102   2.988   2.592   2.182  0.1054 -0.1979  0.1353
    1C        C  103   2.868   2.670   2.185  0.1236 -0.1649  0.0196
    1C        C  104   3.055   2.572   2.306  0.2252  0.2788  0.1508
    1C        C  105   2.996   2.614   2.427 -0.2568 -0.1242  0.0579
    1C        C  106   3.192   2.527   2.548 -0.0277  0.2377  0.0430
    1C        C  107   3.063   2.584   2.548 -0.3084 -0.3859  0.0267
    1C        C  108   3.263   2.514   2.670  0.0578 -0.2037 -0.0491
    1C        C  109   3.193   2.530   2.791  0.1554 -0.0876 -0.0050
    1C        C  110   3.405   2.483   2.913 -0.1846 -0.5807  0.6593
    1C        C  111   3.266   2.510   2.910 -0.1632 -0.5048  0.1251
    1C        C  112   3.478   2.480   3.034  0.1424 -0.4898  0.4691
    1C        C  113   3.408   2.487   3.157  0.0211 -0.5256  0.4035
    1C        C  114   3.620   2.478   3.277 -0.0169 -0.4738 -0.0368
    1C        C  115   3.479   2.482   3.279 -0.0099 -0.4239  0.4255
    1C        C  116   3.689   2.496   3.399 -0.1697  0.0366 -0.0264
    1C        C  117   3.624   2.487   3.524  0.3782 -0.2919  0.2368
    1C        C  118   3.829   2.529   3.642  0.2282  0.1299  0.1857
    1C        C  119   3.693   2.492   3.647  0.3818 -0.4335  0.2397
    1C        C  120   3.895   2.561   3.762  0.2739 -0.0897  0.2175
    1C        C  121   3.830   2.538   3.885 -0.1743  0.0391  0.0030
    1C        C  122   4.013   2.641   4.010  0.2833  0.0201 -0.1587
    1C        C  123   3.895   2.563   4.008  0.0156  0.4242 -0.1762
    1C        C  124   4.078   2.677   4.130 -0.1554  0.0188  0.0798
    1C        C  125   4.020   2.636   4.252 -0.3883  0.3892  0.0916
    1C        C  126   4.189   2.770   4.370  0.0658  0.4104 -0.0755
    1C        C  127   4.085   2.674   4.371 -0.0000  0.4823 -0.1494
    1C        C  128   4.242   2.817   4.492  0.0468  0.4342 -0.0774
    1C        C  129   4.194   2.763   4.614 -0.4196  0.3510 -0.2961
    1C        C  130   4.327   2.930   4.736 -0.1393 -0.2432 -0.1002
    1C        C  131   4.248   2.812   4.734 -0.1180 -0.2561 -0.1803
    1C        C  132   4.354   2.999   4.856  0.2204 -0.2306 -0.1878
    1C        C  133   4.282   2.956   4.968  0.1049 -0.4010 -0.3281
    1C        C  134   3.171   2.464   2.077 -0.0514 -0.8702  0.1593
    1C        C  135   3.039   2.512   2.075  0.1290 -0.3630  0.2697
    1C        C  136   3.253   2.476   2.190 -0.2698 -0.4580  0.2781
    1C        C  137   3.185   2.514   2.307  0.0236 -0.1733  0.3598
    1C        C  138   3.395   2.467   2.427  0.2872  0.4498  0.0421
    1C        C  139   3.257   2.493   2.427  0.1580 -0.2324  0.2718
    1C        C  140   3.471   2.472   2.546 -0.1107  0.3762  0.3035
    1C        C  141   3.401   2.483   2.668  0.0538 -0.2708  0.4625
    1C        C  142   3.614   2.480   2.786 -0.2335 -0.3462 -0.0444
    1C        C  143   3.473   2.477   2.789 -0.2247 -0.3983  0.6257
    1C        C  144   3.684   2.484   2.909 -0.1349  0.3776 -0.1171
    1C        C  145   3.619   2.477   3.034  0.1586  0.0620  0.0199
    1C        C  146   3.824   2.529   3.152 -0.0363  0.1630 -0.0904
    1C        C  147   3.691   2.479   3.155  0.1251 -0.2658  0.0485
    1C        C  148   3.884   2.562   3.275 -0.2407  0.2621 -0.0183
    1C        C  149   3.825   2.534   3.400 -0.3489  0.6839  0.0243
    1C        C  150   4.017   2.629   3.520 -0.2894  0.4366 -0.0568
    1C        C  151   3.894   2.561   3.520 -0.0248 -0.0427  0.0064
    1C        C  152   4.073   2.673   3.642 -0.2229  0.6360 -0.1584
    1C        C  153   4.015   2.636   3.766  0.2058  0.0337 -0.1335
    1C        C  154   4.180   2.770   3.886  0.0663  0.3217  0.4245
    1C        C  155   4.071   2.680   3.887  0.0303  0.3562 -0.1702
    1C        C  156   4.231   2.824   4.006 -0.1654  0.9518  0.2446
    1C        C  157   4.189   2.764   4.127 -0.2638  0.1476 -0.1841
    1C        C  158   4.321   2.933   4.247  0.1174 -0.0824  0.0487
    1C        C  159   4.239   2.819   4.247  0.1870 -0.1326 -0.2414
    1C        C  160   4.364   2.989   4.370 -0.1420  0.4601 -0.1047
    1C        C  161   4.327   2.929   4.492  0.4105  0.1571 -0.0860
    1C        C  162   4.438   3.111   4.611  0.2722 -0.0956  0.0431
    1C        C  163   4.366   2.989   4.614 -0.0413  0.0909  0.0915
    1C        C  164   4.462   3.181   4.732 -0.3497 -0.1266  0.1878
    1C        C  165   4.432   3.117   4.854  0.3434 -0.3014  0.2682
    1C        C  166   4.509   3.315   4.970 -0.5012 -0.2069  0.2359
    1C        C  167   4.470   3.181   4.973  0.2006 -0.4143  0.3758
    1C        C  168   3.470   2.431   2.072  0.3526  0.0914  0.0883
    1C        C  169   3.393   2.458   2.186 -0.1707  0.3961 -0.3328
    1C        C  170   3.609   2.472   2.302 -0.2463  0.5038  0.0517
    1C        C  171   3.467   2.461   2.305 -0.2503  0.4054 -0.2808
    1C        C  172   3.683   2.481   2.422 -0.4742 -0.4623  0.2819
    1C        C  173   3.612   2.476   2.544 -0.0704 -0.7022  0.5095
    1C        C  174   3.817   2.533   2.662  0.0508  0.1631 -0.2782
    1C        C  175   3.685   2.482   2.665  0.3181 -0.5246  0.2695
    1C        C  176   3.882   2.560   2.784 -0.5372  0.3461 -0.0008
    1C        C  177   3.818   2.530   2.906 -0.0669  0.2053  0.2158
    1C        C  178   4.007   2.627   3.026  0.0879  0.5764  0.2548
    1C        C  179   3.883   2.559   3.027 -0.0628  0.8455  0.0632
    1C        C  180   4.063   2.669   3.148 -0.0522  1.0237  0.1676
    1C        C  181   4.007   2.631   3.272 -0.3688  0.4843 -0.1405
    1C        C  182   4.176   2.759   3.395 -0.3533  0.3755 -0.0631
    1C        C  183   4.067   2.668   3.394 -0.4589  0.5033 -0.1032
    1C        C  184   4.224   2.813   3.516 -0.2511  0.2374 -0.0429
    1C        C  185   4.178   2.766   3.642 -0.4113  0.8501  0.1266
    1C        C  186   4.321   2.925   3.758 -0.3269  0.3114 -0.3061
    1C        C  187   4.229   2.818   3.763  0.0749 -0.0137  0.2982
    1C        C  188   4.363   2.985   3.879 -0.1089 -0.1507 -0.1521
    1C        C  189   4.320   2.934   4.003  0.0513  0.7769  0.2938
    1C        C  190   4.440   3.109   4.123  0.7795  0.0615  0.2156
    1C        C  191   4.366   2.988   4.125  0.7058  0.1098  0.3493
    1C        C  192   4.464   3.173   4.246  0.3194  0.4396  0.1140
    1C        C  193   4.438   3.109   4.369  0.1866  0.2580 -0.0089
    1C        C  194   4.508   3.310   4.487  0.4855  0.0345  0.1515
    1C        C  195   4.472   3.174   4.490 -0.0026  0.1602  0.0977
    1C        C  196   4.522   3.382   4.608 -0.1091 -0.3730  0.4702
    1C        C  197   4.503   3.317   4.731  0.1073 -0.2594  0.5674
    1C        C  198   4.542   3.530   4.845 -0.3867  0.0418 -0.0997
    1C        C  199   4.525   3.388   4.852 -0.0601  0.0236  0.4341
    1C        C  200   4.578   3.617   4.954  0.2727 -0.2538 -0.0760
    1C        C  201   3.610   2.423   2.064  0.3151 -0.3755 -0.1785
    1C        C  202   3.820   2.506   2.180 -0.2430 -0.0865  0.0784
    1C        C  203   3.682   2.467   2.180 -0.1050 -0.5841  0.1677
    1C        C  204   3.888   2.543   2.299 -0.4680  0.2813  0.0943
    1C        C  205   3.818   2.523   2.420 -0.6360  0.0619 -0.0375
    1C        C  206   4.010   2.620   2.541 -0.4101  0.7613  0.2577
    1C        C  207   3.885   2.554   2.540 -0.1110  0.2001 -0.3641
    1C        C  208   4.072   2.658   2.663 -0.2572  0.1015  0.3887
    1C        C  209   4.008   2.624   2.784 -0.5112  0.2975  0.3110
    1C        C  210   4.177   2.756   2.906  0.0902  0.1943 -0.3679
    1C        C  211   4.067   2.668   2.904 -0.4103  0.7994  0.0822
    1C        C  212   4.229   2.802   3.029 -0.1046  0.2996 -0.3234
    1C        C  213   4.174   2.757   3.151  0.4807  0.3673 -0.0297
    1C        C  214   4.316   2.915   3.270  0.4026  0.1106 -0.0280
    1C        C  215   4.225   2.807   3.272  0.2181  0.2685  0.1235
    1C        C  216   4.355   2.977   3.391  0.5686  0.1025 -0.0776
    1C        C  217   4.313   2.922   3.514  0.8310 -0.6303 -0.3072
    1C        C  218   4.421   3.107   3.634  0.2630  0.0033 -0.0182
    1C        C  219   4.360   2.979   3.634 -0.1700  0.2075 -0.3023
    1C        C  220   4.457   3.171   3.754 -0.2054 -0.1686  0.2130
    1C        C  221   4.427   3.111   3.879 -0.4947  0.0468  0.2480
    1C        C  222   4.511   3.306   3.997  0.5344 -0.2223 -0.4167
    1C        C  223   4.465   3.173   4.000  0.9265 -0.3525  0.0281
    1C        C  224   4.521   3.375   4.120  0.1902 -0.2676 -0.3642
    1C        C  225   4.505   3.308   4.243 -0.0413  0.5473  0.0582
    1C        C  226   4.517   3.520   4.360  0.4000  0.2143  0.3768
    1C        C  227   4.519   3.379   4.364  0.2651  0.2068  0.2252
    1C        C  228   4.515   3.593   4.481 -0.0826  0.3436  0.2949
    1C        C  229   4.527   3.523   4.604 -0.2227 -0.3794 -0.0936
    1C        C  230   4.493   3.738   4.721 -0.5574 -0.3544  0.0429
    1C        C  231   4.529   3.600   4.722  0.4857 -0.0955 -0.2790
    1C        C  232   4.492   3.814   4.840 -0.5410 -0.3759  0.0577
    1C        C  233   4.544   3.753   4.955  0.2502 -0.2582 -0.2277
    1C        C  234   4.016   2.599   2.059  0.2294  0.6088 -0.5706
    1C        C  235   3.891   2.539   2.064  0.1992  0.7470  0.5752
    1C        C  236   4.073   2.654   2.174 -0.1290  0.0316 -0.1138
    1C        C  237   4.009   2.618   2.295 -0.2221 -0.1259 -0.2091
    1C        C  238   4.179   2.744   2.415 -0.6261  0.0320 -0.0772
    1C        C  239   4.065   2.660   2.417 -0.7163  0.1562 -0.0768
    1C        C  240   4.233   2.792   2.537 -0.8183  0.3168 -0.1052
    1C        C  241   4.179   2.750   2.660 -0.4551  0.3261  0.0568
    1C        C  242   4.329   2.900   2.783  0.0049  0.6143 -0.1957
    1C        C  243   4.230   2.798   2.782  0.0773  0.5460 -0.2540
    1C        C  244   4.372   2.957   2.904  0.5167 -0.1677 -0.0041
    1C        C  245   4.320   2.910   3.026  0.5129 -0.2095 -0.0227
    1C        C  246   4.424   3.096   3.144  0.6147 -0.1637 -0.0594
    1C        C  247   4.362   2.969   3.147  0.5725 -0.1433 -0.0760
    1C        C  248   4.461   3.158   3.265  0.6459 -0.2128 -0.0438
    1C        C  249   4.431   3.096   3.388  1.2190 -0.3029  0.0542
    1C        C  250   4.497   3.299   3.508  0.3407  0.0549  0.1174
    1C        C  251   4.456   3.164   3.509  0.4165  0.0311  0.0362
    1C        C  252   4.519   3.368   3.629  0.1256  0.1083  0.1271
    1C        C  253   4.512   3.301   3.753  0.2293 -0.3542 -0.1154
    1C        C  254   4.528   3.513   3.874 -0.7643 -0.0123  0.1188
    1C        C  255   4.531   3.372   3.873  0.3056 -0.0025 -0.3352
    1C        C  256   4.521   3.585   3.995 -0.0289 -0.1520  0.2481
    1C        C  257   4.527   3.516   4.118  0.4857 -0.2743  0.1587
    1C        C  258   4.497   3.730   4.236 -0.5434 -0.2821 -0.3671
    1C        C  259   4.517   3.591   4.238 -0.5303 -0.2761  0.0837
    1C        C  260   4.474   3.802   4.356 -0.0667 -0.0593 -0.4082
    1C        C  261   4.485   3.731   4.477  0.6463  0.4929 -0.1410
    1C        C  262   4.418   3.934   4.595  0.3810  0.0900  0.1735
    1C        C  263   4.465   3.801   4.598 -0.2194 -0.1264  0.0798
    1C        C  264   4.392   4.002   4.716  0.2767  0.2419  0.0665
    1C        C  265   4.431   3.941   4.837 -0.0618 -0.1447 -0.0158
    1C        C  266   4.318   4.127   4.954 -0.0081  0.0182  0.1775
    1C        C  267   4.387   4.006   4.953 -0.1492 -0.0618 -0.0949
    1C        C  268   4.265   2.765   2.063 -0.0708 -0.0090  0.1440
    1C        C  269   4.190   2.732   2.177 -0.1253  0.0184  0.1160
    1C        C  270   4.339   2.891   2.294 -0.4564  0.3118 -0.0184
    1C        C  271   4.242   2.787   2.296 -0.4170  0.2800  0.1229
    1C        C  272   4.384   2.947   2.416  0.5920 -0.2724 -0.1297
    1C        C  273   4.327   2.896   2.535 -0.0757 -0.3511 -0.4764
    1C        C  274   4.438   3.075   2.657  0.0058 -0.2856 -0.1247
    1C        C  275   4.369   2.952   2.658  0.3153 -0.4648 -0.5582
    1C        C  276   4.460   3.146   2.777  0.5021 -0.2699 -0.2248
    1C        C  277   4.437   3.083   2.901  0.3040 -0.0631 -0.1578
    1C        C  278   4.498   3.290   3.021  0.3844 -0.1120 -0.3003
    1C        C  279   4.458   3.155   3.021  0.0121 -0.0004 -0.1472
    1C        C  280   4.519   3.361   3.141  0.1145 -0.0609 -0.2843
    1C        C  281   4.502   3.293   3.264  0.0732 -0.0407 -0.2803
    1C        C  282   4.528   3.506   3.383  0.5930 -0.3333  0.0549
    1C        C  283   4.514   3.365   3.385 -0.1852 -0.2575 -0.1257
    1C        C  284   4.524   3.578   3.504 -0.5724 -0.3075  0.0130
    1C        C  285   4.530   3.509   3.628 -0.4707  0.1551  0.2683
    1C        C  286   4.487   3.717   3.747 -0.5852  0.1623  0.2147
    1C        C  287   4.520   3.579   3.750 -0.0881  0.2810  0.2258
    1C        C  288   4.474   3.788   3.868 -0.3410  0.0743  0.2929
    1C        C  289   4.495   3.724   3.992  0.4937 -0.0564  0.0852
    1C        C  290   4.423   3.926   4.108 -0.6751  0.0118 -0.1191
    1C        C  291   4.476   3.795   4.112 -0.1840  0.2079 -0.1737
    1C        C  292   4.394   3.992   4.229 -0.3971 -0.1923  0.0596
    1C        C  293   4.421   3.933   4.354 -0.1427 -0.0837  0.0552
    1C        C  294   4.319   4.121   4.470 -0.1254 -0.2181  0.1125
    1C        C  295   4.395   4.002   4.474  0.0157 -0.1284  0.1170
    1C        C  296   4.276   4.179   4.591  0.3037  0.0422  0.1415
    1C        C  297   4.315   4.122   4.714  0.2337  0.2190  0.2480
    1C        C  298   4.200   4.306   4.827 -0.0254  0.0311 -0.1576
    1C        C  299   4.282   4.190   4.834  0.3572  0.3215  0.2256
    1C        C  300   4.171   4.395   4.936  0.1497  0.1722 -0.2234
    1C        C  301   4.347   2.877   2.057 -0.7036  0.4684  0.1806
    1C        C  302   4.467   3.065   2.170 -0.0479  0.1801 -0.0582
    1C        C  303   4.390   2.944   2.172  0.0527  0.1208  0.1112
    1C        C  304   4.481   3.136   2.293  0.5700 -0.5347  0.2891
    1C        C  305   4.453   3.070   2.414  0.8864 -0.4318  0.4151
    1C        C  306   4.503   3.277   2.532  0.0492  0.1696  0.2589
    1C        C  307   4.468   3.141   2.535  0.4496  0.0685  0.1770
    1C        C  308   4.514   3.348   2.654 -0.2097  0.2792  0.2134
    1C        C  309   4.499   3.282   2.778  0.3057 -0.2190  0.0102
    1C        C  310   4.523   3.497   2.894  0.4941  0.0834  0.2033
    1C        C  311   4.512   3.356   2.897  0.3968  0.0832 -0.1915
    1C        C  312   4.522   3.571   3.014 -0.3573 -0.0396  0.2729
    1C        C  313   4.528   3.502   3.137  0.5427 -0.0719  0.2125
    1C        C  314   4.493   3.711   3.257 -0.2826 -0.2171  0.0732
    1C        C  315   4.523   3.573   3.259  0.3488 -0.0775  0.2057
    1C        C  316   4.477   3.781   3.379 -0.4891 -0.4329  0.1678
    1C        C  317   4.496   3.716   3.502 -0.1993 -0.2287  0.2269
    1C        C  318   4.418   3.914   3.620 -1.0233 -0.3262 -0.0819
    1C        C  319   4.476   3.785   3.624 -0.4019 -0.0414  0.0844
    1C        C  320   4.379   3.976   3.741 -1.0016 -0.2079 -0.1370
    1C        C  321   4.416   3.917   3.864 -1.0457 -0.2491 -0.1450
    1C        C  322   4.305   4.099   3.984 -0.3179  0.1798  0.1400
    1C        C  323   4.388   3.984   3.984 -0.6382 -0.0534 -0.1594
    1C        C  324   4.264   4.161   4.104 -0.3162 -0.0946  0.2816
    1C        C  325   4.310   4.105   4.226 -0.2511 -0.0790  0.2632
    1C        C  326   4.178   4.274   4.345  0.1980  0.2067 -0.1843
    1C        C  327   4.276   4.173   4.345  0.3907  0.3908  0.1834
    1C        C  328   4.126   4.328   4.465  0.4496  0.1291 -0.0385
    1C        C  329   4.178   4.281   4.588  0.3563  0.0897 -0.0113
    1C        C  330   4.012   4.417   4.708  0.2118  0.4188  0.2659
    1C        C  331   4.130   4.338   4.707 -0.0046  0.0911 -0.1552
    1C        C  332   3.961   4.473   4.827  0.0458  0.9713 -0.0563
    1C        C  333   4.049   4.464   4.936  0.3558  0.5403 -0.3393
    1C        C  334   4.557   3.258   2.062  0.3387 -0.2927  0.6016
    1C        C  335   4.534   3.120   2.057  0.0623 -0.2255 -0.1907
    1C        C  336   4.534   3.341   2.172  0.3422 -0.3713  0.6591
    1C        C  337   4.511   3.275   2.295 -0.1403 -0.3840  0.5625
    1C        C  338   4.528   3.490   2.410  0.7920 -0.0511 -0.1670
    1C        C  339   4.529   3.349   2.413  0.5458 -0.0396  0.2457
    1C        C  340   4.524   3.562   2.531 -0.1493 -0.0811 -0.1761
    1C        C  341   4.515   3.489   2.652 -0.2903  0.2722  0.0245
    1C        C  342   4.490   3.704   2.768  0.9564  0.1880  0.2427
    1C        C  343   4.513   3.565   2.770 -0.2818 -0.0198  0.2076
    1C        C  344   4.466   3.773   2.888 -0.4875  0.1174  0.0046
    1C        C  345   4.491   3.709   3.012 -0.6563 -0.1143 -0.0860
    1C        C  346   4.415   3.906   3.130 -1.0666 -0.5073 -0.0016
    1C        C  347   4.474   3.778   3.133 -0.8844 -0.4176  0.0521
    1C        C  348   4.381   3.968   3.252 -0.9729 -0.7214  0.1302
    1C        C  349   4.417   3.909   3.375 -1.1512 -0.7391  0.1722
    1C        C  350   4.300   4.087   3.496 -0.3791  0.2263  0.2043
    1C        C  351   4.384   3.973   3.496 -1.0244 -0.2620 -0.0484
    1C        C  352   4.256   4.145   3.617 -0.1921  0.5014  0.1389
    1C        C  353   4.302   4.094   3.740 -0.1571  0.3507  0.0627
    1C        C  354   4.163   4.256   3.860  0.7780  1.0808  0.4462
    1C        C  355   4.255   4.148   3.862 -0.0245  0.3798  0.1002
    1C        C  356   4.118   4.312   3.981  0.3199  0.7566  0.4274
    1C        C  357   4.169   4.265   4.103  0.1792  0.3602  0.3363
    1C        C  358   4.002   4.397   4.222 -0.2754  0.4396  0.2598
    1C        C  359   4.117   4.314   4.225 -0.4539  0.1860  0.1366
    1C        C  360   3.949   4.446   4.343  0.4381  0.6609  0.4956
    1C        C  361   4.015   4.415   4.464  0.2722 -0.0815  0.4063
    1C        C  362   3.824   4.510   4.583  0.2755  0.5096 -0.0635
    1C        C  363   3.952   4.451   4.585  0.2092  0.3610  0.2477
    1C        C  364   3.758   4.537   4.705 -0.0223 -0.1872 -0.0624
    1C        C  365   3.830   4.527   4.826 -0.0746  0.6908  0.0544
    1C        C  366   3.626   4.585   4.942 -0.1926  0.0700 -0.0888
    1C        C  367   3.761   4.552   4.945 -0.0138  0.8028  0.0674
    1C        C  368   4.509   3.557   2.048  0.2461 -0.0901  0.0986
    1C        C  369   4.516   3.481   2.166  0.5257 -0.3802 -0.1059
    1C        C  370   4.489   3.695   2.283 -0.0923 -0.3012  0.0961
    1C        C  371   4.511   3.556   2.286 -0.0958 -0.3056 -0.1810
    1C        C  372   4.474   3.768   2.403  0.3210 -0.0550 -0.0027
    1C        C  373   4.495   3.700   2.525  0.1238 -0.0177  0.0464
    1C        C  374   4.425   3.904   2.641  0.0602 -0.2076 -0.0696
    1C        C  375   4.474   3.772   2.645 -0.0353 -0.2310  0.1417
    1C        C  376   4.387   3.966   2.762 -0.1518 -0.2943 -0.0979
    1C        C  377   4.418   3.906   2.886 -0.6434  0.0599  0.1936
    1C        C  378   4.309   4.089   3.009 -0.1718  0.3234  0.1487
    1C        C  379   4.383   3.969   3.008 -0.1774  0.3242  0.1888
    1C        C  380   4.260   4.143   3.130  0.2494  0.0534  0.4399
    1C        C  381   4.302   4.085   3.251 -0.0609 -0.0944  0.4741
    1C        C  382   4.160   4.243   3.373 -0.3339  0.3799 -0.1555
    1C        C  383   4.261   4.144   3.373 -0.6683  0.0367  0.2086
    1C        C  384   4.109   4.296   3.493  0.3304  0.7201 -0.0160
    1C        C  385   4.154   4.242   3.615  0.3944  1.1218  0.1388
    1C        C  386   3.995   4.381   3.735  0.2345  0.2831 -0.1636
    1C        C  387   4.107   4.296   3.737  0.3345  0.4249  0.4289
    1C        C  388   3.940   4.429   3.856  0.4130  0.6808 -0.2383
    1C        C  389   4.005   4.397   3.977  0.4142  0.8573 -0.1892
    1C        C  390   3.812   4.484   4.098  0.2008 -0.0119  0.1103
    1C        C  391   3.941   4.427   4.099  0.4315  0.4959 -0.0870
    1C        C  392   3.748   4.516   4.220 -0.0415 -0.2068  0.0411
    1C        C  393   3.818   4.498   4.342  0.2373  0.1604 -0.0576
    1C        C  394   3.611   4.545   4.466  0.2500  0.2720 -0.1201
    1C        C  395   3.750   4.522   4.463  0.2909  0.4746 -0.0825
    1C        C  396   3.542   4.562   4.588  0.4341 -0.1958  0.0588
    1C        C  397   3.617   4.551   4.707 -0.0948 -0.9049  0.3413
    1C        C  398   3.407   4.542   4.832 -0.4360 -0.0437  0.2807
    1C        C  399   3.547   4.561   4.829 -0.3727 -0.4937  0.1507
    1C        C  400   3.339   4.515   4.951  0.0082 -0.1682  0.5123
    1C        C  401   4.485   3.694   2.048  0.3108 -0.0793  0.0318
    1C        C  402   4.451   3.910   2.161 -0.1085 -0.2516  0.2147
    1C        C  403   4.476   3.771   2.165 -0.4743 -0.3187  0.1313
    1C        C  404   4.404   3.973   2.279  0.3426  0.0426  0.2341
    1C        C  405   4.428   3.901   2.397 -0.4277 -0.3059  0.1769
    1C        C  406   4.308   4.078   2.523  0.0187  0.1303 -0.2040
    1C        C  407   4.393   3.966   2.518 -0.1556 -0.0091  0.0911
    1C        C  408   4.258   4.133   2.643  0.0303 -0.1607 -0.0722
    1C        C  409   4.304   4.079   2.765  0.1790 -0.0565 -0.0882
    1C        C  410   4.167   4.243   2.885 -0.4664 -0.4853 -0.1148
    1C        C  411   4.264   4.141   2.886 -0.4567 -0.4687 -0.0855
    1C        C  412   4.110   4.290   3.006  0.0035 -0.2684  0.0168
    1C        C  413   4.152   4.235   3.128  0.1658 -0.0525  0.0557
    1C        C  414   3.992   4.370   3.249  0.6220  1.3296 -0.2129
    1C        C  415   4.100   4.280   3.251 -0.0956  0.4668 -0.2457
    1C        C  416   3.934   4.414   3.370  0.5202  0.7705 -0.0596
    1C        C  417   3.999   4.385   3.492  0.4172  0.8252  0.0064
    1C        C  418   3.809   4.482   3.612  0.1721  0.6548  0.1567
    1C        C  419   3.938   4.426   3.613  0.0888  0.4594 -0.0321
    1C        C  420   3.741   4.501   3.734  0.0601  0.0469  0.1926
    1C        C  421   3.810   4.485   3.856  0.2070  0.2118  0.1324
    1C        C  422   3.608   4.549   3.978 -0.0213 -0.6699  0.2779
    1C        C  423   3.743   4.511   3.978  0.3168  0.4663  0.1442
    1C        C  424   3.539   4.550   4.101 -0.0580 -0.0639  0.2638
    1C        C  425   3.610   4.547   4.224  0.0506  0.2203  0.2157
    1C        C  426   3.398   4.550   4.349 -0.2964 -0.3160  0.1396
    1C        C  427   3.539   4.557   4.345 -0.2794 -0.5183  0.0987
    1C        C  428   3.328   4.541   4.471  0.0966 -0.8321  0.3422
    1C        C  429   3.401   4.556   4.590  0.3991  0.4507  0.0177
    1C        C  430   3.194   4.505   4.716  0.4064 -0.8492  0.6149
    1C        C  431   3.332   4.539   4.712  0.2436 -0.2203 -0.1541
    1C        C  432   3.125   4.482   4.838 -0.3270  0.1569  0.4098
    1C        C  433   3.203   4.486   4.955 -0.1486  0.5053  0.2837
    1C        C  434   4.371   4.113   2.041 -0.0435 -0.3253 -0.4848
    1C        C  435   4.436   3.989   2.046  0.4457 -0.0415  0.2830
    1C        C  436   4.290   4.151   2.153  0.0594 -0.5408 -0.3377
    1C        C  437   4.322   4.089   2.276  0.0993 -0.1395 -0.1499
    1C        C  438   4.168   4.233   2.398 -0.5819 -0.5680 -0.1833
    1C        C  439   4.266   4.132   2.399 -0.0731 -0.0726 -0.2558
    1C        C  440   4.113   4.286   2.517  0.4076  0.0015  0.0248
    1C        C  441   4.159   4.234   2.639  0.4009  0.2008  0.1069
    1C        C  442   3.989   4.356   2.762 -0.0928  0.2549 -0.2546
    1C        C  443   4.108   4.281   2.762 -0.3957 -0.2196 -0.0612
    1C        C  444   3.932   4.401   2.883  0.2017  0.2461 -0.1165
    1C        C  445   3.996   4.373   3.005  0.0460 -0.2173 -0.1448
    1C        C  446   3.811   4.477   3.125  0.1958  0.6143  0.4198
    1C        C  447   3.937   4.413   3.127  0.0671  0.3323 -0.3192
    1C        C  448   3.741   4.499   3.245  0.2006  0.7363  0.3964
    1C        C  449   3.808   4.477   3.368  0.1001 -0.0445  0.3130
    1C        C  450   3.606   4.535   3.491 -0.0307 -0.1137  0.0506
    1C        C  451   3.745   4.512   3.490  0.0601  0.4240  0.1590
    1C        C  452   3.534   4.547   3.611 -0.0557 -0.1408  0.0378
    1C        C  453   3.605   4.539   3.733 -0.0973 -0.5147  0.0374
    1C        C  454   3.396   4.542   3.858  0.3034 -0.9003  0.0009
    1C        C  455   3.537   4.553   3.856  0.2305  0.1970  0.1445
    1C        C  456   3.329   4.529   3.982  0.2359 -0.6211 -0.0028
    1C        C  457   3.399   4.540   4.104 -0.0758  0.0744  0.1222
    1C        C  458   3.193   4.494   4.229 -0.2951 -0.1061  0.0406
    1C        C  459   3.330   4.531   4.227 -0.0082 -1.1107  0.0865
    1C        C  460   3.128   4.469   4.351 -0.2130  0.2887  0.1746
    1C        C  461   3.193   4.498   4.473 -0.1574 -0.0868  0.2454
    1C        C  462   2.997   4.421   4.596  0.1671  0.4280  0.0513
    1C        C  463   3.125   4.482   4.595  0.0915  0.6087  0.4906
    1C        C  464   2.933   4.388   4.717 -0.5839  0.5029 -0.3160
    1C        C  465   2.991   4.432   4.839 -0.1665 -0.3055 -0.2179
    1C        C  466   2.797   4.335   4.953 -0.0104 -0.0059  0.6980
    1C        C  467   2.906   4.424   4.954 -0.2632  0.3251 -0.2382
    1C        C  468   4.120   4.290   2.036  0.0259 -0.3794  0.1301
    1C        C  469   4.179   4.242   2.153  0.5119  0.0137  0.0468
    1C        C  470   4.004   4.366   2.273  0.2064  0.2345  0.3282
    1C        C  471   4.119   4.283   2.275  0.2155  0.2374 -0.1754
    1C        C  472   3.936   4.396   2.394  0.0743  0.3815  0.2154
    1C        C  473   3.996   4.365   2.518  0.3513 -0.0884 -0.0352
    1C        C  474   3.806   4.462   2.639  0.2151  0.4994 -0.1137
    1C        C  475   3.932   4.398   2.639  0.4068  0.8864 -0.2705
    1C        C  476   3.737   4.488   2.759  0.4611  0.4618  0.0319
    1C        C  477   3.805   4.463   2.880  0.3145  0.4748  0.1117
    1C        C  478   3.605   4.526   3.002  0.3875 -0.0970 -0.2105
    1C        C  479   3.743   4.496   3.002  0.4845  0.3614  0.2234
    1C        C  480   3.534   4.533   3.125  0.1013  0.0810 -0.3905
    1C        C  481   3.602   4.523   3.248  0.0464 -0.0347 -0.3742
    1C        C  482   3.392   4.533   3.371  0.3247 -0.6092  0.2562
    1C        C  483   3.533   4.539   3.370  0.3137 -0.4593 -0.1696
    1C        C  484   3.320   4.528   3.493  0.0097 -0.5916  0.0682
    1C        C  485   3.393   4.538   3.613 -0.0355 -0.4616  0.0843
    1C        C  486   3.192   4.482   3.739 -0.1382 -0.2289  0.0234
    1C        C  487   3.326   4.527   3.737  0.0914 -0.8836  0.1174
    1C        C  488   3.127   4.461   3.862  0.1351 -0.6832  0.0960
    1C        C  489   3.193   4.489   3.983  0.2463 -0.6698  0.0355
    1C        C  490   3.006   4.395   4.108 -0.1305 -0.2823  0.0384
    1C        C  491   3.129   4.463   4.106  0.1445 -0.7710 -0.0338
    1C        C  492   2.943   4.363   4.230 -0.2712  0.1117  0.0783
    1C        C  493   3.001   4.405   4.352  0.0023 -0.1603  0.0500
    1C        C  494   2.823   4.296   4.474 -0.0366  0.3478  0.2187
    1C        C  495   2.938   4.378   4.475  0.0592  0.2198  0.1716
    1C        C  496   2.771   4.251   4.597 -0.5088  0.2557 -0.0098
    1C        C  497   2.820   4.301   4.720 -0.3334  0.1811 -0.0488
    1C        C  498   2.667   4.156   4.841  0.7107 -0.1092  0.3138
    1C        C  499   2.752   4.268   4.839  0.6235 -0.0397  0.4577
    1C        C  500   2.590   4.113   4.951  0.0933 -0.0441 -0.0881
    1C        C  501   3.998   4.356   2.036  0.1665 -0.1226  0.3053
    1C        C  502   3.811   4.465   2.155  0.5155  0.7371  0.3353
    1C        C  503   3.937   4.402   2.154  0.0489 -0.2149  0.2799
    1C        C  504   3.740   4.479   2.276  0.1151  0.5459  0.1211
    1C        C  505   3.807   4.453   2.397  0.1301  0.5092  0.1027
    1C        C  506   3.600   4.510   2.517 -0.1330  0.0176 -0.0534
    1C        C  507   3.738   4.481   2.517 -0.0573  0.3828  0.0224
    1C        C  508   3.528   4.528   2.637  0.1899 -0.2048  0.1723
    1C        C  509   3.599   4.519   2.759  0.3809  0.0894  0.0772
    1C        C  510   3.390   4.525   2.881  0.1215 -0.5757 -0.0035
    1C        C  511   3.531   4.530   2.882  0.1075 -0.3145 -0.0422
    1C        C  512   3.322   4.521   3.004  0.2905 -0.0805  0.0996
    1C        C  513   3.393   4.529   3.126  0.1094  0.0267  0.1940
    1C        C  514   3.187   4.487   3.247  0.2660 -0.1978 -0.0658
    1C        C  515   3.324   4.525   3.248  0.2589 -0.1901  0.2671
    1C        C  516   3.120   4.465   3.369  0.1576 -0.1161 -0.1143
    1C        C  517   3.184   4.490   3.492 -0.1796  0.0661  0.0239
    1C        C  518   3.001   4.392   3.619  0.0376 -0.4821 -0.1564
    1C        C  519   3.127   4.455   3.617 -0.3375  0.2875  0.0137
    1C        C  520   2.944   4.352   3.742 -0.2548 -0.1605 -0.1850
    1C        C  521   3.005   4.389   3.864  0.1876 -0.7844 -0.2084
    1C        C  522   2.836   4.265   3.987 -0.1598  0.0828  0.3311
    1C        C  523   2.948   4.351   3.987 -0.0804 -0.0168 -0.0869
    1C        C  524   2.781   4.225   4.111 -0.5563  0.2721  0.2166
    1C        C  525   2.830   4.278   4.232 -0.5117  0.4291  0.1305
    1C        C  526   2.680   4.134   4.359 -0.1372  0.2338  0.2007
    1C        C  527   2.770   4.243   4.354  0.0057  0.1203  0.2979
    1C        C  528   2.644   4.076   4.483 -0.6273  0.4394  0.1576
    1C        C  529   2.688   4.137   4.602 -0.4660  0.2323  0.2039
    1C        C  530   2.586   3.952   4.725  0.0436  0.1027 -0.0484
    1C        C  531   2.637   4.085   4.723 -0.0384  0.1421  0.3490
    1C        C  532   2.537   3.895   4.846  0.0174 -0.0284 -0.1224
    1C        C  533   2.531   3.986   4.956 -0.0657  0.0265 -0.1739
    1C        C  534   3.612   4.551   2.035  0.0351 -0.4707 -0.0793
    1C        C  535   3.747   4.513   2.040  0.1080 -0.1876  0.1638
    1C        C  536   3.532   4.530   2.152 -0.0868  0.0037 -0.0770
    1C        C  537   3.601   4.509   2.274  0.1177  0.5460 -0.0964
    1C        C  538   3.388   4.514   2.395  0.1005  0.0270  0.1479
    1C        C  539   3.529   4.518   2.396  0.0826  0.7387 -0.1340
    1C        C  540   3.318   4.510   2.517  0.2345  0.4964  0.2400
    1C        C  541   3.387   4.524   2.640  0.1934 -0.0880  0.3277
    1C        C  542   3.183   4.468   2.763 -0.2048 -0.0594 -0.0440
    1C        C  543   3.315   4.516   2.761 -0.1120 -0.3250  0.1293
    1C        C  544   3.119   4.450   2.887  0.0814 -0.3218  0.0611
    1C        C  545   3.188   4.477   3.007  0.3250 -0.1824 -0.1150
    1C        C  546   2.997   4.383   3.131 -0.2445  0.9403  0.2707
    1C        C  547   3.120   4.453   3.128  0.1884  0.1820 -0.1265
    1C        C  548   2.940   4.343   3.254 -0.2059  0.1850  0.0434
    1C        C  549   3.000   4.390   3.373  0.0170  0.1154 -0.0438
    1C        C  550   2.833   4.263   3.499 -0.4132  0.3115  0.0860
    1C        C  551   2.943   4.352   3.496 -0.6532  0.6028 -0.1990
    1C        C  552   2.781   4.217   3.622 -0.3351  0.3573  0.1358
    1C        C  553   2.830   4.268   3.744 -0.6856  0.4192  0.2529
    1C        C  554   2.682   4.119   3.868 -0.9928  0.7285 -0.2208
    1C        C  555   2.777   4.223   3.866 -0.0532 -0.1035  0.3422
    1C        C  556   2.643   4.062   3.992 -0.2208  0.4618 -0.0985
    1C        C  557   2.684   4.121   4.113 -0.7829  0.4795  0.0844
    1C        C  558   2.588   3.941   4.242  0.4632 -0.0656 -0.0796
    1C        C  559   2.644   4.071   4.239  0.0108  0.1381  0.2069
    1C        C  560   2.569   3.875   4.365  0.4380 -0.0966 -0.1028
    1C        C  561   2.592   3.944   4.485  0.4036  0.0164 -0.1637
    1C        C  562   2.530   3.741   4.610  0.7184  0.0193 -0.1694
    1C        C  563   2.562   3.879   4.607  0.4642  0.0794 -0.1163
    1C        C  564   2.513   3.675   4.733  1.0365  0.1085 -0.0773
    1C        C  565   2.516   3.753   4.851  0.1610 -0.0430  0.0470
    1C        C  566   2.542   3.540   4.973  0.3205  0.0800  0.0395
    1C        C  567   2.528   3.679   4.969 -0.2807  0.0261  0.1398
    1C        C  568   3.321   4.473   2.035  0.0065 -0.5743  0.1888
    1C        C  569   3.392   4.506   2.151  0.0792 -0.9815  0.2591
    1C        C  570   3.181   4.466   2.275 -0.0085 -0.3066 -0.0065
    1C        C  571   3.319   4.499   2.273  0.0051 -0.3505  0.2483
    1C        C  572   3.114   4.446   2.398  0.2515 -0.2375  0.1440
    1C        C  573   3.182   4.473   2.519  0.4957 -0.5041  0.0648
    1C        C  574   2.989   4.389   2.644  0.2376 -0.5638  0.1822
    1C        C  575   3.113   4.457   2.641  0.0263 -0.1941 -0.1605
    1C        C  576   2.933   4.347   2.766  0.2289 -0.5618  0.1765
    1C        C  577   2.993   4.386   2.887  0.2759 -0.6993  0.1948
    1C        C  578   2.824   4.260   3.009 -0.0476  0.2351 -0.1257
    1C        C  579   2.934   4.349   3.010  0.0876  0.0619  0.3390
    1C        C  580   2.772   4.215   3.132 -0.1288  0.3500 -0.1209
    1C        C  581   2.827   4.259   3.255 -0.0306 -0.0514 -0.0209
    1C        C  582   2.687   4.105   3.380 -0.1296  0.1742 -0.1080
    1C        C  583   2.781   4.210   3.379 -0.2555  0.2869  0.0295
    1C        C  584   2.641   4.055   3.504 -0.8780  0.4627 -0.2613
    1C        C  585   2.685   4.113   3.625 -0.2629  0.2720 -0.3896
    1C        C  586   2.571   3.936   3.753 -0.1395  0.3975 -0.0612
    1C        C  587   2.638   4.060   3.747 -0.4100  0.5295 -0.3351
    1C        C  588   2.551   3.870   3.876  0.3768  0.3765  0.0108
    1C        C  589   2.589   3.932   3.997  0.6541  0.0991  0.0634
    1C        C  590   2.522   3.736   4.123  0.3491 -0.0746  0.1580
    1C        C  591   2.564   3.871   4.122  0.9428 -0.2618 -0.0580
    1C        C  592   2.517   3.668   4.246  0.5122 -0.2842  0.0471
    1C        C  593   2.529   3.739   4.367  0.6723 -0.1620 -0.0435
    1C        C  594   2.508   3.529   4.491  0.1138 -0.1411  0.1238
    1C        C  595   2.511   3.670   4.489  0.6077 -0.1532 -0.0494
    1C        C  596   2.518   3.459   4.613  0.5181 -0.1758  0.0717
    1C        C  597   2.518   3.533   4.733 -0.1789  0.0612 -0.0723
    1C        C  598   2.542   3.323   4.855 -0.1264  0.1543 -0.1060
    1C        C  599   2.533   3.464   4.856  0.9377  0.2279 -0.1086
    1C        C  600   2.525   3.243   4.969 -0.1207  0.2268 -0.0535
    1C        C  601   3.188   4.433   2.036 -0.0761 -0.3103 -0.0439
    1C        C  602   2.975   4.394   2.156 -0.0913  0.0587  0.0425
    1C        C  603   3.113   4.433   2.154 -0.1105  0.1203 -0.0664
    1C        C  604   2.918   4.356   2.281 -0.0472 -0.1859 -0.0110
    1C        C  605   2.986   4.387   2.400  0.0965  0.0805 -0.1601
    1C        C  606   2.819   4.259   2.525  0.6641 -0.4609 -0.5743
    1C        C  607   2.926   4.351   2.523  0.5154 -0.2708 -0.0544
    1C        C  608   2.767   4.212   2.648  0.4629  0.0083 -0.4758
    1C        C  609   2.820   4.262   2.769  0.4247 -0.8319 -0.1009
    1C        C  610   2.675   4.105   2.890  0.0801 -0.2692  0.2328
    1C        C  611   2.765   4.214   2.889  0.1915 -0.3632 -0.0145
    1C        C  612   2.638   4.049   3.015 -0.5610 -0.2448  0.0557
    1C        C  613   2.678   4.110   3.136 -0.3538  0.5402 -0.3946
    1C        C  614   2.572   3.928   3.262  0.5690  0.1399  0.3601
    1C        C  615   2.638   4.052   3.259  0.2371  0.3047 -0.3119
    1C        C  616   2.546   3.865   3.386  0.1694 -0.4342 -0.0044
    1C        C  617   2.583   3.927   3.508 -0.1183  0.1120 -0.1914
    1C        C  618   2.518   3.730   3.633  0.9357  0.0814  0.4706
    1C        C  619   2.552   3.867   3.632  0.2277  0.2583 -0.0359
    1C        C  620   2.507   3.660   3.755  0.8244 -0.1780  0.3098
    1C        C  621   2.526   3.731   3.875  0.7554  0.3100  0.0312
    1C        C  622   2.517   3.525   4.002  0.4245  0.1989  0.2150
    1C        C  623   2.512   3.667   4.000  0.7249  0.2055 -0.0295
    1C        C  624   2.519   3.455   4.125  0.2746 -0.3076 -0.0700
    1C        C  625   2.515   3.527   4.247  0.3621 -0.2811 -0.0824
    1C        C  626   2.539   3.318   4.371 -0.1731 -0.1119 -0.0916
    1C        C  627   2.517   3.457   4.370  0.4232 -0.0119  0.0685
    1C        C  628   2.554   3.247   4.492 -0.4005  0.0955  0.0616
    1C        C  629   2.535   3.318   4.612 -0.1873 -0.2696  0.3161
    1C        C  630   2.599   3.115   4.738  0.1084 -0.3218 -0.0847
    1C        C  631   2.555   3.250   4.734 -0.5054 -0.5050  0.2406
    1C        C  632   2.618   3.045   4.860 -0.2197 -0.1981  0.0396
    1C        C  633   2.559   3.108   4.975  0.3758  0.3521  0.0516
    1C        C  634   2.779   4.297   2.048 -0.0195  0.1870 -0.0732
    1C        C  635   2.886   4.388   2.045  0.1891 -0.0616 -0.1761
    1C        C  636   2.749   4.223   2.163  0.2400  0.0182 -0.1127
    1C        C  637   2.808   4.266   2.284 -0.4088  0.2498  0.1286
    1C        C  638   2.667   4.106   2.404  0.1119 -0.8287  0.0741
    1C        C  639   2.760   4.212   2.406 -0.1948 -0.5503 -0.1299
    1C        C  640   2.627   4.047   2.526 -0.0646 -0.2366  0.3092
    1C        C  641   2.674   4.106   2.645  0.4913 -0.0317 -0.0019
    1C        C  642   2.577   3.918   2.771  0.3339  0.0233  0.0373
    1C        C  643   2.635   4.047   2.768  0.4718 -0.0368 -0.0082
    1C        C  644   2.548   3.857   2.895  0.1646 -0.2580 -0.1383
    1C        C  645   2.571   3.925   3.016 -0.1243 -0.4824  0.0487
    1C        C  646   2.509   3.726   3.142 -0.7318  0.2194 -0.1593
    1C        C  647   2.543   3.863   3.140  0.8240 -0.1374  0.4444
    1C        C  648   2.503   3.658   3.266 -0.0917 -0.0243 -0.2538
    1C        C  649   2.511   3.729   3.388 -0.0733 -0.3735 -0.0509
    1C        C  650   2.509   3.519   3.512 -0.0812  0.3014  0.0806
    1C        C  651   2.505   3.660   3.511  0.4997  0.3247  0.3789
    1C        C  652   2.522   3.451   3.635  0.3701 -0.0984 -0.1854
    1C        C  653   2.505   3.519   3.757  0.0961 -0.1804 -0.1794
    1C        C  654   2.538   3.313   3.883 -0.6355  0.2672 -0.2406
    1C        C  655   2.516   3.452   3.881 -0.0962  0.3559  0.1243
    1C        C  656   2.547   3.243   4.006 -0.3641  0.0397 -0.3876
    1C        C  657   2.539   3.316   4.127  0.1339 -0.3283 -0.1324
    1C        C  658   2.603   3.115   4.250 -0.6064 -0.2875  0.2219
    1C        C  659   2.554   3.247   4.249 -0.8797 -0.3851 -0.0276
    1C        C  660   2.629   3.048   4.372 -0.5096 -0.4471  0.1183
    1C        C  661   2.603   3.114   4.494 -0.3132  0.1207 -0.1385
    1C        C  662   2.708   2.933   4.617  0.1798 -0.0042 -0.1305
    1C        C  663   2.628   3.049   4.616  0.3317  0.1061 -0.2710
    1C        C  664   2.747   2.872   4.738 -0.4080 -0.4802 -0.1775
    1C        C  665   2.699   2.927   4.860 -0.5308 -0.4139 -0.2522
    1C        C  666   2.738   2.862   4.977  0.1378  0.5802  0.0923
    1C        C  667   2.676   4.018   2.047  0.0759  0.0245  0.0392
    1C        C  668   2.685   4.097   2.161  0.1059  0.0824 -0.0015
    1C        C  669   2.582   3.911   2.285  0.1973 -0.2434 -0.1806
    1C        C  670   2.637   4.042   2.282 -0.5049  0.0586 -0.2494
    1C        C  671   2.545   3.848   2.406 -0.0891  0.0484 -0.1077
    1C        C  672   2.569   3.918   2.526 -0.6212  0.0042  0.0330
    1C        C  673   2.504   3.719   2.654 -0.6710  0.1717  0.0550
    1C        C  674   2.545   3.854   2.649 -0.0352 -0.0128  0.1477
    1C        C  675   2.502   3.648   2.776 -0.0906 -0.2184 -0.1565
    1C        C  676   2.516   3.719   2.898  0.8425 -0.4215 -0.1302
    1C        C  677   2.494   3.512   3.025 -0.4450 -0.0144  0.2634
    1C        C  678   2.503   3.653   3.022 -0.6033 -0.0057 -0.0333
    1C        C  679   2.493   3.443   3.148 -0.2352 -0.2274  0.1474
    1C        C  680   2.499   3.517   3.268 -0.6762 -0.0083  0.0349
    1C        C  681   2.543   3.310   3.392  0.0009  0.2770 -0.1510
    1C        C  682   2.515   3.448   3.389 -0.2999  0.2207  0.1180
    1C        C  683   2.558   3.242   3.515  0.2837  0.1008 -0.2804
    1C        C  684   2.548   3.312   3.638  0.4074 -0.0895 -0.1635
    1C        C  685   2.609   3.112   3.761 -0.0996  0.0824  0.1702
    1C        C  686   2.561   3.245   3.761 -0.3977 -0.0227 -0.0342
    1C        C  687   2.636   3.050   3.884 -0.9864 -0.4426  0.1063
    1C        C  688   2.604   3.114   4.006 -0.4991 -0.0229  0.0162
    1C        C  689   2.712   2.933   4.129  0.2709  0.6052 -0.2900
    1C        C  690   2.634   3.050   4.128 -0.7734 -0.0715  0.0608
    1C        C  691   2.754   2.874   4.251 -0.2096 -0.2033 -0.5045
    1C        C  692   2.707   2.930   4.371  0.1126 -0.0486 -0.4442
    1C        C  693   2.753   2.879   4.494  0.5220  0.6333 -0.3004
    1C        C  694   2.617   3.891   2.048 -0.1291  0.1142 -0.2538
    1C        C  695   2.521   3.702   2.170 -0.1902  0.0191  0.1710
    1C        C  696   2.569   3.834   2.167 -0.0768 -0.0279 -0.2982
    1C        C  697   2.500   3.635   2.293 -0.3391 -0.2723 -0.0076
    1C        C  698   2.517   3.710   2.411 -0.4234  0.1070 -0.2289
    1C        C  699   2.487   3.504   2.536 -0.3320  0.2207  0.2375
    1C        C  700   2.495   3.645   2.534  0.3138  0.1897 -0.0431
    1C        C  701   2.498   3.435   2.659 -0.4571  0.1043  0.1891
    1C        C  702   2.497   3.507   2.781 -0.4829 -0.1936  0.3718
    1C        C  703   2.509   3.298   2.905 -0.0594 -0.1706  0.1411
    1C        C  704   2.498   3.439   2.904 -0.5794 -0.2055  0.3704
    1C        C  705   2.531   3.231   3.028  0.0755 -0.1676  0.1220
    1C        C  706   2.521   3.304   3.148  0.1067 -0.1621  0.1232
    1C        C  707   2.596   3.105   3.271 -0.8850 -0.4207 -0.0543
    1C        C  708   2.547   3.238   3.270 -0.7801 -0.3805  0.2018
    1C        C  709   2.626   3.044   3.394 -0.5033 -0.0643  0.0323
    1C        C  710   2.607   3.110   3.517 -0.1662 -0.0642  0.0827
    1C        C  711   2.714   2.927   3.640 -0.4516 -0.0847  0.2272
    1C        C  712   2.639   3.047   3.639 -0.2850  0.0198  0.1579
    1C        C  713   2.759   2.875   3.764 -0.3681 -0.5560  0.0003
    1C        C  714   2.714   2.932   3.884 -0.4326 -0.0842 -0.2430
    1C        C  715   2.757   2.878   4.007  0.1165  0.3547 -0.2380
    1C        C  716   2.443   3.500   2.061  0.0507  0.0399  0.2064
    1C        C  717   2.508   3.624   2.054  0.1159  0.0034  0.1438
    1C        C  718   2.456   3.417   2.177 -0.0282  0.0886  0.2529
    1C        C  719   2.476   3.495   2.294 -0.1210 -0.3098  0.5375
    1C        C  720   2.507   3.288   2.420 -0.2462 -0.2891 -0.0445
    1C        C  721   2.483   3.427   2.418 -0.3651 -0.2937  0.5635
    1C        C  722   2.530   3.221   2.542 -0.3369 -0.3871 -0.0768
    1C        C  723   2.521   3.296   2.662  0.1949  0.1884 -0.3819
    1C        C  724   2.579   3.095   2.786 -0.2833  0.3406 -0.1264
    1C        C  725   2.534   3.228   2.785  0.1054  0.4763 -0.2098
    1C        C  726   2.617   3.035   2.908 -0.4251 -0.2306 -0.3572
    1C        C  727   2.589   3.103   3.029  0.3410 -0.0537 -0.2737
    1C        C  728   2.711   2.926   3.154  0.1074  0.1875 -0.1045
    1C        C  729   2.630   3.042   3.150 -0.2308 -0.0449 -0.0707
    1C        C  730   2.750   2.868   3.277  0.1546  0.3641 -0.0352
    1C        C  731   2.707   2.929   3.397  0.0965  0.3529 -0.0498
    1C        C  732   2.753   2.871   3.517 -0.3181  0.3071  0.0897
    1C        C  733   2.482   3.192   2.070 -0.0690 -0.1570  0.2073
    1C        C  734   2.488   3.278   2.180 -0.9373 -0.1304  0.2459
    1C        C  735   2.586   3.085   2.301  0.6530  0.0890  0.0733
    1C        C  736   2.526   3.214   2.301  0.1386 -0.1432 -0.0801
    1C        C  737   2.613   3.022   2.424  0.4216 -0.1721 -0.0039
    1C        C  738   2.583   3.090   2.544 -0.3997 -0.4165 -0.0655
    1C        C  739   2.686   2.909   2.669  0.1998  0.2875  0.0680
    1C        C  740   2.604   3.024   2.667 -0.3252 -0.0802  0.1069
    1C        C  741   2.741   2.858   2.789 -0.3971 -0.6333 -0.0431
    1C        C  742   2.703   2.922   2.908 -0.1695 -0.0402 -0.2825
    1C        C  743   2.752   2.871   3.030  0.7776  0.9403 -0.2315
    1C        C  744   2.535   3.063   2.071  0.0599 -0.1098 -0.1468
    1C        C  745   2.685   2.895   2.184  0.0653  0.1379  0.0095
    1C        C  746   2.606   3.013   2.181  0.3764  0.3471 -0.1339
    1C        C  747   2.732   2.841   2.305  0.8326  0.5583 -0.0968
    1C        C  748   2.689   2.903   2.425  0.4386 -0.1636  0.1417
    1C        C  749   2.735   2.854   2.549  0.5210  0.1702  0.2481
    1C        C  750   2.727   2.833   2.066 -0.2287  0.0266 -0.0400
    1C        C  751   3.656   2.304   1.989  0.7547 -0.3356  0.0202
    1C        O  752   3.687   2.308   1.867  0.1221 -0.3708 -0.1488
    1C        O  753   3.690   2.190   2.061 -0.0586 -0.5352  0.0995
    1C        C  754   4.618   3.058   1.953  0.3226 -0.2066  0.0072
    1C        O  755   4.576   2.960   1.886 -0.2542  0.3804 -0.4992
    1C        O  756   4.755   3.087   1.945  0.4209 -0.4342  0.8226
    1C        C  757   4.428   4.215   1.951 -0.3656  0.1694 -0.1313
    1C        O  758   4.375   4.238   1.839  0.0705  0.2614 -0.3240
    1C        O  759   4.513   4.315   2.002  0.3289 -0.4045 -0.1426
    1C        C  760   3.581   4.643   1.923  0.2320 -0.4180 -0.0911
    1C        O  761   3.535   4.600   1.814  0.3513  0.0285 -0.3197
    1C        O  762   3.603   4.781   1.933  0.6687 -0.4943 -0.0110
    1C        C  763   2.875   4.486   1.935  0.0855 -0.0949 -0.1950
    1C        O  764   2.823   4.599   1.958  0.7381  0.2271 -0.2979
    1C        O  765   2.937   4.467   1.811  0.3494 -0.1736 -0.0503
    1C        C  766   2.308   3.512   2.001  0.0089 -0.0954  0.2716
    1C        O  767   2.284   3.485   1.880 -0.3129 -0.1744  0.3506
    1C        O  768   2.193   3.508   2.081 -0.4363 -0.2860 -0.3649
    1C        C  769   4.700   3.586   5.032  0.3425  0.2065  0.0001
    1C        O  770   4.700   3.607   5.156 -0.3939  0.0710  0.0273
    1C        O  771   4.827   3.612   4.980  0.2678  0.3434 -0.1153
    1C        C  772   4.272   4.449   5.029  0.3126  0.3279 -0.4878
    1C        O  773   4.270   4.445   5.155 -0.0901 -0.0506 -0.5039
    1C        O  774   4.360   4.548   4.985  0.0691  0.4689 -0.6569
    1C        C  775   4.134   2.492   5.052 -0.2467 -0.1251  0.2894
    1C        O  776   4.158   2.369   5.037  0.1367 -0.0311  0.1020
    1C        O  777   4.189   2.543   5.171  0.0221 -0.4265  0.2951
    1C        C  778   2.875   4.537   5.044  0.1691  0.2691 -0.0127
    1C        O  779   2.791   4.625   5.013 -0.2598  0.0445  0.4922
    1C        O  780   2.875   4.516   5.182  0.0786  0.0593 -0.0434
    1C        C  781   2.489   3.036   5.084  0.7887 -0.2735 -0.0884
    1C        O  782   2.387   2.966   5.062  0.3563  0.2023  0.3832
    1C        O  783   2.541   3.019   5.211 -0.2636 -0.3360  0.3447
    1C        C  784   2.419   3.974   5.052  0.0897  0.0203  0.0066
    1C        O  785   2.301   4.012   5.029  0.0752  0.0706  0.1620
    1C        O  786   2.426   3.923   5.182 -0.4290  0.2689  0.1328
    1C        C  787   2.964   2.455   1.961  0.0236  0.1219  0.0960
    1C        O  788   2.949   2.516   1.852 -0.0234  0.7354  0.4408
    1C        O  789   2.872   2.357   1.998  0.0925  0.2282  0.5536
    1C        C  790   3.155   2.364   5.055 -0.4685 -0.1322 -0.0002
    1C        O  791   3.137   2.253   4.997  0.2630 -0.2818  0.0533
    1C        O  792   3.132   2.362   5.193 -0.7693  0.0725 -0.0457
    1C        H  793   4.268   3.022   5.051 -1.7297 -0.3394 -0.6388
    1C        H  794   4.184   2.797   5.063  0.3123  1.1243  0.8436
    1C        H  795   4.484   3.124   5.062  0.6856  0.2208  0.7131
    1C        H  796   4.539   3.359   5.063  1.0843 -1.1799  0.2259
    1C        H  797   4.500   3.778   5.049 -0.1604  0.1020 -0.5120
    1C        H  798   4.387   3.948   5.043  0.4242  0.8440  0.5010
    1C        H  799   4.260   4.149   5.041  0.7617  1.2276  0.4085
    1C        H  800   4.026   4.521   5.023 -0.9136 -1.0608  0.4458
    1C        H  801   3.798   4.510   5.036 -1.5039  1.6532  1.1092
    1C        H  802   3.599   4.675   4.993 -0.5422 -0.3135  0.4109
    1C        H  803   3.401   4.500   5.036  1.5209 -1.1827 -0.7114
    1C        H  804   3.169   4.432   5.041 -0.7041  0.4953  0.0636
    1C        H  805   3.889   2.471   5.052  1.0072 -0.4927 -0.2814
    1C        H  806   3.672   2.491   5.072 -0.0169 -0.0977 -0.0964
    1C        H  807   2.983   2.536   5.045  0.0134  0.4266  0.3313
    1C        H  808   3.431   2.444   5.063  0.4072 -0.5905  0.0260
    1C        H  809   2.896   2.756   5.062 -0.7616  1.1810  0.0519
    1C        H  810   2.664   2.851   5.054 -0.0177 -0.4130 -0.1848
    1C        H  811   2.475   3.283   5.054 -0.1762  0.8524 -0.3686
    1C        H  812   2.524   3.496   5.069  2.6589 -2.0350 -0.4046
    1C        H  813   2.568   3.732   5.053 -0.8248  0.5925  0.0386
    1C        H  814   2.573   4.179   5.033  0.4761 -0.5645  0.4228
    1C        H  815   2.737   4.330   5.041  1.5324 -1.1234  1.7468
    1C        H  816   2.745   2.897   1.981 -0.7123 -1.9665 -1.7253
    1C        H  817   2.866   2.706   1.979  0.2714  1.1680  0.3386
    1C        H  818   3.212   2.435   1.983 -1.0909 -0.3483 -0.4725
    1C        H  819   3.426   2.467   1.981 -1.1433 -1.0782  0.3320
    1C        H  820   3.832   2.537   1.974  0.3971 -1.4140  0.4491
    1C        H  821   4.042   2.647   1.966 -2.1549  0.3397 -1.4509
    1C        H  822   4.296   2.681   2.005 -1.5636  0.8530 -2.0502
    1C        H  823   4.326   2.941   1.974  2.1163  0.8344 -0.3576
    1C        H  824   4.594   3.305   1.972 -0.0684 -1.8838 -0.4329
    1C        H  825   4.526   3.510   1.954  3.6149  0.1771  0.4501
    1C        H  826   4.450   3.731   1.954 -0.3416 -1.3595 -0.2416
    1C        H  827   3.806   4.549   1.958 -0.4481  1.3682  0.4029
    1C        H  828   3.964   4.392   1.941  0.0333 -1.8081 -0.3141
    1C        H  829   4.180   4.299   1.947  2.2386  0.9864  1.6641
    1C        H  830   4.485   3.955   1.957 -1.0799 -1.6197 -0.0311
    1C        H  831   2.578   3.860   1.953  1.7122 -0.7979 -0.7460
    1C        H  832   2.744   4.033   1.966 -0.9956  0.6637 -0.7720
    1C        H  833   2.720   4.289   1.960 -0.1113  1.6460 -0.1808
    1C        H  834   3.340   4.545   1.959  0.5606  0.2322  1.0678
    1C        H  835   3.148   4.393   1.945 -0.0123  1.4530 -0.8939
    1C        H  836   2.518   3.004   1.984 -0.1066 -1.3323  0.6873
    1C        H  837   2.401   3.206   2.001 -0.3822 -0.7177  0.4493
    1C        H  838   2.590   3.627   1.986 -0.5891 -1.7570 -0.8476
    2V3OU   H29  839   2.804   3.538   0.653  0.8571 -0.7302  0.7526
    2V3OU   C27  840   2.785   3.490   0.752 -0.6272 -0.2303  0.7401
    2V3OU   H27  841   2.735   3.565   0.819 -3.6445  1.0594 -2.6158
    2V3OU   H28  842   2.731   3.392   0.749 -0.1283 -0.4957  0.3118
    2V3OU   O11  843   2.912   3.462   0.812 -0.2240 -0.3905 -0.1740
    2V3OU   C15  844   2.924   3.388   0.928  0.1142  0.0911  0.1011
    2V3OU   C13  845   3.051   3.362   0.983  0.1505  0.3431  0.1417
    2V3OU   C14  846   3.074   3.261   1.078 -0.2255 -0.4143 -0.5558
    2V3OU   C16  847   2.971   3.183   1.130  0.0303 -0.6793 -0.4485
    2V3OU    H6  848   2.986   3.109   1.210 -1.0567  0.0223  0.4216
    2V3OU   C12  849   3.211   3.217   1.109 -0.0285  0.2709 -0.4208
    2V3OU    O2  850   3.235   3.111   1.173  1.0358  0.8772  0.2237
    2V3OU   C10  851   3.323   3.306   1.075  0.4760 -0.1377  0.1373
    2V3OU    C8  852   3.453   3.263   1.098  0.4566 -0.0430  0.4266
    2V3OU   O10  853   3.478   3.145   1.160  0.0528 -0.6388 -0.5144
    2V3OU   H26  854   3.390   3.117   1.192  0.2873  1.4592  2.4263
    2V3OU    C6  855   3.559   3.338   1.038 -0.1735  0.2243 -0.3795
    2V3OU    C5  856   3.534   3.455   0.967 -0.0096  0.3848 -0.1714
    2V3OU    C4  857   3.700   3.289   1.039 -0.1715  0.2394  0.1247
    2V3OU    H4  858   3.720   3.222   1.128  0.5011  0.3284  0.0455
    2V3OU    H5  859   3.706   3.225   0.946  0.7520 -0.2808  0.5345
    2V3OU    C2  860   3.812   3.392   1.034 -0.1357  0.2159  0.4295
    2V3OU    O6  861   3.802   3.467   1.155 -0.5223  0.1942  0.4107
    2V3OU   H21  862   3.736   3.535   1.136 -0.0838  0.5964  0.2991
    2V3OU    C3  863   3.777   3.492   0.924  0.4008  0.4433  0.4607
    2V3OU    H2  864   3.861   3.567   0.919  0.5878  0.4358  2.5663
    2V3OU    H3  865   3.777   3.436   0.827  0.4325  0.8881  0.2024
    2V3OU   C25  866   3.946   3.323   1.007 -0.2684  0.3152 -0.5197
    2V3OU    O7  867   3.991   3.288   0.898  0.2103  0.1153 -0.2607
    2V3OU   C26  868   4.024   3.285   1.132 -0.8017  0.8095 -0.0316
    2V3OU   H22  869   4.062   3.378   1.182 -1.6027  1.7904 -1.1896
    2V3OU   H23  870   4.109   3.217   1.104 -0.4264  0.9859  0.6476
    2V3OU    O8  871   3.954   3.200   1.221  0.4033 -0.0411  0.1274
    2V3OU   H24  872   3.928   3.248   1.301  1.9625 -0.3573  0.8614
    2V3OU    C1  873   3.641   3.557   0.944  0.1559  0.1773 -0.3184
    2V3OU    H1  874   3.617   3.614   0.849  0.2626  0.1568 -0.3570
    2V3OU    O3  875   3.655   3.650   1.051 -0.1870 -0.3804  0.2125
    2V3OU   C19  876   3.613   3.783   1.021  0.4356 -0.1605  0.3022
    2V3OU    H9  877   3.514   3.791   0.968 -0.5518  3.8838  2.3846
    2V3OU    O4  878   3.709   3.841   0.935  0.6864 -1.2095 -0.1468
    2V3OU   C20  879   3.841   3.869   0.981  0.2732  0.0172  0.3524
    2V3OU   H10  880   3.898   3.771   0.985  2.2714  1.1685  2.2390
    2V3OU   C24  881   3.604   3.855   1.155  0.1064  0.4464 -0.0430
    2V3OU   H16  882   3.538   3.792   1.220  0.2699 -0.2593 -0.5589
    2V3OU   H17  883   3.552   3.953   1.140 -1.5151 -0.2749  0.5982
    2V3OU   C23  884   3.745   3.873   1.211  0.0357 -0.3979  0.4094
    2V3OU   H15  885   3.791   3.770   1.233  1.8294  0.8365  2.9781
    2V3OU    N1  886   3.733   3.946   1.336  0.2702  0.2409  0.0595
    2V3OU   H19  887   3.804   3.916   1.399  0.0467  2.5815  1.5486
    2V3OU   H20  888   3.642   3.930   1.375 -1.2164  1.1020 -2.7301
    2V3OU   C21  889   3.848   3.940   1.116 -0.1081 -0.1223  0.4477
    2V3OU   H11  890   3.950   3.920   1.162 -0.0560  1.1904  0.9543
    2V3OU    O5  891   3.829   4.081   1.125 -0.1675 -0.0929 -0.0748
    2V3OU   H18  892   3.770   4.095   1.201 -1.1451  1.0294 -1.0027
    2V3OU   C22  893   3.909   3.942   0.866  0.0368 -0.2185  0.0613
    2V3OU   H12  894   3.854   4.038   0.846 -1.9174 -1.2135  0.3349
    2V3OU   H13  895   3.912   3.878   0.774  1.5688 -1.1364  0.7199
    2V3OU   H14  896   4.016   3.961   0.889 -0.0711 -0.5167  0.8237
    2V3OU   C11  897   3.153   3.466   0.968  0.1108  0.3311 -0.2092
    2V3OU    O1  898   3.127   3.578   0.918  0.3142  0.1967 -0.6293
    2V3OU    C9  899   3.290   3.426   1.007 -0.0743 -0.6684 -0.5457
    2V3OU    C7  900   3.399   3.500   0.960 -0.1309  0.1597  0.5839
    2V3OU    O9  901   3.378   3.606   0.873  0.2851  0.1391  0.4599
    2V3OU   H25  902   3.284   3.625   0.886  0.0243 -1.1193  0.5291
    2V3OU   C17  903   2.823   3.314   0.992  0.4167 -0.7490 -0.3853
    2V3OU    H7  904   2.719   3.337   0.971  0.2507 -1.2280 -0.1172
    2V3OU   C18  905   2.843   3.212   1.085 -0.0582 -0.6645 -0.1873
    2V3OU    H8  906   2.761   3.165   1.140  1.2506 -1.7901  0.8677
    3SOL     OW  907   1.541   5.059   6.779  0.1920  0.2067 -0.0889
    3SOL    HW1  908   1.538   5.043   6.681 -3.4174 -3.1696  0.3199
    3SOL    HW2  909   1.502   5.149   6.800  0.7833  0.8622 -1.6681
    4SOL     OW  910   3.378   2.889   3.272  0.8588  0.4481  0.1942
    4SOL    HW1  911   3.457   2.861   3.219 -0.4246 -0.5391 -1.2954
    4SOL    HW2  912   3.385   2.853   3.365  0.6753 -2.3987 -0.8182
    5SOL     OW  913   5.196   4.596   4.016 -0.6158  0.1316 -0.3268
    5SOL    HW1  914   5.125   4.526   4.010  0.3926 -0.8763 -0.7984
    5SOL    HW2  915   5.170   4.675   3.960 -1.5813 -0.0022 -0.0858
    6SOL     OW  916   5.408   4.253   1.885 -0.3164 -0.4200 -0.5675
    6SOL    HW1  917   5.353   4.333   1.909 -1.6965 -1.7211  0.8354
    6SOL    HW2  918   5.364   4.204   1.809 -0.6437 -1.0041 -0.0053
    7SOL     OW  919   1.393   4.994   3.753  0.6766 -0.3276  0.0872
    7SOL    HW1  920   1.464   5.061   3.773  1.3586 -1.1464  0.4572
    7SOL    HW2  921   1.420   4.940   3.673 -0.3854  0.5575 -0.9117
    8SOL     OW  922   5.421   1.207   6.800 -0.5229 -0.0883 -0.1128
    8SOL    HW1  923   5.388   1.274   6.867  0.0795  0.7238 -0.6119
    8SOL    HW2  924   5.495   1.154   6.841 -0.7416 -0.1889  0.1568
    9SOL     OW  925   5.756   2.573   1.227  0.5003  0.3277  0.9545
    9SOL    HW1  926   5.662   2.594   1.200  0.0511  0.2073  2.3126
    9SOL    HW2  927   5.814   2.566   1.146 -0.2338  2.4019  0.1894
   10SOL     OW  928   4.135   0.276   2.063  0.3576 -0.3605  0.1532
   10SOL    HW1  929   4.155   0.296   1.967  0.2094  1.9597  0.5557
   10SOL    HW2  930   4.221   0.273   2.115  0.2755  1.2174  0.4153
   11SOL     OW  931   1.914   0.505   5.198  0.0310 -0.2055 -0.0173
   11SOL    HW1  932   1.970   0.547   5.269  0.0328  0.8871 -0.6356
   11SOL    HW2  933   1.951   0.530   5.108 -0.3503 -1.0296 -0.4069
   12SOL     OW  934   6.474   4.265   5.471 -0.5713  0.6098  0.2000
   12SOL    HW1  935   6.434   4.234   5.557  1.2933  0.9861  1.2720
   12SOL    HW2  936   6.428   4.348   5.441 -0.1369  1.4576  1.7848
   13SOL     OW  937   0.756   3.696   0.931 -0.1461  0.4302 -0.6776
   13SOL    HW1  938   0.688   3.624   0.939 -0.0455  0.3455 -0.5883
   13SOL    HW2  939   0.822   3.690   1.006 -0.6493  1.1591 -0.1631
   14SOL     OW  940   4.255   2.367   0.209 -0.1824  0.2737 -0.2134
   14SOL    HW1  941   4.338   2.313   0.226  0.5407  1.3051 -0.3879
   14SOL    HW2  942   4.237   2.371   0.111 -0.2473  0.3447 -0.1986
   15SOL     OW  943   1.043   1.767   5.795  0.3756  0.3991  0.9154
   15SOL    HW1  944   1.133   1.776   5.752 -0.4555 -2.1968 -1.7197
   15SOL    HW2  945   1.012   1.672   5.788 -2.8478  1.3112  1.1986
   16SOL     OW  946   0.797   1.798   5.263  0.5587  0.2798 -0.1108
   16SOL    HW1  947   0.761   1.890   5.277  0.6795  1.2301 -4.7348
   16SOL    HW2  948   0.734   1.731   5.302 -1.9549  2.1789 -0.6875
   17SOL     OW  949   6.919   5.147   0.078  0.3771 -0.3474  0.4637
   17SOL    HW1  950   7.019   5.144   0.077  0.3796 -0.0498 -0.4695
   17SOL    HW2  951   6.882   5.096   0.001 -0.1360  1.1924 -0.3493
   18SOL     OW  952   0.157   5.156   4.746 -0.2255  0.1421  0.1040
   18SOL    HW1  953   0.183   5.201   4.832 -0.4994  0.0244  0.2502
   18SOL    HW2  954   0.078   5.202   4.707  1.2347  1.6485 -1.2724
   19SOL     OW  955   2.453   2.390   4.530 -0.0506 -0.6432  0.5005
   19SOL    HW1  956   2.434   2.431   4.619 -3.0854 -0.3829 -0.1747
   19SOL    HW2  957   2.515   2.313   4.542  0.2889 -0.0898  2.7083
   20SOL     OW  958   1.943   4.347   2.303  0.0049  0.0367  0.2567
   20SOL    HW1  959   2.033   4.390   2.301  0.3339 -0.6021  0.7042
   20SOL    HW2  960   1.873   4.416   2.321  0.3949  0.5515 -0.1891
   21SOL     OW  961   4.316   5.066   4.276  0.1141  0.3097 -0.3015
   21SOL    HW1  962   4.251   5.005   4.321 -1.9477  3.5654  1.4838
   21SOL    HW2  963   4.409   5.035   4.296 -0.7858 -1.0645  2.2878
   22SOL     OW  964   2.159   3.883   3.665  0.2372 -0.1532  0.2377
   22SOL    HW1  965   2.145   3.897   3.567 -0.6498 -1.5835  0.1374
   22SOL    HW2  966   2.226   3.950   3.699  1.1299 -0.1135 -1.4843
   23SOL     OW  967   0.997   2.386   6.974  0.1350  0.7798  0.2611
   23SOL    HW1  968   0.901   2.367   6.993 -0.5604  1.8170 -1.8547
   23SOL    HW2  969   1.005   2.477   6.932  1.8229  0.0473 -1.1346
   24SOL     OW  970   2.527   0.293   4.201  0.3382  0.3878 -0.4239
   24SOL    HW1  971   2.543   0.203   4.242  0.4242  0.0310 -1.2153
   24SOL    HW2  972   2.432   0.297   4.168  0.6665  0.1384 -1.4443
   25SOL     OW  973   3.184   4.931   4.047  0.4646  0.0927 -0.3969
   25SOL    HW1  974   3.181   4.916   3.949  1.5949 -0.8495 -0.3140
   25SOL    HW2  975   3.105   4.888   4.091  0.4910 -0.3660 -0.7960
   26SOL     OW  976   6.417   6.499   0.282  0.2122  0.1064 -0.2269
   26SOL    HW1  977   6.423   6.433   0.357 -1.2110 -2.6213 -2.3067
   26SOL    HW2  978   6.348   6.569   0.305 -0.0827 -0.5664  1.0440
   27SOL     OW  979   4.187   0.924   5.672  0.0443 -0.7564  0.0102
   27SOL    HW1  980   4.103   0.877   5.699  0.0218 -1.7429 -1.6625
   27SOL    HW2  981   4.265   0.876   5.713 -0.1396 -0.3113  0.9144
   28SOL     OW  982   1.363   2.377   0.988  0.3480 -0.0450  0.1030
   28SOL    HW1  983   1.460   2.399   0.983  0.4844 -0.8104 -0.9992
   28SOL    HW2  984   1.347   2.286   0.949 -0.8564  0.2045 -0.0430
   29SOL     OW  985   1.970   0.566   0.542 -0.1946  0.7731 -0.1352
   29SOL    HW1  986   1.893   0.588   0.602 -0.2487 -0.2726  0.1878
   29SOL    HW2  987   1.937   0.560   0.447 -0.1945  1.9484 -0.2257
   30SOL     OW  988   0.646   5.895   0.385 -0.0354 -0.1909 -0.0691
   30SOL    HW1  989   0.621   5.820   0.446 -0.0652  0.5638  0.8641
   30SOL    HW2  990   0.574   5.964   0.387  0.7467  0.6190  0.3276
   31SOL     OW  991   3.210   4.853   4.569 -0.3717  0.1140  0.2314
   31SOL    HW1  992   3.298   4.893   4.595 -0.3571 -0.2251  0.7125
   31SOL    HW2  993   3.166   4.911   4.499  0.8988 -0.4827 -1.1184
   32SOL     OW  994   5.366   2.476   3.094  0.0094  0.1045  0.4068
   32SOL    HW1  995   5.359   2.482   3.193 -0.7080  0.0617  0.3650
   32SOL    HW2  996   5.362   2.568   3.055  2.2014  0.3007  0.5080
   33SOL     OW  997   2.481   1.042   3.959 -0.2168  0.1597  0.3118
   33SOL    HW1  998   2.484   1.088   3.870  2.2686  0.7679  0.6131
   33SOL    HW2  999   2.530   1.098   4.027  1.0533 -1.8968  1.2100
   34SOL     OW 1000   4.845   3.257   0.657  0.3838 -0.2128  0.3304
   34SOL    HW1 1001   4.829   3.285   0.752  2.9234 -1.2410  1.1463
   34SOL    HW2 1002   4.878   3.163   0.656  0.4548 -0.1928 -1.5988
   35SOL     OW 1003   4.435   4.264   5.309  0.3828 -0.1043 -0.2393
   35SOL    HW1 1004   4.361   4.291   5.248  0.3353 -0.0422 -0.1543
   35SOL    HW2 1005   4.466   4.343   5.362  0.2209 -0.2218  0.0319
   36SOL     OW 1006   5.871   6.000   0.449  0.1423 -0.2947  0.2132
   36SOL    HW1 1007   5.796   6.061   0.472 -0.8851 -0.5884 -2.1463
   36SOL    HW2 1008   5.958   6.049   0.455 -0.5895  1.1804 -0.8319
   37SOL     OW 1009   0.668   0.797   3.706  0.3525 -0.2317  0.0316
   37SOL    HW1 1010   0.693   0.736   3.631 -1.1761 -0.6423 -0.1638
   37SOL    HW2 1011   0.693   0.754   3.793 -1.6549 -1.6726 -0.0394
   38SOL     OW 1012   0.568   6.133   1.975  0.5754  0.0885 -0.3032
   38SOL    HW1 1013   0.543   6.229   1.964 -0.2591  0.0621  1.0414
   38SOL    HW2 1014   0.508   6.091   2.044  1.4410 -1.1884 -0.2918
   39SOL     OW 1015   5.359   2.119   6.269  0.1357  0.2958 -0.0683
   39SOL    HW1 1016   5.310   2.031   6.275  1.8353 -0.5485  3.1782
   39SOL    HW2 1017   5.301   2.191   6.307 -0.5184  0.2793 -0.9856
   40SOL     OW 1018   0.305   5.240   5.207 -0.2832  0.1220 -0.1903
   40SOL    HW1 1019   0.252   5.310   5.256 -0.6504 -0.3440  0.0830
   40SOL    HW2 1020   0.393   5.227   5.253 -0.1138  0.5736 -0.3811
   41SOL     OW 1021   3.025   0.708   1.246 -0.2664  0.0611  0.1841
   41SOL    HW1 1022   3.044   0.610   1.246 -0.2775  0.0583  0.5076
   41SOL    HW2 1023   3.001   0.737   1.153  1.7532  0.1427 -0.3566
   42SOL     OW 1024   6.935   6.895   5.074  0.1731  0.0337  0.3487
   42SOL    HW1 1025   7.034   6.902   5.062 -0.0735  2.2863 -0.9546
   42SOL    HW2 1026   6.896   6.837   5.002  0.3453  0.9330 -0.4878
   43SOL     OW 1027   3.638   2.099   0.105  0.2163 -0.1556  0.1645
   43SOL    HW1 1028   3.589   2.067   0.186 -1.0465  0.3571 -0.3776
   43SOL    HW2 1029   3.573   2.125   0.034  1.1919  1.9878 -0.0464
   44SOL     OW 1030   1.411   2.680   0.933 -0.0779 -0.2221  0.8104
   44SOL    HW1 1031   1.330   2.627   0.958  0.2188 -0.4887  1.2279
   44SOL    HW2 1032   1.490   2.645   0.984  0.0101  1.0081  1.5559
   45SOL     OW 1033   4.906   6.574   5.628 -0.4256  0.3093  0.0808
   45SOL    HW1 1034   5.003   6.550   5.618 -0.2146  1.2527 -0.2745
   45SOL    HW2 1035   4.856   6.549   5.546 -0.1832  1.1627 -0.3382
   46SOL     OW 1036   5.130   5.020   3.041 -0.1641 -0.2533  0.1362
   46SOL    HW1 1037   5.174   5.036   3.129 -0.4024  0.1255  0.1853
   46SOL    HW2 1038   5.104   5.107   3.000 -0.6577 -0.4645 -0.0005
   47SOL     OW 1039   4.977   5.626   0.503 -0.0135 -0.8396  0.1415
   47SOL    HW1 1040   4.892   5.653   0.548 -1.2785 -2.7464 -0.9375
   47SOL    HW2 1041   5.019   5.705   0.458 -1.0811  0.1698  0.8794
   48SOL     OW 1042   2.426   6.129   4.071 -0.2410  0.2540  0.0169
   48SOL    HW1 1043   2.469   6.106   4.158 -0.1753  1.6701  0.3685
   48SOL    HW2 1044   2.497   6.136   4.000 -0.3154 -1.0957 -0.2167
   49SOL     OW 1045   0.556   0.405   1.876 -1.1530 -0.2203 -0.0751
   49SOL    HW1 1046   0.651   0.399   1.844 -1.6281  0.9904 -1.8744
   49SOL    HW2 1047   0.523   0.314   1.900  0.4746 -0.6519  0.7020
   50SOL     OW 1048   4.723   0.268   0.047 -0.0018  0.1007  0.9773
   50SOL    HW1 1049   4.721   0.343  -0.019  0.6879 -0.4330  0.3323
   50SOL    HW2 1050   4.634   0.260   0.092 -0.2279  0.9829  0.6921
   51SOL     OW 1051   6.666   1.179   3.003 -0.1350  0.0313 -0.7048
   51SOL    HW1 1052   6.749   1.203   3.055 -0.0216  1.9820 -1.6985
   51SOL    HW2 1053   6.587   1.183   3.063  0.1340  1.1529 -0.4092
   52SOL     OW 1054   5.606   1.598   0.422 -0.2018 -0.7490  0.0776
   52SOL    HW1 1055   5.658   1.646   0.352 -0.2771 -0.9061 -0.0883
   52SOL    HW2 1056   5.663   1.583   0.502 -0.6308  1.0216  0.7665
   53SOL     OW 1057   2.850   6.092   6.895 -0.2146  0.1563 -0.1053
   53SOL    HW1 1058   2.791   6.146   6.956 -0.8063 -1.6429  0.9820
   53SOL    HW2 1059   2.802   6.009   6.867  0.6980  0.1222 -1.7124
   54SOL     OW 1060   0.056   6.850   6.440 -0.3086 -0.0896  0.3832
   54SOL    HW1 1061   0.148   6.888   6.446 -0.9106  1.7456 -1.2739
   54SOL    HW2 1062   0.060   6.757   6.402  1.0494 -1.2615  3.1061
   55SOL     OW 1063   5.856   4.312   5.003 -0.3689 -0.5127  0.2296
   55SOL    HW1 1064   5.822   4.237   5.060  1.3263 -1.1877  0.4358
   55SOL    HW2 1065   5.942   4.346   5.042 -0.3649  0.5713 -0.6750
   56SOL     OW 1066   4.694   2.668   1.460 -0.3976  0.0641 -0.6950
   56SOL    HW1 1067   4.634   2.688   1.537  0.8400 -0.3490  0.4295
   56SOL    HW2 1068   4.660   2.588   1.410 -2.4103  1.6181 -1.9618
   57SOL     OW 1069   6.405   0.427   6.295 -0.8317  0.2384  0.1755
   57SOL    HW1 1070   6.421   0.475   6.209  0.3844  0.5717  0.5612
   57SOL    HW2 1071   6.390   0.330   6.277 -1.8768  0.5049 -0.4958
   58SOL     OW 1072   4.095   1.662   0.924  0.1553  0.1461  0.6212
   58SOL    HW1 1073   4.055   1.599   0.858  0.6421 -0.1168  0.5765
   58SOL    HW2 1074   4.168   1.715   0.880  2.0351 -1.6020  1.4877
   59SOL     OW 1075   5.431   6.804   2.279 -0.2496  0.3167  0.2203
   59SOL    HW1 1076   5.339   6.813   2.239 -1.5388 -1.0954  2.5969
   59SOL    HW2 1077   5.475   6.721   2.243 -0.3042  0.4641 -0.1922
   60SOL     OW 1078   2.974   2.765   1.115  0.2818  0.1744 -0.1855
   60SOL    HW1 1079   2.894   2.797   1.063  0.1601  1.3923  0.7211
   60SOL    HW2 1080   2.946   2.693   1.178  0.0929 -0.0758 -0.5494
   61SOL     OW 1081   1.941   3.973   5.087 -0.5869 -0.2012 -0.0618
   61SOL    HW1 1082   1.986   3.960   4.998 -2.0573 -0.4176 -0.7950
   61SOL    HW2 1083   2.010   3.967   5.159  1.2034  2.7480 -1.2874
   62SOL     OW 1084   2.361   6.699   4.547  0.4216  0.4041 -0.9031
   62SOL    HW1 1085   2.280   6.642   4.551  0.8324 -0.1810 -0.8126
   62SOL    HW2 1086   2.437   6.652   4.592  0.5925  1.3117 -0.1985
   63SOL     OW 1087   6.650   5.149   6.887 -0.2287  0.9138 -0.4225
   63SOL    HW1 1088   6.632   5.207   6.967  0.1409  0.2105  0.1910
   63SOL    HW2 1089   6.582   5.076   6.884  1.7805 -1.2212  1.3843
   64SOL     OW 1090   6.985   4.771   2.267 -0.2437  0.0177 -0.9210
   64SOL    HW1 1091   6.939   4.689   2.300 -0.0679  0.4880  0.5564
   64SOL    HW2 1092   7.062   4.744   2.209  0.4766 -0.9353  0.4123
   65SOL     OW 1093   0.120   3.410   0.884  0.2816  0.0858  0.2006
   65SOL    HW1 1094   0.130   3.507   0.905  2.6278 -0.5375  2.4812
   65SOL    HW2 1095   0.167   3.356   0.954 -1.3912 -2.7477 -0.6960
   66SOL     OW 1096   0.659   1.161   1.509 -0.1892 -0.4647 -0.0500
   66SOL    HW1 1097   0.626   1.202   1.424 -0.2898  2.4270  1.2604
   66SOL    HW2 1098   0.588   1.101   1.547 -0.2895 -1.4757 -1.7318
   67SOL     OW 1099   3.762   2.289   5.632  0.3818  0.8590 -0.4459
   67SOL    HW1 1100   3.772   2.381   5.670  1.7034  1.0328 -1.1639
   67SOL    HW2 1101   3.767   2.294   5.532  0.4474  0.0147 -0.4864
   68SOL     OW 1102   3.735   1.856   0.836  0.2318 -0.0419 -0.1145
   68SOL    HW1 1103   3.696   1.901   0.756  1.2464  0.8335 -0.1414
   68SOL    HW2 1104   3.760   1.925   0.904  1.0908 -0.6251  0.1743
   69SOL     OW 1105   5.810   4.198   5.664 -0.7500 -0.5528  0.0333
   69SOL    HW1 1106   5.881   4.264   5.689 -1.1251 -0.3510  0.5835
   69SOL    HW2 1107   5.851   4.107   5.654 -0.0224 -0.0781 -1.8268
   70SOL     OW 1108   4.256   0.185   1.463 -0.3495 -0.4843  0.5057
   70SOL    HW1 1109   4.251   0.218   1.369 -0.5020  2.1136  1.3289
   70SOL    HW2 1110   4.185   0.230   1.518 -0.1465 -1.7923  1.9195
   71SOL     OW 1111   5.843   2.188   3.438 -0.0266 -0.5837 -0.1058
   71SOL    HW1 1112   5.843   2.091   3.412  0.0562 -0.9614  1.2078
   71SOL    HW2 1113   5.909   2.203   3.512 -1.1799  0.1377  0.8310
   72SOL     OW 1114   3.119   4.481   0.121 -0.0321 -0.0841 -0.3392
   72SOL    HW1 1115   3.160   4.561   0.164  0.3631 -0.1832 -0.5272
   72SOL    HW2 1116   3.058   4.436   0.186 -0.1534  0.2892 -0.1877
   73SOL     OW 1117   4.205   3.963   1.162 -0.4252 -0.3709  0.0224
   73SOL    HW1 1118   4.304   3.955   1.149 -0.6929 -2.2486 -1.3709
   73SOL    HW2 1119   4.167   3.873   1.184 -1.8689  0.2430  0.1707
   74SOL     OW 1120   0.809   0.712   3.133 -0.1455  0.2765  0.1289
   74SOL    HW1 1121   0.787   0.685   3.227  0.5849 -0.1252  0.1921
   74SOL    HW2 1122   0.868   0.643   3.091  1.4196  1.5377  0.1467
   75SOL     OW 1123   0.080   0.674   0.731  0.7776 -0.2721  0.2314
   75SOL    HW1 1124   0.023   0.748   0.766  0.6761  0.0254 -0.5417
   75SOL    HW2 1125   0.040   0.637   0.647  0.9027 -1.1101  0.5289
   76SOL     OW 1126   3.061   1.564   1.461  0.3322 -0.4486  0.1697
   76SOL    HW1 1127   3.137   1.509   1.497  0.7115  0.5411  0.9118
   76SOL    HW2 1128   3.020   1.617   1.535 -0.0378  0.2635 -0.5355
   77SOL     OW 1129   2.764   2.850   0.000  0.3056 -0.3886 -0.2089
   77SOL    HW1 1130   2.744   2.907  -0.079 -1.3841 -2.9791 -1.8003
   77SOL    HW2 1131   2.680   2.834   0.053 -0.0494 -3.5974 -1.4751
   78SOL     OW 1132   5.980   2.761   4.438  0.4847 -0.0601 -0.1486
   78SOL    HW1 1133   5.948   2.764   4.343 -0.2038 -0.2794  0.0683
   78SOL    HW2 1134   6.012   2.669   4.459  0.6965  0.0052 -0.1890
   79SOL     OW 1135   2.845   1.407   4.173 -0.5070  0.0548  0.1821
   79SOL    HW1 1136   2.841   1.470   4.095 -1.6180  0.2347  0.3741
   79SOL    HW2 1137   2.768   1.425   4.234 -0.5201 -1.1215  0.5324
   80SOL     OW 1138   4.231   5.079   6.397 -0.2799  0.1906  0.5969
   80SOL    HW1 1139   4.267   5.143   6.465  0.5818  0.5677 -0.1944
   80SOL    HW2 1140   4.157   5.124   6.345 -1.0753 -0.1639  1.3864
   81SOL     OW 1141   0.202   2.795   3.237  0.1445 -0.3150 -0.3026
   81SOL    HW1 1142   0.183   2.858   3.162 -1.3864  0.2863  0.5485
   81SOL    HW2 1143   0.276   2.833   3.293  0.3512 -0.0907 -0.7162
   82SOL     OW 1144   1.281   3.793   4.656 -0.0040  0.0240 -0.2185
   82SOL    HW1 1145   1.327   3.874   4.693 -1.5648  0.4520  0.8921
   82SOL    HW2 1146   1.344   3.743   4.596  1.1646  1.7437 -0.4853
   83SOL     OW 1147   2.450   0.152   6.504  0.5371  0.9478  0.3079
   83SOL    HW1 1148   2.413   0.172   6.413  1.9545  2.9153  0.1000
   83SOL    HW2 1149   2.537   0.103   6.494 -0.4681 -1.0367  0.7217
   84SOL     OW 1150   5.449   1.447   3.730  0.6062  0.1143  0.5892
   84SOL    HW1 1151   5.365   1.472   3.682  0.9568 -2.0747 -1.3603
   84SOL    HW2 1152   5.512   1.525   3.729 -0.9534  1.4337  1.1227
   85SOL     OW 1153   0.004   3.268   2.269  0.0078  0.4105 -0.1157
   85SOL    HW1 1154   0.047   3.194   2.320 -2.0036 -1.1536 -0.5368
   85SOL    HW2 1155   0.046   3.356   2.294  1.2229 -0.6464  1.7640
   86SOL     OW 1156   5.708   3.968   6.310 -0.5472 -0.7817 -0.1951
   86SOL    HW1 1157   5.628   3.925   6.266 -0.5093 -0.9494 -0.1026
   86SOL    HW2 1158   5.730   3.918   6.394  0.2942 -1.3767 -0.7550
   87SOL     OW 1159   1.049   2.492   1.812 -0.2978 -0.3619 -0.1044
   87SOL    HW1 1160   0.984   2.460   1.881  1.1326 -0.7910  1.0962
   87SOL    HW2 1161   1.109   2.417   1.785  0.4301  0.2905 -0.3445
   88SOL     OW 1162   2.194   5.638   0.097  0.1024  0.4098  0.1098
   88SOL    HW1 1163   2.125   5.614   0.029  0.7722 -1.2539 -0.0188
   88SOL    HW2 1164   2.263   5.567   0.102  0.6227  0.9696  1.8326
   89SOL     OW 1165   6.854   3.158   5.201 -0.3348 -0.8218 -0.4023
   89SOL    HW1 1166   6.923   3.226   5.180 -0.5403 -1.2040 -2.5513
   89SOL    HW2 1167   6.763   3.196   5.182 -1.0028  0.1745  3.6696
   90SOL     OW 1168   1.885   5.919   2.912  0.0109  0.5807  0.3172
   90SOL    HW1 1169   1.910   5.896   2.818  1.0396 -0.5370  0.8246
   90SOL    HW2 1170   1.839   5.840   2.954  0.0349  0.8720  0.9028
   91SOL     OW 1171   0.579   6.724   0.701  0.3267 -0.3521 -0.7138
   91SOL    HW1 1172   0.533   6.804   0.740 -0.5582 -2.3432  2.7140
   91SOL    HW2 1173   0.522   6.685   0.628 -1.5747 -0.5066  0.7792
   92SOL     OW 1174   2.650   4.951   6.499  0.6354  0.3160 -0.5527
   92SOL    HW1 1175   2.575   4.997   6.547 -1.0558 -2.3162 -0.4706
   92SOL    HW2 1176   2.679   4.871   6.552  3.1700  0.9598 -0.8764
   93SOL     OW 1177   0.929   3.168   5.337  0.3592  0.3535 -0.2973
   93SOL    HW1 1178   1.015   3.179   5.288 -0.4178 -0.0777 -1.8264
   93SOL    HW2 1179   0.915   3.072   5.359  0.2228  0.4098 -0.1358
   94SOL     OW 1180   1.070   2.184   0.275  0.3654  0.4856 -0.7039
   94SOL    HW1 1181   1.106   2.180   0.182  2.1782 -1.8883 -0.0111
   94SOL    HW2 1182   1.115   2.259   0.324  1.2347  0.2248 -1.0767
   95SOL     OW 1183   1.421   1.453   4.910  0.3603 -0.4532 -0.3678
   95SOL    HW1 1184   1.467   1.536   4.942  3.1587 -1.6239 -1.0137
   95SOL    HW2 1185   1.466   1.420   4.827 -1.2312 -2.1704 -0.6151
   96SOL     OW 1186   0.938   0.262   4.996  0.6746 -0.3175  0.4402
   96SOL    HW1 1187   1.007   0.309   5.051  0.2395 -1.3726  1.9685
   96SOL    HW2 1188   0.981   0.222   4.915  1.4046  0.9573  0.1690
   97SOL     OW 1189   1.616   0.196   1.212  0.2102  0.7235  0.6388
   97SOL    HW1 1190   1.657   0.180   1.301 -0.3587  0.6564  0.8930
   97SOL    HW2 1191   1.672   0.154   1.141  0.1808 -0.0118  1.0489
   98SOL     OW 1192   6.612   6.010   1.937 -0.0856  0.1125  0.0186
   98SOL    HW1 1193   6.709   6.034   1.925  0.1141 -0.5364  0.2743
   98SOL    HW2 1194   6.564   6.085   1.981 -0.2950  1.5644 -2.4776
   99SOL     OW 1195   3.523   3.006   5.131 -0.1710  0.0491  0.6007
   99SOL    HW1 1196   3.464   3.068   5.079 -3.2361 -2.0188  1.3202
   99SOL    HW2 1197   3.557   3.052   5.212 -0.7228  1.3715  0.1007
  100SOL     OW 1198   0.768   4.726   4.620 -0.3228  0.8552  0.3382
  100SOL    HW1 1199   0.846   4.775   4.581 -0.9257 -0.0657 -2.2207
  100SOL    HW2 1200   0.799   4.638   4.656 -0.3261 -0.3026 -2.2713
  101SOL     OW 1201   5.300   0.820   4.365  0.0038  0.4174 -0.5927
  101SOL    HW1 1202   5.269   0.778   4.450  0.9926 -0.4750 -0.6511
  101SOL    HW2 1203   5.222   0.858   4.316 -0.6810  0.2099  0.3150
  102SOL     OW 1204   6.800   1.284   6.152 -0.3822  0.4581  0.0060
  102SOL    HW1 1205   6.850   1.244   6.076 -0.0311 -0.5277  0.7245
  102SOL    HW2 1206   6.727   1.221   6.181 -1.8531  1.7294 -0.8150
  103SOL     OW 1207   1.464   1.393   3.921 -0.4268 -0.0019 -0.0203
  103SOL    HW1 1208   1.527   1.352   3.856 -0.6495  2.3024 -1.8312
  103SOL    HW2 1209   1.394   1.326   3.948  0.6050 -1.4699 -0.8892
  104SOL     OW 1210   6.244   2.214   2.797 -0.3595  0.2004  0.1246
  104SOL    HW1 1211   6.284   2.196   2.708  2.3982  0.4961  1.2109
  104SOL    HW2 1212   6.233   2.128   2.848 -0.6450  0.1769  0.0276
  105SOL     OW 1213   5.423   5.252   3.256 -0.2526  0.5524  0.3435
  105SOL    HW1 1214   5.438   5.154   3.269  0.4733  0.4950 -0.8294
  105SOL    HW2 1215   5.354   5.284   3.322  0.3364 -0.4990  1.5095
  106SOL     OW 1216   6.089   0.431   2.803  0.1747 -0.7277  0.5431
  106SOL    HW1 1217   6.123   0.497   2.735  1.1469  0.6597  2.3038
  106SOL    HW2 1218   5.994   0.451   2.823  0.0828 -0.7053  0.1079
  107SOL     OW 1219   2.081   5.445   4.809  0.2768  0.3781  1.0438
  107SOL    HW1 1220   2.150   5.517   4.804 -0.2567  0.9109  1.1773
  107SOL    HW2 1221   2.108   5.378   4.878  1.1192  0.0683  0.4279
  108SOL     OW 1222   3.999   0.266   6.263 -0.7730 -0.0972 -0.1911
  108SOL    HW1 1223   3.979   0.281   6.167  0.5099 -0.1727 -0.4979
  108SOL    HW2 1224   3.927   0.306   6.319 -2.2339 -1.2623 -1.1915
  109SOL     OW 1225   4.534   2.155   4.621  0.5301 -0.0659  0.0322
  109SOL    HW1 1226   4.473   2.076   4.615  0.2239  0.1978 -0.3988
  109SOL    HW2 1227   4.531   2.193   4.713  0.0960 -0.0935  0.0294
  110SOL     OW 1228   0.932   0.551   1.515  0.5666 -0.0455 -0.4154
  110SOL    HW1 1229   0.948   0.557   1.416 -3.2546 -0.3819 -1.2077
  110SOL    HW2 1230   0.887   0.634   1.546 -0.6163 -0.9664  0.4436
  111SOL     OW 1231   4.414   2.062   6.840  0.1921  0.3769  0.7891
  111SOL    HW1 1232   4.330   2.050   6.893 -0.2163  0.4010  0.1658
  111SOL    HW2 1233   4.493   2.042   6.897 -0.3155 -1.9411  0.7728
  112SOL     OW 1234   5.528   4.200   1.200  0.2590  0.2276 -0.6596
  112SOL    HW1 1235   5.485   4.289   1.186  1.8698  1.4804  1.6379
  112SOL    HW2 1236   5.457   4.130   1.207 -1.1604  1.5846 -0.8154
  113SOL     OW 1237   6.764   3.056   4.006 -0.0376  0.6695 -0.2443
  113SOL    HW1 1238   6.831   3.103   3.948 -0.4971  1.6341 -0.0093
  113SOL    HW2 1239   6.811   2.985   4.058  0.8249  1.3686 -0.0355
  114SOL     OW 1240   3.052   3.499   6.477  0.0074  0.0023  0.4900
  114SOL    HW1 1241   3.131   3.458   6.431  1.3272  0.7770  1.9820
  114SOL    HW2 1242   3.083   3.555   6.553 -2.0429 -0.1830  1.5212
  115SOL     OW 1243   2.906   2.231   5.922  0.1739  0.0741  0.0855
  115SOL    HW1 1244   2.867   2.285   5.847 -1.9077 -1.8313 -0.3196
  115SOL    HW2 1245   2.923   2.138   5.890  0.8044 -0.3488  1.5666
  116SOL     OW 1246   4.258   4.505   5.594  0.4425 -0.0680  0.6548
  116SOL    HW1 1247   4.189   4.576   5.582  1.3717  0.6039 -0.9974
  116SOL    HW2 1248   4.214   4.417   5.608 -0.7480  0.3740 -0.2169
  117SOL     OW 1249   2.529   6.169   5.871  0.1294  0.3904 -0.1066
  117SOL    HW1 1250   2.561   6.259   5.842  0.4362  0.3844  0.2046
  117SOL    HW2 1251   2.489   6.176   5.963  0.0307  0.2355 -0.1374
  118SOL     OW 1252   5.043   4.915   2.333 -0.6612  0.1491  0.6685
  118SOL    HW1 1253   5.140   4.920   2.309 -1.1465 -1.2860 -1.8436
  118SOL    HW2 1254   5.018   4.820   2.352 -2.2311 -0.0263 -1.9450
  119SOL     OW 1255   5.344   3.412   6.641  0.0838 -0.2969  0.4416
  119SOL    HW1 1256   5.355   3.479   6.714 -3.3086  0.9098 -0.0007
  119SOL    HW2 1257   5.328   3.459   6.554  0.0655 -1.7192 -0.3570
  120SOL     OW 1258   2.283   4.719   0.130 -0.6593 -0.2423 -0.3133
  120SOL    HW1 1259   2.200   4.665   0.144  0.9451 -2.5297  1.3273
  120SOL    HW2 1260   2.360   4.657   0.112  0.6271  1.8231 -2.5134
  121SOL     OW 1261   5.544   4.180   5.627 -0.1039  0.2631  0.0647
  121SOL    HW1 1262   5.511   4.130   5.708  0.1569 -0.7852 -0.4602
  121SOL    HW2 1263   5.640   4.204   5.640 -0.0370  0.0173  0.0365
  122SOL     OW 1264   0.222   5.430   3.407 -0.5058 -0.1290  0.0394
  122SOL    HW1 1265   0.134   5.398   3.441 -0.1225  1.5886  2.9437
  122SOL    HW2 1266   0.208   5.505   3.342 -1.2668  1.5284  2.0020
  123SOL     OW 1267   1.897   5.742   1.912 -0.0346  1.0502 -0.0961
  123SOL    HW1 1268   1.980   5.769   1.863  1.3014 -0.0021  1.4595
  123SOL    HW2 1269   1.889   5.643   1.914 -1.5859  1.1338 -0.5627
  124SOL     OW 1270   3.735   5.974   1.020 -0.2614  0.5137  0.0366
  124SOL    HW1 1271   3.636   5.977   1.004 -0.5828 -2.9634  0.6733
  124SOL    HW2 1272   3.774   5.894   0.976  2.5185  2.2236 -0.8752
  125SOL     OW 1273   5.293   1.525   4.051 -0.5464  0.1996  0.3063
  125SOL    HW1 1274   5.255   1.433   4.056  1.1950 -0.6568 -1.0412
  125SOL    HW2 1275   5.257   1.571   3.969 -1.7042  0.9066  1.1749
  126SOL     OW 1276   1.049   4.862   2.378 -0.0861  0.1051  0.5224
  126SOL    HW1 1277   0.976   4.899   2.321  0.5453  1.4054  0.5383
  126SOL    HW2 1278   1.095   4.936   2.426  0.6686 -0.7886  1.2150
  127SOL     OW 1279   2.564   2.258   0.111  0.1547 -0.2971 -0.3033
  127SOL    HW1 1280   2.652   2.260   0.065  1.7747 -2.7155  2.3638
  127SOL    HW2 1281   2.551   2.345   0.160  1.0129  0.1351 -0.8163
  128SOL     OW 1282   0.119   2.628   3.673 -0.4906 -0.1505 -0.0375
  128SOL    HW1 1283   0.152   2.718   3.701 -0.4023 -0.9632  2.7534
  128SOL    HW2 1284   0.186   2.584   3.613  0.5603  0.7078  0.4884
  129SOL     OW 1285   6.209   6.174   1.644  0.2649  0.2223  0.7957
  129SOL    HW1 1286   6.171   6.228   1.568 -0.8143 -0.6842  0.6662
  129SOL    HW2 1287   6.306   6.158   1.627  0.1162  0.3177 -0.2308
  130SOL     OW 1288   0.917   0.946   6.411  1.0192 -0.5117  0.3708
  130SOL    HW1 1289   0.850   0.987   6.473  0.2532 -1.4466  0.1807
  130SOL    HW2 1290   0.929   1.005   6.331 -1.3836 -1.4209 -0.7548
  131SOL     OW 1291   1.574   1.829   1.200 -0.3896  1.1070 -0.2616
  131SOL    HW1 1292   1.544   1.854   1.108 -0.0820  0.7523 -0.4620
  131SOL    HW2 1293   1.659   1.777   1.194  0.2763  2.1046  0.2984
  132SOL     OW 1294   3.672   6.631   5.168  0.0189 -0.0000  0.0738
  132SOL    HW1 1295   3.632   6.551   5.124  0.1552 -0.3069  0.5071
  132SOL    HW2 1296   3.711   6.691   5.098  0.4747 -0.6126 -0.2078
  133SOL     OW 1297   1.975   4.978   4.562  0.0330 -0.3093 -0.4653
  133SOL    HW1 1298   2.050   5.033   4.526  1.5833 -1.6115  0.6666
  133SOL    HW2 1299   1.954   4.904   4.497  0.3338 -0.4792 -0.3677
  134SOL     OW 1300   3.437   1.764   3.834  0.0285  0.1072  0.4817
  134SOL    HW1 1301   3.496   1.724   3.904  0.8931 -0.6401 -0.6537
  134SOL    HW2 1302   3.455   1.862   3.827  0.8149 -0.0368  0.4502
  135SOL     OW 1303   0.209   6.833   5.613  0.2583  0.0977 -0.8026
  135SOL    HW1 1304   0.307   6.852   5.604 -0.0319  2.7477  0.6460
  135SOL    HW2 1305   0.160   6.883   5.542 -0.2306  1.1539  0.2616
  136SOL     OW 1306   1.164   5.152   3.635 -0.2660  0.3847  0.0489
  136SOL    HW1 1307   1.224   5.074   3.618 -1.3305 -0.3165 -0.6030
  136SOL    HW2 1308   1.211   5.218   3.693  2.5627  1.6015 -3.2584
  137SOL     OW 1309   0.214   6.393   0.320 -0.2068 -0.3542  0.0510
  137SOL    HW1 1310   0.260   6.481   0.315 -0.8752 -0.0066 -0.0322
  137SOL    HW2 1311   0.197   6.370   0.416  0.4002 -0.6236  0.0972
  138SOL     OW 1312   3.522   5.703   0.692 -0.5291  0.4811 -0.1418
  138SOL    HW1 1313   3.488   5.731   0.603 -1.8925 -0.9056 -0.0914
  138SOL    HW2 1314   3.529   5.783   0.752 -2.4543  1.0177 -0.5759
  139SOL     OW 1315   2.999   6.852   3.097  0.2410 -0.2337  0.0002
  139SOL    HW1 1316   2.932   6.896   3.037 -0.0400 -0.6526 -0.0012
  139SOL    HW2 1317   3.083   6.905   3.098  0.6597 -0.8036 -1.6811
  140SOL     OW 1318   1.593   0.907   6.265 -0.0583  0.5811  0.1644
  140SOL    HW1 1319   1.553   0.846   6.333  0.2149  1.2702  0.9677
  140SOL    HW2 1320   1.676   0.949   6.303  0.5693  0.3480 -0.9030
  141SOL     OW 1321   5.479   6.636   2.745 -0.1939  0.0347 -0.2610
  141SOL    HW1 1322   5.397   6.665   2.695 -0.9035 -0.0155  0.8480
  141SOL    HW2 1323   5.515   6.712   2.798 -0.3076 -0.2936  0.2980
  142SOL     OW 1324   5.374   5.933   4.543  0.3233  0.2770  0.0518
  142SOL    HW1 1325   5.328   5.929   4.631  1.6979  1.9308  0.9222
  142SOL    HW2 1326   5.414   6.024   4.530  1.2790 -0.3269 -1.6892
  143SOL     OW 1327   1.073   1.464   2.269 -0.1529 -0.6889  0.2381
  143SOL    HW1 1328   1.170   1.442   2.271 -0.0482 -0.5452 -1.8194
  143SOL    HW2 1329   1.060   1.561   2.290  0.2869 -0.3696 -0.9313
  144SOL     OW 1330   3.346   2.890   3.873  0.0605 -0.4354 -0.1302
  144SOL    HW1 1331   3.286   2.967   3.895  0.5809 -0.4618  1.5091
  144SOL    HW2 1332   3.295   2.804   3.883 -0.0776 -0.3844 -0.3816
  145SOL     OW 1333   3.501   1.756   2.095 -0.3273  0.4937  0.0342
  145SOL    HW1 1334   3.486   1.774   2.193  0.1260 -0.0191  0.2012
  145SOL    HW2 1335   3.577   1.692   2.084 -0.9922 -0.2131 -0.6052
  146SOL     OW 1336   1.086   4.020   1.837  0.0963 -0.0617  0.4718
  146SOL    HW1 1337   1.163   3.964   1.868 -0.7923 -1.0250  1.0336
  146SOL    HW2 1338   1.086   4.026   1.737  1.0075  0.1321  0.4753
  147SOL     OW 1339   1.246   6.074   1.299 -0.0079 -0.1571  0.2692
  147SOL    HW1 1340   1.197   6.043   1.381  1.8533  1.8430  2.2721
  147SOL    HW2 1341   1.306   6.150   1.323  0.6002  0.5516 -3.0227
  148SOL     OW 1342   4.791   6.629   2.651 -0.5375  0.2214  0.3177
  148SOL    HW1 1343   4.727   6.554   2.667 -1.5558  1.1313  0.6735
  148SOL    HW2 1344   4.746   6.716   2.673  0.2671  1.0249 -1.0498
  149SOL     OW 1345   2.870   1.724   1.631  0.4872  0.3394 -0.4597
  149SOL    HW1 1346   2.914   1.794   1.686  2.0338  0.6820 -2.0424
  149SOL    HW2 1347   2.826   1.767   1.552  1.1948 -0.4260 -1.2871
  150SOL     OW 1348   3.808   0.838   4.104 -0.0103  0.1048  0.4408
  150SOL    HW1 1349   3.746   0.835   4.183  1.4459  0.8722  1.6734
  150SOL    HW2 1350   3.756   0.858   4.021 -1.7510 -1.9002  0.9795
  151SOL     OW 1351   1.362   3.117   5.749 -0.6669 -0.6561  0.3308
  151SOL    HW1 1352   1.445   3.134   5.697 -0.7744  0.0773  0.3824
  151SOL    HW2 1353   1.384   3.066   5.832  0.1044  1.4223  1.4909
  152SOL     OW 1354   4.327   2.338   4.804 -0.0625  0.0336  0.1246
  152SOL    HW1 1355   4.289   2.321   4.714 -0.5174  1.4415  0.0318
  152SOL    HW2 1356   4.255   2.331   4.873 -0.3599  1.8995  0.0360
  153SOL     OW 1357   6.252   6.750   2.721 -0.2618  0.0216  0.0898
  153SOL    HW1 1358   6.346   6.778   2.701 -0.1646 -0.7103 -0.5093
  153SOL    HW2 1359   6.191   6.783   2.650 -0.1427 -1.2607 -0.6396
  154SOL     OW 1360   4.663   1.057   0.782  0.5178  0.0253 -0.6010
  154SOL    HW1 1361   4.635   1.028   0.691  1.3292 -1.2636 -0.4723
  154SOL    HW2 1362   4.685   1.155   0.781 -1.7567  0.5723 -1.1901
  155SOL     OW 1363   6.255   2.287   6.701  0.4675 -0.1404  0.0215
  155SOL    HW1 1364   6.243   2.262   6.797 -0.7356 -0.7329 -0.2634
  155SOL    HW2 1365   6.179   2.347   6.673 -0.4461 -1.7776 -1.1400
  156SOL     OW 1366   4.815   0.924   6.726  0.4268 -0.0713  0.5344
  156SOL    HW1 1367   4.834   0.911   6.823 -0.7083  0.6156  0.8622
  156SOL    HW2 1368   4.718   0.944   6.713  0.6435  0.2533 -0.6993
  157SOL     OW 1369   1.803   3.671   4.731  0.5059 -0.1152 -0.2343
  157SOL    HW1 1370   1.769   3.583   4.765 -0.4624  0.4198  0.2025
  157SOL    HW2 1371   1.787   3.742   4.799  0.5227  0.5613 -0.9259
  158SOL     OW 1372   2.932   1.051   1.748 -0.1809  0.1034  0.0750
  158SOL    HW1 1373   2.874   1.078   1.824  0.0725  0.0991  0.2711
  158SOL    HW2 1374   2.876   1.038   1.666 -0.5239 -0.3844  0.3817
  159SOL     OW 1375   5.311   3.368   3.755  0.0010  0.5621 -0.1974
  159SOL    HW1 1376   5.347   3.334   3.668 -0.2690 -0.9514  0.2520
  159SOL    HW2 1377   5.380   3.355   3.827 -0.2426  0.6460  0.0519
  160SOL     OW 1378   4.901   6.880   4.973  0.2103 -0.3276  0.0918
  160SOL    HW1 1379   4.821   6.863   4.916  1.0631 -0.4535 -1.1065
  160SOL    HW2 1380   4.877   6.944   5.047 -0.6305  0.8097 -1.1287
  161SOL     OW 1381   3.964   3.632   0.644 -0.4569 -0.0796 -0.3431
  161SOL    HW1 1382   4.012   3.610   0.729 -1.2317 -1.1768 -0.1688
  161SOL    HW2 1383   3.983   3.727   0.619 -0.1654  0.2470  1.0274
  162SOL     OW 1384   5.748   4.918   3.708 -0.0399  0.6771 -0.1543
  162SOL    HW1 1385   5.720   4.824   3.726  0.7814  0.7578  1.8142
  162SOL    HW2 1386   5.711   4.947   3.620 -0.6687 -1.3245 -0.6150
  163SOL     OW 1387   5.377   3.446   1.268  0.0414  0.3372  0.0301
  163SOL    HW1 1388   5.477   3.446   1.270  0.0318  0.0178  0.6687
  163SOL    HW2 1389   5.343   3.352   1.277 -0.3260  0.5227  0.6054
  164SOL     OW 1390   4.190   1.752   0.244 -0.0484 -0.5190 -0.1914
  164SOL    HW1 1391   4.188   1.792   0.335  0.1915 -0.4462 -0.2176
  164SOL    HW2 1392   4.127   1.801   0.184 -0.0643 -0.4458 -0.1137
  165SOL     OW 1393   2.939   5.572   5.660  0.3486  0.1011 -0.7749
  165SOL    HW1 1394   2.961   5.578   5.563 -1.3888 -0.5914 -1.2514
  165SOL    HW2 1395   2.840   5.559   5.671  0.9100 -5.3518  0.7701
  166SOL     OW 1396   6.302   1.185   3.146 -0.1648 -0.4462  0.2333
  166SOL    HW1 1397   6.262   1.270   3.182  1.0295  0.3965 -0.3939
  166SOL    HW2 1398   6.293   1.184   3.047  1.1071 -0.3776  0.1117
  167SOL     OW 1399   6.068   1.649   0.815 -0.3756  0.4765  0.2706
  167SOL    HW1 1400   6.044   1.734   0.767 -1.2274  0.5153  0.7495
  167SOL    HW2 1401   5.985   1.601   0.842  0.1014 -0.8751 -0.6022
  168SOL     OW 1402   2.269   6.428   4.972  0.1029  0.1602  0.8337
  168SOL    HW1 1403   2.301   6.492   5.042 -0.1690 -0.1822  1.2761
  168SOL    HW2 1404   2.241   6.478   4.890 -0.6620  0.6521  1.3875
  169SOL     OW 1405   1.061   2.080   2.991 -0.1296 -0.3359 -0.6430
  169SOL    HW1 1406   0.969   2.114   3.008 -0.4391 -1.1517 -0.6876
  169SOL    HW2 1407   1.126   2.155   3.004 -0.8348  0.3791 -1.1222
  170SOL     OW 1408   0.628   6.946   2.363 -0.5183 -0.3227  0.5038
  170SOL    HW1 1409   0.585   6.856   2.375  0.0327 -0.7036 -0.2732
  170SOL    HW2 1410   0.704   6.938   2.299 -1.0295  0.8658 -0.3038
  171SOL     OW 1411   3.216   0.042   1.244  0.0916 -0.0233  0.2983
  171SOL    HW1 1412   3.312   0.053   1.218  0.5525  0.1352  1.9658
  171SOL    HW2 1413   3.210  -0.011   1.328 -1.4719 -2.5287 -1.2589
  172SOL     OW 1414   3.137   5.716   4.798  0.3343 -0.2114 -0.5774
  172SOL    HW1 1415   3.176   5.626   4.819 -0.6627 -0.6027 -0.3573
  172SOL    HW2 1416   3.038   5.707   4.784  0.0714  1.0020  0.3668
  173SOL     OW 1417   6.698   2.266   3.381 -0.0571 -0.6753 -0.3829
  173SOL    HW1 1418   6.713   2.361   3.356  0.5592 -0.9268 -1.0145
  173SOL    HW2 1419   6.758   2.242   3.458 -0.0697 -0.6007 -0.3506
  174SOL     OW 1420   1.033   1.989   5.347  0.2837  0.0929  0.3690
  174SOL    HW1 1421   1.047   2.012   5.251  0.2819 -0.4373  0.2394
  174SOL    HW2 1422   0.937   2.005   5.371 -0.0618 -1.1496 -0.1099
  175SOL     OW 1423   6.952   0.474   3.465 -0.9460 -0.0450 -0.0656
  175SOL    HW1 1424   7.042   0.518   3.473  0.4241 -2.8869  1.6501
  175SOL    HW2 1425   6.940   0.439   3.372 -0.0303 -0.1329 -0.1629
  176SOL     OW 1426   0.182   4.184   1.460  0.0556 -0.6988  0.2374
  176SOL    HW1 1427   0.222   4.245   1.391  1.2340 -0.8525  0.7640
  176SOL    HW2 1428   0.118   4.236   1.516  1.8826  0.4041  1.4137
  177SOL     OW 1429   5.576   5.201   2.547 -0.0186  0.4073 -0.3981
  177SOL    HW1 1430   5.649   5.241   2.604 -0.7632  3.7954 -1.5990
  177SOL    HW2 1431   5.489   5.244   2.570 -1.4922 -2.5647  0.0231
  178SOL     OW 1432   5.847   5.236   5.902 -0.6589  0.0146  0.4163
  178SOL    HW1 1433   5.906   5.311   5.933  0.9953 -1.3173  0.6357
  178SOL    HW2 1434   5.863   5.219   5.804 -1.0278 -0.0796  0.3688
  179SOL     OW 1435   2.959   6.179   5.636 -0.3006 -0.0068  0.0189
  179SOL    HW1 1436   2.877   6.128   5.609  1.2239 -1.3125 -2.5038
  179SOL    HW2 1437   2.956   6.271   5.599 -2.3271  1.4145  3.2624
  180SOL     OW 1438   3.823   6.841   3.642  0.6024 -0.0092 -0.2584
  180SOL    HW1 1439   3.886   6.766   3.624  0.7121  0.1362 -0.4850
  180SOL    HW2 1440   3.847   6.884   3.730  1.6058  0.8241 -0.8994
  181SOL     OW 1441   5.773   5.154   2.115  0.2560  0.2658 -0.0625
  181SOL    HW1 1442   5.870   5.173   2.125  0.4025  1.4595 -2.9020
  181SOL    HW2 1443   5.759   5.062   2.080  0.4724  0.5099 -0.8126
  182SOL     OW 1444   6.246   5.452   4.062  0.1029  0.1988 -0.6523
  182SOL    HW1 1445   6.213   5.523   4.124 -0.4384 -2.2814  2.1449
  182SOL    HW2 1446   6.284   5.376   4.115 -1.8510 -2.8524 -3.2066
  183SOL     OW 1447   1.358   1.034   0.942  0.7828 -0.0498 -0.1185
  183SOL    HW1 1448   1.434   1.008   0.883  2.9009  1.5722  1.7282
  183SOL    HW2 1449   1.392   1.086   1.021 -2.0278 -0.9232  1.8635
  184SOL     OW 1450   4.670   4.947   2.196  0.4516  0.8867  0.3219
  184SOL    HW1 1451   4.579   4.960   2.237  1.2684 -1.7576  3.2695
  184SOL    HW2 1452   4.737   5.000   2.247  0.8502  1.7462 -1.0206
  185SOL     OW 1453   0.444   5.882   5.983  0.9458  0.3379 -0.6758
  185SOL    HW1 1454   0.392   5.936   6.050  0.2771 -1.5072  0.3553
  185SOL    HW2 1455   0.501   5.944   5.929  0.9999  1.9852  1.1196
  186SOL     OW 1456   4.841   4.004   4.106 -0.0716 -0.1442  0.4993
  186SOL    HW1 1457   4.826   3.997   4.007 -1.1948  0.3618  0.6129
  186SOL    HW2 1458   4.764   4.053   4.147 -1.2171 -3.0326  2.0749
  187SOL     OW 1459   4.634   5.360   4.260 -0.0585  0.1663  0.2526
  187SOL    HW1 1460   4.554   5.412   4.291 -1.1753 -1.6554  0.6129
  187SOL    HW2 1461   4.645   5.373   4.161 -0.7813  0.4989  0.2065
  188SOL     OW 1462   5.166   4.935   6.485  0.7484  0.3480  0.7946
  188SOL    HW1 1463   5.223   4.951   6.405 -0.7249  0.4604 -0.2601
  188SOL    HW2 1464   5.088   4.878   6.460  0.1213  0.6018  2.0873
  189SOL     OW 1465   4.900   6.187   4.850  0.4574 -0.7626 -0.2981
  189SOL    HW1 1466   4.890   6.179   4.751  1.0694  0.1647 -0.4514
  189SOL    HW2 1467   4.909   6.096   4.891 -1.4165 -1.2565 -0.8953
  190SOL     OW 1468   6.529   6.959   2.445 -0.4584  0.3221 -0.1098
  190SOL    HW1 1469   6.464   7.006   2.505 -1.1513 -0.3555 -0.3154
  190SOL    HW2 1470   6.592   6.905   2.501  0.3213  1.4491  0.1261
  191SOL     OW 1471   6.499   5.735   4.325  0.0819 -0.3569 -0.1506
  191SOL    HW1 1472   6.565   5.810   4.320  0.3735 -0.6749 -1.5870
  191SOL    HW2 1473   6.413   5.763   4.283  0.3379 -0.9293 -1.1148
  192SOL     OW 1474   5.575   3.091   2.406 -0.1156  0.9516 -0.1168
  192SOL    HW1 1475   5.642   3.113   2.335  0.0276 -0.7166 -0.5587
  192SOL    HW2 1476   5.622   3.048   2.484 -0.5260  0.8841  0.0958
  193SOL     OW 1477   3.243   1.599   1.683  0.0122  0.0842  0.1963
  193SOL    HW1 1478   3.211   1.521   1.735  1.0455  1.1503  2.5642
  193SOL    HW2 1479   3.271   1.672   1.745 -0.9978  2.4214 -1.9018
  194SOL     OW 1480   4.778   5.969   5.552 -0.2635 -0.1454 -0.1400
  194SOL    HW1 1481   4.750   6.023   5.631 -2.0962 -1.2674  0.0438
  194SOL    HW2 1482   4.756   6.018   5.468  1.4231  0.9208 -0.0142
  195SOL     OW 1483   2.631   2.185   4.508  0.1905  0.3503  0.5019
  195SOL    HW1 1484   2.622   2.135   4.595  1.2583  0.0030  0.4354
  195SOL    HW2 1485   2.700   2.257   4.518  0.3074  0.3203 -0.0522
  196SOL     OW 1486   4.836   6.097   1.474 -0.3641 -0.3902  0.7366
  196SOL    HW1 1487   4.845   6.194   1.494  1.2159 -0.4180  0.2545
  196SOL    HW2 1488   4.888   6.043   1.540  2.4704 -0.6190 -1.4687
  197SOL     OW 1489   6.519   3.935   1.800  0.3650 -0.0628 -0.0054
  197SOL    HW1 1490   6.598   3.997   1.801  0.4907 -0.2236  1.0852
  197SOL    HW2 1491   6.546   3.848   1.758  1.5001 -1.0060  2.5161
  198SOL     OW 1492   2.789   1.059   4.501 -0.5066  0.0038 -0.6079
  198SOL    HW1 1493   2.755   0.966   4.500  1.3428 -0.7169 -0.7326
  198SOL    HW2 1494   2.887   1.059   4.480 -0.4476  1.9659 -0.5365
  199SOL     OW 1495   1.752   2.995   1.697  0.2970 -0.7011 -0.1769
  199SOL    HW1 1496   1.828   3.059   1.693  0.8534 -1.2976  0.4698
  199SOL    HW2 1497   1.787   2.901   1.694 -0.6184 -1.0522 -3.4694
  200SOL     OW 1498   5.376   6.944   3.941 -0.0927  0.6756  0.5024
  200SOL    HW1 1499   5.389   7.033   3.985  0.8733  1.0305 -0.4490
  200SOL    HW2 1500   5.432   6.940   3.858 -1.1566 -0.3174 -0.1908
  201SOL     OW 1501   1.861   0.118   4.964  0.4731  0.3667  0.0486
  201SOL    HW1 1502   1.790   0.132   5.033  2.1857 -0.6017  2.1647
  201SOL    HW2 1503   1.822   0.074   4.883 -1.3400 -0.0205  1.0930
  202SOL     OW 1504   5.911   4.153   1.729 -0.0774  0.9419 -0.4110
  202SOL    HW1 1505   5.862   4.226   1.682 -0.5287  1.2128  0.4602
  202SOL    HW2 1506   5.865   4.131   1.814  0.5602  0.2549 -0.2292
  203SOL     OW 1507   1.356   5.012   0.178 -0.4551 -0.1520  0.0313
  203SOL    HW1 1508   1.363   4.985   0.082  0.2550  2.3439 -0.7114
  203SOL    HW2 1509   1.325   4.935   0.233 -0.5015 -1.7586 -2.1350
  204SOL     OW 1510   0.425   4.624   0.060 -0.2764 -0.3946 -0.1956
  204SOL    HW1 1511   0.380   4.608  -0.028 -1.8440  2.2915  0.0222
  204SOL    HW2 1512   0.454   4.536   0.099  0.4218 -1.6814 -3.2988
  205SOL     OW 1513   5.783   5.643   6.003  0.3472  0.2434  0.0507
  205SOL    HW1 1514   5.783   5.619   6.100  1.1055 -1.1080 -0.2568
  205SOL    HW2 1515   5.693   5.624   5.963 -0.2218  1.5754  0.6427
  206SOL     OW 1516   1.191   6.556   2.941 -0.2322 -0.0334  0.2014
  206SOL    HW1 1517   1.213   6.645   2.901 -0.0084 -0.3248 -0.3368
  206SOL    HW2 1518   1.102   6.561   2.987 -0.3702  0.3826 -0.1021
  207SOL     OW 1519   5.459   0.450   4.195  0.0641  0.5155 -0.4177
  207SOL    HW1 1520   5.476   0.548   4.205 -0.2170  0.5531 -0.3063
  207SOL    HW2 1521   5.376   0.425   4.244 -0.0870  0.2955 -0.7823
  208SOL     OW 1522   0.657   0.154   5.475 -0.2337 -0.1037  0.2461
  208SOL    HW1 1523   0.671   0.190   5.383  0.9826  2.4371  1.3304
  208SOL    HW2 1524   0.561   0.126   5.485 -1.0365  1.9129 -1.0734
  209SOL     OW 1525   3.950   0.877   2.347  0.5862 -0.3666  0.1724
  209SOL    HW1 1526   3.940   0.826   2.262  1.5524  0.4578 -0.4592
  209SOL    HW2 1527   3.950   0.814   2.424 -0.5225 -1.1067 -0.4013
  210SOL     OW 1528   4.936   3.313   1.033  0.5388  0.2255 -0.4565
  210SOL    HW1 1529   4.859   3.317   0.968  1.2628  0.2528 -1.3349
  210SOL    HW2 1530   4.986   3.399   1.030  0.9625 -0.0155 -0.3387
  211SOL     OW 1531   2.796   6.189   0.810  0.0988 -0.4248 -0.5965
  211SOL    HW1 1532   2.774   6.272   0.861  0.8650  0.0840 -1.0667
  211SOL    HW2 1533   2.753   6.110   0.854  1.3965 -0.1242  1.3149
  212SOL     OW 1534   3.554   2.118   3.409  0.2553 -0.0500 -0.2140
  212SOL    HW1 1535   3.633   2.118   3.347  0.6282  0.8959  0.2328
  212SOL    HW2 1536   3.566   2.191   3.477 -0.1636 -1.0247  0.9351
  213SOL     OW 1537   5.317   2.837   3.655  0.3356 -0.3437  0.2484
  213SOL    HW1 1538   5.277   2.793   3.574 -0.4206 -0.2304  0.5501
  213SOL    HW2 1539   5.334   2.933   3.635 -1.6763  0.1768  0.8144
  214SOL     OW 1540   2.908   2.288   5.632 -0.0445 -0.0987  0.2656
  214SOL    HW1 1541   2.836   2.355   5.612  0.8203  0.2090 -2.2498
  214SOL    HW2 1542   2.994   2.336   5.649 -0.1504 -0.5030  2.1410
  215SOL     OW 1543   5.312   6.368   4.959 -0.1322 -0.4159  0.0486
  215SOL    HW1 1544   5.262   6.453   4.946 -1.1617 -1.2274 -1.8928
  215SOL    HW2 1545   5.330   6.327   4.869  1.6408 -1.5154  0.8637
  216SOL     OW 1546   1.154   4.267   0.301  0.1378  0.1860 -0.4419
  216SOL    HW1 1547   1.079   4.256   0.367  0.3239 -2.7604 -0.6262
  216SOL    HW2 1548   1.123   4.239   0.210  1.4467 -1.0933 -0.5187
  217SOL     OW 1549   4.676   4.193   5.539  0.6975  0.4371  0.4007
  217SOL    HW1 1550   4.720   4.280   5.560  0.3375  0.4857  0.9991
  217SOL    HW2 1551   4.617   4.166   5.616  0.4499 -0.1068  0.0305
  218SOL     OW 1552   2.841   5.941   3.903 -0.0837 -0.0493 -0.0180
  218SOL    HW1 1553   2.796   5.897   3.981  2.9982 -0.3158  1.7620
  218SOL    HW2 1554   2.786   6.019   3.873 -1.0609  0.5164  2.9147
  219SOL     OW 1555   1.860   3.285   0.984 -0.2438  0.0606 -0.0460
  219SOL    HW1 1556   1.887   3.244   0.897  0.3883 -0.4200  0.3688
  219SOL    HW2 1557   1.774   3.244   1.015  0.8873 -1.7664  0.8691
  220SOL     OW 1558   3.725   4.071   3.864 -0.0555 -0.1181 -0.3354
  220SOL    HW1 1559   3.798   4.007   3.843 -0.2462 -1.1804  1.9319
  220SOL    HW2 1560   3.720   4.085   3.963 -1.2594  1.9441 -0.6256
  221SOL     OW 1561   3.088   6.984   2.322  0.1188 -0.6223 -0.2320
  221SOL    HW1 1562   3.179   6.990   2.282 -0.0365  0.4377 -0.4607
  221SOL    HW2 1563   3.024   7.036   2.266 -0.3457 -0.1590  0.7072
  222SOL     OW 1564   5.904   5.633   0.733  0.5622 -0.0248 -0.1869
  222SOL    HW1 1565   5.962   5.568   0.684  0.3153 -0.0263 -0.4777
  222SOL    HW2 1566   5.918   5.622   0.831 -0.1925 -1.2023 -0.1877
  223SOL     OW 1567   4.451   2.467   5.007 -0.1709 -0.0041  0.6170
  223SOL    HW1 1568   4.413   2.461   4.915 -1.0771 -0.5778  1.0176
  223SOL    HW2 1569   4.378   2.460   5.074  0.5563 -0.3337  1.3968
  224SOL     OW 1570   1.731   2.126   6.488  0.1287 -0.1526 -0.9194
  224SOL    HW1 1571   1.712   2.213   6.535  0.5645 -0.5750  0.0558
  224SOL    HW2 1572   1.656   2.105   6.425 -0.8499  0.0401  0.1601
  225SOL     OW 1573   4.697   6.922   1.191  0.1324  0.3743 -0.1908
  225SOL    HW1 1574   4.772   6.985   1.214 -0.5645  1.6256 -1.2191
  225SOL    HW2 1575   4.691   6.913   1.092  1.4963 -2.9658 -0.1045
  226SOL     OW 1576   4.227   2.753   0.703 -0.5594 -0.6710  0.1127
  226SOL    HW1 1577   4.150   2.765   0.765 -0.9912 -1.2949 -0.2936
  226SOL    HW2 1578   4.209   2.801   0.617 -0.3101 -0.4769  0.1643
  227SOL     OW 1579   1.585   1.952   3.321  0.0734 -0.4231  0.7136
  227SOL    HW1 1580   1.623   1.862   3.342  0.9506  0.0141  1.0305
  227SOL    HW2 1581   1.557   1.955   3.225 -3.4236 -2.2564  1.4939
  228SOL     OW 1582   1.144   1.545   0.592  0.6011  1.0202  0.0618
  228SOL    HW1 1583   1.201   1.502   0.522  0.7128  1.2583  0.0068
  228SOL    HW2 1584   1.160   1.643   0.592  0.3150  1.0670  0.1618
  229SOL     OW 1585   4.743   0.434   3.846 -0.3631  0.0270 -0.1651
  229SOL    HW1 1586   4.648   0.452   3.822  0.2734  2.0604 -1.3990
  229SOL    HW2 1587   4.747   0.362   3.916 -2.7961  0.1578  0.1829
  230SOL     OW 1588   4.013   1.717   6.317  0.0334 -0.0445 -0.6754
  230SOL    HW1 1589   4.062   1.692   6.400 -2.6961  0.6151  1.2903
  230SOL    HW2 1590   4.074   1.767   6.255  1.9881 -0.0224  1.1729
  231SOL     OW 1591   6.871   4.007   0.722  0.0838  0.4583 -0.0757
  231SOL    HW1 1592   6.884   4.105   0.735 -3.1297  0.7193  2.0393
  231SOL    HW2 1593   6.804   3.991   0.649 -1.0736 -0.0434  1.0703
  232SOL     OW 1594   4.056   6.238   1.854  0.2250 -0.1823 -0.0078
  232SOL    HW1 1595   4.015   6.186   1.929 -2.4139  2.8657  0.9411
  232SOL    HW2 1596   4.025   6.201   1.767 -0.3340 -1.1125  0.5663
  233SOL     OW 1597   3.125   0.823   6.944  0.3922 -0.5568 -0.0752
  233SOL    HW1 1598   3.199   0.869   6.993 -1.0344  1.3195  0.3875
  233SOL    HW2 1599   3.141   0.724   6.947  2.0601 -0.3045  1.3357
  234SOL     OW 1600   1.120   0.875   0.426 -0.1530 -1.0085  0.8340
  234SOL    HW1 1601   1.175   0.957   0.413 -0.5455 -0.7691  0.6662
  234SOL    HW2 1602   1.177   0.801   0.463  0.2355 -0.7107  0.8263
  235SOL     OW 1603   4.174   0.902   2.646 -0.2495  0.7745 -0.1517
  235SOL    HW1 1604   4.089   0.881   2.694  0.5650 -0.0227  0.9959
  235SOL    HW2 1605   4.186   0.838   2.570  0.7506 -1.1340  1.5115
  236SOL     OW 1606   4.030   0.760   3.409 -0.2101 -0.5778 -0.4901
  236SOL    HW1 1607   4.058   0.745   3.314  1.2634 -2.7728  0.2042
  236SOL    HW2 1608   4.078   0.695   3.468 -2.1182 -0.1926  1.6107
  237SOL     OW 1609   1.900   2.208   1.322 -1.2831  1.2380 -0.3909
  237SOL    HW1 1610   1.916   2.299   1.360  0.8800  0.4504  0.7623
  237SOL    HW2 1611   1.987   2.160   1.312 -2.4167 -1.0425 -0.1058
  238SOL     OW 1612   5.612   2.741   2.942 -0.2887 -0.2330  0.3953
  238SOL    HW1 1613   5.522   2.698   2.938 -0.6906  0.7103 -1.7790
  238SOL    HW2 1614   5.680   2.680   2.902 -0.2234 -0.3015  0.6078
  239SOL     OW 1615   4.781   4.964   4.455 -0.0382  0.4711  0.2756
  239SOL    HW1 1616   4.797   5.062   4.441  0.6103  0.3161 -0.1034
  239SOL    HW2 1617   4.687   4.950   4.486  0.1510  1.2938  1.2585
  240SOL     OW 1618   4.583   6.757   2.282  0.2524 -0.4995  0.1911
  240SOL    HW1 1619   4.538   6.840   2.314  0.5642  0.0387 -0.7156
  240SOL    HW2 1620   4.590   6.760   2.182  1.1401 -1.1697  0.2255
  241SOL     OW 1621   5.295   2.921   3.172 -0.4668  0.2691 -0.0120
  241SOL    HW1 1622   5.296   2.849   3.102  1.5333 -0.1394  0.3744
  241SOL    HW2 1623   5.281   3.010   3.128 -2.3329 -0.2571 -0.5643
  242SOL     OW 1624   0.705   5.168   5.065 -0.5572  0.2271  0.0606
  242SOL    HW1 1625   0.640   5.231   5.023  0.2408  0.5728 -0.6742
  242SOL    HW2 1626   0.767   5.218   5.125  0.1123  0.1572 -0.5650
  243SOL     OW 1627   5.945   5.633   1.078 -0.1603 -0.1849 -0.4175
  243SOL    HW1 1628   5.961   5.544   1.122  0.0319  1.1442  2.4432
  243SOL    HW2 1629   5.848   5.656   1.084  0.2268  1.1195  1.7648
  244SOL     OW 1630   1.576   6.634   3.455  0.0270  0.4083  0.4462
  244SOL    HW1 1631   1.649   6.569   3.475  1.7062  0.9481 -3.2028
  244SOL    HW2 1632   1.538   6.615   3.365 -2.2160  2.0944  0.9543
  245SOL     OW 1633   5.995   1.888   0.747  0.1592  0.2258  0.7427
  245SOL    HW1 1634   5.927   1.946   0.702 -1.9661 -1.9101  1.0219
  245SOL    HW2 1635   6.053   1.945   0.806 -1.0061  2.2024  0.0751
  246SOL     OW 1636   4.452   1.767   5.835 -0.1640  0.1573  0.2272
  246SOL    HW1 1637   4.414   1.728   5.919 -2.4882 -0.6192 -1.0730
  246SOL    HW2 1638   4.545   1.734   5.822 -0.3555 -1.0587  1.6347
  247SOL     OW 1639   2.931   3.522   6.976  0.4534 -0.2016 -0.7270
  247SOL    HW1 1640   2.986   3.518   6.893 -0.9394 -0.5474 -1.6707
  247SOL    HW2 1641   2.867   3.599   6.970 -0.1936 -0.6931 -0.3202
  248SOL     OW 1642   2.280   4.153   3.710 -0.3652  0.4528 -0.2888
  248SOL    HW1 1643   2.247   4.172   3.618 -2.8288  2.1657  0.8385
  248SOL    HW2 1644   2.255   4.228   3.771  2.0407 -0.1705  1.6351
  249SOL     OW 1645   1.139   6.607   6.551  0.7671 -0.0050 -0.4953
  249SOL    HW1 1646   1.090   6.570   6.630 -0.9081 -0.3705 -1.6566
  249SOL    HW2 1647   1.202   6.537   6.516 -1.8506 -1.6953 -2.2264
  250SOL     OW 1648   1.200   0.932   6.481  0.1995 -0.2511  0.1686
  250SOL    HW1 1649   1.165   1.007   6.538  0.1428 -0.0315 -0.1558
  250SOL    HW2 1650   1.137   0.914   6.406 -0.1819 -1.1580  0.6943
  251SOL     OW 1651   5.927   1.263   0.929  0.0774 -0.1932 -0.2723
  251SOL    HW1 1652   5.858   1.215   0.983 -0.1754 -0.5432 -0.8908
  251SOL    HW2 1653   5.910   1.361   0.933  0.1629 -0.2014  0.4140
  252SOL     OW 1654   0.964   3.696   6.517  0.4191  0.2134  0.2663
  252SOL    HW1 1655   0.868   3.668   6.524  0.3503  0.7904  2.9712
  252SOL    HW2 1656   0.973   3.770   6.451 -0.6908 -0.9210 -1.2144
  253SOL     OW 1657   0.078   0.790   5.938  0.3143 -0.3768  0.3958
  253SOL    HW1 1658   0.058   0.882   5.971  0.2953  0.1718 -1.0727
  253SOL    HW2 1659  -0.003   0.732   5.949 -0.4565  0.4258 -0.7761
  254SOL     OW 1660   6.567   5.860   1.721 -0.0946 -0.3080 -0.2621
  254SOL    HW1 1661   6.469   5.869   1.699 -0.0183  0.7109 -0.2609
  254SOL    HW2 1662   6.587   5.915   1.802  0.0288 -2.4097  1.2147
  255SOL     OW 1663   1.452   2.255   3.589 -0.4494 -0.5537 -0.0410
  255SOL    HW1 1664   1.486   2.266   3.682  0.6259 -0.7640 -0.3914
  255SOL    HW2 1665   1.352   2.255   3.589 -0.4594 -0.0728  1.0495
  256SOL     OW 1666   4.374   4.630   4.739 -0.0178  0.1001 -0.1592
  256SOL    HW1 1667   4.350   4.594   4.828  0.8801 -2.0430 -0.7299
  256SOL    HW2 1668   4.471   4.657   4.739  0.4016 -1.3296 -0.8832
  257SOL     OW 1669   3.879   4.201   5.505  0.1918  0.1210  0.7971
  257SOL    HW1 1670   3.932   4.244   5.431 -1.3057  0.1792 -0.2914
  257SOL    HW2 1671   3.867   4.103   5.485 -0.6938  0.2500  0.6620
  258SOL     OW 1672   0.940   1.132   6.192  0.0745  0.8023  0.0500
  258SOL    HW1 1673   1.021   1.188   6.212  1.4328 -0.6726 -1.0983
  258SOL    HW2 1674   0.922   1.134   6.094 -1.3070  1.0847  0.2900
  259SOL     OW 1675   4.248   6.312   1.039 -0.4501 -0.5727 -0.4224
  259SOL    HW1 1676   4.282   6.404   1.019 -0.1614 -0.8504 -1.2171
  259SOL    HW2 1677   4.201   6.313   1.128  3.3110 -0.5660  1.7771
  260SOL     OW 1678   4.438   6.340   3.684  0.0787 -0.2754  0.1411
  260SOL    HW1 1679   4.400   6.264   3.632 -0.8413  0.3057 -0.0749
  260SOL    HW2 1680   4.411   6.331   3.780 -1.9114  0.8656 -0.2392
  261SOL     OW 1681   4.305   6.782   0.688  0.6922 -0.4203  0.3376
  261SOL    HW1 1682   4.271   6.757   0.779  0.3966  0.5551  0.5021
  261SOL    HW2 1683   4.384   6.841   0.697  0.4010  0.0299 -0.0346
  262SOL     OW 1684   1.025   5.132   1.305  0.5093  0.1932 -0.4622
  262SOL    HW1 1685   1.043   5.034   1.310  0.9263  0.2061 -1.4135
  262SOL    HW2 1686   1.043   5.174   1.393  0.8768 -0.4979 -0.2030
  263SOL     OW 1687   0.921   1.806   4.233  0.5949  0.3078  0.7778
  263SOL    HW1 1688   0.844   1.840   4.288  1.0229  0.5714  1.2167
  263SOL    HW2 1689   0.889   1.789   4.140  0.0657  0.6992  0.8783
  264SOL     OW 1690   6.958   3.232   0.994 -0.8912 -0.0799  0.1403
  264SOL    HW1 1691   6.924   3.261   1.084 -2.4358  1.5739 -0.9003
  264SOL    HW2 1692   7.020   3.302   0.958 -2.2366  0.5399 -1.0964
  265SOL     OW 1693   6.057   4.483   0.018 -0.2909 -0.3145 -0.2073
  265SOL    HW1 1694   6.063   4.583   0.023  0.3406 -0.3991  2.1258
  265SOL    HW2 1695   6.036   4.456  -0.076  0.8528  1.9394 -1.2258
  266SOL     OW 1696   5.331   0.523   5.402  0.2558 -0.3580  0.3300
  266SOL    HW1 1697   5.427   0.537   5.379  0.6234 -0.4223  1.6972
  266SOL    HW2 1698   5.273   0.577   5.341  1.2948  1.7090  1.0789
  267SOL     OW 1699   2.327   5.169   1.376 -0.2449  0.0623  0.3371
  267SOL    HW1 1700   2.307   5.248   1.435 -1.7096 -0.9546  1.2616
  267SOL    HW2 1701   2.365   5.202   1.290  1.1012  1.6455  1.4579
  268SOL     OW 1702   5.447   4.888   3.598 -0.7963  0.4707  0.0463
  268SOL    HW1 1703   5.353   4.859   3.580 -0.5633 -0.5959  0.4451
  268SOL    HW2 1704   5.503   4.873   3.516 -0.3119 -1.8882  0.7336
  269SOL     OW 1705   4.086   0.606   2.231  0.7788 -0.2581 -1.1264
  269SOL    HW1 1706   4.030   0.530   2.263 -0.2858  0.2604 -1.6755
  269SOL    HW2 1707   4.040   0.651   2.154  1.9265  0.2435 -1.5485
  270SOL     OW 1708   6.569   4.997   4.326 -0.1858 -0.2101  0.6365
  270SOL    HW1 1709   6.651   4.956   4.285 -0.8056  0.8591 -1.8645
  270SOL    HW2 1710   6.596   5.058   4.401  1.2953 -0.1568  0.0927
  271SOL     OW 1711   1.611   0.288   3.623  0.4039 -0.0854  0.1737
  271SOL    HW1 1712   1.650   0.239   3.700 -0.2111  0.1973  0.6709
  271SOL    HW2 1713   1.679   0.292   3.549  1.6198  1.0371  1.2875
  272SOL     OW 1714   5.788   5.956   2.480  0.2913  0.2872 -0.5540
  272SOL    HW1 1715   5.714   5.979   2.543  0.6497  0.1065 -0.0574
  272SOL    HW2 1716   5.764   5.987   2.388  0.0205  1.1000 -0.2238
  273SOL     OW 1717   6.180   4.231   2.573 -0.4038  0.0140 -0.1700
  273SOL    HW1 1718   6.100   4.281   2.540 -1.0844 -2.0503 -1.9145
  273SOL    HW2 1719   6.237   4.203   2.496 -0.1621 -2.0163  0.6662
  274SOL     OW 1720   5.197   5.048   3.315  0.2012  0.0410 -0.2861
  274SOL    HW1 1721   5.217   4.972   3.377  1.9113  1.2624  0.7538
  274SOL    HW2 1722   5.184   5.132   3.368 -2.0211  0.4505 -1.3808
  275SOL     OW 1723   2.967   3.191   4.826  0.3198  0.4267  0.0602
  275SOL    HW1 1724   3.007   3.135   4.753 -2.3521 -0.3963 -0.9176
  275SOL    HW2 1725   2.962   3.136   4.910  1.1484  0.5254  0.1823
  276SOL     OW 1726   3.468   0.231   0.297 -0.5394 -0.0679 -0.2645
  276SOL    HW1 1727   3.400   0.243   0.225 -2.3428 -2.1782  0.9461
  276SOL    HW2 1728   3.425   0.241   0.387  0.9097 -0.6671  0.5407
  277SOL     OW 1729   6.470   5.269   6.054 -1.2790  0.0880  0.0224
  277SOL    HW1 1730   6.519   5.195   6.008 -1.0890  0.2876 -0.1010
  277SOL    HW2 1731   6.386   5.234   6.093 -0.2230 -0.6380  1.7346
  278SOL     OW 1732   6.206   3.451   2.200  0.2370  0.1319  0.0338
  278SOL    HW1 1733   6.195   3.437   2.299 -2.4907  0.1115 -0.1920
  278SOL    HW2 1734   6.116   3.460   2.158  1.2300 -1.7223 -2.7688
  279SOL     OW 1735   1.689   1.343   1.445  0.4339 -0.7676 -0.2652
  279SOL    HW1 1736   1.780   1.346   1.488  0.6887  0.4331 -0.8601
  279SOL    HW2 1737   1.645   1.432   1.456 -1.0861 -1.6144  0.8512
  280SOL     OW 1738   0.247   3.910   6.357  0.0439 -0.1628 -0.6738
  280SOL    HW1 1739   0.216   3.822   6.319  0.8239 -0.6701 -0.1712
  280SOL    HW2 1740   0.327   3.894   6.415  0.2388  0.9006 -0.6402
  281SOL     OW 1741   6.832   5.425   3.667  0.3696  0.3179 -0.0488
  281SOL    HW1 1742   6.763   5.358   3.693 -0.4350  1.1715  0.0811
  281SOL    HW2 1743   6.872   5.465   3.750  2.0587 -1.1748 -0.0987
  282SOL     OW 1744   5.193   2.836   6.852 -0.1830 -0.3341 -0.2101
  282SOL    HW1 1745   5.259   2.907   6.876 -0.4119  0.4258 -1.7237
  282SOL    HW2 1746   5.151   2.800   6.935  1.1270  0.1341  0.6838
  283SOL     OW 1747   6.926   1.790   0.321  0.4454  0.3569 -0.3312
  283SOL    HW1 1748   6.871   1.810   0.402  0.4814 -0.6842 -0.0337
  283SOL    HW2 1749   6.871   1.805   0.238  0.1928  0.7548 -0.0931
  284SOL     OW 1750   6.894   2.780   0.435 -0.1056 -0.0875  0.5893
  284SOL    HW1 1751   6.840   2.835   0.371 -0.4962 -0.2039  0.8120
  284SOL    HW2 1752   6.891   2.684   0.405 -0.3837 -0.1599  0.8386
  285SOL     OW 1753   3.744   6.887   0.227 -0.1982  0.3247  0.2888
  285SOL    HW1 1754   3.841   6.910   0.234 -0.3186  0.6706  0.9542
  285SOL    HW2 1755   3.693   6.941   0.294 -0.6241 -1.1947  1.2274
  286SOL     OW 1756   0.718   4.777   6.402  0.8967  0.6120 -0.3271
  286SOL    HW1 1757   0.717   4.866   6.357  4.2862  0.6357 -0.6053
  286SOL    HW2 1758   0.673   4.783   6.491 -2.3884  1.5345 -1.8968
  287SOL     OW 1759   2.860   3.357   6.608 -0.5879  0.7324  0.0249
  287SOL    HW1 1760   2.809   3.423   6.663  1.8750  0.4762  2.9065
  287SOL    HW2 1761   2.924   3.406   6.549  0.2638  1.0180  1.1431
  288SOL     OW 1762   6.709   5.003   0.562  0.3922  0.5020 -0.2863
  288SOL    HW1 1763   6.760   5.042   0.485 -2.6734  2.0030 -1.7043
  288SOL    HW2 1764   6.646   4.933   0.529 -1.7947  1.9566  0.5812
  289SOL     OW 1765   6.578   2.098   6.705  0.3532 -0.1464  0.3667
  289SOL    HW1 1766   6.515   2.175   6.714 -1.3550 -1.5531  1.0289
  289SOL    HW2 1767   6.655   2.111   6.767  0.3383  1.2416  0.1168
  290SOL     OW 1768   1.779   1.464   5.980  0.1368  0.5774 -0.1855
  290SOL    HW1 1769   1.808   1.372   5.954 -2.7149 -0.1590 -1.1099
  290SOL    HW2 1770   1.747   1.463   6.075 -1.5236  0.1542 -0.7264
  291SOL     OW 1771   6.835   0.899   3.245  0.0064  0.0530  0.1696
  291SOL    HW1 1772   6.810   0.873   3.151  0.6423  1.3395 -0.3714
  291SOL    HW2 1773   6.836   0.817   3.302  0.5101 -0.8917 -1.1495
  292SOL     OW 1774   0.337   4.356   3.395  0.0335  0.3645  0.1665
  292SOL    HW1 1775   0.354   4.339   3.298 -0.0979  1.1538  0.0008
  292SOL    HW2 1776   0.247   4.320   3.420  0.1069  0.0763  0.0227
  293SOL     OW 1777   6.305   6.921   5.725 -0.3991  0.6083  0.2522
  293SOL    HW1 1778   6.255   6.958   5.647  1.8267  1.1468 -1.0046
  293SOL    HW2 1779   6.295   6.822   5.727 -0.2424  0.5547 -0.9212
  294SOL     OW 1780   0.168   5.347   4.462  0.2524  0.0957 -0.1841
  294SOL    HW1 1781   0.107   5.312   4.532 -0.1925  0.5719 -0.3269
  294SOL    HW2 1782   0.249   5.288   4.455  1.0607  0.8719  1.7901
  295SOL     OW 1783   6.405   1.752   2.196  0.4734 -0.3955 -0.1403
  295SOL    HW1 1784   6.347   1.676   2.225 -1.0760 -0.2325 -2.5765
  295SOL    HW2 1785   6.383   1.834   2.250 -0.0361 -0.8726  0.3829
  296SOL     OW 1786   2.225   4.777   6.336  0.4196  0.3989  0.6260
  296SOL    HW1 1787   2.203   4.689   6.295 -1.0376  1.9065 -2.0883
  296SOL    HW2 1788   2.315   4.772   6.380  1.4735 -1.7951 -1.5557
  297SOL     OW 1789   2.207   0.048   6.625 -0.1488  0.8280  0.2719
  297SOL    HW1 1790   2.133   0.114   6.611 -0.2842  0.4385 -0.9107
  297SOL    HW2 1791   2.295   0.093   6.608 -0.2772  0.5350 -1.3030
  298SOL     OW 1792   1.364   4.635   2.015  0.1165 -0.2851  0.4738
  298SOL    HW1 1793   1.444   4.592   1.974  0.9467 -1.9138  3.4912
  298SOL    HW2 1794   1.363   4.733   1.993  1.4070 -0.7086 -1.7796
  299SOL     OW 1795   5.442   0.305   0.726  0.4897  0.0543 -0.1861
  299SOL    HW1 1796   5.521   0.255   0.689  1.1750 -0.7131  2.1473
  299SOL    HW2 1797   5.382   0.241   0.774 -0.8813  0.8508 -0.7971
  300SOL     OW 1798   6.611   0.647   3.796 -0.8823  0.0096 -0.2137
  300SOL    HW1 1799   6.550   0.724   3.776 -1.7064 -0.5178  0.1711
  300SOL    HW2 1800   6.688   0.647   3.732 -0.8049  1.2108 -0.1412
  301SOL     OW 1801   3.457   5.987   6.668  0.2003  0.1084  0.8692
  301SOL    HW1 1802   3.389   6.060   6.661 -0.2107 -0.1884  1.5973
  301SOL    HW2 1803   3.537   6.020   6.717  0.2043  0.2093  0.7933
  302SOL     OW 1804   5.868   2.528   3.131 -0.6606  0.2642  0.1378
  302SOL    HW1 1805   5.947   2.578   3.093 -0.7465  0.8676  0.7251
  302SOL    HW2 1806   5.860   2.549   3.229 -0.8992 -0.6594  0.3184
  303SOL     OW 1807   0.253   0.232   2.796  0.6412  0.0653 -0.1225
  303SOL    HW1 1808   0.242   0.321   2.840  0.5865 -1.0221  2.2014
  303SOL    HW2 1809   0.322   0.239   2.724  2.1908  1.5526  1.4047
  304SOL     OW 1810   4.142   5.981   4.666 -0.3638 -0.7485 -0.0946
  304SOL    HW1 1811   4.205   5.944   4.735  0.5199 -0.0676 -0.5172
  304SOL    HW2 1812   4.107   6.069   4.697 -0.8625 -0.9711 -0.0125
  305SOL     OW 1813   4.582   5.362   4.659 -0.1456  0.1827  0.0671
  305SOL    HW1 1814   4.652   5.299   4.625 -0.4191 -0.1747  0.1674
  305SOL    HW2 1815   4.624   5.430   4.719  0.0486 -0.2985  0.4813
  306SOL     OW 1816   4.169   1.958   2.491 -0.5214 -0.1554  0.6381
  306SOL    HW1 1817   4.092   2.002   2.538 -0.2330  0.2723  0.7092
  306SOL    HW2 1818   4.138   1.870   2.454 -1.1908  0.2429  0.2203
  307SOL     OW 1819   6.650   2.947   1.276  0.2862  0.9207  0.0889
  307SOL    HW1 1820   6.718   2.986   1.338  0.1172  1.6013 -0.1369
  307SOL    HW2 1821   6.565   3.000   1.282 -0.4482 -0.2870  0.8205
  308SOL     OW 1822   2.218   2.095   6.873 -0.1179 -0.8304  0.6238
  308SOL    HW1 1823   2.236   2.013   6.928  0.8207 -0.1361  1.3933
  308SOL    HW2 1824   2.271   2.171   6.909 -3.6982  1.1263  2.2334
  309SOL     OW 1825   3.254   5.116   2.573 -0.4126 -0.2182 -0.2251
  309SOL    HW1 1826   3.353   5.105   2.570 -0.0620  2.2738  0.6192
  309SOL    HW2 1827   3.227   5.154   2.661 -1.9049  0.8394 -1.0958
  310SOL     OW 1828   3.824   0.014   4.694 -0.5021 -0.1510  0.0221
  310SOL    HW1 1829   3.738  -0.020   4.731 -0.1779 -3.1560 -1.6809
  310SOL    HW2 1830   3.845  -0.033   4.608  1.7712  2.0989 -0.7956
  311SOL     OW 1831   1.430   3.444   3.203 -0.3473 -0.2944 -0.2243
  311SOL    HW1 1832   1.521   3.485   3.215 -0.8658  0.7621  0.2133
  311SOL    HW2 1833   1.369   3.476   3.276 -1.2505 -0.4802 -0.8839
  312SOL     OW 1834   5.698   2.118   0.781  0.0186  0.1137 -0.3931
  312SOL    HW1 1835   5.607   2.156   0.801 -0.3110 -0.5544 -0.5747
  312SOL    HW2 1836   5.697   2.020   0.799  0.8792  0.1926  0.1407
  313SOL     OW 1837   0.358   0.435   5.743  0.4729  0.3792 -0.1292
  313SOL    HW1 1838   0.343   0.404   5.836 -0.5105  1.7278  0.1882
  313SOL    HW2 1839   0.285   0.498   5.716  0.4390 -0.4110 -2.0104
  314SOL     OW 1840   0.961   1.181   2.240 -0.3495 -0.0814 -0.3961
  314SOL    HW1 1841   1.016   1.260   2.214 -0.5525 -0.0272 -0.6709
  314SOL    HW2 1842   0.893   1.208   2.308 -0.1115 -0.1240 -0.1399
  315SOL     OW 1843   0.898   6.273   3.478  0.2980  0.1635 -0.6517
  315SOL    HW1 1844   0.942   6.186   3.502  0.6688  0.3540 -0.6215
  315SOL    HW2 1845   0.801   6.269   3.501  0.1477 -0.5155 -1.3495
  316SOL     OW 1846   1.182   6.435   3.303 -0.1319  0.8309  0.5019
  316SOL    HW1 1847   1.209   6.339   3.301  0.9862  1.1169  1.0410
  316SOL    HW2 1848   1.122   6.455   3.225 -1.4702 -0.6026  1.0958
  317SOL     OW 1849   1.084   2.963   2.683 -0.5002 -0.7000  0.0590
  317SOL    HW1 1850   1.169   2.961   2.631 -0.2390 -0.1025  0.4463
  317SOL    HW2 1851   1.051   2.870   2.697  1.8458 -1.2621  2.7200
  318SOL     OW 1852   1.368   3.416   0.436  0.3190 -0.4493 -0.3901
  318SOL    HW1 1853   1.282   3.398   0.483  0.0282 -0.7787 -1.0438
  318SOL    HW2 1854   1.436   3.449   0.503 -0.6662  1.0161 -0.0717
  319SOL     OW 1855   4.861   0.224   0.900 -0.1165  0.3001 -0.4374
  319SOL    HW1 1856   4.877   0.131   0.866 -0.0526 -0.9252  2.6044
  319SOL    HW2 1857   4.920   0.288   0.851  0.8381 -1.4591 -1.6976
  320SOL     OW 1858   5.835   2.087   2.900  0.1267  0.1821 -0.1518
  320SOL    HW1 1859   5.864   2.179   2.928 -1.1590  0.5270  0.1262
  320SOL    HW2 1860   5.749   2.064   2.947  0.3700 -1.1147 -0.3194
  321SOL     OW 1861   2.845   2.052   3.886  0.1677  0.0574  0.1197
  321SOL    HW1 1862   2.911   2.063   3.812  0.7818 -1.4774  0.4041
  321SOL    HW2 1863   2.890   2.011   3.965 -0.2863  2.3817  1.6687
  322SOL     OW 1864   4.250   1.748   1.883 -0.3461  0.5247  0.0197
  322SOL    HW1 1865   4.189   1.669   1.868  0.3065 -0.6136  2.6705
  322SOL    HW2 1866   4.295   1.772   1.797 -0.4076 -2.1735 -0.8885
  323SOL     OW 1867   1.647   2.584   1.037 -0.1850  0.4833 -0.1703
  323SOL    HW1 1868   1.701   2.577   0.953 -0.7786  1.9609 -0.7055
  323SOL    HW2 1869   1.661   2.502   1.092  1.7240  0.3405 -0.8000
  324SOL     OW 1870   1.255   5.168   5.094 -0.1453  0.2718  0.3127
  324SOL    HW1 1871   1.204   5.116   5.025  0.1622  0.4694 -0.0712
  324SOL    HW2 1872   1.322   5.108   5.138 -0.3068  0.1573  0.4043
  325SOL     OW 1873   3.654   4.087   3.373 -0.3271  0.1715  0.1502
  325SOL    HW1 1874   3.599   4.054   3.450 -1.6948 -1.1528 -1.3250
  325SOL    HW2 1875   3.705   4.010   3.334  0.2727  0.8009 -0.3269
  326SOL     OW 1876   1.293   2.539   1.637  0.5828 -0.4069 -0.0152
  326SOL    HW1 1877   1.203   2.583   1.645  0.0890 -1.4774  0.5840
  326SOL    HW2 1878   1.341   2.575   1.558 -1.3330 -1.4585 -1.7551
  327SOL     OW 1879   1.507   0.337   0.834  0.0683 -0.4233 -0.6306
  327SOL    HW1 1880   1.520   0.295   0.924 -0.9834 -0.3061 -0.4034
  327SOL    HW2 1881   1.510   0.436   0.842 -0.6583 -0.3935 -0.5971
  328SOL     OW 1882   3.520   4.123   0.756 -0.2670 -0.3689  0.1542
  328SOL    HW1 1883   3.591   4.110   0.687 -0.0279  1.6525 -0.0628
  328SOL    HW2 1884   3.447   4.181   0.718 -0.6101 -0.0390  1.2688
  329SOL     OW 1885   4.730   0.600   0.738 -0.3092 -0.5668 -0.5158
  329SOL    HW1 1886   4.631   0.612   0.737 -0.2027  0.4281  0.0291
  329SOL    HW2 1887   4.767   0.634   0.824  0.4817 -1.2034 -0.5891
  330SOL     OW 1888   4.078   5.370   1.372  0.0835 -0.0985  0.5563
  330SOL    HW1 1889   4.072   5.439   1.443 -1.3713 -1.4316  1.8140
  330SOL    HW2 1890   4.080   5.279   1.414  3.2683 -0.8858 -0.9505
  331SOL     OW 1891   1.487   1.029   5.921  0.2272 -0.0142  0.1453
  331SOL    HW1 1892   1.474   0.931   5.901  0.2704  0.5136 -3.1139
  331SOL    HW2 1893   1.583   1.045   5.947  0.2196 -0.8137  0.7085
  332SOL     OW 1894   1.426   5.831   6.893  0.3423  0.0770 -0.7982
  332SOL    HW1 1895   1.404   5.800   6.985 -0.2992  0.0365 -0.9605
  332SOL    HW2 1896   1.348   5.815   6.832  0.1071  1.6378 -0.9716
  333SOL     OW 1897   1.686   0.008   4.767  0.1548  0.1038 -0.4803
  333SOL    HW1 1898   1.724   0.049   4.684 -0.3990  1.1310 -0.2423
  333SOL    HW2 1899   1.586   0.009   4.762  0.1196  0.0518  0.1458
  334SOL     OW 1900   4.439   4.520   2.932 -0.1655  0.2472  0.1292
  334SOL    HW1 1901   4.493   4.462   2.994 -1.6434 -0.3399  0.9120
  334SOL    HW2 1902   4.342   4.503   2.947 -0.5822  1.1289 -1.4022
  335SOL     OW 1903   2.338   5.351   2.663 -0.3987 -0.0545 -0.4649
  335SOL    HW1 1904   2.401   5.337   2.739 -0.8002  0.1510 -0.0900
  335SOL    HW2 1905   2.374   5.423   2.603  0.2756 -0.7231 -0.8696
  336SOL     OW 1906   3.649   5.319   4.540  0.0378 -0.5305 -0.4793
  336SOL    HW1 1907   3.691   5.327   4.450 -0.3526 -0.2725 -0.6421
  336SOL    HW2 1908   3.561   5.272   4.531  0.2634 -1.0268 -0.1493
  337SOL     OW 1909   1.332   1.475   3.554  0.2851 -0.1447  0.2330
  337SOL    HW1 1910   1.297   1.557   3.509 -1.5532 -2.0421 -2.1075
  337SOL    HW2 1911   1.298   1.471   3.648 -3.0820 -0.1342 -0.8469
  338SOL     OW 1912   3.724   3.999   0.164 -0.1561  0.2970 -0.0659
  338SOL    HW1 1913   3.675   3.938   0.225 -0.8761  0.8816 -0.0434
  338SOL    HW2 1914   3.797   4.045   0.215 -0.8870  0.9402  0.4213
  339SOL     OW 1915   0.503   6.693   1.559  0.4869  0.2966 -0.1247
  339SOL    HW1 1916   0.573   6.704   1.629 -1.6489  1.9526  1.9349
  339SOL    HW2 1917   0.412   6.702   1.601 -0.9150  1.5737 -3.1071
  340SOL     OW 1918   3.625   1.121   6.927  0.3895  0.8394 -0.4107
  340SOL    HW1 1919   3.632   1.208   6.976 -1.8615  1.0827 -0.4526
  340SOL    HW2 1920   3.529   1.098   6.912  0.9547 -1.2779 -1.1167
  341SOL     OW 1921   4.192   5.733   4.113  0.1310 -0.9195 -0.2703
  341SOL    HW1 1922   4.218   5.726   4.017 -0.3950  0.2003 -0.5079
  341SOL    HW2 1923   4.099   5.770   4.120  0.2680 -0.7240  0.6794
  342SOL     OW 1924   4.279   1.726   1.382  0.4781 -0.2505  0.1491
  342SOL    HW1 1925   4.294   1.678   1.468 -0.1131  0.8767  0.9036
  342SOL    HW2 1926   4.186   1.708   1.349 -0.1248  1.1864  0.9929
  343SOL     OW 1927   4.672   4.946   1.892 -0.3700  0.2199 -0.2215
  343SOL    HW1 1928   4.708   5.018   1.833  1.4889 -0.4038  0.0544
  343SOL    HW2 1929   4.674   4.976   1.987 -0.7900  0.2511 -0.2204
  344SOL     OW 1930   2.350   6.057   0.042 -0.6251  0.3410  0.4682
  344SOL    HW1 1931   2.306   6.109  -0.031 -0.2970  0.1946  0.1577
  344SOL    HW2 1932   2.304   6.074   0.128 -0.6341  1.0046  0.3376
  345SOL     OW 1933   1.224   3.765   1.310  0.3849  0.1075 -0.5020
  345SOL    HW1 1934   1.320   3.759   1.283  0.1270 -1.7628 -1.1390
  345SOL    HW2 1935   1.193   3.860   1.301  2.4613  1.0089  0.8796
  346SOL     OW 1936   2.497   0.438   6.220 -0.5027  0.0248 -0.4237
  346SOL    HW1 1937   2.422   0.378   6.247 -0.8798  1.4133  1.9864
  346SOL    HW2 1938   2.460   0.527   6.193  0.1826  1.1994  2.1209
  347SOL     OW 1939   2.473   0.391   0.924  0.5817 -0.4573 -0.5155
  347SOL    HW1 1940   2.398   0.328   0.904 -0.4748  0.0907  1.5083
  347SOL    HW2 1941   2.538   0.347   0.986  1.1767 -0.4063 -1.0877
  348SOL     OW 1942   1.638   3.837   6.793  0.3479 -0.6259 -0.0832
  348SOL    HW1 1943   1.683   3.921   6.763  1.0206 -1.3323 -1.1382
  348SOL    HW2 1944   1.548   3.830   6.749 -0.7124  0.6172  1.7604
  349SOL     OW 1945   1.290   4.122   3.464 -0.1599 -0.0482 -0.2061
  349SOL    HW1 1946   1.274   4.118   3.563 -1.4200 -0.8241 -0.4205
  349SOL    HW2 1947   1.380   4.083   3.444  0.2918  0.5046  0.6656
  350SOL     OW 1948   1.769   4.404   1.978  0.6187  0.5378  0.3570
  350SOL    HW1 1949   1.796   4.465   2.052  0.9928  1.2345 -0.3465
  350SOL    HW2 1950   1.844   4.394   1.913  1.1572 -1.9207  1.2283
  351SOL     OW 1951   4.450   0.290   1.702 -0.1982 -0.1551  0.8151
  351SOL    HW1 1952   4.518   0.238   1.754  0.3055  0.4597  0.7871
  351SOL    HW2 1953   4.416   0.233   1.627  2.2044  0.3479 -0.7649
  352SOL     OW 1954   2.938   5.234   0.089 -0.3668 -0.0178  0.1127
  352SOL    HW1 1955   2.919   5.242  -0.009  2.5042  2.2289 -0.4025
  352SOL    HW2 1956   3.016   5.174   0.104  1.0676  1.8996  0.6790
  353SOL     OW 1957   5.187   5.512   1.504 -0.2627 -0.4524 -0.2615
  353SOL    HW1 1958   5.209   5.437   1.441  1.5344 -0.8809  0.8030
  353SOL    HW2 1959   5.120   5.479   1.571  1.4771 -1.5745  0.9870
  354SOL     OW 1960   5.002   0.308   0.181 -0.8780 -0.3496  0.0298
  354SOL    HW1 1961   5.081   0.345   0.230  1.0656 -0.8126 -2.5515
  354SOL    HW2 1962   4.999   0.209   0.193 -0.4972 -0.4425 -0.5497
  355SOL     OW 1963   2.108   6.855   4.759 -0.0067 -0.1738  0.6505
  355SOL    HW1 1964   2.015   6.829   4.733 -0.0296 -0.8733  1.3950
  355SOL    HW2 1965   2.127   6.948   4.727 -1.2712  0.3064  1.2531
  356SOL     OW 1966   3.795   5.976   2.678 -0.0798  0.3824 -0.1708
  356SOL    HW1 1967   3.740   6.017   2.751 -0.4423  0.1633 -0.3183
  356SOL    HW2 1968   3.776   5.878   2.672  0.3111  0.3088 -0.2374
  357SOL     OW 1969   5.359   4.596   0.561 -0.3170  0.0923  0.6590
  357SOL    HW1 1970   5.328   4.625   0.471  1.2907 -0.1549 -0.0077
  357SOL    HW2 1971   5.294   4.530   0.599  0.1778 -1.6964 -1.4184
  358SOL     OW 1972   6.481   3.552   0.430  0.2924  0.2729  0.1029
  358SOL    HW1 1973   6.561   3.506   0.468 -0.7710 -1.0406  0.8369
  358SOL    HW2 1974   6.399   3.521   0.477 -0.9390 -0.2245 -2.2088
  359SOL     OW 1975   1.131   1.879   4.746 -0.0120 -0.3413  0.3166
  359SOL    HW1 1976   1.208   1.940   4.765 -2.0627  1.9781  1.7173
  359SOL    HW2 1977   1.104   1.890   4.650 -0.0143  0.5574  0.4110
  360SOL     OW 1978   6.052   5.855   4.436  0.6317  0.2521  0.2984
  360SOL    HW1 1979   6.139   5.840   4.390  0.1653  1.7211 -1.1379
  360SOL    HW2 1980   6.021   5.770   4.478  2.2161 -0.5419 -0.0874
  361SOL     OW 1981   6.609   5.798   6.340 -0.2091 -0.0610  0.2945
  361SOL    HW1 1982   6.576   5.787   6.247 -0.7093  0.9236  0.3315
  361SOL    HW2 1983   6.599   5.894   6.367  1.5836  0.0230  0.7488
  362SOL     OW 1984   0.213   6.530   6.170  0.4196 -0.4826  0.0786
  362SOL    HW1 1985   0.307   6.507   6.195  0.2716 -0.2231  0.9027
  362SOL    HW2 1986   0.213   6.607   6.107  0.6975  0.7899  1.5728
  363SOL     OW 1987   2.293   6.706   0.900  0.0150  0.1459  0.1987
  363SOL    HW1 1988   2.360   6.685   0.970 -0.1052 -2.6575 -0.3863
  363SOL    HW2 1989   2.203   6.717   0.942  0.2261  0.1999  0.6402
  364SOL     OW 1990   1.852   0.981   1.549  0.3630  0.3177  0.4099
  364SOL    HW1 1991   1.826   0.893   1.510  1.9216 -0.5543  1.2471
  364SOL    HW2 1992   1.947   1.002   1.523 -0.2062  2.1381 -0.4073
  365SOL     OW 1993   5.846   6.976   1.355  0.6020  0.3385  0.0666
  365SOL    HW1 1994   5.830   7.074   1.361  0.1463  0.1763  2.5945
  365SOL    HW2 1995   5.938   6.955   1.388  1.2197 -0.0026 -1.7502
  366SOL     OW 1996   5.122   6.225   6.120  0.2288  0.6589 -0.0319
  366SOL    HW1 1997   5.147   6.312   6.163  2.0815 -0.6355  1.6519
  366SOL    HW2 1998   5.204   6.180   6.086 -0.5002 -1.1462  0.5020
  367SOL     OW 1999   4.205   1.926   5.148  0.1039 -0.1929 -0.5529
  367SOL    HW1 2000   4.137   1.884   5.208  0.3427 -1.3384 -1.0484
  367SOL    HW2 2001   4.293   1.881   5.160  0.6914  1.0242 -0.1966
  368SOL     OW 2002   0.067   3.863   4.940  0.6362 -0.0615  0.4541
  368SOL    HW1 2003   0.031   3.955   4.954 -0.6206 -0.6430  1.3753
  368SOL    HW2 2004   0.003   3.810   4.884  1.8861 -0.0691 -1.0114
  369SOL     OW 2005   1.083   3.372   3.549 -0.2357  0.3841  0.1694
  369SOL    HW1 2006   1.054   3.359   3.454 -0.1398 -0.0553  0.1986
  369SOL    HW2 2007   1.002   3.376   3.608 -0.2676 -0.2021  0.1720
  370SOL     OW 2008   3.952   1.760   1.562  0.2770  0.1283 -0.0835
  370SOL    HW1 2009   3.970   1.700   1.484  0.2614  0.2937 -0.2133
  370SOL    HW2 2010   3.862   1.741   1.600  0.2457  0.1158 -0.1658
  371SOL     OW 2011   6.444   3.400   5.367 -0.4792  0.4667 -0.7420
  371SOL    HW1 2012   6.496   3.477   5.330 -0.5123  0.2909 -1.1583
  371SOL    HW2 2013   6.351   3.431   5.390  0.4608  1.4502  2.3902
  372SOL     OW 2014   0.448   3.544   5.993  0.3510 -0.8127  0.2129
  372SOL    HW1 2015   0.441   3.490   5.909  3.5805 -0.7430 -0.2149
  372SOL    HW2 2016   0.411   3.636   5.977  2.0412 -0.3822 -1.6255
  373SOL     OW 2017   2.346   5.880   4.448 -0.4212  0.2526  0.0722
  373SOL    HW1 2018   2.274   5.899   4.515  0.3906 -1.6753  1.5855
  373SOL    HW2 2019   2.390   5.793   4.470 -1.5548 -1.6985 -4.2178
  374SOL     OW 2020   6.773   0.156   3.483 -0.5762 -0.4569 -0.0999
  374SOL    HW1 2021   6.757   0.064   3.447  0.7170 -0.1029 -1.7141
  374SOL    HW2 2022   6.745   0.223   3.415  4.6430  0.2390 -2.0495
  375SOL     OW 2023   6.721   3.455   0.860 -0.6578  0.0101 -0.0560
  375SOL    HW1 2024   6.654   3.524   0.888  0.2993  0.5343  1.0391
  375SOL    HW2 2025   6.715   3.377   0.921 -0.0998  0.1708  0.2059
  376SOL     OW 2026   1.190   1.757   6.308 -0.0281  0.6100 -0.0253
  376SOL    HW1 2027   1.184   1.785   6.212 -0.8436 -0.6004 -0.3516
  376SOL    HW2 2028   1.191   1.838   6.367  1.0942  1.3887 -1.0699
  377SOL     OW 2029   1.685   0.490   4.872  0.2923 -0.6256 -0.1328
  377SOL    HW1 2030   1.782   0.471   4.888  0.1853 -2.3014 -1.1437
  377SOL    HW2 2031   1.655   0.565   4.931  1.7607 -1.2539  1.4989
  378SOL     OW 2032   1.013   1.875   0.801  0.2063 -0.0153  0.1059
  378SOL    HW1 2033   0.927   1.898   0.847 -0.4853 -0.4095 -0.9569
  378SOL    HW2 2034   1.037   1.948   0.737  0.4595 -0.0880  0.1170
  379SOL     OW 2035   5.346   4.250   0.032  0.2864 -0.4331 -0.1399
  379SOL    HW1 2036   5.337   4.236  -0.066 -1.6901  0.5227 -0.1506
  379SOL    HW2 2037   5.289   4.327   0.060  1.1316 -0.4142  1.7105
  380SOL     OW 2038   1.783   3.530   1.040  0.3179 -0.4118  0.1447
  380SOL    HW1 2039   1.811   3.442   1.002 -0.5759 -0.8999  0.5617
  380SOL    HW2 2040   1.721   3.576   0.976  0.3085 -0.3694  0.1839
  381SOL     OW 2041   3.677   5.294   0.492 -0.5957 -0.3531  0.0835
  381SOL    HW1 2042   3.700   5.349   0.412 -1.1125  0.3727  0.4234
  381SOL    HW2 2043   3.739   5.216   0.498  0.8658  0.7949  0.2203
  382SOL     OW 2044   3.439   5.498   1.921  0.2742  0.4682 -0.3956
  382SOL    HW1 2045   3.431   5.403   1.949 -1.1629  0.7257  0.1263
  382SOL    HW2 2046   3.397   5.511   1.832  0.7467  0.5660 -0.6103
  383SOL     OW 2047   0.852   5.439   4.421 -0.0631 -0.4437 -0.1490
  383SOL    HW1 2048   0.800   5.512   4.377  2.4056  0.0425 -2.5229
  383SOL    HW2 2049   0.815   5.350   4.393  0.3946 -0.1141 -1.9592
  384SOL     OW 2050   6.549   5.681   1.997 -0.5128  0.5311  0.4649
  384SOL    HW1 2051   6.518   5.745   1.927 -2.5609  0.1894  0.9873
  384SOL    HW2 2052   6.585   5.731   2.075  0.0417  0.9662 -0.0649
  385SOL     OW 2053   1.481   5.253   3.040 -0.3690 -0.1562 -0.2321
  385SOL    HW1 2054   1.491   5.351   3.023  0.3325  0.0318  1.1477
  385SOL    HW2 2055   1.557   5.204   2.997 -0.6648 -0.0990 -0.8352
  386SOL     OW 2056   0.409   0.522   2.631 -0.2434  0.0289  0.1980
  386SOL    HW1 2057   0.398   0.429   2.595  1.0033 -0.3834  0.7964
  386SOL    HW2 2058   0.357   0.532   2.715 -0.7981  0.0497 -0.1417
  387SOL     OW 2059   1.390   0.729   1.835 -0.5876 -0.2631  0.2605
  387SOL    HW1 2060   1.389   0.670   1.754 -0.6918  0.3606 -0.2080
  387SOL    HW2 2061   1.385   0.825   1.806 -2.6489 -0.0640  1.0507
  388SOL     OW 2062   5.367   1.248   3.425  0.2239 -0.1110  0.1629
  388SOL    HW1 2063   5.401   1.193   3.349  0.4783  1.2434 -0.7529
  388SOL    HW2 2064   5.403   1.341   3.417  0.9953 -0.1421  2.4710
  389SOL     OW 2065   1.104   5.404   5.649 -0.1381 -0.1184  0.0660
  389SOL    HW1 2066   1.103   5.492   5.602 -0.5685  0.5169  1.2376
  389SOL    HW2 2067   1.014   5.362   5.644  0.0788 -0.5171 -0.5299
  390SOL     OW 2068   1.482   0.013   5.651  0.5282  0.1636  0.8238
  390SOL    HW1 2069   1.445  -0.048   5.722 -0.3100  0.7178  0.8734
  390SOL    HW2 2070   1.407   0.062   5.607  0.9194 -1.0578 -1.3057
  391SOL     OW 2071   6.246   4.013   5.506  0.0346 -0.5002  0.0436
  391SOL    HW1 2072   6.237   4.035   5.603 -0.8150 -0.6457  0.0095
  391SOL    HW2 2073   6.208   4.088   5.451  1.7426  0.2063 -0.2390
  392SOL     OW 2074   2.167   4.539   3.047  0.3498  0.5372  0.3773
  392SOL    HW1 2075   2.233   4.564   2.975 -1.1522  0.2187 -1.1932
  392SOL    HW2 2076   2.097   4.479   3.007 -0.2961 -0.0033  2.2532
  393SOL     OW 2077   1.558   2.272   2.788 -0.4055 -0.1261 -0.4593
  393SOL    HW1 2078   1.584   2.199   2.851  0.8023 -0.4078 -1.2540
  393SOL    HW2 2079   1.491   2.332   2.832  0.6019 -0.1537  1.1793
  394SOL     OW 2080   3.499   1.724   5.918 -0.3199 -0.4583 -0.5159
  394SOL    HW1 2081   3.409   1.688   5.943  0.2121 -1.5022 -0.0665
  394SOL    HW2 2082   3.487   1.809   5.866 -1.5067  0.6090  1.3914
  395SOL     OW 2083   0.746   5.833   6.521 -0.2186  0.1255  0.5917
  395SOL    HW1 2084   0.770   5.929   6.535  0.2482 -0.1195  1.6054
  395SOL    HW2 2085   0.827   5.784   6.489 -0.2651 -0.0524  0.7448
  396SOL     OW 2086   4.753   2.561   2.247  0.0544  0.0203 -0.4049
  396SOL    HW1 2087   4.674   2.550   2.308  1.3161 -0.1604  1.2487
  396SOL    HW2 2088   4.740   2.643   2.190 -0.8276  0.6185  0.6291
  397SOL     OW 2089   1.455   0.710   6.800 -0.1699  0.8438 -0.2326
  397SOL    HW1 2090   1.467   0.730   6.897 -2.7110 -0.6994  0.5104
  397SOL    HW2 2091   1.362   0.735   6.772 -0.3299 -1.0386 -1.6026
  398SOL     OW 2092   4.452   1.499   1.373  0.1384 -0.5996  0.1048
  398SOL    HW1 2093   4.398   1.574   1.334  1.6325  0.2135 -0.4911
  398SOL    HW2 2094   4.505   1.456   1.301  2.1667  0.2601  1.0149
  399SOL     OW 2095   7.000   0.774   4.742  0.5709  0.3682  0.0546
  399SOL    HW1 2096   7.013   0.684   4.783 -0.6753 -0.5152 -1.3737
  399SOL    HW2 2097   6.910   0.809   4.768 -0.1585 -0.1201 -1.6805
  400SOL     OW 2098   0.071   5.090   5.855  0.4890  0.1499 -1.0962
  400SOL    HW1 2099   0.049   5.187   5.868 -1.3976 -0.3908  0.1589
  400SOL    HW2 2100  -0.000   5.046   5.800  0.2552 -0.9339  0.0274
  401SOL     OW 2101   2.032   0.880   5.224 -0.0160 -0.8232 -0.3324
  401SOL    HW1 2102   2.058   0.805   5.163 -1.1638 -0.3185 -1.4936
  401SOL    HW2 2103   2.041   0.967   5.175  0.4738 -0.2621  0.7221
  402SOL     OW 2104   4.415   3.184   6.671  0.8981  0.0120 -0.2711
  402SOL    HW1 2105   4.382   3.092   6.693  1.1752 -0.0823 -0.2432
  402SOL    HW2 2106   4.396   3.246   6.747  3.5280 -0.7180  1.1002
  403SOL     OW 2107   6.064   5.132   2.075  0.2625  0.1598  0.1118
  403SOL    HW1 2108   6.111   5.176   1.999  0.0070 -0.2096 -0.2629
  403SOL    HW2 2109   6.106   5.161   2.161 -0.9230  2.4261 -0.0032
  404SOL     OW 2110   0.724   4.733   3.715  0.7096 -0.1309  0.3774
  404SOL    HW1 2111   0.810   4.704   3.758  2.3664  1.4741 -1.6300
  404SOL    HW2 2112   0.678   4.654   3.675  2.9154 -0.7017 -1.2361
  405SOL     OW 2113   2.942   0.362   5.661 -0.3618 -0.3880 -0.1459
  405SOL    HW1 2114   2.933   0.450   5.707  1.3988  0.6754 -1.6665
  405SOL    HW2 2115   3.032   0.322   5.681  0.4813  0.1212 -2.5243
  406SOL     OW 2116   0.070   6.565   3.536  0.2269  0.1126  0.0608
  406SOL    HW1 2117   0.045   6.660   3.554 -2.0455 -0.5342  0.6626
  406SOL    HW2 2118   0.169   6.554   3.546  0.2785  1.9232  2.3368
  407SOL     OW 2119   0.799   2.918   5.434  0.4361 -0.1281  0.0016
  407SOL    HW1 2120   0.701   2.941   5.428  1.0206  2.3724 -1.2116
  407SOL    HW2 2121   0.834   2.949   5.523 -0.0358 -1.9995  0.8948
  408SOL     OW 2122   5.509   2.140   6.744 -0.7507  0.5961 -0.4428
  408SOL    HW1 2123   5.411   2.130   6.764 -0.4134 -0.5091  0.8663
  408SOL    HW2 2124   5.552   2.195   6.816 -0.4667  1.3953 -1.2160
  409SOL     OW 2125   2.071   4.711   2.256  0.2613  0.5476 -0.3369
  409SOL    HW1 2126   2.113   4.711   2.347  1.8550  1.2156 -1.0415
  409SOL    HW2 2127   2.001   4.782   2.252 -1.2771 -0.8029  0.9601
  410SOL     OW 2128   0.496   2.699   0.108  0.4697  0.6193  0.0527
  410SOL    HW1 2129   0.498   2.789   0.065  0.2655  1.1414  1.0913
  410SOL    HW2 2130   0.575   2.690   0.169 -0.0996  0.5416  0.7984
  411SOL     OW 2131   0.843   2.549   1.652  0.2960 -0.1535  0.3661
  411SOL    HW1 2132   0.840   2.642   1.690  2.1245 -0.0802  0.4053
  411SOL    HW2 2133   0.918   2.498   1.695  0.9760 -0.8064 -1.4907
  412SOL     OW 2134   2.117   2.931   0.110  0.3363 -0.2318  0.2221
  412SOL    HW1 2135   2.142   2.984   0.191 -0.0893 -1.6733  1.3350
  412SOL    HW2 2136   2.148   2.979   0.028  2.5238  0.3420  1.3091
  413SOL     OW 2137   5.701   6.367   4.804  0.1692  0.0820 -0.2050
  413SOL    HW1 2138   5.781   6.311   4.783 -1.6198 -2.3557 -0.9726
  413SOL    HW2 2139   5.649   6.323   4.878  0.3941  2.5687  1.5600
  414SOL     OW 2140   6.708   6.284   0.288  0.4819  0.4772  0.7973
  414SOL    HW1 2141   6.735   6.289   0.384  1.7222 -1.6805  0.6323
  414SOL    HW2 2142   6.611   6.259   0.282  0.6146 -0.2568  1.5129
  415SOL     OW 2143   3.733   0.610   0.355  0.9033 -0.7976 -0.2436
  415SOL    HW1 2144   3.747   0.581   0.450  1.5159  0.1520 -0.0317
  415SOL    HW2 2145   3.663   0.552   0.313  0.1583 -0.8423  0.9756
  416SOL     OW 2146   5.013   4.219   6.521 -0.3710  0.3529  0.3685
  416SOL    HW1 2147   4.966   4.236   6.435  1.7061  0.4930 -0.8099
  416SOL    HW2 2148   5.041   4.306   6.563 -0.7722  0.2618  0.8335
  417SOL     OW 2149   1.408   0.950   1.654 -0.0093  0.3525 -0.0825
  417SOL    HW1 2150   1.384   0.901   1.570  1.1247  0.1648 -0.3192
  417SOL    HW2 2151   1.481   1.015   1.634  0.4476  0.1242  0.8157
  418SOL     OW 2152   0.017   1.175   2.573  0.1773  0.3900 -0.4464
  418SOL    HW1 2153   0.069   1.185   2.658 -2.2877  2.7628  0.9053
  418SOL    HW2 2154   0.040   1.250   2.510 -0.6447  0.7092 -0.3716
  419SOL     OW 2155   3.461   5.301   1.572  0.1726  0.1572  0.7630
  419SOL    HW1 2156   3.521   5.222   1.559  0.6329  0.2717  2.0299
  419SOL    HW2 2157   3.512   5.385   1.549  0.7784  0.3111  2.5238
  420SOL     OW 2158   1.556   5.401   5.533  0.0376 -0.5135  0.2186
  420SOL    HW1 2159   1.463   5.385   5.500  0.1343 -1.3619  0.3321
  420SOL    HW2 2160   1.591   5.317   5.576  0.1509  0.3765  1.9173
  421SOL     OW 2161   4.689   6.556   6.260 -0.8693  0.2167 -0.6313
  421SOL    HW1 2162   4.668   6.470   6.214  0.5525 -1.3628  1.4705
  421SOL    HW2 2163   4.611   6.585   6.315 -0.5706 -1.0904  0.5450
  422SOL     OW 2164   4.834   5.873   2.930  0.8413  0.2289  0.2010
  422SOL    HW1 2165   4.869   5.956   2.973  0.1070 -0.2424  1.7660
  422SOL    HW2 2166   4.758   5.836   2.983  0.3079 -0.7489 -1.1717
  423SOL     OW 2167   0.655   1.019   5.950 -0.5751 -0.1923 -0.3579
  423SOL    HW1 2168   0.612   1.036   5.862  0.9934 -0.0981 -1.1395
  423SOL    HW2 2169   0.751   1.048   5.947  0.7080 -3.7914  0.0369
  424SOL     OW 2170   2.550   1.012   6.161  0.4929 -0.1908  0.4075
  424SOL    HW1 2171   2.607   1.090   6.186  0.9785 -0.5026  0.3022
  424SOL    HW2 2172   2.456   1.028   6.191 -0.1936  1.8734 -2.4758
  425SOL     OW 2173   5.916   3.058   2.741 -0.2748  1.2465  0.5790
  425SOL    HW1 2174   5.912   2.993   2.817  0.5380  0.3173 -0.1529
  425SOL    HW2 2175   5.888   3.013   2.656 -0.6415  2.1249  0.2133
  426SOL     OW 2176   5.415   4.393   4.018 -0.3872  0.7240  0.2194
  426SOL    HW1 2177   5.339   4.443   4.059 -0.1932  2.0190 -0.9373
  426SOL    HW2 2178   5.474   4.456   3.967  0.5856 -0.4910 -0.2310
  427SOL     OW 2179   6.373   5.403   5.303  0.4626  0.4523  0.1839
  427SOL    HW1 2180   6.450   5.465   5.288 -0.2848  1.3663  0.0412
  427SOL    HW2 2181   6.287   5.452   5.288 -0.1767 -1.3955 -3.2118
  428SOL     OW 2182   3.235   2.781   0.877  0.3597  0.5887 -0.1355
  428SOL    HW1 2183   3.242   2.707   0.945 -1.7176 -0.3226 -0.8404
  428SOL    HW2 2184   3.290   2.757   0.797  1.1717  0.6909  0.3830
  429SOL     OW 2185   3.738   6.471   1.154 -0.1856 -0.3093  0.4320
  429SOL    HW1 2186   3.766   6.536   1.084 -0.1417 -0.8142 -0.0271
  429SOL    HW2 2187   3.707   6.386   1.111 -0.3826 -0.5418  1.0145
  430SOL     OW 2188   3.208   6.884   3.789 -0.2232  0.0983 -0.0636
  430SOL    HW1 2189   3.275   6.916   3.722  0.0102  0.1656  0.2025
  430SOL    HW2 2190   3.191   6.787   3.776 -1.5715  0.4808 -1.4443
  431SOL     OW 2191   0.694   4.000   2.459 -0.1631 -0.4407 -0.8562
  431SOL    HW1 2192   0.717   3.911   2.497 -0.8953 -0.7007 -1.0000
  431SOL    HW2 2193   0.595   4.013   2.461  0.0183  1.1351  0.8387
  432SOL     OW 2194   0.442   2.522   6.919  0.3818  0.2131  0.2311
  432SOL    HW1 2195   0.510   2.449   6.927  2.3940  1.8233 -1.2822
  432SOL    HW2 2196   0.464   2.595   6.984 -0.6474  0.2208  0.5887
  433SOL     OW 2197   6.453   1.286   6.339 -0.2140 -0.3449 -0.0267
  433SOL    HW1 2198   6.528   1.226   6.310  0.1855  0.2988 -0.3599
  433SOL    HW2 2199   6.491   1.368   6.382 -0.7710 -0.5786  0.9218
  434SOL     OW 2200   5.580   0.483   5.321  0.3002 -0.2072 -0.1685
  434SOL    HW1 2201   5.673   0.503   5.291  0.7009 -0.2928  0.9316
  434SOL    HW2 2202   5.573   0.385   5.342 -0.4032 -0.4368 -1.4296
  435SOL     OW 2203   5.028   6.136   0.589  0.2015  0.3199  0.1837
  435SOL    HW1 2204   5.018   6.049   0.638 -0.6122  1.3112  1.8838
  435SOL    HW2 2205   4.959   6.142   0.517 -0.1327 -0.1966  0.4598
  436SOL     OW 2206   2.851   6.956   5.735 -0.0476 -0.0978  0.1091
  436SOL    HW1 2207   2.838   7.037   5.677 -0.4084 -0.2765 -0.0675
  436SOL    HW2 2208   2.910   6.978   5.812 -1.4690  0.8000  0.9912
  437SOL     OW 2209   6.825   3.123   5.467  0.0981  0.1768 -0.2114
  437SOL    HW1 2210   6.827   3.137   5.368  2.0389  0.4415 -0.1596
  437SOL    HW2 2211   6.742   3.071   5.491 -1.9644  2.5747 -1.5849
  438SOL     OW 2212   2.101   4.228   0.856 -0.2031 -0.8616 -0.0580
  438SOL    HW1 2213   2.074   4.169   0.932 -0.6385  0.3389  0.7670
  438SOL    HW2 2214   2.200   4.241   0.857 -0.3024 -0.0069  0.9945
  439SOL     OW 2215   4.730   5.334   0.733 -0.3150 -0.1948  0.5848
  439SOL    HW1 2216   4.720   5.354   0.830 -0.2609  0.8124  0.4040
  439SOL    HW2 2217   4.814   5.282   0.718  0.2513  0.5663  0.9845
  440SOL     OW 2218   1.641   4.092   4.791 -0.2472 -0.0726 -0.5848
  440SOL    HW1 2219   1.722   4.085   4.732  0.5839 -0.4966  0.5772
  440SOL    HW2 2220   1.654   4.165   4.858 -0.7209 -0.3041 -0.2321
  441SOL     OW 2221   6.153   2.324   0.236 -0.1887  0.4707  0.5063
  441SOL    HW1 2222   6.106   2.240   0.263  0.2288 -0.2828 -0.9848
  441SOL    HW2 2223   6.105   2.403   0.273 -0.3500 -0.4291  2.3060
  442SOL     OW 2224   0.179   5.335   2.338 -0.3926 -0.2388  0.1184
  442SOL    HW1 2225   0.164   5.325   2.239 -0.2964 -0.6161  0.1436
  442SOL    HW2 2226   0.256   5.397   2.353 -0.0012 -0.6816 -0.0525
  443SOL     OW 2227   3.972   2.920   5.297 -0.7417  0.4500 -0.4704
  443SOL    HW1 2228   4.058   2.964   5.272  1.0339 -2.1948  0.5401
  443SOL    HW2 2229   3.944   2.951   5.389  0.4849 -0.4605  0.2362
  444SOL     OW 2230   4.253   0.636   5.704 -0.4787 -0.8915  0.1317
  444SOL    HW1 2231   4.177   0.622   5.640 -0.5238 -2.2825  0.4617
  444SOL    HW2 2232   4.331   0.673   5.654 -1.3657  0.6437 -0.2002
  445SOL     OW 2233   4.088   1.980   4.894 -0.2516 -0.0048  0.2667
  445SOL    HW1 2234   3.995   1.990   4.931 -0.6660 -0.3311 -0.6420
  445SOL    HW2 2235   4.152   1.963   4.969 -0.7140  1.4858  1.0465
  446SOL     OW 2236   3.078   3.944   3.817 -0.0600 -0.3649  0.0168
  446SOL    HW1 2237   3.075   3.868   3.751  2.0005  0.3036 -0.9249
  446SOL    HW2 2238   3.019   4.018   3.785  0.1348 -0.4517 -0.5636
  447SOL     OW 2239   0.493   2.152   5.228 -0.2384  0.4727  0.2365
  447SOL    HW1 2240   0.484   2.181   5.133 -1.3517 -1.4343 -0.3105
  447SOL    HW2 2241   0.469   2.227   5.289  0.9111  1.8560 -0.9719
  448SOL     OW 2242   4.954   4.489   4.539 -0.4546  0.2624 -0.0690
  448SOL    HW1 2243   4.892   4.563   4.566  0.3594  0.7724  0.4339
  448SOL    HW2 2244   5.028   4.525   4.483 -0.9382 -0.4523 -1.2016
  449SOL     OW 2245   2.413   2.263   5.925  0.2985 -0.2251 -0.3235
  449SOL    HW1 2246   2.471   2.342   5.903  1.5398 -1.1620 -0.5680
  449SOL    HW2 2247   2.373   2.227   5.841 -3.0104  2.0812  0.0930
  450SOL     OW 2248   3.725   5.121   0.865  0.2130  0.7603 -0.2781
  450SOL    HW1 2249   3.706   5.219   0.875 -3.1464  0.0629  1.8749
  450SOL    HW2 2250   3.683   5.072   0.941  0.4443 -2.5248 -2.1154
  451SOL     OW 2251   1.301   0.832   5.670 -0.2512  0.2332 -0.3115
  451SOL    HW1 2252   1.311   0.911   5.609  0.1546 -0.6009 -1.3548
  451SOL    HW2 2253   1.273   0.753   5.617 -1.1342 -0.2192  0.8096
  452SOL     OW 2254   1.306   0.707   2.173 -0.1217  0.2300 -0.2366
  452SOL    HW1 2255   1.371   0.705   2.098  0.3393 -1.5760  0.1599
  452SOL    HW2 2256   1.276   0.613   2.193 -0.1015  0.6438  1.9335
  453SOL     OW 2257   3.590   2.759   0.434 -0.1004  0.2457 -0.1448
  453SOL    HW1 2258   3.646   2.702   0.494 -0.4206 -0.5514 -0.5972
  453SOL    HW2 2259   3.647   2.800   0.363  0.4651  1.9586  1.2212
  454SOL     OW 2260   6.240   2.249   5.965  0.0068  0.2811  1.0847
  454SOL    HW1 2261   6.147   2.221   5.986 -0.1419 -0.2594 -0.1919
  454SOL    HW2 2262   6.240   2.341   5.927 -0.2267 -0.3648 -0.5391
  455SOL     OW 2263   0.609   3.244   2.797  0.3162 -0.0203  0.3906
  455SOL    HW1 2264   0.561   3.215   2.880  0.9321  1.1948  1.1963
  455SOL    HW2 2265   0.685   3.181   2.780  0.6348  0.1373  1.1740
  456SOL     OW 2266   2.861   5.114   6.559 -0.0113 -0.1368  0.3717
  456SOL    HW1 2267   2.800   5.059   6.503 -0.0061  1.2292 -1.0333
  456SOL    HW2 2268   2.807   5.169   6.623 -0.0160 -1.7024  1.7719
  457SOL     OW 2269   6.010   2.052   2.205  0.0019 -0.2715  0.5278
  457SOL    HW1 2270   5.921   2.097   2.212  0.0551  0.0326 -0.5676
  457SOL    HW2 2271   5.999   1.960   2.167  0.1740 -0.1729  0.2378
  458SOL     OW 2272   5.073   2.609   2.020  0.6021 -0.0828 -0.1776
  458SOL    HW1 2273   5.044   2.677   2.088 -0.5117 -1.1762  0.4957
  458SOL    HW2 2274   5.006   2.606   1.946  0.1264 -1.0676  0.2659
  459SOL     OW 2275   4.486   0.074   4.005 -0.5094  0.1542 -1.0710
  459SOL    HW1 2276   4.577   0.077   3.962  0.3765 -4.7276 -0.1804
  459SOL    HW2 2277   4.422   0.028   3.943 -1.1685 -0.3662 -0.0353
  460SOL     OW 2278   5.763   0.721   5.510 -0.6097  0.1181 -0.0152
  460SOL    HW1 2279   5.695   0.722   5.584 -0.7089  0.4240 -0.1058
  460SOL    HW2 2280   5.807   0.631   5.506 -0.0912  0.3101  0.8836
  461SOL     OW 2281   5.206   1.018   1.184  0.1939 -0.1553  0.0933
  461SOL    HW1 2282   5.223   0.934   1.236  1.2204  0.0573  0.1167
  461SOL    HW2 2283   5.124   1.007   1.128  1.3470 -1.8532 -1.3252
  462SOL     OW 2284   4.703   1.422   5.508  0.4685 -0.1149  0.0252
  462SOL    HW1 2285   4.797   1.452   5.522  0.7069 -1.3712  1.3429
  462SOL    HW2 2286   4.702   1.324   5.489 -0.6697 -0.5378  1.9768
  463SOL     OW 2287   6.450   0.797   1.863 -0.1444  0.0854  0.5373
  463SOL    HW1 2288   6.482   0.717   1.912 -0.7795 -1.1722 -1.0271
  463SOL    HW2 2289   6.466   0.786   1.765  0.1713  2.0790  0.3083
  464SOL     OW 2290   6.171   1.183   0.867 -0.3056  0.7610  0.1487
  464SOL    HW1 2291   6.209   1.098   0.904  0.1829  0.7929 -0.2678
  464SOL    HW2 2292   6.075   1.193   0.896  0.0292  0.7366  1.3123
  465SOL     OW 2293   4.914   0.386   3.318  0.2731 -0.0342  0.2239
  465SOL    HW1 2294   4.989   0.374   3.384  0.8089  2.2311  0.1218
  465SOL    HW2 2295   4.827   0.369   3.364  0.6850  0.7012  1.3116
  466SOL     OW 2296   5.519   1.639   5.361 -0.0183 -0.1879 -0.2390
  466SOL    HW1 2297   5.462   1.649   5.280 -0.3429 -1.0562 -0.1319
  466SOL    HW2 2298   5.519   1.724   5.414 -0.6168  0.0503 -0.6254
  467SOL     OW 2299   4.653   0.701   3.918 -0.2297  0.6641 -0.6078
  467SOL    HW1 2300   4.678   0.753   3.837 -0.1618 -0.8183 -1.5738
  467SOL    HW2 2301   4.736   0.662   3.960 -0.4093  0.1898 -0.6922
  468SOL     OW 2302   5.409   2.494   3.373 -0.0623 -0.2669  0.0806
  468SOL    HW1 2303   5.480   2.423   3.372  1.2316  0.9157 -2.6928
  468SOL    HW2 2304   5.452   2.583   3.361 -1.9572  0.6057 -0.4588
  469SOL     OW 2305   4.064   2.622   6.164  0.0523 -0.1259 -0.1965
  469SOL    HW1 2306   4.058   2.522   6.151 -0.7862  0.0540 -1.3867
  469SOL    HW2 2307   4.093   2.642   6.257  0.4885 -1.4890 -0.0115
  470SOL     OW 2308   5.324   2.702   2.938  0.2993  0.1690 -0.1400
  470SOL    HW1 2309   5.329   2.631   2.868  0.5908  0.1081 -0.0612
  470SOL    HW2 2310   5.250   2.765   2.917 -1.6940 -1.5805  1.1437
  471SOL     OW 2311   0.646   5.573   6.150 -0.6188 -0.0204  0.0569
  471SOL    HW1 2312   0.636   5.628   6.067  0.6208  1.4235  0.8102
  471SOL    HW2 2313   0.611   5.624   6.228  1.9462  0.4282  1.0174
  472SOL     OW 2314   1.025   0.251   5.986 -0.6525  0.5233  0.8044
  472SOL    HW1 2315   1.067   0.325   5.932  1.2971  0.3806  2.0145
  472SOL    HW2 2316   1.038   0.164   5.939  2.2718  0.2005  1.9982
  473SOL     OW 2317   2.216   2.455   0.699 -0.4500  0.3102  0.1196
  473SOL    HW1 2318   2.258   2.466   0.789 -1.1056  1.2239  0.3268
  473SOL    HW2 2319   2.213   2.358   0.675  1.5398  0.1909  0.1984
  474SOL     OW 2320   1.749   1.418   6.256 -0.1348 -0.3458 -0.4602
  474SOL    HW1 2321   1.666   1.362   6.256  0.4302 -1.2119  0.0736
  474SOL    HW2 2322   1.809   1.387   6.330  0.5965  0.3721 -0.7474
  475SOL     OW 2323   4.819   4.418   5.601  0.2791  0.9573  0.0449
  475SOL    HW1 2324   4.788   4.508   5.572 -1.8271  0.0797 -0.6209
  475SOL    HW2 2325   4.906   4.427   5.651  1.1746  3.1073 -1.7224
  476SOL     OW 2326   0.716   6.810   5.215 -0.0116 -0.4350  0.1178
  476SOL    HW1 2327   0.634   6.866   5.202 -0.1872 -1.0941 -1.9794
  476SOL    HW2 2328   0.796   6.870   5.224 -0.6220  0.1992  1.7910
  477SOL     OW 2329   3.622   6.002   5.499  0.0766 -0.2861 -0.0574
  477SOL    HW1 2330   3.631   6.008   5.599  1.5893  0.2169 -0.2141
  477SOL    HW2 2331   3.552   6.067   5.468  0.5286  0.5035  0.5450
  478SOL     OW 2332   5.294   5.505   5.780 -0.3638  0.0391 -0.6832
  478SOL    HW1 2333   5.212   5.557   5.804  0.0607 -0.6294  2.5634
  478SOL    HW2 2334   5.268   5.416   5.743 -1.0490  0.5946 -1.5930
  479SOL     OW 2335   2.313   1.792   1.349 -0.4322  0.5966 -1.3061
  479SOL    HW1 2336   2.233   1.814   1.404 -0.3873  1.6987 -1.6443
  479SOL    HW2 2337   2.396   1.812   1.400 -0.3830  0.7356 -1.4391
  480SOL     OW 2338   1.811   2.087   3.988 -0.2890 -0.3940 -0.1727
  480SOL    HW1 2339   1.869   2.007   4.002 -0.7229 -0.6721  0.0670
  480SOL    HW2 2340   1.717   2.064   4.012 -0.5257  0.0042 -0.7087
  481SOL     OW 2341   1.409   4.546   4.323 -0.1287  0.1401  0.2735
  481SOL    HW1 2342   1.437   4.602   4.401  2.3360 -0.3681 -0.1625
  481SOL    HW2 2343   1.415   4.449   4.346 -0.7407 -0.0080 -0.1397
  482SOL     OW 2344   2.389   1.201   2.716  0.2299  0.0670  0.1792
  482SOL    HW1 2345   2.388   1.277   2.781  0.7411 -1.1957  1.7253
  482SOL    HW2 2346   2.477   1.154   2.721 -0.0467 -0.5941 -0.8122
  483SOL     OW 2347   5.105   4.348   5.655  0.2500 -0.5263 -0.4022
  483SOL    HW1 2348   5.158   4.263   5.653  1.9941  0.3169  3.0373
  483SOL    HW2 2349   5.158   4.421   5.612 -0.2500 -0.6548 -1.2618
  484SOL     OW 2350   6.349   2.123   1.755  0.7325  0.0433  0.0453
  484SOL    HW1 2351   6.430   2.088   1.709  0.8646  1.6447 -1.0384
  484SOL    HW2 2352   6.352   2.223   1.756 -0.9936  0.1329  0.4074
  485SOL     OW 2353   2.517   4.949   1.356  0.0532  0.2237 -0.3631
  485SOL    HW1 2354   2.445   5.015   1.337  0.5387  0.7654 -0.3371
  485SOL    HW2 2355   2.518   4.928   1.454 -0.7077 -0.5390 -0.5088
  486SOL     OW 2356   0.194   6.689   6.637 -0.1216 -0.5634 -0.1598
  486SOL    HW1 2357   0.123   6.652   6.578 -0.8950 -0.9953  1.0116
  486SOL    HW2 2358   0.254   6.749   6.584 -0.1816 -1.7346 -1.5898
  487SOL     OW 2359   0.486   1.228   6.798  0.0910  0.2146  0.2215
  487SOL    HW1 2360   0.485   1.281   6.883 -2.5777 -1.1982  1.1881
  487SOL    HW2 2361   0.411   1.259   6.740 -0.5109 -1.3855  0.1133
  488SOL     OW 2362   1.549   6.264   6.663  0.0604 -0.5020  0.0657
  488SOL    HW1 2363   1.590   6.350   6.633 -1.5384  0.0834 -0.5954
  488SOL    HW2 2364   1.568   6.250   6.760 -2.7457  2.6390  1.2966
  489SOL     OW 2365   1.544   1.017   3.842 -0.4193  0.3608 -0.1816
  489SOL    HW1 2366   1.576   1.062   3.759  0.1570 -1.9057 -1.2599
  489SOL    HW2 2367   1.497   0.932   3.818  0.2486 -0.6386  1.8250
  490SOL     OW 2368   2.151   2.700   2.415  0.3813 -0.0360  0.0183
  490SOL    HW1 2369   2.240   2.657   2.432  0.9102  0.0215 -2.2343
  490SOL    HW2 2370   2.163   2.774   2.349 -1.4518 -0.4788 -0.8586
  491SOL     OW 2371   1.871   4.808   4.763  0.0515 -0.4954  0.8628
  491SOL    HW1 2372   1.904   4.715   4.747  1.2158  0.0143  0.1445
  491SOL    HW2 2373   1.914   4.870   4.698 -0.6698  0.5642  1.3661
  492SOL     OW 2374   6.734   6.648   2.134 -0.1111  0.6451 -0.1817
  492SOL    HW1 2375   6.652   6.686   2.178 -0.8151  1.3778 -1.9919
  492SOL    HW2 2376   6.789   6.599   2.201 -0.2698  3.0572  1.8346
  493SOL     OW 2377   4.113   0.691   0.978  0.1635 -0.3502  0.4861
  493SOL    HW1 2378   4.018   0.664   0.966  0.6267 -0.9125 -2.8363
  493SOL    HW2 2379   4.118   0.773   1.035 -2.4092  0.2573 -0.0587
  494SOL     OW 2380   0.211   2.486   6.582 -0.2108  0.4505  0.1835
  494SOL    HW1 2381   0.138   2.508   6.518  1.5685  2.3309 -1.3176
  494SOL    HW2 2382   0.245   2.569   6.626  1.9156 -0.1478 -0.1914
  495SOL     OW 2383   2.201   1.023   0.519 -0.5659  0.0066  0.0810
  495SOL    HW1 2384   2.169   1.108   0.476  1.2485  1.2061  0.9627
  495SOL    HW2 2385   2.265   0.977   0.458 -2.6060 -1.5912 -1.0236
  496SOL     OW 2386   6.179   0.669   3.496 -0.7859  0.0439  0.4653
  496SOL    HW1 2387   6.176   0.762   3.531  1.4533  1.4884 -2.7816
  496SOL    HW2 2388   6.092   0.647   3.452 -0.8900  1.0968  0.1217
  497SOL     OW 2389   0.567   5.089   1.291  0.5756  0.5394  0.5444
  497SOL    HW1 2390   0.655   5.075   1.244  0.8403 -0.8740  1.4055
  497SOL    HW2 2391   0.497   5.031   1.247  0.8959 -1.0457  2.0151
  498SOL     OW 2392   0.471   3.686   4.811 -0.1112 -0.1527  0.4183
  498SOL    HW1 2393   0.553   3.673   4.867  0.1148 -2.0201 -0.2847
  498SOL    HW2 2394   0.481   3.769   4.756  1.6535 -0.7729 -0.2441
  499SOL     OW 2395   3.020   2.115   3.674  0.1088 -0.5297  0.2287
  499SOL    HW1 2396   2.966   2.166   3.607  0.1390  0.1824  0.7307
  499SOL    HW2 2397   3.115   2.112   3.645  0.3013  0.5896  0.6769
  500SOL     OW 2398   5.751   1.068   1.108  0.1461 -0.1474 -0.0166
  500SOL    HW1 2399   5.696   0.999   1.060  0.1046 -0.5827  0.6419
  500SOL    HW2 2400   5.805   1.024   1.179  0.2288  0.4805  0.3201
  501SOL     OW 2401   5.298   5.577   3.176 -0.5860 -0.4786 -0.0132
  501SOL    HW1 2402   5.200   5.557   3.168 -0.5079 -0.2127 -2.3017
  501SOL    HW2 2403   5.311   5.674   3.192 -0.6921 -0.4445 -0.1299
  502SOL     OW 2404   5.003   5.344   4.346  0.1260 -1.0008  0.3580
  502SOL    HW1 2405   5.053   5.275   4.293 -0.4722 -0.5750 -0.7913
  502SOL    HW2 2406   5.022   5.434   4.308 -0.0394 -0.6413  1.1113
  503SOL     OW 2407   5.579   1.491   4.020 -0.1721 -0.1425 -0.2182
  503SOL    HW1 2408   5.493   1.521   4.060 -1.0434 -0.5899 -1.6942
  503SOL    HW2 2409   5.595   1.540   3.934 -0.2049 -1.7905 -1.2012
  504SOL     OW 2410   4.880   1.567   3.835 -0.7684 -0.3374 -0.3841
  504SOL    HW1 2411   4.897   1.523   3.746 -0.4336  0.2787 -0.6310
  504SOL    HW2 2412   4.965   1.610   3.867 -0.6116 -1.4366  0.7368
  505SOL     OW 2413   3.852   3.086   4.821  0.1121 -0.1995  0.0764
  505SOL    HW1 2414   3.841   3.031   4.904 -2.1112  0.0590  0.0029
  505SOL    HW2 2415   3.944   3.124   4.818  0.0731  0.2636  2.7376
  506SOL     OW 2416   5.150   3.514   1.898  0.1221  0.1291 -0.1799
  506SOL    HW1 2417   5.226   3.534   1.959 -0.7381  0.4901  0.8088
  506SOL    HW2 2418   5.100   3.434   1.933  0.2262 -0.2972 -0.9872
  507SOL     OW 2419   5.425   1.149   2.736  0.1635  0.2072  0.3056
  507SOL    HW1 2420   5.353   1.210   2.703  0.1966  0.8610  1.3795
  507SOL    HW2 2421   5.467   1.101   2.659 -1.5810 -0.3820 -0.3384
  508SOL     OW 2422   3.498   1.579   3.190  0.1481  0.0510 -0.5882
  508SOL    HW1 2423   3.502   1.485   3.224  1.6828 -0.1656 -1.2739
  508SOL    HW2 2424   3.562   1.636   3.242  2.1386 -0.1787 -2.6030
  509SOL     OW 2425   5.930   4.246   4.706 -0.3205  0.1995 -0.0576
  509SOL    HW1 2426   5.891   4.230   4.797  1.6661 -1.6600  0.5671
  509SOL    HW2 2427   5.929   4.161   4.654 -0.5039  1.0139 -1.4111
  510SOL     OW 2428   2.918   3.256   3.741  0.7637 -0.2892 -0.8403
  510SOL    HW1 2429   2.897   3.163   3.772 -0.8004  0.2764 -0.1285
  510SOL    HW2 2430   2.919   3.259   3.641 -1.1500 -0.6655 -0.8909
  511SOL     OW 2431   3.947   0.392   2.336  0.6449  0.1160  0.6887
  511SOL    HW1 2432   3.869   0.356   2.388  0.4257  0.2802  0.4701
  511SOL    HW2 2433   4.032   0.360   2.379  0.5024 -2.5774 -0.7606
  512SOL     OW 2434   3.122   2.888   1.752  0.4030 -0.2963 -0.2033
  512SOL    HW1 2435   3.143   2.913   1.846  0.4071 -0.0001 -0.2829
  512SOL    HW2 2436   3.167   2.801   1.730 -1.0131 -1.2538  0.6106
  513SOL     OW 2437   6.652   5.628   2.678  0.2020  0.0944 -0.0819
  513SOL    HW1 2438   6.709   5.562   2.630  0.1312  0.9771 -1.4311
  513SOL    HW2 2439   6.676   5.721   2.649  0.8667  0.7614  2.3801
  514SOL     OW 2440   6.136   3.570   0.226  0.0190  0.1487  0.8386
  514SOL    HW1 2441   6.162   3.648   0.283  0.7881  0.0945  0.5695
  514SOL    HW2 2442   6.173   3.486   0.266 -0.0392  0.0262  0.6375
  515SOL     OW 2443   6.264   0.139   4.817 -0.1582 -0.1911  0.3555
  515SOL    HW1 2444   6.333   0.205   4.789 -1.4142  0.7142 -0.6907
  515SOL    HW2 2445   6.310   0.059   4.857  1.5942 -0.3629 -1.8040
  516SOL     OW 2446   6.140   2.492   5.857  0.1747 -0.8434  0.2734
  516SOL    HW1 2447   6.137   2.589   5.830 -0.6160 -0.8019  0.4999
  516SOL    HW2 2448   6.047   2.455   5.857  0.4562 -1.5502  0.3908
  517SOL     OW 2449   3.948   0.191   2.646 -0.1369 -0.4338  0.4465
  517SOL    HW1 2450   3.901   0.267   2.691  1.1854  0.3619  0.5234
  517SOL    HW2 2451   3.899   0.105   2.667 -1.7461  0.3840  0.2067
  518SOL     OW 2452   0.001   5.962   3.104 -0.1883 -0.1343 -0.0012
  518SOL    HW1 2453  -0.076   6.001   3.055  1.1432  0.4941 -1.7017
  518SOL    HW2 2454   0.010   5.865   3.080 -0.8658 -0.4004  0.7803
  519SOL     OW 2455   4.075   1.141   1.150  0.4012 -0.0956  0.2915
  519SOL    HW1 2456   4.049   1.132   1.246 -0.0168 -1.5795  0.0734
  519SOL    HW2 2457   4.009   1.092   1.093  2.2982 -1.9435 -0.4769
  520SOL     OW 2458   5.285   2.336   5.305  0.2708 -0.1758  0.1971
  520SOL    HW1 2459   5.203   2.383   5.272  0.4038 -0.3997 -0.4635
  520SOL    HW2 2460   5.350   2.325   5.230  1.5070  1.2236  1.0178
  521SOL     OW 2461   6.577   2.247   2.115 -0.6095 -0.4452  0.2340
  521SOL    HW1 2462   6.672   2.214   2.111  0.3531  1.8503  2.1064
  521SOL    HW2 2463   6.563   2.314   2.042 -1.0152 -1.2311 -0.4254
  522SOL     OW 2464   5.651   0.488   2.396 -0.5680 -0.5407  0.8447
  522SOL    HW1 2465   5.629   0.582   2.420 -0.3773 -0.4271  0.5812
  522SOL    HW2 2466   5.609   0.464   2.309  0.1503 -0.3951  0.4528
  523SOL     OW 2467   6.028   6.435   0.513  0.0237 -0.5868 -0.7447
  523SOL    HW1 2468   5.946   6.382   0.493  1.1699 -3.0752  0.6149
  523SOL    HW2 2469   6.059   6.415   0.607  1.4280  1.3385 -0.7250
  524SOL     OW 2470   0.502   4.474   4.234  0.7105  0.6059 -0.0983
  524SOL    HW1 2471   0.469   4.488   4.140  1.3971  4.2716  0.0559
  524SOL    HW2 2472   0.561   4.394   4.237 -0.7010 -0.6304 -2.3854
  525SOL     OW 2473   4.073   0.287   4.609  0.5042  0.2198 -0.3385
  525SOL    HW1 2474   3.989   0.269   4.557  1.1575 -0.8352 -1.0800
  525SOL    HW2 2475   4.055   0.274   4.706  0.0830 -1.1574 -0.5800
  526SOL     OW 2476   5.232   4.556   5.501 -0.3910  0.0864  0.1181
  526SOL    HW1 2477   5.259   4.570   5.405 -0.0183  0.9403  0.3397
  526SOL    HW2 2478   5.313   4.535   5.555 -0.2319  1.9044  0.6502
  527SOL     OW 2479   1.601   2.651   5.867 -0.1442  0.0529 -0.1728
  527SOL    HW1 2480   1.555   2.565   5.847  1.0080 -0.7238  0.3546
  527SOL    HW2 2481   1.566   2.690   5.952 -0.2722 -0.2027 -0.1094
  528SOL     OW 2482   4.648   1.008   6.419 -0.1621 -0.2989 -0.0266
  528SOL    HW1 2483   4.682   1.078   6.481 -0.6971 -1.0687  1.1866
  528SOL    HW2 2484   4.690   0.920   6.442 -0.3731 -0.5955 -0.7526
  529SOL     OW 2485   1.199   2.830   0.745 -0.9472 -0.3071 -0.1072
  529SOL    HW1 2486   1.201   2.779   0.658 -0.4902 -0.3981 -0.0444
  529SOL    HW2 2487   1.276   2.803   0.801 -2.0815 -1.3765  0.9871
  530SOL     OW 2488   0.994   2.945   2.049 -0.5907  0.0253  0.1197
  530SOL    HW1 2489   0.951   3.035   2.044 -0.9451 -0.1153  0.5652
  530SOL    HW2 2490   0.923   2.874   2.053 -0.3416 -0.3937 -1.7932
  531SOL     OW 2491   6.564   1.023   0.031 -0.5936 -0.4195 -0.1999
  531SOL    HW1 2492   6.505   1.103   0.014  0.8508  0.8793  0.5943
  531SOL    HW2 2493   6.616   1.002  -0.052  0.8962  1.1393  0.2720
  532SOL     OW 2494   1.562   2.934   3.960  0.6182  0.8091  0.1647
  532SOL    HW1 2495   1.638   2.938   4.025 -0.3279 -0.2036  1.3887
  532SOL    HW2 2496   1.598   2.915   3.869  1.9549  1.9427  0.4083
  533SOL     OW 2497   0.973   3.167   4.238 -0.4242  0.7811  0.2576
  533SOL    HW1 2498   0.943   3.076   4.210 -1.4286  1.6568 -1.7437
  533SOL    HW2 2499   1.072   3.175   4.226 -0.3098 -0.0718  0.5626
  534SOL     OW 2500   5.283   6.819   0.864  0.2763  0.4760 -0.1230
  534SOL    HW1 2501   5.225   6.805   0.783  2.2602  1.9528 -1.9288
  534SOL    HW2 2502   5.257   6.904   0.909  1.1406  1.3022 -1.1152
  535SOL     OW 2503   0.883   6.609   2.202 -0.7960  0.1237  0.2763
  535SOL    HW1 2504   0.926   6.602   2.292  1.0990  0.1068 -0.5708
  535SOL    HW2 2505   0.877   6.518   2.161 -0.8360  0.2286  0.0455
  536SOL     OW 2506   2.745   6.042   5.524 -0.5316  0.4790 -0.1873
  536SOL    HW1 2507   2.710   6.015   5.613 -1.3979 -1.0102 -0.9354
  536SOL    HW2 2508   2.741   5.964   5.461  3.4024  0.3894 -0.6000
  537SOL     OW 2509   2.859   1.478   3.479 -0.3293 -0.2435  0.2948
  537SOL    HW1 2510   2.768   1.503   3.511 -0.1757  1.4963 -0.4955
  537SOL    HW2 2511   2.860   1.478   3.379  0.4890 -0.4843  0.2936
  538SOL     OW 2512   6.710   5.898   4.339  0.0023 -0.0945  0.6790
  538SOL    HW1 2513   6.759   5.821   4.380  0.0720  0.3921  1.5347
  538SOL    HW2 2514   6.695   5.968   4.408 -0.9134  0.2542  0.1404
  539SOL     OW 2515   1.226   4.990   5.881 -0.0837 -0.2769 -0.0480
  539SOL    HW1 2516   1.303   5.041   5.920 -0.9284 -0.4021  1.9043
  539SOL    HW2 2517   1.259   4.931   5.807  1.3431  1.1192 -0.5923
  540SOL     OW 2518   4.115   1.190   2.682  0.1222  0.0392 -0.0646
  540SOL    HW1 2519   4.074   1.211   2.593  0.0889  2.6393  0.4654
  540SOL    HW2 2520   4.141   1.094   2.685 -2.9259 -0.9701 -1.6231
  541SOL     OW 2521   2.682   3.586   0.356  0.4744  0.4367  0.1754
  541SOL    HW1 2522   2.642   3.670   0.392  0.9231 -0.0826  2.0371
  541SOL    HW2 2523   2.777   3.602   0.330  0.8620  0.3228  1.4464
  542SOL     OW 2524   6.775   2.314   5.135  0.1032  0.1266  0.2218
  542SOL    HW1 2525   6.745   2.252   5.207 -0.0366  1.0951  1.0229
  542SOL    HW2 2526   6.866   2.288   5.104 -0.6428 -1.5226 -0.6984
  543SOL     OW 2527   6.802   3.742   0.004  0.2178  0.4263  1.2200
  543SOL    HW1 2528   6.845   3.832   0.016 -1.9507  1.5637  1.0442
  543SOL    HW2 2529   6.765   3.711   0.091 -1.1876  0.9189  0.8344
  544SOL     OW 2530   3.633   0.044   0.414  0.1924  0.2162  0.8768
  544SOL    HW1 2531   3.718   0.097   0.410  0.0370  0.4606  0.7539
  544SOL    HW2 2532   3.558   0.101   0.381  0.1636 -0.3826 -0.1020
  545SOL     OW 2533   1.449   2.847   5.049  0.5168 -1.0310  0.0453
  545SOL    HW1 2534   1.442   2.762   5.102 -1.0953 -1.1499 -0.3115
  545SOL    HW2 2535   1.544   2.878   5.049  0.8752 -2.0235  1.4353
  546SOL     OW 2536   2.550   1.658   2.366  0.1753  0.0042  0.3977
  546SOL    HW1 2537   2.595   1.747   2.358 -0.0915  0.0120 -1.4549
  546SOL    HW2 2538   2.465   1.669   2.418  0.1025  0.8441  0.1187
  547SOL     OW 2539   6.017   2.422   3.826 -0.3220  0.4839 -0.1258
  547SOL    HW1 2540   6.108   2.416   3.865 -0.8780  1.0586  1.3184
  547SOL    HW2 2541   6.009   2.508   3.774  0.6693 -0.6479 -2.2806
  548SOL     OW 2542   0.806   2.959   3.444  0.1060  0.3100  0.0267
  548SOL    HW1 2543   0.835   3.028   3.510  1.5605 -0.8848  0.6879
  548SOL    HW2 2544   0.842   2.982   3.354  0.0909  0.7049  0.1180
  549SOL     OW 2545   2.647   1.457   3.671  0.9310  0.3125 -0.1069
  549SOL    HW1 2546   2.573   1.423   3.730  0.9792  2.1874  1.1403
  549SOL    HW2 2547   2.731   1.405   3.690  0.8173  0.5441  1.1742
  550SOL     OW 2548   4.111   5.230   5.959  0.1360 -0.3596 -0.3539
  550SOL    HW1 2549   4.068   5.149   5.919  0.1450  0.3460 -1.8912
  550SOL    HW2 2550   4.210   5.217   5.963  0.0162 -1.0334  0.9202
  551SOL     OW 2551   3.188   0.396   0.669  0.1717  0.3149 -0.2476
  551SOL    HW1 2552   3.134   0.477   0.646 -0.3394  0.2587  0.6865
  551SOL    HW2 2553   3.177   0.375   0.766  0.0273 -1.0908 -0.5453
  552SOL     OW 2554   3.378   6.376   6.266 -0.1454 -0.3376  1.1416
  552SOL    HW1 2555   3.459   6.331   6.304  1.4422  0.5865 -0.9267
  552SOL    HW2 2556   3.380   6.473   6.290 -0.7018 -0.3226  1.1352
  553SOL     OW 2557   1.288   6.487   5.640  0.4822  0.3651  0.5252
  553SOL    HW1 2558   1.368   6.528   5.597  0.8570  0.4981  1.3208
  553SOL    HW2 2559   1.230   6.446   5.570  2.2929 -1.6419  0.0677
  554SOL     OW 2560   1.127   6.305   2.296 -0.1864 -0.6463  0.2946
  554SOL    HW1 2561   1.212   6.314   2.349  0.0571  0.3784 -0.2348
  554SOL    HW2 2562   1.069   6.235   2.338  1.1183 -1.7158  0.3811
  555SOL     OW 2563   6.770   1.789   5.720  0.2000  0.4047 -0.7469
  555SOL    HW1 2564   6.807   1.747   5.637 -1.0375 -0.4641 -0.8814
  555SOL    HW2 2565   6.844   1.803   5.786  1.0083  0.0753 -1.5649
  556SOL     OW 2566   3.477   4.533   0.644  0.7155  0.9397  0.1525
  556SOL    HW1 2567   3.569   4.519   0.607  0.9389  0.6443  0.7990
  556SOL    HW2 2568   3.436   4.445   0.666 -0.4567  0.9313 -1.8066
  557SOL     OW 2569   4.668   5.125   1.301  0.1691 -0.3052 -0.5174
  557SOL    HW1 2570   4.627   5.151   1.214  1.0638 -0.6662 -1.0586
  557SOL    HW2 2571   4.657   5.200   1.366 -2.3050 -0.7764 -0.2714
  558SOL     OW 2572   0.538   6.312   6.962  0.2451 -0.3709  0.0804
  558SOL    HW1 2573   0.586   6.391   7.000 -0.1542  0.2872 -0.7467
  558SOL    HW2 2574   0.582   6.228   6.992  2.1451  0.2069 -0.9471
  559SOL     OW 2575   0.534   4.710   1.619 -0.4847 -0.3885 -0.0056
  559SOL    HW1 2576   0.605   4.771   1.583  0.0025  0.7128  2.6466
  559SOL    HW2 2577   0.573   4.620   1.637 -0.1260 -0.1993  0.1531
  560SOL     OW 2578   3.051   6.342   5.279 -0.0693  0.0520 -0.6638
  560SOL    HW1 2579   2.989   6.374   5.350  0.5399  0.6786 -0.4042
  560SOL    HW2 2580   3.040   6.243   5.267 -0.3761 -0.0117  0.1123
  561SOL     OW 2581   5.373   3.462   3.069  0.1356  0.1392  0.4654
  561SOL    HW1 2582   5.415   3.410   3.144  1.7428 -0.1980 -0.6203
  561SOL    HW2 2583   5.317   3.535   3.108  0.7271 -0.1689  2.0100
  562SOL     OW 2584   2.135   6.225   2.778 -0.0863  1.1437 -0.2738
  562SOL    HW1 2585   2.185   6.305   2.746 -0.5328  2.1834  1.5223
  562SOL    HW2 2586   2.157   6.147   2.719  2.5532  1.8771 -0.3973
  563SOL     OW 2587   0.756   6.822   0.414  0.6726  0.2807 -0.1024
  563SOL    HW1 2588   0.715   6.893   0.357  1.0177  0.5400 -0.0248
  563SOL    HW2 2589   0.684   6.759   0.445  0.4344  0.3309 -0.5442
  564SOL     OW 2590   2.063   1.572   0.202  0.2309 -0.6032 -0.9486
  564SOL    HW1 2591   2.014   1.650   0.241 -0.3144 -0.1166 -2.5317
  564SOL    HW2 2592   2.130   1.538   0.268 -0.6115  0.1940  0.3717
  565SOL     OW 2593   2.920   1.139   2.231 -0.1823 -0.5606  0.2034
  565SOL    HW1 2594   3.013   1.103   2.243 -0.2557 -0.5852  0.6888
  565SOL    HW2 2595   2.913   1.227   2.277 -0.3696 -0.5085  0.0727
  566SOL     OW 2596   4.491   2.496   4.508 -0.4620  0.6344  0.2199
  566SOL    HW1 2597   4.540   2.413   4.482  0.3113  1.2689 -0.4002
  566SOL    HW2 2598   4.401   2.496   4.464  0.6697  1.5033 -2.2914
  567SOL     OW 2599   3.792   0.423   1.900 -0.7017 -0.3646 -0.3313
  567SOL    HW1 2600   3.797   0.489   1.976  1.2078 -0.0617 -0.6674
  567SOL    HW2 2601   3.790   0.330   1.937 -3.6834 -0.2176  0.1566
  568SOL     OW 2602   0.343   5.630   5.937 -0.4917  0.2131  0.1020
  568SOL    HW1 2603   0.368   5.724   5.961 -0.9757  0.0641  1.2450
  568SOL    HW2 2604   0.376   5.567   6.007 -1.0994 -0.3538 -0.1092
  569SOL     OW 2605   6.128   0.186   4.182  0.3874 -0.8924 -0.3724
  569SOL    HW1 2606   6.204   0.252   4.191  1.7092 -2.3988 -0.1044
  569SOL    HW2 2607   6.102   0.153   4.272 -0.0454 -0.9817 -0.5297
  570SOL     OW 2608   0.880   5.084   1.849  0.0012 -0.9412  0.2013
  570SOL    HW1 2609   0.803   5.103   1.789  0.1308 -1.9234 -0.3028
  570SOL    HW2 2610   0.918   5.170   1.884  1.4638 -0.0800 -3.0694
  571SOL     OW 2611   4.671   6.695   6.955 -0.6099 -0.2079  0.1873
  571SOL    HW1 2612   4.653   6.687   6.857  0.6582 -1.2553  0.0146
  571SOL    HW2 2613   4.608   6.637   7.006  0.7569 -2.1845 -0.2651
  572SOL     OW 2614   0.888   0.402   1.930 -0.2805  0.6927 -0.1201
  572SOL    HW1 2615   0.871   0.431   2.024  0.4326  1.1534 -0.1282
  572SOL    HW2 2616   0.952   0.324   1.931 -1.0619  0.0370 -0.1762
  573SOL     OW 2617   1.571   3.507   2.512 -0.3290 -0.2246 -0.0027
  573SOL    HW1 2618   1.547   3.583   2.451  1.7691  0.1466 -0.4588
  573SOL    HW2 2619   1.492   3.481   2.566 -2.3299 -0.5807 -2.8848
  574SOL     OW 2620   4.726   5.535   4.872  0.1570 -0.2722  0.1776
  574SOL    HW1 2621   4.771   5.544   4.783  0.7209 -0.3335  0.4529
  574SOL    HW2 2622   4.699   5.625   4.905 -0.0477 -0.2490 -0.0557
  575SOL     OW 2623   3.444   2.917   3.594 -0.1254  0.3778  0.3689
  575SOL    HW1 2624   3.418   2.897   3.689  0.1253  0.6135  0.4900
  575SOL    HW2 2625   3.503   2.998   3.593 -1.9411  1.7562 -0.1903
  576SOL     OW 2626   4.753   4.892   1.144  0.1305 -0.7812  0.3143
  576SOL    HW1 2627   4.841   4.868   1.184  1.5898  0.5405 -1.8316
  576SOL    HW2 2628   4.721   4.979   1.182  1.0301 -0.0163 -0.6125
  577SOL     OW 2629   1.135   5.702   0.801  0.5780  0.0786 -0.0267
  577SOL    HW1 2630   1.156   5.783   0.857  0.7183  0.3846 -0.5126
  577SOL    HW2 2631   1.219   5.654   0.779  0.3000 -1.7173  2.4528
  578SOL     OW 2632   4.061   0.958   1.418  0.5435  0.1385  0.0573
  578SOL    HW1 2633   4.020   0.987   1.504  1.4431 -0.5910  0.7475
  578SOL    HW2 2634   4.158   0.939   1.431  0.1831 -2.4957 -0.4801
  579SOL     OW 2635   6.284   1.467   1.209  0.3156  0.8009 -0.1414
  579SOL    HW1 2636   6.269   1.438   1.114  2.2797  1.6879 -0.7729
  579SOL    HW2 2637   6.373   1.510   1.217 -0.9175  3.2963  1.5488
  580SOL     OW 2638   5.269   2.482   0.664  0.0262  0.2523 -0.0391
  580SOL    HW1 2639   5.179   2.446   0.639 -0.1089 -1.7074  2.8673
  580SOL    HW2 2640   5.321   2.501   0.581 -1.8741 -1.6466 -1.7941
  581SOL     OW 2641   5.722   1.015   3.369 -0.7814  0.0926 -0.6139
  581SOL    HW1 2642   5.646   0.988   3.427 -2.0932 -1.1048 -2.7746
  581SOL    HW2 2643   5.713   1.111   3.344 -0.2486  0.5977  1.0024
  582SOL     OW 2644   1.232   2.964   5.521 -0.2031  0.3434  0.5249
  582SOL    HW1 2645   1.249   3.029   5.595 -0.2276 -0.3147  1.1087
  582SOL    HW2 2646   1.148   2.912   5.540  0.9495 -1.3599  1.1334
  583SOL     OW 2647   1.037   2.156   0.936 -0.3611 -0.7312  0.4208
  583SOL    HW1 2648   1.088   2.237   0.907 -1.9903  0.4159  0.6119
  583SOL    HW2 2649   0.947   2.157   0.894 -0.7593 -1.9419  1.2089
  584SOL     OW 2650   1.811   0.476   1.138  0.5818 -0.2001  0.2671
  584SOL    HW1 2651   1.901   0.478   1.095  0.0084  1.6215 -0.9499
  584SOL    HW2 2652   1.746   0.528   1.083 -1.2752 -1.5929  1.0379
  585SOL     OW 2653   6.593   5.140   3.827  0.4948 -0.0357 -0.9189
  585SOL    HW1 2654   6.562   5.186   3.910 -1.7466 -2.1176 -0.4716
  585SOL    HW2 2655   6.560   5.189   3.747 -0.7824 -0.1767 -0.4900
  586SOL     OW 2656   5.650   3.569   1.411  0.7099  0.0023  0.3793
  586SOL    HW1 2657   5.671   3.473   1.391 -2.5560 -0.9432  0.9368
  586SOL    HW2 2658   5.693   3.627   1.342  1.7751 -1.9399 -0.6909
  587SOL     OW 2659   4.281   5.392   3.306 -0.5642  0.2591 -0.1746
  587SOL    HW1 2660   4.198   5.377   3.360 -1.4457  0.0623 -1.5328
  587SOL    HW2 2661   4.339   5.311   3.310 -1.2439 -0.2578 -0.5609
  588SOL     OW 2662   1.116   2.412   0.808 -0.0438 -0.6500  0.0491
  588SOL    HW1 2663   1.028   2.409   0.759 -1.3683 -1.4958  2.3268
  588SOL    HW2 2664   1.108   2.471   0.888  1.3970 -0.9592  0.4445
  589SOL     OW 2665   1.991   1.351   5.171  0.1619 -0.6201 -0.0483
  589SOL    HW1 2666   1.974   1.421   5.240 -0.3894 -2.6977  2.0473
  589SOL    HW2 2667   1.967   1.387   5.080 -0.3279  1.7654  0.9606
  590SOL     OW 2668   2.536   6.103   1.634 -0.1671  0.1685 -0.2392
  590SOL    HW1 2669   2.461   6.135   1.576  0.2198 -0.9467 -1.3902
  590SOL    HW2 2670   2.499   6.076   1.723 -1.0599  0.1269 -0.6103
  591SOL     OW 2671   5.102   2.312   1.604 -0.5443 -0.3359  0.3599
  591SOL    HW1 2672   5.042   2.386   1.632  0.4732  0.2070  1.1816
  591SOL    HW2 2673   5.169   2.294   1.676  1.2287  0.0909 -1.0928
  592SOL     OW 2674   2.076   5.113   4.342  0.1070 -0.5047 -0.0460
  592SOL    HW1 2675   2.040   5.207   4.345  0.7134 -0.2824  0.5256
  592SOL    HW2 2676   2.056   5.073   4.253 -0.6952 -0.0507 -0.0881
  593SOL     OW 2677   4.579   3.547   0.140  0.0974  0.1525  0.4500
  593SOL    HW1 2678   4.495   3.570   0.190  0.4055 -0.3065  1.2034
  593SOL    HW2 2679   4.649   3.517   0.205  1.3299  1.8677 -0.0100
  594SOL     OW 2680   5.773   0.621   0.430  0.4094 -0.5299 -0.0865
  594SOL    HW1 2681   5.869   0.650   0.423 -0.0531  0.9512 -0.8892
  594SOL    HW2 2682   5.761   0.534   0.382  0.9428  0.4160 -2.0430
  595SOL     OW 2683   5.279   6.056   3.567 -0.0315 -0.3066 -0.0854
  595SOL    HW1 2684   5.225   5.976   3.539 -0.3125 -0.0608 -0.2390
  595SOL    HW2 2685   5.376   6.034   3.558 -0.0636 -1.1901  1.3777
  596SOL     OW 2686   4.643   0.946   4.220  0.3377 -0.5241 -0.1189
  596SOL    HW1 2687   4.581   0.938   4.142 -0.4643 -0.6168  0.5143
  596SOL    HW2 2688   4.675   1.041   4.227 -1.9108  0.2447  1.1288
  597SOL     OW 2689   3.648   0.691   4.942  0.1328 -0.3752  0.2199
  597SOL    HW1 2690   3.725   0.754   4.928 -1.5414  1.3587 -1.7480
  597SOL    HW2 2691   3.659   0.613   4.881 -0.7626  1.0181 -1.8204
  598SOL     OW 2692   3.154   2.815   5.233 -0.0395 -0.6716  0.0952
  598SOL    HW1 2693   3.078   2.854   5.286  0.0590  1.0753 -0.9779
  598SOL    HW2 2694   3.180   2.727   5.273  0.2113  0.6541  3.1580
  599SOL     OW 2695   5.580   6.095   5.320 -0.4583  0.1711 -0.4642
  599SOL    HW1 2696   5.495   6.053   5.351 -0.7685  1.9407  1.2663
  599SOL    HW2 2697   5.560   6.168   5.255 -0.4279  1.5377  1.0093
  600SOL     OW 2698   2.483   6.655   5.447  0.0539 -0.1314 -0.3077
  600SOL    HW1 2699   2.513   6.748   5.468  1.1574 -0.4898 -0.2424
  600SOL    HW2 2700   2.393   6.639   5.488 -0.6167  1.2339 -1.1731
  601SOL     OW 2701   6.543   3.337   3.514 -0.3112 -0.0808  0.1129
  601SOL    HW1 2702   6.485   3.419   3.508 -0.2613 -0.0716 -0.2663
  601SOL    HW2 2703   6.485   3.256   3.520 -0.4161  0.1137  3.1734
  602SOL     OW 2704   4.823   5.307   0.213  0.2081  0.3134 -0.3062
  602SOL    HW1 2705   4.901   5.324   0.274 -1.0246  0.7695  1.1938
  602SOL    HW2 2706   4.774   5.225   0.244 -1.2894  1.3878  0.2472
  603SOL     OW 2707   0.406   0.109   0.079 -0.8206  0.1943  0.1625
  603SOL    HW1 2708   0.340   0.164   0.131 -1.1123  0.5779 -0.5927
  603SOL    HW2 2709   0.472   0.069   0.141  0.1214  2.3647  0.6473
  604SOL     OW 2710   1.762   4.950   6.166  0.9842 -0.4023  0.2363
  604SOL    HW1 2711   1.662   4.939   6.165  0.5902  2.4647 -0.6776
  604SOL    HW2 2712   1.794   4.952   6.261 -0.2707  1.5334  0.6649
  605SOL     OW 2713   4.749   5.910   1.905  0.0808 -0.3584 -0.1190
  605SOL    HW1 2714   4.661   5.957   1.916 -0.1691 -1.1438  1.4907
  605SOL    HW2 2715   4.823   5.977   1.912 -0.3244  0.0230  0.7362
  606SOL     OW 2716   3.546   0.982   2.171 -0.4571 -0.3328 -0.8318
  606SOL    HW1 2717   3.469   0.921   2.185 -1.7158  1.1030 -1.1669
  606SOL    HW2 2718   3.516   1.077   2.183  1.3052  0.2610 -0.8009
  607SOL     OW 2719   3.811   4.956   0.673  0.2532  0.0561 -0.5336
  607SOL    HW1 2720   3.751   5.019   0.723  0.9777  1.8075 -1.7710
  607SOL    HW2 2721   3.755   4.900   0.611 -0.2809  0.3686 -0.3440
  608SOL     OW 2722   5.990   3.479   1.049 -0.4659 -0.3545 -0.4222
  608SOL    HW1 2723   5.933   3.416   0.997 -0.4590  0.4471 -1.4186
  608SOL    HW2 2724   5.934   3.554   1.085 -0.0185  0.6016 -1.6620
  609SOL     OW 2725   6.252   1.206   6.505 -0.6119 -0.2570 -0.1211
  609SOL    HW1 2726   6.314   1.140   6.547 -1.6638  0.2556  2.4572
  609SOL    HW2 2727   6.297   1.250   6.427  2.1634 -0.1330  1.4275
  610SOL     OW 2728   5.327   4.025   0.605 -0.1902 -0.1040  0.3635
  610SOL    HW1 2729   5.387   4.103   0.619 -1.8752  1.2102  0.5223
  610SOL    HW2 2730   5.358   3.973   0.525  0.9066  0.7467  0.2189
  611SOL     OW 2731   4.453   0.101   4.922  0.5187 -0.0485 -0.1639
  611SOL    HW1 2732   4.354   0.114   4.915  0.4644 -0.4944 -0.2068
  611SOL    HW2 2733   4.495   0.185   4.957  0.2086  0.3938 -0.8431
  612SOL     OW 2734   1.646   1.176   4.067  0.3046  0.0785 -0.5320
  612SOL    HW1 2735   1.596   1.125   3.997  0.3514  1.8219 -1.9363
  612SOL    HW2 2736   1.597   1.261   4.087  0.7492  0.0038  0.9526
  613SOL     OW 2737   4.729   6.072   5.315 -0.4741  0.2373 -0.7031
  613SOL    HW1 2738   4.761   6.154   5.267 -1.8840 -0.4814 -3.0136
  613SOL    HW2 2739   4.629   6.068   5.311 -0.4000 -2.9696 -3.2183
  614SOL     OW 2740   6.320   1.288   4.592 -0.1154  0.3076  0.7355
  614SOL    HW1 2741   6.354   1.209   4.541  2.2218  1.0059  1.0657
  614SOL    HW2 2742   6.283   1.257   4.680  1.5686 -0.4029  1.2387
  615SOL     OW 2743   0.045   1.251   1.009  0.3915  0.1193  0.2880
  615SOL    HW1 2744   0.011   1.231   0.918  2.6698 -1.0531 -0.3884
  615SOL    HW2 2745   0.005   1.186   1.074 -0.0152 -0.0887 -0.1622
  616SOL     OW 2746   1.330   1.910   5.729 -0.2069  0.3227 -0.1363
  616SOL    HW1 2747   1.411   1.963   5.751 -0.0480  0.5804 -1.2976
  616SOL    HW2 2748   1.259   1.970   5.692 -1.2960  0.2600  1.6854
  617SOL     OW 2749   1.467   3.773   3.947 -0.0143  0.1724  0.0755
  617SOL    HW1 2750   1.462   3.724   3.860 -1.0409 -0.3927  0.4463
  617SOL    HW2 2751   1.542   3.839   3.943  1.4451 -1.4363 -0.4186
  618SOL     OW 2752   2.779   2.803   1.428  0.1671 -0.3978  0.0766
  618SOL    HW1 2753   2.802   2.715   1.387  1.7022  0.4509 -0.9784
  618SOL    HW2 2754   2.817   2.808   1.521  0.7177 -0.5545 -0.1408
  619SOL     OW 2755   2.239   5.642   5.135  0.2457  1.3087 -0.3038
  619SOL    HW1 2756   2.334   5.652   5.163  0.6261 -0.4434 -0.8420
  619SOL    HW2 2757   2.225   5.550   5.098 -1.5248  1.7304 -0.7597
  620SOL     OW 2758   0.717   6.933   0.069  0.3035  0.0412 -0.2021
  620SOL    HW1 2759   0.759   6.999   0.006 -1.0836 -0.0019 -1.2081
  620SOL    HW2 2760   0.675   6.982   0.145 -0.8330  0.3622 -1.0119
  621SOL     OW 2761   1.869   4.336   3.250  0.3574  0.1413 -0.1347
  621SOL    HW1 2762   1.919   4.411   3.206  0.5332  0.4895  0.6287
  621SOL    HW2 2763   1.777   4.331   3.212  0.8505 -0.2955 -1.3184
  622SOL     OW 2764   2.387   4.534   0.505 -0.1209  0.9182 -0.6519
  622SOL    HW1 2765   2.443   4.496   0.578  0.0979  1.4938 -0.5137
  622SOL    HW2 2766   2.422   4.624   0.479  0.1326  0.4958 -1.8481
  623SOL     OW 2767   3.734   5.713   6.826 -0.3497 -0.9988  0.5172
  623SOL    HW1 2768   3.780   5.639   6.876  1.2857 -0.3960 -0.0352
  623SOL    HW2 2769   3.802   5.763   6.772 -1.8046 -0.5392 -0.9340
  624SOL     OW 2770   4.214   5.990   1.682  0.0699 -0.1719 -0.4625
  624SOL    HW1 2771   4.123   6.020   1.653  0.5339 -0.8445 -2.8941
  624SOL    HW2 2772   4.280   6.064   1.666  0.1324 -0.0845  0.1943
  625SOL     OW 2773   4.435   2.603   1.124 -0.2838 -0.2204 -1.1405
  625SOL    HW1 2774   4.376   2.538   1.077  0.3830 -1.1797 -0.6999
  625SOL    HW2 2775   4.511   2.554   1.166 -0.1476  0.7684 -0.1801
  626SOL     OW 2776   5.003   5.009   5.156 -0.0818 -0.4575 -0.0107
  626SOL    HW1 2777   5.074   5.002   5.226 -0.0028  0.0757 -0.0324
  626SOL    HW2 2778   4.984   4.918   5.118  1.0454 -0.5340 -0.4496
  627SOL     OW 2779   6.462   3.194   2.668 -0.6589  0.4433  1.0430
  627SOL    HW1 2780   6.392   3.263   2.689  0.1560  1.9011 -0.7626
  627SOL    HW2 2781   6.553   3.234   2.680 -0.1630 -0.4147  0.2541
  628SOL     OW 2782   0.021   6.217   4.992 -0.8355 -0.5662  0.7628
  628SOL    HW1 2783   0.105   6.196   4.943 -1.8015 -0.1425 -1.1546
  628SOL    HW2 2784   0.035   6.202   5.090  1.3476 -0.8143  0.4545
  629SOL     OW 2785   4.233   2.167   1.846  0.2914 -0.0842 -0.0668
  629SOL    HW1 2786   4.321   2.165   1.798  0.6509 -1.6805  0.5581
  629SOL    HW2 2787   4.161   2.196   1.783  1.1057  0.2299 -0.8833
  630SOL     OW 2788   3.832   0.137   3.760 -0.0187 -0.3847 -0.2810
  630SOL    HW1 2789   3.832   0.187   3.673  0.5548 -2.6476 -1.6749
  630SOL    HW2 2790   3.776   0.186   3.827  1.5377  2.7341 -1.0890
  631SOL     OW 2791   2.291   1.107   6.179  0.9714  0.1459  0.2338
  631SOL    HW1 2792   2.313   1.140   6.271 -0.1602 -0.7283  0.8429
  631SOL    HW2 2793   2.199   1.138   6.153  0.9396 -0.3323 -0.2502
  632SOL     OW 2794   2.458   0.173   3.626  0.3016  0.2425  0.2546
  632SOL    HW1 2795   2.379   0.121   3.593  0.4636  0.6721 -0.8272
  632SOL    HW2 2796   2.474   0.151   3.723 -0.8319 -0.2263  0.3497
  633SOL     OW 2797   2.462   3.563   0.846 -0.1178 -0.2583 -0.1551
  633SOL    HW1 2798   2.477   3.596   0.939 -1.5653 -0.9540  0.3703
  633SOL    HW2 2799   2.437   3.466   0.849 -0.0230 -0.3318 -1.2827
  634SOL     OW 2800   4.556   3.868   0.786 -0.4393  0.2530 -0.0208
  634SOL    HW1 2801   4.611   3.919   0.853  1.8704  1.8009 -2.8482
  634SOL    HW2 2802   4.584   3.772   0.787 -0.2882  0.2940  1.0402
  635SOL     OW 2803   1.038   3.155   6.985 -0.2226  0.9052  0.5633
  635SOL    HW1 2804   1.131   3.177   7.016  0.2037  0.8825 -0.6242
  635SOL    HW2 2805   0.972   3.180   7.056  0.5680  2.2855  0.8510
  636SOL     OW 2806   3.001   1.063   5.324 -0.6847  0.1308 -0.0532
  636SOL    HW1 2807   3.086   1.050   5.376  0.3010  0.3264 -1.5425
  636SOL    HW2 2808   3.016   1.036   5.228 -1.6787  2.1388 -0.8288
  637SOL     OW 2809   3.093   1.689   6.844 -0.2750 -0.1043 -0.1611
  637SOL    HW1 2810   3.190   1.681   6.869 -0.2479  0.1967 -0.1685
  637SOL    HW2 2811   3.065   1.784   6.850 -0.7219 -0.2647  0.4009
  638SOL     OW 2812   5.197   6.758   2.150 -0.1767 -0.2028  0.2887
  638SOL    HW1 2813   5.122   6.782   2.089  0.3041 -2.3762 -1.3117
  638SOL    HW2 2814   5.229   6.665   2.128  0.8210 -0.6169  3.1127
  639SOL     OW 2815   1.073   2.362   5.361  0.3888  0.5951  0.0158
  639SOL    HW1 2816   1.126   2.433   5.406 -0.0094  0.3602  0.8849
  639SOL    HW2 2817   0.994   2.338   5.419  0.2868 -0.2485 -0.4598
  640SOL     OW 2818   4.459   6.346   2.141 -0.0023 -0.0648 -0.2639
  640SOL    HW1 2819   4.383   6.282   2.155 -0.0543 -0.5503 -2.3476
  640SOL    HW2 2820   4.469   6.404   2.221 -1.2777 -1.3271  0.8693
  641SOL     OW 2821   1.838   4.101   2.368  0.1848 -0.5691  0.2085
  641SOL    HW1 2822   1.888   4.183   2.340 -1.3413  0.1618 -0.4984
  641SOL    HW2 2823   1.781   4.069   2.292  1.2445 -2.7062  0.2513
  642SOL     OW 2824   0.641   5.547   0.263  0.6943  0.5775  0.5106
  642SOL    HW1 2825   0.643   5.448   0.249  0.1154  0.9933 -4.1339
  642SOL    HW2 2826   0.549   5.575   0.289  0.5685 -0.0059  0.7034
  643SOL     OW 2827   2.860   2.020   5.675  0.0201 -0.6162  0.2395
  643SOL    HW1 2828   2.838   2.115   5.656  1.0355  0.1075  2.3496
  643SOL    HW2 2829   2.947   1.996   5.632 -1.6034 -1.5901 -2.8167
  644SOL     OW 2830   6.449   4.536   3.497 -0.7341  0.0878  0.4137
  644SOL    HW1 2831   6.445   4.442   3.531 -1.2677  0.3414  1.0725
  644SOL    HW2 2832   6.464   4.599   3.573  1.2113  0.4304 -0.1919
  645SOL     OW 2833   5.769   2.039   4.972  0.2595 -0.0722  0.2652
  645SOL    HW1 2834   5.799   1.972   5.039  0.5525 -1.8625 -1.5669
  645SOL    HW2 2835   5.711   1.995   4.904  1.8952  1.0776 -2.0301
  646SOL     OW 2836   4.896   5.115   2.218  0.4120  0.2267  0.0428
  646SOL    HW1 2837   4.929   5.128   2.124 -2.1698 -2.8828 -1.4759
  646SOL    HW2 2838   4.953   5.048   2.265  1.1249  1.0629  0.3957
  647SOL     OW 2839   1.220   5.113   6.350  0.3853 -0.1303 -0.0983
  647SOL    HW1 2840   1.239   5.200   6.396  2.1218 -0.8447  0.6314
  647SOL    HW2 2841   1.121   5.102   6.338  0.1247  1.8836 -0.1287
  648SOL     OW 2842   3.367   6.073   2.689  0.8505  0.2580 -0.5954
  648SOL    HW1 2843   3.454   6.092   2.734 -0.1903 -0.4585  1.9025
  648SOL    HW2 2844   3.312   6.156   2.684  0.5902  0.1638  0.4262
  649SOL     OW 2845   6.761   2.143   4.151  0.1405  0.2795  0.3897
  649SOL    HW1 2846   6.806   2.100   4.072 -0.6819  0.9964 -0.5027
  649SOL    HW2 2847   6.689   2.204   4.118 -0.4405  0.3387  1.7300
  650SOL     OW 2848   3.353   3.674   1.339 -0.7070 -0.0305 -0.1954
  650SOL    HW1 2849   3.403   3.732   1.403  1.8856  0.2060 -2.2801
  650SOL    HW2 2850   3.406   3.592   1.319 -2.0409 -0.7234 -1.0686
  651SOL     OW 2851   6.508   2.291   5.045 -0.3397  0.0475  0.4005
  651SOL    HW1 2852   6.435   2.344   5.088 -0.5269  0.3903 -0.3097
  651SOL    HW2 2853   6.597   2.331   5.068 -0.2445 -1.2255  2.4513
  652SOL     OW 2854   5.098   4.830   6.135  0.1468 -0.0580 -0.9914
  652SOL    HW1 2855   5.010   4.804   6.094  0.6849 -0.0232 -2.2253
  652SOL    HW2 2856   5.172   4.806   6.072  0.9919  0.3320 -0.1685
  653SOL     OW 2857   3.183   4.925   3.747  0.0858 -0.2603  0.4262
  653SOL    HW1 2858   3.267   4.979   3.745 -1.8600  3.0080  0.1987
  653SOL    HW2 2859   3.159   4.896   3.654  0.2583 -0.0215  0.3088
  654SOL     OW 2860   3.496   6.740   0.770  0.6852 -0.1137 -0.5213
  654SOL    HW1 2861   3.425   6.674   0.744  0.4589 -0.7482  1.5020
  654SOL    HW2 2862   3.559   6.753   0.694 -0.8052 -0.5765 -1.9043
  655SOL     OW 2863   3.573   6.251   1.035 -0.0884 -0.2111  0.6589
  655SOL    HW1 2864   3.646   6.240   0.968 -0.6663  0.7706 -0.1558
  655SOL    HW2 2865   3.484   6.247   0.989 -0.4754  2.0221  1.0744
  656SOL     OW 2866   2.149   6.800   3.502  0.7013  0.1620 -0.4676
  656SOL    HW1 2867   2.094   6.716   3.500 -1.5110  1.5295 -0.4054
  656SOL    HW2 2868   2.191   6.811   3.592  1.3851 -1.0759 -0.6155
  657SOL     OW 2869   1.537   6.404   3.017 -0.5657 -0.1955 -0.2595
  657SOL    HW1 2870   1.501   6.449   3.099 -0.8361  0.5728 -0.7984
  657SOL    HW2 2871   1.462   6.379   2.956 -0.3644 -0.7664 -0.2804
  658SOL     OW 2872   1.609   0.435   5.556  0.0752 -0.0371  0.2051
  658SOL    HW1 2873   1.689   0.376   5.552 -1.0363 -1.5351 -1.6482
  658SOL    HW2 2874   1.619   0.501   5.631  2.1453 -1.4056  1.2063
  659SOL     OW 2875   5.230   3.153   4.710  0.5875  0.1804 -0.1434
  659SOL    HW1 2876   5.275   3.236   4.742  0.9649  0.8651 -2.2707
  659SOL    HW2 2877   5.136   3.175   4.682 -0.3689 -0.7720  2.0849
  660SOL     OW 2878   4.346   6.339   0.513 -0.3145 -0.2717 -0.5400
  660SOL    HW1 2879   4.318   6.386   0.429 -1.6169 -0.0648 -0.0140
  660SOL    HW2 2880   4.279   6.356   0.585  0.1183 -1.4763  0.1842
  661SOL     OW 2881   6.101   5.268   5.103  0.7500 -0.1010  0.1712
  661SOL    HW1 2882   6.133   5.185   5.149 -0.4278 -0.2016  0.8527
  661SOL    HW2 2883   6.011   5.293   5.138  1.0629  1.4659 -0.0282
  662SOL     OW 2884   6.372   2.732   5.798 -0.0198  0.2470  0.5775
  662SOL    HW1 2885   6.296   2.747   5.861 -0.3428 -1.3487  0.6218
  662SOL    HW2 2886   6.458   2.757   5.843 -0.4250  1.0580  0.9097
  663SOL     OW 2887   3.089   6.123   0.140 -0.2290  0.5240 -0.0301
  663SOL    HW1 2888   3.074   6.220   0.119  1.8167  1.0244  0.6022
  663SOL    HW2 2889   3.114   6.074   0.056 -1.1489  0.5399 -0.3294
  664SOL     OW 2890   6.639   1.829   1.856  0.0049  0.0830  0.2071
  664SOL    HW1 2891   6.659   1.853   1.951 -0.9485  1.9457 -0.0227
  664SOL    HW2 2892   6.589   1.743   1.853 -1.8506  1.0428  1.5963
  665SOL     OW 2893   6.812   1.073   1.230 -0.2409 -0.3994 -0.1592
  665SOL    HW1 2894   6.803   1.044   1.135 -1.4835 -1.8915  0.3794
  665SOL    HW2 2895   6.742   1.142   1.251 -0.0272 -0.1396 -0.2950
  666SOL     OW 2896   1.575   1.030   3.289 -0.3295  0.4661  0.1864
  666SOL    HW1 2897   1.480   1.062   3.291 -1.4173 -2.4485  0.9177
  666SOL    HW2 2898   1.593   0.983   3.202 -0.7978 -2.0296  1.3256
  667SOL     OW 2899   4.876   6.843   0.037 -0.1174 -0.3721 -0.1993
  667SOL    HW1 2900   4.862   6.933   0.078  0.3322  0.8420 -2.5307
  667SOL    HW2 2901   4.790   6.792   0.037 -0.3473 -0.0144  1.2588
  668SOL     OW 2902   4.202   4.181   1.644 -0.1355  0.2709 -0.1431
  668SOL    HW1 2903   4.234   4.245   1.574 -0.2647 -0.2767 -0.7211
  668SOL    HW2 2904   4.242   4.204   1.732  0.8257  0.3729 -0.5992
  669SOL     OW 2905   2.874   5.711   4.734  0.5840  0.3874  0.2043
  669SOL    HW1 2906   2.831   5.759   4.810 -1.6611 -0.1734 -0.6225
  669SOL    HW2 2907   2.843   5.615   4.734 -1.6938  0.9861 -2.8917
  670SOL     OW 2908   5.964   3.211   0.492  0.1000 -0.5360  0.0860
  670SOL    HW1 2909   5.876   3.188   0.535  0.4125  1.3164  1.8263
  670SOL    HW2 2910   5.947   3.269   0.412 -0.3088 -1.4513 -0.5161
  671SOL     OW 2911   6.167   5.699   3.466 -0.3709 -0.6141 -0.7635
  671SOL    HW1 2912   6.167   5.709   3.367 -2.8107  0.1054 -0.7551
  671SOL    HW2 2913   6.129   5.781   3.508 -0.0073 -1.1811  0.7507
  672SOL     OW 2914   5.512   2.135   3.601 -0.0450 -0.0434 -0.0067
  672SOL    HW1 2915   5.553   2.146   3.510  1.4614  0.3794  0.6991
  672SOL    HW2 2916   5.462   2.048   3.603 -0.4504  0.1263 -1.3571
  673SOL     OW 2917   4.856   6.237   4.581  0.3941 -0.4135 -0.3479
  673SOL    HW1 2918   4.893   6.329   4.592  0.7814 -0.7031  0.9917
  673SOL    HW2 2919   4.758   6.243   4.562  0.6366  0.2918 -1.4709
  674SOL     OW 2920   1.053   0.749   3.677 -0.2513 -0.3484  0.5601
  674SOL    HW1 2921   1.069   0.834   3.726  1.2090 -0.3969  0.2229
  674SOL    HW2 2922   0.975   0.760   3.615  0.1076  0.8373  0.3028
  675SOL     OW 2923   3.334   3.836   2.569 -0.0116 -0.3678 -0.9419
  675SOL    HW1 2924   3.400   3.872   2.503 -1.3198  0.9831 -1.5775
  675SOL    HW2 2925   3.270   3.775   2.521  0.1847 -0.8932 -0.5345
  676SOL     OW 2926   3.216   6.852   1.439 -0.3267 -0.2846 -0.1405
  676SOL    HW1 2927   3.142   6.845   1.506 -1.2900  0.6556 -1.0777
  676SOL    HW2 2928   3.285   6.916   1.472 -1.8028  1.8089 -0.8978
  677SOL     OW 2929   2.499   0.120   1.337 -0.1681  0.6349  0.2719
  677SOL    HW1 2930   2.569   0.110   1.408 -1.3587  2.3624  1.7855
  677SOL    HW2 2931   2.409   0.100   1.377 -0.6978 -0.1352 -1.2518
  678SOL     OW 2932   5.376   6.047   0.641  0.4573 -0.2451 -0.4766
  678SOL    HW1 2933   5.371   5.954   0.606 -0.1350 -0.4821  0.2037
  678SOL    HW2 2934   5.370   6.112   0.566  0.6170 -0.7523 -0.9316
  679SOL     OW 2935   0.956   0.069   2.963 -0.1059  0.2458 -0.5356
  679SOL    HW1 2936   1.056   0.067   2.971 -0.1434 -0.6038 -0.2264
  679SOL    HW2 2937   0.928   0.157   2.925  0.7799  0.3696 -0.9277
  680SOL     OW 2938   3.758   0.639   6.194 -0.2753 -0.1726  0.0096
  680SOL    HW1 2939   3.693   0.676   6.260  1.2046  0.5490  1.1408
  680SOL    HW2 2940   3.815   0.713   6.159 -0.3237 -0.7201 -1.2905
  681SOL     OW 2941   6.333   0.141   6.254 -0.0630 -0.0072  0.0419
  681SOL    HW1 2942   6.374   0.125   6.164  0.7991  0.2234  0.3804
  681SOL    HW2 2943   6.307   0.053   6.295 -0.8363 -0.0846 -0.5961
  682SOL     OW 2944   0.273   1.421   3.013  0.2869  0.2293  0.1420
  682SOL    HW1 2945   0.282   1.322   2.996 -0.0325  0.1608  0.3638
  682SOL    HW2 2946   0.327   1.471   2.946 -0.3611 -0.0623 -0.6184
  683SOL     OW 2947   0.992   4.907   2.011  0.3694  0.2830  0.2305
  683SOL    HW1 2948   0.946   4.961   1.942  0.8628 -0.9200 -1.0942
  683SOL    HW2 2949   0.936   4.904   2.094 -1.0108  0.4291 -0.6606
  684SOL     OW 2950   5.751   4.661   3.162 -0.1110 -0.1911  0.0896
  684SOL    HW1 2951   5.726   4.608   3.243  0.9188  1.0154  1.2415
  684SOL    HW2 2952   5.668   4.686   3.112 -0.6828 -2.0010  0.0380
  685SOL     OW 2953   0.873   5.798   0.798 -0.5431  0.2879  0.0751
  685SOL    HW1 2954   0.963   5.754   0.804 -1.1269 -0.8462  1.0870
  685SOL    HW2 2955   0.874   5.866   0.726  1.7933  1.9059  1.4936
  686SOL     OW 2956   3.005   2.192   6.835  0.4118 -0.1085 -0.2226
  686SOL    HW1 2957   2.981   2.172   6.740  0.8545  0.3429 -0.4301
  686SOL    HW2 2958   3.034   2.287   6.843 -0.3532  0.0726  0.5078
  687SOL     OW 2959   0.804   5.120   0.913 -0.3907 -0.9963 -0.3622
  687SOL    HW1 2960   0.779   5.187   0.983 -0.1135 -1.2291 -0.0410
  687SOL    HW2 2961   0.870   5.160   0.850 -0.3937 -0.8956 -0.3005
  688SOL     OW 2962   2.960   6.096   1.751  0.8395 -0.5864  0.2245
  688SOL    HW1 2963   2.901   6.108   1.671  1.7369 -2.2729 -0.7488
  688SOL    HW2 2964   2.937   6.165   1.820  0.5093  1.3712 -1.7319
  689SOL     OW 2965   5.546   5.825   1.671 -0.0058 -0.3188 -0.4416
  689SOL    HW1 2966   5.533   5.900   1.736  2.6712 -0.9953  0.9966
  689SOL    HW2 2967   5.503   5.742   1.707 -1.6568  0.1218 -1.3175
  690SOL     OW 2968   6.797   2.350   5.800  0.5385  0.5496  0.0242
  690SOL    HW1 2969   6.739   2.331   5.721  1.8598 -1.6235 -0.5031
  690SOL    HW2 2970   6.741   2.354   5.883 -0.5508  0.1111 -0.6706
  691SOL     OW 2971   1.577   5.923   1.022 -0.2890  0.2401 -0.2284
  691SOL    HW1 2972   1.520   5.941   0.942  2.5078 -0.6570 -2.5829
  691SOL    HW2 2973   1.654   5.987   1.024 -1.3306  1.6419  3.0386
  692SOL     OW 2974   6.468   3.074   3.484  0.1847  0.1719  0.2948
  692SOL    HW1 2975   6.560   3.046   3.510  0.1340  0.5805  0.9135
  692SOL    HW2 2976   6.460   3.074   3.384  0.2468 -1.8163  0.2452
  693SOL     OW 2977   4.348   6.561   3.531 -0.3153 -0.2553 -0.1247
  693SOL    HW1 2978   4.424   6.521   3.583  0.0528 -0.5100 -0.8340
  693SOL    HW2 2979   4.348   6.522   3.439 -1.2185 -0.1377 -0.1821
  694SOL     OW 2980   6.135   3.745   0.465 -0.1894  0.1374  0.0223
  694SOL    HW1 2981   6.039   3.768   0.481 -0.6786 -0.1150 -2.1971
  694SOL    HW2 2982   6.193   3.821   0.493 -1.0370  0.3930  1.1516
  695SOL     OW 2983   4.594   3.000   6.565  0.0618 -0.0904  0.2081
  695SOL    HW1 2984   4.568   3.090   6.600 -0.1454  0.0494 -0.2937
  695SOL    HW2 2985   4.566   2.992   6.469  0.7775 -0.3900  0.0137
  696SOL     OW 2986   3.180   3.272   5.478  0.1992  0.0125 -0.4176
  696SOL    HW1 2987   3.251   3.258   5.409  0.1557  0.5476 -0.5730
  696SOL    HW2 2988   3.100   3.315   5.435  0.5279  1.2416  0.1508
  697SOL     OW 2989   4.097   3.346   6.384  0.0789 -0.0913  0.1436
  697SOL    HW1 2990   4.071   3.359   6.288 -0.8496 -0.3847  0.3499
  697SOL    HW2 2991   4.092   3.249   6.407  2.9834 -0.4324 -0.2530
  698SOL     OW 2992   6.028   3.454   5.220 -0.6048  0.0905  0.1316
  698SOL    HW1 2993   6.083   3.390   5.273  2.8538  2.1811 -0.6008
  698SOL    HW2 2994   5.972   3.509   5.281  1.6947  1.0129  1.5295
  699SOL     OW 2995   4.531   2.336   6.894 -0.1404  0.1481  0.0598
  699SOL    HW1 2996   4.508   2.416   6.839  1.9747 -0.5373 -1.9683
  699SOL    HW2 2997   4.468   2.261   6.874 -0.1649  0.3136 -0.4748
  700SOL     OW 2998   4.771   3.980   4.755 -0.2004  0.0091 -0.2912
  700SOL    HW1 2999   4.772   3.964   4.656 -0.0985 -0.3909 -0.2264
  700SOL    HW2 3000   4.725   4.067   4.774  0.6363  0.5622 -0.7568
  701SOL     OW 3001   0.016   4.230   6.899  0.2132 -0.4672 -0.1800
  701SOL    HW1 3002  -0.004   4.211   6.803 -0.1041  0.6574 -0.3465
  701SOL    HW2 3003   0.060   4.319   6.907  1.0721 -0.9550  0.6348
  702SOL     OW 3004   3.089   2.201   0.132  0.4276 -0.4726  0.3340
  702SOL    HW1 3005   3.076   2.299   0.123 -0.4343 -0.6104 -0.0080
  702SOL    HW2 3006   3.094   2.159   0.041  0.3133 -0.8032  0.4786
  703SOL     OW 3007   3.461   1.238   2.205  0.2883 -0.0365 -0.3719
  703SOL    HW1 3008   3.480   1.320   2.259  2.6651  0.1335 -1.3153
  703SOL    HW2 3009   3.363   1.222   2.201 -0.1400  1.8423  1.1599
  704SOL     OW 3010   3.144   2.552   0.374 -0.1918  0.5400  0.2543
  704SOL    HW1 3011   3.103   2.518   0.289  0.6546  1.5226 -0.5697
  704SOL    HW2 3012   3.238   2.517   0.381 -0.4251  0.0415  1.0636
  705SOL     OW 3013   7.005   0.444   4.664  0.2674  0.2671 -0.3633
  705SOL    HW1 3014   6.978   0.358   4.621  2.6739 -0.2778 -0.9472
  705SOL    HW2 3015   6.974   0.445   4.759 -0.5659 -0.8447 -0.6010
  706SOL     OW 3016   6.408   1.158   3.823 -0.7628 -0.0754  0.0743
  706SOL    HW1 3017   6.444   1.239   3.870 -1.6988  0.8410 -0.7460
  706SOL    HW2 3018   6.484   1.097   3.798 -0.0608  0.4909  0.7875
  707SOL     OW 3019   3.206   2.296   0.893  0.5440  0.4131  0.1544
  707SOL    HW1 3020   3.257   2.304   0.807  0.1366 -0.4697 -0.1766
  707SOL    HW2 3021   3.247   2.223   0.949  0.0436  0.1358  0.1629
  708SOL     OW 3022   3.058   1.258   4.240 -0.3373 -0.3811 -0.3198
  708SOL    HW1 3023   2.994   1.322   4.199 -2.8647 -2.2845  0.3738
  708SOL    HW2 3024   3.105   1.301   4.317 -3.7795  0.0754  1.7292
  709SOL     OW 3025   5.492   2.569   2.386 -0.7154 -0.4874 -0.3369
  709SOL    HW1 3026   5.471   2.485   2.337 -0.2621 -1.0583  0.4313
  709SOL    HW2 3027   5.407   2.621   2.400 -1.4939 -2.1702  1.6401
  710SOL     OW 3028   5.364   0.480   5.032 -0.2356  0.5523  0.4155
  710SOL    HW1 3029   5.400   0.472   4.939 -1.4569 -0.7686  0.0402
  710SOL    HW2 3030   5.427   0.536   5.087 -0.6179  3.3280 -1.7653
  711SOL     OW 3031   4.749   2.762   3.086 -0.4474  0.1570 -0.0376
  711SOL    HW1 3032   4.791   2.684   3.041  2.6168  0.8643  1.3225
  711SOL    HW2 3033   4.670   2.731   3.139 -0.1577 -1.7776 -0.6541
  712SOL     OW 3034   2.419   0.304   5.254  0.1471  0.0977  0.8353
  712SOL    HW1 3035   2.513   0.280   5.278  0.3594 -0.3347 -0.3707
  712SOL    HW2 3036   2.371   0.223   5.222 -0.0008  0.7044 -0.5353
  713SOL     OW 3037   1.137   1.866   2.853  0.1086 -0.1779  0.0271
  713SOL    HW1 3038   1.106   1.948   2.900 -0.6954  0.0027 -0.7805
  713SOL    HW2 3039   1.058   1.805   2.838 -0.2239  0.8726 -3.2698
  714SOL     OW 3040   4.497   0.737   1.105 -0.5897  0.5660 -0.4898
  714SOL    HW1 3041   4.474   0.830   1.076  0.7853  1.9113  2.2717
  714SOL    HW2 3042   4.590   0.715   1.075 -0.9132  0.0489 -1.1410
  715SOL     OW 3043   4.255   4.599   2.458 -0.0205  0.2530 -0.1722
  715SOL    HW1 3044   4.184   4.604   2.528 -0.2349 -1.0453 -0.2688
  715SOL    HW2 3045   4.220   4.639   2.373  0.4649  2.4231  0.5810
  716SOL     OW 3046   6.572   4.533   5.758 -0.4092  0.3194  0.8452
  716SOL    HW1 3047   6.633   4.585   5.699 -0.3943 -0.0163  0.5612
  716SOL    HW2 3048   6.532   4.594   5.827  1.0787  0.3240  1.7246
  717SOL     OW 3049   0.956   6.811   2.864 -0.3201  0.1611  0.1482
  717SOL    HW1 3050   1.030   6.877   2.850 -0.7121  0.7567  0.8056
  717SOL    HW2 3051   0.909   6.795   2.778 -0.1720  0.6910 -0.0368
  718SOL     OW 3052   4.393   2.954   5.420 -0.2124 -0.2337  0.2615
  718SOL    HW1 3053   4.309   3.007   5.404  0.0741  1.4389  3.4749
  718SOL    HW2 3054   4.382   2.862   5.384 -2.2308  0.8252 -2.1079
  719SOL     OW 3055   2.337   0.845   3.647 -0.8637  0.6114 -0.7067
  719SOL    HW1 3056   2.304   0.862   3.554  1.0299 -0.6546 -1.6701
  719SOL    HW2 3057   2.417   0.902   3.664  0.0574 -0.6715 -0.6439
  720SOL     OW 3058   6.458   5.771   3.392 -0.1921  0.1865  0.1421
  720SOL    HW1 3059   6.394   5.710   3.439  0.6538  0.1704  1.3346
  720SOL    HW2 3060   6.474   5.852   3.448 -0.8247  1.2330 -1.1411
  721SOL     OW 3061   1.877   0.834   3.035 -0.2755  0.3923 -0.2040
  721SOL    HW1 3062   1.866   0.798   3.127 -1.2058  1.4545  0.1246
  721SOL    HW2 3063   1.895   0.932   3.039 -2.0492  0.8093 -1.1658
  722SOL     OW 3064   1.929   5.345   5.213  0.5258  0.2040  0.4791
  722SOL    HW1 3065   1.860   5.389   5.270  0.1175  0.9882 -0.5854
  722SOL    HW2 3066   1.884   5.283   5.149  0.8296  0.4899 -0.0168
  723SOL     OW 3067   0.040   4.332   4.659  0.2709  0.4290 -0.5794
  723SOL    HW1 3068  -0.049   4.287   4.660 -0.1874  1.3291  1.2549
  723SOL    HW2 3069   0.079   4.326   4.566 -0.7036 -1.8453 -0.9071
  724SOL     OW 3070   5.476   1.111   3.204 -0.5190  0.8020 -0.1801
  724SOL    HW1 3071   5.470   1.200   3.158 -0.2992  1.0921  0.3475
  724SOL    HW2 3072   5.569   1.076   3.198 -1.0509 -0.4593 -2.3284
  725SOL     OW 3073   0.972   2.102   1.492 -0.3209 -0.2620  0.0711
  725SOL    HW1 3074   0.943   2.196   1.479  0.7906 -0.0429 -0.9884
  725SOL    HW2 3075   0.934   2.067   1.578  1.1120  1.9166  1.7229
  726SOL     OW 3076   2.282   4.221   1.469 -0.2809  0.0876  0.1753
  726SOL    HW1 3077   2.317   4.314   1.475  1.0785 -0.3424 -0.8262
  726SOL    HW2 3078   2.263   4.198   1.374 -1.5577 -0.3454  0.5045
  727SOL     OW 3079   5.748   6.708   2.852 -0.0563 -0.1441  0.1214
  727SOL    HW1 3080   5.739   6.807   2.858  0.1796 -0.0123 -1.3688
  727SOL    HW2 3081   5.663   6.664   2.882  0.3149  0.4224  2.1576
  728SOL     OW 3082   1.945   2.409   6.230 -0.4273 -0.5299  0.3539
  728SOL    HW1 3083   1.846   2.422   6.238 -0.3993 -0.9036  1.4744
  728SOL    HW2 3084   1.981   2.375   6.317  1.0144  1.7552  0.7573
  729SOL     OW 3085   5.937   2.340   2.951 -0.9460  0.8501  0.4404
  729SOL    HW1 3086   5.997   2.401   2.899  0.2400  0.8077  1.6958
  729SOL    HW2 3087   5.877   2.394   3.009 -2.2734  0.8972 -0.9078
  730SOL     OW 3088   1.437   2.355   1.309 -0.1126  0.2819 -0.1107
  730SOL    HW1 3089   1.386   2.335   1.225 -0.2928 -0.3774  0.1531
  730SOL    HW2 3090   1.381   2.333   1.389  0.6238 -0.6003  0.1814
  731SOL     OW 3091   5.296   3.412   0.031  0.5862  0.4444 -0.9371
  731SOL    HW1 3092   5.367   3.343   0.048  0.0710  0.2819  0.7714
  731SOL    HW2 3093   5.221   3.371  -0.020 -1.1582 -1.2905  2.6602
  732SOL     OW 3094   5.286   4.559   3.677  0.0071  0.5239  0.0953
  732SOL    HW1 3095   5.267   4.481   3.735 -1.5576  1.7378  1.3178
  732SOL    HW2 3096   5.293   4.529   3.581  0.8361 -1.2503  0.6751
  733SOL     OW 3097   1.814   4.861   1.260 -0.4317  0.1015  0.1353
  733SOL    HW1 3098   1.843   4.904   1.346  0.9741 -1.5487  0.5719
  733SOL    HW2 3099   1.887   4.799   1.229 -1.6138 -0.5893 -1.3649
  734SOL     OW 3100   0.853   1.379   4.437  0.4979  0.0746 -0.6710
  734SOL    HW1 3101   0.768   1.419   4.402 -0.5319  1.1885  2.6888
  734SOL    HW2 3102   0.930   1.436   4.409 -0.5333  2.3192  0.7406
  735SOL     OW 3103   0.975   3.240   1.970 -0.6279 -0.1376 -0.1291
  735SOL    HW1 3104   0.899   3.233   1.905 -0.8014 -0.7561  0.1374
  735SOL    HW2 3105   1.058   3.203   1.928 -1.1293 -2.2081  0.6095
  736SOL     OW 3106   0.982   6.052   3.590 -0.1947  0.1470  0.0878
  736SOL    HW1 3107   1.068   6.003   3.604  0.3037  0.4661 -1.5881
  736SOL    HW2 3108   0.936   6.066   3.678  1.0661 -0.7344  0.9144
  737SOL     OW 3109   4.866   4.583   1.072 -0.4241 -0.4776  0.3247
  737SOL    HW1 3110   4.910   4.509   1.022 -2.8034 -1.8620  0.1126
  737SOL    HW2 3111   4.830   4.651   1.008  1.0057  0.4761  0.4814
  738SOL     OW 3112   1.548   3.040   6.386 -0.1559  0.0123 -0.5735
  738SOL    HW1 3113   1.454   3.005   6.385 -0.2813  0.2924  0.4318
  738SOL    HW2 3114   1.549   3.130   6.429  0.7092 -0.4214  0.3560
  739SOL     OW 3115   3.595   3.142   6.333  0.0311  0.1748 -0.1845
  739SOL    HW1 3116   3.676   3.130   6.389  1.2528  2.7980 -1.2043
  739SOL    HW2 3117   3.522   3.184   6.387  0.7313  1.4072 -0.1467
  740SOL     OW 3118   2.758   4.925   2.605 -0.5340 -0.3554 -0.6889
  740SOL    HW1 3119   2.847   4.908   2.563 -0.9344  1.0024 -2.1971
  740SOL    HW2 3120   2.694   4.854   2.577 -0.3785 -0.3475 -1.0711
  741SOL     OW 3121   1.682   5.144   4.286  0.2682  0.0819  0.3377
  741SOL    HW1 3122   1.714   5.145   4.381  0.9152  0.3472  0.1242
  741SOL    HW2 3123   1.670   5.238   4.255 -0.2510 -0.0117  0.2566
  742SOL     OW 3124   6.912   4.878   0.089  0.5869  0.0693 -0.0500
  742SOL    HW1 3125   6.935   4.872  -0.008 -0.4845  0.6721 -0.3590
  742SOL    HW2 3126   6.967   4.813   0.140  0.1455 -1.2879 -1.2361
  743SOL     OW 3127   1.711   2.203   4.668 -0.4779 -1.1160  0.2473
  743SOL    HW1 3128   1.625   2.255   4.676  0.3876  0.2014  1.5445
  743SOL    HW2 3129   1.765   2.239   4.592 -0.6478 -1.3167  0.0287
  744SOL     OW 3130   4.901   0.062   5.554  0.8056  0.7127  0.5236
  744SOL    HW1 3131   4.856   0.075   5.642 -0.8929  0.4746 -0.2725
  744SOL    HW2 3132   4.917  -0.035   5.539 -0.1572  0.6284 -0.0087
  745SOL     OW 3133   3.578   2.493   6.952 -0.3143 -0.4975  0.2680
  745SOL    HW1 3134   3.601   2.591   6.945  1.0461 -0.7701  0.6645
  745SOL    HW2 3135   3.648   2.446   7.006 -0.3279 -1.9101 -0.8947
  746SOL     OW 3136   0.211   4.508   5.036 -0.4416  0.1394  0.5128
  746SOL    HW1 3137   0.114   4.514   5.015 -0.1059  1.4675 -0.8275
  746SOL    HW2 3138   0.230   4.558   5.121 -1.1313 -1.5022  1.6940
  747SOL     OW 3139   2.223   5.473   0.654 -0.1387  0.3443 -0.4726
  747SOL    HW1 3140   2.183   5.382   0.640  0.1936  0.3665 -1.6719
  747SOL    HW2 3141   2.291   5.468   0.726  0.0500 -0.4178 -0.6914
  748SOL     OW 3142   4.937   3.311   2.974  0.3749  0.0856 -0.3525
  748SOL    HW1 3143   4.953   3.333   3.070  0.8201 -0.9806 -0.1653
  748SOL    HW2 3144   4.883   3.226   2.967  0.6775 -0.0644 -1.0377
  749SOL     OW 3145   5.098   5.166   2.785 -0.6420 -0.3299  0.7588
  749SOL    HW1 3146   5.040   5.122   2.717  0.0843  2.1780 -1.7032
  749SOL    HW2 3147   5.192   5.169   2.751 -0.2707  1.1182  1.7964
  750SOL     OW 3148   3.493   0.767   6.849 -0.3414 -0.0656  0.1498
  750SOL    HW1 3149   3.434   0.782   6.928 -0.6715  0.9163 -0.2599
  750SOL    HW2 3150   3.568   0.706   6.874  1.0954  2.2822  2.0251
  751SOL     OW 3151   5.629   2.013   3.070  0.2374  0.2759 -0.4213
  751SOL    HW1 3152   5.564   1.937   3.072 -0.1014  0.5334 -1.0957
  751SOL    HW2 3153   5.578   2.099   3.064  0.6353  0.4524 -1.5936
  752SOL     OW 3154   2.878   5.739   0.279 -0.5072  0.1653  0.1912
  752SOL    HW1 3155   2.882   5.640   0.293  0.0245  0.0205 -0.8575
  752SOL    HW2 3156   2.916   5.761   0.189 -0.4326  1.3441  0.4996
  753SOL     OW 3157   3.530   1.246   1.906 -0.0909  0.5704 -0.1455
  753SOL    HW1 3158   3.546   1.219   2.001  1.7100  0.7445 -0.3666
  753SOL    HW2 3159   3.606   1.301   1.873 -1.3992  1.8233 -1.2388
  754SOL     OW 3160   4.815   3.952   2.012  0.0516  0.0129 -0.0831
  754SOL    HW1 3161   4.811   3.867   1.959 -1.0600  0.2400 -0.4010
  754SOL    HW2 3162   4.852   3.933   2.103  1.6645 -0.4452 -0.8034
  755SOL     OW 3163   5.417   1.340   6.089  0.6235 -0.6353 -0.0573
  755SOL    HW1 3164   5.394   1.244   6.075 -1.2035 -0.2329 -0.0931
  755SOL    HW2 3165   5.469   1.351   6.174  0.3187 -1.5853  0.2554
  756SOL     OW 3166   4.739   5.366   1.978 -0.4931  0.2986 -0.6946
  756SOL    HW1 3167   4.651   5.326   2.004 -0.6722  0.2021 -1.4287
  756SOL    HW2 3168   4.790   5.390   2.060 -1.7800  1.6483 -0.2583
  757SOL     OW 3169   2.328   4.171   3.020 -0.0986  0.0666 -0.0293
  757SOL    HW1 3170   2.385   4.229   3.078  0.0746 -0.0022 -0.1309
  757SOL    HW2 3171   2.270   4.114   3.077 -1.1059  1.1542  0.0745
  758SOL     OW 3172   0.825   5.841   3.000 -0.0915 -0.2171  0.3387
  758SOL    HW1 3173   0.843   5.935   2.968 -0.7115 -0.4392 -0.7131
  758SOL    HW2 3174   0.912   5.797   3.021  0.1725  0.7863  1.4369
  759SOL     OW 3175   3.416   6.124   4.638  0.7561  0.4328 -0.4088
  759SOL    HW1 3176   3.376   6.195   4.696 -0.2139 -0.7987  0.4883
  759SOL    HW2 3177   3.488   6.077   4.688 -0.5228 -1.0705  0.1105
  760SOL     OW 3178   5.504   0.258   4.530 -0.3084  0.4780  0.0370
  760SOL    HW1 3179   5.559   0.260   4.614  0.9862  0.8393 -0.7947
  760SOL    HW2 3180   5.409   0.281   4.552 -0.2135 -0.4444  1.5521
  761SOL     OW 3181   6.266   3.113   1.905 -0.4428 -0.1215 -0.1831
  761SOL    HW1 3182   6.305   3.201   1.931  0.3452 -0.7951  1.0318
  761SOL    HW2 3183   6.284   3.046   1.977  2.3928 -2.3183 -2.6792
  762SOL     OW 3184   1.572   1.823   5.251  0.1279  0.4505  0.5593
  762SOL    HW1 3185   1.484   1.803   5.208 -0.7840  0.0220  2.5320
  762SOL    HW2 3186   1.641   1.836   5.180 -1.7404  1.9728 -1.0944
  763SOL     OW 3187   6.826   3.716   3.858  0.2784 -0.0016  0.0602
  763SOL    HW1 3188   6.743   3.772   3.856 -1.2279 -2.1044  0.4110
  763SOL    HW2 3189   6.866   3.718   3.950 -1.1897 -1.4033  0.7730
  764SOL     OW 3190   5.534   5.772   3.804 -0.1684  0.1617  0.1787
  764SOL    HW1 3191   5.505   5.770   3.708 -0.6072 -2.5490  0.3008
  764SOL    HW2 3192   5.528   5.866   3.838 -0.7016  1.0765 -2.2122
  765SOL     OW 3193   0.259   4.740   2.446  0.5502  0.2187 -0.3206
  765SOL    HW1 3194   0.241   4.648   2.412  0.2024  0.6880 -1.4458
  765SOL    HW2 3195   0.225   4.807   2.380  1.2594  1.1521  0.2407
  766SOL     OW 3196   3.242   1.176   2.483 -0.0288 -0.1932 -0.3719
  766SOL    HW1 3197   3.306   1.224   2.543 -0.0279 -0.0418 -0.4934
  766SOL    HW2 3198   3.183   1.242   2.437 -0.7781 -0.3796  0.3087
  767SOL     OW 3199   5.702   1.478   2.926  0.4509  0.6101  0.0236
  767SOL    HW1 3200   5.653   1.540   2.864  0.5735  2.3013  1.5477
  767SOL    HW2 3201   5.777   1.527   2.970  1.4953 -1.0555  0.1830
  768SOL     OW 3202   2.136   3.788   2.239 -0.6007 -0.5995  0.2891
  768SOL    HW1 3203   2.182   3.700   2.243  0.2459 -0.1877 -0.0128
  768SOL    HW2 3204   2.120   3.823   2.331 -0.9791 -1.0863  0.4078
  769SOL     OW 3205   5.038   1.261   3.790 -0.1640  0.1164 -0.2497
  769SOL    HW1 3206   4.991   1.312   3.719 -0.2722 -1.3372 -1.2617
  769SOL    HW2 3207   4.973   1.236   3.862  0.0995  2.2598  0.8248
  770SOL     OW 3208   2.389   5.053   4.008 -0.0412 -0.3948  0.2711
  770SOL    HW1 3209   2.307   5.015   4.052  0.4866 -1.9052 -0.0203
  770SOL    HW2 3210   2.430   5.121   4.069 -1.7473  0.7453  0.2325
  771SOL     OW 3211   5.100   5.181   5.869 -0.2892  0.3719 -0.1958
  771SOL    HW1 3212   5.137   5.218   5.784  1.3174 -1.4731 -0.3861
  771SOL    HW2 3213   5.017   5.129   5.849  0.6226 -0.8953 -0.8520
  772SOL     OW 3214   4.566   5.989   6.308 -0.6205  0.2658  0.3267
  772SOL    HW1 3215   4.516   5.903   6.312  1.2016 -0.8261  0.6587
  772SOL    HW2 3216   4.646   5.978   6.249 -0.7093  1.9493 -0.1621
  773SOL     OW 3217   6.077   2.029   4.415 -0.5993  0.3817 -0.3612
  773SOL    HW1 3218   5.998   1.987   4.459 -0.3268  0.0581 -0.1750
  773SOL    HW2 3219   6.161   1.995   4.458 -0.3650  0.8704 -0.4231
  774SOL     OW 3220   5.245   3.963   1.771 -0.0660 -0.0824 -0.3626
  774SOL    HW1 3221   5.209   4.000   1.856  0.8591 -0.0478  0.0276
  774SOL    HW2 3222   5.297   4.034   1.723 -2.5421  0.6415 -2.1678
  775SOL     OW 3223   6.197   0.688   4.311 -0.1852  0.2350  0.8633
  775SOL    HW1 3224   6.164   0.661   4.221 -0.3183  0.1734  0.9299
  775SOL    HW2 3225   6.213   0.606   4.366 -1.1557  0.2973  1.2673
  776SOL     OW 3226   4.489   5.224   5.030  0.2594  0.3271 -0.5402
  776SOL    HW1 3227   4.528   5.140   5.067  2.6818  1.1272 -1.1052
  776SOL    HW2 3228   4.397   5.205   4.994 -0.4693 -1.3664  1.9733
  777SOL     OW 3229   6.816   1.945   1.684  0.4573  0.7438 -0.0120
  777SOL    HW1 3230   6.832   2.020   1.748  0.2830  0.6865  0.1004
  777SOL    HW2 3231   6.739   1.890   1.716  1.3440 -0.2115  0.5613
  778SOL     OW 3232   5.790   6.742   0.173 -0.6852  0.7368  0.1865
  778SOL    HW1 3233   5.783   6.684   0.254 -0.8718  0.5726  0.0509
  778SOL    HW2 3234   5.706   6.795   0.162 -0.4442  1.1774  0.4185
  779SOL     OW 3235   2.394   0.531   2.624 -0.1204  0.4551  0.1034
  779SOL    HW1 3236   2.358   0.595   2.556  0.1538  0.4389 -0.0567
  779SOL    HW2 3237   2.490   0.511   2.604 -0.4090 -0.5987 -0.2942
  780SOL     OW 3238   3.690   6.285   0.792 -0.6620 -0.3003  0.0637
  780SOL    HW1 3239   3.671   6.365   0.736  0.6008  0.2439  0.3872
  780SOL    HW2 3240   3.719   6.209   0.734 -0.7309 -0.1725 -0.1378
  781SOL     OW 3241   5.850   1.819   3.909  0.1109 -0.1110 -0.2291
  781SOL    HW1 3242   5.887   1.728   3.929  1.4583  0.8262  1.8623
  781SOL    HW2 3243   5.765   1.832   3.960 -0.1978 -0.2764 -0.7015
  782SOL     OW 3244   3.075   6.033   6.654 -0.3647  0.3655  0.0847
  782SOL    HW1 3245   2.979   6.062   6.648 -0.1551  0.8561 -0.9783
  782SOL    HW2 3246   3.092   5.960   6.589  0.2701  1.1149 -0.6149
  783SOL     OW 3247   3.486   5.657   3.730 -0.0707 -0.5915 -0.5050
  783SOL    HW1 3248   3.521   5.564   3.721 -0.1167 -0.6933  0.2669
  783SOL    HW2 3249   3.535   5.703   3.804 -1.3841 -0.6449  0.4235
  784SOL     OW 3250   5.195   5.343   1.022  0.6118  0.3126  0.2100
  784SOL    HW1 3251   5.257   5.308   0.951  1.0386  0.9907  0.2440
  784SOL    HW2 3252   5.247   5.390   1.092  0.0768  0.7115  0.3472
  785SOL     OW 3253   1.808   1.378   1.090  0.2070  0.3642  0.2706
  785SOL    HW1 3254   1.769   1.460   1.132 -0.8891  0.3331 -0.6350
  785SOL    HW2 3255   1.797   1.300   1.153 -1.5896  0.2776 -0.0892
  786SOL     OW 3256   3.744   1.774   5.716  0.3397 -0.2520  0.8090
  786SOL    HW1 3257   3.713   1.737   5.803  0.7592  1.0475  1.5473
  786SOL    HW2 3258   3.696   1.861   5.698 -0.4527 -0.9644 -0.7409
  787SOL     OW 3259   2.049   6.182   4.416  0.3653  0.4576  0.0327
  787SOL    HW1 3260   1.980   6.249   4.441 -0.1754 -0.1229  0.1075
  787SOL    HW2 3261   2.099   6.152   4.497 -0.2822 -0.2005  0.2029
  788SOL     OW 3262   1.152   1.767   2.349  0.2302 -0.2410 -0.2116
  788SOL    HW1 3263   1.073   1.790   2.292  0.2682  0.2481 -0.0764
  788SOL    HW2 3264   1.123   1.710   2.425  0.0426 -0.2529 -0.2922
  789SOL     OW 3265   6.021   5.590   2.324 -0.1256 -0.2466 -0.1020
  789SOL    HW1 3266   6.108   5.557   2.287 -0.5272  0.5911 -1.8670
  789SOL    HW2 3267   6.028   5.688   2.342 -0.9275 -0.0133 -0.9984
  790SOL     OW 3268   5.318   2.887   6.602  0.2713 -0.1136 -0.4198
  790SOL    HW1 3269   5.282   2.862   6.692 -3.2300 -0.2125 -1.6602
  790SOL    HW2 3270   5.348   2.982   6.604 -0.6591  0.1914  0.6595
  791SOL     OW 3271   0.995   2.334   4.941 -0.0854 -0.9772 -0.2927
  791SOL    HW1 3272   1.030   2.324   4.847 -0.5895  1.3044 -0.7701
  791SOL    HW2 3273   0.914   2.277   4.952 -1.2031  0.2012 -1.9277
  792SOL     OW 3274   2.513   5.533   0.190  0.0413  0.0953  0.3588
  792SOL    HW1 3275   2.441   5.466   0.178 -1.3588  1.7407 -0.9856
  792SOL    HW2 3276   2.513   5.566   0.285 -1.8789  0.9736  0.1040
  793SOL     OW 3277   5.900   5.322   0.360 -0.1971 -0.0808  0.0940
  793SOL    HW1 3278   5.909   5.319   0.459 -1.7438 -0.7380  0.2406
  793SOL    HW2 3279   5.850   5.404   0.333  0.5799  0.3100 -0.1861
  794SOL     OW 3280   4.969   1.346   0.753 -0.8557 -0.1770 -0.0879
  794SOL    HW1 3281   4.877   1.318   0.724 -2.3249  1.6606  2.3339
  794SOL    HW2 3282   5.019   1.267   0.789 -1.1007 -1.3665 -2.1950
  795SOL     OW 3283   1.046   3.590   6.770  0.2989 -0.2856  0.0347
  795SOL    HW1 3284   1.034   3.664   6.836  3.2934  1.5373 -1.2213
  795SOL    HW2 3285   1.027   3.624   6.678  0.2761 -1.5399 -0.4434
  796SOL     OW 3286   4.294   0.999   1.949  1.0677 -0.1648  0.4645
  796SOL    HW1 3287   4.217   0.949   1.908  0.7772  0.2922  0.4402
  796SOL    HW2 3288   4.281   1.005   2.048  1.9459 -1.5701  0.6867
  797SOL     OW 3289   1.847   3.496   2.552  0.7297  0.1313 -0.1223
  797SOL    HW1 3290   1.857   3.438   2.633 -0.7595  1.7269  1.2914
  797SOL    HW2 3291   1.753   3.492   2.520  1.4361 -1.0130 -2.2923
  798SOL     OW 3292   6.132   1.106   1.308  0.3465  0.3390 -0.2060
  798SOL    HW1 3293   6.160   1.057   1.225  1.4801  1.6583 -0.6305
  798SOL    HW2 3294   6.212   1.140   1.356 -0.2007 -1.5395  2.2214
  799SOL     OW 3295   5.490   4.904   6.395  0.1674  0.2655 -0.7092
  799SOL    HW1 3296   5.509   4.983   6.452 -2.2964 -0.0169  0.6530
  799SOL    HW2 3297   5.422   4.928   6.326 -0.3504 -0.5467 -0.5010
  800SOL     OW 3298   5.841   2.526   0.965 -0.1110  0.0528  0.1495
  800SOL    HW1 3299   5.900   2.447   0.981  3.0537  1.9506 -1.1115
  800SOL    HW2 3300   5.772   2.504   0.897  0.3858 -1.7297  0.1845
  801SOL     OW 3301   0.544   5.809   3.366 -0.1069  0.2467 -0.1664
  801SOL    HW1 3302   0.537   5.873   3.443  2.5749 -0.9865  1.2370
  801SOL    HW2 3303   0.580   5.858   3.286  0.4595  0.8464  0.4332
  802SOL     OW 3304   3.143   3.415   0.129  0.5662  0.2345  0.5845
  802SOL    HW1 3305   3.199   3.336   0.102 -1.2546 -1.2460  0.9357
  802SOL    HW2 3306   3.081   3.439   0.055 -0.4863 -0.1807  1.3035
  803SOL     OW 3307   6.882   3.278   3.844  0.2811  0.4767 -0.0086
  803SOL    HW1 3308   6.870   3.318   3.754 -0.8225 -0.0782 -0.1277
  803SOL    HW2 3309   6.815   3.318   3.908  0.4278  0.1979  0.3258
  804SOL     OW 3310   0.965   3.195   4.541  0.7805  0.8865  0.3473
  804SOL    HW1 3311   1.049   3.142   4.549  0.9130  1.0272 -0.1116
  804SOL    HW2 3312   0.940   3.205   4.445  0.5352  1.3128  0.4517
  805SOL     OW 3313   5.072   1.752   6.631  0.2297 -0.1845 -0.5803
  805SOL    HW1 3314   5.087   1.661   6.592 -2.1876 -1.4457  1.1540
  805SOL    HW2 3315   5.016   1.806   6.568 -1.7175 -1.3978 -0.0071
  806SOL     OW 3316   4.738   4.973   1.503 -0.3325  0.1149 -0.3964
  806SOL    HW1 3317   4.830   4.969   1.542  0.0251  0.1862 -1.2210
  806SOL    HW2 3318   4.739   5.030   1.421 -0.9489 -0.5195 -0.8557
  807SOL     OW 3319   3.598   5.340   1.022 -0.3276 -0.1850  0.3639
  807SOL    HW1 3320   3.673   5.402   1.002  1.5922 -1.9728  1.6240
  807SOL    HW2 3321   3.549   5.372   1.103 -0.6390  0.7163 -0.1649
  808SOL     OW 3322   0.169   4.441   4.408 -0.1882  0.0788 -0.4218
  808SOL    HW1 3323   0.178   4.387   4.324  0.4992  0.2053 -0.4318
  808SOL    HW2 3324   0.248   4.426   4.466 -0.5841  0.1212  0.1363
  809SOL     OW 3325   3.673   5.711   1.221  0.4449  0.8021  0.4978
  809SOL    HW1 3326   3.575   5.708   1.241 -0.3543  0.1528 -2.8943
  809SOL    HW2 3327   3.703   5.807   1.214 -0.9870  1.1193 -2.4131
  810SOL     OW 3328   5.831   3.941   5.564 -0.0027  0.3029  0.2071
  810SOL    HW1 3329   5.784   3.928   5.476  0.6584  0.4246 -0.1749
  810SOL    HW2 3330   5.780   3.894   5.636 -0.7896  0.5673 -0.1634
  811SOL     OW 3331   2.545   4.053   1.375 -0.3015  0.1827 -0.2992
  811SOL    HW1 3332   2.512   4.128   1.318 -1.7232 -0.4877 -0.4194
  811SOL    HW2 3333   2.642   4.065   1.394 -0.7601  2.7019  0.7566
  812SOL     OW 3334   0.001   3.194   5.649 -0.1828 -0.3463  0.0629
  812SOL    HW1 3335  -0.056   3.153   5.577  0.1206 -1.8633  0.6391
  812SOL    HW2 3336  -0.015   3.293   5.652  1.2390  0.1141 -3.3666
  813SOL     OW 3337   6.044   5.492   1.848 -0.4553  0.2193  0.3941
  813SOL    HW1 3338   5.991   5.508   1.765  0.3945  2.5953  0.2143
  813SOL    HW2 3339   6.060   5.394   1.860 -1.1882 -0.2223 -1.8606
  814SOL     OW 3340   1.964   0.484   1.962 -0.3100 -0.4477  0.2091
  814SOL    HW1 3341   1.919   0.520   1.881  0.3661 -1.3448 -0.5793
  814SOL    HW2 3342   1.982   0.559   2.027 -1.0950  0.2263 -0.3389
  815SOL     OW 3343   3.010   6.731   2.410 -0.8921 -0.0634 -0.1907
  815SOL    HW1 3344   2.956   6.730   2.494  0.4305  0.3128  0.6909
  815SOL    HW2 3345   3.022   6.825   2.378  0.6732  0.0282  0.5966
  816SOL     OW 3346   4.421   6.193   2.867  0.2731 -0.1967 -0.1452
  816SOL    HW1 3347   4.365   6.206   2.949 -0.4041  0.9803 -0.7487
  816SOL    HW2 3348   4.517   6.212   2.888 -0.0847  1.5573  0.0879
  817SOL     OW 3349   5.995   3.815   1.294  0.4486 -0.2356 -0.2330
  817SOL    HW1 3350   6.038   3.729   1.321  0.1607 -0.4506 -0.4522
  817SOL    HW2 3351   6.009   3.883   1.366 -0.9374 -1.0013  0.8053
  818SOL     OW 3352   3.992   3.550   5.273 -0.4985 -0.2184  0.2731
  818SOL    HW1 3353   3.912   3.604   5.296  1.1425  2.5029  0.0493
  818SOL    HW2 3354   4.036   3.588   5.192  1.9778 -0.4714  1.4007
  819SOL     OW 3355   2.383   3.283   0.767  0.5815  0.2475  0.0077
  819SOL    HW1 3356   2.298   3.240   0.739 -1.1815  2.7689  1.0362
  819SOL    HW2 3357   2.424   3.231   0.843  0.9554 -1.9246 -1.5899
  820SOL     OW 3358   2.226   0.911   5.833  0.6135  0.4304  0.0190
  820SOL    HW1 3359   2.239   0.864   5.920 -0.2888 -0.6862 -0.4255
  820SOL    HW2 3360   2.295   0.881   5.768 -0.4970 -1.0130 -0.5393
  821SOL     OW 3361   4.279   2.698   5.378  0.0714  0.2493 -0.0698
  821SOL    HW1 3362   4.233   2.636   5.315 -0.3421  0.9868 -0.5021
  821SOL    HW2 3363   4.362   2.654   5.414 -0.7309 -0.9296  0.3993
  822SOL     OW 3364   6.365   3.534   3.187  0.3821  0.6440  0.2370
  822SOL    HW1 3365   6.291   3.582   3.142  0.1574 -0.7409 -0.9330
  822SOL    HW2 3366   6.423   3.489   3.119  0.1155 -1.4020  1.2848
  823SOL     OW 3367   0.833   3.975   6.766 -0.1901  0.5694  0.2360
  823SOL    HW1 3368   0.896   3.995   6.691  0.0959 -2.4014 -0.4583
  823SOL    HW2 3369   0.875   3.906   6.826 -2.0086 -0.0547  0.8471
  824SOL     OW 3370   3.407   1.534   6.209 -0.7121  0.1224  0.3595
  824SOL    HW1 3371   3.343   1.595   6.163 -0.1382  1.6720  1.5276
  824SOL    HW2 3372   3.424   1.567   6.302 -0.7771 -2.1216  1.2447
  825SOL     OW 3373   6.339   1.653   6.032  0.7675 -0.0955 -0.2421
  825SOL    HW1 3374   6.425   1.659   5.982  1.1429 -1.2571  0.2245
  825SOL    HW2 3375   6.296   1.744   6.036  1.3285  0.2500 -1.5687
  826SOL     OW 3376   0.166   4.495   2.402 -0.0415 -0.0898 -0.4201
  826SOL    HW1 3377   0.082   4.494   2.456 -0.0111  0.4208 -0.3586
  826SOL    HW2 3378   0.155   4.438   2.321 -0.5538  0.2329 -0.5772
  827SOL     OW 3379   4.776   6.134   5.778  0.1658  0.1100  0.1720
  827SOL    HW1 3380   4.827   6.214   5.746 -0.3267  0.6379  0.6726
  827SOL    HW2 3381   4.696   6.165   5.829  1.2780 -0.6531  2.5194
  828SOL     OW 3382   1.436   3.751   3.496 -0.3263  0.3339 -0.5129
  828SOL    HW1 3383   1.357   3.696   3.470  0.3797 -1.1055  0.2610
  828SOL    HW2 3384   1.481   3.710   3.575  1.0495  1.2690 -0.7671
  829SOL     OW 3385   1.563   5.665   4.395 -0.9841  0.4514 -0.4653
  829SOL    HW1 3386   1.585   5.675   4.493 -0.1030  0.2765 -0.6327
  829SOL    HW2 3387   1.484   5.605   4.384 -1.6094  1.1329  0.1793
  830SOL     OW 3388   3.082   3.086   4.133 -0.6926 -0.1290 -0.4934
  830SOL    HW1 3389   3.045   3.106   4.224 -1.4841 -0.7064 -0.6720
  830SOL    HW2 3390   3.061   3.163   4.072 -0.4426  0.1200 -0.2666
  831SOL     OW 3391   4.623   1.321   0.717 -0.8073  0.1359 -0.0476
  831SOL    HW1 3392   4.557   1.260   0.673 -0.7792  0.4667 -0.5523
  831SOL    HW2 3393   4.629   1.407   0.666 -0.1120  0.1771  0.0881
  832SOL     OW 3394   6.909   2.817   4.091  0.0637  0.7606 -0.3002
  832SOL    HW1 3395   6.878   2.864   4.173  1.5615 -0.7090  1.1890
  832SOL    HW2 3396   7.007   2.796   4.099 -0.2451 -1.4709 -1.4022
  833SOL     OW 3397   0.672   5.416   4.033  0.2060  0.4953 -0.8353
  833SOL    HW1 3398   0.739   5.437   4.105  0.5565 -0.7872 -0.7630
  833SOL    HW2 3399   0.624   5.499   4.007 -1.1603  0.7395  2.0866
  834SOL     OW 3400   5.149   5.221   0.503 -0.0445 -0.0198 -0.2395
  834SOL    HW1 3401   5.218   5.260   0.564  1.0136 -0.7179 -0.9550
  834SOL    HW2 3402   5.123   5.288   0.434 -1.0876  0.6987  0.8140
  835SOL     OW 3403   4.037   6.542   4.252  0.1020 -0.1649 -0.3648
  835SOL    HW1 3404   4.121   6.530   4.305  0.3916 -0.0089 -0.7782
  835SOL    HW2 3405   4.040   6.630   4.204  0.8982 -1.2375 -2.4511
  836SOL     OW 3406   0.809   2.708   2.094  0.2609 -0.2593 -0.2403
  836SOL    HW1 3407   0.788   2.610   2.095 -1.3129  0.0574 -0.1451
  836SOL    HW2 3408   0.725   2.760   2.087  1.1694  1.0505 -2.7985
  837SOL     OW 3409   5.684   4.539   4.006  0.3982 -0.4291 -0.5344
  837SOL    HW1 3410   5.629   4.510   3.928 -0.0805 -0.3235 -0.2405
  837SOL    HW2 3411   5.778   4.556   3.976  0.6360 -2.0095 -0.7546
  838SOL     OW 3412   1.752   3.472   2.225  0.1720 -0.0387  0.0807
  838SOL    HW1 3413   1.740   3.391   2.283  1.2561 -1.0275 -1.0224
  838SOL    HW2 3414   1.664   3.519   2.216 -0.5389 -1.2250  0.5541
  839SOL     OW 3415   4.789   1.865   1.196 -0.8607 -0.0543  0.0021
  839SOL    HW1 3416   4.866   1.913   1.239 -1.5438  0.9154  0.1849
  839SOL    HW2 3417   4.735   1.819   1.266 -0.0973 -1.2879 -0.1934
  840SOL     OW 3418   2.917   3.495   3.452 -0.2417  0.3459  0.6282
  840SOL    HW1 3419   2.871   3.497   3.541  0.2206  1.2162  0.8609
  840SOL    HW2 3420   2.894   3.577   3.401 -0.0638  0.1113  0.1682
  841SOL     OW 3421   0.184   4.279   2.937  0.2633  0.2851  0.8259
  841SOL    HW1 3422   0.237   4.255   3.018 -0.4097 -1.4254  0.7993
  841SOL    HW2 3423   0.232   4.249   2.855  0.5961  1.3622  0.6022
  842SOL     OW 3424   3.677   1.765   3.274  0.0604  0.0349  0.2581
  842SOL    HW1 3425   3.634   1.825   3.342 -1.6527 -1.1527  0.2808
  842SOL    HW2 3426   3.757   1.722   3.315  0.4868  1.1854  0.6961
  843SOL     OW 3427   6.634   3.363   6.469 -0.2557 -0.6181 -0.1033
  843SOL    HW1 3428   6.648   3.461   6.484 -2.5593 -0.5066  2.0329
  843SOL    HW2 3429   6.686   3.311   6.538 -0.4544 -0.7851 -0.0761
  844SOL     OW 3430   2.949   6.241   2.650  0.6404  0.1284 -0.4169
  844SOL    HW1 3431   2.991   6.150   2.650 -0.5011 -0.4311  0.8993
  844SOL    HW2 3432   2.851   6.232   2.634  0.3743  1.0630  0.5905
  845SOL     OW 3433   2.837   3.607   6.719 -0.1651  0.5264 -0.5115
  845SOL    HW1 3434   2.936   3.614   6.711 -0.1891  1.5611  0.0367
  845SOL    HW2 3435   2.804   3.666   6.792 -1.1588 -0.0648 -0.4547
  846SOL     OW 3436   5.807   2.932   2.536 -0.4036 -0.7714 -0.2136
  846SOL    HW1 3437   5.869   2.905   2.462 -1.4615 -0.1341 -1.3857
  846SOL    HW2 3438   5.762   2.851   2.573 -0.0432 -1.0785 -0.4394
  847SOL     OW 3439   0.339   3.729   5.354 -0.3903  0.3536 -0.0776
  847SOL    HW1 3440   0.429   3.721   5.311 -0.1951  3.5644 -0.4670
  847SOL    HW2 3441   0.268   3.717   5.285 -0.1687  1.1468 -0.4519
  848SOL     OW 3442   5.162   4.000   5.856  0.4448 -0.0865 -0.2667
  848SOL    HW1 3443   5.078   3.950   5.877  0.3441  0.4923  0.8013
  848SOL    HW2 3444   5.180   4.066   5.929  0.0510  2.1443 -2.0934
  849SOL     OW 3445   2.112   2.308   4.287 -0.4831  0.0377  0.0245
  849SOL    HW1 3446   2.161   2.360   4.217 -0.4330 -0.1006 -0.0428
  849SOL    HW2 3447   2.080   2.371   4.358 -0.6102  0.1899 -0.1660
  850SOL     OW 3448   1.217   2.565   5.464  0.3588  0.2251 -0.3621
  850SOL    HW1 3449   1.143   2.620   5.501  1.7534  0.4908  2.3172
  850SOL    HW2 3450   1.282   2.624   5.415  0.8842  0.7114  0.8802
  851SOL     OW 3451   2.922   1.578   1.221 -0.9054 -0.0129 -0.7243
  851SOL    HW1 3452   2.965   1.591   1.310 -0.7554  1.8816 -1.0364
  851SOL    HW2 3453   2.991   1.551   1.153 -0.8292 -0.3399 -0.5207
  852SOL     OW 3454   4.807   1.050   1.439  0.0149  0.2661 -0.3755
  852SOL    HW1 3455   4.851   1.093   1.518  1.3911  2.3762 -2.1454
  852SOL    HW2 3456   4.875   1.000   1.385 -0.6829 -0.2677 -0.7817
  853SOL     OW 3457   6.243   5.662   0.779 -0.1635  0.0182  0.5607
  853SOL    HW1 3458   6.260   5.575   0.826 -0.4815 -0.1324  0.3988
  853SOL    HW2 3459   6.183   5.719   0.834 -0.1833  0.0183  0.5392
  854SOL     OW 3460   3.034   2.163   1.900 -0.2246  0.3122  0.7410
  854SOL    HW1 3461   3.113   2.211   1.863 -1.5750  1.9592 -0.2106
  854SOL    HW2 3462   2.966   2.230   1.931 -0.2760 -1.0265  3.8333
  855SOL     OW 3463   4.578   4.575   6.245  0.6346 -0.4137 -0.7384
  855SOL    HW1 3464   4.603   4.485   6.210 -0.8123 -1.1581  0.0425
  855SOL    HW2 3465   4.521   4.565   6.326  2.5248  1.2387  0.9148
  856SOL     OW 3466   1.861   0.085   5.383  0.3089 -0.2277 -0.3564
  856SOL    HW1 3467   1.946   0.088   5.330 -1.0847 -1.3771 -2.8055
  856SOL    HW2 3468   1.844  -0.008   5.414  0.8820  0.3507  1.8899
  857SOL     OW 3469   5.516   2.946   0.098  0.7630 -0.7435  0.2183
  857SOL    HW1 3470   5.613   2.923   0.089  1.6555  2.3866  0.4013
  857SOL    HW2 3471   5.476   2.895   0.175  2.0404 -2.5929 -0.2905
  858SOL     OW 3472   0.222   5.995   6.124  0.2063  0.7264 -0.0175
  858SOL    HW1 3473   0.188   5.963   6.035  3.1317 -0.3825 -0.8720
  858SOL    HW2 3474   0.210   5.923   6.192  3.4520 -1.0146 -1.0758
  859SOL     OW 3475   4.405   0.959   3.161 -0.3678 -0.4508 -0.0591
  859SOL    HW1 3476   4.475   0.889   3.147  0.3764  0.5212 -1.4702
  859SOL    HW2 3477   4.428   1.013   3.242  0.3049 -0.4159 -0.2664
  860SOL     OW 3478   3.415   6.288   3.532  0.0574  0.1505  0.3018
  860SOL    HW1 3479   3.508   6.324   3.540 -0.0134  0.1356  1.1962
  860SOL    HW2 3480   3.353   6.342   3.589 -0.4153 -0.0998  0.0299
  861SOL     OW 3481   4.971   4.070   6.170 -0.3591  0.0614 -0.3383
  861SOL    HW1 3482   4.959   4.010   6.091  0.9632  1.6543 -1.8308
  861SOL    HW2 3483   4.913   4.151   6.159 -0.2730  0.2271  0.4052
  862SOL     OW 3484   6.197   0.054   3.114  0.3308  0.2667 -0.3288
  862SOL    HW1 3485   6.236   0.143   3.090  0.5517 -0.0784 -1.3018
  862SOL    HW2 3486   6.270  -0.010   3.134  0.1723  0.2829  0.3188
  863SOL     OW 3487   0.536   2.485   1.719  0.9787 -0.2482  0.1929
  863SOL    HW1 3488   0.441   2.481   1.689 -0.2237  0.3388  3.4677
  863SOL    HW2 3489   0.576   2.572   1.692  0.4812 -0.3428 -0.9001
  864SOL     OW 3490   4.126   6.409   5.286  0.1268 -0.4737  0.8672
  864SOL    HW1 3491   4.059   6.394   5.359 -2.2713 -0.9083 -1.2662
  864SOL    HW2 3492   4.121   6.333   5.221  1.5101  0.3446 -0.2447
  865SOL     OW 3493   1.201   2.928   4.629 -0.2662  0.8163 -0.1235
  865SOL    HW1 3494   1.188   3.012   4.681  0.6126  0.9234 -0.0617
  865SOL    HW2 3495   1.244   2.859   4.687  0.7471  0.9447 -0.6881
  866SOL     OW 3496   5.792   3.135   3.764  0.8125 -0.3428  0.2179
  866SOL    HW1 3497   5.865   3.129   3.696 -0.9006 -0.1881 -1.7718
  866SOL    HW2 3498   5.785   3.050   3.815  0.9487 -1.2126 -1.1655
  867SOL     OW 3499   5.185   2.640   5.956 -0.3355 -0.2510  0.0917
  867SOL    HW1 3500   5.203   2.579   6.033 -0.4344 -1.8589 -1.1147
  867SOL    HW2 3501   5.117   2.600   5.895 -1.4556  1.7148 -0.0457
  868SOL     OW 3502   6.906   0.443   1.738 -0.1502 -0.4011  0.4993
  868SOL    HW1 3503   6.881   0.502   1.816  0.8610 -0.5892  0.9775
  868SOL    HW2 3504   6.902   0.496   1.654  0.2136  0.2175  0.8621
  869SOL     OW 3505   6.190   3.329   3.525  0.1617 -0.4293  0.2276
  869SOL    HW1 3506   6.101   3.374   3.519  0.8113  0.8221 -0.4534
  869SOL    HW2 3507   6.221   3.305   3.433  1.2417  0.6521  0.2800
  870SOL     OW 3508   5.708   5.544   1.413 -0.2246 -0.9635 -0.1689
  870SOL    HW1 3509   5.626   5.578   1.458  0.5008  0.9526 -0.1961
  870SOL    HW2 3510   5.771   5.507   1.481  0.4619  1.0566  0.3673
  871SOL     OW 3511   2.259   1.728   5.084 -0.4469 -0.7487 -0.3710
  871SOL    HW1 3512   2.302   1.769   5.004 -0.4189  0.9662  0.4824
  871SOL    HW2 3513   2.316   1.654   5.119  1.8424  1.3363  0.6266
  872SOL     OW 3514   4.799   0.021   4.170  0.1563  0.2148 -0.0399
  872SOL    HW1 3515   4.774   0.106   4.123  1.3680  0.1166 -0.9406
  872SOL    HW2 3516   4.867   0.041   4.240 -0.1515  0.0888  0.2963
  873SOL     OW 3517   0.565   0.101   3.818  0.2058  0.6645  0.0955
  873SOL    HW1 3518   0.611   0.142   3.740  0.4541  1.9395  0.8756
  873SOL    HW2 3519   0.467   0.117   3.811 -0.1326 -1.6251 -1.3169
  874SOL     OW 3520   3.035   3.779   4.521  0.7105  0.3353 -0.1795
  874SOL    HW1 3521   2.983   3.822   4.594  1.0194  1.7723 -0.7867
  874SOL    HW2 3522   3.096   3.709   4.560 -0.2297  0.0030  0.7408
  875SOL     OW 3523   2.033   3.944   4.102 -0.3618 -0.1997  0.0461
  875SOL    HW1 3524   1.994   3.975   4.188 -0.7673  1.9031 -0.8235
  875SOL    HW2 3525   1.968   3.961   4.028  0.5668 -0.5023 -0.8707
  876SOL     OW 3526   5.904   2.367   5.562 -0.3515  0.7539 -0.1255
  876SOL    HW1 3527   5.818   2.412   5.535 -0.2138  0.6484 -0.7618
  876SOL    HW2 3528   5.891   2.321   5.649 -1.5029 -0.8201 -1.0838
  877SOL     OW 3529   1.333   3.550   1.090  0.5494 -0.6067  0.2454
  877SOL    HW1 3530   1.334   3.490   1.010  0.8417 -0.8669  0.4416
  877SOL    HW2 3531   1.305   3.497   1.171  0.7485 -0.4669  0.4083
  878SOL     OW 3532   6.219   3.489   2.915  0.2550  0.4059  0.0349
  878SOL    HW1 3533   6.209   3.575   2.967  1.3949  0.1237  0.7709
  878SOL    HW2 3534   6.312   3.455   2.926 -0.2105 -0.9923 -0.1583
  879SOL     OW 3535   3.174   0.310   4.385  0.0611  0.5214 -0.6226
  879SOL    HW1 3536   3.089   0.332   4.337 -0.3012 -0.9827 -0.7338
  879SOL    HW2 3537   3.230   0.251   4.327 -0.1555 -0.9093  0.5721
  880SOL     OW 3538   2.180   1.064   1.065  0.4550 -0.0201 -0.5694
  880SOL    HW1 3539   2.083   1.051   1.087  0.7965 -1.1945  0.3324
  880SOL    HW2 3540   2.234   0.992   1.109  1.7983  0.9114 -0.6398
  881SOL     OW 3541   6.818   5.257   1.868 -0.1480 -0.3499  0.2409
  881SOL    HW1 3542   6.772   5.218   1.788  0.2816 -2.0033  0.7619
  881SOL    HW2 3543   6.758   5.325   1.910 -1.2615 -0.9629 -0.2908
  882SOL     OW 3544   0.204   6.908   5.045 -0.5406 -0.2499 -0.4256
  882SOL    HW1 3545   0.227   6.856   4.962 -0.8014 -0.7598 -0.1855
  882SOL    HW2 3546   0.213   6.848   5.125  2.2024  0.8806  0.2245
  883SOL     OW 3547   6.654   3.700   6.787  0.7547  0.4086  0.0920
  883SOL    HW1 3548   6.692   3.748   6.708 -2.4514  2.9316 -0.1080
  883SOL    HW2 3549   6.686   3.745   6.871 -0.3925  1.5271 -0.0314
  884SOL     OW 3550   5.161   1.124   2.912 -0.4312 -0.2009  0.3245
  884SOL    HW1 3551   5.239   1.183   2.892 -2.0545  1.3266 -1.9774
  884SOL    HW2 3552   5.171   1.037   2.863 -0.6482  0.4422 -0.9107
  885SOL     OW 3553   4.164   6.569   5.066 -0.3938 -0.4777 -0.2083
  885SOL    HW1 3554   4.160   6.657   5.113 -0.4961  0.4675 -1.9196
  885SOL    HW2 3555   4.146   6.495   5.132  2.9458  0.4649  2.0561
  886SOL     OW 3556   2.180   2.132   2.802  0.3039 -0.1178 -0.2735
  886SOL    HW1 3557   2.167   2.033   2.811  0.8521 -0.2012 -0.3380
  886SOL    HW2 3558   2.133   2.164   2.720 -2.1942  0.1504  1.1732
  887SOL     OW 3559   2.488   3.842   6.525  0.1289 -0.1000 -0.3611
  887SOL    HW1 3560   2.554   3.770   6.505 -0.6597 -0.9823  0.1271
  887SOL    HW2 3561   2.414   3.840   6.458 -0.3352 -0.3201  0.1432
  888SOL     OW 3562   6.112   5.173   2.948  0.0426 -0.3659 -0.5211
  888SOL    HW1 3563   6.060   5.237   3.004  0.5104  0.5352 -1.0952
  888SOL    HW2 3564   6.188   5.221   2.904 -1.3801 -0.5771 -3.4356
  889SOL     OW 3565   3.447   1.422   6.804  0.2410  0.4595 -0.4760
  889SOL    HW1 3566   3.541   1.388   6.793 -0.2134 -0.8327 -0.5251
  889SOL    HW2 3567   3.401   1.418   6.715 -0.8714 -2.0999  0.1406
  890SOL     OW 3568   5.405   4.225   4.987  0.2022 -0.1149  0.1793
  890SOL    HW1 3569   5.479   4.208   4.922  0.6163  0.3050  0.5298
  890SOL    HW2 3570   5.359   4.310   4.964 -0.0789 -0.3047  0.0444
  891SOL     OW 3571   0.564   2.874   6.350 -0.1508 -0.0612 -0.2737
  891SOL    HW1 3572   0.512   2.813   6.410  0.4835  1.3382  1.8015
  891SOL    HW2 3573   0.631   2.820   6.298 -1.3280 -1.4283 -0.4290
  892SOL     OW 3574   3.155   5.195   2.803  0.1817 -0.4211  0.0680
  892SOL    HW1 3575   3.098   5.272   2.777 -0.9061 -0.9554  0.7658
  892SOL    HW2 3576   3.101   5.131   2.859  0.9342 -1.8670 -0.7954
  893SOL     OW 3577   1.459   0.269   1.479 -0.2083  0.0696 -0.4294
  893SOL    HW1 3578   1.388   0.291   1.546  1.8807  1.7865  1.3871
  893SOL    HW2 3579   1.541   0.236   1.527  0.6451 -0.7107 -2.3455
  894SOL     OW 3580   0.766   6.979   1.283  0.1064 -0.2937 -0.0132
  894SOL    HW1 3581   0.783   7.010   1.190  1.4616 -0.0160  0.3010
  894SOL    HW2 3582   0.735   7.055   1.339 -2.1938 -0.7643 -0.5453
  895SOL     OW 3583   6.724   5.794   3.081 -0.5110  0.3265  0.2521
  895SOL    HW1 3584   6.726   5.894   3.084 -1.5979  0.3504  0.5120
  895SOL    HW2 3585   6.808   5.760   3.038  0.6452  1.2789  1.6627
  896SOL     OW 3586   4.568   4.013   0.548 -0.3498 -0.2456  0.5661
  896SOL    HW1 3587   4.549   3.949   0.623  0.2030  0.6000  1.4509
  896SOL    HW2 3588   4.638   3.973   0.488  0.4809 -0.2164  1.4854
  897SOL     OW 3589   1.535   2.502   0.163 -0.1892 -0.2849 -0.0187
  897SOL    HW1 3590   1.604   2.551   0.110  0.0945  1.9950  2.2518
  897SOL    HW2 3591   1.579   2.432   0.219  0.2614  0.7500  0.9611
  898SOL     OW 3592   0.332   5.139   6.145 -0.4286 -0.2016  0.5859
  898SOL    HW1 3593   0.232   5.137   6.152 -0.3264  0.0045  2.3515
  898SOL    HW2 3594   0.364   5.055   6.101 -1.2725 -1.1948  1.8055
  899SOL     OW 3595   4.807   4.389   5.020 -0.5813  0.2433  0.3497
  899SOL    HW1 3596   4.803   4.397   5.120 -1.3098 -0.2641  0.3729
  899SOL    HW2 3597   4.714   4.389   4.984 -0.4937 -2.4107 -0.0828
  900SOL     OW 3598   6.197   1.806   3.596  0.0675  0.0025  0.1604
  900SOL    HW1 3599   6.102   1.827   3.616 -0.1805 -0.7933 -0.1700
  900SOL    HW2 3600   6.229   1.863   3.520  0.5968  2.0164  1.8173
  901SOL     OW 3601   1.067   5.809   3.922 -0.4167 -0.1764 -0.4857
  901SOL    HW1 3602   0.992   5.755   3.886 -0.8332  0.7265 -1.0194
  901SOL    HW2 3603   1.138   5.819   3.852  0.6459 -1.7789  0.3051
  902SOL     OW 3604   6.903   2.656   3.493  0.4727  0.0888  0.1459
  902SOL    HW1 3605   6.818   2.650   3.544  0.1407  0.5534 -0.3393
  902SOL    HW2 3606   6.980   2.638   3.554 -0.0009 -1.1353  0.4293
  903SOL     OW 3607   6.186   0.601   2.581  0.3382 -0.4706 -0.2749
  903SOL    HW1 3608   6.223   0.691   2.556 -1.1015  0.5548  1.0458
  903SOL    HW2 3609   6.090   0.596   2.555  0.4072 -1.6591 -0.3539
  904SOL     OW 3610   2.710   6.541   5.347 -0.0150  0.0759  0.3288
  904SOL    HW1 3611   2.686   6.444   5.338  0.8447 -0.4075  2.6372
  904SOL    HW2 3612   2.627   6.595   5.355 -0.5043 -0.4524 -0.9390
  905SOL     OW 3613   5.017   4.364   0.903  0.3899  0.0587  0.7238
  905SOL    HW1 3614   4.938   4.314   0.871  1.5872 -1.8870  0.6419
  905SOL    HW2 3615   5.048   4.428   0.833  0.0507 -0.5986 -0.0386
  906SOL     OW 3616   2.460   3.674   1.094  0.4120 -0.0714 -0.1693
  906SOL    HW1 3617   2.554   3.679   1.127  0.0900 -0.5968  0.8979
  906SOL    HW2 3618   2.429   3.764   1.065  0.8904  0.3227  0.5223
  907SOL     OW 3619   1.926   2.688   5.673  0.6498 -0.6136  0.9139
  907SOL    HW1 3620   1.926   2.756   5.746  0.3662 -0.0130  0.3648
  907SOL    HW2 3621   1.889   2.602   5.707 -0.4202 -0.0408  1.2122
  908SOL     OW 3622   0.036   4.642   5.546 -0.1414  0.8706  0.0684
  908SOL    HW1 3623   0.027   4.613   5.641 -0.6448  0.0505 -0.2187
  908SOL    HW2 3624   0.094   4.723   5.541 -0.1214  0.9262  1.0728
  909SOL     OW 3625   5.985   0.817   5.619  0.2757 -0.4787 -0.1484
  909SOL    HW1 3626   5.913   0.798   5.553 -0.3537 -3.2339  1.1951
  909SOL    HW2 3627   5.961   0.898   5.672 -0.2797  0.4485 -1.7440
  910SOL     OW 3628   1.934   3.292   5.213 -0.2768 -0.0378 -0.1933
  910SOL    HW1 3629   1.925   3.321   5.118 -1.6554  0.4100  0.0505
  910SOL    HW2 3630   1.971   3.198   5.216 -0.0922 -0.0035 -1.1500
  911SOL     OW 3631   6.460   4.394   0.084 -0.2504  0.3270  0.0710
  911SOL    HW1 3632   6.435   4.355  -0.004  1.3358 -1.4928  0.3526
  911SOL    HW2 3633   6.547   4.442   0.076 -1.3645  2.4734  0.1193
  912SOL     OW 3634   2.281   4.813   5.364  0.5103  0.1418 -0.1454
  912SOL    HW1 3635   2.221   4.889   5.390  1.1413 -0.2282  2.7815
  912SOL    HW2 3636   2.348   4.797   5.437  1.4996 -2.1302 -1.4463
  913SOL     OW 3637   4.966   3.748   1.867 -0.1934 -0.7203 -0.4527
  913SOL    HW1 3638   5.002   3.739   1.775  0.5187 -1.6601 -0.1004
  913SOL    HW2 3639   5.016   3.686   1.929 -0.5024  0.0518  0.6017
  914SOL     OW 3640   4.309   0.150   5.965 -0.6386  0.2991 -0.0798
  914SOL    HW1 3641   4.296   0.246   5.941 -0.1963  0.4627  0.3337
  914SOL    HW2 3642   4.264   0.130   6.052  2.5580  1.1238  1.9185
  915SOL     OW 3643   1.529   6.571   1.560 -0.2406  0.4300  0.3229
  915SOL    HW1 3644   1.433   6.552   1.539 -0.3741  1.0348  0.3723
  915SOL    HW2 3645   1.573   6.610   1.479 -0.2341  0.8661  0.5351
  916SOL     OW 3646   3.771   1.079   6.696  0.0525  0.7530  0.0795
  916SOL    HW1 3647   3.731   1.125   6.775 -1.6771 -0.3269 -0.1166
  916SOL    HW2 3648   3.718   1.102   6.614 -0.6673 -1.2823 -0.0741
  917SOL     OW 3649   3.858   2.115   5.830 -0.2298 -0.1321 -0.4015
  917SOL    HW1 3650   3.806   2.158   5.757 -0.1310  0.9578  0.1593
  917SOL    HW2 3651   3.920   2.181   5.872  0.9811 -1.1765 -0.4657
  918SOL     OW 3652   4.597   2.702   3.705  0.2474  0.4331 -0.4757
  918SOL    HW1 3653   4.637   2.791   3.683  1.1093  0.4948  1.1585
  918SOL    HW2 3654   4.615   2.681   3.801 -0.7299 -1.1111 -0.6000
  919SOL     OW 3655   1.449   3.820   2.591  0.2258 -0.1613  0.0174
  919SOL    HW1 3656   1.478   3.899   2.644 -0.9175  0.2774  0.0204
  919SOL    HW2 3657   1.458   3.737   2.646 -1.8801  0.3956  1.3076
  920SOL     OW 3658   3.220   5.220   0.697 -0.8897  0.4657  0.9008
  920SOL    HW1 3659   3.268   5.199   0.782 -1.1249 -0.7023  0.7548
  920SOL    HW2 3660   3.286   5.220   0.621 -1.0631 -0.9780  0.7244
  921SOL     OW 3661   0.268   3.200   5.609 -0.0823  0.1514  0.4180
  921SOL    HW1 3662   0.329   3.133   5.652  1.4837  0.8186 -0.6932
  921SOL    HW2 3663   0.174   3.183   5.640  0.6314 -0.9082  2.1696
  922SOL     OW 3664   2.664   2.916   5.406 -0.1820  0.2271 -0.0905
  922SOL    HW1 3665   2.651   2.817   5.413 -1.1072  0.2738 -0.9448
  922SOL    HW2 3666   2.611   2.952   5.329 -1.1807  1.6177  1.1625
  923SOL     OW 3667   3.244   5.399   2.315 -0.4833  0.2347 -0.0171
  923SOL    HW1 3668   3.268   5.302   2.321  0.0787  0.2683 -1.4133
  923SOL    HW2 3669   3.183   5.413   2.238 -3.5803  0.4678  2.3108
  924SOL     OW 3670   0.415   4.204   1.016  0.3613  0.2833 -0.6203
  924SOL    HW1 3671   0.390   4.116   0.975 -0.3360 -0.1029  0.5741
  924SOL    HW2 3672   0.332   4.252   1.043  0.7555  1.1537 -0.9267
  925SOL     OW 3673   2.684   2.316   2.776 -0.5405 -0.3873 -0.1185
  925SOL    HW1 3674   2.720   2.328   2.683 -0.7202  0.0416 -0.1319
  925SOL    HW2 3675   2.760   2.294   2.837 -0.0851  1.4898  0.0361
  926SOL     OW 3676   4.984   4.193   4.459  0.2150  0.3756  0.2442
  926SOL    HW1 3677   4.953   4.284   4.485 -2.0294  0.2950 -1.8617
  926SOL    HW2 3678   5.002   4.190   4.361  0.8596 -1.3004  0.3756
  927SOL     OW 3679   0.335   3.605   1.006  0.1873  0.6800 -0.1626
  927SOL    HW1 3680   0.351   3.703   0.992  0.7743  0.6964  0.5972
  927SOL    HW2 3681   0.361   3.580   1.099  1.0263 -0.4048 -0.6760
  928SOL     OW 3682   0.850   6.506   1.866  0.3792 -0.0348  0.4842
  928SOL    HW1 3683   0.814   6.412   1.865 -3.5690  1.2707  0.9099
  928SOL    HW2 3684   0.846   6.543   1.958 -0.3742  1.2503 -0.0285
  929SOL     OW 3685   0.357   6.055   3.211 -0.9396  0.2824 -1.2564
  929SOL    HW1 3686   0.452   6.030   3.191 -0.8844 -0.3671 -0.2269
  929SOL    HW2 3687   0.343   6.056   3.310 -1.3801  2.7712 -1.2949
  930SOL     OW 3688   3.786   2.106   3.269  0.4399  0.0486  0.2899
  930SOL    HW1 3689   3.872   2.057   3.282 -0.3203 -1.1654  1.0172
  930SOL    HW2 3690   3.768   2.118   3.172  2.0760  1.5757  0.1142
  931SOL     OW 3691   1.785   0.013   3.223  0.2716 -0.2743  0.1419
  931SOL    HW1 3692   1.806   0.059   3.309  1.4124  0.6411 -0.5921
  931SOL    HW2 3693   1.854  -0.056   3.204  0.2680 -0.1794 -0.2314
  932SOL     OW 3694   0.510   3.007   2.971 -0.1584 -0.6126  0.8812
  932SOL    HW1 3695   0.411   3.021   2.970  0.0867  1.3902 -0.5788
  932SOL    HW2 3696   0.551   3.057   3.048 -0.1431 -0.3698  0.7141
  933SOL     OW 3697   3.067   3.020   5.565 -0.1083 -0.1205  0.3075
  933SOL    HW1 3698   3.083   3.113   5.534  1.4331 -0.8556 -1.3104
  933SOL    HW2 3699   3.006   2.973   5.501 -0.0209 -0.5364  0.5253
  934SOL     OW 3700   5.537   3.072   0.411 -0.2203 -0.3139  0.0825
  934SOL    HW1 3701   5.462   3.110   0.356  0.2831  0.0468 -0.3645
  934SOL    HW2 3702   5.550   2.976   0.386 -1.1507 -0.6535  0.8414
  935SOL     OW 3703   0.713   6.131   0.201 -0.3756 -0.3805  0.4188
  935SOL    HW1 3704   0.618   6.158   0.221 -0.2701 -1.0650  2.0063
  935SOL    HW2 3705   0.753   6.089   0.283  0.9096 -1.2172 -0.6075
  936SOL     OW 3706   1.215   1.477   4.219 -0.0865  0.4172 -0.4972
  936SOL    HW1 3707   1.278   1.440   4.287 -0.9532 -0.3991 -0.1118
  936SOL    HW2 3708   1.136   1.517   4.264 -0.6292 -0.0555 -1.0099
  937SOL     OW 3709   0.154   3.422   2.717  0.0184  0.1666 -0.2248
  937SOL    HW1 3710   0.245   3.462   2.707 -0.5044  1.2856 -0.6739
  937SOL    HW2 3711   0.109   3.460   2.798 -0.3567  0.2369 -0.4611
  938SOL     OW 3712   0.808   5.270   1.208 -0.3351 -0.2344 -0.0089
  938SOL    HW1 3713   0.872   5.204   1.247  2.4965  0.8632 -2.3983
  938SOL    HW2 3714   0.821   5.360   1.251  1.1935  0.4361 -1.7373
  939SOL     OW 3715   6.050   5.029   4.184 -0.2059  0.3872  0.0657
  939SOL    HW1 3716   6.000   4.971   4.120 -1.3139 -1.6098  2.5488
  939SOL    HW2 3717   6.128   4.978   4.221  0.3324  1.4335  0.4096
  940SOL     OW 3718   0.517   0.308   6.463  0.2468 -0.3770  0.0043
  940SOL    HW1 3719   0.569   0.242   6.410  0.5164 -0.0372 -0.1583
  940SOL    HW2 3720   0.577   0.354   6.528 -0.1502 -1.0331  0.8517
  941SOL     OW 3721   0.771   1.523   2.487 -0.3843 -0.3480  0.1187
  941SOL    HW1 3722   0.697   1.551   2.426 -0.7591 -0.0886  0.6809
  941SOL    HW2 3723   0.741   1.534   2.582  0.7947  0.9490  0.3819
  942SOL     OW 3724   6.377   2.879   0.797  0.1710  0.0747 -0.9471
  942SOL    HW1 3725   6.363   2.951   0.865  1.6282 -1.7118  1.3867
  942SOL    HW2 3726   6.431   2.916   0.721  1.7706  1.2620  0.6589
  943SOL     OW 3727   4.216   1.123   4.912 -0.7061 -0.1492 -0.3420
  943SOL    HW1 3728   4.275   1.167   4.845 -0.7682 -0.9872 -0.9742
  943SOL    HW2 3729   4.127   1.104   4.870 -1.0339  0.0803  0.2443
  944SOL     OW 3730   5.304   1.906   3.901  0.1248  0.4766 -0.5274
  944SOL    HW1 3731   5.330   1.885   3.995 -0.7299 -0.6531 -0.5041
  944SOL    HW2 3732   5.275   2.001   3.894  1.0642  0.8188  0.1425
  945SOL     OW 3733   0.013   1.439   5.402 -0.3560  0.2479  0.1342
  945SOL    HW1 3734   0.065   1.524   5.385  1.3875 -0.1332  3.0003
  945SOL    HW2 3735  -0.004   1.429   5.500 -2.8206 -1.4886 -0.3827
  946SOL     OW 3736   3.040   6.820   4.871 -0.1211 -0.3382 -0.3246
  946SOL    HW1 3737   3.015   6.903   4.821  0.6481 -0.2564 -0.5840
  946SOL    HW2 3738   3.088   6.757   4.810  0.3902 -0.4462  0.1773
  947SOL     OW 3739   4.835   0.415   6.426 -0.4148 -0.1089 -0.6198
  947SOL    HW1 3740   4.777   0.372   6.496 -1.3895  1.6357 -0.2804
  947SOL    HW2 3741   4.910   0.464   6.472 -1.2095  1.2644 -0.7236
  948SOL     OW 3742   5.411   0.521   2.797 -0.5905 -0.4303 -0.1879
  948SOL    HW1 3743   5.408   0.611   2.754  1.0565 -0.4417 -0.4104
  948SOL    HW2 3744   5.467   0.525   2.880 -0.2776 -1.2897 -0.3377
  949SOL     OW 3745   4.724   0.685   1.775 -0.3106 -0.0203  0.1220
  949SOL    HW1 3746   4.682   0.761   1.724  0.4461  0.8513  0.7567
  949SOL    HW2 3747   4.746   0.611   1.712 -3.0991 -0.6917 -0.1971
  950SOL     OW 3748   1.872   3.660   6.689  0.2957 -0.0549 -0.0842
  950SOL    HW1 3749   1.783   3.704   6.699  0.6935  0.7745 -0.0853
  950SOL    HW2 3750   1.904   3.628   6.779 -0.1978 -0.7555 -0.1540
  951SOL     OW 3751   6.247   0.052   2.822  0.8126  0.0111 -0.5149
  951SOL    HW1 3752   6.150   0.053   2.798  0.8489  1.4798 -0.6723
  951SOL    HW2 3753   6.258   0.024   2.918  0.2403 -0.0559 -0.4669
  952SOL     OW 3754   1.947   3.568   2.050 -0.4617  0.1434 -0.1713
  952SOL    HW1 3755   2.041   3.537   2.039 -0.3170  0.1269  1.0217
  952SOL    HW2 3756   1.895   3.500   2.101 -1.0503  0.2897 -0.5641
  953SOL     OW 3757   1.396   5.844   1.246 -0.3391 -0.0670  0.1732
  953SOL    HW1 3758   1.454   5.891   1.179 -1.9224 -1.4569 -2.3286
  953SOL    HW2 3759   1.311   5.895   1.258 -0.8111 -0.7421 -0.2623
  954SOL     OW 3760   2.730   0.665   1.003 -0.2409  0.5808  0.1098
  954SOL    HW1 3761   2.657   0.620   0.952  1.2009 -1.6087 -0.1553
  954SOL    HW2 3762   2.694   0.702   1.088 -1.7949  0.2635 -0.3855
  955SOL     OW 3763   3.470   2.481   0.901 -0.1841 -0.1872 -0.0870
  955SOL    HW1 3764   3.398   2.509   0.965 -0.2682 -0.1421 -0.2020
  955SOL    HW2 3765   3.515   2.399   0.936  0.0431  0.0684  0.2370
  956SOL     OW 3766   2.170   3.312   6.401  0.0151  0.2754 -0.3478
  956SOL    HW1 3767   2.102   3.385   6.407 -1.8866 -1.2396 -1.8685
  956SOL    HW2 3768   2.232   3.329   6.324  1.4130  1.6298  1.0055
  957SOL     OW 3769   0.191   5.761   2.806  0.6807  0.3979 -0.5158
  957SOL    HW1 3770   0.220   5.820   2.882 -1.3397 -1.7608  2.1150
  957SOL    HW2 3771   0.258   5.688   2.793 -0.1996 -0.7353  1.0416
  958SOL     OW 3772   5.518   5.363   1.570  0.3544 -0.3659 -0.2925
  958SOL    HW1 3773   5.484   5.441   1.518  0.9985  0.2380  0.1771
  958SOL    HW2 3774   5.470   5.356   1.657  0.4994 -0.3175 -0.2080
  959SOL     OW 3775   2.477   5.093   0.661 -0.1011 -0.2370 -0.2536
  959SOL    HW1 3776   2.425   5.152   0.723  1.3875 -0.6010  1.4473
  959SOL    HW2 3777   2.560   5.061   0.708 -0.2078 -2.6453 -1.5594
  960SOL     OW 3778   6.805   5.184   6.125  0.1059 -0.2969 -0.0564
  960SOL    HW1 3779   6.830   5.279   6.106  0.1752 -0.4651 -0.8198
  960SOL    HW2 3780   6.749   5.149   6.050 -0.4807 -0.6520  0.5387
  961SOL     OW 3781   3.574   4.291   0.359 -0.1855  1.2060  0.3100
  961SOL    HW1 3782   3.483   4.250   0.362  0.8554 -1.3470 -0.3668
  961SOL    HW2 3783   3.591   4.327   0.267 -0.0525  0.4392  0.0208
  962SOL     OW 3784   0.464   0.598   0.342  0.6407  0.0463 -0.7664
  962SOL    HW1 3785   0.421   0.637   0.260 -1.0585  1.7173  0.8157
  962SOL    HW2 3786   0.441   0.654   0.421 -0.3566 -3.1472  1.4033
  963SOL     OW 3787   2.148   3.681   1.397  0.5585 -0.2522  0.5346
  963SOL    HW1 3788   2.199   3.767   1.403 -0.1836  0.3193 -0.8326
  963SOL    HW2 3789   2.190   3.622   1.327  0.5969 -0.6843  0.9146
  964SOL     OW 3790   4.069   0.697   4.763 -0.2711  0.0162  0.1471
  964SOL    HW1 3791   4.024   0.726   4.678  0.1327  0.2375  0.0083
  964SOL    HW2 3792   4.140   0.630   4.742 -0.3524 -0.1363  0.3442
  965SOL     OW 3793   4.733   1.429   2.906  0.0280 -0.2080  0.1603
  965SOL    HW1 3794   4.715   1.370   2.985  0.4119  0.3170  0.6496
  965SOL    HW2 3795   4.814   1.396   2.857  0.5243  0.1774  0.7073
  966SOL     OW 3796   2.862   5.349   3.252  0.1461  0.5356  0.3337
  966SOL    HW1 3797   2.871   5.335   3.351 -2.0657  1.1754  0.6667
  966SOL    HW2 3798   2.871   5.262   3.205  0.0090  0.0425  1.2046
  967SOL     OW 3799   1.886   1.908   6.886  0.0329 -0.3197  0.3398
  967SOL    HW1 3800   1.862   1.949   6.798 -0.3533  0.3875  0.7606
  967SOL    HW2 3801   1.972   1.859   6.878  0.2452  0.1452 -0.3188
  968SOL     OW 3802   6.102   0.234   5.002 -0.1373  0.3034  0.4529
  968SOL    HW1 3803   6.154   0.221   4.918 -1.9702 -0.1274 -0.6921
  968SOL    HW2 3804   6.010   0.267   4.979 -0.3629  1.1213  2.3773
  969SOL     OW 3805   1.889   0.566   3.833  0.3464 -0.8369  0.0232
  969SOL    HW1 3806   1.893   0.645   3.894  1.1358 -1.5710  0.9500
  969SOL    HW2 3807   1.899   0.596   3.738  0.4315  0.1871  0.3484
  970SOL     OW 3808   6.822   3.347   3.569 -0.3016  0.2725 -0.1592
  970SOL    HW1 3809   6.868   3.260   3.551 -2.5904 -1.1624  0.4141
  970SOL    HW2 3810   6.734   3.348   3.522 -1.2217  1.4023  1.4666
  971SOL     OW 3811   6.392   3.383   6.591  0.1301  0.6146 -0.6293
  971SOL    HW1 3812   6.412   3.431   6.676  0.3181 -0.7202  0.1221
  971SOL    HW2 3813   6.476   3.371   6.538  0.5678 -0.9513  0.3382
  972SOL     OW 3814   3.832   4.905   2.038  0.5887  0.0643 -0.2122
  972SOL    HW1 3815   3.839   4.971   1.963 -2.2954  0.5646 -0.1304
  972SOL    HW2 3816   3.747   4.853   2.030  2.6748 -3.7489 -0.2641
  973SOL     OW 3817   4.489   5.336   2.256  0.3486 -0.1799  0.0231
  973SOL    HW1 3818   4.393   5.328   2.227  0.6282 -0.2314 -0.9193
  973SOL    HW2 3819   4.523   5.428   2.235  0.2789  0.1082  1.1011
  974SOL     OW 3820   2.151   1.958   6.594 -0.3220 -0.0314 -0.1181
  974SOL    HW1 3821   2.192   1.952   6.685  0.4284 -0.1941 -0.4570
  974SOL    HW2 3822   2.053   1.977   6.602 -0.3174 -0.3372  0.7280
  975SOL     OW 3823   6.256   3.738   2.449  0.4021  0.0535 -0.2588
  975SOL    HW1 3824   6.237   3.818   2.507  0.6504  0.4157 -0.6777
  975SOL    HW2 3825   6.173   3.684   2.439 -0.4171  1.5589 -1.9747
  976SOL     OW 3826   1.439   6.590   3.217  0.2453  0.3050  0.1954
  976SOL    HW1 3827   1.346   6.560   3.194  0.8034  0.6420 -3.0570
  976SOL    HW2 3828   1.457   6.679   3.174  2.0887  0.2427  0.7486
  977SOL     OW 3829   4.072   1.594   3.581  0.5752  0.3057  0.2319
  977SOL    HW1 3830   4.143   1.560   3.519 -0.2500 -1.6087  0.2607
  977SOL    HW2 3831   4.114   1.617   3.669  1.3500  0.4950 -0.1702
  978SOL     OW 3832   1.114   3.435   3.031 -0.2109 -0.5483  0.3506
  978SOL    HW1 3833   1.149   3.529   3.021 -1.0749 -0.2064  0.4429
  978SOL    HW2 3834   1.188   3.370   3.014 -0.2467  0.0704 -2.6006
  979SOL     OW 3835   6.022   6.822   6.659 -0.2013  0.6079  0.1938
  979SOL    HW1 3836   5.971   6.792   6.740 -0.6114 -1.9552 -0.9221
  979SOL    HW2 3837   6.107   6.865   6.687  0.8048 -2.3414  2.0359
  980SOL     OW 3838   0.058   2.508   4.257 -0.0528 -0.3702  0.1280
  980SOL    HW1 3839   0.063   2.576   4.329 -0.0150  0.0800 -0.2990
  980SOL    HW2 3840   0.093   2.420   4.291  3.0200  0.5887 -0.2715
  981SOL     OW 3841   3.377   2.023   3.215 -0.1774 -0.0337  0.3181
  981SOL    HW1 3842   3.438   2.038   3.293  1.3806  0.8920 -1.0244
  981SOL    HW2 3843   3.292   2.074   3.230  0.0954  0.1309  1.3987
  982SOL     OW 3844   6.880   0.740   5.449 -0.0089 -0.2132  0.4357
  982SOL    HW1 3845   6.923   0.827   5.422  0.5794 -0.5894  0.1379
  982SOL    HW2 3846   6.853   0.745   5.545  0.3828  0.1589  0.5296
  983SOL     OW 3847   5.577   3.464   1.870  0.3322  0.4140 -0.3713
  983SOL    HW1 3848   5.549   3.370   1.851 -1.0963  0.6613  0.4160
  983SOL    HW2 3849   5.665   3.482   1.825  1.5599 -1.8660  0.9257
  984SOL     OW 3850   1.511   6.198   2.436  0.5655  0.5758 -0.8411
  984SOL    HW1 3851   1.483   6.291   2.410 -3.1716 -0.1665  0.0367
  984SOL    HW2 3852   1.569   6.203   2.517 -3.0436  2.1526  1.9319
  985SOL     OW 3853   4.101   6.661   6.868  0.8908 -0.7180 -0.6012
  985SOL    HW1 3854   4.193   6.696   6.885  1.1534 -1.9825  0.7792
  985SOL    HW2 3855   4.033   6.723   6.908  1.2206 -0.5411 -0.3160
  986SOL     OW 3856   6.622   2.396   0.273 -0.4688 -0.5752 -0.3228
  986SOL    HW1 3857   6.527   2.425   0.289 -0.7335 -0.8629 -1.3073
  986SOL    HW2 3858   6.684   2.464   0.312 -1.0753 -0.2854  0.1653
  987SOL     OW 3859   0.354   4.223   3.143  0.7956  0.2310  0.0411
  987SOL    HW1 3860   0.438   4.235   3.090  0.0121  0.8828 -1.0957
  987SOL    HW2 3861   0.358   4.135   3.191  3.0205  1.1715  1.7542
  988SOL     OW 3862   5.385   1.884   3.638 -0.2539 -0.3037 -0.2002
  988SOL    HW1 3863   5.353   1.889   3.733 -0.0063 -0.7800 -0.0886
  988SOL    HW2 3864   5.309   1.853   3.580 -0.3508 -0.2045 -0.1276
  989SOL     OW 3865   6.759   4.359   3.662  0.5667  0.1861 -0.4913
  989SOL    HW1 3866   6.755   4.439   3.721 -2.5244  0.1699 -0.5299
  989SOL    HW2 3867   6.730   4.384   3.569  0.5790 -0.7517 -0.7614
  990SOL     OW 3868   1.477   4.643   6.440  0.3871  0.5223 -0.3696
  990SOL    HW1 3869   1.430   4.722   6.399  1.1753  1.7121  0.9113
  990SOL    HW2 3870   1.575   4.653   6.428  0.5518  0.2464  0.6366
  991SOL     OW 3871   0.609   4.707   2.844  0.2937 -0.0011  0.2469
  991SOL    HW1 3872   0.538   4.639   2.860 -0.1649  0.6853  1.2483
  991SOL    HW2 3873   0.691   4.682   2.895 -0.3227  0.8628  1.7247
  992SOL     OW 3874   3.584   5.484   3.238 -1.1371  0.2526 -0.8005
  992SOL    HW1 3875   3.541   5.574   3.238  0.0903  0.8661 -0.8585
  992SOL    HW2 3876   3.645   5.476   3.159 -0.5428 -0.2768 -0.3001
  993SOL     OW 3877   1.087   0.289   4.518 -1.4913 -0.1111 -1.0883
  993SOL    HW1 3878   1.103   0.384   4.544 -0.0425 -0.0700 -2.0518
  993SOL    HW2 3879   1.120   0.274   4.425 -1.1242 -1.7168 -0.7247
  994SOL     OW 3880   1.501   7.004   5.279  0.2299 -0.1213 -0.9317
  994SOL    HW1 3881   1.520   6.972   5.186  3.0979  2.1346 -1.2796
  994SOL    HW2 3882   1.559   7.083   5.299 -0.2726 -0.5240  2.8031
  995SOL     OW 3883   0.215   4.669   1.263 -0.1070  0.4412  0.7721
  995SOL    HW1 3884   0.160   4.742   1.304 -1.2152 -0.0360  0.1692
  995SOL    HW2 3885   0.302   4.707   1.231  1.2741  0.6672  4.3752
  996SOL     OW 3886   0.422   5.798   1.676 -0.6641 -0.5661  0.7816
  996SOL    HW1 3887   0.361   5.721   1.696 -0.3623 -1.1160 -0.3132
  996SOL    HW2 3888   0.384   5.851   1.600  0.5119 -1.3012 -0.3651
  997SOL     OW 3889   1.320   5.508   2.164  0.1506  0.1877 -0.4622
  997SOL    HW1 3890   1.306   5.562   2.082  0.2204 -0.0158 -0.6104
  997SOL    HW2 3891   1.371   5.425   2.140 -0.3015 -0.1352 -0.3042
  998SOL     OW 3892   6.567   2.068   2.702  0.4788 -0.7361  0.3890
  998SOL    HW1 3893   6.599   2.085   2.795  0.5506  0.6379  0.1242
  998SOL    HW2 3894   6.477   2.023   2.706  0.5681 -0.8663  1.1128
  999SOL     OW 3895   2.773   6.872   6.887 -0.2535  0.8582  0.4939
  999SOL    HW1 3896   2.758   6.935   6.963  0.4007 -0.8904  2.1506
  999SOL    HW2 3897   2.856   6.898   6.838 -0.8501  2.1844  0.1437
 1000SOL     OW 3898   6.467   2.235   0.918  0.0813 -0.0414  0.5323
 1000SOL    HW1 3899   6.397   2.199   0.979 -0.3152  0.1946  0.2298
 1000SOL    HW2 3900   6.423   2.291   0.847  0.4932 -0.5861 -0.1663
 1001SOL     OW 3901   0.072   5.938   0.186 -0.4324 -0.2375 -0.4902
 1001SOL    HW1 3902   0.048   5.859   0.129 -0.4982 -0.6917  0.1446
 1001SOL    HW2 3903  -0.006   6.000   0.191 -0.6450 -0.5070 -0.3980
 1002SOL     OW 3904   5.366   3.443   0.662 -0.0204  0.1636  0.2062
 1002SOL    HW1 3905   5.457   3.418   0.631  0.6604 -0.0383  2.2388
 1002SOL    HW2 3906   5.368   3.464   0.760 -1.7678  2.0956 -0.0956
 1003SOL     OW 3907   5.972   6.368   4.895 -0.3385  0.3404  0.0586
 1003SOL    HW1 3908   6.042   6.297   4.889 -0.2671  0.4979 -1.1189
 1003SOL    HW2 3909   5.940   6.375   4.990  1.5746  0.5911  0.7381
 1004SOL     OW 3910   3.249   1.036   0.296 -0.2407 -0.0125 -0.1509
 1004SOL    HW1 3911   3.263   1.087   0.380  1.2238 -0.2642 -0.2108
 1004SOL    HW2 3912   3.157   0.997   0.295 -0.0393 -0.6209  1.6740
 1005SOL     OW 3913   6.356   5.369   1.166  0.0875 -0.3251  0.2147
 1005SOL    HW1 3914   6.321   5.326   1.249  0.0853 -2.7628 -0.9554
 1005SOL    HW2 3915   6.427   5.435   1.190 -0.0884 -0.7858  2.1674
 1006SOL     OW 3916   1.147   1.422   1.655  0.1120  0.2066 -0.0919
 1006SOL    HW1 3917   1.133   1.339   1.709  0.8376  1.0306  1.4038
 1006SOL    HW2 3918   1.240   1.456   1.669 -0.8629  2.5466  1.1829
 1007SOL     OW 3919   6.397   1.614   3.552 -0.0411 -0.2302  0.3729
 1007SOL    HW1 3920   6.334   1.688   3.574  0.7778  0.2309  1.2113
 1007SOL    HW2 3921   6.490   1.648   3.551  0.5261 -1.5578  2.3877
 1008SOL     OW 3922   4.041   2.842   0.093  0.3254 -0.2719 -0.1223
 1008SOL    HW1 3923   4.007   2.748   0.096  2.3266 -1.0727 -0.7439
 1008SOL    HW2 3924   4.110   2.851   0.022  0.7646  1.4831  0.4564
 1009SOL     OW 3925   1.254   1.157   2.121  0.2702 -0.3830 -0.0099
 1009SOL    HW1 3926   1.203   1.089   2.174 -0.5253 -1.5902 -2.1735
 1009SOL    HW2 3927   1.203   1.178   2.038 -0.4473  4.3378  1.3530
 1010SOL     OW 3928   5.826   2.604   6.698 -0.6620  0.1272  0.7677
 1010SOL    HW1 3929   5.743   2.548   6.701 -0.3017 -0.6791 -1.5863
 1010SOL    HW2 3930   5.810   2.690   6.745 -2.5164 -0.3833  1.1658
 1011SOL     OW 3931   5.913   5.484   5.592  0.2899 -0.2939  0.3023
 1011SOL    HW1 3932   5.871   5.562   5.638  0.5186  0.1550 -0.2477
 1011SOL    HW2 3933   5.842   5.424   5.556  0.1056 -0.5979  1.1361
 1012SOL     OW 3934   1.197   4.956   4.628  0.2157 -1.0021  0.0772
 1012SOL    HW1 3935   1.243   4.949   4.539  0.9084  1.2401  0.2009
 1012SOL    HW2 3936   1.143   5.040   4.630 -1.0002 -1.7773  1.2697
 1013SOL     OW 3937   1.367   4.444   0.318 -0.1880  0.2294 -0.3084
 1013SOL    HW1 3938   1.302   4.378   0.281 -0.5618  1.1064 -1.2951
 1013SOL    HW2 3939   1.408   4.495   0.242  0.4195  0.8225  0.4047
 1014SOL     OW 3940   1.554   3.478   2.924 -0.3435  0.4895  0.3543
 1014SOL    HW1 3941   1.597   3.426   2.850 -2.2421  1.2683 -1.3772
 1014SOL    HW2 3942   1.522   3.416   2.995 -1.9126 -0.7230 -1.3209
 1015SOL     OW 3943   3.895   6.078   5.630  0.2624  0.0573 -0.0231
 1015SOL    HW1 3944   3.884   5.992   5.579 -0.1127  0.5278 -0.7423
 1015SOL    HW2 3945   3.977   6.072   5.687 -0.5297 -1.3230  1.0357
 1016SOL     OW 3946   3.650   1.797   4.961 -0.2421  0.0229 -0.3973
 1016SOL    HW1 3947   3.697   1.761   5.041 -1.9407 -1.9228 -0.1952
 1016SOL    HW2 3948   3.717   1.815   4.888  0.9870 -1.0340  0.4331
 1017SOL     OW 3949   0.653   2.154   6.437 -0.2719  0.3953  0.1897
 1017SOL    HW1 3950   0.592   2.207   6.379  0.3729 -0.4259 -1.3031
 1017SOL    HW2 3951   0.646   2.057   6.414  2.0385  0.3304 -0.5210
 1018SOL     OW 3952   1.060   3.069   2.986  0.3213  0.5263  0.2903
 1018SOL    HW1 3953   0.997   3.099   2.914  0.5072  0.3195  0.0417
 1018SOL    HW2 3954   1.120   2.997   2.951 -1.0226 -1.1319  1.2600
 1019SOL     OW 3955   2.640   6.409   3.667  0.1956 -0.5549  0.4921
 1019SOL    HW1 3956   2.570   6.426   3.598  0.7788  1.5557  0.3633
 1019SOL    HW2 3957   2.711   6.349   3.629 -1.1415 -2.1737  0.4147
 1020SOL     OW 3958   1.600   1.787   6.620  0.3012 -0.1938 -0.3493
 1020SOL    HW1 3959   1.504   1.803   6.641  0.3130  0.9938 -1.1234
 1020SOL    HW2 3960   1.657   1.833   6.687  0.3302  0.5903 -0.9085
 1021SOL     OW 3961   1.130   1.446   4.842 -0.3794  0.1559  0.4753
 1021SOL    HW1 3962   1.068   1.414   4.914  0.0333 -0.0756  0.7304
 1021SOL    HW2 3963   1.217   1.474   4.883  0.3141 -1.1507 -0.0650
 1022SOL     OW 3964   2.847   0.515   5.083 -0.6811  0.3274 -0.8398
 1022SOL    HW1 3965   2.930   0.531   5.137 -1.6515  0.2325  0.7318
 1022SOL    HW2 3966   2.781   0.463   5.137 -2.2871  1.5316 -1.5593
 1023SOL     OW 3967   3.332   1.783   3.084  0.0749  0.1584  0.0895
 1023SOL    HW1 3968   3.356   1.863   3.139 -1.2387 -1.2569  2.9839
 1023SOL    HW2 3969   3.392   1.707   3.108 -0.0277 -0.3120 -1.0733
 1024SOL     OW 3970   4.268   3.889   0.783 -0.0806  0.4618 -0.2147
 1024SOL    HW1 3971   4.364   3.870   0.761 -0.7580 -1.5276 -1.7339
 1024SOL    HW2 3972   4.259   3.984   0.813  1.9385  1.6352 -2.8773
 1025SOL     OW 3973   2.331   1.126   4.559 -0.2040  0.6247 -0.4118
 1025SOL    HW1 3974   2.381   1.048   4.522  0.4964  0.4638  0.8151
 1025SOL    HW2 3975   2.364   1.211   4.516  0.1524  0.3929 -0.5971
 1026SOL     OW 3976   5.201   6.017   6.571 -0.5650 -0.0690  0.0952
 1026SOL    HW1 3977   5.230   6.040   6.664  1.7369 -0.9007 -0.3725
 1026SOL    HW2 3978   5.212   5.919   6.555 -2.9409 -0.3150 -0.4234
 1027SOL     OW 3979   2.654   1.270   6.324 -0.3214 -0.8196 -0.1498
 1027SOL    HW1 3980   2.695   1.228   6.405 -4.4104 -3.7239  0.7242
 1027SOL    HW2 3981   2.724   1.280   6.253  2.6397 -1.5859  2.4514
 1028SOL     OW 3982   4.006   2.123   0.437 -0.3872 -0.4816  0.3139
 1028SOL    HW1 3983   4.031   2.204   0.383  0.8411 -1.3516 -0.4723
 1028SOL    HW2 3984   3.979   2.152   0.529 -4.5821  1.2722 -1.2203
 1029SOL     OW 3985   2.757   4.784   5.271 -0.2922  0.3128 -0.4774
 1029SOL    HW1 3986   2.737   4.747   5.180 -0.2390 -3.3633  0.8582
 1029SOL    HW2 3987   2.852   4.762   5.295 -0.1926  1.5733  0.3448
 1030SOL     OW 3988   1.060   1.477   5.757  0.2622 -0.3564  0.2905
 1030SOL    HW1 3989   1.021   1.398   5.709 -0.3467 -0.3867  0.8163
 1030SOL    HW2 3990   1.159   1.480   5.743 -0.0654  0.5403 -2.2990
 1031SOL     OW 3991   0.360   0.365   5.275 -0.7437  0.2695  0.0789
 1031SOL    HW1 3992   0.264   0.392   5.269 -0.7517  0.0716 -0.8272
 1031SOL    HW2 3993   0.418   0.447   5.265 -0.8135  0.4381  0.9767
 1032SOL     OW 3994   3.757   3.758   6.271 -0.3691 -0.0030 -0.4117
 1032SOL    HW1 3995   3.691   3.831   6.285  0.1307  0.3593  0.0834
 1032SOL    HW2 3996   3.720   3.672   6.304 -0.1693  0.3973  0.9086
 1033SOL     OW 3997   6.570   3.237   5.148 -0.2248 -0.3540  0.1142
 1033SOL    HW1 3998   6.574   3.272   5.054 -1.8753 -2.7101 -0.9345
 1033SOL    HW2 3999   6.485   3.265   5.191 -0.3895 -0.9276  0.1720
 1034SOL     OW 4000   4.435   6.048   3.860 -0.2340 -0.3165 -0.1541
 1034SOL    HW1 4001   4.408   6.144   3.870  0.5639 -0.1085  0.0424
 1034SOL    HW2 4002   4.385   5.992   3.926  0.7085  0.2333  1.0564
 1035SOL     OW 4003   0.293   6.712   1.084 -0.1849 -0.2010 -0.0081
 1035SOL    HW1 4004   0.369   6.654   1.056 -0.6645 -1.3354  0.9494
 1035SOL    HW2 4005   0.317   6.809   1.071  1.6621 -0.4982  0.8536
 1036SOL     OW 4006   1.479   2.042   6.794 -1.1076 -0.4473  0.3000
 1036SOL    HW1 4007   1.445   2.133   6.770  0.2390 -1.0682 -5.3311
 1036SOL    HW2 4008   1.412   1.973   6.766 -0.5169 -1.3348  0.9952
 1037SOL     OW 4009   6.767   4.391   1.462 -0.2607  0.3267 -0.4012
 1037SOL    HW1 4010   6.760   4.320   1.392 -0.5180 -0.2226  0.1731
 1037SOL    HW2 4011   6.854   4.380   1.511 -0.8145 -0.3191  0.4554
 1038SOL     OW 4012   3.429   1.655   6.485  0.3316 -0.0562 -0.1900
 1038SOL    HW1 4013   3.510   1.653   6.544  0.0322 -1.0786  0.2099
 1038SOL    HW2 4014   3.408   1.750   6.461  1.3530  0.2584  0.1007
 1039SOL     OW 4015   4.391   4.938   3.413  0.0885  0.1446  0.5826
 1039SOL    HW1 4016   4.452   4.890   3.476 -0.0095  0.3473  0.8322
 1039SOL    HW2 4017   4.324   4.874   3.376  0.4843 -0.0899  0.2664
 1040SOL     OW 4018   0.334   6.978   2.135  0.5121  0.3936 -0.6999
 1040SOL    HW1 4019   0.253   6.970   2.076  1.1198 -2.2212 -1.3202
 1040SOL    HW2 4020   0.312   6.941   2.225  0.9212 -0.0596 -0.7844
 1041SOL     OW 4021   4.392   4.547   6.483 -0.3472  0.9069 -0.9012
 1041SOL    HW1 4022   4.426   4.471   6.538  1.6675  0.6363 -2.3768
 1041SOL    HW2 4023   4.366   4.623   6.543 -0.8714 -0.3378  0.5079
 1042SOL     OW 4024   6.764   4.520   2.190  0.1513  0.5976 -0.1322
 1042SOL    HW1 4025   6.768   4.571   2.105  1.4124 -0.1169 -0.5197
 1042SOL    HW2 4026   6.829   4.444   2.187 -0.5028 -0.0403  1.0750
 1043SOL     OW 4027   4.967   1.415   6.061 -0.6776  0.5435 -0.5624
 1043SOL    HW1 4028   4.961   1.359   6.144 -0.4536  1.2050 -0.0820
 1043SOL    HW2 4029   4.898   1.385   5.995 -0.3171 -0.5222 -0.4692
 1044SOL     OW 4030   5.750   3.552   5.282 -0.1750 -0.6452  0.0061
 1044SOL    HW1 4031   5.745   3.510   5.372 -0.4830 -0.0782  0.2587
 1044SOL    HW2 4032   5.690   3.633   5.279 -0.1585 -0.6479 -0.6959
 1045SOL     OW 4033   3.702   6.588   0.047 -0.0905 -0.1634 -0.0247
 1045SOL    HW1 4034   3.672   6.548   0.134  0.4901 -2.0180 -0.6125
 1045SOL    HW2 4035   3.643   6.556  -0.027  0.1794  0.3753 -0.4818
 1046SOL     OW 4036   1.782   4.619   2.160  0.1574  0.0801 -0.0020
 1046SOL    HW1 4037   1.807   4.713   2.182  0.7743 -0.0015 -0.3545
 1046SOL    HW2 4038   1.751   4.573   2.243  2.0531 -0.0916  0.6547
 1047SOL     OW 4039   5.997   0.554   5.714 -0.0603  0.3083  0.4531
 1047SOL    HW1 4040   5.999   0.654   5.702 -1.0959  0.3206  0.2201
 1047SOL    HW2 4041   5.921   0.530   5.774  0.6224 -0.2998  1.0853
 1048SOL     OW 4042   1.973   5.546   3.254 -0.0082 -0.3147 -0.1166
 1048SOL    HW1 4043   1.985   5.550   3.155 -0.2213 -0.3947 -0.1453
 1048SOL    HW2 4044   2.022   5.622   3.296 -0.1951 -0.0856 -0.3109
 1049SOL     OW 4045   1.855   6.556   3.281  0.1752  0.2409  0.0429
 1049SOL    HW1 4046   1.813   6.475   3.321  0.1010  0.8487  1.2332
 1049SOL    HW2 4047   1.834   6.559   3.183  0.0517 -1.0813  0.0045
 1050SOL     OW 4048   1.432   0.925   4.452 -0.8622  0.0796  0.0292
 1050SOL    HW1 4049   1.430   0.902   4.549 -0.1524 -0.0968  0.0058
 1050SOL    HW2 4050   1.525   0.915   4.417 -0.6636  2.1122 -0.1905
 1051SOL     OW 4051   2.390   6.224   4.479  0.0745  0.6334 -0.1230
 1051SOL    HW1 4052   2.362   6.212   4.574 -0.6124  1.6723 -0.1773
 1051SOL    HW2 4053   2.416   6.135   4.441  1.6575  0.3778  1.4074
 1052SOL     OW 4054   3.083   0.762   2.758 -0.0253  0.4992 -0.4327
 1052SOL    HW1 4055   3.171   0.794   2.790 -0.3409  0.6798  0.2779
 1052SOL    HW2 4056   3.057   0.811   2.675  0.7313  0.1406 -0.8856
 1053SOL     OW 4057   6.898   5.624   0.832  0.0627  0.1660  0.5884
 1053SOL    HW1 4058   6.948   5.707   0.856  0.6159 -0.4728  1.7636
 1053SOL    HW2 4059   6.961   5.557   0.793  0.1378 -0.5643  1.8817
 1054SOL     OW 4060   0.875   6.562   5.246  0.0189  0.2341 -0.2572
 1054SOL    HW1 4061   0.828   6.649   5.263 -0.4432 -0.1159  0.2831
 1054SOL    HW2 4062   0.971   6.571   5.271 -0.6028 -0.2401  2.6415
 1055SOL     OW 4063   2.677   2.007   0.056 -0.3561  0.3889 -0.1700
 1055SOL    HW1 4064   2.772   2.022   0.081 -0.0121  0.9359 -1.7106
 1055SOL    HW2 4065   2.625   2.092   0.067 -0.4237  0.3721 -0.3486
 1056SOL     OW 4066   4.151   0.567   3.553  0.6239  0.0326 -0.2840
 1056SOL    HW1 4067   4.150   0.532   3.647  1.5285  0.0483 -0.2583
 1056SOL    HW2 4068   4.134   0.493   3.489  0.4115 -0.0538 -0.1297
 1057SOL     OW 4069   2.601   4.963   3.100  0.3473 -1.1523 -0.0166
 1057SOL    HW1 4070   2.606   4.996   3.005 -0.6735 -2.0392 -0.3957
 1057SOL    HW2 4071   2.520   4.906   3.111  1.8023 -3.1708  0.7362
 1058SOL     OW 4072   6.341   3.872   4.369 -0.4411  0.5453 -0.4854
 1058SOL    HW1 4073   6.326   3.816   4.451  1.1950 -0.5560 -0.8870
 1058SOL    HW2 4074   6.290   3.832   4.292 -0.2285  0.2946 -0.4975
 1059SOL     OW 4075   2.859   1.349   2.416 -0.0331  0.1163 -0.0590
 1059SOL    HW1 4076   2.772   1.365   2.369 -0.6124  0.5521  1.1442
 1059SOL    HW2 4077   2.848   1.278   2.485  0.8184 -0.5283 -0.5659
 1060SOL     OW 4078   4.408   3.108   1.135  0.7537  0.3583 -0.8563
 1060SOL    HW1 4079   4.392   3.135   1.040  2.1208  1.1527 -0.8810
 1060SOL    HW2 4080   4.470   3.029   1.138  0.2728 -0.0160 -0.6344
 1061SOL     OW 4081   2.745   4.455   6.240 -0.0878  0.2967 -0.3694
 1061SOL    HW1 4082   2.826   4.451   6.299  0.0864 -1.6624 -0.6690
 1061SOL    HW2 4083   2.774   4.446   6.144 -0.6500 -0.6715 -0.4618
 1062SOL     OW 4084   4.633   6.346   4.083 -0.1306  0.3101  0.1836
 1062SOL    HW1 4085   4.698   6.269   4.088 -0.5220  0.0349  1.3335
 1062SOL    HW2 4086   4.666   6.421   4.140  0.2964  1.0516 -1.0124
 1063SOL     OW 4087   3.049   6.660   1.645  0.2844 -0.3433 -0.5154
 1063SOL    HW1 4088   3.003   6.741   1.683  2.0715  0.9640 -0.9797
 1063SOL    HW2 4089   3.094   6.610   1.719  1.9468  0.9923 -0.5536
 1064SOL     OW 4090   0.373   1.211   6.121  0.4647  0.1172  0.0068
 1064SOL    HW1 4091   0.380   1.166   6.210  0.9466 -0.1664 -0.1695
 1064SOL    HW2 4092   0.429   1.294   6.121  1.3409 -0.4551 -0.3713
 1065SOL     OW 4093   2.247   0.947   4.756 -0.1276  0.1271  0.1978
 1065SOL    HW1 4094   2.158   0.978   4.789  0.3958  0.9929  0.8370
 1065SOL    HW2 4095   2.288   1.018   4.699  0.8836  0.4577  1.2945
 1066SOL     OW 4096   4.263   1.276   1.495 -0.8607  0.6710 -0.1835
 1066SOL    HW1 4097   4.262   1.180   1.465 -0.2373  0.8652 -0.8571
 1066SOL    HW2 4098   4.355   1.300   1.526 -1.0922  0.9656  0.2790
 1067SOL     OW 4099   2.443   6.755   1.681 -0.0253  0.2290  0.4954
 1067SOL    HW1 4100   2.492   6.672   1.655  0.2445  0.6606 -0.4363
 1067SOL    HW2 4101   2.507   6.819   1.724 -0.1191  0.1698  0.7264
 1068SOL     OW 4102   0.280   3.110   0.775 -0.6461 -0.3152 -0.0925
 1068SOL    HW1 4103   0.316   3.061   0.695 -1.0569 -1.0535  0.1717
 1068SOL    HW2 4104   0.180   3.116   0.768 -0.6243  0.2600  0.0136
 1069SOL     OW 4105   3.789   6.365   2.749  0.4132 -0.2369 -0.3789
 1069SOL    HW1 4106   3.716   6.361   2.681  0.5371 -0.3786 -0.5028
 1069SOL    HW2 4107   3.806   6.460   2.774  0.0457 -0.2150 -0.1985
 1070SOL     OW 4108   2.078   0.126   1.629  0.2668 -0.2680  0.0150
 1070SOL    HW1 4109   2.034   0.056   1.574 -0.8989  0.9108 -0.5909
 1070SOL    HW2 4110   2.047   0.119   1.724 -0.6092  0.0346 -0.2418
 1071SOL     OW 4111   6.154   4.267   3.920  0.0627  0.6764 -0.1360
 1071SOL    HW1 4112   6.159   4.241   4.017 -2.0574  2.2978  0.4901
 1071SOL    HW2 4113   6.147   4.185   3.864  0.1036 -0.2696  1.1900
 1072SOL     OW 4114   2.858   2.196   2.948 -0.2976 -0.1111  0.2160
 1072SOL    HW1 4115   2.826   2.234   3.035 -1.4415 -1.9058  0.6244
 1072SOL    HW2 4116   2.915   2.116   2.966  1.0828  0.6289 -0.6647
 1073SOL     OW 4117   6.724   6.791   5.318 -0.1087 -0.1255  0.0414
 1073SOL    HW1 4118   6.793   6.806   5.247  0.0255  1.8426  0.5174
 1073SOL    HW2 4119   6.714   6.693   5.335  0.3687 -0.6158 -2.1610
 1074SOL     OW 4120   6.692   4.206   0.374  0.4036 -0.2037  0.1189
 1074SOL    HW1 4121   6.628   4.175   0.304  1.4764 -2.1375 -0.0500
 1074SOL    HW2 4122   6.742   4.287   0.340 -2.5310  1.9982  0.6371
 1075SOL     OW 4123   4.072   3.170   2.872 -0.4009 -0.0474 -0.1977
 1075SOL    HW1 4124   4.064   3.193   2.969 -0.5893 -0.1979 -0.1757
 1075SOL    HW2 4125   4.118   3.081   2.863 -0.4100 -0.0471 -0.2457
 1076SOL     OW 4126   3.076   1.199   6.340 -0.6074  0.2183 -0.1188
 1076SOL    HW1 4127   3.110   1.142   6.415  0.4317 -2.4764 -2.4427
 1076SOL    HW2 4128   3.148   1.209   6.271 -1.1931  3.4347 -0.3885
 1077SOL     OW 4129   0.213   5.085   2.657 -0.2837 -0.0344  0.2507
 1077SOL    HW1 4130   0.186   5.066   2.563 -0.1173 -0.3039  0.2574
 1077SOL    HW2 4131   0.278   5.161   2.658 -2.6203  2.1127  0.3990
 1078SOL     OW 4132   5.885   6.054   1.814 -0.2983  0.4145  0.4402
 1078SOL    HW1 4133   5.848   5.972   1.856  0.7876 -0.5778 -0.4636
 1078SOL    HW2 4134   5.955   6.028   1.747  2.4186  2.1358  2.3851
 1079SOL     OW 4135   2.802   6.424   6.792 -0.3721 -0.4141  0.0962
 1079SOL    HW1 4136   2.818   6.326   6.809  1.1564 -0.5247 -1.7017
 1079SOL    HW2 4137   2.873   6.459   6.731 -0.9405  1.8303  0.6699
 1080SOL     OW 4138   5.957   4.124   3.692 -0.0409  0.0817 -0.6431
 1080SOL    HW1 4139   6.051   4.092   3.680  1.1262  2.7827  0.6663
 1080SOL    HW2 4140   5.913   4.131   3.602  0.9122 -1.3495 -1.2635
 1081SOL     OW 4141   6.892   5.101   5.276  0.3974  0.8403  0.8390
 1081SOL    HW1 4142   6.873   5.078   5.181 -1.1201  0.3676  1.2282
 1081SOL    HW2 4143   6.932   5.192   5.281  1.5184  0.4295 -0.3244
 1082SOL     OW 4144   6.887   3.794   4.107 -0.1603  0.7427  0.4407
 1082SOL    HW1 4145   6.830   3.876   4.096 -0.7915  0.0096 -2.6249
 1082SOL    HW2 4146   6.860   3.746   4.190 -0.6838  2.8914  1.6065
 1083SOL     OW 4147   0.065   6.189   3.264  0.3280 -0.3666 -0.0709
 1083SOL    HW1 4148   0.146   6.244   3.241  0.2434 -0.3473 -0.3230
 1083SOL    HW2 4149   0.062   6.108   3.205  0.0341 -0.2445 -0.2246
 1084SOL     OW 4150   6.401   4.644   1.670 -0.2287 -0.2085 -1.1421
 1084SOL    HW1 4151   6.335   4.676   1.602 -1.7044 -1.1791 -0.2225
 1084SOL    HW2 4152   6.360   4.646   1.761  1.5944  0.7447 -0.2843
 1085SOL     OW 4153   3.225   0.802   4.882 -0.2830 -0.1957  0.2410
 1085SOL    HW1 4154   3.143   0.782   4.829 -1.2376  1.0171  1.1986
 1085SOL    HW2 4155   3.233   0.737   4.958 -0.0150 -0.6934 -0.2114
 1086SOL     OW 4156   1.459   0.742   5.868  0.0809 -0.1900 -0.3671
 1086SOL    HW1 4157   1.399   0.688   5.928 -1.3568  1.7003 -0.0134
 1086SOL    HW2 4158   1.404   0.785   5.796  1.4180 -0.3476 -1.5289
 1087SOL     OW 4159   1.444   1.002   6.601  0.3817 -0.5862 -0.2197
 1087SOL    HW1 4160   1.472   0.908   6.581  1.9072  0.0299 -1.1898
 1087SOL    HW2 4161   1.383   1.035   6.529  1.0142 -0.3754 -0.6720
 1088SOL     OW 4162   4.539   0.978   5.334 -0.0124  0.1925  0.4975
 1088SOL    HW1 4163   4.571   0.956   5.242  0.2906 -1.2538  0.9338
 1088SOL    HW2 4164   4.612   1.028   5.382  0.4507 -0.4691  0.4906
 1089SOL     OW 4165   5.841   6.596   6.244 -0.3345 -0.0058  0.7566
 1089SOL    HW1 4166   5.914   6.527   6.240 -0.8804 -0.7414  2.4693
 1089SOL    HW2 4167   5.757   6.553   6.276 -0.9646  1.2600  0.8377
 1090SOL     OW 4168   1.908   4.778   4.399 -0.3137 -0.3751  0.1625
 1090SOL    HW1 4169   1.838   4.790   4.328 -0.5509  1.1540  0.6141
 1090SOL    HW2 4170   1.999   4.789   4.359 -0.4499  0.5857  0.0995
 1091SOL     OW 4171   4.143   3.514   2.559 -0.0422 -0.1252  0.1385
 1091SOL    HW1 4172   4.121   3.563   2.644 -0.4573 -0.9918  0.5374
 1091SOL    HW2 4173   4.154   3.417   2.578  2.9714  0.0278 -0.2397
 1092SOL     OW 4174   1.119   6.377   4.495 -0.6109  0.0295 -0.1040
 1092SOL    HW1 4175   1.055   6.305   4.523 -1.6521  1.1821  0.5557
 1092SOL    HW2 4176   1.135   6.439   4.571 -0.0774  0.7605 -0.7944
 1093SOL     OW 4177   5.313   3.935   4.693  0.3600  0.5544 -0.1975
 1093SOL    HW1 4178   5.258   3.931   4.777  2.2542  0.8320  1.1165
 1093SOL    HW2 4179   5.254   3.917   4.614 -1.0736 -2.0447  1.3185
 1094SOL     OW 4180   3.550   4.160   6.411  0.1886 -0.0900  0.4654
 1094SOL    HW1 4181   3.570   4.257   6.403  0.1317 -0.0752  0.5075
 1094SOL    HW2 4182   3.622   4.114   6.463  0.1461 -0.0477  0.5608
 1095SOL     OW 4183   4.565   2.629   3.264  0.2409 -0.1601  0.1463
 1095SOL    HW1 4184   4.524   2.693   3.330 -0.5027  0.4342 -0.8550
 1095SOL    HW2 4185   4.518   2.541   3.269  1.1155 -0.5988  1.3686
 1096SOL     OW 4186   6.108   0.072   0.776  0.0777 -0.0116 -0.1041
 1096SOL    HW1 4187   6.134  -0.003   0.836  2.8313  0.0002 -1.1334
 1096SOL    HW2 4188   6.135   0.051   0.682 -1.3209  1.2505 -0.8285
 1097SOL     OW 4189   2.608   5.132   5.470  0.0240 -0.1792 -0.6690
 1097SOL    HW1 4190   2.612   5.085   5.559 -0.4069 -0.0914 -0.6019
 1097SOL    HW2 4191   2.600   5.230   5.485  1.3559 -0.0371 -0.8092
 1098SOL     OW 4192   6.068   2.744   6.098 -0.1629 -0.6504 -0.2538
 1098SOL    HW1 4193   5.978   2.701   6.097  0.0306 -1.0483 -0.7043
 1098SOL    HW2 4194   6.093   2.772   6.006 -0.7416  1.4309  0.1600
 1099SOL     OW 4195   5.911   3.156   6.433  0.3678 -0.1304 -0.1920
 1099SOL    HW1 4196   5.972   3.131   6.508 -0.1926  0.3234  0.4387
 1099SOL    HW2 4197   5.820   3.177   6.470  0.3444  1.0728 -0.8693
 1100SOL     OW 4198   3.844   2.215   6.819 -0.3706  0.4348 -0.3053
 1100SOL    HW1 4199   3.820   2.125   6.855  0.4349  1.0155  1.8825
 1100SOL    HW2 4200   3.877   2.206   6.725  0.4914 -1.6551  0.1415
 1101SOL     OW 4201   6.032   6.848   3.302 -0.4151 -0.2240  0.0721
 1101SOL    HW1 4202   6.070   6.873   3.213  0.3007  0.1640  0.4772
 1101SOL    HW2 4203   5.997   6.755   3.297  0.3495 -0.5065 -0.4042
 1102SOL     OW 4204   3.391   0.960   6.172  0.7359  0.7179  0.6038
 1102SOL    HW1 4205   3.300   0.944   6.210  0.2461 -0.5040 -0.9909
 1102SOL    HW2 4206   3.411   1.058   6.175 -1.0496  1.1365  0.0951
 1103SOL     OW 4207   3.039   6.358   2.249 -0.0254  0.7195 -0.7281
 1103SOL    HW1 4208   3.000   6.445   2.220 -0.4311  1.3999  1.6241
 1103SOL    HW2 4209   2.968   6.287   2.247 -0.1631  0.8626 -0.9428
 1104SOL     OW 4210   0.561   3.136   1.342 -0.4727  0.3951 -0.1154
 1104SOL    HW1 4211   0.630   3.139   1.270 -1.1638 -1.8588 -0.9637
 1104SOL    HW2 4212   0.523   3.044   1.348 -0.2788  0.4056  3.3290
 1105SOL     OW 4213   5.352   5.603   1.837  0.1009  0.1662  0.2916
 1105SOL    HW1 4214   5.318   5.509   1.828  1.5090 -0.3079 -0.4128
 1105SOL    HW2 4215   5.426   5.604   1.905  0.2252  0.7278  0.1476
 1106SOL     OW 4216   6.613   5.576   4.510 -0.5512 -0.7435  0.5931
 1106SOL    HW1 4217   6.553   5.609   4.438 -0.3843  0.9183  1.1880
 1106SOL    HW2 4218   6.558   5.541   4.586 -0.7260 -2.2343 -0.1738
 1107SOL     OW 4219   1.668   2.949   3.310 -0.1873 -0.5025 -0.5171
 1107SOL    HW1 4220   1.725   3.022   3.348 -0.9766 -0.5897  0.9096
 1107SOL    HW2 4221   1.584   2.988   3.271  0.0269 -0.5351 -1.0231
 1108SOL     OW 4222   4.834   3.235   1.711  0.7744 -0.2849  0.7637
 1108SOL    HW1 4223   4.754   3.230   1.651  0.9253  2.4619  0.1981
 1108SOL    HW2 4224   4.807   3.214   1.805 -0.3740 -0.3803  0.4288
 1109SOL     OW 4225   2.992   6.859   6.035  0.0308 -0.3788 -0.3717
 1109SOL    HW1 4226   2.903   6.840   5.994  0.4455 -0.6991 -1.1590
 1109SOL    HW2 4227   3.039   6.772   6.055  0.4604 -0.2156 -0.6494
 1110SOL     OW 4228   0.832   2.201   3.099  0.7931  0.3432 -0.4898
 1110SOL    HW1 4229   0.794   2.249   3.020  0.6624  0.3168 -0.4422
 1110SOL    HW2 4230   0.831   2.262   3.179 -0.8772 -0.2577 -0.0149
 1111SOL     OW 4231   3.395   2.154   2.979  0.0402 -0.2123 -0.5513
 1111SOL    HW1 4232   3.375   2.105   3.063  0.8116  1.0545  0.4067
 1111SOL    HW2 4233   3.480   2.120   2.939  0.7825  0.5606  0.3207
 1112SOL     OW 4234   0.674   4.042   4.478 -0.8494  0.3272  0.2196
 1112SOL    HW1 4235   0.644   4.137   4.463 -2.2726 -0.3082 -1.3767
 1112SOL    HW2 4236   0.594   3.983   4.479  0.1685 -1.1913 -1.7032
 1113SOL     OW 4237   5.374   1.527   4.446 -0.1783  0.4595 -0.0417
 1113SOL    HW1 4238   5.415   1.529   4.537 -0.1871 -2.7283  0.1339
 1113SOL    HW2 4239   5.276   1.546   4.453 -0.2006  0.1101  0.6498
 1114SOL     OW 4240   5.511   0.812   3.356  0.3833 -0.0493  0.1706
 1114SOL    HW1 4241   5.416   0.831   3.331  0.5460 -0.7581 -1.0731
 1114SOL    HW2 4242   5.512   0.747   3.432 -0.1606 -1.3404 -0.8737
 1115SOL     OW 4243   1.227   4.558   5.808 -0.1644  0.2129 -0.4423
 1115SOL    HW1 4244   1.142   4.527   5.764 -0.7662  0.6429  0.3910
 1115SOL    HW2 4245   1.266   4.633   5.755  0.5100 -0.9424 -1.6501
 1116SOL     OW 4246   4.403   4.204   1.155 -0.8114 -0.1987  0.1791
 1116SOL    HW1 4247   4.490   4.190   1.108  0.0725  0.6433  1.5057
 1116SOL    HW2 4248   4.371   4.117   1.193  0.3768 -0.2228  1.1924
 1117SOL     OW 4249   4.224   4.849   1.726  0.4262 -0.3471  0.3843
 1117SOL    HW1 4250   4.312   4.883   1.756  0.2039 -0.1646  0.8343
 1117SOL    HW2 4251   4.210   4.874   1.630  1.4024 -1.4769 -0.0794
 1118SOL     OW 4252   6.713   6.169   1.027 -0.4176 -0.4245 -0.2796
 1118SOL    HW1 4253   6.777   6.145   1.100  0.0615 -0.2185 -0.6300
 1118SOL    HW2 4254   6.657   6.089   1.004 -1.0436 -0.3101  0.7783
 1119SOL     OW 4255   1.787   3.220   1.942 -0.3180  0.0697  0.3827
 1119SOL    HW1 4256   1.792   3.226   1.842  0.1757  0.7179  0.4401
 1119SOL    HW2 4257   1.876   3.242   1.981 -0.5854  0.1072  0.9854
 1120SOL     OW 4258   0.070   4.356   3.965 -0.0173  0.2202  0.5250
 1120SOL    HW1 4259   0.105   4.292   4.034 -1.5845 -0.1217  1.0358
 1120SOL    HW2 4260   0.044   4.442   4.009 -0.7534  0.1068  0.3219
 1121SOL     OW 4261   1.875   1.699   3.778 -0.2634  0.3586 -0.2609
 1121SOL    HW1 4262   1.787   1.695   3.826 -0.7380  0.7135 -1.0834
 1121SOL    HW2 4263   1.862   1.741   3.689  0.8966  1.1783 -0.0601
 1122SOL     OW 4264   5.021   0.974   2.134 -0.2447 -0.0553 -0.2344
 1122SOL    HW1 4265   5.082   0.898   2.111  1.6487  1.2723  0.0943
 1122SOL    HW2 4266   5.034   0.999   2.230  0.5118  1.7901 -0.7796
 1123SOL     OW 4267   6.056   1.575   6.194  0.7894 -0.2121 -0.1277
 1123SOL    HW1 4268   6.025   1.490   6.235  0.2256  0.5945  1.2074
 1123SOL    HW2 4269   6.155   1.582   6.201  0.9239 -1.1370 -1.0342
 1124SOL     OW 4270   1.899   0.104   3.469  0.5192  0.2495 -0.4151
 1124SOL    HW1 4271   1.986   0.119   3.421 -0.1526  2.1623 -1.1386
 1124SOL    HW2 4272   1.917   0.084   3.565  1.7630  2.1470 -0.1920
 1125SOL     OW 4273   5.639   0.695   5.077  0.3293  0.0030  0.3109
 1125SOL    HW1 4274   5.670   0.715   5.170 -0.6175 -1.8868  1.0717
 1125SOL    HW2 4275   5.719   0.690   5.016  1.4544 -2.7404  1.8350
 1126SOL     OW 4276   6.567   6.917   5.677 -0.7596  0.3695  0.0688
 1126SOL    HW1 4277   6.468   6.916   5.690 -1.0733 -1.1780 -1.8728
 1126SOL    HW2 4278   6.607   6.835   5.717 -0.0236  1.5650  1.9350
 1127SOL     OW 4279   6.064   6.187   5.653 -0.0762 -0.5837 -0.2532
 1127SOL    HW1 4280   6.086   6.089   5.651 -0.0669 -0.5870  0.0519
 1127SOL    HW2 4281   6.122   6.235   5.587  0.7103 -0.6256  0.3955
 1128SOL     OW 4282   3.708   5.661   4.950 -0.1406 -0.1750  0.2362
 1128SOL    HW1 4283   3.800   5.700   4.962  0.2093 -1.4584  2.0820
 1128SOL    HW2 4284   3.715   5.575   4.898 -0.1081 -0.9090  1.4198
 1129SOL     OW 4285   1.088   2.708   3.449  0.1226  0.6716 -0.2774
 1129SOL    HW1 4286   1.188   2.715   3.442  0.2184  1.2593  1.2198
 1129SOL    HW2 4287   1.050   2.798   3.473 -0.4150 -0.1450  2.2568
 1130SOL     OW 4288   6.174   0.685   1.555 -0.4950 -0.4848 -1.0486
 1130SOL    HW1 4289   6.122   0.760   1.596  0.8783  0.2364 -0.5680
 1130SOL    HW2 4290   6.142   0.598   1.593  1.3018  0.1932  2.3551
 1131SOL     OW 4291   4.229   4.586   6.207 -0.2389  0.3021 -0.2955
 1131SOL    HW1 4292   4.287   4.657   6.248 -0.7119  0.2522  0.4743
 1131SOL    HW2 4293   4.261   4.496   6.237  1.0418  0.0905 -2.1250
 1132SOL     OW 4294   5.931   2.348   4.064 -0.8668  0.6268  0.0278
 1132SOL    HW1 4295   5.946   2.364   3.966 -0.9598  2.0860  0.2340
 1132SOL    HW2 4296   5.897   2.432   4.106 -0.6784  0.0527  1.3481
 1133SOL     OW 4297   1.503   0.880   1.235  0.0291  0.2408  0.1190
 1133SOL    HW1 4298   1.491   0.976   1.209  1.2418  0.9671  2.0687
 1133SOL    HW2 4299   1.600   0.859   1.244 -0.1202 -1.6252 -1.6354
 1134SOL     OW 4300   1.500   5.188   2.627  0.1622 -0.5611  0.1410
 1134SOL    HW1 4301   1.449   5.105   2.603  0.4420 -0.9045  0.7227
 1134SOL    HW2 4302   1.439   5.267   2.623  0.0301 -0.6935 -1.0270
 1135SOL     OW 4303   0.339   5.199   3.496 -0.4711 -0.3668  0.8573
 1135SOL    HW1 4304   0.307   5.284   3.454  2.0828 -0.7337 -2.2211
 1135SOL    HW2 4305   0.386   5.220   3.581 -0.1489  1.3245  0.3048
 1136SOL     OW 4306   5.215   1.806   1.880  0.1663 -0.0102 -0.3880
 1136SOL    HW1 4307   5.250   1.715   1.854 -0.9929 -0.5856  0.0191
 1136SOL    HW2 4308   5.219   1.867   1.801  0.7042 -0.4922 -0.7391
 1137SOL     OW 4309   4.929   0.486   2.788 -0.4986 -0.3736  0.0834
 1137SOL    HW1 4310   4.848   0.452   2.739  0.0327  0.2307 -1.2625
 1137SOL    HW2 4311   4.924   0.459   2.884 -1.7686 -1.2693 -0.2152
 1138SOL     OW 4312   2.878   1.744   2.519  0.8852 -0.4601  0.1755
 1138SOL    HW1 4313   2.896   1.817   2.452  0.5680  0.0628  0.6525
 1138SOL    HW2 4314   2.803   1.687   2.487  0.4258  0.0700  0.3007
 1139SOL     OW 4315   1.267   2.035   3.321 -0.3469 -0.5533  0.0332
 1139SOL    HW1 4316   1.206   1.963   3.290 -0.2892  0.0788 -1.6642
 1139SOL    HW2 4317   1.336   2.053   3.250 -0.6240  1.4374  0.2182
 1140SOL     OW 4318   5.025   4.542   3.000  0.1290  0.4070 -0.1992
 1140SOL    HW1 4319   4.986   4.489   3.074  0.4237 -1.0164 -1.0207
 1140SOL    HW2 4320   5.125   4.545   3.009  0.2808 -0.8866 -1.2152
 1141SOL     OW 4321   1.846   1.685   1.144 -0.3998 -0.1629 -0.4212
 1141SOL    HW1 4322   1.900   1.769   1.139 -0.5586 -0.0238  0.1518
 1141SOL    HW2 4323   1.849   1.638   1.055 -0.7801  0.7364 -0.9207
 1142SOL     OW 4324   4.021   0.097   6.806 -0.1916  0.2154  0.2837
 1142SOL    HW1 4325   3.976   0.089   6.895 -4.2852 -0.9209 -1.6337
 1142SOL    HW2 4326   3.983   0.029   6.744  0.5818  2.6347 -3.0929
 1143SOL     OW 4327   6.135   4.247   2.855 -0.5476 -0.6609  0.4747
 1143SOL    HW1 4328   6.162   4.205   2.769 -0.2972 -1.7803  1.0697
 1143SOL    HW2 4329   6.152   4.345   2.852 -3.2078 -0.1601 -1.7814
 1144SOL     OW 4330   5.142   7.006   5.019  0.1383  0.5733  0.1300
 1144SOL    HW1 4331   5.241   6.991   5.025 -0.0776 -1.2590 -0.3018
 1144SOL    HW2 4332   5.101   6.934   4.964 -1.6806  0.2266  1.8270
 1145SOL     OW 4333   3.076   3.840   6.880 -0.4048  1.1050 -0.1967
 1145SOL    HW1 4334   3.038   3.861   6.970 -0.4637  1.7149 -0.3618
 1145SOL    HW2 4335   3.151   3.902   6.860 -1.2905  1.9020 -1.1560
 1146SOL     OW 4336   1.704   1.221   3.001  0.1173 -0.1205  0.2519
 1146SOL    HW1 4337   1.721   1.242   2.905 -2.4717 -0.3947 -0.3471
 1146SOL    HW2 4338   1.637   1.285   3.038 -0.1218 -0.9897  1.4084
 1147SOL     OW 4339   5.826   0.415   4.143 -0.3146 -0.5124  0.0936
 1147SOL    HW1 4340   5.869   0.496   4.183  5.0452 -2.2487 -1.2416
 1147SOL    HW2 4341   5.783   0.360   4.214 -1.0335  1.7757  1.5213
 1148SOL     OW 4342   6.430   2.416   5.670 -0.3155  0.7745  0.3495
 1148SOL    HW1 4343   6.447   2.505   5.714  1.5051  1.0616 -0.8431
 1148SOL    HW2 4344   6.338   2.416   5.630 -0.4067  2.0702  0.5019
 1149SOL     OW 4345   2.607   1.580   2.916  0.0922  0.4116  0.3246
 1149SOL    HW1 4346   2.684   1.625   2.870 -1.6829  2.3187 -0.9950
 1149SOL    HW2 4347   2.556   1.648   2.968 -0.9894 -0.7206  0.7693
 1150SOL     OW 4348   0.155   1.441   4.965 -0.6874  0.3967  0.3821
 1150SOL    HW1 4349   0.065   1.408   4.936  0.3201 -0.7406 -1.7107
 1150SOL    HW2 4350   0.190   1.506   4.898  0.7217 -0.4372  0.2642
 1151SOL     OW 4351   5.625   6.819   4.521  0.0419  0.2348 -0.1728
 1151SOL    HW1 4352   5.597   6.849   4.430  1.9360  0.6403 -0.6488
 1151SOL    HW2 4353   5.688   6.742   4.513 -1.8666 -1.5654  0.9291
 1152SOL     OW 4354   1.672   6.393   1.892 -0.4489  0.2325 -0.0764
 1152SOL    HW1 4355   1.732   6.330   1.942  0.4574 -0.1529 -1.6094
 1152SOL    HW2 4356   1.621   6.342   1.822 -3.0152  0.4364  1.4769
 1153SOL     OW 4357   5.197   0.442   4.296  0.2408  0.0495  0.2973
 1153SOL    HW1 4358   5.099   0.422   4.296  0.5043 -1.5293  2.0182
 1153SOL    HW2 4359   5.218   0.507   4.368  0.4681  0.4047 -0.0865
 1154SOL     OW 4360   1.879   2.529   3.765 -0.0052  0.1933  0.2050
 1154SOL    HW1 4361   1.871   2.474   3.848  2.3671  0.8640  0.9589
 1154SOL    HW2 4362   1.890   2.468   3.686 -0.3845 -0.4213  0.6170
 1155SOL     OW 4363   4.075   4.835   6.078  0.0658  0.6230 -0.0649
 1155SOL    HW1 4364   4.153   4.849   6.139  1.1570 -0.0157 -1.2545
 1155SOL    HW2 4365   4.051   4.738   6.076  0.4011  0.5430 -1.0250
 1156SOL     OW 4366   4.135   6.495   1.902 -0.0423 -0.0075 -0.0989
 1156SOL    HW1 4367   4.109   6.399   1.914  0.2372  0.0061  0.6705
 1156SOL    HW2 4368   4.056   6.546   1.867 -0.0500 -0.6010 -0.9807
 1157SOL     OW 4369   6.664   0.001   1.412  0.6034 -0.3087 -0.5955
 1157SOL    HW1 4370   6.704  -0.014   1.321 -0.2712  0.0111 -1.0513
 1157SOL    HW2 4371   6.720   0.067   1.462 -0.6665  2.1996 -2.2254
 1158SOL     OW 4372   2.858   6.477   0.521 -0.3452 -0.6881 -0.7092
 1158SOL    HW1 4373   2.867   6.410   0.448 -2.7116 -4.1518  1.8335
 1158SOL    HW2 4374   2.764   6.510   0.525  0.4735  1.9316 -1.0610
 1159SOL     OW 4375   2.296   0.379   2.981  0.2954 -0.3847 -0.0299
 1159SOL    HW1 4376   2.387   0.405   2.949  0.0602 -1.6844 -1.9324
 1159SOL    HW2 4377   2.229   0.447   2.951 -0.1747 -2.3102 -4.1285
 1160SOL     OW 4378   4.254   3.115   5.754  0.5515 -0.3561 -0.2301
 1160SOL    HW1 4379   4.340   3.158   5.782  1.1589 -0.9172 -1.1744
 1160SOL    HW2 4380   4.270   3.059   5.673 -0.3313 -1.8562  0.5840
 1161SOL     OW 4381   5.065   5.953   1.381  0.1656  0.4144  0.1605
 1161SOL    HW1 4382   5.037   5.944   1.477 -0.4944  0.1306 -0.0534
 1161SOL    HW2 4383   4.984   5.959   1.323  0.5616  0.4920 -0.3916
 1162SOL     OW 4384   0.442   1.043   1.632  0.0564 -0.6038  0.1928
 1162SOL    HW1 4385   0.381   1.050   1.553  0.7538  1.3245 -0.2323
 1162SOL    HW2 4386   0.395   1.079   1.713  0.6429  1.1354 -0.1883
 1163SOL     OW 4387   0.286   3.235   4.593 -0.1342 -0.3010  0.6081
 1163SOL    HW1 4388   0.335   3.234   4.506 -0.6021 -0.2885  0.3378
 1163SOL    HW2 4389   0.336   3.181   4.660  1.6606  1.9017  1.1466
 1164SOL     OW 4390   2.297   4.578   6.687  0.4256 -0.6481  0.1241
 1164SOL    HW1 4391   2.226   4.625   6.740 -0.1212  0.1357 -1.2486
 1164SOL    HW2 4392   2.287   4.479   6.700 -0.9533 -0.5590 -0.0504
 1165SOL     OW 4393   1.140   6.305   2.027 -0.1974  0.0149 -0.6816
 1165SOL    HW1 4394   1.136   6.212   1.990 -0.5083  0.0202 -0.6637
 1165SOL    HW2 4395   1.149   6.300   2.126 -0.1713  0.0032 -0.6845
 1166SOL     OW 4396   5.303   3.240   6.107 -0.2236  0.3016  0.6521
 1166SOL    HW1 4397   5.386   3.188   6.126  0.5131  0.9738 -0.5529
 1166SOL    HW2 4398   5.280   3.297   6.186  0.4921  0.1331  0.9885
 1167SOL     OW 4399   4.750   5.322   2.280 -0.3206  0.3426 -0.1459
 1167SOL    HW1 4400   4.654   5.311   2.305 -0.8089 -0.5923 -2.1895
 1167SOL    HW2 4401   4.787   5.233   2.253  0.7697  0.8983 -0.5465
 1168SOL     OW 4402   1.288   5.600   0.525 -0.0162 -0.2898  0.0058
 1168SOL    HW1 4403   1.368   5.608   0.466 -0.2775  1.8674 -0.1514
 1168SOL    HW2 4404   1.208   5.579   0.469 -0.3469  2.1879 -0.5994
 1169SOL     OW 4405   1.725   0.333   1.558  0.2958 -0.4836 -0.3105
 1169SOL    HW1 4406   1.781   0.333   1.475 -1.0376  0.3046 -1.2334
 1169SOL    HW2 4407   1.709   0.427   1.588 -0.5477 -0.6941 -0.0678
 1170SOL     OW 4408   4.732   0.273   5.396 -0.4550  0.1995  0.3636
 1170SOL    HW1 4409   4.778   0.362   5.387 -1.1123  0.9239  3.1846
 1170SOL    HW2 4410   4.784   0.204   5.345  1.1740  1.8021 -0.2847
 1171SOL     OW 4411   1.104   2.026   5.094 -0.2917  0.3690 -0.3284
 1171SOL    HW1 4412   1.111   2.126   5.092  0.8587  0.3485  0.8214
 1171SOL    HW2 4413   1.140   1.988   5.009  1.8764  0.8701  0.2805
 1172SOL     OW 4414   5.593   3.596   4.635  0.3263  0.4748 -0.7589
 1172SOL    HW1 4415   5.611   3.501   4.610 -0.2229 -0.3577  1.6811
 1172SOL    HW2 4416   5.566   3.600   4.731  0.1053  3.0999 -0.8611
 1173SOL     OW 4417   1.819   4.950   0.641 -0.3177  0.3924  0.2694
 1173SOL    HW1 4418   1.883   4.878   0.669 -0.4174  0.6760  1.2391
 1173SOL    HW2 4419   1.833   5.032   0.696 -0.3689  1.0547 -0.6700
 1174SOL     OW 4420   3.589   0.126   4.467  0.2963  0.4049  0.4503
 1174SOL    HW1 4421   3.598   0.081   4.378  0.5743  0.1592  0.5982
 1174SOL    HW2 4422   3.523   0.201   4.460 -2.4012 -1.7708  0.8726
 1175SOL     OW 4423   3.667   6.257   2.382 -0.0817 -0.2291 -0.0521
 1175SOL    HW1 4424   3.763   6.268   2.407  0.4151 -1.6684 -1.1981
 1175SOL    HW2 4425   3.626   6.348   2.372  0.6329  0.4113  2.1995
 1176SOL     OW 4426   6.084   4.502   5.283  0.0942 -0.2633  0.1749
 1176SOL    HW1 4427   6.106   4.526   5.188  2.0782  1.3988  0.9556
 1176SOL    HW2 4428   5.991   4.532   5.304  0.1718  0.7776 -0.8326
 1177SOL     OW 4429   3.813   6.062   5.323  0.0396  0.3691  0.4829
 1177SOL    HW1 4430   3.719   6.060   5.357 -0.5794  0.8443 -1.0949
 1177SOL    HW2 4431   3.852   6.152   5.340  0.4146  0.0055  1.6169
 1178SOL     OW 4432   6.725   3.823   2.225 -0.1470 -0.3496 -0.7285
 1178SOL    HW1 4433   6.815   3.865   2.221 -0.0177 -0.5407 -0.0188
 1178SOL    HW2 4434   6.713   3.763   2.146 -0.4069  1.1190 -1.8515
 1179SOL     OW 4435   5.525   0.429   6.860 -0.5349  0.3934 -0.1634
 1179SOL    HW1 4436   5.615   0.390   6.842 -0.3349  0.1330  1.2816
 1179SOL    HW2 4437   5.527   0.528   6.843 -0.4917  0.1248 -1.8679
 1180SOL     OW 4438   2.271   4.060   4.102 -0.3537  0.5971 -0.4720
 1180SOL    HW1 4439   2.319   4.025   4.022 -0.1773  2.2421 -1.1420
 1180SOL    HW2 4440   2.187   4.008   4.117  0.2349 -0.5280 -0.9570
 1181SOL     OW 4441   1.962   5.235   6.445  0.9463 -0.3571  0.1927
 1181SOL    HW1 4442   2.061   5.242   6.431  0.7340 -0.4987 -1.6805
 1181SOL    HW2 4443   1.915   5.293   6.378 -0.2451 -0.4441  0.9350
 1182SOL     OW 4444   2.517   2.517   1.164 -0.5206 -0.1026 -0.1918
 1182SOL    HW1 4445   2.559   2.607   1.158 -1.6293  0.3586 -2.5561
 1182SOL    HW2 4446   2.587   2.446   1.171  0.4213  0.8703  0.2479
 1183SOL     OW 4447   6.322   2.195   5.365  0.4343 -0.7395 -0.7550
 1183SOL    HW1 4448   6.370   2.134   5.429  1.0666  0.7918  0.2960
 1183SOL    HW2 4449   6.235   2.224   5.406  0.9406  0.4196 -0.4481
 1184SOL     OW 4450   6.113   5.488   4.770  0.0412  0.6072 -0.1533
 1184SOL    HW1 4451   6.116   5.568   4.710  0.2738  0.6914 -0.0287
 1184SOL    HW2 4452   6.054   5.418   4.729  0.3220  0.6036 -0.5588
 1185SOL     OW 4453   2.914   6.042   4.976  0.1871  0.8714 -0.1993
 1185SOL    HW1 4454   3.004   6.085   4.969  0.1703  0.7810 -1.1002
 1185SOL    HW2 4455   2.850   6.103   5.023  1.1186  0.2858  1.9841
 1186SOL     OW 4456   4.591   1.734   1.819 -0.5730  0.8722  0.3463
 1186SOL    HW1 4457   4.686   1.762   1.835 -0.6952  1.0336  0.7907
 1186SOL    HW2 4458   4.529   1.794   1.869 -0.8958  0.5757  0.3072
 1187SOL     OW 4459   3.712   3.610   0.543  0.2436 -0.6948  0.3533
 1187SOL    HW1 4460   3.808   3.633   0.560  0.3963 -2.0735  1.5093
 1187SOL    HW2 4461   3.653   3.670   0.597  0.5563 -1.4650  1.5831
 1188SOL     OW 4462   4.789   0.483   5.798 -0.0267 -0.3527  0.2631
 1188SOL    HW1 4463   4.755   0.419   5.730 -1.2557  0.3929  0.1386
 1188SOL    HW2 4464   4.714   0.510   5.859  0.3473  1.2386  0.0762
 1189SOL     OW 4465   1.550   3.181   0.685 -0.0708  0.1194  0.7382
 1189SOL    HW1 4466   1.618   3.160   0.755 -0.6865  3.0235  2.4014
 1189SOL    HW2 4467   1.590   3.240   0.615 -0.3488  0.1480  0.5993
 1190SOL     OW 4468   0.384   2.445   3.220 -0.1204  0.4079  0.1740
 1190SOL    HW1 4469   0.404   2.475   3.126  0.1679 -3.1410 -1.0472
 1190SOL    HW2 4470   0.286   2.454   3.238  0.2414  4.6718  1.0683
 1191SOL     OW 4471   0.346   2.087   0.954 -0.3860  0.3228 -0.1832
 1191SOL    HW1 4472   0.329   2.112   0.859 -0.4833 -0.0959 -0.2776
 1191SOL    HW2 4473   0.268   2.036   0.990  0.5210 -1.4653 -0.5735
 1192SOL     OW 4474   4.243   1.667   6.526  0.2482  0.4648  0.3212
 1192SOL    HW1 4475   4.326   1.644   6.576  0.3695  1.7533  0.7443
 1192SOL    HW2 4476   4.201   1.748   6.567 -1.2198 -0.1597  0.1106
 1193SOL     OW 4477   3.536   0.097   2.007 -0.0464  0.3476 -0.2099
 1193SOL    HW1 4478   3.614   0.095   2.069  0.1720 -0.0957 -0.4933
 1193SOL    HW2 4479   3.522   0.190   1.973 -0.2348  0.6124  0.5855
 1194SOL     OW 4480   1.713   2.194   5.193  0.0641  0.3913  1.0762
 1194SOL    HW1 4481   1.635   2.178   5.254 -0.2633 -0.4009  0.4572
 1194SOL    HW2 4482   1.740   2.291   5.198  0.0948  0.3317  2.5256
 1195SOL     OW 4483   6.603   5.925   5.639  0.3558 -0.1576 -0.1632
 1195SOL    HW1 4484   6.629   5.831   5.619  1.4690  0.2306 -0.5896
 1195SOL    HW2 4485   6.593   5.936   5.738  0.9747 -0.5385 -0.0549
 1196SOL     OW 4486   5.124   6.686   5.248 -0.0743 -0.5931  0.1046
 1196SOL    HW1 4487   5.049   6.748   5.269  0.1991  0.2015 -1.1861
 1196SOL    HW2 4488   5.211   6.727   5.275  0.1074 -0.3730 -0.7664
 1197SOL     OW 4489   6.304   6.526   5.282  0.5539 -0.0790  0.4382
 1197SOL    HW1 4490   6.300   6.626   5.293  1.9745  0.0094  0.3305
 1197SOL    HW2 4491   6.318   6.504   5.185  2.2000 -0.2708  0.6786
 1198SOL     OW 4492   6.930   3.947   5.825 -0.1835 -0.4294  0.3937
 1198SOL    HW1 4493   6.873   3.891   5.765  1.2739 -1.9774  0.3786
 1198SOL    HW2 4494   7.007   3.983   5.772  0.3240 -0.6035  1.0084
 1199SOL     OW 4495   6.301   3.248   3.224  0.0732 -0.5730  0.1157
 1199SOL    HW1 4496   6.339   3.336   3.196 -0.8774 -0.1904  0.0205
 1199SOL    HW2 4497   6.213   3.234   3.180 -0.8747 -0.5251  1.9351
 1200SOL     OW 4498   3.759   5.343   2.709  1.0396 -0.5307 -0.4208
 1200SOL    HW1 4499   3.783   5.250   2.738 -0.1039 -0.5127  0.6838
 1200SOL    HW2 4500   3.802   5.363   2.621  2.1449 -1.7259 -0.1769
 1201SOL     OW 4501   1.732   6.136   5.163 -0.1719 -0.1064 -0.2915
 1201SOL    HW1 4502   1.779   6.095   5.085 -0.9176 -1.0317 -0.2816
 1201SOL    HW2 4503   1.700   6.063   5.224 -0.9845  0.5189  0.0496
 1202SOL     OW 4504   0.517   6.937   4.116  0.0291  0.1640  0.1683
 1202SOL    HW1 4505   0.552   6.853   4.075  0.6749 -1.5158  3.7523
 1202SOL    HW2 4506   0.581   7.012   4.098  1.4438 -1.0320  0.0289
 1203SOL     OW 4507   6.048   1.903   4.707 -0.1514 -0.0486  0.7534
 1203SOL    HW1 4508   6.039   1.997   4.740 -1.0409 -0.0270  0.4888
 1203SOL    HW2 4509   5.999   1.841   4.768 -1.2944 -0.0806 -0.1467
 1204SOL     OW 4510   0.561   3.800   5.890 -0.1179 -0.0508  0.0372
 1204SOL    HW1 4511   0.606   3.737   5.826 -0.9206 -0.5731 -0.0256
 1204SOL    HW2 4512   0.504   3.864   5.838 -1.2443 -0.8563  0.2459
 1205SOL     OW 4513   1.844   2.778   1.382 -0.4527  0.5576 -0.0752
 1205SOL    HW1 4514   1.752   2.784   1.343  0.0786  0.4712 -1.3666
 1205SOL    HW2 4515   1.837   2.747   1.477 -1.8007  1.2420  0.0763
 1206SOL     OW 4516   3.867   3.066   3.843 -0.3245  0.0756 -0.1477
 1206SOL    HW1 4517   3.960   3.084   3.812 -0.7169 -1.0222 -2.1722
 1206SOL    HW2 4518   3.802   3.102   3.775 -1.3789  0.5665  1.0815
 1207SOL     OW 4519   6.566   6.272   5.858  0.4665  0.1260 -0.5196
 1207SOL    HW1 4520   6.468   6.280   5.875  0.4018 -1.3528 -0.0657
 1207SOL    HW2 4521   6.616   6.292   5.942  0.4198 -1.3130 -0.1142
 1208SOL     OW 4522   6.803   6.987   6.545 -0.6502  0.6707 -0.7784
 1208SOL    HW1 4523   6.875   7.048   6.578 -0.4065  1.6957 -3.0188
 1208SOL    HW2 4524   6.806   6.983   6.445 -3.1385  0.0149 -0.8884
 1209SOL     OW 4525   5.636   2.976   4.526 -0.8762 -0.1090 -0.2722
 1209SOL    HW1 4526   5.733   2.965   4.504 -1.1488  1.7480 -2.9280
 1209SOL    HW2 4527   5.625   3.049   4.594 -0.4464  0.8814 -1.2274
 1210SOL     OW 4528   2.346   0.218   6.016  0.2410  0.4369  0.4977
 1210SOL    HW1 4529   2.354   0.125   5.981  0.9204  0.4376  0.6357
 1210SOL    HW2 4530   2.352   0.283   5.939  2.2500  0.4603  0.6207
 1211SOL     OW 4531   3.269   0.426   4.111  0.9881 -0.3945 -0.3291
 1211SOL    HW1 4532   3.181   0.445   4.154  1.1538 -1.2302  0.3988
 1211SOL    HW2 4533   3.275   0.476   4.025 -0.0625 -0.0660 -0.2253
 1212SOL     OW 4534   1.650   6.652   0.802  0.3506 -0.0469 -0.2805
 1212SOL    HW1 4535   1.675   6.739   0.844 -0.5604  0.4651 -0.7709
 1212SOL    HW2 4536   1.632   6.585   0.874 -0.5246  0.6327  0.1548
 1213SOL     OW 4537   1.508   2.666   4.124 -0.2445  0.4037 -0.4270
 1213SOL    HW1 4538   1.523   2.747   4.067  2.9854 -0.0425 -0.3965
 1213SOL    HW2 4539   1.493   2.587   4.065  1.1031  0.2979 -0.6769
 1214SOL     OW 4540   3.150   0.000   0.985  0.6469 -0.4745  0.0520
 1214SOL    HW1 4541   3.137  -0.098   0.973 -0.2141 -0.4479  0.6653
 1214SOL    HW2 4542   3.171   0.019   1.081 -0.7209  0.0748  0.2675
 1215SOL     OW 4543   4.027   3.872   5.673  0.5774  0.3695 -0.2510
 1215SOL    HW1 4544   3.968   3.919   5.607  2.3055  0.9173 -1.4860
 1215SOL    HW2 4545   3.982   3.790   5.707 -1.3132  1.3513 -0.2979
 1216SOL     OW 4546   0.694   3.057   1.575 -0.0440  0.0097 -0.1073
 1216SOL    HW1 4547   0.679   3.071   1.477 -0.1657 -0.4616 -0.1610
 1216SOL    HW2 4548   0.634   2.984   1.608 -0.9002  0.9927  0.5877
 1217SOL     OW 4549   6.954   3.005   5.977 -0.7429 -0.2123 -0.4863
 1217SOL    HW1 4550   6.995   2.993   5.887 -0.1810  1.3474 -0.4560
 1217SOL    HW2 4551   6.910   3.094   5.983 -0.0249  0.0744  1.0658
 1218SOL     OW 4552   6.944   4.554   4.477 -0.2100 -0.0234 -0.5002
 1218SOL    HW1 4553   6.934   4.635   4.534  2.8280  0.6918 -0.8149
 1218SOL    HW2 4554   7.039   4.522   4.481 -1.2048 -3.3940 -0.6720
 1219SOL     OW 4555   4.751   1.898   3.394  0.0183  0.1000  0.3557
 1219SOL    HW1 4556   4.793   1.849   3.317  3.1526 -1.8711  3.0365
 1219SOL    HW2 4557   4.816   1.965   3.430 -0.2793 -0.8083  2.7698
 1220SOL     OW 4558   4.515   2.493   3.576  0.1548  0.2491  0.1283
 1220SOL    HW1 4559   4.595   2.437   3.598  0.5743  0.4056 -0.9679
 1220SOL    HW2 4560   4.526   2.584   3.615  1.4478  0.9131 -1.6575
 1221SOL     OW 4561   4.627   0.562   2.778 -0.2785 -0.5817 -0.1462
 1221SOL    HW1 4562   4.591   0.470   2.787 -0.4120 -0.5006  0.1967
 1221SOL    HW2 4563   4.570   0.625   2.830  0.1192 -0.3915  0.0667
 1222SOL     OW 4564   1.944   3.463   6.551 -0.0102  0.2197  0.2597
 1222SOL    HW1 4565   1.898   3.542   6.591  0.3452  0.1534  0.8045
 1222SOL    HW2 4566   1.985   3.408   6.623 -2.5147 -1.9535  0.1862
 1223SOL     OW 4567   2.497   0.645   4.557 -0.7416 -0.5356 -0.3423
 1223SOL    HW1 4568   2.480   0.565   4.500  1.8976 -2.1134  0.8622
 1223SOL    HW2 4569   2.444   0.638   4.641 -2.7591  0.5556 -1.4560
 1224SOL     OW 4570   3.812   3.004   5.087  0.1639 -0.1411  0.6846
 1224SOL    HW1 4571   3.715   3.000   5.112  0.4739 -1.3499  1.7880
 1224SOL    HW2 4572   3.867   2.963   5.160  1.6278  1.6537  0.6733
 1225SOL     OW 4573   0.476   4.797   5.067 -0.1998 -0.4887  0.3770
 1225SOL    HW1 4574   0.566   4.833   5.092  0.3725 -1.2911 -0.4373
 1225SOL    HW2 4575   0.408   4.871   5.069  0.7449  0.4261 -0.3263
 1226SOL     OW 4576   3.262   3.026   0.631  0.1729  0.1402 -0.3697
 1226SOL    HW1 4577   3.217   3.075   0.556 -0.2382 -1.7635 -1.4493
 1226SOL    HW2 4578   3.193   2.985   0.690  0.4879 -0.4659 -0.4137
 1227SOL     OW 4579   4.926   3.886   5.969 -0.0433 -0.1033 -0.5410
 1227SOL    HW1 4580   4.850   3.915   5.910 -1.6465 -0.5858  1.2079
 1227SOL    HW2 4581   4.906   3.797   6.010  0.8521  0.3515  0.9925
 1228SOL     OW 4582   0.610   3.247   4.792 -0.1871 -0.6491 -0.0016
 1228SOL    HW1 4583   0.654   3.326   4.749  0.8962 -1.7636 -1.0177
 1228SOL    HW2 4584   0.599   3.265   4.890 -1.4699  1.3987 -0.4431
 1229SOL     OW 4585   2.287   5.242   2.241  0.0814 -0.2863  0.0902
 1229SOL    HW1 4586   2.223   5.319   2.232  0.2829 -0.2183 -0.8930
 1229SOL    HW2 4587   2.282   5.185   2.159  2.9625  1.0199 -1.1264
 1230SOL     OW 4588   4.775   1.536   3.440  0.0645  0.5498 -0.7134
 1230SOL    HW1 4589   4.802   1.472   3.368 -1.0603  1.3707 -1.9208
 1230SOL    HW2 4590   4.675   1.548   3.438 -0.0370  0.2593  1.2931
 1231SOL     OW 4591   1.033   1.606   2.522  0.1812  0.7836 -0.1067
 1231SOL    HW1 4592   1.045   1.572   2.615  0.9091 -2.4192 -1.2428
 1231SOL    HW2 4593   0.937   1.598   2.496  0.4180 -1.1172 -0.5330
 1232SOL     OW 4594   1.854   5.093   5.529  0.0971  0.3561  0.9846
 1232SOL    HW1 4595   1.917   5.030   5.575 -1.0043 -1.0942  0.5726
 1232SOL    HW2 4596   1.851   5.071   5.432 -1.4051  0.0818  1.0773
 1233SOL     OW 4597   1.567   2.915   1.059 -0.4040 -0.0164 -0.7506
 1233SOL    HW1 4598   1.540   2.874   1.146 -3.3688  2.6349 -0.2125
 1233SOL    HW2 4599   1.548   2.851   0.985 -2.1966 -0.7257  0.2500
 1234SOL     OW 4600   0.757   3.264   3.912  0.1469 -0.0830 -0.3323
 1234SOL    HW1 4601   0.737   3.230   4.004  0.2934 -0.4320 -0.4273
 1234SOL    HW2 4602   0.677   3.310   3.874  0.5850  1.5902  0.6345
 1235SOL     OW 4603   3.507   6.503   2.626 -0.3701  0.0112 -0.7436
 1235SOL    HW1 4604   3.425   6.469   2.672  0.9840 -0.5667  1.3902
 1235SOL    HW2 4605   3.548   6.576   2.680  0.9239 -0.2226 -1.3578
 1236SOL     OW 4606   4.527   4.320   0.539 -0.3572  0.0477  0.1941
 1236SOL    HW1 4607   4.547   4.225   0.561  0.7664  0.1891 -0.1671
 1236SOL    HW2 4608   4.594   4.354   0.473 -0.7354  1.0918  0.3267
 1237SOL     OW 4609   0.454   1.261   0.863  0.0670  0.4437  0.3280
 1237SOL    HW1 4610   0.403   1.252   0.948  1.7837  1.1455  1.5047
 1237SOL    HW2 4611   0.469   1.357   0.843  1.6246  0.2719  0.5070
 1238SOL     OW 4612   3.695   0.314   5.385 -0.0522  0.2016  0.3652
 1238SOL    HW1 4613   3.691   0.406   5.344 -0.6996 -0.5583 -1.3925
 1238SOL    HW2 4614   3.604   0.271   5.379  0.8965 -1.6846 -1.6815
 1239SOL     OW 4615   3.108   5.526   6.251  0.2244 -0.2644 -0.2347
 1239SOL    HW1 4616   3.024   5.473   6.263 -0.5531  1.1900  1.1462
 1239SOL    HW2 4617   3.090   5.601   6.187  0.3383  0.2918  0.3798
 1240SOL     OW 4618   2.391   3.915   6.120  0.0452 -0.0354 -0.6633
 1240SOL    HW1 4619   2.451   3.987   6.156 -0.4083  0.0743 -0.1169
 1240SOL    HW2 4620   2.354   3.861   6.196 -1.0040  0.2602 -0.9500
 1241SOL     OW 4621   1.411   3.334   1.967  0.4641 -0.6216  0.5961
 1241SOL    HW1 4622   1.401   3.374   1.876  2.2141  1.0967  1.0823
 1241SOL    HW2 4623   1.349   3.381   2.031  1.1973  0.0723  0.8076
 1242SOL     OW 4624   0.104   3.512   2.329 -0.3275  0.2822 -0.2747
 1242SOL    HW1 4625   0.021   3.551   2.368  0.9987  1.0029  2.0096
 1242SOL    HW2 4626   0.151   3.581   2.274  0.8773  1.3320  1.9466
 1243SOL     OW 4627   5.363   3.104   2.056  0.2393  0.1692  0.2791
 1243SOL    HW1 4628   5.416   3.186   2.081 -0.6092  0.5621  0.8210
 1243SOL    HW2 4629   5.280   3.100   2.111  1.0326 -1.9211  1.4688
 1244SOL     OW 4630   1.237   5.923   1.770  0.1784 -0.3678  0.4602
 1244SOL    HW1 4631   1.239   5.845   1.707  1.7134 -0.9688  1.2134
 1244SOL    HW2 4632   1.253   6.007   1.719 -1.1642 -0.5437 -0.3116
 1245SOL     OW 4633   3.390   3.244   1.800 -0.0850  0.3809 -0.0861
 1245SOL    HW1 4634   3.306   3.276   1.844 -0.3955  1.2474 -1.2680
 1245SOL    HW2 4635   3.412   3.152   1.834 -2.9904 -1.0325 -1.6705
 1246SOL     OW 4636   4.653   3.004   0.862  0.4131 -0.2857  0.3158
 1246SOL    HW1 4637   4.644   3.033   0.766  1.1816 -1.1217 -0.0160
 1246SOL    HW2 4638   4.587   2.931   0.880  0.5505 -0.4140  0.3023
 1247SOL     OW 4639   0.985   2.497   2.620 -0.2517 -0.2272 -0.0690
 1247SOL    HW1 4640   0.925   2.417   2.628  1.3341 -1.5442 -0.7260
 1247SOL    HW2 4641   1.026   2.498   2.529 -1.6758  2.4448 -0.7795
 1248SOL     OW 4642   1.218   0.777   0.909  0.3045 -0.4104 -0.6444
 1248SOL    HW1 4643   1.261   0.727   0.985 -1.4090  0.7567  1.1975
 1248SOL    HW2 4644   1.259   0.868   0.903 -0.4369 -0.0464 -0.2584
 1249SOL     OW 4645   2.092   2.600   5.177  0.1672  0.0490 -0.2222
 1249SOL    HW1 4646   2.170   2.638   5.127  0.8144  0.9920  1.4186
 1249SOL    HW2 4647   2.113   2.599   5.275 -1.2969 -1.1365  0.1073
 1250SOL     OW 4648   2.832   5.110   4.553  0.7118  0.3644 -0.1617
 1250SOL    HW1 4649   2.909   5.054   4.522  0.3208 -0.9063  1.0470
 1250SOL    HW2 4650   2.839   5.125   4.652 -1.9951 -2.2361  0.5859
 1251SOL     OW 4651   0.536   4.847   2.587 -0.1473 -0.3109 -0.1682
 1251SOL    HW1 4652   0.634   4.839   2.606 -0.3755  0.5301  1.5602
 1251SOL    HW2 4653   0.499   4.757   2.565  1.2154 -0.4663 -2.0971
 1252SOL     OW 4654   2.983   5.455   2.930 -0.2531 -0.4217  0.2222
 1252SOL    HW1 4655   3.072   5.489   2.961  1.3774 -0.9548 -3.4029
 1252SOL    HW2 4656   2.979   5.356   2.940 -0.7475 -0.3382  0.9644
 1253SOL     OW 4657   5.448   5.742   3.512 -0.0429  0.1709 -0.2828
 1253SOL    HW1 4658   5.459   5.644   3.528 -2.0167 -0.1713 -0.7613
 1253SOL    HW2 4659   5.518   5.773   3.447  0.4254 -0.9776 -0.3453
 1254SOL     OW 4660   4.630   1.751   4.251  0.7550 -0.0215 -0.0888
 1254SOL    HW1 4661   4.582   1.694   4.184 -0.0878 -1.8819  1.9797
 1254SOL    HW2 4662   4.578   1.834   4.267 -0.2305 -0.6126 -0.1238
 1255SOL     OW 4663   6.041   6.726   1.897  0.2667 -0.4683  0.7835
 1255SOL    HW1 4664   6.018   6.761   1.806 -1.1795 -1.8543  0.5714
 1255SOL    HW2 4665   6.004   6.634   1.908  1.4407 -0.7987  2.3663
 1256SOL     OW 4666   6.615   0.330   5.267  0.2597  0.8556 -0.4695
 1256SOL    HW1 4667   6.528   0.354   5.224  0.7568  0.4299 -1.7626
 1256SOL    HW2 4668   6.632   0.390   5.345 -1.5648  0.4197  0.3067
 1257SOL     OW 4669   6.491   3.160   4.102 -0.4800  0.1906 -0.5609
 1257SOL    HW1 4670   6.485   3.259   4.112  3.3314  0.5128 -0.0001
 1257SOL    HW2 4671   6.524   3.138   4.010  2.9516 -0.1161  0.5966
 1258SOL     OW 4672   6.615   6.042   3.457  0.1244  0.0281  0.0950
 1258SOL    HW1 4673   6.598   6.058   3.360  0.7891 -0.5903 -0.1241
 1258SOL    HW2 4674   6.711   6.058   3.478 -0.1657  0.9441  0.8191
 1259SOL     OW 4675   0.152   6.607   5.762  0.1247 -0.1831  0.4335
 1259SOL    HW1 4676   0.068   6.555   5.776  0.7637 -1.5192 -0.4338
 1259SOL    HW2 4677   0.151   6.648   5.670  0.6662 -0.7461  0.1641
 1260SOL     OW 4678   2.152   4.479   0.339  0.7102 -0.0037  0.1130
 1260SOL    HW1 4679   2.185   4.402   0.284  1.8944  0.0076  0.7825
 1260SOL    HW2 4680   2.224   4.509   0.402  0.3311  1.7556 -0.2350
 1261SOL     OW 4681   6.589   6.348   3.628  0.0063 -0.5272 -0.5012
 1261SOL    HW1 4682   6.655   6.292   3.679 -0.7539 -1.2667 -0.3184
 1261SOL    HW2 4683   6.639   6.408   3.566  0.8542 -1.1971 -0.4967
 1262SOL     OW 4684   6.473   6.183   0.347  0.2549  0.1093 -0.5694
 1262SOL    HW1 4685   6.476   6.083   0.359  0.2057  0.1761  0.0491
 1262SOL    HW2 4686   6.453   6.226   0.435 -1.2772  0.5829 -1.1177
 1263SOL     OW 4687   3.860   6.933   6.651 -0.5271 -0.1939  0.0301
 1263SOL    HW1 4688   3.816   6.852   6.688 -0.5996 -0.1371  0.0679
 1263SOL    HW2 4689   3.866   6.926   6.551 -1.5305  0.2434 -0.0713
 1264SOL     OW 4690   6.588   6.901   6.025 -0.0431 -0.0651  0.0539
 1264SOL    HW1 4691   6.685   6.880   6.013  0.0104 -0.5460  1.1829
 1264SOL    HW2 4692   6.534   6.818   6.009 -0.1226 -0.2225  1.0995
 1265SOL     OW 4693   0.023   5.289   3.972 -0.0746  0.3828 -0.6066
 1265SOL    HW1 4694  -0.000   5.386   3.963 -0.3750  0.4121  0.3258
 1265SOL    HW2 4695  -0.037   5.247   4.041 -2.0666 -1.2045 -3.1246
 1266SOL     OW 4696   3.458   4.140   1.529 -1.4644  0.4083 -0.2821
 1266SOL    HW1 4697   3.463   4.205   1.454  2.2465 -0.2504 -0.7797
 1266SOL    HW2 4698   3.416   4.183   1.608 -0.9652  2.7534 -1.2215
 1267SOL     OW 4699   1.356   3.916   0.862 -0.0916 -0.3993  0.1057
 1267SOL    HW1 4700   1.285   3.969   0.817  0.2535  1.0669  1.2304
 1267SOL    HW2 4701   1.443   3.929   0.813  0.0964  0.4766  0.6684
 1268SOL     OW 4702   6.165   5.921   6.670 -0.2974 -0.2095  0.0565
 1268SOL    HW1 4703   6.144   5.824   6.681  2.9385 -1.1108 -0.6017
 1268SOL    HW2 4704   6.233   5.948   6.739  0.2009  1.0722 -0.8976
 1269SOL     OW 4705   1.715   6.858   0.990 -0.1263 -0.0743 -0.4362
 1269SOL    HW1 4706   1.758   6.847   1.079 -4.3782 -0.2051  1.8657
 1269SOL    HW2 4707   1.711   6.955   0.966 -0.1837  0.0778  0.1928
 1270SOL     OW 4708   4.406   6.677   5.872 -0.0166 -0.0703  0.4910
 1270SOL    HW1 4709   4.400   6.776   5.873  0.0168 -0.0722  1.0712
 1270SOL    HW2 4710   4.483   6.649   5.814 -0.3991  0.2157 -0.1683
 1271SOL     OW 4711   0.617   0.492   0.126  0.0282  0.4420  0.1032
 1271SOL    HW1 4712   0.643   0.575   0.077 -0.5914  0.0700 -0.8844
 1271SOL    HW2 4713   0.582   0.516   0.217  0.6999  1.1781  0.1747
 1272SOL     OW 4714   2.331   6.826   6.670  0.0675 -0.1262  0.3741
 1272SOL    HW1 4715   2.425   6.810   6.641  0.6448 -0.2193  2.1704
 1272SOL    HW2 4716   2.313   6.924   6.674 -0.2764 -0.1173 -1.0072
 1273SOL     OW 4717   2.864   6.661   1.249 -0.2632 -0.0193 -0.2420
 1273SOL    HW1 4718   2.796   6.601   1.291  1.1171 -0.8824  0.8400
 1273SOL    HW2 4719   2.874   6.744   1.304 -0.9004  0.4426 -0.7874
 1274SOL     OW 4720   3.014   4.818   2.138  0.4098  0.1315 -0.7673
 1274SOL    HW1 4721   2.948   4.885   2.174 -0.0996 -0.3522 -0.7911
 1274SOL    HW2 4722   2.965   4.745   2.091  0.9421 -0.4227 -0.4788
 1275SOL     OW 4723   5.829   6.949   1.982  0.0236  0.4856  0.4282
 1275SOL    HW1 4724   5.864   7.018   1.918 -0.4346  0.3336  0.0048
 1275SOL    HW2 4725   5.895   6.874   1.988  0.1018  0.5315  0.1855
 1276SOL     OW 4726   6.691   1.745   3.834 -0.3047 -0.1592 -0.2218
 1276SOL    HW1 4727   6.788   1.770   3.837 -0.5372  0.7998 -0.3903
 1276SOL    HW2 4728   6.665   1.703   3.921  0.6115 -1.8300 -0.7089
 1277SOL     OW 4729   4.545   1.351   4.177  0.3283  0.0939  0.0672
 1277SOL    HW1 4730   4.569   1.364   4.273  0.2038  0.8503  0.0050
 1277SOL    HW2 4731   4.490   1.429   4.145 -0.2514 -0.5020 -0.4215
 1278SOL     OW 4732   5.979   5.096   0.008  0.1199  0.2043  1.2983
 1278SOL    HW1 4733   5.938   5.178  -0.032  0.3793  0.4102  1.4556
 1278SOL    HW2 4734   5.994   5.028  -0.064  1.2513  0.8431  0.8995
 1279SOL     OW 4735   0.513   4.335   0.768 -0.4062  0.6975  0.4450
 1279SOL    HW1 4736   0.455   4.267   0.724  0.9589 -0.1070 -0.1642
 1279SOL    HW2 4737   0.458   4.389   0.832 -1.9157  0.3138 -0.4806
 1280SOL     OW 4738   2.513   4.501   3.554 -0.1246 -0.2891 -0.2917
 1280SOL    HW1 4739   2.531   4.467   3.646  1.3687  0.1850 -0.3871
 1280SOL    HW2 4740   2.432   4.454   3.517 -0.4057 -0.8996  1.0196
 1281SOL     OW 4741   2.492   6.214   2.123 -0.5142  0.5606 -0.8382
 1281SOL    HW1 4742   2.520   6.290   2.064  2.2715 -0.1426 -0.5195
 1281SOL    HW2 4743   2.504   6.239   2.218  2.7931 -0.9699 -0.7293
 1282SOL     OW 4744   5.048   6.242   5.537  0.0767 -0.5779 -0.1677
 1282SOL    HW1 4745   5.062   6.143   5.531  0.3928 -0.5881  0.6249
 1282SOL    HW2 4746   5.100   6.288   5.466  1.0674 -0.8908  0.3417
 1283SOL     OW 4747   4.128   6.854   3.363  0.0486  0.1810 -0.6724
 1283SOL    HW1 4748   4.223   6.882   3.350  0.1116  0.7112  0.7352
 1283SOL    HW2 4749   4.119   6.803   3.448 -1.2938  2.1621  0.4648
 1284SOL     OW 4750   3.591   2.932   4.231  0.0150 -0.6323  0.0858
 1284SOL    HW1 4751   3.616   2.914   4.136 -1.5098  1.4939 -0.7844
 1284SOL    HW2 4752   3.492   2.930   4.240  0.0882  0.4021  1.3598
 1285SOL     OW 4753   6.109   0.317   1.336 -0.1072 -0.3578 -0.3341
 1285SOL    HW1 4754   6.093   0.314   1.237  0.8533 -1.2071 -0.4860
 1285SOL    HW2 4755   6.195   0.270   1.356  0.0958  0.4919  0.8283
 1286SOL     OW 4756   6.399   5.721   1.062 -0.4202  0.0658  0.0309
 1286SOL    HW1 4757   6.302   5.735   1.045 -0.6686  0.5322  1.6873
 1286SOL    HW2 4758   6.441   5.806   1.093  0.5763 -0.0729 -0.8892
 1287SOL     OW 4759   2.876   5.641   6.439 -0.5626 -0.7987 -0.0071
 1287SOL    HW1 4760   2.868   5.732   6.400  2.3588 -0.0216  0.9745
 1287SOL    HW2 4761   2.861   5.572   6.367 -1.9029  0.4317 -0.9489
 1288SOL     OW 4762   4.794   4.583   6.710 -0.5220  0.8451 -0.1695
 1288SOL    HW1 4763   4.831   4.668   6.745 -0.4606  1.0528 -0.7216
 1288SOL    HW2 4764   4.801   4.583   6.610 -1.3439  0.5812 -0.2338
 1289SOL     OW 4765   1.686   4.566   1.180  0.5514 -0.4410 -0.1547
 1289SOL    HW1 4766   1.658   4.470   1.191 -1.1633 -0.0781 -1.0904
 1289SOL    HW2 4767   1.640   4.622   1.249  0.7862 -0.1582 -0.2283
 1290SOL     OW 4768   2.216   5.089   3.469 -0.1385 -0.3933 -0.3826
 1290SOL    HW1 4769   2.302   5.102   3.420 -0.5195  0.3458 -0.8952
 1290SOL    HW2 4770   2.161   5.173   3.461  0.4043  0.3443  2.6147
 1291SOL     OW 4771   7.001   1.452   3.333 -0.4098  0.0392 -0.2644
 1291SOL    HW1 4772   7.012   1.481   3.238  1.6565  0.8871  0.1870
 1291SOL    HW2 4773   7.037   1.359   3.344 -1.1334 -0.2648 -0.3960
 1292SOL     OW 4774   5.771   6.496   1.026 -0.2219  0.5922  0.2741
 1292SOL    HW1 4775   5.822   6.414   1.003 -2.2703 -0.9516  0.9367
 1292SOL    HW2 4776   5.785   6.520   1.122  0.3880  1.0582  0.0768
 1293SOL     OW 4777   0.755   4.629   0.873  0.0824  0.4612  0.4652
 1293SOL    HW1 4778   0.801   4.543   0.851 -0.4637 -0.5978  3.1241
 1293SOL    HW2 4779   0.659   4.623   0.847 -0.1457 -0.0808  1.3967
 1294SOL     OW 4780   0.965   6.041   1.738  0.6241  0.4526 -0.2812
 1294SOL    HW1 4781   0.948   6.042   1.836  0.6852  0.0551 -0.2633
 1294SOL    HW2 4782   0.911   5.968   1.696 -0.9619  1.8686 -0.8445
 1295SOL     OW 4783   6.015   6.004   0.855  0.9667  0.4831  0.0362
 1295SOL    HW1 4784   5.915   6.001   0.855  0.9755 -0.0540 -0.7042
 1295SOL    HW2 4785   6.051   5.926   0.906  1.0106 -0.0968 -0.8617
 1296SOL     OW 4786   2.199   5.804   0.318  0.1702  0.6210 -0.2030
 1296SOL    HW1 4787   2.252   5.734   0.367 -0.1698  0.9728  0.6808
 1296SOL    HW2 4788   2.165   5.766   0.232  1.4821  0.2518 -0.5809
 1297SOL     OW 4789   6.300   6.510   2.854  0.5917  0.1729 -0.3031
 1297SOL    HW1 4790   6.291   6.597   2.805 -0.5754  0.2561  0.0164
 1297SOL    HW2 4791   6.229   6.505   2.924  1.0984 -0.7419  0.1609
 1298SOL     OW 4792   0.858   3.818   1.819  0.1309  0.0479 -0.1207
 1298SOL    HW1 4793   0.861   3.791   1.915  1.0699  1.1372  0.1752
 1298SOL    HW2 4794   0.903   3.907   1.808  0.4583 -0.2884 -1.6450
 1299SOL     OW 4795   0.555   1.921   1.253 -0.1632  0.2047 -0.4435
 1299SOL    HW1 4796   0.646   1.952   1.229 -0.7376  0.6956 -2.1440
 1299SOL    HW2 4797   0.554   1.889   1.347  1.4112  1.5444  0.0699
 1300SOL     OW 4798   5.735   3.378   0.891  0.2815 -0.1037  0.1393
 1300SOL    HW1 4799   5.684   3.298   0.862  2.0730 -1.5841  0.8622
 1300SOL    HW2 4800   5.799   3.405   0.819  0.6686 -0.2231  0.4296
 1301SOL     OW 4801   1.155   3.191   5.222  0.3795 -0.0300  0.2065
 1301SOL    HW1 4802   1.170   3.136   5.140  0.1135 -0.2980  0.3376
 1301SOL    HW2 4803   1.215   3.271   5.220 -0.9461  1.0041 -1.1971
 1302SOL     OW 4804   2.203   0.938   3.086 -0.2179  0.2909 -0.6920
 1302SOL    HW1 4805   2.112   0.941   3.044 -1.3911 -1.1265  1.5422
 1302SOL    HW2 4806   2.262   0.878   3.031 -1.2942 -0.4751 -1.0666
 1303SOL     OW 4807   3.460   1.641   5.338 -0.3747  0.4553 -0.3735
 1303SOL    HW1 4808   3.538   1.682   5.384  0.6773 -1.0956 -0.6610
 1303SOL    HW2 4809   3.492   1.566   5.279 -2.2485 -1.7961  1.2477
 1304SOL     OW 4810   4.913   5.586   6.275  0.0507  0.4315  0.8309
 1304SOL    HW1 4811   4.833   5.532   6.302  0.4606 -1.2660 -1.0779
 1304SOL    HW2 4812   4.989   5.524   6.254  0.9117  1.8310 -0.3165
 1305SOL     OW 4813   2.134   6.896   6.410  0.6756  0.2106  0.0765
 1305SOL    HW1 4814   2.136   6.924   6.506 -1.1953  2.2628 -0.4109
 1305SOL    HW2 4815   2.216   6.931   6.364  0.1336  1.8353  0.2947
 1306SOL     OW 4816   6.309   1.975   4.588 -0.9932  0.0028 -0.4272
 1306SOL    HW1 4817   6.401   2.006   4.611 -0.6405 -0.7175 -0.8581
 1306SOL    HW2 4818   6.250   1.986   4.668 -0.5094  0.3474 -0.1085
 1307SOL     OW 4819   5.800   5.067   4.914  0.6879 -0.2960  0.2358
 1307SOL    HW1 4820   5.802   5.115   5.002  0.0479 -1.1606  0.7404
 1307SOL    HW2 4821   5.768   4.974   4.929 -0.4086 -0.1490 -1.0596
 1308SOL     OW 4822   1.913   4.250   3.692 -0.1414 -0.2169  0.2533
 1308SOL    HW1 4823   1.931   4.213   3.601 -0.6021 -0.1894  0.1492
 1308SOL    HW2 4824   1.877   4.343   3.684 -0.3492 -0.2792  0.4580
 1309SOL     OW 4825   5.261   4.989   4.986  0.3225  0.2457 -0.3147
 1309SOL    HW1 4826   5.193   5.023   5.051  0.4561 -1.1449  0.5983
 1309SOL    HW2 4827   5.340   5.050   4.985 -0.8042  1.7423 -1.1966
 1310SOL     OW 4828   2.323   0.546   1.112 -0.2649 -0.3796 -0.3639
 1310SOL    HW1 4829   2.401   0.598   1.147 -0.0649  0.6194 -2.1453
 1310SOL    HW2 4830   2.354   0.486   1.038 -0.7131 -2.1682  0.8531
 1311SOL     OW 4831   2.457   1.918   0.625  0.1117  0.4737 -0.3141
 1311SOL    HW1 4832   2.459   1.910   0.724  0.9892 -1.6841 -0.4547
 1311SOL    HW2 4833   2.477   2.013   0.599 -0.1670  1.0799  1.5471
 1312SOL     OW 4834   2.346   1.296   3.546 -0.0749 -0.5285 -0.5924
 1312SOL    HW1 4835   2.280   1.272   3.475 -1.7826  0.4182  0.5910
 1312SOL    HW2 4836   2.315   1.379   3.593  1.3643 -0.7465  0.8172
 1313SOL     OW 4837   5.662   2.470   4.683 -0.0024  0.0644 -0.5718
 1313SOL    HW1 4838   5.708   2.442   4.599  0.9406  0.2380 -0.1303
 1313SOL    HW2 4839   5.731   2.497   4.751 -0.6289 -1.8335  0.8990
 1314SOL     OW 4840   1.835   3.539   6.135  0.6800 -0.1309  0.2937
 1314SOL    HW1 4841   1.839   3.505   6.041  2.9218  0.4759  0.0936
 1314SOL    HW2 4842   1.797   3.632   6.135  0.5766 -0.1719  0.0005
 1315SOL     OW 4843   2.895   5.687   0.788  0.3521  0.0433 -0.0302
 1315SOL    HW1 4844   2.933   5.600   0.757  0.9377  0.7496 -1.4057
 1315SOL    HW2 4845   2.933   5.761   0.732  0.8946  1.3466  1.9528
 1316SOL     OW 4846   0.750   3.375   5.299 -0.1567  0.2284  0.2978
 1316SOL    HW1 4847   0.817   3.301   5.294 -1.4337 -0.9112 -0.4658
 1316SOL    HW2 4848   0.662   3.343   5.266 -0.9738  1.8521  0.7947
 1317SOL     OW 4849   4.477   4.981   5.569  0.0435 -0.5222 -0.6278
 1317SOL    HW1 4850   4.457   5.079   5.575 -1.1108 -0.5271 -3.3165
 1317SOL    HW2 4851   4.576   4.969   5.555  0.0064  0.3875 -1.9013
 1318SOL     OW 4852   4.579   4.471   4.892 -0.6397 -0.0325 -0.3136
 1318SOL    HW1 4853   4.493   4.504   4.931 -0.4856  0.4216 -0.3591
 1318SOL    HW2 4854   4.605   4.528   4.814  0.2429  0.4769  0.3416
 1319SOL     OW 4855   1.619   1.674   6.157 -0.5843 -0.4688  0.2639
 1319SOL    HW1 4856   1.680   1.606   6.198 -0.6760 -1.5315 -1.2394
 1319SOL    HW2 4857   1.537   1.628   6.122 -0.9539  0.5172 -0.2025
 1320SOL     OW 4858   3.657   3.732   1.869 -0.1610  0.2931  0.4086
 1320SOL    HW1 4859   3.566   3.772   1.860  1.0076  3.2481  0.8555
 1320SOL    HW2 4860   3.703   3.771   1.949  1.1752 -1.8889  0.7876
 1321SOL     OW 4861   4.791   2.557   6.401 -0.1080  0.5657 -0.1734
 1321SOL    HW1 4862   4.699   2.579   6.367 -0.4972 -0.9115 -0.1435
 1321SOL    HW2 4863   4.852   2.543   6.323 -0.3669 -0.2450 -0.2427
 1322SOL     OW 4864   3.012   3.716   0.685  0.3674  0.3680 -0.4820
 1322SOL    HW1 4865   3.020   3.673   0.595 -0.2525  1.9113 -1.3124
 1322SOL    HW2 4866   2.978   3.649   0.751 -2.0149 -0.0867 -2.0451
 1323SOL     OW 4867   4.033   1.543   3.177  0.3421 -0.4791  0.2871
 1323SOL    HW1 4868   4.065   1.451   3.155  0.8389 -0.4115  0.7024
 1323SOL    HW2 4869   3.984   1.581   3.099  0.4191 -0.9697 -0.0045
 1324SOL     OW 4870   2.080   4.692   0.602 -0.0530 -0.6183  0.6210
 1324SOL    HW1 4871   2.095   4.763   0.670 -2.2672 -0.3976  0.9519
 1324SOL    HW2 4872   2.044   4.610   0.646  1.2973 -1.5455  0.0742
 1325SOL     OW 4873   5.136   5.292   2.414  0.3391  0.6590 -0.0038
 1325SOL    HW1 4874   5.129   5.260   2.320 -1.6580  0.6783  0.1037
 1325SOL    HW2 4875   5.047   5.322   2.446  1.0564  1.0150  1.7906
 1326SOL     OW 4876   5.862   5.609   6.991 -0.4171  0.0359 -0.3173
 1326SOL    HW1 4877   5.774   5.572   7.019 -0.2358 -2.1482 -2.3965
 1326SOL    HW2 4878   5.929   5.594   7.064 -1.5859  1.3208  1.0926
 1327SOL     OW 4879   5.953   1.770   1.649 -0.3385  0.2450  0.1390
 1327SOL    HW1 4880   5.909   1.803   1.733 -2.4009 -1.6422 -0.1027
 1327SOL    HW2 4881   5.934   1.834   1.574 -2.6211 -0.4186  0.0891
 1328SOL     OW 4882   1.378   5.855   3.387 -0.1651  0.2843 -0.0130
 1328SOL    HW1 4883   1.298   5.885   3.440 -0.0602  0.9594 -0.2315
 1328SOL    HW2 4884   1.350   5.783   3.323 -0.7590  1.0180 -0.5991
 1329SOL     OW 4885   2.861   5.417   0.462  0.8681 -0.1648 -0.0418
 1329SOL    HW1 4886   2.847   5.444   0.366 -0.1375  0.2449  0.2117
 1329SOL    HW2 4887   2.778   5.376   0.498  0.6771  1.1977  1.1569
 1330SOL     OW 4888   0.102   3.559   2.947  0.2416  0.1667 -0.5604
 1330SOL    HW1 4889   0.152   3.642   2.925  0.7077  0.1665  0.4450
 1330SOL    HW2 4890   0.151   3.508   3.018 -0.6058 -0.4038 -0.3691
 1331SOL     OW 4891   3.995   5.211   0.919  0.3723  0.3376  0.1791
 1331SOL    HW1 4892   3.921   5.152   0.950  1.5470  0.3411  3.4075
 1331SOL    HW2 4893   3.960   5.303   0.904 -0.3494  0.2719  1.3582
 1332SOL     OW 4894   2.713   5.419   3.913 -0.2667 -0.1961 -0.0830
 1332SOL    HW1 4895   2.748   5.462   3.830 -0.1257  0.7752  0.4619
 1332SOL    HW2 4896   2.749   5.326   3.921  0.6126  0.0961 -0.5356
 1333SOL     OW 4897   3.266   0.800   3.206  0.2802 -0.4172  0.6192
 1333SOL    HW1 4898   3.321   0.820   3.287  1.3658 -0.2055 -0.1517
 1333SOL    HW2 4899   3.169   0.803   3.230  0.5802 -0.1355  1.8559
 1334SOL     OW 4900   5.797   0.074   6.114  0.2213 -0.3029 -0.1844
 1334SOL    HW1 4901   5.701   0.087   6.087 -0.0115  0.1154  0.7966
 1334SOL    HW2 4902   5.812  -0.023   6.134  0.3653 -0.5988 -1.6261
 1335SOL     OW 4903   4.948   5.066   2.576 -0.4917 -0.4576  0.0566
 1335SOL    HW1 4904   4.906   5.127   2.509 -0.0950 -0.5652 -0.2953
 1335SOL    HW2 4905   4.991   4.989   2.528 -0.2192 -0.5432  0.4380
 1336SOL     OW 4906   6.458   2.843   4.513  0.2555  0.9047  0.2680
 1336SOL    HW1 4907   6.361   2.856   4.496 -0.1447 -0.1027  1.5672
 1336SOL    HW2 4908   6.476   2.848   4.612  1.0151 -1.6836  0.3538
 1337SOL     OW 4909   2.191   1.639   4.523 -0.4578  0.1505  0.5444
 1337SOL    HW1 4910   2.205   1.735   4.542  0.5918  0.3094 -0.8494
 1337SOL    HW2 4911   2.177   1.627   4.424 -0.2858 -1.1494  0.6620
 1338SOL     OW 4912   1.278   3.415   3.733 -0.0763  0.2727  0.1094
 1338SOL    HW1 4913   1.303   3.339   3.793  1.6405  0.9125  0.2681
 1338SOL    HW2 4914   1.209   3.385   3.668  2.3271 -2.2038 -1.5243
 1339SOL     OW 4915   0.744   2.939   4.900  0.3423  0.1666 -0.2926
 1339SOL    HW1 4916   0.749   3.027   4.946  1.9350 -0.0459  0.0267
 1339SOL    HW2 4917   0.761   2.951   4.802  1.5239  0.1366 -0.1079
 1340SOL     OW 4918   2.437   5.591   6.239 -0.1261  0.4729 -0.7316
 1340SOL    HW1 4919   2.421   5.689   6.223 -0.0735  0.2711 -2.1145
 1340SOL    HW2 4920   2.362   5.539   6.199  1.4125 -0.2138 -2.8307
 1341SOL     OW 4921   0.197   0.902   1.914 -0.2111 -0.3085 -0.2014
 1341SOL    HW1 4922   0.207   0.897   2.013 -0.3846 -1.1356 -0.2222
 1341SOL    HW2 4923   0.150   0.820   1.881  0.5867 -0.4326 -1.0589
 1342SOL     OW 4924   3.751   3.341   3.927  0.2751 -0.1581 -0.1116
 1342SOL    HW1 4925   3.689   3.263   3.935 -2.2449  1.7338  0.2360
 1342SOL    HW2 4926   3.822   3.334   3.996 -1.2409 -1.0665  1.4492
 1343SOL     OW 4927   3.829   6.346   3.726  0.2764 -0.3143  0.5693
 1343SOL    HW1 4928   3.770   6.408   3.778  1.1415  0.3482  0.7869
 1343SOL    HW2 4929   3.857   6.270   3.786  0.8270  0.1573  0.9252
 1344SOL     OW 4930   4.938   2.576   6.892 -0.7297  0.0068  0.0701
 1344SOL    HW1 4931   4.906   2.659   6.938 -1.7164  0.3203 -1.1195
 1344SOL    HW2 4932   5.037   2.569   6.902 -0.6534  1.2350  0.3516
 1345SOL     OW 4933   1.974   6.573   3.534  0.0224 -0.5341  0.3371
 1345SOL    HW1 4934   1.945   6.557   3.440 -1.0656 -0.8303  0.7066
 1345SOL    HW2 4935   1.992   6.485   3.579 -0.6849 -0.4597  0.7733
 1346SOL     OW 4936   5.541   3.303   3.319  0.0525  0.3100  0.1885
 1346SOL    HW1 4937   5.568   3.245   3.243 -0.3435 -0.6595  0.7703
 1346SOL    HW2 4938   5.597   3.386   3.319 -1.1365  1.2071 -2.2095
 1347SOL     OW 4939   0.304   3.970   0.928  0.7868  0.0551  0.5266
 1347SOL    HW1 4940   0.213   4.011   0.930  0.8882  0.3062  0.0915
 1347SOL    HW2 4941   0.307   3.897   0.860  0.7838 -0.2607  0.8613
 1348SOL     OW 4942   3.372   5.764   2.067  0.3982  0.3739 -0.4343
 1348SOL    HW1 4943   3.469   5.787   2.068  0.3170  0.7655 -1.3646
 1348SOL    HW2 4944   3.358   5.683   2.010  0.6454 -1.9438  2.5326
 1349SOL     OW 4945   1.104   1.354   6.499  0.1804 -0.2831 -0.4174
 1349SOL    HW1 4946   1.077   1.355   6.403  1.3255  1.1674 -0.7558
 1349SOL    HW2 4947   1.202   1.374   6.507  0.3207 -1.3372  1.0062
 1350SOL     OW 4948   3.691   3.742   5.939 -0.7435  0.0103  0.5854
 1350SOL    HW1 4949   3.740   3.803   6.001 -1.0668  0.8673  0.0167
 1350SOL    HW2 4950   3.600   3.723   5.976  0.4045 -2.7473  2.3847
 1351SOL     OW 4951   0.112   6.222   5.659 -0.1415 -0.4740 -0.2415
 1351SOL    HW1 4952   0.087   6.255   5.568 -1.4493 -2.4480 -0.6699
 1351SOL    HW2 4953   0.063   6.275   5.728 -1.4873 -0.8870 -0.8486
 1352SOL     OW 4954   6.777   1.198   2.126  0.6512 -0.1000 -0.0800
 1352SOL    HW1 4955   6.802   1.163   2.216 -0.7238  0.2921  0.4760
 1352SOL    HW2 4956   6.707   1.269   2.136  0.5006 -0.0321 -1.4510
 1353SOL     OW 4957   1.760   4.330   0.256  0.2433 -0.0789 -0.6217
 1353SOL    HW1 4958   1.749   4.256   0.323  0.5670  0.7618  0.3850
 1353SOL    HW2 4959   1.718   4.413   0.292  3.7183  1.4340  0.2913
 1354SOL     OW 4960   3.093   6.281   6.875  0.0824  0.2215 -0.1936
 1354SOL    HW1 4961   3.055   6.353   6.817  1.7392  0.1371 -1.4763
 1354SOL    HW2 4962   3.024   6.211   6.892  0.1059 -0.9905 -4.1357
 1355SOL     OW 4963   0.589   2.812   2.797 -0.4581 -0.4113  0.0605
 1355SOL    HW1 4964   0.574   2.850   2.706 -2.4331 -1.3752 -0.0680
 1355SOL    HW2 4965   0.564   2.879   2.866 -0.2430 -0.1546 -0.1079
 1356SOL     OW 4966   1.116   7.000   0.099  0.0559  0.3138  0.1969
 1356SOL    HW1 4967   1.147   6.918   0.050 -0.4554  0.2756 -0.0701
 1356SOL    HW2 4968   1.179   7.075   0.081 -0.4513  0.4752 -1.0429
 1357SOL     OW 4969   0.182   4.642   2.052  0.3938  0.1765  0.0609
 1357SOL    HW1 4970   0.280   4.648   2.030  0.3519  0.3168 -0.0910
 1357SOL    HW2 4971   0.154   4.546   2.054  0.4785  0.1473 -0.1460
 1358SOL     OW 4972   4.052   3.298   5.913 -0.5008  0.3426 -0.4953
 1358SOL    HW1 4973   4.086   3.253   5.831 -0.6408  0.6236 -0.7085
 1358SOL    HW2 4974   4.039   3.395   5.895  0.1844  0.5526  0.0810
 1359SOL     OW 4975   0.846   0.955   3.392  0.1778 -0.1054 -0.4228
 1359SOL    HW1 4976   0.929   1.010   3.397 -0.2090  0.4736 -0.3122
 1359SOL    HW2 4977   0.815   0.950   3.296  0.3382 -0.3238 -0.4647
 1360SOL     OW 4978   6.080   2.503   4.445 -0.2819  1.0097 -0.0624
 1360SOL    HW1 4979   6.083   2.458   4.535 -1.8734  2.0383  0.5647
 1360SOL    HW2 4980   6.159   2.476   4.391  1.3243  1.1860  2.0610
 1361SOL     OW 4981   5.182   1.739   5.851  0.3437 -0.0511 -0.0078
 1361SOL    HW1 4982   5.279   1.742   5.876 -0.2297 -0.7971  2.5830
 1361SOL    HW2 4983   5.140   1.658   5.891 -1.5324  0.6726 -0.4371
 1362SOL     OW 4984   3.319   4.965   6.394  0.2144  0.4865  0.0089
 1362SOL    HW1 4985   3.279   4.957   6.486  0.2359 -0.8456 -0.0885
 1362SOL    HW2 4986   3.385   4.892   6.379 -0.2482  0.3146 -1.3044
 1363SOL     OW 4987   1.363   2.706   3.491  0.0768 -0.4848  0.0040
 1363SOL    HW1 4988   1.327   2.624   3.536 -0.6085  0.7686  1.8537
 1363SOL    HW2 4989   1.405   2.765   3.559 -2.0347  2.0652 -0.7338
 1364SOL     OW 4990   0.764   4.885   5.387  0.3356 -0.4668  0.3809
 1364SOL    HW1 4991   0.861   4.874   5.408 -0.0186 -2.7653  1.0113
 1364SOL    HW2 4992   0.710   4.820   5.441 -1.3916 -0.6160 -1.4173
 1365SOL     OW 4993   4.280   5.798   3.577  0.6723  0.0739  0.2673
 1365SOL    HW1 4994   4.308   5.725   3.514 -0.0394 -0.2326  0.2939
 1365SOL    HW2 4995   4.305   5.887   3.539 -1.3975  0.0295 -1.3777
 1366SOL     OW 4996   5.146   3.952   0.998  0.0446 -0.6520  0.4248
 1366SOL    HW1 4997   5.155   3.894   0.917 -1.2253  0.4683 -0.5561
 1366SOL    HW2 4998   5.204   4.033   0.987  0.8862 -1.1182  1.2556
 1367SOL     OW 4999   0.927   3.605   4.359  0.3801 -0.6828 -0.7968
 1367SOL    HW1 5000   0.984   3.667   4.413  1.9959 -2.4360 -0.3848
 1367SOL    HW2 5001   0.843   3.652   4.332  0.7675  1.1233  0.9168
 1368SOL     OW 5002   5.404   4.964   2.950  0.2435 -0.3574 -0.4120
 1368SOL    HW1 5003   5.470   4.890   2.940  0.1369 -0.5214  0.0783
 1368SOL    HW2 5004   5.312   4.930   2.931  0.3506  0.0141 -1.7071
 1369SOL     OW 5005   2.659   0.204   5.860  0.1713  0.4453  0.2060
 1369SOL    HW1 5006   2.714   0.208   5.777  0.3412 -0.2373  0.2735
 1369SOL    HW2 5007   2.584   0.139   5.848  0.6298 -0.2244  0.8208
 1370SOL     OW 5008   2.651   5.536   5.661  0.0322  0.3924 -0.1026
 1370SOL    HW1 5009   2.628   5.571   5.752  1.0463 -1.3116  0.8557
 1370SOL    HW2 5010   2.567   5.506   5.614 -0.5417  1.6489  0.0657
 1371SOL     OW 5011   2.294   4.414   3.230 -0.4934  0.6827  0.3123
 1371SOL    HW1 5012   2.244   4.454   3.153 -1.6104 -0.8561  0.2019
 1371SOL    HW2 5013   2.389   4.447   3.228 -0.2207  0.0096 -2.2788
 1372SOL     OW 5014   1.928   0.327   6.238  0.1870 -0.2372  0.6994
 1372SOL    HW1 5015   2.012   0.356   6.192  0.4321 -0.9448  0.6829
 1372SOL    HW2 5016   1.856   0.394   6.222  1.3020  1.5048  2.4397
 1373SOL     OW 5017   4.819   0.795   6.446  0.1394  0.2405 -0.1444
 1373SOL    HW1 5018   4.797   0.749   6.532 -0.3993  2.2826  0.8935
 1373SOL    HW2 5019   4.910   0.837   6.453  0.2379  0.1233 -0.6962
 1374SOL     OW 5020   1.309   4.232   3.006 -0.7173 -0.3831  0.0242
 1374SOL    HW1 5021   1.327   4.330   3.000 -2.9986  0.0233 -1.2110
 1374SOL    HW2 5022   1.278   4.198   2.917 -1.7372 -1.8303  0.8938
 1375SOL     OW 5023   6.488   6.217   2.160 -0.0889 -0.5160 -0.0487
 1375SOL    HW1 5024   6.435   6.269   2.093  1.0083 -0.4795 -0.9120
 1375SOL    HW2 5025   6.472   6.256   2.251 -1.5794 -0.5522 -0.2611
 1376SOL     OW 5026   0.427   3.949   4.726  0.6053 -0.5693  0.3332
 1376SOL    HW1 5027   0.451   3.949   4.629  1.0671 -1.0002  0.4455
 1376SOL    HW2 5028   0.346   4.006   4.740  1.7238  1.1719 -0.0157
 1377SOL     OW 5029   5.380   6.598   3.639  0.5459  0.5952  0.9201
 1377SOL    HW1 5030   5.314   6.558   3.575 -1.3448  1.4338  2.2373
 1377SOL    HW2 5031   5.408   6.689   3.606  0.7214  0.4098  0.5590
 1378SOL     OW 5032   4.532   2.182   3.116  0.1887 -0.0535 -0.4430
 1378SOL    HW1 5033   4.621   2.216   3.086  0.0001  0.6296 -0.2491
 1378SOL    HW2 5034   4.460   2.236   3.074 -0.1330 -0.5175 -0.4898
 1379SOL     OW 5035   6.448   0.025   4.412 -0.2105  0.0687  0.3260
 1379SOL    HW1 5036   6.364  -0.004   4.459  0.2452  1.1151  1.8419
 1379SOL    HW2 5037   6.519   0.046   4.479  0.4317  1.7540 -0.8117
 1380SOL     OW 5038   3.194   4.774   5.574  0.8919 -0.1061 -0.3935
 1380SOL    HW1 5039   3.263   4.822   5.628  0.5119  0.7671 -0.6695
 1380SOL    HW2 5040   3.238   4.723   5.500  1.2511  0.3563 -0.4981
 1381SOL     OW 5041   3.086   5.672   2.788 -0.3650  0.0459 -0.0594
 1381SOL    HW1 5042   3.038   5.607   2.847 -0.2886 -0.2824 -0.3514
 1381SOL    HW2 5043   3.087   5.637   2.694  2.0405 -0.8641  0.2461
 1382SOL     OW 5044   0.053   1.556   0.282  0.6502 -0.3826  0.7001
 1382SOL    HW1 5045  -0.007   1.632   0.307  0.4472 -0.6880  1.1632
 1382SOL    HW2 5046   0.067   1.497   0.362  0.6161 -0.9634  0.2818
 1383SOL     OW 5047   5.333   1.706   6.172 -0.1304 -0.0729 -0.0178
 1383SOL    HW1 5048   5.428   1.729   6.153  0.3179 -1.7022  0.0698
 1383SOL    HW2 5049   5.310   1.620   6.126 -0.8088 -0.9776  1.9046
 1384SOL     OW 5050   5.980   3.831   4.019 -0.1274  0.7523 -0.8045
 1384SOL    HW1 5051   5.939   3.788   3.939  1.1415  0.2308 -1.2025
 1384SOL    HW2 5052   5.947   3.925   4.028 -2.0745  0.0965 -0.5847
 1385SOL     OW 5053   1.785   4.146   1.408 -0.2022  0.4033 -0.0597
 1385SOL    HW1 5054   1.879   4.123   1.384 -0.4524 -0.9503  0.1966
 1385SOL    HW2 5055   1.725   4.068   1.388 -1.3448  1.3885 -0.6207
 1386SOL     OW 5056   1.236   5.978   3.620 -0.2273 -0.0757  0.5115
 1386SOL    HW1 5057   1.264   6.071   3.643 -0.2410  0.0536  0.0098
 1386SOL    HW2 5058   1.300   5.913   3.662 -0.9709  0.0993  1.9678
 1387SOL     OW 5059   4.283   4.018   5.676 -0.0263  0.6001 -0.4309
 1387SOL    HW1 5060   4.197   3.974   5.703 -0.0387 -0.0261 -1.4157
 1387SOL    HW2 5061   4.358   3.981   5.729 -0.1261 -0.1767 -0.8150
 1388SOL     OW 5062   3.256   1.383   5.312 -0.1620 -0.4943 -0.0234
 1388SOL    HW1 5063   3.198   1.349   5.238  2.0597  0.1386 -2.1842
 1388SOL    HW2 5064   3.349   1.397   5.278  0.2731  2.7869  2.0602
 1389SOL     OW 5065   1.017   6.597   6.019 -0.5108  0.2558 -0.1803
 1389SOL    HW1 5066   0.973   6.564   6.102  0.4562  1.1469  0.7198
 1389SOL    HW2 5067   1.115   6.574   6.022 -0.7068 -0.9391 -1.7400
 1390SOL     OW 5068   3.311   2.890   4.536  0.3491  0.2981 -0.1639
 1390SOL    HW1 5069   3.315   2.886   4.436 -0.0215 -1.3487 -0.1355
 1390SOL    HW2 5070   3.403   2.891   4.573  0.5518  3.0669 -0.5339
 1391SOL     OW 5071   5.443   7.005   2.442 -0.3814  0.0693  0.2900
 1391SOL    HW1 5072   5.349   7.021   2.469 -1.1676  0.4086 -2.3805
 1391SOL    HW2 5073   5.448   6.923   2.385  0.8473  0.3888 -0.1042
 1392SOL     OW 5074   5.314   6.064   1.328  0.3693 -0.3203 -0.0344
 1392SOL    HW1 5075   5.327   6.072   1.229  1.2712  1.4668  0.1874
 1392SOL    HW2 5076   5.228   6.017   1.347 -0.0662 -0.2370 -1.6752
 1393SOL     OW 5077   6.110   6.998   0.513  0.1127 -0.3901  0.1161
 1393SOL    HW1 5078   6.042   7.058   0.470 -2.4649 -3.4384 -0.4505
 1393SOL    HW2 5079   6.182   6.977   0.448 -0.1360  0.3309 -0.4089
 1394SOL     OW 5080   6.289   6.263   5.927 -0.3605 -0.5618 -0.3690
 1394SOL    HW1 5081   6.193   6.282   5.906 -0.1092 -0.1172 -1.1435
 1394SOL    HW2 5082   6.304   6.164   5.927 -0.3950 -0.6023 -2.2930
 1395SOL     OW 5083   2.396   4.064   5.407  0.1504  0.0577  0.4793
 1395SOL    HW1 5084   2.397   3.994   5.478 -1.0996  1.0124  1.4922
 1395SOL    HW2 5085   2.405   4.021   5.317 -0.3336 -1.3738  1.0902
 1396SOL     OW 5086   0.982   4.705   5.240 -0.6207 -0.0917 -0.3670
 1396SOL    HW1 5087   1.026   4.733   5.326 -0.9638 -0.2831 -0.1279
 1396SOL    HW2 5088   1.045   4.722   5.164  0.0650 -0.7913  0.0193
 1397SOL     OW 5089   4.842   3.632   6.047 -0.6050 -0.4682  0.3431
 1397SOL    HW1 5090   4.857   3.595   5.955  1.2917 -0.4982  0.6139
 1397SOL    HW2 5091   4.868   3.564   6.115 -1.9601 -0.4322  0.9229
 1398SOL     OW 5092   0.384   0.732   4.343  0.3979  0.0333 -0.4363
 1398SOL    HW1 5093   0.294   0.699   4.370  1.0543 -0.1502  1.7694
 1398SOL    HW2 5094   0.405   0.817   4.393  1.1411  0.5182 -1.5225
 1399SOL     OW 5095   5.661   1.171   5.115 -0.1033  0.6517  0.3298
 1399SOL    HW1 5096   5.671   1.242   5.045 -0.8523 -0.0546 -0.5115
 1399SOL    HW2 5097   5.728   1.098   5.098  0.4953  1.0149  1.0469
 1400SOL     OW 5098   1.198   0.617   4.965  0.4080 -0.1607 -0.6275
 1400SOL    HW1 5099   1.200   0.715   4.985 -0.8824 -0.1317 -0.5720
 1400SOL    HW2 5100   1.253   0.568   5.032  0.2410  0.4295 -0.0558
 1401SOL     OW 5101   5.958   5.880   2.689  0.2363  0.4174 -0.1251
 1401SOL    HW1 5102   5.889   5.911   2.623 -1.6007 -1.5741  0.7422
 1401SOL    HW2 5103   6.021   5.816   2.644 -0.9319 -0.8345 -0.0261
 1402SOL     OW 5104   3.724   2.754   6.996  0.1961  0.6162 -0.1547
 1402SOL    HW1 5105   3.712   2.835   7.053  0.6021  0.8623 -0.4153
 1402SOL    HW2 5106   3.801   2.700   7.031 -0.0450  0.3636 -0.0081
 1403SOL     OW 5107   4.723   5.058   5.262  0.1049  0.0273  0.2849
 1403SOL    HW1 5108   4.798   5.026   5.204 -0.6663  0.6770 -1.1048
 1403SOL    HW2 5109   4.739   5.153   5.288 -0.8199  0.5671 -1.0440
 1404SOL     OW 5110   2.383   4.907   6.909 -0.0322 -0.1102  0.6656
 1404SOL    HW1 5111   2.477   4.876   6.892  0.2850  0.6170  1.0592
 1404SOL    HW2 5112   2.338   4.845   6.973  0.7485  0.4809  1.8138
 1405SOL     OW 5113   4.357   6.645   3.192  0.1338 -0.0001 -0.3077
 1405SOL    HW1 5114   4.455   6.662   3.184  0.1859 -0.0323  0.2813
 1405SOL    HW2 5115   4.313   6.664   3.104  0.2886  2.3945  0.0751
 1406SOL     OW 5116   1.039   3.427   1.553  0.2987  0.5956 -0.2182
 1406SOL    HW1 5117   1.034   3.334   1.589  4.4645  0.6986  1.2137
 1406SOL    HW2 5118   0.972   3.485   1.600  0.8160 -0.7499  2.3562
 1407SOL     OW 5119   5.927   3.152   5.696  0.0876 -0.3521  0.4623
 1407SOL    HW1 5120   5.897   3.088   5.768 -0.1652  0.5005  1.1255
 1407SOL    HW2 5121   5.863   3.147   5.619  0.2463 -1.1207  0.3694
 1408SOL     OW 5122   3.827   4.845   2.820  0.4723  0.1482  0.6550
 1408SOL    HW1 5123   3.842   4.831   2.917 -1.1170 -1.0383  0.7536
 1408SOL    HW2 5124   3.887   4.785   2.767  0.1071 -0.4652  0.9361
 1409SOL     OW 5125   6.697   0.550   6.862 -0.0176  0.2542 -0.1200
 1409SOL    HW1 5126   6.689   0.567   6.960  1.1102  3.0487 -0.4072
 1409SOL    HW2 5127   6.769   0.483   6.845  1.2455  1.3149  0.9044
 1410SOL     OW 5128   5.472   2.860   4.824 -0.0042  0.4458  0.2787
 1410SOL    HW1 5129   5.495   2.762   4.828 -2.2061 -0.1995 -1.1937
 1410SOL    HW2 5130   5.476   2.898   4.917  1.5846 -0.8239  0.7977
 1411SOL     OW 5131   4.371   2.031   1.364  0.2457  0.1524  0.0019
 1411SOL    HW1 5132   4.377   2.110   1.303  0.6223  1.6282  1.8513
 1411SOL    HW2 5133   4.374   1.947   1.310  2.2263  1.3296 -1.8783
 1412SOL     OW 5134   1.556   6.572   2.723 -0.3753 -0.2146 -0.1561
 1412SOL    HW1 5135   1.575   6.660   2.679  0.7256 -0.7046 -0.6904
 1412SOL    HW2 5136   1.601   6.570   2.812  2.8893 -1.6218 -1.6851
 1413SOL     OW 5137   4.117   4.562   1.092  0.1687 -0.6929 -0.2673
 1413SOL    HW1 5138   4.203   4.511   1.091 -0.1180 -1.2280  1.0055
 1413SOL    HW2 5139   4.052   4.517   1.153  0.1972  1.6437  1.6021
 1414SOL     OW 5140   3.482   0.871   4.718 -0.4444  0.2858 -0.4977
 1414SOL    HW1 5141   3.455   0.844   4.811  0.3535 -0.4327 -0.4655
 1414SOL    HW2 5142   3.509   0.789   4.667 -2.1419  0.4889 -1.7946
 1415SOL     OW 5143   6.919   0.218   4.895 -0.4777 -0.1778  0.5276
 1415SOL    HW1 5144   7.019   0.217   4.888 -0.5010 -1.3913  0.1130
 1415SOL    HW2 5145   6.892   0.244   4.987  0.1915  1.2460  0.3402
 1416SOL     OW 5146   1.617   6.516   2.152  0.5101  0.4988 -0.0242
 1416SOL    HW1 5147   1.522   6.549   2.153  1.4859  3.6499  1.1702
 1416SOL    HW2 5148   1.638   6.476   2.063 -1.7660  0.1234 -0.4525
 1417SOL     OW 5149   2.957   5.129   0.841  0.2906 -0.4165  0.5206
 1417SOL    HW1 5150   2.925   5.034   0.834 -1.2887  0.1502 -0.3841
 1417SOL    HW2 5151   3.055   5.133   0.821  0.2637 -1.7849  0.0161
 1418SOL     OW 5152   1.006   2.188   1.940  0.0710  0.1923 -0.3551
 1418SOL    HW1 5153   0.969   2.146   1.858  1.4363  0.4728 -1.1462
 1418SOL    HW2 5154   1.101   2.216   1.924  0.6601 -0.4916  1.5746
 1419SOL     OW 5155   1.813   6.770   2.586 -0.4571 -0.3633  0.2076
 1419SOL    HW1 5156   1.847   6.764   2.679  0.6833 -1.0014 -0.2291
 1419SOL    HW2 5157   1.881   6.732   2.523 -0.8434  0.8162 -0.9665
 1420SOL     OW 5158   5.955   1.906   3.674 -0.2733 -0.6010  0.1450
 1420SOL    HW1 5159   5.970   2.004   3.689  2.5528 -0.9528  0.1407
 1420SOL    HW2 5160   5.915   1.865   3.756 -2.6956  0.7052 -0.2962
 1421SOL     OW 5161   1.098   5.040   2.975 -0.0019 -0.1715  0.0705
 1421SOL    HW1 5162   1.029   5.006   2.911  0.3780  0.6076 -0.7639
 1421SOL    HW2 5163   1.166   5.094   2.926  0.7467 -0.2318  1.0135
 1422SOL     OW 5164   2.186   6.672   3.026 -0.4174 -0.0484  0.3447
 1422SOL    HW1 5165   2.264   6.731   3.042 -0.2643 -0.4483  1.1015
 1422SOL    HW2 5166   2.165   6.620   3.109  0.3552 -2.1341 -0.6880
 1423SOL     OW 5167   3.056   6.724   1.035 -0.2503  1.1367  0.4775
 1423SOL    HW1 5168   3.147   6.684   1.048 -0.6135  0.6892  1.8136
 1423SOL    HW2 5169   3.000   6.706   1.116 -2.3796 -0.8123 -1.2805
 1424SOL     OW 5170   5.320   2.531   4.169  0.0118 -0.2013  0.0880
 1424SOL    HW1 5171   5.386   2.502   4.238  0.3635  0.5033  0.0625
 1424SOL    HW2 5172   5.349   2.498   4.079 -0.6399 -1.4320  0.3091
 1425SOL     OW 5173   6.388   5.636   2.693  0.2694  0.3562 -0.2282
 1425SOL    HW1 5174   6.388   5.657   2.791  0.8260  2.6055 -0.6461
 1425SOL    HW2 5175   6.480   5.610   2.665  0.3122  0.5991 -0.3139
 1426SOL     OW 5176   5.061   5.809   3.945  0.0641  0.7223 -0.4081
 1426SOL    HW1 5177   4.986   5.752   3.978  1.5832 -0.7072  0.7149
 1426SOL    HW2 5178   5.051   5.823   3.846 -0.7075 -0.9585 -0.5999
 1427SOL     OW 5179   4.904   6.468   0.387  0.0315 -0.2024 -0.5975
 1427SOL    HW1 5180   4.934   6.473   0.292  1.9888 -1.7412 -0.1155
 1427SOL    HW2 5181   4.832   6.399   0.395  1.4798 -1.7941 -0.6506
 1428SOL     OW 5182   6.706   6.899   1.992  0.0964  0.3767  0.1816
 1428SOL    HW1 5183   6.719   6.812   2.041 -0.7221 -0.7807 -1.5445
 1428SOL    HW2 5184   6.777   6.909   1.922 -0.5318  0.4819 -0.4510
 1429SOL     OW 5185   2.587   0.556   0.716  0.2259  0.7542  0.3537
 1429SOL    HW1 5186   2.532   0.501   0.779 -0.3084  1.0386  0.1383
 1429SOL    HW2 5187   2.530   0.627   0.675  0.3730  0.1018 -1.0259
 1430SOL     OW 5188   1.105   1.970   6.543  0.3099 -0.4347  0.5662
 1430SOL    HW1 5189   1.022   1.916   6.552  1.1933 -1.5328  2.9264
 1430SOL    HW2 5190   1.113   2.033   6.620  1.7599 -0.5131  0.5095
 1431SOL     OW 5191   5.142   1.064   3.314  0.0866  0.0172 -0.0013
 1431SOL    HW1 5192   5.213   1.109   3.259  0.3232 -0.6040 -0.2115
 1431SOL    HW2 5193   5.176   1.047   3.406  0.7516 -1.5635 -0.4965
 1432SOL     OW 5194   4.436   1.703   6.749  0.2062  0.8350 -0.1648
 1432SOL    HW1 5195   4.410   1.680   6.843  1.4714  2.1914  0.5648
 1432SOL    HW2 5196   4.535   1.693   6.739  0.3513  2.5799 -0.7765
 1433SOL     OW 5197   2.157   0.158   3.046 -0.3838  0.7720  0.1162
 1433SOL    HW1 5198   2.074   0.168   2.991 -1.0002  0.2264  0.9232
 1433SOL    HW2 5199   2.209   0.243   3.045 -1.5959  1.5313  0.6306
 1434SOL     OW 5200   4.111   3.653   4.027  0.2765 -0.1635  0.2017
 1434SOL    HW1 5201   4.015   3.634   4.009  0.6956 -1.3364 -0.9711
 1434SOL    HW2 5202   4.123   3.676   4.124 -1.1726  0.0033  0.3557
 1435SOL     OW 5203   2.367   5.634   0.470 -0.5166  0.0107 -0.3031
 1435SOL    HW1 5204   2.461   5.608   0.495 -0.1672  0.8156 -0.7384
 1435SOL    HW2 5205   2.303   5.568   0.510  0.2779 -1.0432 -0.6902
 1436SOL     OW 5206   6.057   0.373   3.996  0.0771  0.4810 -0.0836
 1436SOL    HW1 5207   6.100   0.307   4.057  0.1292  1.2668  0.7547
 1436SOL    HW2 5208   5.972   0.406   4.037 -1.4080 -1.0541 -1.7202
 1437SOL     OW 5209   5.545   6.905   5.882  0.5668 -0.1261  0.2260
 1437SOL    HW1 5210   5.534   7.000   5.910 -0.5948  0.0305 -0.6551
 1437SOL    HW2 5211   5.580   6.901   5.788 -1.0059 -0.4987 -0.3824
 1438SOL     OW 5212   2.547   3.911   6.931  0.4446 -0.3208 -0.2052
 1438SOL    HW1 5213   2.576   3.973   6.858  0.9470 -0.1337  0.1494
 1438SOL    HW2 5214   2.485   3.842   6.893 -2.8300  2.2753 -0.0905
 1439SOL     OW 5215   0.525   0.363   2.188 -0.1672 -0.6708 -0.9135
 1439SOL    HW1 5216   0.518   0.300   2.111 -1.3420 -1.5870 -0.1089
 1439SOL    HW2 5217   0.544   0.311   2.271  1.1896  0.3126 -0.5848
 1440SOL     OW 5218   4.123   1.150   1.778  0.5656  0.1402  0.0502
 1440SOL    HW1 5219   4.035   1.198   1.779  0.5880  0.3155 -2.1269
 1440SOL    HW2 5220   4.108   1.052   1.781  0.3218  0.1818  0.2309
 1441SOL     OW 5221   1.972   2.906   4.297  0.0194  0.9154 -0.3772
 1441SOL    HW1 5222   2.065   2.891   4.263  0.4729  1.5751  0.5083
 1441SOL    HW2 5223   1.910   2.921   4.220  0.5204 -0.1535 -1.0072
 1442SOL     OW 5224   3.260   3.287   1.551  0.0452  0.3613 -0.2929
 1442SOL    HW1 5225   3.326   3.281   1.626  1.6691  0.9400 -1.5982
 1442SOL    HW2 5226   3.197   3.362   1.569 -0.9238 -0.8084  1.4405
 1443SOL     OW 5227   1.414   4.533   2.282  0.6383 -0.4109 -0.0406
 1443SOL    HW1 5228   1.488   4.466   2.272 -0.6624 -1.6760 -1.8004
 1443SOL    HW2 5229   1.377   4.556   2.192 -0.6455  0.7616  0.7403
 1444SOL     OW 5230   3.642   4.142   4.409 -0.0394 -0.1871 -0.7130
 1444SOL    HW1 5231   3.690   4.055   4.426  0.6053 -0.0997 -1.9197
 1444SOL    HW2 5232   3.576   4.159   4.481  1.2376 -0.6942  0.6270
 1445SOL     OW 5233   5.907   4.210   6.475  0.2959 -0.4704  0.1346
 1445SOL    HW1 5234   5.906   4.156   6.559  2.4151 -2.8940 -1.2271
 1445SOL    HW2 5235   6.001   4.239   6.456 -0.1406  0.0686 -1.3545
 1446SOL     OW 5236   3.676   1.475   3.466 -0.3466 -0.1097  0.5951
 1446SOL    HW1 5237   3.746   1.528   3.419 -0.9316  0.3555  0.2325
 1446SOL    HW2 5238   3.718   1.417   3.535  0.6285 -1.2741 -0.8964
 1447SOL     OW 5239   5.229   5.763   6.542 -0.3434  0.1277 -0.4322
 1447SOL    HW1 5240   5.197   5.762   6.447 -1.5536 -0.0912 -0.0339
 1447SOL    HW2 5241   5.329   5.753   6.543 -0.2936  0.2863 -1.6809
 1448SOL     OW 5242   1.103   0.210   3.503 -0.0872 -0.7481 -0.3497
 1448SOL    HW1 5243   1.111   0.270   3.423 -1.2012 -1.1736 -0.7973
 1448SOL    HW2 5244   1.191   0.206   3.550 -0.0403  1.4447 -0.1475
 1449SOL     OW 5245   1.234   3.410   4.466 -0.0401 -0.2191 -0.0509
 1449SOL    HW1 5246   1.264   3.506   4.474  1.9100 -0.7448 -0.5618
 1449SOL    HW2 5247   1.145   3.407   4.421 -2.0516  1.5657  3.3327
 1450SOL     OW 5248   1.192   1.223   5.696  0.0018 -0.6760 -0.5076
 1450SOL    HW1 5249   1.118   1.167   5.658 -0.8628  0.9250 -1.2758
 1450SOL    HW2 5250   1.280   1.184   5.670 -0.5455 -2.2009 -0.2128
 1451SOL     OW 5251   3.297   1.641   2.750 -0.3267  0.7471 -0.2130
 1451SOL    HW1 5252   3.202   1.617   2.729 -1.0613  2.7629  0.5672
 1451SOL    HW2 5253   3.347   1.658   2.664 -0.3287 -1.2890 -0.6826
 1452SOL     OW 5254   6.469   6.928   3.804  0.1747  0.1218  0.3455
 1452SOL    HW1 5255   6.518   6.983   3.871 -0.9586  1.5873  0.0068
 1452SOL    HW2 5256   6.499   6.952   3.712  0.4921 -0.6549  0.2409
 1453SOL     OW 5257   4.870   1.099   3.350  0.4392 -0.1189 -0.5585
 1453SOL    HW1 5258   4.806   1.047   3.294 -0.2438  1.4287 -1.2727
 1453SOL    HW2 5259   4.962   1.060   3.340 -0.2393 -1.9828 -0.0041
 1454SOL     OW 5260   2.835   1.752   6.423 -0.3467 -0.3320  0.2046
 1454SOL    HW1 5261   2.821   1.808   6.505  0.0667  0.8799 -0.5143
 1454SOL    HW2 5262   2.874   1.664   6.448  2.5222  1.0754  1.1091
 1455SOL     OW 5263   1.456   1.883   2.542 -0.3061  0.0595  0.4037
 1455SOL    HW1 5264   1.434   1.786   2.542 -1.0518  0.2161  0.1937
 1455SOL    HW2 5265   1.419   1.925   2.458  0.8403  0.3451  0.0208
 1456SOL     OW 5266   3.273   5.992   0.382  0.1794 -0.4044 -0.3794
 1456SOL    HW1 5267   3.336   6.053   0.334  1.0075 -0.1634  0.9471
 1456SOL    HW2 5268   3.187   6.038   0.399  0.1677 -0.2222 -0.9263
 1457SOL     OW 5269   0.315   3.104   1.742 -0.2056 -0.5350 -0.4862
 1457SOL    HW1 5270   0.358   3.191   1.766 -1.5207 -0.4954  1.9787
 1457SOL    HW2 5271   0.257   3.117   1.662 -2.0624  1.4643  1.0539
 1458SOL     OW 5272   2.392   2.221   3.855 -0.0232 -0.0248  0.2123
 1458SOL    HW1 5273   2.458   2.147   3.853  1.7457  1.4949  0.0969
 1458SOL    HW2 5274   2.301   2.184   3.874  0.5687 -2.3380 -1.1288
 1459SOL     OW 5275   1.397   5.839   5.153 -0.1607  0.2735 -0.4055
 1459SOL    HW1 5276   1.358   5.797   5.072  0.6292 -1.2016 -0.0617
 1459SOL    HW2 5277   1.492   5.865   5.135 -0.0448  0.1268 -0.0237
 1460SOL     OW 5278   1.749   6.004   0.556 -0.0558  0.5155 -0.7425
 1460SOL    HW1 5279   1.689   5.932   0.592 -1.2214  0.9194 -1.7860
 1460SOL    HW2 5280   1.701   6.091   0.559 -0.1445  0.6050 -2.9895
 1461SOL     OW 5281   1.630   1.666   3.970  0.3384  0.0557  0.0497
 1461SOL    HW1 5282   1.602   1.578   3.931  3.1861  0.1987 -2.7032
 1461SOL    HW2 5283   1.578   1.739   3.927 -0.1265 -0.1009  0.3382
 1462SOL     OW 5284   2.809   6.621   2.182 -0.2007 -0.0432  0.7111
 1462SOL    HW1 5285   2.775   6.562   2.255 -2.4939  2.1446  1.5969
 1462SOL    HW2 5286   2.882   6.679   2.218  1.2063 -1.4257  0.1784
 1463SOL     OW 5287   4.470   1.609   4.650 -0.5722  0.0634  0.1196
 1463SOL    HW1 5288   4.435   1.673   4.719 -1.5088  0.0303 -0.3052
 1463SOL    HW2 5289   4.540   1.551   4.691  0.6151  1.6231  0.4081
 1464SOL     OW 5290   4.634   1.689   3.830 -0.0822  0.5396  0.4585
 1464SOL    HW1 5291   4.565   1.618   3.846 -1.0316  1.4177  0.3376
 1464SOL    HW2 5292   4.725   1.647   3.827 -0.6050 -0.6366  0.6216
 1465SOL     OW 5293   3.805   2.115   2.573 -0.0063  0.3935 -0.1466
 1465SOL    HW1 5294   3.884   2.172   2.592  0.2863 -0.0878  0.0816
 1465SOL    HW2 5295   3.785   2.118   2.475 -0.5422  1.5921 -0.0265
 1466SOL     OW 5296   0.335   6.393   6.633 -0.2345 -0.1157  0.4825
 1466SOL    HW1 5297   0.320   6.347   6.721 -0.8307 -1.1108 -0.1227
 1466SOL    HW2 5298   0.430   6.423   6.627  0.1361 -1.1494  0.9613
 1467SOL     OW 5299   1.644   5.405   0.479  0.1409  0.0683  0.5613
 1467SOL    HW1 5300   1.598   5.493   0.470  0.6265  0.4436  1.5480
 1467SOL    HW2 5301   1.627   5.349   0.397  0.5642  1.4237 -0.4972
 1468SOL     OW 5302   0.163   1.687   1.800 -0.5539  0.5622  0.1692
 1468SOL    HW1 5303   0.159   1.767   1.740 -2.1125  0.7752  0.5185
 1468SOL    HW2 5304   0.085   1.628   1.783 -1.9262  1.4043  2.9871
 1469SOL     OW 5305   0.824   1.985   1.255 -0.2244  0.2511 -0.6447
 1469SOL    HW1 5306   0.877   2.047   1.312  0.8333  0.3869 -1.7269
 1469SOL    HW2 5307   0.885   1.940   1.189 -1.1563 -1.0784 -0.6298
 1470SOL     OW 5308   2.227   6.326   5.290 -0.4071  0.6990  0.7217
 1470SOL    HW1 5309   2.153   6.376   5.335 -0.0577  2.0277 -0.1036
 1470SOL    HW2 5310   2.263   6.382   5.215 -1.2325 -1.5648 -1.4866
 1471SOL     OW 5311   5.290   3.339   1.722  0.4845 -0.2692 -0.0205
 1471SOL    HW1 5312   5.349   3.402   1.673  2.9006 -1.9497  0.5516
 1471SOL    HW2 5313   5.239   3.388   1.793  1.7127  1.1519 -0.0943
 1472SOL     OW 5314   5.273   2.150   0.096  0.1563 -0.0412 -0.0844
 1472SOL    HW1 5315   5.199   2.170   0.159 -0.1100  1.0078 -0.7142
 1472SOL    HW2 5316   5.355   2.123   0.147  0.7150  3.1825  0.8911
 1473SOL     OW 5317   3.048   3.901   4.270 -0.4078  1.1513  0.2390
 1473SOL    HW1 5318   2.956   3.918   4.233 -0.6093  2.0752  1.1059
 1473SOL    HW2 5319   3.040   3.853   4.357  0.0247 -0.2974 -0.4969
 1474SOL     OW 5320   4.496   5.208   3.342 -0.2375 -0.6566 -0.2382
 1474SOL    HW1 5321   4.538   5.208   3.251 -2.2672  0.5043 -1.2479
 1474SOL    HW2 5322   4.464   5.115   3.363 -0.8501 -0.7023 -1.2762
 1475SOL     OW 5323   3.489   6.125   0.250 -0.0003  0.3430 -0.3290
 1475SOL    HW1 5324   3.471   6.085   0.160 -0.3322  1.9351 -1.0035
 1475SOL    HW2 5325   3.536   6.213   0.239  1.2096 -0.0672  1.1196
 1476SOL     OW 5326   1.841   6.423   1.364 -0.2777  0.6204  0.3501
 1476SOL    HW1 5327   1.917   6.481   1.396 -1.2900  0.8346  2.6077
 1476SOL    HW2 5328   1.760   6.480   1.350 -1.3135 -0.1332  2.6839
 1477SOL     OW 5329   1.374   0.651   4.354  0.1158 -0.1183  0.1323
 1477SOL    HW1 5330   1.386   0.751   4.351  1.1904 -0.2383 -0.2594
 1477SOL    HW2 5331   1.403   0.617   4.443  2.0195 -0.3044 -0.5022
 1478SOL     OW 5332   7.008   1.756   5.560  0.4873  0.2857  0.0330
 1478SOL    HW1 5333   7.082   1.754   5.492  0.9557  0.8314  0.5136
 1478SOL    HW2 5334   7.019   1.678   5.623 -0.0935 -0.3661 -0.6555
 1479SOL     OW 5335   2.903   6.287   3.499 -0.3936  0.3012  0.6511
 1479SOL    HW1 5336   2.983   6.271   3.557  0.8956 -2.7296 -1.6861
 1479SOL    HW2 5337   2.929   6.342   3.420 -1.2131  1.1465  0.9446
 1480SOL     OW 5338   1.474   4.174   6.043 -0.3199  0.2890 -0.1518
 1480SOL    HW1 5339   1.450   4.262   6.001  1.4182  0.2415 -1.3384
 1480SOL    HW2 5340   1.571   4.175   6.068 -0.3906 -1.1380  0.2442
 1481SOL     OW 5341   1.350   6.871   5.841  0.2502 -0.1794  0.3871
 1481SOL    HW1 5342   1.355   6.939   5.913  1.2914 -1.0327  1.1620
 1481SOL    HW2 5343   1.255   6.854   5.816 -0.0796  0.5887  1.1066
 1482SOL     OW 5344   0.367   0.176   3.573 -0.6546 -0.9394 -0.4121
 1482SOL    HW1 5345   0.361   0.261   3.626  1.4336 -2.2873  2.2252
 1482SOL    HW2 5346   0.459   0.166   3.536 -0.1117 -3.1121  1.3551
 1483SOL     OW 5347   4.234   2.107   5.987  0.0778 -0.2868 -0.3970
 1483SOL    HW1 5348   4.256   2.070   5.897 -0.1151  2.5331 -1.7183
 1483SOL    HW2 5349   4.319   2.131   6.035  0.2012 -2.2581  0.4506
 1484SOL     OW 5350   5.778   1.588   0.636 -0.4419 -0.0899 -0.1766
 1484SOL    HW1 5351   5.876   1.571   0.631 -0.3344  0.3683  0.3587
 1484SOL    HW2 5352   5.736   1.526   0.702 -0.7329 -1.1935 -1.3545
 1485SOL     OW 5353   6.498   2.108   0.202  0.3609  0.5011  0.0576
 1485SOL    HW1 5354   6.424   2.051   0.165 -0.2434  1.3446 -0.0852
 1485SOL    HW2 5355   6.491   2.200   0.163  1.7759  0.4741 -0.3131
 1486SOL     OW 5356   5.670   3.161   4.155  0.5189 -0.2124  0.3841
 1486SOL    HW1 5357   5.728   3.227   4.107  0.4166  1.2538  2.1547
 1486SOL    HW2 5358   5.575   3.173   4.126  0.7772 -1.1371 -0.9247
 1487SOL     OW 5359   5.149   0.297   2.289 -0.2017  0.2880 -0.2744
 1487SOL    HW1 5360   5.155   0.250   2.378  0.8047  0.9044  0.0011
 1487SOL    HW2 5361   5.210   0.376   2.290 -0.9369  0.8706 -1.1805
 1488SOL     OW 5362   4.874   6.150   1.912  0.3784 -0.4240 -0.7716
 1488SOL    HW1 5363   4.955   6.161   1.855  0.9052  1.2836  0.2665
 1488SOL    HW2 5364   4.825   6.237   1.920  0.0951 -0.6995  1.0432
 1489SOL     OW 5365   4.175   4.780   5.027 -0.3420  0.1682 -0.2668
 1489SOL    HW1 5366   4.227   4.694   5.020  0.6280  0.5992  1.1130
 1489SOL    HW2 5367   4.170   4.823   4.937  0.9455 -0.3345 -0.6160
 1490SOL     OW 5368   2.680   4.348   1.456 -0.1568  0.4256  0.2108
 1490SOL    HW1 5369   2.708   4.252   1.448 -1.5277 -0.0232  0.4861
 1490SOL    HW2 5370   2.651   4.382   1.366  0.6310  0.6859  0.0521
 1491SOL     OW 5371   6.014   4.555   1.932 -0.7524  0.4688 -0.1518
 1491SOL    HW1 5372   6.107   4.591   1.929 -0.6944  0.6548  1.8935
 1491SOL    HW2 5373   6.017   4.455   1.944 -0.7867  0.5057  0.1967
 1492SOL     OW 5374   3.876   5.309   3.626 -0.0307 -0.2540  0.1374
 1492SOL    HW1 5375   3.940   5.371   3.671  1.3075 -1.8274  0.5209
 1492SOL    HW2 5376   3.798   5.292   3.686  0.1633  0.1592  0.5066
 1493SOL     OW 5377   6.684   0.604   0.632 -0.5166  0.2940 -0.2357
 1493SOL    HW1 5378   6.726   0.693   0.617  1.8227 -0.7807 -0.4310
 1493SOL    HW2 5379   6.657   0.596   0.728  1.4153  0.3981  0.3552
 1494SOL     OW 5380   6.344   0.544   1.376 -0.3187  0.5006 -0.2036
 1494SOL    HW1 5381   6.296   0.586   1.453  1.6203  1.7655  0.3641
 1494SOL    HW2 5382   6.428   0.500   1.408 -0.2355 -0.2614 -1.4008
 1495SOL     OW 5383   0.978   5.765   0.163  0.1226  0.1014 -0.1353
 1495SOL    HW1 5384   1.006   5.861   0.166  0.3131  0.0260  0.7581
 1495SOL    HW2 5385   0.881   5.759   0.138  0.4625  0.4399 -1.6372
 1496SOL     OW 5386   3.093   0.147   2.853 -0.3275 -0.1259  0.1156
 1496SOL    HW1 5387   3.094   0.133   2.754  1.2308 -0.0739  0.1026
 1496SOL    HW2 5388   3.097   0.245   2.873 -1.0111 -0.1208  0.2295
 1497SOL     OW 5389   6.394   0.220   2.028 -0.5494  0.5002  0.3575
 1497SOL    HW1 5390   6.389   0.318   2.047 -0.8191  0.4941  0.3248
 1497SOL    HW2 5391   6.476   0.182   2.071  2.5065  1.6715 -3.7840
 1498SOL     OW 5392   1.928   2.334   0.155  0.2201 -0.2107  0.1810
 1498SOL    HW1 5393   1.924   2.434   0.156 -1.1760 -0.2246 -0.7826
 1498SOL    HW2 5394   2.021   2.305   0.175  0.9372  1.3230 -0.7003
 1499SOL     OW 5395   2.247   2.605   5.988  0.2821  0.1999  0.0206
 1499SOL    HW1 5396   2.183   2.532   5.962 -0.0047  0.5353 -0.2184
 1499SOL    HW2 5397   2.340   2.567   5.991  0.2218 -0.0362 -0.7481
 1500SOL     OW 5398   4.037   6.505   3.050  0.2215  0.2496 -0.4279
 1500SOL    HW1 5399   4.104   6.563   3.005  1.1422 -0.8210 -0.4650
 1500SOL    HW2 5400   4.025   6.420   2.998 -1.2742  0.4611 -0.4986
 1501SOL     OW 5401   2.445   1.560   2.625 -0.6794  0.1003 -0.0601
 1501SOL    HW1 5402   2.352   1.575   2.591 -1.6299  0.1991  2.3775
 1501SOL    HW2 5403   2.441   1.521   2.717  1.6959  1.2433  0.6074
 1502SOL     OW 5404   3.950   6.873   5.404  0.0125 -0.3235 -0.4007
 1502SOL    HW1 5405   4.046   6.851   5.385  0.4245 -0.2253  1.3680
 1502SOL    HW2 5406   3.922   6.951   5.349  0.7835 -0.6778 -1.3185
 1503SOL     OW 5407   1.820   2.498   5.255  0.2537  0.0577 -0.0681
 1503SOL    HW1 5408   1.777   2.574   5.208  0.5448  0.8447  0.9025
 1503SOL    HW2 5409   1.892   2.458   5.198  0.3539  0.7453 -0.4222
 1504SOL     OW 5410   6.485   2.394   3.020  0.2705 -0.2056  0.2294
 1504SOL    HW1 5411   6.492   2.468   3.087 -0.7722 -1.6200  1.9936
 1504SOL    HW2 5412   6.523   2.310   3.059 -0.8328 -1.1968 -0.7346
 1505SOL     OW 5413   2.705   5.199   5.912  0.5941 -0.1507  0.1027
 1505SOL    HW1 5414   2.662   5.144   5.841  0.2781 -2.6521  2.0858
 1505SOL    HW2 5415   2.781   5.148   5.952  1.1179  1.4192  1.1924
 1506SOL     OW 5416   1.050   0.098   1.181  0.3450  0.3213 -0.3081
 1506SOL    HW1 5417   0.989   0.137   1.250 -0.8139 -0.4692 -0.8417
 1506SOL    HW2 5418   1.054   0.159   1.102 -0.4726 -0.0368 -0.6327
 1507SOL     OW 5419   0.329   0.751   0.521  0.3181 -0.2696  0.3337
 1507SOL    HW1 5420   0.272   0.685   0.570 -0.9674  0.8810  0.4498
 1507SOL    HW2 5421   0.406   0.777   0.579 -0.0720 -0.4507  0.9550
 1508SOL     OW 5422   6.807   6.291   6.976 -0.1338  0.6306  0.1349
 1508SOL    HW1 5423   6.750   6.297   7.058 -0.3235  0.5412  0.0092
 1508SOL    HW2 5424   6.827   6.384   6.943 -0.6554  0.6535 -0.1304
 1509SOL     OW 5425   5.744   1.774   1.364  0.3987  0.2258 -0.3085
 1509SOL    HW1 5426   5.824   1.813   1.409 -0.0114  1.4258 -0.5596
 1509SOL    HW2 5427   5.669   1.841   1.368  0.2258  0.2103 -2.4014
 1510SOL     OW 5428   0.266   4.892   4.611 -0.7877  0.1523  0.3002
 1510SOL    HW1 5429   0.309   4.968   4.564 -1.1504 -0.9585 -1.9523
 1510SOL    HW2 5430   0.336   4.833   4.651 -0.3561  0.0894 -0.5298
 1511SOL     OW 5431   1.950   0.853   0.336  0.2232 -0.0774  0.6632
 1511SOL    HW1 5432   1.911   0.884   0.249 -2.0859 -0.8816  1.3427
 1511SOL    HW2 5433   1.979   0.933   0.389 -0.1769  0.5460 -0.0270
 1512SOL     OW 5434   6.526   1.626   4.033  0.3421  0.2654  0.7824
 1512SOL    HW1 5435   6.479   1.539   4.021 -0.3390  0.8788 -1.6406
 1512SOL    HW2 5436   6.459   1.700   4.036  0.9868  1.0983 -2.0555
 1513SOL     OW 5437   4.816   2.363   6.584  0.0531  0.1203  0.7575
 1513SOL    HW1 5438   4.909   2.373   6.621  0.2573 -0.1869  0.3314
 1513SOL    HW2 5439   4.797   2.439   6.523  1.3047 -1.5001 -1.8408
 1514SOL     OW 5440   4.641   0.806   4.496  0.5460 -0.3681 -0.4428
 1514SOL    HW1 5441   4.632   0.848   4.406 -0.3350 -0.3296 -0.3418
 1514SOL    HW2 5442   4.551   0.792   4.536  0.9434  2.1075  1.6040
 1515SOL     OW 5443   4.247   0.025   2.738 -0.1802 -0.1556  0.0145
 1515SOL    HW1 5444   4.287   0.116   2.738  1.1120 -0.7004 -0.4823
 1515SOL    HW2 5445   4.147   0.032   2.730 -0.1607  1.2142  0.7340
 1516SOL     OW 5446   1.536   6.840   4.500  0.4716  0.5499 -0.1354
 1516SOL    HW1 5447   1.533   6.797   4.590  2.1425 -1.3779 -0.9203
 1516SOL    HW2 5448   1.521   6.770   4.429  2.4741  1.3589 -1.4475
 1517SOL     OW 5449   0.969   6.491   4.963  0.5127 -0.0134  0.3316
 1517SOL    HW1 5450   1.023   6.548   5.025 -0.8487  0.7751  0.8229
 1517SOL    HW2 5451   1.012   6.489   4.873  1.3785  0.5552  0.7234
 1518SOL     OW 5452   5.303   4.384   4.584 -0.2410 -0.0480 -0.2299
 1518SOL    HW1 5453   5.395   4.409   4.616 -0.1551  0.4695 -0.8551
 1518SOL    HW2 5454   5.249   4.351   4.661  0.2110  0.4222  0.3010
 1519SOL     OW 5455   5.743   1.253   0.684 -0.0631  0.1428  0.4534
 1519SOL    HW1 5456   5.803   1.217   0.756  0.8880 -0.0752 -0.4264
 1519SOL    HW2 5457   5.651   1.215   0.696  0.1769 -0.2041  1.3152
 1520SOL     OW 5458   3.845   0.495   4.710 -0.5468  0.2703 -0.1136
 1520SOL    HW1 5459   3.908   0.551   4.656  0.0898  0.9615  1.2942
 1520SOL    HW2 5460   3.872   0.498   4.806 -2.1217 -0.2609  0.3742
 1521SOL     OW 5461   1.633   5.829   4.998 -0.2833 -1.0978  0.4429
 1521SOL    HW1 5462   1.695   5.879   4.936  0.5484 -0.0461  2.0570
 1521SOL    HW2 5463   1.686   5.776   5.063 -1.1243 -1.5473  0.7761
 1522SOL     OW 5464   4.993   2.957   6.695 -0.0046  0.1057  0.0294
 1522SOL    HW1 5465   5.082   2.917   6.718  1.0443  2.1212 -0.3072
 1522SOL    HW2 5466   4.922   2.888   6.706  1.6020 -1.5978  0.2011
 1523SOL     OW 5467   4.868   6.026   1.192 -0.0647  0.0846  0.9267
 1523SOL    HW1 5468   4.807   6.052   1.117 -0.9345 -0.8728  1.2730
 1523SOL    HW2 5469   4.849   6.083   1.272  1.3975  1.6401  0.2279
 1524SOL     OW 5470   6.265   0.365   2.478 -0.4380 -0.2460 -0.4749
 1524SOL    HW1 5471   6.242   0.459   2.501  0.5473 -0.1216  0.0402
 1524SOL    HW2 5472   6.183   0.318   2.445 -0.5522  1.3478 -2.6861
 1525SOL     OW 5473   1.257   6.257   3.590 -0.2501  0.4162  0.6159
 1525SOL    HW1 5474   1.204   6.341   3.603  0.3922  0.6211  2.1196
 1525SOL    HW2 5475   1.348   6.269   3.629  0.8924  0.0047 -1.7057
 1526SOL     OW 5476   5.884   1.429   0.320 -0.2094 -0.3634 -0.5213
 1526SOL    HW1 5477   5.965   1.488   0.318 -1.0803  0.9564  1.0385
 1526SOL    HW2 5478   5.857   1.412   0.415 -0.7318 -2.2777 -0.9714
 1527SOL     OW 5479   4.312   2.533   6.008  0.0928 -0.2927 -0.1263
 1527SOL    HW1 5480   4.231   2.589   5.997  1.0115  1.2196  0.5634
 1527SOL    HW2 5481   4.310   2.488   6.098 -0.0088 -0.3136 -0.1386
 1528SOL     OW 5482   6.183   2.560   6.925 -0.4466  0.5748 -0.1566
 1528SOL    HW1 5483   6.120   2.595   6.994  0.9092  2.0109  0.4234
 1528SOL    HW2 5484   6.270   2.610   6.932 -0.2691  0.7695 -2.8985
 1529SOL     OW 5485   5.005   1.448   6.648 -0.0168  0.0495  0.4274
 1529SOL    HW1 5486   4.993   1.349   6.660  1.0887 -0.0247  0.9887
 1529SOL    HW2 5487   4.971   1.474   6.557 -0.6394 -0.7775  0.4065
 1530SOL     OW 5488   2.447   2.069   2.474  0.5006 -0.9317 -0.2715
 1530SOL    HW1 5489   2.460   1.991   2.536  0.8284 -1.0768 -0.5216
 1530SOL    HW2 5490   2.448   2.154   2.527 -1.8734 -1.1861  0.2949
 1531SOL     OW 5491   2.181   6.048   1.828 -0.2326  0.1208 -0.0996
 1531SOL    HW1 5492   2.136   6.005   1.906 -2.0064  1.0751 -0.5502
 1531SOL    HW2 5493   2.277   6.064   1.850 -0.4070 -0.7434  1.4130
 1532SOL     OW 5494   5.874   4.077   3.968 -0.4167  0.4372  0.6437
 1532SOL    HW1 5495   5.784   4.116   3.988  0.8574  2.8407  2.1013
 1532SOL    HW2 5496   5.909   4.115   3.883 -0.3688  0.2272  0.5683
 1533SOL     OW 5497   2.125   3.592   2.635 -0.3632  0.1757 -0.3000
 1533SOL    HW1 5498   2.215   3.559   2.606 -0.7588 -0.1296 -1.2044
 1533SOL    HW2 5499   2.053   3.536   2.594 -0.9665  0.0565  0.8701
 1534SOL     OW 5500   6.688   0.136   5.553  0.4166  0.1623 -0.1370
 1534SOL    HW1 5501   6.646   0.059   5.601  2.8285 -0.1765  1.6203
 1534SOL    HW2 5502   6.739   0.101   5.474 -0.4570  0.2696 -0.7577
 1535SOL     OW 5503   5.326   5.994   5.380 -0.6270  0.1941 -0.4674
 1535SOL    HW1 5504   5.241   5.991   5.434 -1.5375  1.5798 -1.7546
 1535SOL    HW2 5505   5.323   5.922   5.310  1.1355 -2.5014  1.9949
 1536SOL     OW 5506   0.229   1.026   5.995 -0.1621  0.3147 -0.0586
 1536SOL    HW1 5507   0.282   1.093   6.046  0.4892 -0.4753  0.3216
 1536SOL    HW2 5508   0.285   0.987   5.922  0.0131 -1.0121  0.7636
 1537SOL     OW 5509   2.137   4.103   6.293 -0.5143  0.2859 -0.0895
 1537SOL    HW1 5510   2.174   4.011   6.284  0.7435  0.8948 -1.7394
 1537SOL    HW2 5511   2.048   4.108   6.248 -0.7024 -0.1908  0.2306
 1538SOL     OW 5512   1.477   3.637   5.585  0.3372  0.1236 -0.6851
 1538SOL    HW1 5513   1.468   3.555   5.528 -2.0470 -0.3444  0.2304
 1538SOL    HW2 5514   1.460   3.612   5.681  0.2769  1.5566 -0.3057
 1539SOL     OW 5515   5.863   0.642   2.137  0.2512 -0.2983  0.3266
 1539SOL    HW1 5516   5.767   0.666   2.126 -0.0698 -1.2335  1.0068
 1539SOL    HW2 5517   5.872   0.543   2.149  1.2929 -0.2178  0.3176
 1540SOL     OW 5518   3.623   0.736   2.277  0.2907  0.2703  0.1647
 1540SOL    HW1 5519   3.621   0.835   2.259 -0.3458  0.0054 -1.3626
 1540SOL    HW2 5520   3.622   0.721   2.376  0.2649  1.7900  0.4322
 1541SOL     OW 5521   7.009   4.314   1.608  0.5267 -0.0119  0.1016
 1541SOL    HW1 5522   7.069   4.385   1.645 -1.6155  2.1729 -0.3587
 1541SOL    HW2 5523   6.959   4.270   1.682 -0.0001  0.7763  0.2260
 1542SOL     OW 5524   3.418   2.692   6.089  0.1709 -0.1602 -0.7174
 1542SOL    HW1 5525   3.408   2.777   6.037 -0.2769  0.4964  0.4171
 1542SOL    HW2 5526   3.422   2.614   6.025 -1.4489  0.5130 -1.7003
 1543SOL     OW 5527   3.920   3.592   6.690  0.0889 -0.2843  0.8032
 1543SOL    HW1 5528   3.853   3.665   6.702 -0.9346 -0.8577 -0.9745
 1543SOL    HW2 5529   3.935   3.545   6.776 -1.6242  0.0151  1.2859
 1544SOL     OW 5530   0.910   5.850   4.620 -0.0003  0.8355 -0.0150
 1544SOL    HW1 5531   0.933   5.835   4.524  2.1037  0.9580  0.4221
 1544SOL    HW2 5532   0.853   5.774   4.654 -0.6933  0.7583 -1.3013
 1545SOL     OW 5533   2.501   6.920   5.470  0.5839 -0.0081 -0.0501
 1545SOL    HW1 5534   2.411   6.960   5.488 -0.6997 -2.8427  0.3403
 1545SOL    HW2 5535   2.513   6.907   5.372  1.0257  1.2771 -0.1818
 1546SOL     OW 5536   6.156   6.320   0.735 -0.7848 -0.0361  0.4768
 1546SOL    HW1 5537   6.121   6.227   0.751  0.9104 -0.9223 -0.6245
 1546SOL    HW2 5538   6.224   6.343   0.806 -1.8932  0.7769  1.3057
 1547SOL     OW 5539   3.304   1.786   1.868 -0.4935 -0.3596 -0.0325
 1547SOL    HW1 5540   3.233   1.853   1.891 -0.1680  0.0999 -0.3418
 1547SOL    HW2 5541   3.351   1.757   1.952  2.0233  2.7917 -0.1596
 1548SOL     OW 5542   5.003   6.752   0.258 -0.5941  0.0343 -0.0899
 1548SOL    HW1 5543   4.966   6.784   0.171 -2.0491  0.0975  0.5298
 1548SOL    HW2 5544   4.934   6.760   0.329  0.2699 -0.8761  0.8937
 1549SOL     OW 5545   5.921   2.822   6.853 -0.5266  0.3761  0.5803
 1549SOL    HW1 5546   5.947   2.904   6.904  0.9610  0.9980 -1.1015
 1549SOL    HW2 5547   5.998   2.791   6.797 -2.2074  0.0309 -1.6791
 1550SOL     OW 5548   0.144   5.865   6.346  0.6876  0.3318  0.0795
 1550SOL    HW1 5549   0.187   5.917   6.419 -2.2698  2.1867  0.6780
 1550SOL    HW2 5550   0.105   5.781   6.383  0.1170  0.7519  0.4533
 1551SOL     OW 5551   1.675   4.739   0.301  0.6529 -0.4709 -0.7259
 1551SOL    HW1 5552   1.655   4.781   0.390 -1.4176 -1.7408 -0.5183
 1551SOL    HW2 5553   1.771   4.711   0.299  1.5010  2.1017 -0.0349
 1552SOL     OW 5554   6.603   3.186   6.920  0.0592  0.6225 -0.3271
 1552SOL    HW1 5555   6.583   3.224   7.011 -0.5507  0.5407 -0.4259
 1552SOL    HW2 5556   6.701   3.195   6.902  0.5761 -1.2175  1.2106
 1553SOL     OW 5557   4.075   5.831   1.068 -0.3423 -0.3390  0.4326
 1553SOL    HW1 5558   4.131   5.884   1.005 -1.1766 -0.8169 -0.7533
 1553SOL    HW2 5559   4.004   5.782   1.017 -1.0333 -0.7715  1.7420
 1554SOL     OW 5560   6.113   0.932   6.892  0.1755  0.0912  0.7273
 1554SOL    HW1 5561   6.023   0.889   6.900 -0.7546  1.7403 -0.2794
 1554SOL    HW2 5562   6.138   0.939   6.795  2.0887 -1.6456  1.0277
 1555SOL     OW 5563   1.064   6.008   5.754  0.0241 -0.1845  0.6377
 1555SOL    HW1 5564   1.106   6.097   5.769 -0.4896  0.0312  0.8060
 1555SOL    HW2 5565   1.136   5.939   5.742  0.4222  0.2156  0.6988
 1556SOL     OW 5566   4.142   5.343   4.015  0.5020  0.7019  0.1117
 1556SOL    HW1 5567   4.168   5.326   3.920 -0.7603 -2.5931  0.2558
 1556SOL    HW2 5568   4.043   5.357   4.021  0.5030  0.3998  1.0171
 1557SOL     OW 5569   0.973   5.439   3.699  0.3275  0.1268  0.4669
 1557SOL    HW1 5570   1.013   5.519   3.654  0.7075 -0.8408 -0.9851
 1557SOL    HW2 5571   0.927   5.382   3.631  1.1022 -1.5088  1.2677
 1558SOL     OW 5572   4.900   1.394   1.854 -0.1131  0.2030  0.0425
 1558SOL    HW1 5573   4.938   1.302   1.864 -0.7171 -0.0595 -0.0229
 1558SOL    HW2 5574   4.956   1.459   1.905  0.9565 -0.0244 -0.7983
 1559SOL     OW 5575   5.125   1.795   5.553 -0.0517 -0.2966  0.5261
 1559SOL    HW1 5576   5.156   1.757   5.640  0.9777  1.2680  0.8869
 1559SOL    HW2 5577   5.095   1.890   5.566  0.3883  0.0653 -0.8437
 1560SOL     OW 5578   2.183   4.699   1.438 -0.1208  0.1882 -0.3149
 1560SOL    HW1 5579   2.174   4.789   1.481 -1.0683 -0.2053  0.3561
 1560SOL    HW2 5580   2.103   4.682   1.380  0.3287  0.0030 -0.8874
 1561SOL     OW 5581   3.037   1.813   3.562 -0.5013  0.2642 -0.2239
 1561SOL    HW1 5582   3.134   1.799   3.541 -0.5696  1.1610 -1.2451
 1561SOL    HW2 5583   3.005   1.741   3.624  1.1343  0.7044  1.1786
 1562SOL     OW 5584   5.947   5.726   4.173 -0.8466  0.3722  0.3936
 1562SOL    HW1 5585   5.906   5.720   4.082  0.6332  0.1420 -0.2887
 1562SOL    HW2 5586   5.900   5.795   4.227 -2.2169 -0.0019 -0.2856
 1563SOL     OW 5587   6.853   2.220   6.568 -0.3585 -0.2002  0.4237
 1563SOL    HW1 5588   6.788   2.293   6.589 -2.1393 -2.3074  2.6774
 1563SOL    HW2 5589   6.813   2.159   6.499  0.0764 -0.4454  0.3879
 1564SOL     OW 5590   6.471   2.679   6.099  0.1616  0.4221  0.4911
 1564SOL    HW1 5591   6.449   2.588   6.136  1.3101 -0.2089 -0.3209
 1564SOL    HW2 5592   6.569   2.696   6.110  0.2549  0.8590 -0.8762
 1565SOL     OW 5593   0.848   2.143   6.100  0.6479  0.0947 -0.0710
 1565SOL    HW1 5594   0.885   2.109   6.013 -0.6175 -1.9132  0.1030
 1565SOL    HW2 5595   0.874   2.081   6.173 -1.1521 -0.1703  0.4024
 1566SOL     OW 5596   0.110   4.841   6.233  0.0107  0.3362  0.4174
 1566SOL    HW1 5597   0.064   4.829   6.322 -1.8991 -2.3450 -0.7795
 1566SOL    HW2 5598   0.064   4.913   6.181 -2.5943 -1.7434 -0.4254
 1567SOL     OW 5599   0.835   0.662   7.005 -0.5133 -0.0014 -0.8174
 1567SOL    HW1 5600   0.868   0.574   6.969 -0.0992 -0.0562 -0.3177
 1567SOL    HW2 5601   0.892   0.689   7.083 -2.0725 -0.4304  0.5208
 1568SOL     OW 5602   4.329   1.384   5.413  0.1074  0.3003 -0.5137
 1568SOL    HW1 5603   4.254   1.381   5.478 -0.3281  1.1942 -0.9519
 1568SOL    HW2 5604   4.395   1.312   5.434 -0.8628 -0.5002 -0.1215
 1569SOL     OW 5605   2.931   1.722   4.245  0.1532  0.0433 -0.6314
 1569SOL    HW1 5606   2.941   1.671   4.160  1.6211  0.5150 -0.7689
 1569SOL    HW2 5607   3.010   1.705   4.304 -0.8769 -0.3337  0.6776
 1570SOL     OW 5608   2.148   6.371   1.373  0.0112 -0.0776  0.1909
 1570SOL    HW1 5609   2.109   6.439   1.435  0.2212 -0.2775  0.5395
 1570SOL    HW2 5610   2.161   6.413   1.283  0.9953  0.6192  0.6354
 1571SOL     OW 5611   1.042   4.948   4.134  0.3570  0.1833 -0.2756
 1571SOL    HW1 5612   1.054   5.040   4.173  1.6796  0.7112 -1.8060
 1571SOL    HW2 5613   1.106   4.936   4.059 -0.7845 -1.4915 -1.0306
 1572SOL     OW 5614   3.041   2.334   0.601 -0.1177 -0.3743  0.0289
 1572SOL    HW1 5615   3.109   2.359   0.669  0.7882 -1.3810 -0.4704
 1572SOL    HW2 5616   3.052   2.393   0.520 -0.9642  0.5836  0.5806
 1573SOL     OW 5617   6.385   6.408   1.982  0.0698 -0.0146  0.5904
 1573SOL    HW1 5618   6.288   6.422   2.001 -0.3184 -2.3712  0.5945
 1573SOL    HW2 5619   6.429   6.497   1.969 -1.8043  1.1810  1.8511
 1574SOL     OW 5620   4.391   5.829   1.521 -0.1141  0.0466  0.4219
 1574SOL    HW1 5621   4.317   5.890   1.549  0.5421  0.3438  1.5981
 1574SOL    HW2 5622   4.458   5.880   1.466  0.3781  0.3808  1.3122
 1575SOL     OW 5623   3.978   3.221   5.102  0.5075  0.3240  0.3063
 1575SOL    HW1 5624   3.953   3.260   5.191 -0.1806  0.4282  0.0715
 1575SOL    HW2 5625   3.916   3.145   5.080  0.2820  0.6910 -0.3590
 1576SOL     OW 5626   4.548   4.351   5.924  0.4467  0.2093 -0.0266
 1576SOL    HW1 5627   4.618   4.362   5.995 -0.9392  3.5512  1.0586
 1576SOL    HW2 5628   4.475   4.293   5.958  0.0006  1.4354  1.2135
 1577SOL     OW 5629   3.884   5.096   2.708 -0.1619  0.5219 -0.4512
 1577SOL    HW1 5630   3.856   5.027   2.775  1.1590 -0.3984 -0.7896
 1577SOL    HW2 5631   3.984   5.105   2.709 -0.0794  0.3897 -2.3578
 1578SOL     OW 5632   0.350   3.952   3.241 -0.2525 -0.0868  0.3467
 1578SOL    HW1 5633   0.292   3.888   3.292  0.6845 -0.3190  1.1706
 1578SOL    HW2 5634   0.442   3.951   3.280  0.4686 -0.1416 -1.2740
 1579SOL     OW 5635   5.809   5.250   6.853 -0.1610 -0.3044 -0.2342
 1579SOL    HW1 5636   5.895   5.290   6.822  1.5088 -2.7229  0.9604
 1579SOL    HW2 5637   5.759   5.213   6.775  0.5240 -0.0469 -0.8072
 1580SOL     OW 5638   5.361   5.424   5.404 -0.2696  0.4151  0.2000
 1580SOL    HW1 5639   5.447   5.465   5.433  1.2103  0.0603 -3.2024
 1580SOL    HW2 5640   5.291   5.495   5.397 -1.0661  0.4407  4.8929
 1581SOL     OW 5641   4.600   4.834   0.527 -0.1385  0.2044 -0.0508
 1581SOL    HW1 5642   4.578   4.833   0.624  0.0276  1.8276  0.0409
 1581SOL    HW2 5643   4.523   4.874   0.476 -0.6387 -1.5399 -0.7312
 1582SOL     OW 5644   0.249   1.345   1.489 -0.0010 -0.0899 -0.6752
 1582SOL    HW1 5645   0.290   1.270   1.438  0.4834 -1.6984  1.9230
 1582SOL    HW2 5646   0.160   1.316   1.525  0.9573 -0.1358  1.8247
 1583SOL     OW 5647   2.758   6.976   4.324 -0.3888 -0.2556  0.4164
 1583SOL    HW1 5648   2.840   7.024   4.291  0.0782 -1.5411 -0.4050
 1583SOL    HW2 5649   2.724   6.916   4.252 -1.6162 -0.3208  1.0278
 1584SOL     OW 5650   5.644   5.405   6.989  0.4411 -0.4609  0.1276
 1584SOL    HW1 5651   5.706   5.340   6.945  1.9915 -0.6156  2.3378
 1584SOL    HW2 5652   5.609   5.365   7.074 -3.0526 -0.4944 -1.1463
 1585SOL     OW 5653   5.866   0.085   6.679  0.3951 -0.5354 -0.0938
 1585SOL    HW1 5654   5.837   0.081   6.583  0.2755  0.5763 -0.1169
 1585SOL    HW2 5655   5.964   0.103   6.683  0.0545  1.4431 -0.0239
 1586SOL     OW 5656   6.489   5.661   2.964  0.1317  0.5701 -0.3060
 1586SOL    HW1 5657   6.561   5.720   3.000 -1.4941  2.6311 -0.2026
 1586SOL    HW2 5658   6.514   5.566   2.978  2.0101  1.2238  1.3391
 1587SOL     OW 5659   2.055   1.898   5.484 -0.0574 -0.0964 -0.1678
 1587SOL    HW1 5660   2.107   1.816   5.457  0.5688  0.2147  0.0601
 1587SOL    HW2 5661   2.025   1.889   5.579  0.8193  0.3259  0.1617
 1588SOL     OW 5662   6.091   4.439   1.187  0.0909  0.0652  0.1538
 1588SOL    HW1 5663   6.070   4.387   1.269 -0.4430 -1.0760 -0.6734
 1588SOL    HW2 5664   6.067   4.385   1.106 -0.4672  1.5933 -0.7567
 1589SOL     OW 5665   2.892   2.182   4.921 -0.0978  0.2522  0.2667
 1589SOL    HW1 5666   2.856   2.258   4.866  0.4191  0.0810 -0.3170
 1589SOL    HW2 5667   2.984   2.204   4.951  0.0326 -0.1214  0.1447
 1590SOL     OW 5668   3.011   1.674   0.161  0.0219  0.1067 -0.0827
 1590SOL    HW1 5669   3.070   1.594   0.163  0.4473  0.4161 -0.0049
 1590SOL    HW2 5670   3.067   1.757   0.172 -0.0089  0.6220 -3.0561
 1591SOL     OW 5671   5.399   5.394   4.757  0.4058  0.1132  0.3324
 1591SOL    HW1 5672   5.428   5.311   4.709  0.7066  0.3568  0.0918
 1591SOL    HW2 5673   5.351   5.454   4.694 -0.3874 -0.1652  0.6653
 1592SOL     OW 5674   5.204   2.595   6.711  0.6218  0.1950  0.0828
 1592SOL    HW1 5675   5.199   2.683   6.757 -2.8371  0.2335 -0.1213
 1592SOL    HW2 5676   5.221   2.523   6.778  3.7006  0.9065  0.2256
 1593SOL     OW 5677   5.861   6.823   4.284  0.1262 -0.1664 -0.4627
 1593SOL    HW1 5678   5.780   6.875   4.257 -0.0617  0.2185  0.8150
 1593SOL    HW2 5679   5.882   6.757   4.212 -2.7721 -1.9988  0.2110
 1594SOL     OW 5680   0.893   0.472   0.394 -0.1361  0.0985 -0.0238
 1594SOL    HW1 5681   0.831   0.486   0.470 -0.2307 -0.7725  0.0754
 1594SOL    HW2 5682   0.986   0.459   0.428 -0.0988  0.1864 -0.0901
 1595SOL     OW 5683   3.614   2.906   4.532 -0.0903 -0.5255 -0.2170
 1595SOL    HW1 5684   3.584   2.898   4.437  0.2085 -2.7143 -0.1727
 1595SOL    HW2 5685   3.696   2.963   4.536  0.7629 -1.5962 -1.4991
 1596SOL     OW 5686   5.603   4.083   3.836  0.1168 -0.4981 -0.6224
 1596SOL    HW1 5687   5.621   4.147   3.911 -0.3508 -2.3190  1.1230
 1596SOL    HW2 5688   5.508   4.093   3.807 -0.7536 -2.0287  1.4050
 1597SOL     OW 5689   1.676   5.236   1.536 -0.3512  0.8023 -0.6230
 1597SOL    HW1 5690   1.771   5.226   1.565 -0.4431 -4.5848 -1.0790
 1597SOL    HW2 5691   1.672   5.246   1.437 -0.1269 -1.7856 -0.9610
 1598SOL     OW 5692   2.228   1.968   0.306 -0.1884 -0.6372  0.4566
 1598SOL    HW1 5693   2.147   2.027   0.298 -0.3740 -0.7058  1.7065
 1598SOL    HW2 5694   2.234   1.910   0.225 -0.5359  0.4195 -0.3615
 1599SOL     OW 5695   4.901   0.385   1.136 -0.0469  0.3344 -0.4267
 1599SOL    HW1 5696   4.878   0.341   1.049 -0.4057  0.0770 -0.2062
 1599SOL    HW2 5697   4.857   0.335   1.211  0.5358  0.3571 -0.0698
 1600SOL     OW 5698   5.652   6.118   5.804  0.5960  0.3669 -0.1228
 1600SOL    HW1 5699   5.556   6.131   5.826  0.1490 -0.5588 -1.3811
 1600SOL    HW2 5700   5.702   6.093   5.886 -0.3634  0.2483  0.4356
 1601SOL     OW 5701   2.807   1.904   6.683  0.3512 -0.6735  0.5635
 1601SOL    HW1 5702   2.734   1.971   6.672 -0.3532 -1.0896  2.3770
 1601SOL    HW2 5703   2.894   1.951   6.698  0.2832 -0.1849 -0.4828
 1602SOL     OW 5704   6.692   2.953   3.547  0.0227 -0.5281 -0.5639
 1602SOL    HW1 5705   6.788   2.980   3.538  0.2303 -0.7390  0.7767
 1602SOL    HW2 5706   6.685   2.878   3.613 -0.8806 -1.6867 -1.9400
 1603SOL     OW 5707   5.326   3.453   2.545 -0.1712  0.0813 -0.2505
 1603SOL    HW1 5708   5.311   3.374   2.604 -0.1671  0.3968  0.1874
 1603SOL    HW2 5709   5.278   3.532   2.584  0.0048  0.3416 -0.5619
 1604SOL     OW 5710   1.014   3.835   6.246  0.4170 -0.3289  0.3702
 1604SOL    HW1 5711   0.958   3.917   6.239  0.6582 -0.1342  0.6849
 1604SOL    HW2 5712   1.111   3.861   6.243  0.4972 -0.7377 -1.0918
 1605SOL     OW 5713   4.367   4.006   5.424  0.4647 -0.1207  0.1084
 1605SOL    HW1 5714   4.380   4.097   5.385  3.1220  0.0763  1.2387
 1605SOL    HW2 5715   4.316   4.014   5.510 -2.9370 -0.2571 -1.7402
 1606SOL     OW 5716   5.729   3.438   5.045 -0.6382  0.3814 -0.3042
 1606SOL    HW1 5717   5.729   3.498   5.124 -0.9701 -0.9979  0.7838
 1606SOL    HW2 5718   5.817   3.446   4.997 -0.2152  0.8150  0.5262
 1607SOL     OW 5719   0.183   2.956   2.092  0.0746  0.0685  0.1147
 1607SOL    HW1 5720   0.144   2.969   2.183 -1.3365  0.3704 -0.5179
 1607SOL    HW2 5721   0.143   3.021   2.028 -0.8517 -1.7433 -1.2661
 1608SOL     OW 5722   6.282   4.098   4.672 -0.2994  0.5536  0.0285
 1608SOL    HW1 5723   6.324   4.041   4.742 -0.1723  0.1666 -0.3530
 1608SOL    HW2 5724   6.185   4.074   4.664 -0.0454 -0.2685 -0.7637
 1609SOL     OW 5725   4.814   2.884   3.955 -0.1031 -0.1285 -0.0212
 1609SOL    HW1 5726   4.914   2.882   3.947 -0.1976 -1.6756 -1.1430
 1609SOL    HW2 5727   4.775   2.910   3.867 -0.7341 -1.3061 -0.0998
 1610SOL     OW 5728   1.980   1.132   2.064  0.4857 -0.2876  0.5305
 1610SOL    HW1 5729   1.974   1.033   2.052 -2.2344 -0.1565  0.2622
 1610SOL    HW2 5730   1.978   1.154   2.162  0.9138 -0.4768  0.5836
 1611SOL     OW 5731   2.150   3.371   3.841 -0.0310 -0.1887  0.0772
 1611SOL    HW1 5732   2.066   3.339   3.797 -1.2207 -0.2009  2.2323
 1611SOL    HW2 5733   2.172   3.463   3.808 -0.1388 -0.6916 -1.4579
 1612SOL     OW 5734   6.341   1.821   0.613 -0.4322  0.5816  0.3548
 1612SOL    HW1 5735   6.400   1.817   0.533 -0.5524 -0.8072  0.3152
 1612SOL    HW2 5736   6.392   1.789   0.693 -1.1111 -0.6017  0.3259
 1613SOL     OW 5737   2.678   0.616   3.647  0.7468  0.5408 -0.1302
 1613SOL    HW1 5738   2.677   0.702   3.596 -0.7120  0.9006  0.4556
 1613SOL    HW2 5739   2.737   0.625   3.727  1.2694  0.7101 -0.5302
 1614SOL     OW 5740   4.483   6.025   2.064 -0.4957 -0.3091  0.0242
 1614SOL    HW1 5741   4.462   6.074   2.149  0.1765 -0.9846  0.5928
 1614SOL    HW2 5742   4.402   6.025   2.005  0.0163  3.1851 -0.9050
 1615SOL     OW 5743   6.271   0.096   5.470  0.1504 -0.5888 -0.2043
 1615SOL    HW1 5744   6.366   0.109   5.444 -0.9289  2.7359 -3.2990
 1615SOL    HW2 5745   6.249   0.155   5.549  0.3645 -0.4038 -0.2826
 1616SOL     OW 5746   5.394   2.518   1.704  0.1994  0.0969 -0.2754
 1616SOL    HW1 5747   5.335   2.598   1.714 -2.3462 -1.7678  0.7784
 1616SOL    HW2 5748   5.383   2.457   1.783  0.6050 -2.1487 -1.8335
 1617SOL     OW 5749   0.511   1.952   4.142 -0.0343  1.1669 -0.0472
 1617SOL    HW1 5750   0.440   1.884   4.158  0.8013  0.3032  0.0560
 1617SOL    HW2 5751   0.559   1.932   4.057  0.7624  1.1274  0.3974
 1618SOL     OW 5752   4.276   1.381   6.748 -0.0188  0.2866  1.0374
 1618SOL    HW1 5753   4.220   1.348   6.823  0.2215 -2.6099  0.0637
 1618SOL    HW2 5754   4.237   1.351   6.661  0.2792  2.6535 -0.0171
 1619SOL     OW 5755   4.641   0.890   1.611  0.0865 -0.6424  0.1616
 1619SOL    HW1 5756   4.629   0.946   1.529 -1.8299 -1.3855 -0.1124
 1619SOL    HW2 5757   4.553   0.880   1.658  1.0955 -0.4150  2.2253
 1620SOL     OW 5758   4.020   1.716   2.440 -0.4543 -0.1086  0.3240
 1620SOL    HW1 5759   4.088   1.677   2.502  0.7209  1.3626  0.0376
 1620SOL    HW2 5760   3.946   1.757   2.494 -0.1067  0.0017  0.7255
 1621SOL     OW 5761   1.725   2.031   2.080  0.2513 -0.4135  0.0657
 1621SOL    HW1 5762   1.650   2.033   2.146  0.3508 -0.9081  0.1965
 1621SOL    HW2 5763   1.732   2.120   2.035 -0.7041 -0.4996 -0.2789
 1622SOL     OW 5764   3.752   0.806   1.767 -0.4452  0.2114  0.2312
 1622SOL    HW1 5765   3.768   0.876   1.837  0.8297  1.4177 -1.1760
 1622SOL    HW2 5766   3.656   0.778   1.769 -1.2518  2.6829  0.3013
 1623SOL     OW 5767   3.389   3.332   4.654  0.1151 -0.1233  0.1392
 1623SOL    HW1 5768   3.361   3.342   4.559 -1.7110  0.3025  0.6715
 1623SOL    HW2 5769   3.417   3.238   4.672 -0.8605 -0.5453 -0.5088
 1624SOL     OW 5770   1.593   1.077   0.759 -0.5298 -0.2656 -0.1418
 1624SOL    HW1 5771   1.689   1.086   0.734  0.3377 -0.5986  2.7109
 1624SOL    HW2 5772   1.566   1.152   0.819 -0.9849 -1.9951  1.9476
 1625SOL     OW 5773   3.058   2.647   6.292  0.0617 -0.0525  0.0370
 1625SOL    HW1 5774   3.085   2.642   6.196 -1.3118  1.2690 -0.4599
 1625SOL    HW2 5775   2.994   2.573   6.313 -0.7802  0.5112 -0.4843
 1626SOL     OW 5776   4.451   1.598   4.117  0.7085 -0.3347 -0.4320
 1626SOL    HW1 5777   4.424   1.602   4.021 -2.0314  1.5407  0.2855
 1626SOL    HW2 5778   4.374   1.628   4.174  2.7564  0.1239  2.2778
 1627SOL     OW 5779   0.622   2.528   2.474 -0.5458  0.7635  0.1335
 1627SOL    HW1 5780   0.548   2.525   2.407 -0.4314 -1.7394  0.0289
 1627SOL    HW2 5781   0.685   2.603   2.451 -2.1992  1.9712 -0.6427
 1628SOL     OW 5782   2.410   0.439   4.401 -0.0637 -0.1367 -0.9623
 1628SOL    HW1 5783   2.412   0.386   4.487 -1.7836  0.7166 -0.3501
 1628SOL    HW2 5784   2.478   0.402   4.338  0.4072 -1.5728  0.3180
 1629SOL     OW 5785   4.466   5.598   0.241 -0.3061 -0.3719 -0.1681
 1629SOL    HW1 5786   4.455   5.567   0.147 -0.0251  1.8407 -0.9648
 1629SOL    HW2 5787   4.562   5.614   0.261 -0.4932  0.6682 -0.0306
 1630SOL     OW 5788   1.985   0.042   1.887  0.1011 -0.0390  0.4778
 1630SOL    HW1 5789   1.956   0.103   1.961  2.1072  1.0162  0.4600
 1630SOL    HW2 5790   2.057  -0.018   1.920  1.0890  0.5133 -0.6119
 1631SOL     OW 5791   3.881   0.182   1.981 -0.9236  0.1856 -0.2954
 1631SOL    HW1 5792   3.826   0.149   2.057 -1.1116  0.7342 -0.1912
 1631SOL    HW2 5793   3.963   0.228   2.016 -1.0121  0.4412 -0.4219
 1632SOL     OW 5794   4.174   3.122   5.362  0.2152  0.1695 -0.0013
 1632SOL    HW1 5795   4.238   3.189   5.399  0.5885  0.6434 -1.4600
 1632SOL    HW2 5796   4.083   3.163   5.355 -0.0078 -0.1386  1.0032
 1633SOL     OW 5797   4.028   1.161   6.719 -0.2348  0.3051 -0.0631
 1633SOL    HW1 5798   3.946   1.104   6.711  0.4614 -0.5979 -1.1840
 1633SOL    HW2 5799   4.040   1.212   6.634  0.5369  0.1796 -0.0323
 1634SOL     OW 5800   0.417   5.336   0.792  0.1213  0.8648  0.0521
 1634SOL    HW1 5801   0.467   5.415   0.828  3.2201 -0.5010 -0.8551
 1634SOL    HW2 5802   0.437   5.326   0.695 -0.9810 -0.4799 -0.0579
 1635SOL     OW 5803   1.664   2.923   3.687  0.3709 -0.1918  0.1364
 1635SOL    HW1 5804   1.677   2.855   3.616  1.2223  0.2914 -0.1876
 1635SOL    HW2 5805   1.752   2.966   3.709 -0.2530  1.3089 -0.1850
 1636SOL     OW 5806   3.017   5.191   5.701 -0.2142  0.1109  0.0256
 1636SOL    HW1 5807   2.968   5.273   5.733 -1.0002 -0.9651  1.7616
 1636SOL    HW2 5808   3.059   5.209   5.613 -1.6945  1.8883 -0.3743
 1637SOL     OW 5809   1.068   6.619   3.825 -0.3577 -0.2299 -0.3057
 1637SOL    HW1 5810   1.094   6.713   3.801 -0.0355 -0.3105 -0.2717
 1637SOL    HW2 5811   1.079   6.560   3.745 -0.3111 -0.2913 -0.2534
 1638SOL     OW 5812   1.615   2.728   6.862 -0.3510  0.0181  0.3737
 1638SOL    HW1 5813   1.576   2.664   6.796  3.1057 -0.2345 -1.6957
 1638SOL    HW2 5814   1.662   2.677   6.934  2.2559 -0.0118 -1.1831
 1639SOL     OW 5815   1.821   4.823   4.146  0.1360  0.6935 -0.3911
 1639SOL    HW1 5816   1.839   4.771   4.062 -2.4197  0.5958 -0.9593
 1639SOL    HW2 5817   1.762   4.901   4.125 -0.8454  0.4773  1.3625
 1640SOL     OW 5818   6.706   3.421   0.489  0.3456  0.7275  0.4472
 1640SOL    HW1 5819   6.744   3.361   0.419 -0.6478 -0.1739  0.6404
 1640SOL    HW2 5820   6.774   3.435   0.561  0.4885 -0.4692  0.5706
 1641SOL     OW 5821   5.164   0.788   6.713 -0.0236  0.0132 -0.7047
 1641SOL    HW1 5822   5.249   0.754   6.754 -0.2889 -0.9850 -0.9320
 1641SOL    HW2 5823   5.121   0.854   6.774  0.3327 -0.3415 -0.0566
 1642SOL     OW 5824   0.641   6.481   5.625  0.2975 -0.8938  0.0443
 1642SOL    HW1 5825   0.550   6.440   5.623  1.1001 -2.7370 -0.4229
 1642SOL    HW2 5826   0.678   6.477   5.718  0.1731 -0.7305  0.1023
 1643SOL     OW 5827   3.808   6.441   6.274  0.4651  0.0013  0.5523
 1643SOL    HW1 5828   3.733   6.436   6.207 -1.0411  1.4877  2.0318
 1643SOL    HW2 5829   3.770   6.439   6.366  2.3346  0.1502  1.3596
 1644SOL     OW 5830   2.502   1.215   6.993  0.0310 -0.4698 -0.3141
 1644SOL    HW1 5831   2.451   1.259   6.918  0.6258  2.5853  0.9200
 1644SOL    HW2 5832   2.442   1.202   7.071  0.1667 -0.6697 -0.2428
 1645SOL     OW 5833   2.922   0.033   0.793 -0.4867  0.5050 -0.0703
 1645SOL    HW1 5834   2.854  -0.008   0.853 -0.3908  1.2128  0.5354
 1645SOL    HW2 5835   2.889   0.121   0.759 -0.8528 -0.2084 -1.6684
 1646SOL     OW 5836   2.683   1.669   1.214 -0.6611 -0.6891  0.4761
 1646SOL    HW1 5837   2.654   1.676   1.310 -0.5005  1.7103  0.3930
 1646SOL    HW2 5838   2.779   1.641   1.210 -0.2589  0.5382  1.0904
 1647SOL     OW 5839   5.408   0.325   3.750  0.8090  0.2649  0.0806
 1647SOL    HW1 5840   5.443   0.266   3.678  0.2891  2.3467 -1.9950
 1647SOL    HW2 5841   5.485   0.360   3.804  1.3368 -0.1590 -0.3843
 1648SOL     OW 5842   4.686   6.567   5.944  0.4348 -0.2692  0.2054
 1648SOL    HW1 5843   4.664   6.549   5.848 -0.0367  0.8948  0.0867
 1648SOL    HW2 5844   4.683   6.481   5.995  0.2253 -0.8295 -0.7253
 1649SOL     OW 5845   2.980   0.644   2.974  0.1542 -0.1423 -0.2793
 1649SOL    HW1 5846   3.063   0.593   2.996  1.7639  3.0945  1.9702
 1649SOL    HW2 5847   2.994   0.697   2.891 -0.2840 -0.7665 -0.7632
 1650SOL     OW 5848   4.347   2.804   6.362  0.2420 -0.3553  0.1508
 1650SOL    HW1 5849   4.409   2.840   6.293 -0.8393  1.8182  0.2234
 1650SOL    HW2 5850   4.270   2.867   6.374 -0.8417 -1.8596  1.6382
 1651SOL     OW 5851   2.020   1.407   4.029 -0.2668 -0.1271  0.0810
 1651SOL    HW1 5852   1.957   1.428   4.104 -2.5011 -1.8089 -1.2008
 1651SOL    HW2 5853   2.054   1.492   3.989 -2.0250  0.8713  0.6142
 1652SOL     OW 5854   2.682   2.640   6.709  0.1426  0.1043 -0.3860
 1652SOL    HW1 5855   2.676   2.665   6.613  2.1660  0.3674 -0.4980
 1652SOL    HW2 5856   2.746   2.702   6.755 -1.0877  0.2300  1.2284
 1653SOL     OW 5857   5.695   0.192   4.735  0.3204 -0.0011  0.8180
 1653SOL    HW1 5858   5.780   0.149   4.703 -0.3304 -0.0829 -0.9700
 1653SOL    HW2 5859   5.642   0.125   4.787 -0.2049 -1.1506 -1.0526
 1654SOL     OW 5860   1.304   3.403   5.204 -0.0020  0.5345  0.1682
 1654SOL    HW1 5861   1.380   3.428   5.264 -1.0143  2.7527  0.6253
 1654SOL    HW2 5862   1.336   3.396   5.110  1.0188 -0.0280  0.5429
 1655SOL     OW 5863   4.744   2.329   0.550  0.2013  0.2030  0.6451
 1655SOL    HW1 5864   4.770   2.233   0.552  2.2322  0.6991  0.2063
 1655SOL    HW2 5865   4.699   2.349   0.462  1.9683  0.1351 -0.3197
 1656SOL     OW 5866   4.723   2.840   5.111  0.0751  0.7172  0.0235
 1656SOL    HW1 5867   4.819   2.861   5.127  0.1885 -0.5447  1.0962
 1656SOL    HW2 5868   4.668   2.882   5.184 -0.0390  0.2000  0.2347
 1657SOL     OW 5869   4.384   0.579   4.884  0.1251  0.1840 -0.3306
 1657SOL    HW1 5870   4.356   0.569   4.788  0.3758  0.1453 -0.4009
 1657SOL    HW2 5871   4.353   0.668   4.918  1.7989  1.0948 -1.0694
 1658SOL     OW 5872   3.168   4.088   2.740 -0.0074 -0.5705 -0.0566
 1658SOL    HW1 5873   3.184   4.172   2.688 -0.3609 -0.4907 -0.0434
 1658SOL    HW2 5874   3.255   4.051   2.772  0.4849 -1.9721 -2.7691
 1659SOL     OW 5875   5.470   4.584   2.304  0.2278  0.3861 -0.0737
 1659SOL    HW1 5876   5.409   4.651   2.347 -2.3848 -1.6999 -0.2877
 1659SOL    HW2 5877   5.484   4.608   2.208  1.6177  2.0449  0.4727
 1660SOL     OW 5878   6.871   1.950   5.417  0.4808 -0.1493  0.2624
 1660SOL    HW1 5879   6.857   1.859   5.378  0.4331 -0.1063  0.1790
 1660SOL    HW2 5880   6.930   1.943   5.498 -0.0292 -0.3269  0.6191
 1661SOL     OW 5881   6.495   3.183   0.382 -0.4090  0.1468  0.0710
 1661SOL    HW1 5882   6.506   3.264   0.440 -1.1635  0.5874 -0.3869
 1661SOL    HW2 5883   6.517   3.101   0.435  0.5761  0.6570  0.4832
 1662SOL     OW 5884   5.285   6.727   4.757 -0.1490  0.5231 -0.3008
 1662SOL    HW1 5885   5.258   6.748   4.851  2.5981  0.6628  0.5616
 1662SOL    HW2 5886   5.334   6.640   4.755  0.5103  0.8951 -1.4507
 1663SOL     OW 5887   2.259   1.837   0.077 -0.7116 -0.3025  0.1364
 1663SOL    HW1 5888   2.327   1.884   0.021 -1.6616 -0.0031 -0.8103
 1663SOL    HW2 5889   2.207   1.774   0.019 -2.1280  0.4669  0.5231
 1664SOL     OW 5890   6.995   6.422   0.170  0.0487  0.0603  0.1286
 1664SOL    HW1 5891   6.917   6.363   0.149  0.2686 -0.5034  0.8615
 1664SOL    HW2 5892   7.060   6.372   0.227  0.0934  1.0985  1.0238
 1665SOL     OW 5893   0.469   1.465   6.030  0.1339 -0.0640  0.0627
 1665SOL    HW1 5894   0.396   1.522   6.067  0.0424 -1.3872  2.0468
 1665SOL    HW2 5895   0.461   1.462   5.930 -1.4076  1.2635  0.1078
 1666SOL     OW 5896   4.255   6.215   4.174 -0.3487  0.4596 -0.1796
 1666SOL    HW1 5897   4.265   6.303   4.220  0.1828 -0.0003  0.5977
 1666SOL    HW2 5898   4.248   6.142   4.242 -1.4038 -0.0489 -0.8043
 1667SOL     OW 5899   5.503   6.739   0.198  0.1878 -0.0137 -0.7049
 1667SOL    HW1 5900   5.487   6.829   0.159 -1.8511  0.2858  0.7025
 1667SOL    HW2 5901   5.480   6.669   0.131 -1.1322  0.5051 -0.8194
 1668SOL     OW 5902   2.777   0.397   4.398  0.3504 -0.2272 -0.1116
 1668SOL    HW1 5903   2.719   0.359   4.326  1.6456  0.4281 -1.5621
 1668SOL    HW2 5904   2.788   0.329   4.471 -0.3527 -1.2206 -0.8944
 1669SOL     OW 5905   6.461   2.171   5.814 -0.2562 -0.2087  0.3425
 1669SOL    HW1 5906   6.485   2.249   5.755  1.3589  0.0921  1.3504
 1669SOL    HW2 5907   6.390   2.199   5.878 -2.1913 -0.5949 -1.5202
 1670SOL     OW 5908   2.095   0.866   6.767 -0.3640  0.0485  0.3472
 1670SOL    HW1 5909   2.190   0.865   6.738 -0.9111  1.1242 -1.6560
 1670SOL    HW2 5910   2.087   0.821   6.856  1.7369 -1.5297 -0.1821
 1671SOL     OW 5911   0.530   1.345   1.829 -0.0012 -0.1489 -0.4418
 1671SOL    HW1 5912   0.470   1.288   1.885  0.2778 -0.0462 -0.0285
 1671SOL    HW2 5913   0.523   1.440   1.859 -1.1573  0.2013 -1.7296
 1672SOL     OW 5914   3.534   5.284   4.162 -0.3794  0.4765 -0.6392
 1672SOL    HW1 5915   3.498   5.195   4.191  1.6791 -0.2307 -0.1325
 1672SOL    HW2 5916   3.487   5.357   4.213 -2.0901 -0.2697 -1.0622
 1673SOL     OW 5917   0.543   0.914   6.450 -0.0822 -0.2138 -0.4199
 1673SOL    HW1 5918   0.597   0.936   6.368  0.1932  0.6042 -0.0301
 1673SOL    HW2 5919   0.583   0.958   6.530  0.9212 -2.7502  0.5744
 1674SOL     OW 5920   6.319   5.818   5.048 -0.5096 -0.1005  0.9107
 1674SOL    HW1 5921   6.295   5.791   5.141 -1.5171 -0.8672  0.4480
 1674SOL    HW2 5922   6.236   5.847   5.000 -0.3638 -1.8008 -0.4281
 1675SOL     OW 5923   3.449   1.699   0.474  0.1313  0.1424  0.5320
 1675SOL    HW1 5924   3.422   1.737   0.385  0.0300 -2.3014 -0.5825
 1675SOL    HW2 5925   3.391   1.737   0.546 -0.1283  1.8004 -0.5055
 1676SOL     OW 5926   1.922   1.251   1.616 -0.0692 -0.3641 -0.0151
 1676SOL    HW1 5927   1.896   1.155   1.608  0.1200 -0.4493  0.3753
 1676SOL    HW2 5928   1.958   1.269   1.707  0.9298 -0.1774 -0.4269
 1677SOL     OW 5929   2.058   0.541   1.034 -0.8019  0.2685  0.1505
 1677SOL    HW1 5930   2.038   0.637   1.018 -0.7960  0.0620 -1.1714
 1677SOL    HW2 5931   2.150   0.532   1.074 -0.8658  0.8114  0.4239
 1678SOL     OW 5932   4.384   0.226   4.646 -0.5408 -0.4308  0.2105
 1678SOL    HW1 5933   4.324   0.206   4.723 -2.6229 -0.9889 -1.4540
 1678SOL    HW2 5934   4.457   0.158   4.642 -1.1004 -1.1036  0.9860
 1679SOL     OW 5935   0.707   0.096   4.811 -0.1283  0.2061 -0.3287
 1679SOL    HW1 5936   0.722   0.185   4.768  0.7432  0.2862  0.1122
 1679SOL    HW2 5937   0.782   0.034   4.786 -0.6167 -0.3370 -0.4586
 1680SOL     OW 5938   5.301   5.074   1.164  0.5975  0.0768  0.4419
 1680SOL    HW1 5939   5.286   5.162   1.119  0.4179  0.2023  0.7447
 1680SOL    HW2 5940   5.214   5.039   1.198  0.5264 -0.6246 -0.4202
 1681SOL     OW 5941   2.070   1.214   4.791 -0.1098 -0.8828  0.0938
 1681SOL    HW1 5942   2.142   1.217   4.860 -0.7997 -1.2268  0.8478
 1681SOL    HW2 5943   2.048   1.307   4.762 -0.8995 -0.5936  1.5132
 1682SOL     OW 5944   6.943   3.187   6.335 -0.0222  0.3099  0.1296
 1682SOL    HW1 5945   7.021   3.124   6.341  0.1147  0.2253 -1.9219
 1682SOL    HW2 5946   6.917   3.216   6.427  1.6206 -0.6424  0.9440
 1683SOL     OW 5947   1.159   6.025   2.004 -0.3057  0.1875 -0.1516
 1683SOL    HW1 5948   1.197   5.982   1.922 -0.7562  0.4628 -0.5094
 1683SOL    HW2 5949   1.104   5.958   2.055 -2.9512  0.8709 -1.9254
 1684SOL     OW 5950   4.114   5.976   3.749 -0.0825  0.4727 -0.4824
 1684SOL    HW1 5951   4.164   5.895   3.783 -1.8978  0.1369  1.5904
 1684SOL    HW2 5952   4.123   5.980   3.649  2.4266 -0.6291 -0.4013
 1685SOL     OW 5953   6.135   2.968   5.541 -0.0415 -0.3781  0.4399
 1685SOL    HW1 5954   6.082   2.959   5.456 -0.1371  1.5612  0.2627
 1685SOL    HW2 5955   6.082   2.931   5.617 -1.4702  1.0151  0.1754
 1686SOL     OW 5956   5.492   6.103   1.657  0.0234 -0.2289  0.0651
 1686SOL    HW1 5957   5.541   6.025   1.618  0.6597 -0.2488  0.8705
 1686SOL    HW2 5958   5.495   6.180   1.594 -0.1136 -0.6787 -0.4921
 1687SOL     OW 5959   5.522   6.389   1.197 -0.2419 -0.4117  0.4424
 1687SOL    HW1 5960   5.433   6.406   1.155 -1.4127  0.8876  3.2298
 1687SOL    HW2 5961   5.594   6.422   1.137 -1.8364  1.8827 -0.3177
 1688SOL     OW 5962   5.112   3.653   5.035  0.8089 -0.1652 -0.1259
 1688SOL    HW1 5963   5.122   3.746   4.999  1.4749  0.0653  0.6201
 1688SOL    HW2 5964   5.016   3.637   5.057  0.5295 -0.0018 -1.1435
 1689SOL     OW 5965   0.476   4.638   6.764  0.0503 -0.0731 -0.2511
 1689SOL    HW1 5966   0.520   4.710   6.711 -1.2593  1.3661  0.5307
 1689SOL    HW2 5967   0.540   4.562   6.778  1.4712  0.9285 -1.0917
 1690SOL     OW 5968   3.654   1.740   4.612  0.0355  0.6055  0.4150
 1690SOL    HW1 5969   3.618   1.827   4.578 -1.1028  0.1543  0.4091
 1690SOL    HW2 5970   3.591   1.703   4.681 -0.2930 -0.9295 -0.6539
 1691SOL     OW 5971   6.782   3.772   3.440  0.0661  0.0970  0.6059
 1691SOL    HW1 5972   6.840   3.767   3.359 -0.7474 -0.1492  0.0184
 1691SOL    HW2 5973   6.810   3.702   3.506  0.0518 -0.4262  0.0661
 1692SOL     OW 5974   6.618   3.708   0.991 -0.4320 -0.3892  0.3383
 1692SOL    HW1 5975   6.597   3.737   1.084  0.9211 -0.6889  0.7558
 1692SOL    HW2 5976   6.704   3.750   0.961 -0.6857 -0.5477 -0.6571
 1693SOL     OW 5977   1.724   6.710   4.200 -0.2034 -0.4303 -0.6747
 1693SOL    HW1 5978   1.724   6.700   4.100 -3.4612 -1.9895 -0.6562
 1693SOL    HW2 5979   1.716   6.807   4.224  1.4197  0.0330 -1.8534
 1694SOL     OW 5980   0.367   0.255   2.545  0.3850 -0.0170  0.4778
 1694SOL    HW1 5981   0.294   0.261   2.477 -0.3244 -1.1916  1.1055
 1694SOL    HW2 5982   0.397   0.160   2.554  0.2192  0.0508  2.0531
 1695SOL     OW 5983   0.848   1.729   1.513 -0.4205 -0.1166  0.0454
 1695SOL    HW1 5984   0.890   1.819   1.509  1.4058 -0.9745 -1.2315
 1695SOL    HW2 5985   0.896   1.672   1.580  1.7340 -1.6335 -2.5810
 1696SOL     OW 5986   5.297   1.770   0.180 -0.1959  0.1738 -0.3416
 1696SOL    HW1 5987   5.214   1.784   0.233 -0.8159 -0.2536 -1.1759
 1696SOL    HW2 5988   5.280   1.704   0.107  1.1012 -0.5496 -0.0263
 1697SOL     OW 5989   6.711   1.447   4.235  0.0135  0.4577 -0.3916
 1697SOL    HW1 5990   6.712   1.348   4.247 -0.1829  0.2487 -1.9339
 1697SOL    HW2 5991   6.715   1.470   4.138 -0.6412  1.9523 -0.1085
 1698SOL     OW 5992   5.333   5.369   2.603 -0.0029  0.1347 -0.7437
 1698SOL    HW1 5993   5.384   5.452   2.580  0.1196  0.1410 -0.4527
 1698SOL    HW2 5994   5.252   5.362   2.544 -0.3790  0.8109 -0.3228
 1699SOL     OW 5995   3.682   3.429   4.678  0.4127 -0.0178  0.7471
 1699SOL    HW1 5996   3.590   3.418   4.639 -0.1962  5.1407  0.0242
 1699SOL    HW2 5997   3.750   3.397   4.613 -0.7638 -0.8392 -0.1288
 1700SOL     OW 5998   0.282   1.214   0.226 -0.0171 -0.5607  0.3905
 1700SOL    HW1 5999   0.296   1.146   0.297 -0.2566 -2.9703 -1.7364
 1700SOL    HW2 6000   0.201   1.190   0.172  1.1960  0.0605 -1.8548
 1701SOL     OW 6001   3.906   4.633   0.918  0.6284  0.3131 -0.3276
 1701SOL    HW1 6002   3.816   4.676   0.910  0.9991  0.9296 -1.4421
 1701SOL    HW2 6003   3.952   4.667   0.999 -0.2581 -0.2550  0.4407
 1702SOL     OW 6004   1.346   3.461   6.894  0.6045  0.3966  0.1226
 1702SOL    HW1 6005   1.384   3.488   6.805  2.2546 -1.9760  0.0297
 1702SOL    HW2 6006   1.324   3.364   6.893 -0.3524  0.5517  2.0047
 1703SOL     OW 6007   2.912   5.148   4.850 -0.9834 -0.5032 -0.5992
 1703SOL    HW1 6008   2.944   5.065   4.895  0.2068 -0.9640 -2.2109
 1703SOL    HW2 6009   2.880   5.213   4.919  3.4773  0.0368  1.3072
 1704SOL     OW 6010   4.781   4.284   0.791 -0.3132  0.5338  0.0268
 1704SOL    HW1 6011   4.732   4.371   0.783 -2.1072 -0.3280  0.9784
 1704SOL    HW2 6012   4.815   4.256   0.702 -0.1560  1.9615 -0.3784
 1705SOL     OW 6013   2.061   5.826   3.302  0.9526 -0.1046  0.2888
 1705SOL    HW1 6014   2.152   5.833   3.261  1.3881 -0.4389  1.1773
 1705SOL    HW2 6015   2.000   5.893   3.259  1.4727 -0.2151 -0.6622
 1706SOL     OW 6016   3.632   1.818   0.243  0.4100  0.0727 -0.4505
 1706SOL    HW1 6017   3.672   1.872   0.317  0.6812  0.0141 -0.5532
 1706SOL    HW2 6018   3.534   1.835   0.238  0.1097 -1.0850  0.9131
 1707SOL     OW 6019   0.802   0.175   6.095 -0.2254  0.2236  0.1916
 1707SOL    HW1 6020   0.731   0.199   6.028 -1.0740 -1.3213  0.5010
 1707SOL    HW2 6021   0.890   0.209   6.062 -0.9814  1.6052 -0.5242
 1708SOL     OW 6022   4.027   6.465   3.579  0.3181  0.3887  0.2141
 1708SOL    HW1 6023   3.968   6.419   3.645  0.3219 -0.0624 -0.0905
 1708SOL    HW2 6024   4.073   6.396   3.522  0.6768  0.7538  0.0561
 1709SOL     OW 6025   1.328   1.841   6.633 -0.3772  0.1299  0.1627
 1709SOL    HW1 6026   1.245   1.878   6.591 -0.8174 -1.0593 -0.0819
 1709SOL    HW2 6027   1.303   1.775   6.704  0.3631  0.2977  0.5906
 1710SOL     OW 6028   6.759   2.950   0.233  0.5692 -0.3466 -0.5163
 1710SOL    HW1 6029   6.778   3.040   0.193  1.4746 -1.7445 -3.5169
 1710SOL    HW2 6030   6.709   2.894   0.166  0.3163 -2.2241  1.1479
 1711SOL     OW 6031   1.238   2.422   3.914  0.6928 -0.4782 -0.2034
 1711SOL    HW1 6032   1.162   2.482   3.938 -1.5775 -2.6145 -1.5798
 1711SOL    HW2 6033   1.222   2.331   3.952  2.5730 -0.9924 -0.5413
 1712SOL     OW 6034   5.353   5.840   3.245  0.6460 -0.6504  0.3030
 1712SOL    HW1 6035   5.433   5.880   3.290 -1.5066  2.2349  1.8881
 1712SOL    HW2 6036   5.344   5.878   3.153  1.1051 -1.0674  0.0779
 1713SOL     OW 6037   5.928   4.931   3.946  0.0831  0.1859 -0.7208
 1713SOL    HW1 6038   6.021   4.959   3.919  0.0050  0.3621 -0.8110
 1713SOL    HW2 6039   5.883   4.886   3.869  0.8499 -1.8619 -0.0392
 1714SOL     OW 6040   2.127   0.083   4.309 -0.3411 -0.0583 -0.1777
 1714SOL    HW1 6041   2.064   0.057   4.235  1.8589  0.3488 -2.3039
 1714SOL    HW2 6042   2.218   0.048   4.289  0.2409 -0.3981  2.6906
 1715SOL     OW 6043   3.243   4.009   2.182 -0.4034 -0.1642  0.0155
 1715SOL    HW1 6044   3.186   4.024   2.101  0.3279  1.2988 -0.2573
 1715SOL    HW2 6045   3.185   3.996   2.262 -1.1195  0.1857 -0.4416
 1716SOL     OW 6046   1.048   0.524   3.833 -0.3702  0.1307  0.1951
 1716SOL    HW1 6047   1.082   0.585   3.761  1.0113 -0.1306  0.5891
 1716SOL    HW2 6048   1.108   0.530   3.912 -0.6170 -1.2127  0.5133
 1717SOL     OW 6049   2.529   4.007   0.918  0.1779 -0.0930 -0.2256
 1717SOL    HW1 6050   2.556   3.936   0.853  0.4401 -1.6762  1.5212
 1717SOL    HW2 6051   2.604   4.025   0.982 -0.2332  1.0712 -0.0409
 1718SOL     OW 6052   3.931   1.265   3.316  0.6876 -0.7586 -0.3713
 1718SOL    HW1 6053   4.011   1.206   3.321  1.3918  0.0500 -1.5732
 1718SOL    HW2 6054   3.909   1.299   3.408  2.8306  0.4326 -0.2338
 1719SOL     OW 6055   5.536   4.011   4.567  0.1668 -0.3748 -0.0229
 1719SOL    HW1 6056   5.450   3.999   4.617  1.3898 -0.8651  2.0437
 1719SOL    HW2 6057   5.565   3.923   4.530  0.8791 -0.6490  1.1664
 1720SOL     OW 6058   3.374   3.513   1.811 -0.1428 -0.3881  0.2068
 1720SOL    HW1 6059   3.435   3.573   1.864 -1.2890 -1.0329  2.3908
 1720SOL    HW2 6060   3.405   3.418   1.821 -0.1863 -0.4918 -0.5954
 1721SOL     OW 6061   2.450   6.816   2.417 -0.6632 -0.0949 -0.4492
 1721SOL    HW1 6062   2.500   6.796   2.332 -1.9957  0.8300 -1.4942
 1721SOL    HW2 6063   2.481   6.903   2.454  0.0910 -0.6155  0.1681
 1722SOL     OW 6064   5.246   5.683   4.089  0.3986 -0.1626  0.5782
 1722SOL    HW1 6065   5.318   5.747   4.117  0.1661 -0.2132  1.3087
 1722SOL    HW2 6066   5.181   5.730   4.030  1.5622 -0.3691 -0.9312
 1723SOL     OW 6067   4.074   1.051   3.409 -0.3825  0.4853 -0.0162
 1723SOL    HW1 6068   4.124   1.098   3.483 -0.1238 -0.5498  0.4857
 1723SOL    HW2 6069   4.116   0.962   3.392 -1.4996 -0.0108 -0.2337
 1724SOL     OW 6070   3.908   5.688   1.584  0.2348  0.2088 -0.4297
 1724SOL    HW1 6071   3.934   5.707   1.490  0.4828  0.7017 -0.2659
 1724SOL    HW2 6072   3.975   5.625   1.625  0.9697  1.1470 -0.1377
 1725SOL     OW 6073   5.842   4.718   4.660  0.1489  0.5103 -0.1011
 1725SOL    HW1 6074   5.918   4.655   4.643 -0.6422 -1.4613  2.8236
 1725SOL    HW2 6075   5.759   4.681   4.617 -0.4376 -0.8983  2.0847
 1726SOL     OW 6076   1.817   5.444   0.221  0.2007 -0.1699 -0.0137
 1726SOL    HW1 6077   1.823   5.357   0.271 -2.3801 -0.5147 -0.1434
 1726SOL    HW2 6078   1.826   5.426   0.123 -1.1515 -0.4670 -0.1081
 1727SOL     OW 6079   5.612   4.695   4.228  0.6935  0.7087  0.1758
 1727SOL    HW1 6080   5.637   4.641   4.308 -1.6498 -1.7539 -0.6065
 1727SOL    HW2 6081   5.648   4.652   4.145  1.2145  2.0035 -0.3076
 1728SOL     OW 6082   1.623   4.711   3.737  0.5921 -0.4048 -0.4418
 1728SOL    HW1 6083   1.557   4.738   3.808  1.4072 -0.7693  0.4797
 1728SOL    HW2 6084   1.706   4.766   3.745  2.0869 -2.7098  1.1647
 1729SOL     OW 6085   1.237   3.864   6.519 -0.1741 -0.8978  0.2480
 1729SOL    HW1 6086   1.249   3.893   6.424 -1.1476 -2.8137 -0.5030
 1729SOL    HW2 6087   1.307   3.796   6.542 -1.3079 -2.1227  0.1518
 1730SOL     OW 6088   1.945   6.883   3.009 -0.1271 -0.2501 -0.1959
 1730SOL    HW1 6089   1.984   6.817   2.945  0.6563  0.8420 -0.8684
 1730SOL    HW2 6090   1.977   6.864   3.102 -0.7143 -1.4163 -0.2201
 1731SOL     OW 6091   6.229   4.596   4.728  0.1301  0.1912 -0.0068
 1731SOL    HW1 6092   6.148   4.562   4.680 -0.3521  3.0280 -1.3982
 1731SOL    HW2 6093   6.303   4.610   4.662  0.1440  2.1818  0.3667
 1732SOL     OW 6094   5.896   1.537   6.976 -0.0014 -0.4785 -0.6891
 1732SOL    HW1 6095   5.932   1.594   7.050 -0.2198 -0.4318 -0.6194
 1732SOL    HW2 6096   5.939   1.447   6.980  0.4736 -0.2717 -0.9020
 1733SOL     OW 6097   5.142   0.710   2.997  0.1818  0.1775 -0.7296
 1733SOL    HW1 6098   5.230   0.680   3.034 -0.1685 -0.1662 -0.1490
 1733SOL    HW2 6099   5.089   0.754   3.070 -0.4103 -0.2591 -0.8937
 1734SOL     OW 6100   1.172   1.040   5.204 -0.0818 -0.2886 -0.3064
 1734SOL    HW1 6101   1.224   1.125   5.189  1.0291 -1.0506 -0.9010
 1734SOL    HW2 6102   1.234   0.968   5.235 -1.0555 -0.8413  0.4197
 1735SOL     OW 6103   3.013   0.993   5.052  0.0989 -0.2341 -0.2591
 1735SOL    HW1 6104   2.970   0.907   5.024  0.8813 -0.5941 -0.3848
 1735SOL    HW2 6105   3.100   1.004   5.004 -1.4091  2.1968 -2.7132
 1736SOL     OW 6106   2.886   6.100   2.318  0.8232 -0.5141 -0.3485
 1736SOL    HW1 6107   2.875   6.127   2.414  2.1807  0.9034 -0.5380
 1736SOL    HW2 6108   2.941   6.017   2.313  2.5494  0.5406  0.0932
 1737SOL     OW 6109   6.118   4.832   6.358  0.6353 -0.3406  0.3169
 1737SOL    HW1 6110   6.051   4.759   6.350 -2.1209  2.1155 -1.0732
 1737SOL    HW2 6111   6.114   4.871   6.451  1.2064 -1.0965  0.6691
 1738SOL     OW 6112   4.646   2.001   2.423 -1.0065  0.0918 -0.1658
 1738SOL    HW1 6113   4.611   1.984   2.515 -1.8068 -0.5784 -0.5784
 1738SOL    HW2 6114   4.670   1.914   2.380 -0.0609  0.4425 -0.3829
 1739SOL     OW 6115   3.583   3.098   4.746 -0.2394  0.1886  0.0057
 1739SOL    HW1 6116   3.676   3.094   4.783  0.0215  2.3536 -0.2852
 1739SOL    HW2 6117   3.576   3.037   4.667  1.1865  0.6477 -0.4937
 1740SOL     OW 6118   0.055   0.637   3.998 -0.4222  0.1736 -0.0049
 1740SOL    HW1 6119  -0.038   0.668   4.016 -0.1246  0.7946  0.5264
 1740SOL    HW2 6120   0.075   0.556   4.054 -0.5885  0.1342 -0.0036
 1741SOL     OW 6121   4.614   6.067   3.088 -0.0492  0.0062 -0.0978
 1741SOL    HW1 6122   4.658   6.119   3.015  2.4401  1.3228  2.1666
 1741SOL    HW2 6123   4.636   5.970   3.078  0.5587  0.2128 -0.9062
 1742SOL     OW 6124   1.013   4.001   3.339 -0.2383 -0.1678  0.2844
 1742SOL    HW1 6125   1.007   4.101   3.343  1.0703  0.0289 -1.4008
 1742SOL    HW2 6126   1.072   3.968   3.413  0.3089  0.4484  0.1376
 1743SOL     OW 6127   1.679   5.963   4.547 -0.4688 -0.2225  0.7701
 1743SOL    HW1 6128   1.741   5.966   4.469 -0.1387  1.4151  1.0601
 1743SOL    HW2 6129   1.655   5.868   4.567  3.0020 -1.0598  1.4872
 1744SOL     OW 6130   2.274   2.205   5.640  0.2153 -0.3220 -0.1719
 1744SOL    HW1 6131   2.298   2.110   5.659 -0.1089 -0.6724 -1.3951
 1744SOL    HW2 6132   2.343   2.246   5.581 -0.4315 -0.2919 -0.9257
 1745SOL     OW 6133   0.602   5.280   3.106  0.3256  0.3491 -0.4904
 1745SOL    HW1 6134   0.678   5.294   3.170  0.5639 -1.0930 -0.4300
 1745SOL    HW2 6135   0.558   5.192   3.125 -0.5970  0.6139 -1.3126
 1746SOL     OW 6136   3.431   0.707   1.197 -0.4833 -0.0935  0.0205
 1746SOL    HW1 6137   3.336   0.731   1.175 -0.0260 -0.4966 -2.6590
 1746SOL    HW2 6138   3.464   0.638   1.133  0.3220 -3.2963  3.5421
 1747SOL     OW 6139   2.170   0.244   1.250  0.2749 -0.4795  0.0654
 1747SOL    HW1 6140   2.242   0.258   1.182  0.6803  0.2324  0.6149
 1747SOL    HW2 6141   2.194   0.164   1.307  0.0524 -0.9320 -0.4726
 1748SOL     OW 6142   6.168   0.705   6.627 -0.3177 -0.4746 -0.2640
 1748SOL    HW1 6143   6.162   0.622   6.572 -0.5106 -0.5663 -0.1047
 1748SOL    HW2 6144   6.215   0.777   6.575  1.5685 -1.2546  0.2754
 1749SOL     OW 6145   4.901   6.389   6.360 -0.1700  0.2734  0.0819
 1749SOL    HW1 6146   4.831   6.450   6.321 -0.8934 -1.4219 -1.4291
 1749SOL    HW2 6147   4.990   6.413   6.323 -0.7158 -0.7084 -1.9777
 1750SOL     OW 6148   1.668   6.748   3.900 -0.1717 -0.0300  0.0751
 1750SOL    HW1 6149   1.605   6.673   3.879 -0.9157  0.1594  1.4793
 1750SOL    HW2 6150   1.755   6.734   3.852  0.3024 -2.6784  1.4905
 1751SOL     OW 6151   1.984   6.378   2.934  0.5853  0.4013  0.1101
 1751SOL    HW1 6152   2.038   6.402   3.015  0.9665  0.0406 -0.0383
 1751SOL    HW2 6153   2.042   6.331   2.868  0.2526  0.6223 -0.3404
 1752SOL     OW 6154   1.299   2.931   2.485  0.1596 -0.2941  0.2543
 1752SOL    HW1 6155   1.260   2.926   2.393  0.2798  0.5137  0.1568
 1752SOL    HW2 6156   1.381   2.874   2.489  0.3212 -0.1040 -0.2215
 1753SOL     OW 6157   2.018   6.008   3.511 -0.7637  0.1594 -0.2700
 1753SOL    HW1 6158   2.050   5.925   3.465  1.0400  0.6396  0.0563
 1753SOL    HW2 6159   2.024   5.997   3.610 -0.6205  0.6372 -0.2198
 1754SOL     OW 6160   4.067   0.287   5.500  0.2402  0.1340  0.8459
 1754SOL    HW1 6161   3.978   0.261   5.536 -2.8823  1.3128 -4.7688
 1754SOL    HW2 6162   4.083   0.384   5.518  0.0536  0.0806  1.3002
 1755SOL     OW 6163   4.626   1.109   3.815 -0.2435  0.3656  0.5658
 1755SOL    HW1 6164   4.708   1.162   3.833  0.7028 -1.0194  0.4859
 1755SOL    HW2 6165   4.649   1.029   3.759 -1.1732 -1.3571  2.4924
 1756SOL     OW 6166   6.826   0.318   4.173  0.0344  0.2862 -0.7620
 1756SOL    HW1 6167   6.729   0.327   4.192 -0.2497  0.1115 -2.0198
 1756SOL    HW2 6168   6.839   0.267   4.088  1.2975 -1.5666  0.4630
 1757SOL     OW 6169   1.712   0.055   4.047  0.2020  0.4160 -0.2656
 1757SOL    HW1 6170   1.709   0.049   4.146 -0.4214 -2.1462 -0.3687
 1757SOL    HW2 6171   1.619   0.060   4.010 -0.1998 -4.9852 -0.8040
 1758SOL     OW 6172   0.554   1.220   3.216  0.3579  0.1858 -0.4287
 1758SOL    HW1 6173   0.583   1.308   3.253  1.3531 -0.8978  1.5374
 1758SOL    HW2 6174   0.629   1.179   3.164  0.4965 -0.2427  0.1030
 1759SOL     OW 6175   0.888   5.730   6.298  0.2593 -0.3439 -0.2162
 1759SOL    HW1 6176   0.841   5.651   6.258  1.2085 -0.0213 -2.1139
 1759SOL    HW2 6177   0.846   5.814   6.263  0.7906 -0.0356 -0.1190
 1760SOL     OW 6178   1.590   3.568   0.848 -0.3464  0.6775 -0.2898
 1760SOL    HW1 6179   1.585   3.663   0.817 -1.7546  0.2585 -1.4644
 1760SOL    HW2 6180   1.498   3.533   0.864  0.1566 -0.4765  0.2257
 1761SOL     OW 6181   2.471   6.162   0.643  0.0526  0.0989 -0.0089
 1761SOL    HW1 6182   2.448   6.069   0.616  0.1748  0.0261  0.1393
 1761SOL    HW2 6183   2.570   6.173   0.646  0.0391  0.2033  0.0789
 1762SOL     OW 6184   3.787   4.061   1.777  0.4032 -0.1124 -0.0724
 1762SOL    HW1 6185   3.840   4.139   1.745  0.2646  0.0421  0.0738
 1762SOL    HW2 6186   3.703   4.093   1.820 -0.0723 -0.3719 -0.7841
 1763SOL     OW 6187   4.628   6.048   0.350  0.0451 -0.0949  0.2855
 1763SOL    HW1 6188   4.676   5.976   0.400 -0.3181  0.2725  1.1777
 1763SOL    HW2 6189   4.547   6.076   0.402 -0.6239 -0.0493 -0.7409
 1764SOL     OW 6190   1.935   2.709   4.932 -0.0947 -0.0507 -0.5413
 1764SOL    HW1 6191   1.920   2.784   4.998 -1.2018 -0.4067 -0.3627
 1764SOL    HW2 6192   2.020   2.661   4.955 -0.8548 -0.6832  1.1542
 1765SOL     OW 6193   5.231   6.050   0.314 -0.1485  1.1024 -0.3335
 1765SOL    HW1 6194   5.149   6.094   0.279 -0.1448  2.0310  0.7716
 1765SOL    HW2 6195   5.306   6.116   0.319  0.4001  0.5040 -0.4128
 1766SOL     OW 6196   1.644   2.904   5.714 -0.0742  0.0376  0.7979
 1766SOL    HW1 6197   1.588   2.894   5.796 -0.3991  1.0767  0.7139
 1766SOL    HW2 6198   1.628   2.826   5.653  0.4951 -0.9695  1.8894
 1767SOL     OW 6199   0.603   0.847   0.090  0.3890  0.8317  0.0879
 1767SOL    HW1 6200   0.675   0.816   0.029  1.4592  0.7023  1.3737
 1767SOL    HW2 6201   0.522   0.873   0.036 -0.1670 -2.9597 -1.1732
 1768SOL     OW 6202   6.284   3.367   1.274 -0.2310 -0.6244 -0.5804
 1768SOL    HW1 6203   6.301   3.372   1.175  0.8466  1.3808 -0.3334
 1768SOL    HW2 6204   6.365   3.330   1.320  0.7181  1.8494 -0.1387
 1769SOL     OW 6205   5.949   3.280   6.840 -0.3946 -0.2091  0.7484
 1769SOL    HW1 6206   5.966   3.188   6.876  2.1756  0.4722  1.4824
 1769SOL    HW2 6207   6.015   3.300   6.767  1.5275  2.2546  2.9599
 1770SOL     OW 6208   0.781   1.887   4.458 -0.7384  0.1937 -0.1282
 1770SOL    HW1 6209   0.772   1.792   4.487 -0.4003 -0.5771 -2.3592
 1770SOL    HW2 6210   0.706   1.941   4.497 -3.6761 -1.9438 -2.3329
 1771SOL     OW 6211   2.870   6.627   0.832  0.0291 -0.4192 -0.5801
 1771SOL    HW1 6212   2.928   6.617   0.751  1.1683 -2.2892  0.3908
 1771SOL    HW2 6213   2.914   6.687   0.898  0.2757 -0.8444 -0.3547
 1772SOL     OW 6214   2.315   4.696   2.860  0.8446 -0.0681 -0.4605
 1772SOL    HW1 6215   2.395   4.642   2.834  0.3691 -1.1792  0.3052
 1772SOL    HW2 6216   2.320   4.786   2.816  2.1444 -0.3713 -0.9864
 1773SOL     OW 6217   6.467   0.689   0.913  0.4438 -0.3791 -0.1912
 1773SOL    HW1 6218   6.451   0.607   0.859  3.3818 -0.0706 -1.7406
 1773SOL    HW2 6219   6.447   0.770   0.857  0.6757 -0.0322  0.2244
 1774SOL     OW 6220   5.150   4.580   4.387  0.3667 -0.1426 -0.0199
 1774SOL    HW1 6221   5.232   4.543   4.431  1.3733  1.2639 -0.6443
 1774SOL    HW2 6222   5.168   4.673   4.355 -1.7530  0.5331  0.5709
 1775SOL     OW 6223   4.714   0.273   4.107  0.5316 -0.6280  0.3211
 1775SOL    HW1 6224   4.789   0.304   4.165  1.5523 -0.4705 -1.0174
 1775SOL    HW2 6225   4.633   0.329   4.124  1.2706  0.4292  0.4889
 1776SOL     OW 6226   3.202   5.205   3.450 -0.4302  0.3420  0.3193
 1776SOL    HW1 6227   3.155   5.215   3.538  0.0143  0.4617  0.5488
 1776SOL    HW2 6228   3.188   5.286   3.395  1.2007  1.2822  1.2177
 1777SOL     OW 6229   5.207   6.331   0.596  0.1239  0.1252 -0.7254
 1777SOL    HW1 6230   5.136   6.262   0.582  0.3901 -0.5526  0.9475
 1777SOL    HW2 6231   5.166   6.421   0.603 -0.7428 -0.3766  1.2924
 1778SOL     OW 6232   0.541   0.153   2.024  0.3320  0.4472  0.5438
 1778SOL    HW1 6233   0.476   0.089   2.066 -0.0182  1.7021  1.9680
 1778SOL    HW2 6234   0.634   0.118   2.035  0.2129  0.5562  2.0373
 1779SOL     OW 6235   1.012   1.586   4.360 -0.0504  0.3864  0.3735
 1779SOL    HW1 6236   1.046   1.601   4.453 -0.6920 -0.7319  0.8170
 1779SOL    HW2 6237   0.969   1.670   4.326  1.7887  1.3632  0.3600
 1780SOL     OW 6238   4.792   4.612   6.446  0.1408  0.3025 -0.2428
 1780SOL    HW1 6239   4.723   4.602   6.374  0.0439 -1.4713  0.0378
 1780SOL    HW2 6240   4.872   4.661   6.409 -0.0401 -0.2705 -1.4712
 1781SOL     OW 6241   5.309   1.151   5.442  0.5037  0.6248 -0.0600
 1781SOL    HW1 6242   5.373   1.095   5.390  0.1461  0.0617  0.0951
 1781SOL    HW2 6243   5.321   1.247   5.418  1.6607  0.5706  0.2516
 1782SOL     OW 6244   2.056   2.432   5.965  0.0164  0.3130 -0.1673
 1782SOL    HW1 6245   2.026   2.409   5.872 -3.1374  3.2035 -0.0452
 1782SOL    HW2 6246   2.005   2.376   6.031 -0.5618  0.9108 -0.1034
 1783SOL     OW 6247   4.518   5.589   6.157 -0.0352  0.4310  0.0371
 1783SOL    HW1 6248   4.578   5.666   6.176  0.9254 -0.3186  0.1057
 1783SOL    HW2 6249   4.455   5.576   6.233  0.7204  0.3060  0.6565
 1784SOL     OW 6250   5.804   1.282   2.079 -0.1449 -0.5150  0.0170
 1784SOL    HW1 6251   5.816   1.208   2.013  0.8015  1.0227 -1.6307
 1784SOL    HW2 6252   5.894   1.321   2.100 -0.7241  0.8278  0.0419
 1785SOL     OW 6253   1.709   0.265   6.438  0.1790  0.3981 -0.1641
 1785SOL    HW1 6254   1.632   0.328   6.431 -1.1802 -1.3306 -2.3414
 1785SOL    HW2 6255   1.778   0.288   6.369 -0.3779 -0.4586 -1.0507
 1786SOL     OW 6256   5.469   6.597   6.753  0.5671 -0.0973  0.5566
 1786SOL    HW1 6257   5.430   6.555   6.671  1.9447 -1.7247  0.7010
 1786SOL    HW2 6258   5.491   6.693   6.733 -0.5317 -0.0288 -0.4759
 1787SOL     OW 6259   5.439   1.061   6.047 -0.3241 -0.0478  0.1293
 1787SOL    HW1 6260   5.494   1.062   6.131 -0.5972 -0.0645  0.3117
 1787SOL    HW2 6261   5.484   1.005   5.978  1.0442  1.7228 -0.5185
 1788SOL     OW 6262   6.645   3.938   6.269  0.7677 -0.5166  0.6908
 1788SOL    HW1 6263   6.643   3.930   6.169  0.2848  0.2547  0.6360
 1788SOL    HW2 6264   6.560   3.899   6.307  0.3133  0.4476  0.6979
 1789SOL     OW 6265   0.425   6.342   2.705  0.1767 -0.4344  0.2917
 1789SOL    HW1 6266   0.454   6.375   2.615  0.6510  0.4014  0.7335
 1789SOL    HW2 6267   0.390   6.249   2.697  2.5049 -1.3250 -0.3891
 1790SOL     OW 6268   0.715   1.504   1.377 -0.2187 -0.9363 -0.2048
 1790SOL    HW1 6269   0.774   1.571   1.422  1.2038 -2.0235 -0.3483
 1790SOL    HW2 6270   0.654   1.463   1.444 -1.0112  0.3766 -0.0907
 1791SOL     OW 6271   0.813   4.486   2.031  0.4099  0.0173 -0.2882
 1791SOL    HW1 6272   0.904   4.514   2.000  0.5176  0.3902  0.3436
 1791SOL    HW2 6273   0.802   4.512   2.127 -0.2141 -0.3915 -0.2486
 1792SOL     OW 6274   3.683   5.273   3.854 -0.0068 -0.1373  0.4806
 1792SOL    HW1 6275   3.588   5.305   3.848 -0.2307 -0.6086  1.3321
 1792SOL    HW2 6276   3.691   5.207   3.929  1.2273  0.7805  1.2039
 1793SOL     OW 6277   6.603   2.094   1.566 -0.0148  0.0042 -0.0853
 1793SOL    HW1 6278   6.686   2.051   1.602 -1.0638 -3.0137 -0.9885
 1793SOL    HW2 6279   6.628   2.173   1.510  2.0174  0.8026  1.7883
 1794SOL     OW 6280   3.791   6.485   4.825  0.1845 -0.1323 -0.4178
 1794SOL    HW1 6281   3.785   6.522   4.732 -1.9386  1.5111  0.2986
 1794SOL    HW2 6282   3.705   6.440   4.848 -0.1156  1.2926  1.4458
 1795SOL     OW 6283   6.580   3.623   6.510 -0.0215  0.0638  0.8193
 1795SOL    HW1 6284   6.518   3.650   6.436  0.0451 -1.0825  0.3351
 1795SOL    HW2 6285   6.530   3.627   6.597  0.1347  2.2553  0.8719
 1796SOL     OW 6286   4.822   0.498   0.290 -0.5489  0.0796 -0.3972
 1796SOL    HW1 6287   4.889   0.438   0.245 -1.7245 -2.1007  0.6284
 1796SOL    HW2 6288   4.752   0.525   0.224  1.0883  2.1325 -1.4019
 1797SOL     OW 6289   0.769   6.104   4.262  0.1606 -0.1879  0.1694
 1797SOL    HW1 6290   0.843   6.051   4.220 -0.0999 -0.4632  0.0484
 1797SOL    HW2 6291   0.795   6.200   4.268  1.2708 -0.5418  1.7752
 1798SOL     OW 6292   0.083   2.685   2.145 -0.1621  0.0645  0.3207
 1798SOL    HW1 6293   0.131   2.762   2.101  0.2257 -0.3387  0.0337
 1798SOL    HW2 6294   0.130   2.600   2.123 -1.0269 -0.3393  0.0252
 1799SOL     OW 6295   4.106   1.136   2.145 -0.7903 -0.1366  0.6012
 1799SOL    HW1 6296   4.164   1.055   2.159 -0.8148 -0.7586 -2.1878
 1799SOL    HW2 6297   4.164   1.216   2.130 -0.7132 -0.1250  0.9645
 1800SOL     OW 6298   6.951   6.300   6.486 -0.3246 -0.2366  0.2034
 1800SOL    HW1 6299   6.870   6.332   6.534  0.4927  0.7688  0.9354
 1800SOL    HW2 6300   6.940   6.203   6.463 -1.4917 -0.2488  0.7763
 1801SOL     OW 6301   4.958   1.418   1.243 -0.3601 -0.2086  0.2503
 1801SOL    HW1 6302   4.913   1.468   1.317 -1.6333  0.3721 -0.8718
 1801SOL    HW2 6303   5.050   1.392   1.272  0.1425  2.2250  1.1369
 1802SOL     OW 6304   0.800   4.798   2.540 -0.0381 -0.1342  0.2922
 1802SOL    HW1 6305   0.848   4.883   2.562 -0.3990  0.4158 -0.8967
 1802SOL    HW2 6306   0.866   4.727   2.518  0.2657  0.2530 -0.0763
 1803SOL     OW 6307   1.975   5.783   0.865  0.2111  0.3496 -0.3755
 1803SOL    HW1 6308   1.985   5.739   0.775  1.7359 -3.2311  1.3354
 1803SOL    HW2 6309   2.054   5.842   0.882  1.8419 -1.8020 -0.0734
 1804SOL     OW 6310   0.231   2.872   5.874  0.3069  0.1504  0.1989
 1804SOL    HW1 6311   0.167   2.853   5.800 -0.7860  0.7252  0.9723
 1804SOL    HW2 6312   0.205   2.820   5.955  1.8346 -0.9270  0.0505
 1805SOL     OW 6313   4.859   4.013   5.052  0.1959  0.6234  0.4180
 1805SOL    HW1 6314   4.804   4.053   5.125  1.0353  1.9957  0.3523
 1805SOL    HW2 6315   4.821   3.925   5.024 -0.8495  0.6704  1.6423
 1806SOL     OW 6316   2.463   0.790   5.724  0.0526 -0.3070  0.2144
 1806SOL    HW1 6317   2.499   0.698   5.706 -0.5420 -0.5216  0.1105
 1806SOL    HW2 6318   2.518   0.833   5.796 -0.3060 -1.1495  1.0214
 1807SOL     OW 6319   3.393   1.321   2.671  0.2685 -0.1833 -0.0977
 1807SOL    HW1 6320   3.467   1.263   2.636  0.5356  0.3431 -0.4212
 1807SOL    HW2 6321   3.418   1.417   2.660  0.0038 -0.0057  0.8110
 1808SOL     OW 6322   6.330   2.114   3.113  0.2775 -0.2936 -0.2223
 1808SOL    HW1 6323   6.300   2.198   3.068  0.1648  0.5378  1.3374
 1808SOL    HW2 6324   6.429   2.118   3.130  0.2161 -0.3310  0.1550
 1809SOL     OW 6325   4.465   6.560   4.771 -0.2401 -0.6393  0.1415
 1809SOL    HW1 6326   4.472   6.592   4.866  0.4027 -0.7300  0.1307
 1809SOL    HW2 6327   4.404   6.619   4.720 -0.2507 -0.3317  0.5052
 1810SOL     OW 6328   3.725   4.176   5.022  0.1470  0.0238  0.2079
 1810SOL    HW1 6329   3.809   4.172   5.076  0.6950 -0.1455 -0.6419
 1810SOL    HW2 6330   3.748   4.185   4.925 -0.7837 -1.1315 -0.1431
 1811SOL     OW 6331   6.511   6.568   5.932  0.2932  0.6027 -0.5064
 1811SOL    HW1 6332   6.568   6.636   5.887 -1.5444  2.6991  0.1757
 1811SOL    HW2 6333   6.469   6.509   5.863  0.8923  0.9681 -1.1970
 1812SOL     OW 6334   7.003   4.236   0.710 -0.4054  0.9150  1.0041
 1812SOL    HW1 6335   6.923   4.295   0.695 -0.1103  0.6699 -2.0747
 1812SOL    HW2 6336   7.082   4.274   0.663  0.4743 -0.5528  1.2263
 1813SOL     OW 6337   4.908   2.570   5.543  0.3577 -0.7878  0.2646
 1813SOL    HW1 6338   4.896   2.517   5.458  1.7209 -1.5275  0.5114
 1813SOL    HW2 6339   4.872   2.662   5.529 -0.2064 -1.1489 -0.8496
 1814SOL     OW 6340   6.190   6.307   0.115 -0.0532  0.6408  0.4652
 1814SOL    HW1 6341   6.149   6.397   0.132  1.1708  1.1953  0.5722
 1814SOL    HW2 6342   6.288   6.310   0.136  0.4314 -0.1568 -1.4630
 1815SOL     OW 6343   6.684   4.216   5.130  0.2598  0.1621  0.4781
 1815SOL    HW1 6344   6.763   4.180   5.081  1.2022  3.0284 -0.3377
 1815SOL    HW2 6345   6.713   4.293   5.187 -1.7751  0.5282  1.1014
 1816SOL     OW 6346   2.579   0.656   2.435 -0.3926 -0.1441  0.0755
 1816SOL    HW1 6347   2.655   0.659   2.371  0.1406  0.3205  0.7129
 1816SOL    HW2 6348   2.612   0.627   2.525 -1.1970 -1.1954  0.0529
 1817SOL     OW 6349   2.227   1.379   4.199  0.2282 -0.0077  0.0467
 1817SOL    HW1 6350   2.169   1.443   4.150  0.8832  0.5708  0.0150
 1817SOL    HW2 6351   2.188   1.287   4.192 -1.3571  0.5470  1.0909
 1818SOL     OW 6352   6.517   6.897   6.524  0.0831  0.0774 -0.2437
 1818SOL    HW1 6353   6.453   6.972   6.543  1.0148  0.5992  1.0095
 1818SOL    HW2 6354   6.611   6.930   6.537  0.5122 -1.3029  0.3087
 1819SOL     OW 6355   1.639   3.234   6.557  0.1992  0.6580 -0.5274
 1819SOL    HW1 6356   1.693   3.254   6.639  0.5280  0.7736 -0.7678
 1819SOL    HW2 6357   1.679   3.282   6.479  0.6305 -0.4339 -0.9958
 1820SOL     OW 6358   2.837   3.837   0.833  0.8200  0.3412 -0.0413
 1820SOL    HW1 6359   2.885   3.834   0.746  1.0588 -0.4523  0.1141
 1820SOL    HW2 6360   2.738   3.829   0.818  0.9253 -0.8133 -0.1795
 1821SOL     OW 6361   0.955   4.367   6.886 -0.1762 -0.0144  0.1939
 1821SOL    HW1 6362   0.992   4.397   6.798 -0.9702 -1.3256 -0.6238
 1821SOL    HW2 6363   0.939   4.446   6.944 -1.8029  1.1554 -1.7011
 1822SOL     OW 6364   1.417   0.812   3.731  0.7696 -0.7825 -0.6475
 1822SOL    HW1 6365   1.432   0.714   3.740 -0.2044 -0.9047 -0.2215
 1822SOL    HW2 6366   1.395   0.834   3.636 -1.3016 -1.3434 -0.3573
 1823SOL     OW 6367   1.299   1.413   1.379  0.3432  0.1421  0.4737
 1823SOL    HW1 6368   1.351   1.492   1.412  0.7435  0.3338 -0.5754
 1823SOL    HW2 6369   1.211   1.409   1.426  0.3230  1.2100  0.5560
 1824SOL     OW 6370   2.449   1.965   5.466 -0.0148 -0.2919 -0.1236
 1824SOL    HW1 6371   2.373   1.992   5.407 -0.2544 -1.8794 -0.5990
 1824SOL    HW2 6372   2.414   1.938   5.555 -0.2895 -2.5634 -0.8328
 1825SOL     OW 6373   4.717   5.582   0.643 -0.0537 -0.0442  0.3289
 1825SOL    HW1 6374   4.719   5.487   0.674 -0.2293  0.0719  0.6953
 1825SOL    HW2 6375   4.636   5.596   0.585 -1.2198  0.4150  2.0077
 1826SOL     OW 6376   5.958   2.804   5.665  0.0059 -0.5835 -0.0485
 1826SOL    HW1 6377   5.976   2.747   5.585  0.0161 -1.1264  0.3303
 1826SOL    HW2 6378   5.860   2.814   5.678 -0.0100  1.2769 -1.3510
 1827SOL     OW 6379   4.148   2.078   6.865  0.6164 -0.3046 -0.2265
 1827SOL    HW1 6380   4.093   2.035   6.937  1.6468 -1.2879  0.0157
 1827SOL    HW2 6381   4.138   2.026   6.780  1.0523 -0.4163 -0.2128
 1828SOL     OW 6382   6.577   1.130   4.072 -0.4179 -0.2702 -0.1113
 1828SOL    HW1 6383   6.483   1.144   4.103 -0.5952 -0.6246 -0.4762
 1828SOL    HW2 6384   6.634   1.106   4.150 -0.4589  0.7484  0.2408
 1829SOL     OW 6385   2.664   6.517   1.119 -0.7824 -0.4314 -0.1847
 1829SOL    HW1 6386   2.743   6.575   1.100  0.4687 -2.0810 -0.2458
 1829SOL    HW2 6387   2.645   6.460   1.039 -2.3491  0.2511 -0.3381
 1830SOL     OW 6388   6.560   0.458   1.588  0.5994 -0.1042  0.0140
 1830SOL    HW1 6389   6.562   0.429   1.492 -2.5224 -0.7163  0.0452
 1830SOL    HW2 6390   6.592   0.383   1.645  0.0258 -0.6858 -0.4121
 1831SOL     OW 6391   5.976   1.167   1.690 -0.1595  0.5228  0.4737
 1831SOL    HW1 6392   6.053   1.225   1.716 -0.1869 -0.0695  1.9595
 1831SOL    HW2 6393   5.959   1.177   1.592  1.3776  1.1594  0.2426
 1832SOL     OW 6394   6.735   4.850   1.312 -0.0133 -0.5099  0.8844
 1832SOL    HW1 6395   6.686   4.790   1.375  0.7549 -0.4870  1.5271
 1832SOL    HW2 6396   6.747   4.804   1.224 -2.5149  0.0691  0.1703
 1833SOL     OW 6397   2.477   1.357   3.890  0.3396  0.0799  0.4056
 1833SOL    HW1 6398   2.506   1.417   3.964 -0.8634  0.0885  0.8797
 1833SOL    HW2 6399   2.403   1.400   3.839  0.6350 -0.2655 -0.3347
 1834SOL     OW 6400   6.873   2.873   2.939 -0.1465 -0.0347  0.1394
 1834SOL    HW1 6401   6.792   2.860   2.882 -0.7222  1.1217  0.6666
 1834SOL    HW2 6402   6.846   2.886   3.034  0.7551 -1.0912  0.5595
 1835SOL     OW 6403   5.659   1.190   5.729 -0.2538  0.1913  0.1357
 1835SOL    HW1 6404   5.647   1.219   5.634 -0.1948 -2.0339 -0.6241
 1835SOL    HW2 6405   5.756   1.177   5.748 -0.2870  0.3089  0.3881
 1836SOL     OW 6406   5.916   0.845   2.536 -0.0938  0.0196 -0.3383
 1836SOL    HW1 6407   5.900   0.898   2.452  0.6249 -0.2933 -0.6776
 1836SOL    HW2 6408   5.926   0.748   2.512  0.1596 -0.0635  0.1062
 1837SOL     OW 6409   5.310   6.869   3.447  0.5609 -0.2282  0.5316
 1837SOL    HW1 6410   5.280   6.873   3.543 -0.1130 -2.1647  0.4528
 1837SOL    HW2 6411   5.323   6.961   3.412 -1.1002  0.5833  1.8999
 1838SOL     OW 6412   2.280   6.106   3.556  0.1817 -0.0350 -0.0178
 1838SOL    HW1 6413   2.182   6.093   3.537  0.0903 -0.6999  0.8737
 1838SOL    HW2 6414   2.315   6.028   3.607  0.2445  1.8749  3.1258
 1839SOL     OW 6415   0.262   4.144   5.195  0.4727 -0.1918 -0.6298
 1839SOL    HW1 6416   0.316   4.095   5.126  0.5229 -0.5660 -0.3273
 1839SOL    HW2 6417   0.256   4.089   5.278  0.1845  0.1406 -0.4272
 1840SOL     OW 6418   2.118   1.618   3.882 -0.0888 -0.1221 -0.4516
 1840SOL    HW1 6419   2.043   1.668   3.839  0.0865  1.3247  0.8541
 1840SOL    HW2 6420   2.180   1.683   3.927  0.6046 -1.4655  0.5959
 1841SOL     OW 6421   4.777   4.870   4.987 -0.4881 -0.7258  0.2845
 1841SOL    HW1 6422   4.841   4.810   4.938  0.1405 -0.6676  1.0066
 1841SOL    HW2 6423   4.759   4.951   4.931 -0.8133 -1.2580 -0.4059
 1842SOL     OW 6424   4.703   2.481   1.706  0.4668 -0.1327  0.1779
 1842SOL    HW1 6425   4.731   2.567   1.663  0.4868 -0.2995 -0.1453
 1842SOL    HW2 6426   4.618   2.496   1.756  0.2242 -0.0309 -0.2583
 1843SOL     OW 6427   3.188   3.692   6.204 -0.5103  0.7061 -0.2578
 1843SOL    HW1 6428   3.166   3.732   6.293 -2.4033  1.1945 -0.9119
 1843SOL    HW2 6429   3.104   3.668   6.155  0.5086 -0.6040 -1.4688
 1844SOL     OW 6430   3.872   3.540   1.729  0.7130 -0.9646 -0.5465
 1844SOL    HW1 6431   3.858   3.544   1.630 -1.5981 -1.1889 -0.2796
 1844SOL    HW2 6432   3.787   3.561   1.776  1.8204 -0.6466  1.4303
 1845SOL     OW 6433   6.495   5.879   0.369  0.2926  0.3066 -0.4227
 1845SOL    HW1 6434   6.588   5.846   0.355  0.1200 -1.3709  1.7440
 1845SOL    HW2 6435   6.469   5.866   0.465 -1.7292  1.9593 -0.6737
 1846SOL     OW 6436   5.314   2.077   4.993  0.1242 -0.1408  0.2185
 1846SOL    HW1 6437   5.315   2.177   4.991  0.3199 -0.1491 -1.5947
 1846SOL    HW2 6438   5.270   2.046   5.078 -0.3625  1.4698  0.5917
 1847SOL     OW 6439   6.368   4.004   0.647 -0.1408 -0.1908 -0.0204
 1847SOL    HW1 6440   6.416   3.936   0.591 -2.2291 -1.5873 -0.2166
 1847SOL    HW2 6441   6.353   3.967   0.739 -1.5434 -0.1565 -0.2131
 1848SOL     OW 6442   0.965   1.370   0.702  0.7139 -0.6159  0.0434
 1848SOL    HW1 6443   1.036   1.426   0.660 -0.1250 -0.9170 -1.8591
 1848SOL    HW2 6444   0.964   1.279   0.660 -1.1031 -0.4503 -0.3687
 1849SOL     OW 6445   1.175   2.060   3.675 -0.5227  0.4533  0.3004
 1849SOL    HW1 6446   1.184   2.128   3.603 -1.2878 -0.0106 -0.2435
 1849SOL    HW2 6447   1.210   1.972   3.642 -0.6078  0.3078  0.5938
 1850SOL     OW 6448   3.753   6.530   3.894 -0.3041  0.0115  0.0570
 1850SOL    HW1 6449   3.844   6.500   3.924 -0.6197  0.2164  1.2612
 1850SOL    HW2 6450   3.739   6.625   3.920 -1.0696 -0.1752  0.3458
 1851SOL     OW 6451   0.907   4.075   3.094 -0.1696 -0.1895 -0.6395
 1851SOL    HW1 6452   0.975   4.137   3.055 -0.4401  1.1650  0.9546
 1851SOL    HW2 6453   0.948   4.023   3.169 -0.9876  1.0443  0.7090
 1852SOL     OW 6454   3.718   0.817   6.715  0.6363  0.3704  0.0079
 1852SOL    HW1 6455   3.632   0.805   6.764  1.0896 -1.6526  0.3703
 1852SOL    HW2 6456   3.735   0.915   6.702 -1.0770  0.8460  1.0335
 1853SOL     OW 6457   1.069   4.882   6.109  0.7082  1.0033  0.0768
 1853SOL    HW1 6458   1.134   4.806   6.104  0.2990  0.7205 -1.3504
 1853SOL    HW2 6459   1.100   4.956   6.050  0.1081  1.1527 -0.0570
 1854SOL     OW 6460   3.077   5.601   6.948  0.3111 -0.9974  0.2189
 1854SOL    HW1 6461   3.161   5.654   6.955 -0.0715 -0.0575 -1.6055
 1854SOL    HW2 6462   2.999   5.661   6.964 -0.0755 -1.4642  0.1033
 1855SOL     OW 6463   4.888   4.767   4.625 -0.3796 -0.2236 -0.6159
 1855SOL    HW1 6464   4.867   4.830   4.550 -2.7361  2.0080  1.7263
 1855SOL    HW2 6465   4.954   4.809   4.687 -2.0544  0.0966  1.0362
 1856SOL     OW 6466   2.585   2.368   1.528  0.2719  0.6232  0.1390
 1856SOL    HW1 6467   2.618   2.460   1.551 -1.0261  1.0399  0.4243
 1856SOL    HW2 6468   2.577   2.314   1.612  0.4856  0.4301  0.0368
 1857SOL     OW 6469   3.023   2.804   0.340  0.0013  0.3453 -0.2589
 1857SOL    HW1 6470   3.070   2.718   0.364 -1.2927 -0.3851 -0.2676
 1857SOL    HW2 6471   2.998   2.852   0.424 -2.1226 -0.8906 -0.1179
 1858SOL     OW 6472   6.976   4.579   4.097 -0.4327 -0.2353  0.5180
 1858SOL    HW1 6473   6.987   4.678   4.083  1.7383 -0.7022 -1.6809
 1858SOL    HW2 6474   6.922   4.564   4.180 -2.2993  2.7866  0.0378
 1859SOL     OW 6475   0.298   6.124   5.086 -0.1066  0.3164  0.1429
 1859SOL    HW1 6476   0.238   6.166   5.154 -0.9484 -0.7953  0.1138
 1859SOL    HW2 6477   0.359   6.059   5.130  0.0285  0.3205 -0.0370
 1860SOL     OW 6478   2.055   1.410   3.453 -1.0212  0.5853 -0.7482
 1860SOL    HW1 6479   2.035   1.398   3.551  2.3484  0.6291  0.0662
 1860SOL    HW2 6480   2.101   1.328   3.419 -1.8408  0.7253 -2.2565
 1861SOL     OW 6481   1.810   4.280   4.246 -0.1169  0.1019  0.2322
 1861SOL    HW1 6482   1.870   4.244   4.175 -1.2723 -2.2741  0.3490
 1861SOL    HW2 6483   1.714   4.264   4.220 -0.7324  2.8405  0.5156
 1862SOL     OW 6484   4.038   5.557   4.338 -0.0848 -1.0148 -0.1482
 1862SOL    HW1 6485   4.125   5.547   4.290 -0.1594  1.5370 -0.9715
 1862SOL    HW2 6486   3.965   5.573   4.272 -0.7270 -0.5622  0.6568
 1863SOL     OW 6487   6.140   6.272   3.459  0.4637  0.2419  0.2261
 1863SOL    HW1 6488   6.137   6.369   3.434 -1.0922  0.0045 -0.5989
 1863SOL    HW2 6489   6.159   6.264   3.557  0.0447  1.4027  0.4160
 1864SOL     OW 6490   6.538   0.757   4.937 -0.0835  0.2040 -0.0267
 1864SOL    HW1 6491   6.440   0.740   4.948 -0.1061  1.3085  1.7038
 1864SOL    HW2 6492   6.585   0.742   5.024  1.3575 -0.6187 -0.9050
 1865SOL     OW 6493   4.970   1.803   0.853  0.3492  0.3647  0.5130
 1865SOL    HW1 6494   4.963   1.715   0.901  0.0939 -0.7431 -1.4682
 1865SOL    HW2 6495   4.892   1.861   0.877 -1.3349 -1.2908 -0.7225
 1866SOL     OW 6496   0.928   6.502   6.266 -0.3920  0.3541 -0.4917
 1866SOL    HW1 6497   0.841   6.468   6.302  0.1921 -0.6055  0.0634
 1866SOL    HW2 6498   0.964   6.572   6.327 -0.6748  0.5988 -0.6064
 1867SOL     OW 6499   1.550   2.004   0.690 -0.2459 -0.1454  0.1986
 1867SOL    HW1 6500   1.544   2.046   0.599  0.6595 -0.4200 -0.0057
 1867SOL    HW2 6501   1.503   1.916   0.689  0.6302 -0.6197 -0.3084
 1868SOL     OW 6502   5.619   5.369   6.562 -0.0708  0.4396 -0.0612
 1868SOL    HW1 6503   5.666   5.364   6.474  0.6194 -0.0863  0.3276
 1868SOL    HW2 6504   5.666   5.434   6.622 -1.2898  1.7907 -0.5013
 1869SOL     OW 6505   4.011   5.531   1.955 -0.1444  0.6560 -0.0492
 1869SOL    HW1 6506   3.930   5.479   1.981  1.3530 -1.1163  1.3019
 1869SOL    HW2 6507   4.047   5.579   2.034 -0.4182  2.3283 -0.8793
 1870SOL     OW 6508   3.121   3.169   4.414 -0.2356 -0.7256  0.2190
 1870SOL    HW1 6509   3.203   3.224   4.395 -0.4678 -1.3268 -3.2076
 1870SOL    HW2 6510   3.146   3.092   4.472  1.3151 -0.1248  0.4015
 1871SOL     OW 6511   6.731   5.729   0.636  0.0918  0.0565 -0.6804
 1871SOL    HW1 6512   6.777   5.677   0.709  1.2519 -0.2673 -1.6102
 1871SOL    HW2 6513   6.744   5.681   0.549  0.9978  1.7740 -1.5299
 1872SOL     OW 6514   0.431   3.986   5.030 -0.5128  0.3723  0.6867
 1872SOL    HW1 6515   0.392   3.957   4.942  0.9233 -0.7256  0.3865
 1872SOL    HW2 6516   0.530   3.977   5.027 -0.1298  3.3928  1.3283
 1873SOL     OW 6517   5.736   3.852   0.003 -0.0721  0.3527  0.0244
 1873SOL    HW1 6518   5.695   3.943  -0.004 -2.3398 -0.5760  0.2004
 1873SOL    HW2 6519   5.795   3.847   0.084 -0.4448  1.4615  0.3799
 1874SOL     OW 6520   2.512   5.254   1.954  0.2773 -0.6951  0.2749
 1874SOL    HW1 6521   2.579   5.252   1.880  1.1966  1.5889  0.9467
 1874SOL    HW2 6522   2.462   5.168   1.956  0.2155 -0.8652 -2.9550
 1875SOL     OW 6523   6.384   0.912   2.988  0.2136  0.2192 -0.1728
 1875SOL    HW1 6524   6.451   0.947   3.054  0.4700  0.7864 -0.7214
 1875SOL    HW2 6525   6.356   0.820   3.014  0.8541  0.1609  0.3288
 1876SOL     OW 6526   3.180   4.204   0.487 -0.5300 -0.1098 -0.4709
 1876SOL    HW1 6527   3.243   4.169   0.418  1.0240  0.5817  0.5365
 1876SOL    HW2 6528   3.090   4.220   0.446  0.2981  0.1021 -2.2808
 1877SOL     OW 6529   6.641   1.622   2.831 -0.6622  0.0492 -0.5185
 1877SOL    HW1 6530   6.617   1.528   2.807  0.6593 -0.9636  1.8530
 1877SOL    HW2 6531   6.727   1.647   2.787 -1.2789  0.3965 -1.5809
 1878SOL     OW 6532   3.163   2.617   1.735  0.5016  0.2527  0.0399
 1878SOL    HW1 6533   3.086   2.586   1.790  0.0842  1.6298  0.2641
 1878SOL    HW2 6534   3.241   2.638   1.794  0.3452  0.8698  0.0395
 1879SOL     OW 6535   5.914   2.470   4.799 -0.1222 -0.4249  0.1450
 1879SOL    HW1 6536   5.989   2.443   4.738  1.0451  0.3630  1.1727
 1879SOL    HW2 6537   5.926   2.565   4.826 -2.3901  0.2263 -0.8934
 1880SOL     OW 6538   4.764   1.980   5.995  0.7702 -0.5502 -0.6209
 1880SOL    HW1 6539   4.696   2.035   5.947 -0.0855 -0.9897  0.0438
 1880SOL    HW2 6540   4.719   1.930   6.070  2.1977  0.9272  1.3346
 1881SOL     OW 6541   1.846   4.126   2.647 -0.2310 -0.1099 -0.0188
 1881SOL    HW1 6542   1.841   4.096   2.551 -1.8870 -0.4827  0.1586
 1881SOL    HW2 6543   1.899   4.210   2.652 -1.6520  0.9516 -1.5454
 1882SOL     OW 6544   3.748   4.084   4.146 -0.5580  0.3763  0.1063
 1882SOL    HW1 6545   3.674   4.017   4.145  1.2179 -1.7620  1.6756
 1882SOL    HW2 6546   3.751   4.130   4.235  1.7426 -1.7771  1.2502
 1883SOL     OW 6547   1.799   6.188   2.879 -0.3330 -0.1242  0.4853
 1883SOL    HW1 6548   1.879   6.248   2.872  1.1721 -2.0959 -0.4631
 1883SOL    HW2 6549   1.830   6.094   2.896 -2.6088 -0.6051  2.3796
 1884SOL     OW 6550   0.696   5.250   6.944 -0.1324 -0.1042  0.2135
 1884SOL    HW1 6551   0.610   5.271   6.989  0.1866 -2.0094  1.8549
 1884SOL    HW2 6552   0.679   5.188   6.867 -0.1634 -1.2878  1.1521
 1885SOL     OW 6553   5.252   3.149   3.510 -0.1092  0.2313  0.1366
 1885SOL    HW1 6554   5.244   3.242   3.475 -1.3591 -0.9745 -3.1976
 1885SOL    HW2 6555   5.347   3.130   3.535  0.4746  1.9138 -0.6896
 1886SOL     OW 6556   0.944   3.421   6.051  0.0268  0.4550  0.2423
 1886SOL    HW1 6557   0.906   3.438   5.960 -1.8165 -0.1280  0.8532
 1886SOL    HW2 6558   0.899   3.481   6.118  1.0647  0.5920  0.8440
 1887SOL     OW 6559   4.683   5.645   3.438 -0.1325 -0.1858 -0.8255
 1887SOL    HW1 6560   4.760   5.616   3.495  0.3785 -1.1751 -1.9610
 1887SOL    HW2 6561   4.698   5.738   3.405  0.7029 -0.4580 -1.2328
 1888SOL     OW 6562   0.277   5.604   1.751  0.2510 -0.3231 -0.2732
 1888SOL    HW1 6563   0.194   5.574   1.704  0.4134  1.0478 -1.5161
 1888SOL    HW2 6564   0.324   5.525   1.791 -1.7789 -1.1004  0.7179
 1889SOL     OW 6565   4.324   1.965   4.014  0.0618 -0.0658  0.2121
 1889SOL    HW1 6566   4.268   1.969   3.932  0.7365 -0.5525 -0.2825
 1889SOL    HW2 6567   4.420   1.970   3.989  0.3668 -2.2014  0.7778
 1890SOL     OW 6568   1.563   2.599   3.307  0.4365 -0.1146  0.2689
 1890SOL    HW1 6569   1.621   2.641   3.237  0.0070  0.0724  0.0223
 1890SOL    HW2 6570   1.534   2.669   3.373  2.0611 -0.5433  1.5162
 1891SOL     OW 6571   2.928   1.976   2.278  0.0963 -0.3928  0.2728
 1891SOL    HW1 6572   2.942   1.917   2.199 -0.5281  2.5359 -2.1977
 1891SOL    HW2 6573   2.831   1.978   2.302 -0.4372  1.8277 -1.6770
 1892SOL     OW 6574   3.046   5.828   4.509  0.0020 -0.2197 -0.0003
 1892SOL    HW1 6575   3.006   5.812   4.600  0.0106 -0.3184 -0.0138
 1892SOL    HW2 6576   3.143   5.850   4.518 -0.2213  0.7908  0.0945
 1893SOL     OW 6577   1.337   6.759   6.240  0.0710 -0.6189 -0.4801
 1893SOL    HW1 6578   1.406   6.803   6.183 -2.0730 -0.7629 -3.3898
 1893SOL    HW2 6579   1.280   6.829   6.284 -0.3724 -0.4896 -1.2575
 1894SOL     OW 6580   2.192   5.582   2.066 -0.0245  0.3406 -0.3449
 1894SOL    HW1 6581   2.143   5.512   2.118  1.0587 -0.1181  0.0958
 1894SOL    HW2 6582   2.144   5.670   2.076 -0.1678  0.1408  0.9729
 1895SOL     OW 6583   3.619   1.185   2.590 -0.3944 -0.1155 -0.6477
 1895SOL    HW1 6584   3.688   1.225   2.650 -0.1637  0.4913 -1.3084
 1895SOL    HW2 6585   3.658   1.105   2.544  0.0239  0.4851 -1.3558
 1896SOL     OW 6586   4.060   6.324   0.823  0.6835 -0.3183 -0.6642
 1896SOL    HW1 6587   4.029   6.233   0.794 -0.7154  0.4069 -1.5326
 1896SOL    HW2 6588   4.117   6.315   0.905 -0.7845 -1.8459  0.2600
 1897SOL     OW 6589   0.209   1.049   6.761  0.1668  0.1041  0.1788
 1897SOL    HW1 6590   0.136   1.018   6.823 -0.4418  0.7630 -0.2065
 1897SOL    HW2 6591   0.297   1.013   6.794 -0.4773 -1.8279 -0.1057
 1898SOL     OW 6592   2.822   2.488   0.963 -0.2839 -0.1647  0.2213
 1898SOL    HW1 6593   2.820   2.392   0.936 -0.8433 -0.1823  0.3053
 1898SOL    HW2 6594   2.884   2.499   1.041 -1.5405 -0.7839  1.3665
 1899SOL     OW 6595   5.094   5.577   4.293 -0.1229 -0.6210  0.3946
 1899SOL    HW1 6596   5.166   5.621   4.240  1.0639 -1.0500  1.5868
 1899SOL    HW2 6597   5.045   5.646   4.347 -0.9922 -0.2568 -0.8267
 1900SOL     OW 6598   0.724   5.565   2.328 -0.3553 -0.4995  0.1601
 1900SOL    HW1 6599   0.813   5.567   2.373 -0.0083  0.8446 -0.5246
 1900SOL    HW2 6600   0.656   5.608   2.388 -0.5677 -1.5763  0.7058
 1901SOL     OW 6601   1.982   5.589   5.619  0.1965  0.3659 -0.5221
 1901SOL    HW1 6602   2.002   5.491   5.614  0.9976  0.4899  0.0251
 1901SOL    HW2 6603   1.899   5.604   5.673 -0.4099 -0.0517 -1.3143
 1902SOL     OW 6604   1.830   5.069   3.849 -0.0635 -0.7998 -0.4293
 1902SOL    HW1 6605   1.845   4.970   3.853 -0.2821 -1.0752 -3.5595
 1902SOL    HW2 6606   1.917   5.117   3.857  0.2666 -1.3707 -0.5580
 1903SOL     OW 6607   5.117   4.005   3.496 -0.3673  0.7372 -0.6042
 1903SOL    HW1 6608   5.051   3.931   3.507  0.8729 -0.3365 -0.1784
 1903SOL    HW2 6609   5.209   3.966   3.483  0.7375  2.1826  2.1721
 1904SOL     OW 6610   1.554   4.581   6.891  0.4491 -0.3437  0.5637
 1904SOL    HW1 6611   1.479   4.527   6.852  0.3143  0.4251 -0.2870
 1904SOL    HW2 6612   1.623   4.596   6.820 -0.1898  1.7968  0.3141
 1905SOL     OW 6613   2.222   3.834   0.731 -0.1174  0.0619 -0.4030
 1905SOL    HW1 6614   2.244   3.756   0.671 -1.4934 -0.6427 -0.0213
 1905SOL    HW2 6615   2.226   3.918   0.678  0.2804 -0.3805 -1.0974
 1906SOL     OW 6616   3.462   5.223   4.825 -0.2253 -0.5245  0.0090
 1906SOL    HW1 6617   3.414   5.209   4.739  1.0425 -2.1169 -0.5077
 1906SOL    HW2 6618   3.401   5.203   4.901 -1.9960  2.8617 -0.3442
 1907SOL     OW 6619   4.727   6.784   4.134  0.3040 -0.0449 -0.1452
 1907SOL    HW1 6620   4.733   6.883   4.147  1.4945 -0.2328  0.9129
 1907SOL    HW2 6621   4.721   6.763   4.037  1.4749  1.0056 -0.4672
 1908SOL     OW 6622   1.260   3.949   2.273 -0.5574  0.0352 -0.5852
 1908SOL    HW1 6623   1.285   3.940   2.370 -1.3138 -0.6718 -0.4453
 1908SOL    HW2 6624   1.237   4.044   2.254 -0.3823  0.1852 -0.0786
 1909SOL     OW 6625   3.896   1.280   6.405 -0.3131 -0.6577 -0.0745
 1909SOL    HW1 6626   3.831   1.329   6.347 -0.9225 -0.9323  0.3543
 1909SOL    HW2 6627   3.855   1.193   6.434 -1.2368  0.6442  3.0362
 1910SOL     OW 6628   4.006   1.677   4.054 -0.4919  0.1735 -0.3580
 1910SOL    HW1 6629   3.949   1.722   4.123 -0.2382  0.9948 -0.6684
 1910SOL    HW2 6630   3.964   1.591   4.026 -0.8300  0.0565  0.4857
 1911SOL     OW 6631   2.412   6.022   1.187 -0.5147  0.1337 -0.0376
 1911SOL    HW1 6632   2.356   6.055   1.263 -1.6247 -1.0814 -0.2924
 1911SOL    HW2 6633   2.460   6.099   1.144 -0.9077  1.0039  1.0577
 1912SOL     OW 6634   2.258   6.891   2.032 -0.2122 -0.7106 -0.2429
 1912SOL    HW1 6635   2.220   6.845   1.951  0.0527 -1.5352  0.0948
 1912SOL    HW2 6636   2.339   6.842   2.064  0.0992  0.0124  0.1153
 1913SOL     OW 6637   0.608   2.835   0.890 -0.0362  0.1609 -0.6105
 1913SOL    HW1 6638   0.614   2.933   0.870  0.5739  0.2123 -0.2171
 1913SOL    HW2 6639   0.531   2.819   0.951 -0.2474  0.3715 -0.8182
 1914SOL     OW 6640   0.060   3.790   2.659 -0.4729  0.0382  0.1745
 1914SOL    HW1 6641   0.146   3.768   2.706  0.2118 -1.2573 -1.5766
 1914SOL    HW2 6642   0.023   3.875   2.697  1.7049  0.7821  0.8231
 1915SOL     OW 6643   4.314   6.411   5.859  0.0775  0.0506 -0.2253
 1915SOL    HW1 6644   4.349   6.505   5.856 -0.7744  0.3618 -0.5685
 1915SOL    HW2 6645   4.269   6.389   5.773 -1.3977 -0.0096  0.5210
 1916SOL     OW 6646   0.393   5.266   6.379  0.1157 -0.3260  1.1573
 1916SOL    HW1 6647   0.367   5.193   6.316  0.3250  0.4994  0.0905
 1916SOL    HW2 6648   0.473   5.314   6.343 -1.0681  1.5553  0.9371
 1917SOL     OW 6649   1.128   3.915   4.230  0.3926 -0.3524 -0.4427
 1917SOL    HW1 6650   1.071   3.866   4.164 -0.5562 -0.7478  0.6475
 1917SOL    HW2 6651   1.084   3.914   4.320  1.1948  1.0144 -0.0063
 1918SOL     OW 6652   0.190   2.239   6.019  0.0799 -0.7157 -0.2399
 1918SOL    HW1 6653   0.218   2.198   6.106  1.4504 -0.6351 -0.6134
 1918SOL    HW2 6654   0.271   2.252   5.961 -0.7901 -0.6772 -1.4909
 1919SOL     OW 6655   3.918   2.644   5.330 -0.0723 -0.2323  0.3081
 1919SOL    HW1 6656   3.934   2.741   5.310 -1.8680 -0.0215 -0.3179
 1919SOL    HW2 6657   3.967   2.588   5.264  2.4556  0.1320  1.7360
 1920SOL     OW 6658   6.331   4.307   1.740 -0.1589  0.0747  0.2711
 1920SOL    HW1 6659   6.289   4.343   1.658  0.0011 -0.0507  0.1334
 1920SOL    HW2 6660   6.431   4.314   1.733 -0.1112 -0.6500  0.1210
 1921SOL     OW 6661   6.254   1.766   1.649  0.2463 -0.6938  0.0707
 1921SOL    HW1 6662   6.288   1.746   1.741  0.9189 -2.3060 -0.4936
 1921SOL    HW2 6663   6.156   1.751   1.646 -0.1691  1.4653  1.0470
 1922SOL     OW 6664   0.313   6.672   0.062  0.0972  0.0877 -0.6568
 1922SOL    HW1 6665   0.348   6.763   0.038  1.4893 -0.1782  0.2221
 1922SOL    HW2 6666   0.266   6.632  -0.017 -3.6978  2.9269 -0.1026
 1923SOL     OW 6667   3.489   3.686   2.333 -1.0031  0.6215  0.0740
 1923SOL    HW1 6668   3.487   3.676   2.433 -0.5499 -0.8295 -0.0425
 1923SOL    HW2 6669   3.584   3.695   2.303 -0.9307 -1.3191 -0.4016
 1924SOL     OW 6670   3.277   6.276   1.042  0.4343  0.0874  0.0091
 1924SOL    HW1 6671   3.193   6.280   1.097  1.7828  2.5654  2.1287
 1924SOL    HW2 6672   3.288   6.362   0.993  0.9314 -0.8703 -1.6154
 1925SOL     OW 6673   0.974   4.409   3.151 -0.1985 -0.3826  0.6270
 1925SOL    HW1 6674   0.991   4.352   3.231 -1.2646  0.5478  1.5447
 1925SOL    HW2 6675   0.965   4.351   3.070 -1.5914 -1.5627  1.5825
 1926SOL     OW 6676   3.202   0.332   5.730 -0.4927  0.2083 -0.2187
 1926SOL    HW1 6677   3.229   0.236   5.734  2.9708  1.0871  0.6928
 1926SOL    HW2 6678   3.209   0.372   5.821 -3.2006  1.0977 -0.3173
 1927SOL     OW 6679   3.254   6.399   2.409 -0.2683  0.1382 -0.2860
 1927SOL    HW1 6680   3.321   6.372   2.340 -1.0115  1.1105 -1.4350
 1927SOL    HW2 6681   3.164   6.407   2.367 -0.3195  3.2156  0.1771
 1928SOL     OW 6682   3.806   1.431   5.611 -0.4248  0.0752  0.0412
 1928SOL    HW1 6683   3.762   1.344   5.588  0.1182 -0.3105  0.4265
 1928SOL    HW2 6684   3.797   1.447   5.709  0.3664 -0.0630  0.1459
 1929SOL     OW 6685   0.916   0.606   5.611 -0.2297 -0.3287 -0.3988
 1929SOL    HW1 6686   0.879   0.698   5.601  0.2777 -0.1579 -0.7671
 1929SOL    HW2 6687   0.852   0.539   5.572 -1.6888 -0.3833  1.9366
 1930SOL     OW 6688   3.993   6.433   3.975  0.0252 -0.0408  0.1696
 1930SOL    HW1 6689   4.003   6.334   3.968 -1.6692 -0.2021 -0.2962
 1930SOL    HW2 6690   4.039   6.465   4.057  0.8300 -1.1686  0.1875
 1931SOL     OW 6691   2.026   0.052   2.451  0.3650 -0.0488 -0.0067
 1931SOL    HW1 6692   2.050  -0.012   2.524 -0.2843  0.4393  0.6534
 1931SOL    HW2 6693   2.106   0.068   2.393  1.2377  0.4283  1.2832
 1932SOL     OW 6694   4.770   5.499   2.738  0.4995 -0.0798 -0.3644
 1932SOL    HW1 6695   4.717   5.580   2.711  2.1055  1.5766  1.2180
 1932SOL    HW2 6696   4.863   5.526   2.762  0.5506 -2.0748  2.1262
 1933SOL     OW 6697   0.800   1.234   1.737 -0.1067  0.0378  0.5174
 1933SOL    HW1 6698   0.799   1.191   1.646 -0.9393 -0.0224  0.5456
 1933SOL    HW2 6699   0.706   1.247   1.768  0.1456  1.1597  0.8569
 1934SOL     OW 6700   3.437   1.212   0.552 -0.0146  0.7097  0.4263
 1934SOL    HW1 6701   3.465   1.137   0.612 -0.7218  0.6009  0.6317
 1934SOL    HW2 6702   3.503   1.222   0.478 -0.2651 -0.5762 -0.0020
 1935SOL     OW 6703   3.151   4.055   5.300 -0.4187 -0.0711 -0.2597
 1935SOL    HW1 6704   3.061   4.097   5.304  0.2563  1.4635 -0.4031
 1935SOL    HW2 6705   3.166   3.999   5.381 -1.0063  0.7007  0.3965
 1936SOL     OW 6706   0.232   1.352   2.650  0.1346  0.3157 -0.0204
 1936SOL    HW1 6707   0.307   1.287   2.639 -2.0248 -2.0201 -2.2866
 1936SOL    HW2 6708   0.196   1.377   2.560 -2.1552  0.8514  0.9741
 1937SOL     OW 6709   3.887   2.966   4.572 -0.3545  0.3684 -0.4265
 1937SOL    HW1 6710   3.859   2.873   4.548 -2.4954  1.0141 -0.6336
 1937SOL    HW2 6711   3.877   2.978   4.671 -2.7512  1.1253 -0.6897
 1938SOL     OW 6712   1.272   6.175   5.433  0.1017 -0.0356 -0.5360
 1938SOL    HW1 6713   1.213   6.256   5.438 -0.6640 -0.5045 -1.4717
 1938SOL    HW2 6714   1.319   6.174   5.345 -0.0529 -0.6946 -0.6185
 1939SOL     OW 6715   4.666   3.005   5.358  0.0831 -0.1287  0.0480
 1939SOL    HW1 6716   4.710   3.094   5.372  1.4227 -0.6360 -0.7606
 1939SOL    HW2 6717   4.580   3.002   5.410 -0.4464  1.9448 -0.6044
 1940SOL     OW 6718   0.409   0.694   3.866 -0.1428 -0.2939  0.0754
 1940SOL    HW1 6719   0.451   0.623   3.922 -1.2169 -0.8701  0.1591
 1940SOL    HW2 6720   0.474   0.722   3.795  0.1370 -1.7051 -0.2596
 1941SOL     OW 6721   4.951   5.278   3.483  0.2342  0.7263  0.0082
 1941SOL    HW1 6722   4.889   5.244   3.553 -1.7089  0.1104 -1.9166
 1941SOL    HW2 6723   4.937   5.227   3.398 -0.6533  4.2140 -2.1547
 1942SOL     OW 6724   3.841   1.431   1.159  0.2542  0.0038  0.2650
 1942SOL    HW1 6725   3.928   1.392   1.190 -0.1085 -0.3997  0.8083
 1942SOL    HW2 6726   3.855   1.526   1.131  0.8141  0.0374  0.6365
 1943SOL     OW 6727   1.427   3.165   2.544 -0.2698  0.4779 -0.2806
 1943SOL    HW1 6728   1.358   3.098   2.515 -1.4829  1.9648 -0.9553
 1943SOL    HW2 6729   1.514   3.145   2.498 -0.9746  0.1563 -1.5252
 1944SOL     OW 6730   5.470   4.520   1.709  0.3704 -0.4565  0.2611
 1944SOL    HW1 6731   5.515   4.598   1.751 -1.3709  1.2572 -0.8852
 1944SOL    HW2 6732   5.388   4.497   1.761 -0.2926 -0.0897 -0.5811
 1945SOL     OW 6733   6.048   4.160   3.101 -0.3865 -0.1154 -0.0038
 1945SOL    HW1 6734   6.085   4.241   3.146  0.3491  0.2311 -1.1694
 1945SOL    HW2 6735   6.044   4.176   3.002  0.4105 -1.7354 -0.3306
 1946SOL     OW 6736   1.674   4.763   1.933 -0.5191 -0.3291  0.2003
 1946SOL    HW1 6737   1.623   4.700   1.873  0.5969 -1.2923  0.2238
 1946SOL    HW2 6738   1.728   4.710   1.998  0.2987  0.6704  0.3553
 1947SOL     OW 6739   0.595   2.739   5.019  0.4912 -0.0238 -0.8292
 1947SOL    HW1 6740   0.641   2.800   4.955  2.1158  2.9631  2.8108
 1947SOL    HW2 6741   0.654   2.722   5.098 -2.9092  0.4377  2.0919
 1948SOL     OW 6742   2.448   1.531   5.137  0.2704  0.0067  0.2212
 1948SOL    HW1 6743   2.517   1.463   5.162 -1.2324 -0.9520  2.0081
 1948SOL    HW2 6744   2.449   1.606   5.203 -0.0426  0.2533 -0.0482
 1949SOL     OW 6745   6.776   5.982   6.912 -0.0455  0.2281  0.0165
 1949SOL    HW1 6746   6.718   5.982   6.994  1.0889  0.9007  0.8554
 1949SOL    HW2 6747   6.857   6.039   6.929  0.6129 -0.2803 -1.2958
 1950SOL     OW 6748   2.761   6.859   2.565 -0.1883  0.9795  0.4139
 1950SOL    HW1 6749   2.754   6.953   2.597 -1.4721  1.5094 -1.2802
 1950SOL    HW2 6750   2.769   6.797   2.643 -0.1893  2.4158  1.5836
 1951SOL     OW 6751   6.476   0.440   2.654 -0.1245 -0.4476 -0.5577
 1951SOL    HW1 6752   6.543   0.367   2.636  0.2912 -0.2720  0.2234
 1951SOL    HW2 6753   6.406   0.440   2.583  1.0023 -0.2992 -1.7066
 1952SOL     OW 6754   2.366   6.010   2.843  0.3971  0.3838  0.2507
 1952SOL    HW1 6755   2.364   6.053   2.933  1.1203  0.2704  0.3300
 1952SOL    HW2 6756   2.299   5.937   2.839 -1.6431  2.1876 -0.2412
 1953SOL     OW 6757   5.383   3.773   0.431 -0.0944 -0.4141  0.0121
 1953SOL    HW1 6758   5.349   3.711   0.360  0.8533  0.9411 -1.7205
 1953SOL    HW2 6759   5.387   3.725   0.518 -3.6188 -1.4809 -0.2360
 1954SOL     OW 6760   5.956   6.540   2.963 -0.1808 -0.3404 -0.0718
 1954SOL    HW1 6761   5.875   6.592   2.938  0.2485  0.4216  0.0750
 1954SOL    HW2 6762   5.980   6.476   2.889 -0.5265 -0.0965 -0.3947
 1955SOL     OW 6763   5.102   6.733   6.700  0.8832  0.3072  0.2698
 1955SOL    HW1 6764   5.158   6.738   6.617  1.9846 -2.7211  0.6960
 1955SOL    HW2 6765   5.031   6.664   6.688  0.3844  0.5884  1.4797
 1956SOL     OW 6766   5.602   5.549   5.487  0.4355  0.5649 -0.5735
 1956SOL    HW1 6767   5.645   5.606   5.556  0.4333 -0.2971  0.1562
 1956SOL    HW2 6768   5.631   5.579   5.396  1.1128  1.1585 -0.1695
 1957SOL     OW 6769   3.100   0.647   0.680  0.4855 -0.0850 -0.0416
 1957SOL    HW1 6770   3.002   0.669   0.682  0.2626 -0.9901 -0.4609
 1957SOL    HW2 6771   3.149   0.719   0.631  0.0727  0.5051  0.3945
 1958SOL     OW 6772   1.684   2.333   1.170  0.1733  0.0978 -0.1158
 1958SOL    HW1 6773   1.602   2.321   1.226 -0.0670 -1.1996 -0.7214
 1958SOL    HW2 6774   1.763   2.291   1.216  0.0591 -0.5869 -0.5257
 1959SOL     OW 6775   6.782   3.797   5.622  0.3646 -0.1005  0.2057
 1959SOL    HW1 6776   6.741   3.722   5.674 -2.1870  0.7603 -0.4326
 1959SOL    HW2 6777   6.723   3.821   5.545  1.4013  2.1914  0.0395
 1960SOL     OW 6778   5.450   5.223   4.968 -0.0913  0.4196 -0.3608
 1960SOL    HW1 6779   5.442   5.296   4.899  0.1928 -0.0090 -0.8509
 1960SOL    HW2 6780   5.544   5.187   4.968  0.5488  1.8606  1.7336
 1961SOL     OW 6781   4.515   4.474   2.204 -0.0056 -0.3974  0.6686
 1961SOL    HW1 6782   4.531   4.411   2.128 -1.8417 -0.2047  0.0807
 1961SOL    HW2 6783   4.470   4.426   2.279 -1.7948  0.2440  0.0590
 1962SOL     OW 6784   2.862   4.838   1.212  0.6593 -0.4326  0.8162
 1962SOL    HW1 6785   2.938   4.804   1.268  1.2323 -0.3856  0.0920
 1962SOL    HW2 6786   2.820   4.761   1.162  1.1873 -0.2686  0.0952
 1963SOL     OW 6787   0.417   1.765   0.611 -0.0386 -0.1087 -0.5099
 1963SOL    HW1 6788   0.337   1.731   0.659 -0.3323  0.4949 -0.5598
 1963SOL    HW2 6789   0.391   1.796   0.520  0.0349  1.0671 -0.1534
 1964SOL     OW 6790   4.499   4.919   3.123  0.5282  0.3816  0.2679
 1964SOL    HW1 6791   4.449   4.918   3.210  2.0952  0.3002  1.2089
 1964SOL    HW2 6792   4.534   5.011   3.105  0.7986  0.2473  0.0848
 1965SOL     OW 6793   0.360   2.658   0.946  0.4600 -0.2027  0.7165
 1965SOL    HW1 6794   0.327   2.748   0.974  1.8948  0.1949  1.1950
 1965SOL    HW2 6795   0.438   2.632   1.002  1.1227 -1.0083 -0.5365
 1966SOL     OW 6796   6.204   1.437   0.940 -0.6357  0.0661 -0.1122
 1966SOL    HW1 6797   6.153   1.502   0.884 -0.1470  0.6258  0.0805
 1966SOL    HW2 6798   6.192   1.344   0.904 -2.4727  0.0587  0.4331
 1967SOL     OW 6799   4.968   4.826   6.367  0.1773 -0.6614 -0.0108
 1967SOL    HW1 6800   4.877   4.867   6.357 -0.3028 -1.5126  0.6844
 1967SOL    HW2 6801   5.021   4.841   6.284  0.2004  1.7217  0.3558
 1968SOL     OW 6802   6.949   1.992   6.734  0.2267 -0.2425  0.5675
 1968SOL    HW1 6803   6.930   2.060   6.663 -0.5002  0.0203  1.0023
 1968SOL    HW2 6804   7.007   2.033   6.804 -0.2798 -0.0307  0.8721
 1969SOL     OW 6805   0.188   1.819   5.180  0.1453  0.0165 -0.5176
 1969SOL    HW1 6806   0.163   1.820   5.083 -1.0458  1.3810 -0.2385
 1969SOL    HW2 6807   0.246   1.898   5.200  0.1723 -0.1122 -0.0795
 1970SOL     OW 6808   5.467   2.684   2.046  0.2472 -0.0694 -0.1915
 1970SOL    HW1 6809   5.391   2.628   2.014 -0.8853 -0.1130  2.3500
 1970SOL    HW2 6810   5.542   2.625   2.076  0.0672 -0.1391  0.1246
 1971SOL     OW 6811   5.649   4.255   4.043  0.7223 -0.1822  0.4056
 1971SOL    HW1 6812   5.713   4.326   4.073  1.6869 -0.4457 -0.9368
 1971SOL    HW2 6813   5.556   4.281   4.067  1.3218  0.1505  2.5352
 1972SOL     OW 6814   2.321   7.012   6.203 -0.4307 -0.2233 -0.1880
 1972SOL    HW1 6815   2.275   6.930   6.167  0.0539 -0.7762  0.4362
 1972SOL    HW2 6816   2.413   7.018   6.165  0.6446 -1.6313  2.0216
 1973SOL     OW 6817   3.830   4.436   6.884 -0.5618 -0.3991 -0.2952
 1973SOL    HW1 6818   3.872   4.524   6.901 -0.6010  0.3522 -3.4060
 1973SOL    HW2 6819   3.748   4.449   6.827 -1.8015 -2.2958  0.9339
 1974SOL     OW 6820   3.803   3.008   2.378  0.2799  0.0842  0.1398
 1974SOL    HW1 6821   3.886   3.051   2.343 -0.1064  0.2632 -0.5900
 1974SOL    HW2 6822   3.754   3.072   2.437 -1.0035  1.2303 -2.0329
 1975SOL     OW 6823   1.838   1.846   3.538 -0.0442  0.3197 -0.6348
 1975SOL    HW1 6824   1.835   1.945   3.554 -1.3014  0.1266  0.5546
 1975SOL    HW2 6825   1.840   1.828   3.440  2.2109  1.5314 -0.8703
 1976SOL     OW 6826   4.950   1.230   3.062  0.0353 -0.2022  0.9094
 1976SOL    HW1 6827   4.908   1.160   3.120 -2.8238  0.7446  0.1929
 1976SOL    HW2 6828   5.006   1.186   2.992 -0.9019 -1.7309  1.0639
 1977SOL     OW 6829   3.400   5.213   4.475  0.1071 -0.0385 -0.2580
 1977SOL    HW1 6830   3.327   5.242   4.414  0.3188 -0.2792 -0.6276
 1977SOL    HW2 6831   3.383   5.119   4.504  1.4628 -0.9510 -2.2053
 1978SOL     OW 6832   1.541   5.691   0.429  0.6268 -0.0120  0.0174
 1978SOL    HW1 6833   1.563   5.732   0.517 -0.7348  1.2111 -0.1630
 1978SOL    HW2 6834   1.593   5.737   0.357 -0.0748  0.6729 -0.0638
 1979SOL     OW 6835   2.271   5.078   2.003  0.1952 -0.0737  0.4262
 1979SOL    HW1 6836   2.309   4.986   1.998  1.8450  0.6364 -2.0692
 1979SOL    HW2 6837   2.173   5.076   1.981  0.4200 -1.1273 -0.5127
 1980SOL     OW 6838   1.380   5.408   1.631  0.0821  0.2844 -0.2559
 1980SOL    HW1 6839   1.445   5.484   1.622 -1.2917  1.6345  0.7798
 1980SOL    HW2 6840   1.360   5.371   1.541 -0.3386  2.1332 -0.9597
 1981SOL     OW 6841   6.427   4.229   0.517  0.6767 -0.0704 -0.0236
 1981SOL    HW1 6842   6.403   4.148   0.571  0.9694  0.3190  0.7159
 1981SOL    HW2 6843   6.482   4.202   0.439  0.1024 -0.6700 -0.2257
 1982SOL     OW 6844   3.547   4.957   4.473  0.6635  0.0834 -0.5018
 1982SOL    HW1 6845   3.631   4.990   4.429  1.9287 -1.6684  0.4992
 1982SOL    HW2 6846   3.564   4.940   4.570 -0.8970 -0.2137 -0.2489
 1983SOL     OW 6847   2.770   0.169   5.603 -0.2324  0.3372 -0.1471
 1983SOL    HW1 6848   2.833   0.247   5.606 -1.0472  1.0518 -0.8673
 1983SOL    HW2 6849   2.713   0.176   5.521 -0.7684 -0.6739  0.1251
 1984SOL     OW 6850   0.994   4.553   5.655 -0.1729  0.2495  0.0848
 1984SOL    HW1 6851   0.974   4.629   5.594  0.2512 -0.7559 -1.3488
 1984SOL    HW2 6852   0.948   4.470   5.623 -0.4499 -0.1751  1.4875
 1985SOL     OW 6853   5.808   0.473   1.592  0.3999 -0.4612 -0.1618
 1985SOL    HW1 6854   5.902   0.479   1.627  0.2385  2.5593  0.0273
 1985SOL    HW2 6855   5.745   0.467   1.668  0.3571 -0.8534 -0.2270
 1986SOL     OW 6856   6.839   2.835   6.386  0.0533  0.1791  0.4863
 1986SOL    HW1 6857   6.760   2.887   6.420 -0.0373 -0.1296  0.7532
 1986SOL    HW2 6858   6.843   2.843   6.286 -1.9244 -1.9782  0.1430
 1987SOL     OW 6859   4.169   1.299   6.507  0.3187  0.4577  0.2870
 1987SOL    HW1 6860   4.207   1.236   6.439 -0.1668 -0.3922  0.7744
 1987SOL    HW2 6861   4.091   1.348   6.468 -0.0113 -0.0897  0.2505
 1988SOL     OW 6862   4.459   0.361   5.012  0.0278 -0.5574  0.7639
 1988SOL    HW1 6863   4.424   0.381   5.104  0.4463  3.8664  0.1708
 1988SOL    HW2 6864   4.442   0.439   4.952  2.2957 -2.1324 -2.2071
 1989SOL     OW 6865   5.459   4.713   2.044 -0.0218 -0.2080 -0.1873
 1989SOL    HW1 6866   5.554   4.741   2.041  0.1263 -0.6588  0.1344
 1989SOL    HW2 6867   5.400   4.794   2.054  0.4898 -0.0778  2.6196
 1990SOL     OW 6868   0.636   3.506   0.200 -0.1543 -0.0895 -0.0611
 1990SOL    HW1 6869   0.709   3.570   0.226  0.5280 -0.6186 -0.6251
 1990SOL    HW2 6870   0.553   3.557   0.177  0.9112  0.7668 -2.3462
 1991SOL     OW 6871   1.081   4.408   3.734 -0.1096  0.6012  0.3024
 1991SOL    HW1 6872   1.084   4.506   3.749 -0.4606  0.4554  1.4838
 1991SOL    HW2 6873   0.993   4.382   3.694  0.2534  0.8356 -0.6666
 1992SOL     OW 6874   1.718   1.253   1.842 -0.3681  0.6384 -0.0959
 1992SOL    HW1 6875   1.638   1.213   1.798 -0.5617 -0.1317  0.9038
 1992SOL    HW2 6876   1.768   1.309   1.777 -1.5891  0.9351 -0.8011
 1993SOL     OW 6877   5.245   3.407   6.327  0.1877  0.6283 -0.3711
 1993SOL    HW1 6878   5.294   3.493   6.342 -2.2620  1.9298  0.6591
 1993SOL    HW2 6879   5.172   3.398   6.395 -0.1822 -1.8563 -1.0249
 1994SOL     OW 6880   0.421   4.421   2.591 -0.2328  0.5172  0.2199
 1994SOL    HW1 6881   0.363   4.432   2.510 -0.0714 -0.4523 -0.0432
 1994SOL    HW2 6882   0.401   4.333   2.635 -0.1805  0.9435  1.1293
 1995SOL     OW 6883   0.036   4.046   4.581 -0.5638 -0.0256  0.0672
 1995SOL    HW1 6884  -0.049   4.098   4.588 -0.5702  0.1797 -1.1777
 1995SOL    HW2 6885   0.108   4.090   4.634 -0.7110  0.9780 -0.5396
 1996SOL     OW 6886   1.999   1.806   6.185 -0.5251  0.3051  0.2878
 1996SOL    HW1 6887   1.963   1.801   6.092  0.0279 -0.0980  0.0829
 1996SOL    HW2 6888   2.016   1.901   6.210  0.9937  0.3400 -0.7091
 1997SOL     OW 6889   1.192   3.701   3.817 -0.7077 -0.3419 -0.5904
 1997SOL    HW1 6890   1.137   3.739   3.892 -0.3558 -0.0115 -0.4953
 1997SOL    HW2 6891   1.199   3.602   3.829 -0.1371 -0.2248  0.1751
 1998SOL     OW 6892   3.764   5.210   6.550 -0.3457 -0.2664  0.1813
 1998SOL    HW1 6893   3.687   5.267   6.522 -0.5808 -0.0528  1.2190
 1998SOL    HW2 6894   3.763   5.125   6.496  0.4662  0.9852 -1.9358
 1999SOL     OW 6895   5.940   2.143   6.457  0.2232  0.3088  0.1285
 1999SOL    HW1 6896   5.949   2.044   6.442  0.2057 -0.0092  1.9879
 1999SOL    HW2 6897   5.868   2.159   6.524  0.5872  1.5739  0.2314
 2000SOL     OW 6898   6.425   4.023   6.583 -0.0555  0.2592  0.1215
 2000SOL    HW1 6899   6.483   4.015   6.664 -0.5313  0.4679  0.4914
 2000SOL    HW2 6900   6.475   4.072   6.511 -0.2047  1.5599  0.8728
 2001SOL     OW 6901   1.921   5.563   2.964 -0.3807 -0.3144 -0.1055
 2001SOL    HW1 6902   1.879   5.529   2.880  1.5804 -0.8465 -0.9284
 2001SOL    HW2 6903   1.863   5.634   3.004 -2.6712 -1.8915 -0.4320
 2002SOL     OW 6904   1.836   6.830   1.234 -0.4632 -0.3181 -0.1562
 2002SOL    HW1 6905   1.825   6.913   1.289 -0.6933 -0.9550  0.7818
 2002SOL    HW2 6906   1.931   6.800   1.239 -0.5387 -0.5174  0.1106
 2003SOL     OW 6907   1.570   1.688   2.259  0.5435  0.0914 -0.1897
 2003SOL    HW1 6908   1.592   1.719   2.352 -0.3332  2.6017 -0.7646
 2003SOL    HW2 6909   1.640   1.622   2.229  1.2323 -0.2400  1.9535
 2004SOL     OW 6910   0.505   5.035   5.319  0.2886 -0.5832  0.3828
 2004SOL    HW1 6911   0.583   4.974   5.309  0.1405 -0.8902  1.0753
 2004SOL    HW2 6912   0.432   5.005   5.258  0.7560 -0.1974 -0.3908
 2005SOL     OW 6913   3.398   3.480   6.176 -0.2229  0.2086 -0.3439
 2005SOL    HW1 6914   3.394   3.580   6.186 -0.3701  0.2405 -0.7161
 2005SOL    HW2 6915   3.494   3.451   6.171 -0.1912  0.4163 -1.0555
 2006SOL     OW 6916   2.228   4.075   5.829  0.1552  0.0842 -0.5895
 2006SOL    HW1 6917   2.180   4.023   5.759  0.5002  2.4338 -2.6906
 2006SOL    HW2 6918   2.161   4.117   5.890 -0.2763  0.1626 -1.1076
 2007SOL     OW 6919   3.875   0.561   3.823 -0.7893  0.2568 -0.0703
 2007SOL    HW1 6920   3.851   0.496   3.751 -1.0257 -0.4247  0.6072
 2007SOL    HW2 6921   3.954   0.526   3.874 -2.4704 -0.8326  1.9509
 2008SOL     OW 6922   5.688   0.892   5.304  0.1004 -0.1915  0.7982
 2008SOL    HW1 6923   5.771   0.931   5.265 -0.3178  0.6733  0.7386
 2008SOL    HW2 6924   5.711   0.838   5.385  0.9150 -1.5047 -0.2589
 2009SOL     OW 6925   4.455   6.897   3.762  0.1568  0.4492  0.2375
 2009SOL    HW1 6926   4.473   6.828   3.832 -2.7742 -0.1845  0.5041
 2009SOL    HW2 6927   4.479   6.860   3.672  0.5296 -0.1332  0.5698
 2010SOL     OW 6928   6.024   1.178   6.650 -0.1926  0.1453 -0.5154
 2010SOL    HW1 6929   6.100   1.194   6.587 -0.9233  1.3942 -1.1391
 2010SOL    HW2 6930   5.971   1.098   6.619  1.9166 -1.9544  1.0223
 2011SOL     OW 6931   0.193   0.531   3.140  0.2342 -0.5732 -0.6380
 2011SOL    HW1 6932   0.117   0.481   3.181 -1.3826  1.7933 -0.5888
 2011SOL    HW2 6933   0.159   0.615   3.099  2.9660  1.0081  0.1318
 2012SOL     OW 6934   2.747   1.757   0.097 -0.1993  0.2926  0.5952
 2012SOL    HW1 6935   2.847   1.767   0.093 -0.1382 -0.3894  0.1150
 2012SOL    HW2 6936   2.707   1.839   0.136  0.6112  0.2614  1.5334
 2013SOL     OW 6937   1.622   5.454   2.301  0.4156  0.1673 -0.2174
 2013SOL    HW1 6938   1.545   5.486   2.358  0.7441  0.5288  0.0311
 2013SOL    HW2 6939   1.587   5.396   2.228  0.0884 -1.2860  1.0353
 2014SOL     OW 6940   1.611   4.052   2.766 -0.0431 -0.5390 -0.3011
 2014SOL    HW1 6941   1.659   4.014   2.845 -1.4167 -0.5596  0.5623
 2014SOL    HW2 6942   1.677   4.090   2.702  1.0576  0.7640  1.5058
 2015SOL     OW 6943   3.981   1.524   0.714 -0.6190  0.1710  0.1819
 2015SOL    HW1 6944   4.072   1.536   0.675 -0.7851 -1.3313 -0.7730
 2015SOL    HW2 6945   3.915   1.577   0.661 -0.5462 -0.2128 -0.3056
 2016SOL     OW 6946   5.154   3.795   5.579  0.0730  0.0675  0.4402
 2016SOL    HW1 6947   5.101   3.712   5.559 -0.2097  0.6833 -1.5370
 2016SOL    HW2 6948   5.123   3.870   5.520  2.4263  0.7406 -0.0565
 2017SOL     OW 6949   2.300   0.251   6.303  0.5858 -0.1873  0.0230
 2017SOL    HW1 6950   2.220   0.274   6.358 -1.2223 -0.8282 -2.2248
 2017SOL    HW2 6951   2.283   0.166   6.253  2.6347 -0.2707 -0.6360
 2018SOL     OW 6952   3.887   1.723   1.111  0.2379  0.3261  0.4261
 2018SOL    HW1 6953   3.819   1.770   1.055  0.1907 -2.7550 -2.3586
 2018SOL    HW2 6954   3.977   1.732   1.069  0.5426 -0.4422  0.8982
 2019SOL     OW 6955   0.871   4.297   3.608  0.6195 -0.1666  0.5616
 2019SOL    HW1 6956   0.793   4.324   3.550 -1.9854  0.6213  4.1018
 2019SOL    HW2 6957   0.874   4.197   3.616 -1.5238 -0.1789  2.0631
 2020SOL     OW 6958   1.260   4.907   2.004  0.8233  0.6445  0.6738
 2020SOL    HW1 6959   1.258   4.949   1.914  2.1261 -0.3173  0.1646
 2020SOL    HW2 6960   1.169   4.877   2.030  1.0880 -5.2890 -3.3837
 2021SOL     OW 6961   6.879   0.001   5.366 -0.2009  0.5385 -0.0643
 2021SOL    HW1 6962   6.916  -0.020   5.275 -1.5323  0.2236 -0.5561
 2021SOL    HW2 6963   6.838  -0.081   5.405 -0.3536  0.8710  0.4838
 2022SOL     OW 6964   6.468   0.103   1.574 -0.6056 -0.5034 -0.1054
 2022SOL    HW1 6965   6.537   0.065   1.512 -3.3370 -2.2785 -2.3502
 2022SOL    HW2 6966   6.480   0.063   1.665  0.5094 -1.8180 -0.7812
 2023SOL     OW 6967   0.686   5.729   4.314 -0.0084 -0.0056  0.1065
 2023SOL    HW1 6968   0.690   5.807   4.377  1.5080 -0.7365  0.9840
 2023SOL    HW2 6969   0.606   5.672   4.336 -0.8393  1.0014 -0.2193
 2024SOL     OW 6970   2.863   0.774   4.960 -0.4673 -0.5506  0.1639
 2024SOL    HW1 6971   2.831   0.696   5.014 -0.4230 -1.2490 -0.8072
 2024SOL    HW2 6972   2.784   0.820   4.918 -0.5072  0.0302  0.8527
 2025SOL     OW 6973   2.294   2.880   4.820 -0.1380 -0.1020 -0.0999
 2025SOL    HW1 6974   2.198   2.909   4.817 -0.8102 -1.4784  3.5312
 2025SOL    HW2 6975   2.338   2.920   4.900  1.3323 -2.1430  0.1860
 2026SOL     OW 6976   6.436   4.272   5.739  0.3196  0.3080 -0.1297
 2026SOL    HW1 6977   6.481   4.360   5.721  0.1761  0.6529  1.1008
 2026SOL    HW2 6978   6.353   4.288   5.793  0.4724 -0.6159  0.3919
 2027SOL     OW 6979   0.204   1.140   3.883  0.1329 -0.1400  0.0164
 2027SOL    HW1 6980   0.250   1.068   3.934  0.3348 -0.1136 -0.1270
 2027SOL    HW2 6981   0.263   1.221   3.878  0.8089 -0.6769 -1.6253
 2028SOL     OW 6982   6.069   1.358   3.120  0.0261  0.4484  0.0944
 2028SOL    HW1 6983   6.101   1.387   3.030  0.7424  1.1482  0.5608
 2028SOL    HW2 6984   5.990   1.297   3.109 -0.6219  1.4212 -0.9788
 2029SOL     OW 6985   2.336   1.943   2.257 -0.4421 -0.3213  0.3544
 2029SOL    HW1 6986   2.378   1.985   2.338 -0.1093  1.3151 -0.6383
 2029SOL    HW2 6987   2.301   2.014   2.196  1.6715 -1.3397 -2.2196
 2030SOL     OW 6988   0.792   2.923   0.573  0.4391 -0.3368 -0.1686
 2030SOL    HW1 6989   0.785   2.833   0.615 -0.4221 -0.5760 -0.7803
 2030SOL    HW2 6990   0.719   2.981   0.608  1.1786  0.2284  0.4550
 2031SOL     OW 6991   4.575   1.910   6.182  0.4159  0.5260  0.1914
 2031SOL    HW1 6992   4.622   1.914   6.271  0.9597  0.9009 -0.1041
 2031SOL    HW2 6993   4.514   1.989   6.173  0.8938  0.8745 -0.0513
 2032SOL     OW 6994   2.702   5.882   4.910 -0.7933 -0.1734 -0.1662
 2032SOL    HW1 6995   2.791   5.908   4.949  0.2844 -2.2894 -1.0237
 2032SOL    HW2 6996   2.634   5.876   4.982 -0.1917  1.2269  0.5555
 2033SOL     OW 6997   2.237   3.118   0.310  0.7094  0.5095 -0.0417
 2033SOL    HW1 6998   2.244   3.195   0.246  1.6843 -0.8130 -1.5962
 2033SOL    HW2 6999   2.325   3.105   0.356  0.4063  0.6037  0.5759
 2034SOL     OW 7000   6.151   5.173   2.333 -0.2681 -0.9445  0.2170
 2034SOL    HW1 7001   6.067   5.191   2.385 -1.5809 -0.8737 -1.7874
 2034SOL    HW2 7002   6.183   5.080   2.352 -0.4308 -0.7619  1.4662
 2035SOL     OW 7003   1.494   6.863   2.063 -0.2375 -0.9479  0.8668
 2035SOL    HW1 7004   1.588   6.850   2.095  0.4877 -0.0003 -0.7971
 2035SOL    HW2 7005   1.486   6.834   1.968 -1.4506 -0.2839  0.7403
 2036SOL     OW 7006   3.408   0.541   0.766  0.1516 -0.2771 -0.1045
 2036SOL    HW1 7007   3.334   0.483   0.730  0.0632 -0.6684  0.6684
 2036SOL    HW2 7008   3.413   0.625   0.713  0.5702 -1.1702 -1.5484
 2037SOL     OW 7009   6.377   4.500   0.525  0.2876  0.2949  0.0460
 2037SOL    HW1 7010   6.353   4.403   0.530 -0.2990  0.5010  2.3804
 2037SOL    HW2 7011   6.371   4.531   0.430 -2.6746 -1.2021 -0.3793
 2038SOL     OW 7012   6.082   6.730   4.397  0.0942  0.0570  0.5541
 2038SOL    HW1 7013   6.004   6.777   4.357 -0.5430 -0.2603  1.3876
 2038SOL    HW2 7014   6.164   6.787   4.389 -0.3018  0.5614  0.0289
 2039SOL     OW 7015   6.954   0.216   6.569  0.1771  0.6028  0.1133
 2039SOL    HW1 7016   7.022   0.183   6.634  0.9444 -0.0596 -0.9915
 2039SOL    HW2 7017   6.967   0.314   6.554  2.9090 -0.0088 -2.3055
 2040SOL     OW 7018   4.880   4.046   1.424  0.2797  0.5000 -0.1939
 2040SOL    HW1 7019   4.918   4.137   1.405  2.4393 -0.2528  0.2804
 2040SOL    HW2 7020   4.859   4.039   1.522  2.1857 -0.1828  0.2107
 2041SOL     OW 7021   1.316   5.098   4.214 -0.4778  0.1399  0.3646
 2041SOL    HW1 7022   1.240   5.149   4.173 -1.0538 -0.0883  1.1183
 2041SOL    HW2 7023   1.393   5.096   4.151 -1.1756  0.1959 -0.5094
 2042SOL     OW 7024   4.425   5.765   6.354  0.3547  0.0367  0.2152
 2042SOL    HW1 7025   4.352   5.787   6.289  1.7165  0.4849 -1.2162
 2042SOL    HW2 7026   4.397   5.794   6.446 -1.1472  0.4482 -0.3394
 2043SOL     OW 7027   2.194   3.483   6.881 -0.2307  0.3718  0.1668
 2043SOL    HW1 7028   2.176   3.409   6.816  0.8295  0.4254 -0.1968
 2043SOL    HW2 7029   2.116   3.491   6.944  0.0946 -1.8147  0.9518
 2044SOL     OW 7030   2.169   4.786   4.325 -0.2894 -0.7317 -0.8680
 2044SOL    HW1 7031   2.209   4.705   4.281  1.6473  0.9474 -2.4067
 2044SOL    HW2 7032   2.238   4.830   4.382 -1.2357 -0.0152 -0.2611
 2045SOL     OW 7033   1.082   3.177   5.761  0.0375  0.2150  0.0242
 2045SOL    HW1 7034   1.175   3.156   5.794 -0.1273  0.8686  0.9540
 2045SOL    HW2 7035   1.088   3.243   5.687  0.3907 -0.8911 -0.9581
 2046SOL     OW 7036   4.561   5.717   2.640  0.0878 -0.6976  0.6516
 2046SOL    HW1 7037   4.520   5.806   2.659  1.5054  0.2471 -0.5037
 2046SOL    HW2 7038   4.563   5.701   2.541  2.0886 -0.8734  0.6820
 2047SOL     OW 7039   2.119   5.886   5.138  0.1354 -0.1263 -0.3064
 2047SOL    HW1 7040   2.098   5.882   5.236 -0.2288  1.0395 -0.3233
 2047SOL    HW2 7041   2.158   5.798   5.109  0.0444 -0.5640  0.8296
 2048SOL     OW 7042   0.983   5.468   4.657  0.1619  0.3906 -0.0406
 2048SOL    HW1 7043   0.924   5.446   4.734 -0.2647  0.1872 -0.4213
 2048SOL    HW2 7044   0.932   5.457   4.572  1.1638 -1.2753 -0.4789
 2049SOL     OW 7045   3.598   0.296   6.238  0.2934 -0.1768 -0.0597
 2049SOL    HW1 7046   3.628   0.352   6.160 -0.6771  0.9281  0.3417
 2049SOL    HW2 7047   3.500   0.310   6.254 -0.3724 -3.1164 -0.8646
 2050SOL     OW 7048   1.854   6.618   6.677 -0.3022  0.1114 -0.2487
 2050SOL    HW1 7049   1.848   6.597   6.774  0.5059 -0.5774 -0.3432
 2050SOL    HW2 7050   1.939   6.580   6.639  0.8414  2.7780 -0.6044
 2051SOL     OW 7051   1.757   4.647   2.600  0.1290 -0.2263  0.1234
 2051SOL    HW1 7052   1.828   4.712   2.574  1.7335 -2.1781 -0.6495
 2051SOL    HW2 7053   1.769   4.622   2.697 -0.3049  0.3783  0.3389
 2052SOL     OW 7054   5.582   1.454   6.741 -0.1501  0.9247  0.6216
 2052SOL    HW1 7055   5.589   1.500   6.830  2.5658 -2.1915  2.2182
 2052SOL    HW2 7056   5.497   1.401   6.737  0.6753 -0.6340  2.3760
 2053SOL     OW 7057   1.735   5.226   6.132  0.0604 -0.9527  0.0373
 2053SOL    HW1 7058   1.638   5.207   6.145 -0.6656  0.9333 -1.9997
 2053SOL    HW2 7059   1.786   5.140   6.129 -1.6853 -2.0316  0.0893
 2054SOL     OW 7060   6.979   1.613   1.386  0.3566 -0.1527 -0.0671
 2054SOL    HW1 7061   7.078   1.601   1.383  0.2073 -1.2488 -1.6721
 2054SOL    HW2 7062   6.937   1.534   1.432  0.2056  0.2238  0.4502
 2055SOL     OW 7063   0.028   0.535   2.576 -0.2262 -0.5695 -0.3993
 2055SOL    HW1 7064   0.078   0.460   2.534 -1.2922 -2.8271  2.0667
 2055SOL    HW2 7065  -0.069   0.511   2.583 -0.6887  1.2401  0.0805
 2056SOL     OW 7066   4.811   2.317   6.939 -0.7935  0.0383  0.6374
 2056SOL    HW1 7067   4.713   2.333   6.928 -0.7594  0.8663  1.4777
 2056SOL    HW2 7068   4.861   2.404   6.932  0.0079 -0.4891 -0.8678
 2057SOL     OW 7069   1.785   5.015   3.275 -0.7488 -0.3314  0.1996
 2057SOL    HW1 7070   1.856   4.956   3.237 -1.0038 -0.6002  0.1306
 2057SOL    HW2 7071   1.786   5.008   3.375 -0.9045 -0.6071  0.1834
 2058SOL     OW 7072   4.701   6.628   0.543  0.0921  0.3798 -0.0781
 2058SOL    HW1 7073   4.617   6.627   0.488  0.0162 -1.6325  0.0117
 2058SOL    HW2 7074   4.771   6.572   0.498  1.3623  1.8884 -0.0643
 2059SOL     OW 7075   0.848   6.117   3.812 -0.2776 -0.4352  0.2928
 2059SOL    HW1 7076   0.749   6.125   3.827 -0.4548  1.6028 -1.4722
 2059SOL    HW2 7077   0.897   6.160   3.888 -0.6948 -1.8040  1.3754
 2060SOL     OW 7078   5.581   1.881   5.542 -0.0406 -0.0681 -0.2036
 2060SOL    HW1 7079   5.559   1.960   5.599 -0.5125 -0.7584  0.5844
 2060SOL    HW2 7080   5.675   1.852   5.559 -0.1777 -0.2683  0.2331
 2061SOL     OW 7081   6.592   2.442   6.881  0.7076 -0.3763 -0.5170
 2061SOL    HW1 7082   6.654   2.516   6.855 -0.4087  0.5604 -0.5965
 2061SOL    HW2 7083   6.638   2.381   6.945  2.0251 -0.2541 -1.3054
 2062SOL     OW 7084   6.830   4.916   4.287  0.3696  0.0769  0.0850
 2062SOL    HW1 7085   6.859   4.898   4.193  2.4027  1.8142  0.3010
 2062SOL    HW2 7086   6.909   4.916   4.348 -0.9818 -1.8731  2.0316
 2063SOL     OW 7087   6.747   2.145   1.245 -0.3090 -0.2185  0.2805
 2063SOL    HW1 7088   6.737   2.062   1.300 -0.7420  1.2457  2.5448
 2063SOL    HW2 7089   6.705   2.222   1.293  1.7806  1.7113 -0.7883
 2064SOL     OW 7090   1.591   3.402   1.186 -0.2511  0.2970 -0.1100
 2064SOL    HW1 7091   1.656   3.455   1.131  0.0521  0.9397  0.8394
 2064SOL    HW2 7092   1.566   3.319   1.137  0.0631  0.8151 -1.1849
 2065SOL     OW 7093   5.615   6.672   1.662 -0.5901  0.5995  0.2862
 2065SOL    HW1 7094   5.590   6.647   1.568 -1.1578 -1.2335  0.8913
 2065SOL    HW2 7095   5.533   6.692   1.715 -0.2022  2.9194  0.0956
 2066SOL     OW 7096   6.909   6.910   0.191 -0.0168  0.0453 -0.2322
 2066SOL    HW1 7097   6.846   6.857   0.246  1.4426 -0.2850  1.2095
 2066SOL    HW2 7098   6.983   6.851   0.158 -0.4101  0.4181 -1.8682
 2067SOL     OW 7099   3.459   3.379   2.573 -0.0171  0.2163  0.2652
 2067SOL    HW1 7100   3.399   3.330   2.637  0.0890 -0.4556 -0.1478
 2067SOL    HW2 7101   3.416   3.383   2.483 -1.0625  2.8446  0.7817
 2068SOL     OW 7102   6.032   6.144   3.023 -0.2337 -0.1507  0.0552
 2068SOL    HW1 7103   6.015   6.052   2.986 -2.5528  0.1018  0.3637
 2068SOL    HW2 7104   6.055   6.206   2.948 -0.6238 -0.5607 -0.4135
 2069SOL     OW 7105   5.995   2.153   0.849  0.4323  0.8431  0.1327
 2069SOL    HW1 7106   6.084   2.131   0.808  0.4928 -1.3659  1.2760
 2069SOL    HW2 7107   5.929   2.172   0.777  0.1634 -4.2533 -1.3948
 2070SOL     OW 7108   1.374   0.780   0.103  0.2261  0.0926  0.1478
 2070SOL    HW1 7109   1.449   0.846   0.097 -0.7447  1.1878 -0.3324
 2070SOL    HW2 7110   1.302   0.805   0.039 -0.6869 -0.7834  0.7884
 2071SOL     OW 7111   0.966   0.935   5.678  0.3516 -0.1463 -0.1482
 2071SOL    HW1 7112   0.875   0.900   5.656  0.1283  0.0746  0.4049
 2071SOL    HW2 7113   1.006   0.976   5.597 -0.2589  0.2237 -0.2689
 2072SOL     OW 7114   5.501   5.141   6.006  0.2937  0.4905 -0.1633
 2072SOL    HW1 7115   5.471   5.095   5.922 -2.1880  0.6518  0.5473
 2072SOL    HW2 7116   5.601   5.135   6.014  0.4249 -1.1117 -2.1813
 2073SOL     OW 7117   4.062   5.010   3.294 -0.4829 -0.0939 -0.1551
 2073SOL    HW1 7118   4.085   5.063   3.213 -0.4857  1.4216  0.8006
 2073SOL    HW2 7119   4.046   5.072   3.371 -0.9179 -1.4712  0.8996
 2074SOL     OW 7120   5.891   6.270   0.948 -0.1119  0.2681 -0.2149
 2074SOL    HW1 7121   5.850   6.303   0.863  1.2811  2.1865 -0.2155
 2074SOL    HW2 7122   5.975   6.220   0.927 -0.9514 -1.2957 -0.0494
 2075SOL     OW 7123   2.764   1.561   3.939  0.2837 -0.3869 -0.1697
 2075SOL    HW1 7124   2.679   1.530   3.982  0.8370 -0.3625  0.9729
 2075SOL    HW2 7125   2.746   1.585   3.843 -0.6068 -2.2035 -0.5087
 2076SOL     OW 7126   0.568   6.610   6.663  0.4762  0.2074  0.9935
 2076SOL    HW1 7127   0.501   6.639   6.732 -2.4560 -0.6146 -1.2826
 2076SOL    HW2 7128   0.567   6.675   6.587  0.2547 -1.1794 -0.2451
 2077SOL     OW 7129   0.353   1.636   0.052  0.2968  0.3754  0.3310
 2077SOL    HW1 7130   0.275   1.660   0.110 -0.3998 -1.1408  0.0836
 2077SOL    HW2 7131   0.349   1.689  -0.033 -0.2500  0.6038  0.4979
 2078SOL     OW 7132   6.211   6.657   5.709  0.3468 -0.0186 -0.4971
 2078SOL    HW1 7133   6.119   6.637   5.675  0.7335 -0.0740 -1.5467
 2078SOL    HW2 7134   6.260   6.572   5.725 -0.0961 -0.0235  1.0199
 2079SOL     OW 7135   2.093   6.033   2.555  0.3144  0.1333  0.3051
 2079SOL    HW1 7136   2.061   6.122   2.523  0.8951  0.8944  1.7507
 2079SOL    HW2 7137   2.014   5.977   2.581 -0.0749  0.0661 -0.9568
 2080SOL     OW 7138   4.966   6.830   2.044 -0.0187 -0.2596 -0.3338
 2080SOL    HW1 7139   4.870   6.845   2.068  0.1514  0.3357 -0.0147
 2080SOL    HW2 7140   4.971   6.761   1.971 -0.8998  1.7194 -2.4111
 2081SOL     OW 7141   0.095   0.625   5.063 -0.0283 -0.0130  0.4221
 2081SOL    HW1 7142   0.142   0.707   5.097  0.6158  0.0348 -0.5472
 2081SOL    HW2 7143   0.147   0.586   4.987 -0.4527 -1.1919  0.7136
 2082SOL     OW 7144   6.815   0.171   1.567  0.3925  0.2578  0.5495
 2082SOL    HW1 7145   6.877   0.233   1.520 -2.3620  2.7883 -0.0422
 2082SOL    HW2 7146   6.811   0.195   1.664  0.8495 -0.4056  0.7428
 2083SOL     OW 7147   6.785   1.661   1.122 -0.1902 -0.4221  0.1227
 2083SOL    HW1 7148   6.845   1.646   1.201  2.9594  1.9060 -1.6058
 2083SOL    HW2 7149   6.705   1.714   1.151  0.6040 -0.1059  1.8745
 2084SOL     OW 7150   0.534   4.001   4.210  0.1265 -0.5353 -0.2455
 2084SOL    HW1 7151   0.488   3.998   4.298  0.7307 -0.5011  0.0768
 2084SOL    HW2 7152   0.484   4.062   4.148 -0.7173 -1.1459 -0.1808
 2085SOL     OW 7153   2.908   2.268   3.409 -0.2781 -0.4194  0.1006
 2085SOL    HW1 7154   2.837   2.309   3.466 -1.0737 -0.1393 -1.0471
 2085SOL    HW2 7155   2.892   2.294   3.313  1.6289  0.0057 -0.1338
 2086SOL     OW 7156   1.308   1.259   5.982 -0.9321  0.8057  0.1391
 2086SOL    HW1 7157   1.353   1.169   5.986 -0.7510  0.9182  0.7294
 2086SOL    HW2 7158   1.236   1.257   5.913 -1.7825 -0.1828  1.0254
 2087SOL     OW 7159   5.689   0.296   2.978  0.0907  0.2556 -0.2539
 2087SOL    HW1 7160   5.788   0.305   2.986  0.1434  0.1953 -0.8052
 2087SOL    HW2 7161   5.664   0.294   2.881 -0.4885  0.6975 -0.1193
 2088SOL     OW 7162   5.106   5.985   0.992  0.4644 -0.2539 -0.1569
 2088SOL    HW1 7163   5.101   5.892   1.029 -1.2021  0.9150  2.8390
 2088SOL    HW2 7164   5.199   6.021   1.006  0.0756 -0.0857  2.5983
 2089SOL     OW 7165   0.331   1.651   6.155  0.2802  0.2767  0.3360
 2089SOL    HW1 7166   0.406   1.717   6.153  2.1251 -1.7615 -0.1362
 2089SOL    HW2 7167   0.335   1.597   6.238  2.5635 -3.2759 -1.8294
 2090SOL     OW 7168   5.477   2.426   0.081  0.2368 -0.1171  0.0213
 2090SOL    HW1 7169   5.541   2.499   0.057 -1.3577  0.2823 -3.8530
 2090SOL    HW2 7170   5.521   2.337   0.067  0.7651  0.1415  0.0219
 2091SOL     OW 7171   5.350   0.653   5.826  0.1475 -0.0403 -0.0812
 2091SOL    HW1 7172   5.324   0.580   5.762  0.2495 -1.2468  1.2006
 2091SOL    HW2 7173   5.284   0.727   5.820  1.4310  1.0231 -3.2826
 2092SOL     OW 7174   2.404   2.521   2.521 -0.1494 -0.5764 -0.3452
 2092SOL    HW1 7175   2.414   2.437   2.575 -1.5283 -1.1741 -0.9858
 2092SOL    HW2 7176   2.447   2.507   2.432  0.0357 -0.4155 -0.2838
 2093SOL     OW 7177   0.314   4.242   1.817  0.1102  0.4890  0.0330
 2093SOL    HW1 7178   0.332   4.335   1.783  3.9379 -0.3794 -0.7916
 2093SOL    HW2 7179   0.328   4.241   1.916 -1.6736  1.0575  0.3365
 2094SOL     OW 7180   6.636   5.141   6.428  0.0774 -0.0196 -0.5431
 2094SOL    HW1 7181   6.629   5.205   6.352  0.8750 -0.3763 -0.9309
 2094SOL    HW2 7182   6.573   5.169   6.501 -0.8662  0.1824 -1.4216
 2095SOL     OW 7183   6.255   6.605   0.688  0.2237  0.0645 -0.1554
 2095SOL    HW1 7184   6.247   6.588   0.589 -0.8471  0.4783 -0.1556
 2095SOL    HW2 7185   6.171   6.647   0.721  0.9983  0.9602  0.7353
 2096SOL     OW 7186   3.711   0.944   0.292 -0.3272 -0.3535  0.7955
 2096SOL    HW1 7187   3.762   0.917   0.374 -1.6923  0.8553  2.1113
 2096SOL    HW2 7188   3.704   1.043   0.288 -0.3084 -0.3874 -0.8052
 2097SOL     OW 7189   6.835   0.211   1.868 -0.3534  0.1013 -0.1022
 2097SOL    HW1 7190   6.847   0.220   1.967  0.2257 -0.5710 -0.0964
 2097SOL    HW2 7191   6.861   0.296   1.823 -1.4199  0.6930  0.3815
 2098SOL     OW 7192   2.389   0.028   3.028 -0.0385  0.2463  0.3227
 2098SOL    HW1 7193   2.405  -0.071   3.033 -0.1484  0.1851 -0.4551
 2098SOL    HW2 7194   2.299   0.049   3.067 -0.0386  0.0311  0.4397
 2099SOL     OW 7195   0.492   0.380   0.891 -0.1520  0.8634  0.5778
 2099SOL    HW1 7196   0.588   0.386   0.865 -0.4976 -0.7994 -1.3101
 2099SOL    HW2 7197   0.440   0.453   0.845 -0.0769  0.5834  0.0398
 2100SOL     OW 7198   0.196   3.825   1.243  0.1133  0.0433  0.2484
 2100SOL    HW1 7199   0.243   3.882   1.176  0.9067 -1.4993 -0.5637
 2100SOL    HW2 7200   0.253   3.746   1.266 -1.3499 -0.9599  0.5809
 2101SOL     OW 7201   4.495   4.924   4.521  0.3656 -0.7961  0.8077
 2101SOL    HW1 7202   4.454   4.840   4.486  1.1267 -1.2931  1.0683
 2101SOL    HW2 7203   4.430   4.972   4.580 -0.7339 -0.2442 -0.7826
 2102SOL     OW 7204   6.016   4.290   0.989  0.0790 -0.0102 -0.4234
 2102SOL    HW1 7205   5.917   4.277   0.985  0.1062 -0.4312  0.1389
 2102SOL    HW2 7206   6.057   4.217   1.043  0.4976  1.1480  0.8820
 2103SOL     OW 7207   6.826   3.163   4.532 -0.7551  0.2372  0.3176
 2103SOL    HW1 7208   6.904   3.103   4.515 -0.2991  0.6118  1.0312
 2103SOL    HW2 7209   6.778   3.133   4.615  0.5351  1.8808  1.7202
 2104SOL     OW 7210   1.202   5.769   4.147  0.4101 -0.5770 -0.2191
 2104SOL    HW1 7211   1.174   5.786   4.053  0.2183 -1.7822 -0.4025
 2104SOL    HW2 7212   1.151   5.690   4.183  0.3433 -0.0200  0.9568
 2105SOL     OW 7213   2.480   6.908   4.801 -0.0469  0.2821  0.1036
 2105SOL    HW1 7214   2.575   6.893   4.774 -0.0730 -1.4030  0.8198
 2105SOL    HW2 7215   2.420   6.860   4.737 -0.3463  0.1977  0.4458
 2106SOL     OW 7216   2.061   2.737   2.952 -0.6078  0.6605  0.3561
 2106SOL    HW1 7217   2.142   2.683   2.930 -0.5298  0.7890  0.3255
 2106SOL    HW2 7218   2.068   2.772   3.045 -1.5795 -1.0432  1.1085
 2107SOL     OW 7219   6.753   1.092   0.847 -0.1938  0.3818  0.8918
 2107SOL    HW1 7220   6.660   1.127   0.841  0.2205  1.5070  0.8667
 2107SOL    HW2 7221   6.750   0.995   0.870 -1.3736  0.3364  0.6267
 2108SOL     OW 7222   1.081   1.423   5.419 -0.9636 -0.1288  0.1623
 2108SOL    HW1 7223   1.134   1.445   5.337 -0.2093  1.1648  0.9600
 2108SOL    HW2 7224   1.039   1.506   5.455 -0.6044 -0.5195  1.5454
 2109SOL     OW 7225   4.150   5.143   2.713  0.8144  0.4847 -0.0787
 2109SOL    HW1 7226   4.222   5.177   2.653 -0.2184 -0.5385 -2.0011
 2109SOL    HW2 7227   4.163   5.045   2.729  0.1016  0.3735 -0.1209
 2110SOL     OW 7228   2.940   4.968   5.052 -0.3687 -0.4177 -0.3445
 2110SOL    HW1 7229   2.976   4.876   5.065  0.3161 -0.0816  0.2304
 2110SOL    HW2 7230   2.843   4.971   5.077 -0.9560 -1.4313 -2.3039
 2111SOL     OW 7231   4.598   4.124   0.908  0.0659 -0.1552  0.0724
 2111SOL    HW1 7232   4.668   4.193   0.890  1.2798 -0.6210  2.5796
 2111SOL    HW2 7233   4.535   4.119   0.830  1.1997  2.2129 -1.0964
 2112SOL     OW 7234   6.380   1.524   0.679  0.2136  0.0028  0.6430
 2112SOL    HW1 7235   6.297   1.538   0.624  0.8090 -0.0564 -0.2848
 2112SOL    HW2 7236   6.381   1.590   0.754 -0.2102  0.6345  0.1101
 2113SOL     OW 7237   5.632   3.563   3.026  0.3364 -0.3543  0.4411
 2113SOL    HW1 7238   5.682   3.542   2.942 -0.5124 -1.4831  0.2079
 2113SOL    HW2 7239   5.542   3.521   3.024 -0.5660  1.4429  0.9727
 2114SOL     OW 7240   5.918   0.147   1.800 -0.1544  0.4195  0.0283
 2114SOL    HW1 7241   5.826   0.171   1.771  0.0611  1.2134 -0.0332
 2114SOL    HW2 7242   5.985   0.185   1.736  0.2283  0.0347  0.1884
 2115SOL     OW 7243   0.064   6.547   6.410  0.0082 -0.3365 -0.1752
 2115SOL    HW1 7244   0.043   6.459   6.453  0.8789 -0.5248 -0.0998
 2115SOL    HW2 7245   0.113   6.531   6.325  0.2465  0.0732 -0.1185
 2116SOL     OW 7246   4.780   0.659   1.032  0.0434 -0.1437 -0.0322
 2116SOL    HW1 7247   4.860   0.718   1.041 -0.4422  0.4544  0.4236
 2116SOL    HW2 7248   4.792   0.578   1.088 -0.1468  0.4809  0.9386
 2117SOL     OW 7249   3.788   4.258   1.421  0.4169  0.1889 -0.1022
 2117SOL    HW1 7250   3.798   4.305   1.509  2.3174 -1.3756  0.5819
 2117SOL    HW2 7251   3.792   4.159   1.435  3.1229 -0.0789 -2.1421
 2118SOL     OW 7252   4.741   3.817   5.321  0.7122  0.4018 -0.5116
 2118SOL    HW1 7253   4.729   3.745   5.252 -2.0593 -0.0828  0.3571
 2118SOL    HW2 7254   4.701   3.902   5.286  1.9503  0.9450 -0.6360
 2119SOL     OW 7255   3.358   1.842   4.370  0.1845  0.7271 -0.1316
 2119SOL    HW1 7256   3.434   1.899   4.401 -1.2012  2.1554  0.7817
 2119SOL    HW2 7257   3.394   1.759   4.328  2.2165  0.5595  1.7556
 2120SOL     OW 7258   5.971   1.830   1.918  0.1206  0.3753 -0.1336
 2120SOL    HW1 7259   6.065   1.821   1.950 -0.1945 -2.3950  0.2503
 2120SOL    HW2 7260   5.908   1.818   1.995 -0.5642  1.0461 -0.5741
 2121SOL     OW 7261   0.176   0.334   6.785  0.1304 -0.1813 -0.4993
 2121SOL    HW1 7262   0.198   0.355   6.690 -1.2408 -0.8041 -0.9703
 2121SOL    HW2 7263   0.261   0.315   6.835  0.9474  1.0171 -1.3611
 2122SOL     OW 7264   2.855   0.278   4.656  0.4055  0.6181 -0.5698
 2122SOL    HW1 7265   2.801   0.315   4.731  0.4599  0.2325 -0.3333
 2122SOL    HW2 7266   2.932   0.339   4.636  1.4980 -0.1617  0.9630
 2123SOL     OW 7267   3.151   5.576   4.324 -0.4698 -0.5088 -0.0253
 2123SOL    HW1 7268   3.173   5.654   4.383  2.2440 -0.4561 -1.0171
 2123SOL    HW2 7269   3.052   5.575   4.307 -0.6060  2.6857  0.0240
 2124SOL     OW 7270   4.233   6.121   2.451  0.7366 -0.3014  0.1214
 2124SOL    HW1 7271   4.226   6.138   2.353  1.5669  0.9610  0.2632
 2124SOL    HW2 7272   4.329   6.108   2.476  0.3773 -3.4705  0.3582
 2125SOL     OW 7273   6.106   0.079   0.136 -0.0454  1.0350  0.9441
 2125SOL    HW1 7274   6.129   0.088   0.039  0.1453 -1.0780  0.7374
 2125SOL    HW2 7275   6.116   0.167   0.182 -0.1980  2.0887 -0.9587
 2126SOL     OW 7276   1.172   4.275   6.115 -0.7376 -0.1523 -1.1023
 2126SOL    HW1 7277   1.272   4.281   6.118 -0.7777  0.5314 -0.9326
 2126SOL    HW2 7278   1.145   4.187   6.076 -0.0522  0.3208 -2.7284
 2127SOL     OW 7279   1.062   3.826   4.500 -0.1897  0.5687  0.1564
 2127SOL    HW1 7280   1.001   3.887   4.550  0.9561  2.8974 -1.0778
 2127SOL    HW2 7281   1.148   3.815   4.550 -0.7674 -0.9137  0.8575
 2128SOL     OW 7282   3.385   5.539   2.524 -0.3914 -0.4935 -0.2242
 2128SOL    HW1 7283   3.482   5.522   2.510  0.0352  1.7474 -0.3183
 2128SOL    HW2 7284   3.332   5.493   2.452  0.7479 -0.0599 -1.3714
 2129SOL     OW 7285   3.437   2.119   2.429  0.4844 -0.4735  0.0769
 2129SOL    HW1 7286   3.378   2.189   2.389 -0.3775 -0.6528  0.9950
 2129SOL    HW2 7287   3.419   2.112   2.527  1.3027 -1.2580  0.1862
 2130SOL     OW 7288   1.337   1.076   0.502  0.0090 -0.1463 -0.2350
 2130SOL    HW1 7289   1.260   1.109   0.447  0.3737  1.0377 -0.0547
 2130SOL    HW2 7290   1.368   1.149   0.563  1.9588 -0.2332 -1.0562
 2131SOL     OW 7291   1.974   1.457   1.458 -1.2362  0.5168  0.4110
 2131SOL    HW1 7292   2.023   1.529   1.508 -0.7544  0.7852 -0.4364
 2131SOL    HW2 7293   1.977   1.372   1.512 -0.7763  0.8179  0.8748
 2132SOL     OW 7294   3.699   4.014   2.802 -0.3251 -0.0954 -0.5265
 2132SOL    HW1 7295   3.612   3.979   2.838 -0.0081  0.0987  0.4735
 2132SOL    HW2 7296   3.688   4.040   2.706 -1.7944  1.3395 -0.0181
 2133SOL     OW 7297   6.020   6.308   1.808 -0.2165  0.0569 -0.0324
 2133SOL    HW1 7298   5.928   6.304   1.768 -0.2242 -0.4353  0.0237
 2133SOL    HW2 7299   6.074   6.232   1.773  0.1457  0.3028 -0.0037
 2134SOL     OW 7300   6.652   3.561   2.359 -0.0621  0.4079  0.0723
 2134SOL    HW1 7301   6.619   3.645   2.317  2.4416  1.9158  0.8510
 2134SOL    HW2 7302   6.751   3.569   2.375  0.1274 -2.4194  0.8541
 2135SOL     OW 7303   1.826   3.298   0.707  0.3766 -0.3688 -0.1322
 2135SOL    HW1 7304   1.880   3.227   0.661  1.9179  2.0328 -2.2687
 2135SOL    HW2 7305   1.766   3.343   0.641 -0.3003  0.5923  1.0983
 2136SOL     OW 7306   0.860   4.274   1.316  0.8404  0.2927  0.3242
 2136SOL    HW1 7307   0.811   4.225   1.388 -0.0035  1.2835  0.4530
 2136SOL    HW2 7308   0.875   4.369   1.345 -1.4660  1.3611 -1.6350
 2137SOL     OW 7309   6.360   0.536   6.014  0.0733  0.1571  0.4615
 2137SOL    HW1 7310   6.324   0.448   5.983 -0.9977  0.1174  1.7146
 2137SOL    HW2 7311   6.343   0.606   5.944  1.3274 -0.6810 -0.7352
 2138SOL     OW 7312   0.343   1.371   3.880  0.4005  0.7659 -0.4176
 2138SOL    HW1 7313   0.389   1.370   3.791  2.0344 -1.3819  0.3396
 2138SOL    HW2 7314   0.408   1.401   3.950  1.3252 -3.4793  0.8619
 2139SOL     OW 7315   1.287   5.058   2.417  0.5369  0.2548  0.1310
 2139SOL    HW1 7316   1.308   4.980   2.358 -2.1260 -1.0953  0.8009
 2139SOL    HW2 7317   1.278   5.140   2.361  1.1823 -0.3569 -0.9152
 2140SOL     OW 7318   1.628   0.908   6.790 -0.6027 -0.5003  0.4083
 2140SOL    HW1 7319   1.567   0.986   6.776 -1.7012 -1.2467  0.8280
 2140SOL    HW2 7320   1.576   0.823   6.778  0.7544 -1.1849 -0.8583
 2141SOL     OW 7321   0.185   2.709   2.733 -0.0468 -0.2376  0.2539
 2141SOL    HW1 7322   0.167   2.768   2.812 -1.2015  1.3578 -1.1199
 2141SOL    HW2 7323   0.132   2.625   2.741  1.0684 -0.8182  1.9056
 2142SOL     OW 7324   6.483   2.429   2.716  0.6508  0.0991 -0.4152
 2142SOL    HW1 7325   6.428   2.358   2.672 -0.4654  0.2393  0.7002
 2142SOL    HW2 7326   6.467   2.428   2.814  3.7997 -0.8330  0.1958
 2143SOL     OW 7327   1.002   2.819   4.956  0.0754  0.2016 -0.3432
 2143SOL    HW1 7328   0.953   2.732   4.959  0.3405  0.0026 -1.5892
 2143SOL    HW2 7329   0.958   2.881   4.891  0.5167  0.6091 -0.2619
 2144SOL     OW 7330   1.704   1.871   5.998  0.3541  0.1911  0.0122
 2144SOL    HW1 7331   1.662   1.794   6.046 -1.1089  0.7930 -0.2539
 2144SOL    HW2 7332   1.727   1.943   6.064  2.9086 -0.9210  0.4508
 2145SOL     OW 7333   1.572   2.023   3.588 -0.2764 -0.1662 -0.0638
 2145SOL    HW1 7334   1.525   2.111   3.594 -1.0448 -0.5958  0.4387
 2145SOL    HW2 7335   1.584   1.998   3.492  0.2088  0.6106 -0.2189
 2146SOL     OW 7336   0.909   2.132   3.556  0.4111 -0.6232 -0.5990
 2146SOL    HW1 7337   0.892   2.160   3.650  0.8898  1.8184 -1.1682
 2146SOL    HW2 7338   0.986   2.184   3.519  0.0371 -1.3019 -2.4335
 2147SOL     OW 7339   0.150   1.853   0.461 -0.7701  0.0810 -0.4949
 2147SOL    HW1 7340   0.134   1.823   0.555  0.3773 -0.2613 -0.3881
 2147SOL    HW2 7341   0.073   1.827   0.403 -1.7821  0.8727  0.4696
 2148SOL     OW 7342   3.006   3.089   1.992  0.3234 -0.5165 -0.3260
 2148SOL    HW1 7343   3.058   3.009   2.023  1.0718 -0.0765 -0.4355
 2148SOL    HW2 7344   2.975   3.142   2.072  1.6158  0.2116 -0.2826
 2149SOL     OW 7345   4.460   5.915   5.325 -0.1380 -0.1258  0.0020
 2149SOL    HW1 7346   4.461   5.831   5.270  1.5471 -0.7386  0.8744
 2149SOL    HW2 7347   4.506   5.897   5.412 -1.5809  1.1727  1.0704
 2150SOL     OW 7348   3.958   6.743   2.585  0.2797 -0.0783 -0.6456
 2150SOL    HW1 7349   3.963   6.649   2.551  0.8953 -0.4794  0.4915
 2150SOL    HW2 7350   4.050   6.782   2.587  0.4462 -0.4579  1.5203
 2151SOL     OW 7351   3.399   2.338   6.156 -0.0058 -0.2340 -0.9422
 2151SOL    HW1 7352   3.487   2.291   6.160 -0.5542 -1.2729 -0.6934
 2151SOL    HW2 7353   3.326   2.273   6.176 -1.0265  0.0491 -3.4401
 2152SOL     OW 7354   1.067   6.196   6.428  0.2263 -0.2502  0.0683
 2152SOL    HW1 7355   1.119   6.281   6.421 -1.3920  0.8953  1.4007
 2152SOL    HW2 7356   1.130   6.118   6.418  1.7171  1.0615 -1.3082
 2153SOL     OW 7357   3.545   2.145   1.742  0.0191  0.1508  0.2906
 2153SOL    HW1 7358   3.612   2.200   1.792 -1.8443  2.4432  0.3840
 2153SOL    HW2 7359   3.544   2.052   1.780  2.5029  0.2726  0.8255
 2154SOL     OW 7360   1.547   6.047   4.790 -0.0746  0.9463 -0.6390
 2154SOL    HW1 7361   1.627   6.025   4.735 -0.5844 -1.1439 -0.6265
 2154SOL    HW2 7362   1.547   5.992   4.873 -1.2113  1.3531 -0.3433
 2155SOL     OW 7363   2.278   1.199   1.355  0.4479 -0.2966  0.2945
 2155SOL    HW1 7364   2.340   1.156   1.289 -1.4451  0.0336 -1.8099
 2155SOL    HW2 7365   2.212   1.257   1.307 -2.8035 -2.1561  2.1488
 2156SOL     OW 7366   6.182   0.899   4.940  0.1095 -0.1759  0.0160
 2156SOL    HW1 7367   6.269   0.933   4.977  0.3266  0.5702 -1.1534
 2156SOL    HW2 7368   6.200   0.825   4.874 -0.2107 -0.6656  0.4634
 2157SOL     OW 7369   3.952   3.384   6.154  0.2176 -0.5201 -0.0432
 2157SOL    HW1 7370   3.852   3.388   6.155  0.2309  0.1215 -0.5529
 2157SOL    HW2 7371   3.983   3.339   6.071  0.3183 -3.3367  1.3925
 2158SOL     OW 7372   0.562   3.520   6.392 -0.4278  0.3760 -0.1310
 2158SOL    HW1 7373   0.625   3.465   6.337 -0.4099 -2.3996  2.3845
 2158SOL    HW2 7374   0.610   3.600   6.426  0.0465  1.2474 -2.6117
 2159SOL     OW 7375   2.255   4.048   6.798 -0.1429 -0.1066  0.5180
 2159SOL    HW1 7376   2.179   4.069   6.860 -0.6762 -2.1487  0.6088
 2159SOL    HW2 7377   2.287   3.955   6.814  0.6024 -0.2233 -1.3957
 2160SOL     OW 7378   0.088   6.921   2.623 -0.2290 -0.6197  0.2785
 2160SOL    HW1 7379   0.068   6.841   2.680  0.8084  1.1765  3.4176
 2160SOL    HW2 7380   0.003   6.959   2.587 -0.8755 -2.1531  0.1127
 2161SOL     OW 7381   1.971   0.915   5.716 -0.5961  0.1121 -0.0024
 2161SOL    HW1 7382   2.064   0.928   5.749 -0.3335  0.7833 -0.9677
 2161SOL    HW2 7383   1.974   0.876   5.623 -1.3106 -1.8423  0.7317
 2162SOL     OW 7384   6.415   2.181   6.164  0.0356 -0.6056 -0.1901
 2162SOL    HW1 7385   6.369   2.180   6.075  0.6339  2.3264 -0.6394
 2162SOL    HW2 7386   6.366   2.121   6.227 -1.6692 -1.1169 -1.8928
 2163SOL     OW 7387   1.633   1.411   4.331 -0.4543 -0.0507  0.3017
 2163SOL    HW1 7388   1.628   1.511   4.332  0.1764  0.0678 -2.1873
 2163SOL    HW2 7389   1.722   1.382   4.296 -1.2584 -1.4459 -0.7243
 2164SOL     OW 7390   1.098   2.430   6.316 -0.1178 -0.2075  0.1043
 2164SOL    HW1 7391   1.046   2.351   6.350 -0.7587  1.0428  2.2200
 2164SOL    HW2 7392   1.098   2.502   6.385  1.7587  1.0858 -1.1539
 2165SOL     OW 7393   6.755   2.600   0.815 -0.0740  0.0999 -0.5817
 2165SOL    HW1 7394   6.851   2.628   0.812 -0.4343  1.3051 -1.8791
 2165SOL    HW2 7395   6.726   2.591   0.911  0.4190  3.0589 -0.0685
 2166SOL     OW 7396   1.580   4.843   5.141  0.1591 -0.0559 -0.3734
 2166SOL    HW1 7397   1.531   4.779   5.081  1.0515 -1.2305  0.1212
 2166SOL    HW2 7398   1.653   4.795   5.189  0.2677  1.1468  0.7158
 2167SOL     OW 7399   5.531   5.951   0.379  0.6462 -0.4929 -0.3877
 2167SOL    HW1 7400   5.609   5.943   0.317  0.2654 -0.5428 -0.8654
 2167SOL    HW2 7401   5.462   6.010   0.339  0.6912  0.0452  0.3048
 2168SOL     OW 7402   3.851   3.079   4.129 -0.5539 -0.4857 -0.4255
 2168SOL    HW1 7403   3.877   3.065   4.034  0.4495 -1.5442 -0.0300
 2168SOL    HW2 7404   3.762   3.036   4.146 -0.9710  0.1490 -0.9998
 2169SOL     OW 7405   3.162   5.805   6.400  0.2224 -0.6201 -0.5053
 2169SOL    HW1 7406   3.118   5.850   6.322 -2.6886 -1.1884  0.6874
 2169SOL    HW2 7407   3.132   5.709   6.404  0.3482 -0.6155  1.2676
 2170SOL     OW 7408   0.460   3.035   4.763 -0.3962  0.3038 -0.2531
 2170SOL    HW1 7409   0.456   3.022   4.862  1.4493  1.6911  0.0579
 2170SOL    HW2 7410   0.535   3.098   4.740 -0.7750  0.0246 -2.5373
 2171SOL     OW 7411   5.447   2.087   4.471  0.3314  0.4644 -0.4750
 2171SOL    HW1 7412   5.353   2.109   4.495  0.5380 -1.1673  2.3395
 2171SOL    HW2 7413   5.474   2.002   4.517  3.0931  0.6878 -1.4643
 2172SOL     OW 7414   3.249   0.094   3.941 -0.0620 -0.0090  0.4225
 2172SOL    HW1 7415   3.187   0.024   3.904  0.3079 -0.9394  1.5150
 2172SOL    HW2 7416   3.343   0.071   3.917 -0.0647  1.1995 -0.8974
 2173SOL     OW 7417   1.098   2.056   0.589 -0.6782 -0.1705 -0.4630
 2173SOL    HW1 7418   1.077   2.090   0.498  0.8053  1.1804 -0.3495
 2173SOL    HW2 7419   1.163   2.117   0.633  0.0114 -1.7606  0.8307
 2174SOL     OW 7420   6.550   2.974   0.558 -0.0672  0.2290  0.5814
 2174SOL    HW1 7421   6.545   2.878   0.528 -0.0397 -0.1110  1.6101
 2174SOL    HW2 7422   6.633   2.987   0.613  1.2632  1.4745 -1.6139
 2175SOL     OW 7423   1.211   2.882   1.883  0.2344  0.0644 -0.6555
 2175SOL    HW1 7424   1.134   2.892   1.946 -0.9529  2.0993 -2.3142
 2175SOL    HW2 7425   1.258   2.795   1.902 -0.7831  0.0247  2.1587
 2176SOL     OW 7426   3.081   6.316   4.404 -0.0100 -0.4374 -0.1122
 2176SOL    HW1 7427   3.120   6.406   4.422  1.3249 -1.0379  0.1091
 2176SOL    HW2 7428   2.994   6.307   4.453  0.4659  0.2625  0.8858
 2177SOL     OW 7429   0.558   1.789   4.897 -0.2895 -0.0977 -0.1611
 2177SOL    HW1 7430   0.650   1.750   4.895 -0.0092  0.3671  1.6510
 2177SOL    HW2 7431   0.537   1.829   4.808  0.7254 -1.3689 -1.0124
 2178SOL     OW 7432   5.700   1.558   6.519 -0.2700 -0.1706  0.3745
 2178SOL    HW1 7433   5.799   1.543   6.524 -0.1081  0.8678  0.6216
 2178SOL    HW2 7434   5.660   1.545   6.610 -0.4627 -1.1929  0.1511
 2179SOL     OW 7435   4.450   4.983   5.163  0.3712 -0.5237 -0.0530
 2179SOL    HW1 7436   4.540   4.984   5.206 -0.1035 -1.7762  1.0086
 2179SOL    HW2 7437   4.383   4.940   5.224 -1.5005  2.4666  0.2135
 2180SOL     OW 7438   4.112   0.143   3.878  0.1755 -0.4651  1.2002
 2180SOL    HW1 7439   4.026   0.165   3.832  0.3106 -1.3915  0.4787
 2180SOL    HW2 7440   4.114   0.046   3.901  1.5597 -0.7455  0.0331
 2181SOL     OW 7441   0.879   3.753   2.744  0.4348 -0.0850 -0.5749
 2181SOL    HW1 7442   0.843   3.685   2.807 -0.9532  3.1264  2.4401
 2181SOL    HW2 7443   0.979   3.751   2.746  0.4082 -1.0896  0.5416
 2182SOL     OW 7444   0.577   2.131   2.784  0.3989  0.7645  0.0334
 2182SOL    HW1 7445   0.533   2.136   2.695  2.7982 -1.3408 -1.4107
 2182SOL    HW2 7446   0.509   2.144   2.856 -2.3561 -1.1924 -2.0121
 2183SOL     OW 7447   4.217   6.193   2.174  0.5138 -0.2425  0.0290
 2183SOL    HW1 7448   4.226   6.143   2.088  1.9456  0.9257 -0.5506
 2183SOL    HW2 7449   4.131   6.244   2.175  1.2958  1.2071 -1.5730
 2184SOL     OW 7450   3.282   2.229   0.337  0.5901 -0.3689 -0.0082
 2184SOL    HW1 7451   3.334   2.313   0.327  1.2322 -0.8864 -1.3252
 2184SOL    HW2 7452   3.218   2.220   0.260  0.5900 -1.1222  0.0672
 2185SOL     OW 7453   3.742   6.047   5.057  0.9330 -0.6066 -0.3887
 2185SOL    HW1 7454   3.752   6.002   5.145 -0.0796  0.8508  0.5057
 2185SOL    HW2 7455   3.805   6.124   5.051 -2.2053  2.3281  1.1557
 2186SOL     OW 7456   1.157   1.572   3.766 -0.2459  0.3972  0.4835
 2186SOL    HW1 7457   1.167   1.629   3.684 -0.1517  0.2334  0.3808
 2186SOL    HW2 7458   1.194   1.620   3.845  3.2888 -0.9419 -0.1697
 2187SOL     OW 7459   0.383   6.552   6.416  0.4297  0.5261  0.2900
 2187SOL    HW1 7460   0.351   6.647   6.419  2.2517  1.2162 -0.4701
 2187SOL    HW2 7461   0.363   6.507   6.503 -0.9943  1.3951  0.4529
 2188SOL     OW 7462   6.160   6.597   2.384 -0.0198 -0.5116 -0.5267
 2188SOL    HW1 7463   6.245   6.626   2.428 -0.2594 -0.5979 -0.0035
 2188SOL    HW2 7464   6.157   6.634   2.291  1.6633 -2.3558 -1.4141
 2189SOL     OW 7465   4.520   1.507   5.677 -0.1402  0.5833 -0.3642
 2189SOL    HW1 7466   4.587   1.498   5.603 -0.7152  0.8933 -0.9324
 2189SOL    HW2 7467   4.454   1.578   5.654 -0.8692  0.0476  0.0307
 2190SOL     OW 7468   0.885   1.502   1.681  0.1088 -0.2056  0.1754
 2190SOL    HW1 7469   0.978   1.474   1.657 -0.5736 -0.7466 -2.0456
 2190SOL    HW2 7470   0.826   1.421   1.690 -0.8620  0.2110 -1.8129
 2191SOL     OW 7471   3.939   1.883   5.935 -0.3581 -0.0499  0.6101
 2191SOL    HW1 7472   3.860   1.826   5.956 -1.0718  1.1673  1.2997
 2191SOL    HW2 7473   3.911   1.962   5.881  0.9980 -1.5341 -2.5177
 2192SOL     OW 7474   2.003   1.883   4.009 -0.4723 -0.3004  0.5713
 2192SOL    HW1 7475   2.003   1.784   4.025  0.3622 -0.2292  1.0880
 2192SOL    HW2 7476   2.079   1.925   4.059 -0.1527  0.4583 -0.5140
 2193SOL     OW 7477   1.543   4.491   4.103  0.7639  0.2489 -0.0740
 2193SOL    HW1 7478   1.507   4.511   4.194  1.2544 -0.3691  0.2736
 2193SOL    HW2 7479   1.582   4.398   4.103  1.2478  0.4425 -0.7598
 2194SOL     OW 7480   3.396   6.353   2.923  0.4222 -0.0967 -0.2113
 2194SOL    HW1 7481   3.307   6.382   2.889  0.3806 -0.6484 -0.5902
 2194SOL    HW2 7482   3.451   6.434   2.945  0.3516  0.2799 -1.3550
 2195SOL     OW 7483   4.978   1.900   1.618  0.2510  0.3449  0.9171
 2195SOL    HW1 7484   4.938   1.991   1.613 -1.5993 -0.4947 -1.5354
 2195SOL    HW2 7485   4.935   1.849   1.693 -0.5060  0.6939  0.7289
 2196SOL     OW 7486   4.716   5.304   1.531  0.6857  0.0216  0.2308
 2196SOL    HW1 7487   4.639   5.368   1.524 -0.3055 -1.0716  0.7439
 2196SOL    HW2 7488   4.800   5.350   1.501 -0.2068  1.1368 -0.6850
 2197SOL     OW 7489   0.528   4.965   3.432  0.1434 -0.7919  0.2452
 2197SOL    HW1 7490   0.467   4.895   3.470 -0.1202 -0.3700  0.6089
 2197SOL    HW2 7491   0.487   5.055   3.446  0.7849 -0.5179  0.3639
 2198SOL     OW 7492   4.930   1.754   6.381 -0.7527 -0.0079 -0.2022
 2198SOL    HW1 7493   4.846   1.783   6.427 -0.6531  3.1843 -1.7477
 2198SOL    HW2 7494   4.914   1.668   6.334 -2.1679 -1.0666  2.0063
 2199SOL     OW 7495   5.730   3.058   1.033 -0.0991 -0.3211 -0.3987
 2199SOL    HW1 7496   5.716   3.001   1.115 -0.2275  3.6052  2.5982
 2199SOL    HW2 7497   5.828   3.070   1.018 -0.0540  0.5921  0.5145
 2200SOL     OW 7498   0.422   2.609   6.075 -0.0690  0.2970 -0.0819
 2200SOL    HW1 7499   0.454   2.624   5.981  1.4876 -0.3217  0.3316
 2200SOL    HW2 7500   0.384   2.695   6.111  0.4674  0.8682 -0.8473
 2201SOL     OW 7501   2.888   4.237   0.014  0.1202  0.0145 -0.3223
 2201SOL    HW1 7502   2.920   4.275   0.100 -0.1109  0.8891 -0.6188
 2201SOL    HW2 7503   2.812   4.175   0.031 -0.0906  0.3813  0.0787
 2202SOL     OW 7504   4.744   1.150   6.157  0.1575  0.7554 -0.8920
 2202SOL    HW1 7505   4.726   1.143   6.255 -0.5431  0.8332 -1.0062
 2202SOL    HW2 7506   4.808   1.078   6.130 -2.5806 -1.8191 -1.0375
 2203SOL     OW 7507   2.963   3.183   3.475 -0.4790  0.1419  0.3183
 2203SOL    HW1 7508   2.957   3.122   3.396  1.6013 -0.7817  0.8162
 2203SOL    HW2 7509   3.035   3.251   3.459  1.7943 -1.6207  2.3303
 2204SOL     OW 7510   5.430   4.826   0.693  0.1842  0.2682 -0.0720
 2204SOL    HW1 7511   5.401   4.740   0.650  0.4600  1.2797 -2.4437
 2204SOL    HW2 7512   5.351   4.868   0.738 -0.2203 -0.6706  0.1252
 2205SOL     OW 7513   0.429   2.191   0.642  0.4075  0.5065  0.7574
 2205SOL    HW1 7514   0.339   2.151   0.626  0.6779  0.6324 -1.3831
 2205SOL    HW2 7515   0.419   2.278   0.690 -0.5250  0.0706  1.3648
 2206SOL     OW 7516   5.411   4.713   6.571  0.2337  0.2868  0.2273
 2206SOL    HW1 7517   5.319   4.740   6.597  1.2581  1.6369  2.7299
 2206SOL    HW2 7518   5.450   4.782   6.510  0.5358  1.1763  1.3974
 2207SOL     OW 7519   0.035   2.770   0.088 -0.1334  0.3946  0.2001
 2207SOL    HW1 7520   0.039   2.728  -0.003  1.1623 -0.6359  0.6899
 2207SOL    HW2 7521   0.010   2.866   0.080  0.9243  0.5747 -1.3476
 2208SOL     OW 7522   0.078   1.164   2.833 -0.6328 -0.0479  0.5924
 2208SOL    HW1 7523   0.008   1.232   2.855 -0.5629  0.6287 -1.1569
 2208SOL    HW2 7524   0.167   1.197   2.864 -0.6640  0.4606  0.1485
 2209SOL     OW 7525   1.323   2.014   4.870 -0.5015  0.0267  0.4260
 2209SOL    HW1 7526   1.413   1.982   4.843 -0.3174  0.6845  0.2408
 2209SOL    HW2 7527   1.319   2.114   4.861  0.1400  0.5732  4.4123
 2210SOL     OW 7528   2.869   5.056   5.335 -0.0355 -0.9103 -0.1436
 2210SOL    HW1 7529   2.780   5.056   5.380 -0.4947 -1.3286 -1.0106
 2210SOL    HW2 7530   2.878   4.974   5.278  1.6940 -1.8867  1.4077
 2211SOL     OW 7531   0.286   2.360   2.612 -0.1841  0.5029 -0.5890
 2211SOL    HW1 7532   0.276   2.431   2.542  2.7418  0.5775 -1.0696
 2211SOL    HW2 7533   0.272   2.400   2.703 -1.3959  1.0066 -0.9851
 2212SOL     OW 7534   5.703   6.278   6.392 -0.3902 -0.3735  0.1787
 2212SOL    HW1 7535   5.673   6.359   6.443 -1.9888 -0.7538 -0.0916
 2212SOL    HW2 7536   5.789   6.298   6.346 -0.6465  1.1150  0.2894
 2213SOL     OW 7537   4.329   0.119   3.418 -0.5576  0.0272  0.0547
 2213SOL    HW1 7538   4.346   0.026   3.385 -1.6553 -0.4022  0.6312
 2213SOL    HW2 7539   4.328   0.120   3.518  1.8617  1.1558  0.1364
 2214SOL     OW 7540   3.635   1.356   0.058  0.1107 -0.0052 -0.3048
 2214SOL    HW1 7541   3.715   1.370  -0.001  0.5471 -0.0466  0.2633
 2214SOL    HW2 7542   3.573   1.434   0.049  0.5624  0.3691 -0.2228
 2215SOL     OW 7543   2.851   3.537   2.969 -0.0083  0.1280  0.8784
 2215SOL    HW1 7544   2.878   3.632   2.983  1.5101 -0.2790  0.9260
 2215SOL    HW2 7545   2.857   3.487   3.055 -2.1255  0.2564  1.1581
 2216SOL     OW 7546   0.408   1.249   5.783 -0.3307 -0.5553 -0.3293
 2216SOL    HW1 7547   0.493   1.226   5.735 -0.2798 -0.6252 -0.2058
 2216SOL    HW2 7548   0.422   1.240   5.881 -0.3132 -0.0124 -0.2775
 2217SOL     OW 7549   3.510   4.477   0.930 -0.3064  0.0298 -0.0161
 2217SOL    HW1 7550   3.440   4.406   0.926 -0.4947  0.1425  0.9396
 2217SOL    HW2 7551   3.521   4.519   0.840 -0.5965 -0.8163 -0.4539
 2218SOL     OW 7552   0.508   5.738   4.845 -0.5241 -0.4652  0.5822
 2218SOL    HW1 7553   0.429   5.780   4.801  0.0985  0.5065  0.3429
 2218SOL    HW2 7554   0.480   5.695   4.931 -1.4505 -0.8820  0.0774
 2219SOL     OW 7555   1.996   5.107   1.938  0.0189 -0.5338 -0.0364
 2219SOL    HW1 7556   1.902   5.112   1.972 -0.3713 -1.4673 -0.9323
 2219SOL    HW2 7557   2.030   5.200   1.920 -0.9556 -0.2207 -0.3128
 2220SOL     OW 7558   1.497   1.344   2.454  0.8102  0.1415 -0.6052
 2220SOL    HW1 7559   1.435   1.354   2.376 -2.1397 -1.3655  1.3628
 2220SOL    HW2 7560   1.508   1.433   2.499 -1.9011  0.1237  0.2898
 2221SOL     OW 7561   1.852   5.908   3.887  0.1056  0.0158 -0.4603
 2221SOL    HW1 7562   1.868   5.813   3.861 -1.9290 -0.9598  1.5241
 2221SOL    HW2 7563   1.774   5.944   3.837 -0.2951 -0.0110  0.1311
 2222SOL     OW 7564   6.412   5.142   5.154 -0.2096 -0.7307  0.0820
 2222SOL    HW1 7565   6.322   5.098   5.143  0.0024 -1.0916 -0.2282
 2222SOL    HW2 7566   6.400   5.231   5.199 -0.5976 -1.2859  1.0993
 2223SOL     OW 7567   0.985   6.147   4.554 -0.2470  0.2058 -0.1214
 2223SOL    HW1 7568   1.025   6.068   4.603  0.2073 -0.2563 -1.2012
 2223SOL    HW2 7569   0.993   6.132   4.456 -2.0092  0.6810 -0.3684
 2224SOL     OW 7570   3.825   0.815   3.750 -0.3420  0.0675 -0.3952
 2224SOL    HW1 7571   3.831   0.715   3.758 -0.8829  0.1305  1.0015
 2224SOL    HW2 7572   3.907   0.856   3.789 -0.7153  0.2026  0.2654
 2225SOL     OW 7573   4.258   1.310   3.277  0.5108  0.7405  0.5141
 2225SOL    HW1 7574   4.336   1.284   3.335  0.5446  2.1804  1.1549
 2225SOL    HW2 7575   4.284   1.298   3.181  1.0282 -0.1216  0.7444
 2226SOL     OW 7576   2.961   0.278   6.057  0.3236  0.0942  0.7356
 2226SOL    HW1 7577   2.868   0.272   6.093 -0.0813  0.1037 -0.2924
 2226SOL    HW2 7578   3.018   0.207   6.100 -0.1191  0.1574  1.4453
 2227SOL     OW 7579   5.925   1.304   1.413 -0.5757  0.2494 -0.0623
 2227SOL    HW1 7580   5.880   1.313   1.324  0.1228  1.6821 -0.3072
 2227SOL    HW2 7581   6.022   1.285   1.400 -0.7096 -0.8463  0.4287
 2228SOL     OW 7582   6.919   6.992   6.254  0.0851 -0.2804  0.1137
 2228SOL    HW1 7583   6.882   7.072   6.301 -1.2171 -1.3077  0.9187
 2228SOL    HW2 7584   6.985   6.946   6.313  0.5233 -0.0342 -0.1830
 2229SOL     OW 7585   5.317   4.054   0.237 -0.1557  0.3696 -0.1676
 2229SOL    HW1 7586   5.294   4.114   0.160  0.6936  1.3300  0.2898
 2229SOL    HW2 7587   5.370   3.976   0.204 -2.2314 -0.7911 -0.9313
 2230SOL     OW 7588   5.163   4.346   2.465 -0.0002 -0.1285  0.2272
 2230SOL    HW1 7589   5.260   4.328   2.482 -0.3429 -1.0959  1.2765
 2230SOL    HW2 7590   5.149   4.363   2.367  1.1866 -0.1997  0.0295
 2231SOL     OW 7591   3.700   0.061   1.778  0.1018  0.0598 -0.0637
 2231SOL    HW1 7592   3.628   0.043   1.844  0.3288  0.4289  0.2855
 2231SOL    HW2 7593   3.789   0.060   1.824  0.2953 -0.0523 -0.4302
 2232SOL     OW 7594   6.799   0.742   3.968  0.5343 -0.1690  0.3269
 2232SOL    HW1 7595   6.735   0.703   3.903 -0.3131  1.9606 -0.2092
 2232SOL    HW2 7596   6.812   0.840   3.948  1.3754  0.2215  2.4704
 2233SOL     OW 7597   4.613   1.749   1.409 -0.1055  0.2467  0.1297
 2233SOL    HW1 7598   4.541   1.766   1.341 -1.9671 -1.4190  1.5730
 2233SOL    HW2 7599   4.581   1.681   1.475  2.4533  0.2149  1.4464
 2234SOL     OW 7600   0.960   1.019   3.799 -0.2824 -0.0237 -0.2687
 2234SOL    HW1 7601   0.997   1.082   3.731  1.3369  0.0828  0.6658
 2234SOL    HW2 7602   0.886   1.063   3.849 -1.1319  0.0799 -1.5756
 2235SOL     OW 7603   4.276   3.465   0.702  0.9844 -0.2633 -0.0859
 2235SOL    HW1 7604   4.240   3.490   0.791  2.7831  0.0250  0.6078
 2235SOL    HW2 7605   4.201   3.443   0.640 -0.3284  0.2896  1.2603
 2236SOL     OW 7606   6.051   6.567   6.001 -0.3306 -0.7890  0.2173
 2236SOL    HW1 7607   6.049   6.665   5.979  1.2443 -0.9248 -0.6771
 2236SOL    HW2 7608   6.097   6.554   6.089  0.3099 -0.7930 -0.1184
 2237SOL     OW 7609   6.328   3.924   3.943 -0.0948  0.3999 -0.0256
 2237SOL    HW1 7610   6.291   3.992   4.006 -0.2365  0.6007 -0.3254
 2237SOL    HW2 7611   6.410   3.883   3.983 -0.8061 -0.2683  0.7771
 2238SOL     OW 7612   2.744   6.556   4.985 -0.0661 -0.6010  0.1528
 2238SOL    HW1 7613   2.759   6.655   4.985 -0.5895 -0.5170  0.1284
 2238SOL    HW2 7614   2.689   6.531   4.906  0.3625 -0.9627 -0.0338
 2239SOL     OW 7615   6.983   4.842   4.054  0.2249 -0.1456 -0.1234
 2239SOL    HW1 7616   6.994   4.859   3.956 -0.7763  1.5398  0.0156
 2239SOL    HW2 7617   7.049   4.898   4.105 -0.9958  1.0291  0.2318
 2240SOL     OW 7618   1.842   6.515   1.043  0.0355  0.3607  0.3103
 2240SOL    HW1 7619   1.839   6.457   0.962 -0.2194 -1.8650  1.8117
 2240SOL    HW2 7620   1.750   6.522   1.082  0.2370  0.9574  0.6917
 2241SOL     OW 7621   3.555   5.446   0.185  0.2898 -0.2812  0.3676
 2241SOL    HW1 7622   3.650   5.439   0.215  0.1854  0.9169  1.0682
 2241SOL    HW2 7623   3.548   5.517   0.115 -0.0328 -0.6381  0.0343
 2242SOL     OW 7624   3.179   1.891   2.820 -0.0099 -0.4080 -0.2671
 2242SOL    HW1 7625   3.092   1.842   2.814 -0.4364  0.3017  0.0364
 2242SOL    HW2 7626   3.251   1.828   2.848 -0.6068 -0.7960  0.4235
 2243SOL     OW 7627   4.163   4.949   4.459 -0.3014  0.4293  0.1925
 2243SOL    HW1 7628   4.162   5.040   4.502  0.7940  0.1033  0.9526
 2243SOL    HW2 7629   4.115   4.884   4.518 -1.5643  0.5932 -0.6072
 2244SOL     OW 7630   6.289   6.673   4.046 -0.0298  0.2456 -0.2125
 2244SOL    HW1 7631   6.232   6.670   4.128 -0.7649  1.0675 -0.6638
 2244SOL    HW2 7632   6.385   6.673   4.071 -0.2221 -0.9595  0.5821
 2245SOL     OW 7633   5.513   4.977   3.231  0.3104 -0.1448  0.3171
 2245SOL    HW1 7634   5.464   4.981   3.143 -0.9635  0.0892  1.0071
 2245SOL    HW2 7635   5.516   4.883   3.263 -0.3272 -0.0685  0.6114
 2246SOL     OW 7636   4.758   0.063   2.850  0.5554 -0.1535  0.0754
 2246SOL    HW1 7637   4.784  -0.032   2.867 -1.7366 -0.6292  1.2400
 2246SOL    HW2 7638   4.805   0.123   2.915  1.0553 -0.6246  0.1544
 2247SOL     OW 7639   3.247   0.581   1.966 -0.0156  0.4515 -0.1416
 2247SOL    HW1 7640   3.165   0.526   1.979 -0.7884  1.5801 -0.0760
 2247SOL    HW2 7641   3.321   0.545   2.023 -0.2223 -1.0373 -0.7686
 2248SOL     OW 7642   6.824   6.991   4.766 -0.5151  0.1547 -0.5153
 2248SOL    HW1 7643   6.916   6.979   4.730 -0.4432  0.8935 -0.5886
 2248SOL    HW2 7644   6.822   7.070   4.827 -0.9561 -0.2410 -0.0097
 2249SOL     OW 7645   4.021   2.867   1.587 -0.5182 -0.1058  0.0717
 2249SOL    HW1 7646   3.966   2.910   1.516  0.2075  0.9902  0.1454
 2249SOL    HW2 7647   4.117   2.893   1.575 -0.5278  1.1410  2.1408
 2250SOL     OW 7648   0.584   3.060   3.233 -0.0890 -0.0566  0.3326
 2250SOL    HW1 7649   0.590   3.159   3.243  0.0516 -0.0418  0.1017
 2250SOL    HW2 7650   0.676   3.022   3.222 -0.0160 -0.3529  1.7530
 2251SOL     OW 7651   0.540   6.009   7.001  0.3020  0.5173  0.2875
 2251SOL    HW1 7652   0.535   6.010   6.902 -0.4271 -0.7307  0.2808
 2251SOL    HW2 7653   0.623   5.960   7.030  0.0517  0.0772  0.2762
 2252SOL     OW 7654   5.722   0.694   0.945  0.0777 -0.3792 -0.3218
 2252SOL    HW1 7655   5.647   0.757   0.925  0.1508 -0.2401 -0.1661
 2252SOL    HW2 7656   5.687   0.612   0.990 -0.1082 -0.7654 -1.1551
 2253SOL     OW 7657   3.923   6.496   1.524  0.2585  0.0417  0.0787
 2253SOL    HW1 7658   3.881   6.554   1.453 -1.6718 -1.2740  0.0595
 2253SOL    HW2 7659   3.916   6.542   1.612 -3.1832 -0.8748  0.4360
 2254SOL     OW 7660   4.622   6.184   2.286 -0.1505  0.0862  0.7737
 2254SOL    HW1 7661   4.687   6.115   2.258 -2.4962 -1.6969 -0.6564
 2254SOL    HW2 7662   4.612   6.253   2.215 -0.2695  0.0063  0.7120
 2255SOL     OW 7663   4.039   5.247   6.227  0.3407  0.4505 -0.4290
 2255SOL    HW1 7664   4.072   5.252   6.132  0.4229  1.7717 -0.3508
 2255SOL    HW2 7665   3.942   5.224   6.227  0.2416  0.8397 -0.8635
 2256SOL     OW 7666   4.715   6.596   1.005  0.1254  0.3592 -0.0422
 2256SOL    HW1 7667   4.780   6.538   0.956 -0.2031  0.0575 -0.1208
 2256SOL    HW2 7668   4.763   6.643   1.080 -0.1569 -2.3293  2.0015
 2257SOL     OW 7669   6.463   0.760   0.487 -0.0403 -0.4573 -0.4131
 2257SOL    HW1 7670   6.543   0.723   0.533 -0.7153  0.2316  1.4157
 2257SOL    HW2 7671   6.440   0.703   0.408  1.3738 -1.4842 -0.1147
 2258SOL     OW 7672   2.773   0.266   2.461  0.8359 -0.8691 -0.2528
 2258SOL    HW1 7673   2.700   0.295   2.399  0.3820 -0.8990  0.2585
 2258SOL    HW2 7674   2.833   0.343   2.480  0.0902 -0.4435  0.4747
 2259SOL     OW 7675   5.303   4.508   1.941 -0.1736 -0.1088  0.0080
 2259SOL    HW1 7676   5.367   4.573   1.982 -1.2799  1.1564 -0.1733
 2259SOL    HW2 7677   5.213   4.519   1.983 -0.5040 -1.1903 -0.3855
 2260SOL     OW 7678   5.025   3.853   4.230 -0.4359  0.1709 -0.4635
 2260SOL    HW1 7679   4.980   3.931   4.185 -2.4192  0.6001  1.9840
 2260SOL    HW2 7680   4.965   3.773   4.227 -0.7951  0.3026  1.5376
 2261SOL     OW 7681   0.626   5.171   5.549  0.0034  0.3665 -0.0711
 2261SOL    HW1 7682   0.574   5.120   5.481  1.1120  0.1510 -0.7688
 2261SOL    HW2 7683   0.562   5.217   5.611 -1.0194  0.3874 -1.1024
 2262SOL     OW 7684   2.390   1.257   6.371 -0.2861 -0.0906 -0.4153
 2262SOL    HW1 7685   2.369   1.197   6.448 -2.1509  0.9382 -0.0626
 2262SOL    HW2 7686   2.488   1.257   6.354  0.4317  0.9409  3.0353
 2263SOL     OW 7687   0.548   5.993   3.704 -0.3256  0.2845  0.3383
 2263SOL    HW1 7688   0.554   6.076   3.759  0.6073 -0.8862  2.0765
 2263SOL    HW2 7689   0.616   5.927   3.734 -0.0098 -0.5684 -2.0272
 2264SOL     OW 7690   4.024   3.747   1.926 -0.3725  0.1404  0.1240
 2264SOL    HW1 7691   3.976   3.705   1.849 -0.5821 -0.5786  0.6365
 2264SOL    HW2 7692   4.060   3.836   1.898 -0.7525  0.0477 -0.6963
 2265SOL     OW 7693   6.380   4.760   6.388  0.0848 -0.1899 -0.1287
 2265SOL    HW1 7694   6.375   4.661   6.371 -0.9192 -0.1278 -0.2541
 2265SOL    HW2 7695   6.290   4.800   6.376  0.2110  0.5508  1.1659
 2266SOL     OW 7696   0.330   6.761   1.904 -0.0946 -0.0871  0.1705
 2266SOL    HW1 7697   0.393   6.809   1.842 -0.6192  1.0725  0.4950
 2266SOL    HW2 7698   0.241   6.751   1.859  0.6368 -2.9723 -0.8357
 2267SOL     OW 7699   5.642   0.793   0.636  0.2779  0.7987  0.6891
 2267SOL    HW1 7700   5.719   0.755   0.585  1.1253  0.3682  2.2060
 2267SOL    HW2 7701   5.572   0.724   0.649  0.9906  0.2591  1.8476
 2268SOL     OW 7702   6.257   0.337   3.009  0.2163  0.6554  0.2120
 2268SOL    HW1 7703   6.338   0.395   3.004  0.4922  0.1504 -1.4549
 2268SOL    HW2 7704   6.199   0.353   2.929 -0.3177 -0.4927  0.3510
 2269SOL     OW 7705   3.133   6.245   3.650 -0.4869  0.7941  0.3974
 2269SOL    HW1 7706   3.136   6.295   3.736 -0.8515  0.1659  0.7878
 2269SOL    HW2 7707   3.206   6.176   3.649 -1.4307 -0.2461  0.8829
 2270SOL     OW 7708   3.141   1.972   6.099  0.3945  0.6786 -0.2459
 2270SOL    HW1 7709   3.048   1.936   6.109  1.1563 -1.2055  0.5876
 2270SOL    HW2 7710   3.150   2.055   6.154 -0.7992  0.9119 -0.3692
 2271SOL     OW 7711   3.489   4.771   0.788  0.0678 -0.0325 -0.1830
 2271SOL    HW1 7712   3.404   4.823   0.794 -0.3730 -0.4243 -2.4450
 2271SOL    HW2 7713   3.493   4.721   0.702  1.2278 -2.4953  1.1777
 2272SOL     OW 7714   3.648   6.834   0.578 -0.2716  0.1239 -0.1826
 2272SOL    HW1 7715   3.710   6.856   0.653 -0.8688  0.2275  0.2885
 2272SOL    HW2 7716   3.637   6.913   0.519 -0.1475  0.1798 -0.1309
 2273SOL     OW 7717   2.879   3.547   2.507  0.6104  0.3083 -0.5769
 2273SOL    HW1 7718   2.799   3.517   2.454  0.3780  0.0346 -0.0752
 2273SOL    HW2 7719   2.884   3.496   2.592  0.7419  1.0433 -0.1328
 2274SOL     OW 7720   5.607   0.706   2.073 -0.0692  0.4677 -0.4233
 2274SOL    HW1 7721   5.611   0.698   1.973  0.8682  0.6293 -0.4072
 2274SOL    HW2 7722   5.525   0.757   2.099  0.2451  1.3744 -1.1687
 2275SOL     OW 7723   6.693   3.303   2.715  0.6143  0.0822  0.2370
 2275SOL    HW1 7724   6.688   3.401   2.698  0.1868  0.0751  0.3180
 2275SOL    HW2 7725   6.773   3.265   2.668 -1.5024 -0.2607 -3.4784
 2276SOL     OW 7726   4.768   2.103   0.159 -0.0766  0.0789 -0.2552
 2276SOL    HW1 7727   4.845   2.156   0.122  0.9295 -0.7264  0.6060
 2276SOL    HW2 7728   4.738   2.037   0.090  1.0134 -0.6179 -0.0932
 2277SOL     OW 7729   4.761   6.758   6.604  0.1582 -0.0694  0.3045
 2277SOL    HW1 7730   4.793   6.663   6.611 -0.1168 -0.1806  0.0635
 2277SOL    HW2 7731   4.839   6.818   6.585  0.1755 -0.3862 -0.6785
 2278SOL     OW 7732   6.717   0.041   5.092  0.1511  0.2053 -0.6126
 2278SOL    HW1 7733   6.788  -0.027   5.074 -0.5757 -0.9440  0.6868
 2278SOL    HW2 7734   6.760   0.127   5.121  1.0262 -0.4066 -0.0622
 2279SOL     OW 7735   3.014   6.926   4.005  0.0750 -0.3686 -0.9692
 2279SOL    HW1 7736   2.981   6.888   3.918 -2.7678 -0.7507  0.1386
 2279SOL    HW2 7737   2.981   6.869   4.080  0.5337  1.1915  0.4780
 2280SOL     OW 7738   0.721   6.738   5.578  0.0701  0.0860  0.4522
 2280SOL    HW1 7739   0.795   6.727   5.644 -0.2156 -0.8905  0.6222
 2280SOL    HW2 7740   0.674   6.651   5.565 -1.2024  0.7361  0.5368
 2281SOL     OW 7741   0.587   2.777   3.921 -0.3997 -0.3102  0.6292
 2281SOL    HW1 7742   0.520   2.706   3.940 -0.5112 -0.1030  1.0261
 2281SOL    HW2 7743   0.644   2.750   3.843  0.8616 -1.7322  1.9637
 2282SOL     OW 7744   5.763   3.707   1.187  0.0971  0.5231  0.5224
 2282SOL    HW1 7745   5.712   3.786   1.152  1.4655  0.8744 -0.8365
 2282SOL    HW2 7746   5.847   3.739   1.231  1.2632 -0.1744 -1.0967
 2283SOL     OW 7747   1.970   6.018   2.196 -0.2149 -0.3442  0.3504
 2283SOL    HW1 7748   1.927   6.037   2.107 -0.2572 -0.3457  0.3704
 2283SOL    HW2 7749   2.014   6.102   2.229  0.9215 -0.6691 -0.2769
 2284SOL     OW 7750   0.261   0.855   4.033  0.0177  0.4810  0.9185
 2284SOL    HW1 7751   0.176   0.806   4.014  0.5866 -0.2672  0.2360
 2284SOL    HW2 7752   0.339   0.802   4.000  0.6497  1.8869  0.0467
 2285SOL     OW 7753   5.149   5.449   6.273 -0.5346  0.4100  0.0131
 2285SOL    HW1 7754   5.222   5.433   6.339 -0.7928 -2.0403 -0.2144
 2285SOL    HW2 7755   5.174   5.408   6.185 -3.0550 -2.5889  0.5487
 2286SOL     OW 7756   4.010   0.595   1.902  0.2658  0.0130  0.2358
 2286SOL    HW1 7757   4.096   0.545   1.914 -0.7325 -2.0517 -0.7712
 2286SOL    HW2 7758   3.935   0.530   1.891 -1.3069  1.7711  0.2012
 2287SOL     OW 7759   1.227   2.910   2.222 -0.0934  0.1446 -0.2731
 2287SOL    HW1 7760   1.158   2.949   2.162 -1.0307  0.9544  1.2483
 2287SOL    HW2 7761   1.318   2.935   2.190 -0.5062 -0.3045 -1.8886
 2288SOL     OW 7762   4.759   5.852   5.167 -0.4804 -0.6333 -0.0871
 2288SOL    HW1 7763   4.750   5.932   5.225  0.4514 -0.5978  0.0346
 2288SOL    HW2 7764   4.747   5.769   5.221  0.2962 -0.5991  0.1547
 2289SOL     OW 7765   6.243   0.759   4.652  0.1649  0.3218  0.5687
 2289SOL    HW1 7766   6.194   0.822   4.592 -0.5643 -2.3498 -1.8736
 2289SOL    HW2 7767   6.330   0.734   4.609 -0.0797 -1.1774  0.8900
 2290SOL     OW 7768   6.799   5.954   5.411  0.2435 -0.0165 -0.3640
 2290SOL    HW1 7769   6.743   5.879   5.377 -0.3673 -0.3493  1.2850
 2290SOL    HW2 7770   6.751   6.000   5.487  0.9143  1.5950 -0.8653
 2291SOL     OW 7771   1.085   5.203   0.795  0.8635  0.0952 -0.4453
 2291SOL    HW1 7772   1.126   5.121   0.755  0.6785  0.1472 -0.7434
 2291SOL    HW2 7773   1.157   5.270   0.813  0.9566  0.0528 -0.6492
 2292SOL     OW 7774   1.817   2.767   4.661  0.1904 -0.6867  0.0791
 2292SOL    HW1 7775   1.862   2.776   4.750 -0.3820  1.2124  0.2215
 2292SOL    HW2 7776   1.727   2.724   4.673  0.5867 -1.4879  0.2398
 2293SOL     OW 7777   5.449   0.676   3.585  0.1691  0.1270  0.3990
 2293SOL    HW1 7778   5.372   0.612   3.581 -1.9635  2.5976 -0.5518
 2293SOL    HW2 7779   5.491   0.672   3.676 -0.5123 -1.8558  0.6815
 2294SOL     OW 7780   1.502   2.507   6.694 -0.3781 -0.0553  0.1861
 2294SOL    HW1 7781   1.442   2.486   6.617 -0.4524 -1.0267  0.5005
 2294SOL    HW2 7782   1.574   2.438   6.701  0.0546  0.4230  0.5516
 2295SOL     OW 7783   1.173   3.579   0.080  0.0511  0.2303 -0.5103
 2295SOL    HW1 7784   1.210   3.563  -0.012 -0.4403 -0.3937 -0.6106
 2295SOL    HW2 7785   1.110   3.656   0.077 -1.6868 -1.1354 -1.2120
 2296SOL     OW 7786   2.382   4.437   2.641  0.4418 -0.2176 -0.1186
 2296SOL    HW1 7787   2.470   4.460   2.682 -0.2384  1.2061  0.5921
 2296SOL    HW2 7788   2.396   4.408   2.546  1.7484 -0.8688  0.2449
 2297SOL     OW 7789   6.381   0.286   5.852  0.4080 -0.0564  0.3700
 2297SOL    HW1 7790   6.470   0.315   5.815 -0.6614  0.1382 -2.3206
 2297SOL    HW2 7791   6.386   0.189   5.877  1.1683 -0.2996 -0.6181
 2298SOL     OW 7792   4.492   0.197   5.373  0.0703 -0.5852 -0.5647
 2298SOL    HW1 7793   4.589   0.216   5.393 -0.1571  0.1206 -0.1090
 2298SOL    HW2 7794   4.449   0.280   5.336 -0.7103 -0.4571  0.5752
 2299SOL     OW 7795   1.709   6.799   2.910  0.7979 -0.0897 -0.1064
 2299SOL    HW1 7796   1.790   6.854   2.931  0.6052  0.0133  0.3791
 2299SOL    HW2 7797   1.722   6.706   2.942  0.4766  0.0844  0.5460
 2300SOL     OW 7798   1.682   0.172   0.704  0.1276  0.7543  0.5425
 2300SOL    HW1 7799   1.627   0.245   0.743 -0.9381 -0.1739  0.8185
 2300SOL    HW2 7800   1.696   0.190   0.606 -0.2436  1.2537  0.5763
 2301SOL     OW 7801   4.405   5.931   2.691 -0.5296 -0.4038 -0.5127
 2301SOL    HW1 7802   4.432   6.009   2.747  0.7975 -1.4873  0.4622
 2301SOL    HW2 7803   4.305   5.925   2.687 -0.6454  1.2164 -0.4686
 2302SOL     OW 7804   3.151   1.512   4.727  0.0300  0.1002 -0.1723
 2302SOL    HW1 7805   3.204   1.580   4.778  0.6265 -1.1829  0.9807
 2302SOL    HW2 7806   3.070   1.556   4.688 -0.4169  1.1906  1.8256
 2303SOL     OW 7807   4.805   1.381   5.802 -0.4259 -0.6809  0.2051
 2303SOL    HW1 7808   4.774   1.295   5.762  0.9077 -1.1535  0.1311
 2303SOL    HW2 7809   4.829   1.445   5.729 -1.5791 -0.1652  0.2585
 2304SOL     OW 7810   4.739   1.936   2.068 -0.8140 -0.6973  0.0119
 2304SOL    HW1 7811   4.651   1.964   2.030 -0.2552 -1.2204 -1.7497
 2304SOL    HW2 7812   4.795   2.016   2.087 -1.4754 -0.3857  0.7165
 2305SOL     OW 7813   1.739   2.973   6.213 -0.1668 -0.4223  0.1074
 2305SOL    HW1 7814   1.749   3.032   6.133 -0.4166  0.6209  0.8235
 2305SOL    HW2 7815   1.656   2.998   6.263  0.4581 -0.4214  1.1941
 2306SOL     OW 7816   5.086   1.281   6.308  0.1659 -0.2185  0.0113
 2306SOL    HW1 7817   5.122   1.196   6.271  1.0722  0.5770 -1.0042
 2306SOL    HW2 7818   5.161   1.334   6.349  0.1544  1.2931 -1.7902
 2307SOL     OW 7819   2.360   1.056   5.031  0.1610  0.3788 -0.2035
 2307SOL    HW1 7820   2.410   1.025   5.112  0.2431  1.1277  0.0327
 2307SOL    HW2 7821   2.424   1.088   4.962  0.0310  0.9895 -0.0448
 2308SOL     OW 7822   1.286   4.231   2.251 -0.0322  0.0890  0.3613
 2308SOL    HW1 7823   1.365   4.258   2.196 -1.1445  1.8677 -0.4441
 2308SOL    HW2 7824   1.202   4.242   2.198 -0.8292 -2.2916  1.0098
 2309SOL     OW 7825   1.369   6.224   4.935  0.5992  0.5546 -0.0512
 2309SOL    HW1 7826   1.309   6.291   4.892  1.0592  1.0413  0.0545
 2309SOL    HW2 7827   1.448   6.208   4.877  1.1756  1.1450  0.5540
 2310SOL     OW 7828   0.445   3.157   0.974  0.3930  0.5136 -0.3207
 2310SOL    HW1 7829   0.388   3.185   0.897 -0.4085 -1.9641 -0.7479
 2310SOL    HW2 7830   0.535   3.128   0.941  0.8370  1.5139 -0.0235
 2311SOL     OW 7831   1.897   1.688   6.443 -0.2349  0.1501 -0.0767
 2311SOL    HW1 7832   1.916   1.680   6.345  1.0457 -2.1510  0.2730
 2311SOL    HW2 7833   1.817   1.633   6.466  0.5631 -0.8395  0.4091
 2312SOL     OW 7834   3.243   4.373   6.875 -0.6501  0.3935  0.1986
 2312SOL    HW1 7835   3.229   4.437   6.799 -3.9085 -1.3983 -0.8768
 2312SOL    HW2 7836   3.199   4.410   6.958 -0.9282  0.3684  0.0623
 2313SOL     OW 7837   0.517   0.646   2.195 -0.3760  0.5057  0.0660
 2313SOL    HW1 7838   0.524   0.547   2.205  0.7136  0.4772 -0.8355
 2313SOL    HW2 7839   0.486   0.686   2.282 -0.2523 -0.5687  0.6203
 2314SOL     OW 7840   0.841   6.585   6.667  0.9970 -0.3168  0.1746
 2314SOL    HW1 7841   0.879   6.642   6.594  0.1742 -1.6544 -1.3581
 2314SOL    HW2 7842   0.746   6.610   6.682  0.7383 -1.0232 -0.2558
 2315SOL     OW 7843   0.851   4.989   2.262 -0.8822  0.4731  0.0010
 2315SOL    HW1 7844   0.847   5.088   2.278  0.3871  0.4303  0.7153
 2315SOL    HW2 7845   0.762   4.948   2.282 -1.2841  1.4033  0.1620
 2316SOL     OW 7846   4.076   0.546   5.525 -0.3526 -1.0499  0.1929
 2316SOL    HW1 7847   4.080   0.587   5.434  0.1530  0.4597  0.8744
 2316SOL    HW2 7848   3.989   0.569   5.568 -0.3145 -1.2019  0.3499
 2317SOL     OW 7849   1.726   5.350   1.805 -0.3580 -0.2359 -0.2908
 2317SOL    HW1 7850   1.756   5.428   1.750 -2.2537  1.5087  1.0450
 2317SOL    HW2 7851   1.642   5.312   1.766 -1.0456  0.2512  0.6835
 2318SOL     OW 7852   1.767   0.111   3.786  0.6055  0.7879 -0.3306
 2318SOL    HW1 7853   1.862   0.141   3.786  0.6320  0.7050 -0.1850
 2318SOL    HW2 7854   1.736   0.097   3.880  0.0791  1.9807 -0.3157
 2319SOL     OW 7855   3.493   1.462   0.660 -0.2102 -0.3005  0.6196
 2319SOL    HW1 7856   3.432   1.510   0.597 -2.0246 -0.7787  1.9378
 2319SOL    HW2 7857   3.461   1.369   0.674  0.8399 -0.5735  1.3491
 2320SOL     OW 7858   1.440   3.154   0.335  0.1723 -0.1255  0.3725
 2320SOL    HW1 7859   1.470   3.247   0.357  0.4005  0.1203 -0.9135
 2320SOL    HW2 7860   1.351   3.137   0.377 -0.7330  1.3294 -0.8538
 2321SOL     OW 7861   6.096   1.979   2.914  0.5096 -0.8694  0.3764
 2321SOL    HW1 7862   6.000   2.006   2.906  0.5603 -1.0057 -0.9457
 2321SOL    HW2 7863   6.116   1.955   3.009 -0.3629  0.6364  0.9927
 2322SOL     OW 7864   4.204   1.619   4.249  0.0659 -0.3650 -0.2123
 2322SOL    HW1 7865   4.142   1.641   4.173 -0.0594  0.2359  0.0626
 2322SOL    HW2 7866   4.187   1.525   4.279 -1.6910  0.2249  0.7714
 2323SOL     OW 7867   2.942   3.389   3.189  0.4161  0.4554  0.1668
 2323SOL    HW1 7868   2.938   3.431   3.280  2.9002  0.6527  0.2541
 2323SOL    HW2 7869   2.945   3.290   3.198  0.8592  0.4816  0.3125
 2324SOL     OW 7870   0.687   3.100   0.858  0.1752  0.6233  0.1126
 2324SOL    HW1 7871   0.672   3.129   0.763 -0.3935 -0.0980 -0.0210
 2324SOL    HW2 7872   0.782   3.120   0.883  0.6509 -0.1462 -0.9623
 2325SOL     OW 7873   6.932   3.061   3.520  0.0248  0.3570 -0.4308
 2325SOL    HW1 7874   6.971   3.076   3.430 -0.5367 -1.8857 -1.1052
 2325SOL    HW2 7875   7.006   3.054   3.588  0.4777  1.3592 -0.7999
 2326SOL     OW 7876   5.952   1.763   2.207 -0.0022  0.0053  0.2143
 2326SOL    HW1 7877   5.969   1.745   2.304  3.3426  0.0585 -0.2568
 2326SOL    HW2 7878   5.863   1.723   2.182 -0.3491 -1.2279  2.9542
 2327SOL     OW 7879   6.087   2.078   5.780  0.3985 -0.2763  0.2522
 2327SOL    HW1 7880   6.151   2.001   5.769  0.5864 -0.0905  0.0344
 2327SOL    HW2 7881   6.060   2.085   5.875  0.7384 -0.3333  0.3551
 2328SOL     OW 7882   1.125   1.219   0.060  0.2154 -0.3910 -0.2331
 2328SOL    HW1 7883   1.180   1.190  -0.018 -0.8441 -2.9308 -0.1250
 2328SOL    HW2 7884   1.028   1.205   0.040 -0.2791  1.4277  0.6052
 2329SOL     OW 7885   5.455   3.794   4.186 -0.0283 -0.3024  0.7103
 2329SOL    HW1 7886   5.385   3.864   4.175 -0.8392 -1.3369 -1.1183
 2329SOL    HW2 7887   5.506   3.810   4.271 -1.0678  1.6886  0.9963
 2330SOL     OW 7888   5.309   6.185   1.833 -0.1625  0.4342  0.3150
 2330SOL    HW1 7889   5.331   6.108   1.893 -0.0439  0.8344  0.7898
 2330SOL    HW2 7890   5.372   6.186   1.756 -0.3927 -0.1556  0.1072
 2331SOL     OW 7891   1.823   6.826   5.767  0.0656  0.2178  0.1628
 2331SOL    HW1 7892   1.867   6.781   5.844 -2.3904 -0.4319  1.3019
 2331SOL    HW2 7893   1.800   6.920   5.792  1.1720  0.7099 -0.5948
 2332SOL     OW 7894   3.885   5.392   4.042 -0.2078  0.1901  0.1804
 2332SOL    HW1 7895   3.823   5.370   3.966  0.9149  0.3192 -0.8151
 2332SOL    HW2 7896   3.853   5.473   4.089 -0.3283  0.7839 -0.8947
 2333SOL     OW 7897   6.105   4.543   6.610  0.1312 -0.2523 -0.7989
 2333SOL    HW1 7898   6.090   4.548   6.512  1.2595 -1.2220 -1.0450
 2333SOL    HW2 7899   6.105   4.447   6.639  1.1572 -0.0583 -0.0928
 2334SOL     OW 7900   2.071   6.871   0.438  0.2915  0.4197  0.2289
 2334SOL    HW1 7901   2.155   6.926   0.444  1.0472 -0.7571  0.9414
 2334SOL    HW2 7902   2.033   6.858   0.530 -0.1875  0.2204  0.0059
 2335SOL     OW 7903   4.254   2.087   2.911  0.2292  0.3497  0.7317
 2335SOL    HW1 7904   4.254   2.187   2.906 -0.1739  0.2833 -1.7082
 2335SOL    HW2 7905   4.160   2.054   2.910  0.3594 -0.0856 -1.2575
 2336SOL     OW 7906   0.931   4.320   5.486 -0.2863  0.2373  0.2035
 2336SOL    HW1 7907   0.834   4.316   5.510 -0.6930  0.1166 -1.3441
 2336SOL    HW2 7908   0.960   4.232   5.446  0.3119  0.4648  0.1183
 2337SOL     OW 7909   4.624   4.746   5.168 -0.1697 -0.0470  0.3149
 2337SOL    HW1 7910   4.688   4.800   5.113 -1.6586 -0.1564 -1.6692
 2337SOL    HW2 7911   4.674   4.698   5.240  1.6848  1.2539 -0.0259
 2338SOL     OW 7912   5.584   3.804   3.954  0.3446 -0.3231 -0.2029
 2338SOL    HW1 7913   5.651   3.876   3.975  0.0054 -0.0956  0.1104
 2338SOL    HW2 7914   5.517   3.798   4.028 -1.0195  0.6597 -1.3134
 2339SOL     OW 7915   3.958   3.977   2.901  0.5459 -0.5123  0.5982
 2339SOL    HW1 7916   3.873   4.018   2.867 -0.2782 -0.1050  2.9709
 2339SOL    HW2 7917   4.016   3.953   2.823 -0.6936  1.3839 -1.0339
 2340SOL     OW 7918   1.868   6.259   7.006 -0.3178 -0.9634  0.2940
 2340SOL    HW1 7919   1.914   6.193   6.946  2.7141 -0.7902  2.1853
 2340SOL    HW2 7920   1.840   6.214   7.091 -0.5193 -0.3450  0.5623
 2341SOL     OW 7921   6.336   5.973   1.405  0.2513  0.6818  0.2446
 2341SOL    HW1 7922   6.362   5.966   1.501  1.3092 -0.8398 -0.1154
 2341SOL    HW2 7923   6.417   5.962   1.348 -0.7112 -0.9589 -0.8761
 2342SOL     OW 7924   5.671   3.643   0.268 -0.0658 -0.2322 -0.0007
 2342SOL    HW1 7925   5.615   3.620   0.188 -1.7084 -0.8858  1.2925
 2342SOL    HW2 7926   5.654   3.737   0.295 -2.9146 -1.2036  2.1112
 2343SOL     OW 7927   5.269   0.135   3.044 -0.1700 -0.5900 -0.7237
 2343SOL    HW1 7928   5.281   0.050   2.993  2.3142  0.8581 -2.7917
 2343SOL    HW2 7929   5.242   0.208   2.982  1.5715  0.9515  0.1968
 2344SOL     OW 7930   0.259   1.034   4.216 -0.1849 -0.1636 -0.7481
 2344SOL    HW1 7931   0.282   0.961   4.152  1.7292 -0.5171  0.2523
 2344SOL    HW2 7932   0.275   1.003   4.309 -3.4645  0.1414  0.0435
 2345SOL     OW 7933   0.027   3.454   1.249  0.0334 -0.4960 -0.4244
 2345SOL    HW1 7934   0.120   3.453   1.212 -0.0221  0.9413 -0.6431
 2345SOL    HW2 7935  -0.033   3.504   1.187 -0.3464  0.7603  0.9089
 2346SOL     OW 7936   3.186   4.070   4.569 -0.9805 -0.1774  0.7504
 2346SOL    HW1 7937   3.181   3.972   4.589 -0.9295 -0.4637 -0.5393
 2346SOL    HW2 7938   3.094   4.106   4.556 -1.0656  0.1803  2.1899
 2347SOL     OW 7939   0.326   1.144   1.871 -0.3834  0.0290 -0.0723
 2347SOL    HW1 7940   0.247   1.204   1.877 -0.2898  0.1140  0.3718
 2347SOL    HW2 7941   0.298   1.049   1.886 -1.2998 -0.7396 -4.8596
 2348SOL     OW 7942   3.159   6.301   6.492  0.3739 -0.0797 -0.2052
 2348SOL    HW1 7943   3.128   6.214   6.530 -2.2889  1.0473  0.4291
 2348SOL    HW2 7944   3.130   6.308   6.397 -0.7854  0.6961  0.1853
 2349SOL     OW 7945   1.762   5.654   5.757 -1.1915 -0.1283  0.7135
 2349SOL    HW1 7946   1.760   5.754   5.749 -0.0448 -0.1166  0.4471
 2349SOL    HW2 7947   1.669   5.618   5.747 -1.3594  0.7360 -1.3963
 2350SOL     OW 7948   2.395   1.434   1.919 -0.1797 -0.8098  0.6728
 2350SOL    HW1 7949   2.476   1.381   1.894 -0.0407  0.3397 -1.5165
 2350SOL    HW2 7950   2.415   1.531   1.913 -1.5297 -0.5048  0.7543
 2351SOL     OW 7951   0.290   4.999   5.056  0.1463  0.5847 -0.9683
 2351SOL    HW1 7952   0.282   5.098   5.068 -1.3370  0.3016  0.8478
 2351SOL    HW2 7953   0.246   4.972   4.970  0.5264  1.4839 -1.4551
 2352SOL     OW 7954   5.573   1.721   3.216 -0.3249 -0.7615  0.1696
 2352SOL    HW1 7955   5.585   1.781   3.295 -0.4456  0.5229 -0.7334
 2352SOL    HW2 7956   5.488   1.746   3.169 -0.2535 -1.4917 -0.3635
 2353SOL     OW 7957   3.524   3.210   2.992 -0.0113  0.2081  0.4667
 2353SOL    HW1 7958   3.464   3.235   3.069 -1.8399 -2.5669  0.0786
 2353SOL    HW2 7959   3.567   3.122   3.011  0.5852  0.1269 -1.1437
 2354SOL     OW 7960   1.612   3.443   0.573  0.0134  0.5088 -0.1139
 2354SOL    HW1 7961   1.664   3.506   0.514 -0.6127  1.9476  0.8078
 2354SOL    HW2 7962   1.595   3.487   0.661 -1.6556 -0.4318  0.0622
 2355SOL     OW 7963   4.899   0.795   2.817  0.1955  0.2776 -0.7574
 2355SOL    HW1 7964   4.913   0.696   2.823 -0.8761  0.1198 -0.7092
 2355SOL    HW2 7965   4.986   0.840   2.795  0.6295 -0.6944 -1.0577
 2356SOL     OW 7966   3.546   2.766   0.873  0.0320 -0.3560  0.0559
 2356SOL    HW1 7967   3.472   2.794   0.811 -0.0709  0.6480  0.6248
 2356SOL    HW2 7968   3.556   2.666   0.869 -1.1814 -0.4825 -0.2186
 2357SOL     OW 7969   4.446   2.261   2.739 -0.0071 -0.2983  0.6886
 2357SOL    HW1 7970   4.404   2.307   2.661  2.2455 -1.4487 -1.3181
 2357SOL    HW2 7971   4.480   2.330   2.803 -0.6156  0.7085 -0.0307
 2358SOL     OW 7972   4.409   6.900   5.093 -0.5639  0.1763  0.2228
 2358SOL    HW1 7973   4.311   6.888   5.078 -0.7311  1.0765  0.5314
 2358SOL    HW2 7974   4.444   6.969   5.030  0.1194 -0.9605 -0.6817
 2359SOL     OW 7975   0.421   4.498   2.873 -0.0573 -0.2012  0.1197
 2359SOL    HW1 7976   0.401   4.482   2.777  1.6931 -2.5330  0.0502
 2359SOL    HW2 7977   0.338   4.526   2.921 -1.3427 -0.6869 -1.7294
 2360SOL     OW 7978   5.342   5.431   6.530 -0.3329 -0.8576  0.1601
 2360SOL    HW1 7979   5.262   5.418   6.589 -0.3711  3.3695  1.4094
 2360SOL    HW2 7980   5.425   5.408   6.581 -0.5770 -1.5894  0.2322
 2361SOL     OW 7981   5.820   1.953   3.282  0.3896  0.9926 -0.1035
 2361SOL    HW1 7982   5.912   1.950   3.244 -0.4420  0.4896 -2.2500
 2361SOL    HW2 7983   5.754   1.968   3.209 -1.6159 -3.0119  0.5657
 2362SOL     OW 7984   1.593   1.634   0.371  0.7255  0.1774 -0.2343
 2362SOL    HW1 7985   1.533   1.667   0.298 -0.2812 -1.1923 -0.0603
 2362SOL    HW2 7986   1.557   1.548   0.408  1.2669  0.7615  1.7960
 2363SOL     OW 7987   1.626   1.449   5.744  0.5366 -0.6366  0.4681
 2363SOL    HW1 7988   1.676   1.482   5.665 -2.5646  2.1979 -0.5547
 2363SOL    HW2 7989   1.678   1.467   5.828  0.9555  2.9679 -0.4420
 2364SOL     OW 7990   4.862   0.349   2.051 -0.1480 -0.5257  0.1684
 2364SOL    HW1 7991   4.863   0.448   2.065 -0.9869 -0.8070  2.8417
 2364SOL    HW2 7992   4.910   0.327   1.967 -1.0175  2.2173 -1.1680
 2365SOL     OW 7993   2.334   6.788   1.440 -0.0154 -0.0289  0.5601
 2365SOL    HW1 7994   2.420   6.802   1.389  0.2248 -0.3012  0.8886
 2365SOL    HW2 7995   2.354   6.779   1.537 -0.6038  2.1128  0.9407
 2366SOL     OW 7996   5.883   4.654   0.266 -0.2749 -0.4469  0.1238
 2366SOL    HW1 7997   5.807   4.719   0.264 -0.8286 -1.0964 -0.5113
 2366SOL    HW2 7998   5.863   4.577   0.205  0.7139 -0.8311  0.2614
 2367SOL     OW 7999   5.776   4.345   6.060  0.4577 -1.0062 -0.1569
 2367SOL    HW1 8000   5.744   4.268   6.004 -1.6898 -0.6608  0.4948
 2367SOL    HW2 8001   5.793   4.424   6.001  2.6480 -1.9073 -0.8291
 2368SOL     OW 8002   0.356   1.691   5.724  0.2305 -0.1138 -0.8056
 2368SOL    HW1 8003   0.369   1.756   5.648 -0.8965 -0.2497 -1.1370
 2368SOL    HW2 8004   0.441   1.640   5.739  1.6180  2.3431  0.3678
 2369SOL     OW 8005   4.267   0.565   2.694  0.0313  0.0240  0.1318
 2369SOL    HW1 8006   4.298   0.637   2.756  0.1501 -0.2587  0.4050
 2369SOL    HW2 8007   4.228   0.606   2.612 -0.9428  0.4180  0.7772
 2370SOL     OW 8008   0.699   1.412   3.757 -0.2531 -0.2769  0.4131
 2370SOL    HW1 8009   0.670   1.322   3.789 -0.6160  0.1852  1.4362
 2370SOL    HW2 8010   0.644   1.439   3.678 -0.6270 -0.6450  0.5458
 2371SOL     OW 8011   4.061   5.409   5.630  0.1541 -0.0068 -0.0959
 2371SOL    HW1 8012   3.997   5.454   5.692  0.9535  1.6588 -0.4202
 2371SOL    HW2 8013   4.011   5.374   5.551 -0.6180 -0.5382  0.6139
 2372SOL     OW 8014   0.603   6.227   3.486  0.3978 -0.4615  0.6406
 2372SOL    HW1 8015   0.536   6.260   3.420 -1.0017  0.5531  2.4709
 2372SOL    HW2 8016   0.573   6.138   3.523  0.6056 -0.5126  0.6890
 2373SOL     OW 8017   1.674   6.579   5.159  0.2267  0.2419 -0.4499
 2373SOL    HW1 8018   1.740   6.523   5.209 -1.4540 -0.4043  1.1276
 2373SOL    HW2 8019   1.723   6.638   5.095  2.3874  0.3050  1.1487
 2374SOL     OW 8020   0.665   1.087   4.345  0.3367  0.6919  0.1218
 2374SOL    HW1 8021   0.638   1.132   4.260  3.0276  1.8178 -0.2500
 2374SOL    HW2 8022   0.723   1.008   4.323 -0.7781 -0.3835  0.9047
 2375SOL     OW 8023   0.751   5.618   3.281  0.5360  0.0674 -0.3027
 2375SOL    HW1 8024   0.778   5.523   3.270  1.2988  0.3995 -1.5082
 2375SOL    HW2 8025   0.683   5.626   3.355 -0.7538 -1.6236 -1.2491
 2376SOL     OW 8026   4.650   6.511   3.713  0.0455  0.4470  0.3340
 2376SOL    HW1 8027   4.661   6.570   3.634  0.2583 -1.2043 -0.9173
 2376SOL    HW2 8028   4.575   6.446   3.697  1.9783 -1.8980  0.1457
 2377SOL     OW 8029   3.836   2.941   2.652  0.1874 -0.3988 -0.6224
 2377SOL    HW1 8030   3.777   3.021   2.654  0.3760 -0.2701  0.3325
 2377SOL    HW2 8031   3.863   2.921   2.558 -1.6855 -0.6955 -1.1305
 2378SOL     OW 8032   2.674   0.462   1.266  0.2351 -0.2790  0.1549
 2378SOL    HW1 8033   2.772   0.444   1.274 -0.1343 -1.9109  2.1539
 2378SOL    HW2 8034   2.630   0.384   1.221 -0.0477  0.9849 -1.8673
 2379SOL     OW 8035   1.331   6.425   4.237  0.1082 -0.3272  0.2945
 2379SOL    HW1 8036   1.259   6.425   4.167  1.0063 -0.7598 -0.6689
 2379SOL    HW2 8037   1.372   6.334   4.242  0.4259 -0.1504  0.9992
 2380SOL     OW 8038   2.961   3.122   5.131 -0.7309  0.4381  0.2087
 2380SOL    HW1 8039   3.040   3.075   5.092 -0.9633  0.2238 -0.0126
 2380SOL    HW2 8040   2.974   3.221   5.125 -0.5531  0.4042  0.0283
 2381SOL     OW 8041   5.021   0.796   3.244  0.0282 -0.1571  0.0030
 2381SOL    HW1 8042   5.068   0.884   3.239  1.1583 -0.7944 -1.2799
 2381SOL    HW2 8043   5.036   0.756   3.334  2.7299 -0.7138 -0.6053
 2382SOL     OW 8044   2.394   6.855   0.706 -0.4552  0.6246  0.3534
 2382SOL    HW1 8045   2.494   6.846   0.697 -0.7467 -0.5782 -2.5846
 2382SOL    HW2 8046   2.361   6.786   0.771  0.3871 -0.8481 -0.7055
 2383SOL     OW 8047   1.995   6.814   1.582 -0.4502 -1.0645 -0.1949
 2383SOL    HW1 8048   2.003   6.802   1.483 -0.5826 -2.2284 -0.0819
 2383SOL    HW2 8049   1.898   6.822   1.607 -0.4069 -0.5781 -0.1756
 2384SOL     OW 8050   3.601   6.086   4.150 -0.1471  0.0031  0.2193
 2384SOL    HW1 8051   3.591   6.005   4.092  0.7729  0.2374 -0.2951
 2384SOL    HW2 8052   3.645   6.060   4.236 -0.1101 -0.0876  0.1735
 2385SOL     OW 8053   1.726   5.132   2.436  0.1827  0.0749  0.3906
 2385SOL    HW1 8054   1.815   5.101   2.470  0.3252  1.7181  1.6767
 2385SOL    HW2 8055   1.674   5.173   2.512 -0.9912  0.6341 -0.6794
 2386SOL     OW 8056   5.739   5.234   1.701  0.1729 -0.6981 -0.0570
 2386SOL    HW1 8057   5.803   5.293   1.750  0.7194 -1.5229  0.2397
 2386SOL    HW2 8058   5.689   5.289   1.634  0.4494  0.1594  0.4152
 2387SOL     OW 8059   4.600   4.441   2.720 -0.0720  0.1564  0.2618
 2387SOL    HW1 8060   4.527   4.481   2.775 -0.0737 -1.4952  1.5771
 2387SOL    HW2 8061   4.685   4.490   2.737 -0.3080  0.3616  0.8822
 2388SOL     OW 8062   0.805   6.677   3.603  0.4220  0.0563 -0.1283
 2388SOL    HW1 8063   0.902   6.681   3.578  0.1646  0.8420 -1.0736
 2388SOL    HW2 8064   0.779   6.765   3.644  0.3311 -0.4899  1.0071
 2389SOL     OW 8065   5.833   6.142   1.200  0.2925  0.3667  0.1359
 2389SOL    HW1 8066   5.830   6.042   1.199  0.4927  0.3493  0.8863
 2389SOL    HW2 8067   5.868   6.174   1.112  0.1565 -0.2175 -0.1419
 2390SOL     OW 8068   0.768   0.067   1.020  0.3072  0.3617  0.4645
 2390SOL    HW1 8069   0.796   0.130   0.948 -0.1729 -0.5278 -0.5272
 2390SOL    HW2 8070   0.684   0.021   0.993 -0.9447  1.3572  2.4177
 2391SOL     OW 8071   0.710   3.953   5.050  0.2712 -0.5298  0.5334
 2391SOL    HW1 8072   0.786   3.891   5.031  0.5598 -0.0790  0.1900
 2391SOL    HW2 8073   0.746   4.044   5.072 -0.1885 -0.1536 -0.2378
 2392SOL     OW 8074   6.617   3.362   4.471 -0.1675  0.5929 -0.0310
 2392SOL    HW1 8075   6.620   3.264   4.488 -1.5782  0.5403  0.0176
 2392SOL    HW2 8076   6.649   3.381   4.377 -3.3811 -0.3387 -1.4305
 2393SOL     OW 8077   6.702   6.187   3.814 -0.3344  0.2589 -0.3286
 2393SOL    HW1 8078   6.711   6.090   3.837 -0.0863 -0.3874 -2.9107
 2393SOL    HW2 8079   6.789   6.233   3.828 -0.0409 -0.2324 -0.5215
 2394SOL     OW 8080   6.464   3.321   0.156 -0.3588  0.0231  0.3401
 2394SOL    HW1 8081   6.441   3.418   0.161 -0.6345 -0.0698  1.0410
 2394SOL    HW2 8082   6.454   3.280   0.247 -1.1117 -0.8596 -0.1339
 2395SOL     OW 8083   4.462   4.789   2.419 -0.3761  0.1333  0.0975
 2395SOL    HW1 8084   4.510   4.757   2.337  1.7100  1.3573  0.7557
 2395SOL    HW2 8085   4.384   4.729   2.438 -1.5258  0.3660 -3.2746
 2396SOL     OW 8086   5.935   1.252   0.112 -0.4619  0.5318 -0.5082
 2396SOL    HW1 8087   5.913   1.310   0.190  0.1870 -1.3365  1.1346
 2396SOL    HW2 8088   5.850   1.217   0.072 -0.7742  0.5621  0.1108
 2397SOL     OW 8089   1.950   6.023   3.164 -0.0215  0.4109 -0.6626
 2397SOL    HW1 8090   1.940   5.982   3.073 -1.0251  0.1377 -0.4382
 2397SOL    HW2 8091   1.996   6.111   3.155  1.4896 -0.4073 -1.2254
 2398SOL     OW 8092   3.049   4.341   6.449  0.2908 -0.4089  0.0131
 2398SOL    HW1 8093   2.970   4.383   6.493  0.4815 -0.3815  0.3306
 2398SOL    HW2 8094   3.018   4.282   6.374  0.0366  0.5213 -0.6352
 2399SOL     OW 8095   4.050   2.664   6.486  0.1363 -0.0753  0.2176
 2399SOL    HW1 8096   4.140   2.668   6.530 -0.2202 -1.0759  1.0645
 2399SOL    HW2 8097   3.995   2.591   6.527 -0.3553 -0.8140 -1.6350
 2400SOL     OW 8098   4.133   4.246   6.916 -0.3350 -0.4696  0.1351
 2400SOL    HW1 8099   4.097   4.229   7.008  1.1226  2.4125  1.3573
 2400SOL    HW2 8100   4.100   4.335   6.883 -0.2016 -1.1080 -1.8530
 2401SOL     OW 8101   6.890   3.609   3.615 -0.0390  0.3323 -0.3864
 2401SOL    HW1 8102   6.860   3.515   3.601 -1.0919  0.6860 -0.5863
 2401SOL    HW2 8103   6.850   3.645   3.700 -0.9252  1.0914 -1.0990
 2402SOL     OW 8104   2.577   4.613   1.649  0.3734  0.0141  0.3811
 2402SOL    HW1 8105   2.527   4.696   1.627 -1.6519 -1.2486 -0.0049
 2402SOL    HW2 8106   2.666   4.615   1.604  0.0090  1.5720 -0.3325
 2403SOL     OW 8107   6.455   3.493   6.062 -0.2878  0.1139  0.0478
 2403SOL    HW1 8108   6.405   3.454   5.985 -0.3095 -0.6647  0.4417
 2403SOL    HW2 8109   6.439   3.592   6.066 -0.7417  0.0721 -0.6029
 2404SOL     OW 8110   4.055   2.911   6.720  0.0543 -0.0860  0.2995
 2404SOL    HW1 8111   4.128   2.888   6.785  1.0964 -1.1503 -1.1707
 2404SOL    HW2 8112   4.094   2.915   6.627 -0.5729  4.9713 -0.0210
 2405SOL     OW 8113   3.191   0.510   3.107  0.5461  0.4901 -0.2563
 2405SOL    HW1 8114   3.215   0.422   3.147  2.4573  1.3855  0.6946
 2405SOL    HW2 8115   3.210   0.583   3.172  0.2893  1.7197 -1.5065
 2406SOL     OW 8116   3.765   3.850   3.296  0.3935 -0.9008 -0.3774
 2406SOL    HW1 8117   3.738   3.773   3.355 -3.0096  0.8520  0.6323
 2406SOL    HW2 8118   3.695   3.863   3.226  0.7509  1.3889 -0.3674
 2407SOL     OW 8119   4.070   5.602   0.525 -0.1876 -0.4001  0.5520
 2407SOL    HW1 8120   4.066   5.507   0.494  2.0506 -0.8111  1.3359
 2407SOL    HW2 8121   4.128   5.654   0.461 -0.2474  0.0910  0.8993
 2408SOL     OW 8122   4.188   0.090   1.175 -0.3359  0.2167  0.1229
 2408SOL    HW1 8123   4.194   0.189   1.160 -0.8522  0.2158 -0.1142
 2408SOL    HW2 8124   4.280   0.052   1.186 -0.2052  0.9783  1.9855
 2409SOL     OW 8125   5.852   0.573   5.966 -0.3467 -0.0435 -0.4282
 2409SOL    HW1 8126   5.817   0.480   5.978 -1.3782  0.4640  0.6029
 2409SOL    HW2 8127   5.942   0.580   6.008 -0.4821 -0.4457 -0.0647
 2410SOL     OW 8128   4.957   2.281   1.871 -0.2293  0.0647  0.2335
 2410SOL    HW1 8129   4.928   2.246   1.782  0.1928 -0.0970  0.1529
 2410SOL    HW2 8130   4.881   2.276   1.936 -0.5070  0.0807 -0.0874
 2411SOL     OW 8131   1.857   5.887   4.769 -0.0530 -0.1522  0.5364
 2411SOL    HW1 8132   1.928   5.819   4.787 -0.6712 -1.2888 -1.1369
 2411SOL    HW2 8133   1.875   5.932   4.682 -1.2832 -0.3625  0.1523
 2412SOL     OW 8134   1.900   3.995   1.962  0.1842 -0.0956 -0.6047
 2412SOL    HW1 8135   1.959   4.056   1.909 -0.0774  0.8611  0.1892
 2412SOL    HW2 8136   1.804   4.015   1.943  0.0445 -2.1638 -2.4855
 2413SOL     OW 8137   4.020   1.608   1.330  0.3119 -0.4132 -0.7387
 2413SOL    HW1 8138   3.947   1.640   1.268 -0.2732 -1.7867 -0.7958
 2413SOL    HW2 8139   4.003   1.513   1.354  0.6979 -0.0102  1.3146
 2414SOL     OW 8140   2.288   0.377   5.782  0.6566  0.0140  0.5071
 2414SOL    HW1 8141   2.324   0.327   5.703 -2.8625 -0.0356 -1.2568
 2414SOL    HW2 8142   2.207   0.428   5.755 -0.1683  0.7471  3.9240
 2415SOL     OW 8143   4.583   2.222   4.889 -0.0552  0.1554  0.2795
 2415SOL    HW1 8144   4.647   2.298   4.875 -0.3723  0.7775  1.9236
 2415SOL    HW2 8145   4.490   2.257   4.896 -0.4376 -0.6073 -0.7485
 2416SOL     OW 8146   5.538   2.666   6.199  0.1854  0.1808 -0.2934
 2416SOL    HW1 8147   5.555   2.576   6.239  2.1639  0.6923  0.1726
 2416SOL    HW2 8148   5.512   2.731   6.271 -2.9045 -0.3020 -0.8409
 2417SOL     OW 8149   5.110   2.444   1.070  0.6035  0.5315  0.2113
 2417SOL    HW1 8150   5.106   2.535   1.028  1.4458  1.5041  2.1240
 2417SOL    HW2 8151   5.202   2.426   1.103  0.4386 -1.0246 -0.1007
 2418SOL     OW 8152   1.628   0.889   4.146  0.6508 -0.0686 -0.6191
 2418SOL    HW1 8153   1.722   0.903   4.174 -0.1651  3.3922  0.9121
 2418SOL    HW2 8154   1.604   0.953   4.073 -0.9401  0.2538  0.1338
 2419SOL     OW 8155   2.124   6.414   1.773  0.2002 -0.3967  0.0014
 2419SOL    HW1 8156   2.053   6.451   1.834  1.7076  0.2722  1.4165
 2419SOL    HW2 8157   2.165   6.333   1.814  1.6760  0.4262  0.2260
 2420SOL     OW 8158   1.447   0.668   4.034  0.2907 -0.5741  0.1106
 2420SOL    HW1 8159   1.489   0.751   4.071 -0.0230 -1.8225  3.7041
 2420SOL    HW2 8160   1.513   0.593   4.036  0.1167 -0.8278 -1.6734
 2421SOL     OW 8161   0.465   0.953   6.808 -0.5545  0.6143  0.4430
 2421SOL    HW1 8162   0.503   1.045   6.810  2.6806 -0.4779 -2.1329
 2421SOL    HW2 8163   0.537   0.888   6.786 -3.0811 -2.3737  0.3866
 2422SOL     OW 8164   5.609   6.074   3.616 -0.3578 -0.0887 -0.3634
 2422SOL    HW1 8165   5.630   6.148   3.552  0.1173 -0.4404 -0.6221
 2422SOL    HW2 8166   5.688   6.013   3.624 -0.3770 -0.0013  0.6318
 2423SOL     OW 8167   5.323   6.887   5.231 -0.1543  0.3778  0.1840
 2423SOL    HW1 8168   5.387   6.832   5.177 -0.1420  1.1300 -0.5842
 2423SOL    HW2 8169   5.349   6.983   5.226 -1.5021  0.7382 -0.3853
 2424SOL     OW 8170   5.691   0.183   0.651 -0.1765  0.0468 -0.0994
 2424SOL    HW1 8171   5.694   0.102   0.710 -0.3192 -0.9461 -1.3982
 2424SOL    HW2 8172   5.737   0.162   0.564 -0.1591  1.3907 -0.4335
 2425SOL     OW 8173   2.582   0.222   1.116 -0.0850  0.0674  0.3015
 2425SOL    HW1 8174   2.535   0.187   1.198 -0.1166 -0.0401  0.2382
 2425SOL    HW2 8175   2.659   0.162   1.094  1.3211  1.3120  1.5584
 2426SOL     OW 8176   6.209   3.181   5.704  0.4084 -0.3097 -0.6414
 2426SOL    HW1 8177   6.196   3.102   5.643 -1.3585 -0.2363 -0.4167
 2426SOL    HW2 8178   6.124   3.200   5.751  1.7175 -0.3417  1.8864
 2427SOL     OW 8179   6.410   4.803   3.599 -0.1077  0.3333 -0.5904
 2427SOL    HW1 8180   6.454   4.854   3.525 -2.1905  3.9864  0.4422
 2427SOL    HW2 8181   6.465   4.812   3.683 -0.2525  0.4827 -0.5116
 2428SOL     OW 8182   3.868   4.953   1.514  0.8611  0.4703  0.9412
 2428SOL    HW1 8183   3.823   4.904   1.588  0.4456 -0.3721  0.1528
 2428SOL    HW2 8184   3.893   4.888   1.441  2.4280  1.0695  0.9021
 2429SOL     OW 8185   2.096   0.396   1.546 -0.0824  0.2968 -0.7710
 2429SOL    HW1 8186   2.063   0.307   1.577 -2.1181  1.3968  0.4611
 2429SOL    HW2 8187   2.191   0.388   1.516 -0.1970 -2.2518 -0.6545
 2430SOL     OW 8188   5.309   5.401   0.207 -0.1641  0.0443  0.4150
 2430SOL    HW1 8189   5.403   5.367   0.211 -0.4304 -0.6633  0.8920
 2430SOL    HW2 8190   5.278   5.402   0.112  0.6870  1.3435  0.1212
 2431SOL     OW 8191   6.843   2.290   3.617  0.3721  0.0233  0.9215
 2431SOL    HW1 8192   6.818   2.320   3.709  1.6216  1.1991  0.9137
 2431SOL    HW2 8193   6.881   2.367   3.566  2.3094 -1.2245  0.3721
 2432SOL     OW 8194   4.125   1.439   5.564  0.0803 -0.4921  0.3266
 2432SOL    HW1 8195   4.041   1.490   5.582  0.1024 -0.8073  1.3404
 2432SOL    HW2 8196   4.132   1.362   5.626  1.0941 -0.5038  0.2159
 2433SOL     OW 8197   4.156   0.458   2.951  0.5330  0.7410  0.1273
 2433SOL    HW1 8198   4.178   0.361   2.963 -1.5757  0.1973  0.0141
 2433SOL    HW2 8199   4.203   0.493   2.870  1.0078 -0.2842 -0.0579
 2434SOL     OW 8200   3.961   3.287   5.367 -0.0057  0.0516 -0.3212
 2434SOL    HW1 8201   3.989   3.382   5.354  0.5039 -0.1498 -0.7235
 2434SOL    HW2 8202   3.898   3.281   5.444 -0.2665  0.7579 -0.4763
 2435SOL     OW 8203   3.403   6.877   0.342 -0.1988 -0.3558  0.3030
 2435SOL    HW1 8204   3.494   6.909   0.314 -0.4116 -1.2129 -1.5311
 2435SOL    HW2 8205   3.379   6.795   0.290 -2.7447  0.8503 -0.6296
 2436SOL     OW 8206   6.978   5.053   3.814 -0.0852 -0.1288  0.1607
 2436SOL    HW1 8207   7.001   5.138   3.862  1.2181 -0.8020  0.7547
 2436SOL    HW2 8208   6.878   5.048   3.803 -0.2338  1.1512  0.7067
 2437SOL     OW 8209   6.354   1.244   1.365 -0.0796  0.8304 -0.7503
 2437SOL    HW1 8210   6.325   1.272   1.457  1.8938  0.6112 -0.0055
 2437SOL    HW2 8211   6.314   1.305   1.297 -2.2153  0.5275  0.1571
 2438SOL     OW 8212   3.992   0.352   1.578  0.3396 -0.2126  0.1041
 2438SOL    HW1 8213   3.930   0.428   1.592 -0.3980 -0.8871  0.5830
 2438SOL    HW2 8214   3.943   0.277   1.533  0.9359 -0.5642  0.0287
 2439SOL     OW 8215   1.336   0.089   6.008 -0.2758  0.0278  0.1475
 2439SOL    HW1 8216   1.294   0.040   6.085  1.0513 -0.9117  0.3156
 2439SOL    HW2 8217   1.415   0.140   6.042 -0.1737  0.2651 -0.4538
 2440SOL     OW 8218   6.312   6.370   4.107 -0.0167  0.0849 -0.0932
 2440SOL    HW1 8219   6.389   6.306   4.096 -1.7661 -1.8303 -2.1713
 2440SOL    HW2 8220   6.339   6.460   4.072  1.4519 -0.3634 -0.2154
 2441SOL     OW 8221   3.380   0.516   3.437  0.3779  0.0379 -0.9502
 2441SOL    HW1 8222   3.346   0.591   3.380 -0.2384  0.4592 -0.0446
 2441SOL    HW2 8223   3.305   0.479   3.492  0.7127 -1.1322 -1.2339
 2442SOL     OW 8224   0.966   1.135   4.546  0.1666  0.1279  0.0711
 2442SOL    HW1 8225   0.911   1.211   4.512  0.4454  0.4903  0.4294
 2442SOL    HW2 8226   1.001   1.082   4.468 -1.9007 -1.0098 -0.1759
 2443SOL     OW 8227   0.020   4.140   3.804 -0.4135  0.1054  0.1067
 2443SOL    HW1 8228   0.025   4.216   3.868 -1.0035 -0.8546  1.3347
 2443SOL    HW2 8229  -0.076   4.121   3.782 -0.2549 -0.0980 -0.4223
 2444SOL     OW 8230   5.917   2.576   3.608  0.2187 -0.6146 -0.4650
 2444SOL    HW1 8231   5.976   2.516   3.553  0.6660 -1.2442  0.6419
 2444SOL    HW2 8232   5.914   2.667   3.568  3.2686 -0.0839  0.2352
 2445SOL     OW 8233   1.916   2.316   3.568 -0.0874 -0.1430  1.1195
 2445SOL    HW1 8234   1.888   2.276   3.655 -2.6158  0.9001  0.8781
 2445SOL    HW2 8235   1.878   2.262   3.493  0.0352  0.3225  0.7198
 2446SOL     OW 8236   1.296   1.163   4.668  0.1332  0.4052 -0.5236
 2446SOL    HW1 8237   1.329   1.238   4.611  0.6913 -1.4761 -2.8387
 2446SOL    HW2 8238   1.198   1.149   4.652 -0.1405  1.0805  0.4800
 2447SOL     OW 8239   5.850   2.591   5.133  0.4061 -0.3825 -0.3310
 2447SOL    HW1 8240   5.829   2.579   5.230  1.8589  1.3979  0.2488
 2447SOL    HW2 8241   5.771   2.629   5.086  0.1276 -0.0065  0.4322
 2448SOL     OW 8242   0.592   5.016   3.179  0.2751  0.2091 -0.4703
 2448SOL    HW1 8243   0.575   4.983   3.272  0.1111  0.1641 -0.5161
 2448SOL    HW2 8244   0.672   4.969   3.141  0.5750  0.4995 -0.2129
 2449SOL     OW 8245   5.874   4.959   5.402  0.4499  0.3930 -0.0990
 2449SOL    HW1 8246   5.791   4.915   5.368 -2.3359  0.7125  5.2599
 2449SOL    HW2 8247   5.942   4.890   5.424  0.4642 -0.1326 -1.6313
 2450SOL     OW 8248   6.214   4.093   4.137  0.2730 -0.4377  0.0781
 2450SOL    HW1 8249   6.258   4.119   4.223 -2.0990  2.9669  0.4396
 2450SOL    HW2 8250   6.128   4.046   4.156 -0.3072  0.4023 -0.4189
 2451SOL     OW 8251   2.775   1.421   2.713 -0.2786  0.3697 -0.0591
 2451SOL    HW1 8252   2.695   1.466   2.676 -0.9552 -0.5269  0.2716
 2451SOL    HW2 8253   2.762   1.322   2.710 -0.0025  0.2428  1.7282
 2452SOL     OW 8254   4.574   4.816   6.089 -0.1163 -0.1017  0.4299
 2452SOL    HW1 8255   4.571   4.722   6.124  0.6922 -0.7648 -1.1943
 2452SOL    HW2 8256   4.514   4.824   6.009  1.0643  0.3143 -0.4343
 2453SOL     OW 8257   7.005   2.723   0.836  0.0153 -0.7938  0.1133
 2453SOL    HW1 8258   7.089   2.667   0.839 -0.5021 -1.5588  1.0558
 2453SOL    HW2 8259   7.006   2.788   0.912  0.5144  0.3547 -0.8575
 2454SOL     OW 8260   5.563   6.542   2.242  0.0371  0.8268  0.0380
 2454SOL    HW1 8261   5.538   6.462   2.298  2.4651 -0.0197  0.0213
 2454SOL    HW2 8262   5.645   6.585   2.281 -0.1646  2.2148 -1.0192
 2455SOL     OW 8263   1.833   1.594   4.713  0.0885 -0.0292 -0.9414
 2455SOL    HW1 8264   1.870   1.686   4.705  1.1162 -0.3124  0.2718
 2455SOL    HW2 8265   1.907   1.527   4.704 -0.5892 -0.7318 -1.4398
 2456SOL     OW 8266   1.410   6.636   6.721  0.7086 -0.1959 -0.7327
 2456SOL    HW1 8267   1.404   6.695   6.640 -0.2429  0.3205 -0.2981
 2456SOL    HW2 8268   1.324   6.586   6.732  1.0915 -0.8003 -0.4301
 2457SOL     OW 8269   1.248   6.789   4.597  0.0379  0.1031  0.3361
 2457SOL    HW1 8270   1.313   6.865   4.591  1.1330 -0.8475 -0.0002
 2457SOL    HW2 8271   1.251   6.735   4.513 -1.1218 -0.0212  0.3574
 2458SOL     OW 8272   2.959   2.962   0.555 -0.1520 -0.0822  0.0033
 2458SOL    HW1 8273   2.990   2.965   0.650 -0.8661 -0.0919  0.2448
 2458SOL    HW2 8274   2.899   3.041   0.537 -0.7358 -0.5627 -0.1775
 2459SOL     OW 8275   4.751   4.284   4.189  0.3453 -0.0755 -0.2659
 2459SOL    HW1 8276   4.733   4.280   4.287 -2.1241 -0.6893 -0.6867
 2459SOL    HW2 8277   4.774   4.378   4.162  0.3860  0.2192  0.7666
 2460SOL     OW 8278   5.957   1.804   6.120 -0.4038 -0.0933 -0.1479
 2460SOL    HW1 8279   5.978   1.711   6.150 -3.3819 -0.2872  1.8240
 2460SOL    HW2 8280   6.039   1.846   6.081  1.0061 -3.5443 -1.3014
 2461SOL     OW 8281   5.984   4.980   0.739 -0.1743  0.2220 -0.5775
 2461SOL    HW1 8282   5.920   4.904   0.738  0.5732 -0.5262 -4.0812
 2461SOL    HW2 8283   6.012   5.000   0.833 -0.8974 -3.3756  0.5215
 2462SOL     OW 8284   4.822   3.996   6.482  0.5332 -0.3423  0.1632
 2462SOL    HW1 8285   4.888   4.067   6.508  0.0586 -0.6499  2.4215
 2462SOL    HW2 8286   4.868   3.926   6.428  2.1678 -0.6577  1.8502
 2463SOL     OW 8287   5.372   0.861   5.566  0.3125 -0.3571  0.3530
 2463SOL    HW1 8288   5.382   0.763   5.548  3.2236  0.0807 -1.1024
 2463SOL    HW2 8289   5.374   0.912   5.480  0.1426  1.0448  1.1402
 2464SOL     OW 8290   2.405   2.363   3.271 -0.3118 -0.3378  0.5611
 2464SOL    HW1 8291   2.447   2.419   3.341 -0.7646 -0.4443  0.9235
 2464SOL    HW2 8292   2.309   2.346   3.295 -0.8199  0.6194 -0.6747
 2465SOL     OW 8293   6.421   1.564   5.001 -0.1753  0.0463  0.1834
 2465SOL    HW1 8294   6.481   1.632   4.959 -1.0416  0.0426 -1.1285
 2465SOL    HW2 8295   6.340   1.609   5.038  0.1146 -0.0709  0.9739
 2466SOL     OW 8296   0.460   5.575   5.065  0.2073  0.3135  0.4164
 2466SOL    HW1 8297   0.532   5.548   5.128  0.2889  2.6538  1.4140
 2466SOL    HW2 8298   0.371   5.565   5.110  0.1474  0.5614  0.3523
 2467SOL     OW 8299   0.582   3.906   6.436  0.1097 -0.2811 -0.6255
 2467SOL    HW1 8300   0.655   3.974   6.429 -0.7363  0.5887 -1.1591
 2467SOL    HW2 8301   0.555   3.877   6.344 -1.3544  0.6615 -0.5324
 2468SOL     OW 8302   2.338   5.823   3.640  0.3977 -0.4779 -0.4534
 2468SOL    HW1 8303   2.418   5.778   3.679 -0.4158 -0.7025  1.0399
 2468SOL    HW2 8304   2.256   5.794   3.690 -0.5461  0.2224 -1.5387
 2469SOL     OW 8305   5.227   1.570   0.796 -0.1535 -0.8201 -0.3670
 2469SOL    HW1 8306   5.184   1.563   0.706 -2.8912  0.1152  0.7612
 2469SOL    HW2 8307   5.163   1.538   0.866  1.3691 -0.2061  1.3963
 2470SOL     OW 8308   5.324   1.421   1.677  0.2100  0.1028  0.2787
 2470SOL    HW1 8309   5.367   1.437   1.587  0.6823  1.2101  0.6802
 2470SOL    HW2 8310   5.239   1.370   1.665  1.1520 -1.3343 -0.6311
 2471SOL     OW 8311   0.344   5.379   1.266 -0.1134  0.1796  0.1933
 2471SOL    HW1 8312   0.333   5.346   1.359 -0.8844  0.5096  0.2262
 2471SOL    HW2 8313   0.302   5.469   1.257 -0.4614 -0.0519 -0.5876
 2472SOL     OW 8314   6.151   2.997   0.254 -0.6179 -0.3852 -0.1763
 2472SOL    HW1 8315   6.197   2.963   0.336 -0.2222  0.1690 -0.1631
 2472SOL    HW2 8316   6.219   3.024   0.186 -0.9133  0.4566 -0.1530
 2473SOL     OW 8317   4.182   6.672   0.475 -0.6411 -0.4121  0.0156
 2473SOL    HW1 8318   4.088   6.658   0.506 -0.9330 -0.5836 -0.9153
 2473SOL    HW2 8319   4.241   6.692   0.554 -1.7586  1.4395  0.4443
 2474SOL     OW 8320   5.607   4.709   5.502  0.4821  0.1591 -0.8791
 2474SOL    HW1 8321   5.624   4.736   5.597 -0.8442  2.5183 -1.2088
 2474SOL    HW2 8322   5.540   4.635   5.499  0.4644  0.1350  0.0413
 2475SOL     OW 8323   0.344   6.275   2.223  0.0620  0.1462 -0.2534
 2475SOL    HW1 8324   0.326   6.329   2.141  0.6376  0.9425  0.1260
 2475SOL    HW2 8325   0.357   6.179   2.198  0.6178  0.4406 -1.1494
 2476SOL     OW 8326   1.069   4.631   2.569 -0.0236  0.4246 -0.1898
 2476SOL    HW1 8327   1.164   4.643   2.600  1.2177 -0.6574 -3.2043
 2476SOL    HW2 8328   1.059   4.671   2.478 -2.5508  0.5863  0.0945
 2477SOL     OW 8329   5.659   1.627   1.795  0.1895  0.3433  0.2909
 2477SOL    HW1 8330   5.566   1.659   1.778  0.6438  1.3801 -0.3489
 2477SOL    HW2 8331   5.689   1.570   1.718  0.0798 -0.0147  0.5104
 2478SOL     OW 8332   7.008   6.632   5.440  0.4970  0.2943  0.0546
 2478SOL    HW1 8333   7.034   6.674   5.353  0.3742  0.6267  0.1798
 2478SOL    HW2 8334   6.957   6.697   5.495 -1.6985 -0.7112 -0.6808
 2479SOL     OW 8335   1.167   0.658   5.523  0.2270  0.3401 -0.7393
 2479SOL    HW1 8336   1.145   0.683   5.429  1.1802 -0.5300 -1.2106
 2479SOL    HW2 8337   1.082   0.641   5.573 -0.2926  0.7697 -1.4542
 2480SOL     OW 8338   2.160   2.986   1.942  0.1810 -0.1771  0.4963
 2480SOL    HW1 8339   2.146   2.973   1.844  0.8775  0.7182  0.2621
 2480SOL    HW2 8340   2.152   3.083   1.964  2.7949  0.0373  0.8192
 2481SOL     OW 8341   0.306   4.201   2.687  0.0326 -0.4715 -0.1839
 2481SOL    HW1 8342   0.265   4.166   2.602 -0.5146 -1.3749  0.4407
 2481SOL    HW2 8343   0.350   4.126   2.736 -1.2449 -0.3325  1.2319
 2482SOL     OW 8344   6.353   2.825   5.514 -0.4287 -0.5268  0.1519
 2482SOL    HW1 8345   6.271   2.883   5.506 -0.1178  0.0219  0.8401
 2482SOL    HW2 8346   6.364   2.796   5.609 -0.6334 -1.8138 -0.2029
 2483SOL     OW 8347   5.445   4.629   6.073 -0.3138  0.1347  0.1675
 2483SOL    HW1 8348   5.420   4.599   6.165  0.5379  1.2916  0.8085
 2483SOL    HW2 8349   5.515   4.700   6.080  0.4655 -0.4323 -1.4125
 2484SOL     OW 8350   5.570   0.414   3.202 -0.1483 -0.0436 -0.3838
 2484SOL    HW1 8351   5.642   0.456   3.258  0.0541 -1.2228  0.2557
 2484SOL    HW2 8352   5.611   0.374   3.120  0.2893 -2.5313  0.9595
 2485SOL     OW 8353   2.869   6.882   1.423 -0.0780 -0.1681  0.4018
 2485SOL    HW1 8354   2.871   6.968   1.372 -1.5154 -0.0680  0.4704
 2485SOL    HW2 8355   2.898   6.898   1.517  1.2783 -0.0982 -0.0043
 2486SOL     OW 8356   4.935   0.359   6.008  0.0539 -0.4659  0.1034
 2486SOL    HW1 8357   4.979   0.272   5.985  0.4206 -0.4186  0.6074
 2486SOL    HW2 8358   4.885   0.393   5.928  1.0130 -0.4642 -0.5086
 2487SOL     OW 8359   1.757   4.207   5.464  0.2091  0.3117  0.1368
 2487SOL    HW1 8360   1.846   4.252   5.476 -0.3153  1.4151  0.0563
 2487SOL    HW2 8361   1.697   4.232   5.539 -1.1672  2.5094 -1.5494
 2488SOL     OW 8362   4.542   5.669   3.742  0.5560  0.1220  0.6275
 2488SOL    HW1 8363   4.489   5.608   3.801  0.1952  0.5642  0.7706
 2488SOL    HW2 8364   4.482   5.740   3.706  0.4041 -1.0635 -1.6045
 2489SOL     OW 8365   0.641   5.917   4.479  0.1539  0.4369 -0.1185
 2489SOL    HW1 8366   0.655   6.000   4.426 -0.7151  0.0906 -0.9292
 2489SOL    HW2 8367   0.682   5.927   4.570 -0.1995  1.8495 -0.1030
 2490SOL     OW 8368   5.689   1.137   6.824 -0.0370  0.1299 -0.3205
 2490SOL    HW1 8369   5.730   1.216   6.778  2.1181 -0.5803  0.2886
 2490SOL    HW2 8370   5.711   1.139   6.921  1.8258 -2.2228 -0.6074
 2491SOL     OW 8371   6.123   3.288   5.410 -0.9301  0.0530  0.7379
 2491SOL    HW1 8372   6.113   3.190   5.393  0.0744  0.1166 -0.3554
 2491SOL    HW2 8373   6.082   3.311   5.498 -0.9736 -1.3887  1.1171
 2492SOL     OW 8374   6.012   2.165   6.076 -0.8551 -0.6371  0.2234
 2492SOL    HW1 8375   5.928   2.121   6.042 -1.3864  0.2331  0.3900
 2492SOL    HW2 8376   6.009   2.170   6.175 -0.0972 -1.5798  0.3121
 2493SOL     OW 8377   6.770   5.552   1.074  0.3205  0.0830 -0.1081
 2493SOL    HW1 8378   6.828   5.475   1.046  0.3495  0.5110 -1.2897
 2493SOL    HW2 8379   6.821   5.637   1.062 -0.9716  0.5873 -2.5294
 2494SOL     OW 8380   3.279   0.327   6.269  0.1320 -0.6565  0.5254
 2494SOL    HW1 8381   3.283   0.233   6.234  1.0422 -0.7650  0.9005
 2494SOL    HW2 8382   3.264   0.325   6.368  0.8821 -0.4326  0.6526
 2495SOL     OW 8383   0.553   4.966   3.802 -0.0390 -0.3874  0.0455
 2495SOL    HW1 8384   0.605   5.026   3.863  0.5312 -1.6641  0.8649
 2495SOL    HW2 8385   0.610   4.888   3.776 -0.8038 -0.6447 -0.8932
 2496SOL     OW 8386   4.957   4.304   1.849 -0.5501  0.5374 -0.0918
 2496SOL    HW1 8387   4.891   4.367   1.890 -2.2772  0.0515 -1.9473
 2496SOL    HW2 8388   4.986   4.237   1.917 -2.1893  0.6267  0.7428
 2497SOL     OW 8389   5.754   6.545   3.603  0.1683 -0.1999  0.1472
 2497SOL    HW1 8390   5.700   6.605   3.543  0.6199  2.4944  2.2634
 2497SOL    HW2 8391   5.692   6.492   3.661 -0.2195 -0.2786 -0.3282
 2498SOL     OW 8392   3.413   3.669   2.080  0.1928 -0.7938 -0.0802
 2498SOL    HW1 8393   3.407   3.759   2.037  1.5874 -0.5448  0.2222
 2498SOL    HW2 8394   3.454   3.678   2.171 -1.6464 -1.4656  0.8707
 2499SOL     OW 8395   1.640   1.588   1.837 -0.2227  0.2182  0.1034
 2499SOL    HW1 8396   1.650   1.666   1.775 -0.7666 -1.3637 -2.1202
 2499SOL    HW2 8397   1.564   1.604   1.900 -0.7383  1.2208 -0.7376
 2500SOL     OW 8398   6.615   1.437   0.509 -1.1672 -0.0778  0.3069
 2500SOL    HW1 8399   6.611   1.504   0.435 -0.2718 -0.6599 -0.2827
 2500SOL    HW2 8400   6.559   1.469   0.586 -1.7457  0.7464 -0.4371
 2501SOL     OW 8401   1.158   1.309   6.228  0.1367  0.2937  0.2972
 2501SOL    HW1 8402   1.240   1.256   6.207  0.9098  1.3465  0.5562
 2501SOL    HW2 8403   1.151   1.385   6.164 -1.0820 -0.2237 -0.2141
 2502SOL     OW 8404   1.426   4.932   3.482  0.1394  0.5950  0.1433
 2502SOL    HW1 8405   1.464   4.927   3.390  0.2911 -3.1774  0.2528
 2502SOL    HW2 8406   1.340   4.882   3.486 -0.9326  2.4015  1.6688
 2503SOL     OW 8407   5.404   5.191   0.910  0.8466  0.7212  0.5369
 2503SOL    HW1 8408   5.474   5.122   0.926  1.0146  0.6267 -0.5507
 2503SOL    HW2 8409   5.447   5.280   0.898  1.1382  0.2155 -3.2497
 2504SOL     OW 8410   4.932   1.144   6.589  0.8806  0.0122  0.2994
 2504SOL    HW1 8411   4.930   1.068   6.654 -0.1789  0.8852  1.3484
 2504SOL    HW2 8412   4.967   1.112   6.501  0.4725 -1.6807  0.7123
 2505SOL     OW 8413   0.552   1.670   5.378 -0.4377  0.6054 -0.0133
 2505SOL    HW1 8414   0.533   1.667   5.280 -0.9075  0.5398  0.0743
 2505SOL    HW2 8415   0.545   1.765   5.411  0.8958  0.8079 -0.2570
 2506SOL     OW 8416   6.465   4.836   6.678  0.1993  0.0905 -0.4198
 2506SOL    HW1 8417   6.439   4.838   6.582  0.2612  1.1294 -0.4193
 2506SOL    HW2 8418   6.407   4.770   6.727 -0.5377  0.3308 -0.9566
 2507SOL     OW 8419   4.851   2.200   4.417 -0.0119  0.3364  0.0335
 2507SOL    HW1 8420   4.838   2.283   4.472  2.1667 -0.6404  2.2267
 2507SOL    HW2 8421   4.841   2.120   4.476  2.6385 -0.7630 -0.8817
 2508SOL     OW 8422   1.362   5.944   5.544  0.7172 -0.4438 -0.2960
 2508SOL    HW1 8423   1.348   5.853   5.506  1.4902 -0.2540 -1.0805
 2508SOL    HW2 8424   1.320   6.012   5.483  1.0354 -0.2123 -0.2593
 2509SOL     OW 8425   6.878   6.830   3.915  0.4104 -0.1352 -0.5260
 2509SOL    HW1 8426   6.834   6.785   3.838 -0.1468 -0.5378  0.0201
 2509SOL    HW2 8427   6.808   6.861   3.980  0.9552 -1.8335  0.9408
 2510SOL     OW 8428   5.627   4.066   1.692  0.3103  0.0776 -0.1883
 2510SOL    HW1 8429   5.651   3.993   1.628 -0.9789 -1.4776  1.0177
 2510SOL    HW2 8430   5.666   4.045   1.782 -1.7604 -0.2694  0.6972
 2511SOL     OW 8431   6.693   0.476   0.935  0.2077  0.4736 -0.1158
 2511SOL    HW1 8432   6.620   0.412   0.959  0.9541  0.3666  2.0342
 2511SOL    HW2 8433   6.782   0.432   0.946  0.6628  0.8792 -1.8600
 2512SOL     OW 8434   6.273   3.396   1.589 -0.0838 -0.2607 -0.2532
 2512SOL    HW1 8435   6.210   3.420   1.515  0.5927 -0.8417 -1.0421
 2512SOL    HW2 8436   6.260   3.458   1.666  0.1652  1.2743 -1.4041
 2513SOL     OW 8437   4.798   3.947   4.470 -0.1027  0.5574 -0.6358
 2513SOL    HW1 8438   4.813   3.852   4.443  0.3196  1.1799 -2.8030
 2513SOL    HW2 8439   4.882   3.999   4.458 -0.6844  1.4887 -0.7963
 2514SOL     OW 8440   5.556   6.985   0.070  0.2675  0.4152  0.4664
 2514SOL    HW1 8441   5.497   6.973  -0.011 -0.5456  1.1962  0.9306
 2514SOL    HW2 8442   5.646   7.017   0.041  0.2616 -0.1364 -0.1991
 2515SOL     OW 8443   0.356   0.745   1.127  0.0491 -0.0932 -0.5123
 2515SOL    HW1 8444   0.345   0.768   1.030 -0.0448  0.0342 -0.4727
 2515SOL    HW2 8445   0.407   0.660   1.136 -2.2020 -1.5650 -0.7792
 2516SOL     OW 8446   2.842   6.527   4.356 -0.3243  0.2227 -0.2298
 2516SOL    HW1 8447   2.778   6.460   4.317 -1.1864  1.1689 -0.4888
 2516SOL    HW2 8448   2.861   6.597   4.288  2.2084 -0.8158 -0.6950
 2517SOL     OW 8449   2.983   4.380   5.381  0.1580  0.4713 -0.1070
 2517SOL    HW1 8450   2.937   4.430   5.308  1.3990 -0.9300 -1.9670
 2517SOL    HW2 8451   3.057   4.436   5.419  0.0398  0.9178 -0.5268
 2518SOL     OW 8452   0.750   3.159   6.074 -0.2627  0.1503  0.1810
 2518SOL    HW1 8453   0.837   3.124   6.109  0.4595 -0.4848 -2.0475
 2518SOL    HW2 8454   0.741   3.256   6.098  1.2851  0.3421  0.0886
 2519SOL     OW 8455   5.950   5.268   4.114 -0.7631  0.2507  0.3564
 2519SOL    HW1 8456   5.952   5.175   4.151  1.3570  1.2366  3.1259
 2519SOL    HW2 8457   5.997   5.270   4.026 -1.4547 -1.3777 -0.0898
 2520SOL     OW 8458   0.606   2.320   1.917  0.1934 -0.2984 -0.0833
 2520SOL    HW1 8459   0.562   2.369   1.842 -0.6421 -0.1704  0.4704
 2520SOL    HW2 8460   0.685   2.373   1.950  0.6829 -0.4572 -0.9919
 2521SOL     OW 8461   1.227   1.807   5.311 -0.5289 -0.4022 -0.4475
 2521SOL    HW1 8462   1.211   1.732   5.375  0.9741 -0.0530  0.3878
 2521SOL    HW2 8463   1.153   1.873   5.318  0.0540  0.0910  1.6453
 2522SOL     OW 8464   2.229   0.664   2.476 -0.2452  0.0528  0.4123
 2522SOL    HW1 8465   2.132   0.682   2.492 -0.6774 -1.9268  0.2781
 2522SOL    HW2 8466   2.243   0.640   2.380 -0.1389 -2.3578  0.9702
 2523SOL     OW 8467   0.431   2.847   3.347 -0.3652 -0.3229  0.4657
 2523SOL    HW1 8468   0.473   2.931   3.311 -1.3226  0.2122  0.5641
 2523SOL    HW2 8469   0.502   2.788   3.385  0.0952  1.5813  2.7674
 2524SOL     OW 8470   2.595   0.745   2.900 -0.4406 -0.4962  0.0168
 2524SOL    HW1 8471   2.659   0.770   2.973  0.2430  1.8428 -1.2836
 2524SOL    HW2 8472   2.502   0.740   2.937  0.1187 -1.3006  1.3940
 2525SOL     OW 8473   2.364   2.835   6.511  0.5585 -0.2485 -0.1630
 2525SOL    HW1 8474   2.267   2.826   6.491  0.2845  0.5891  0.7197
 2525SOL    HW2 8475   2.381   2.812   6.607  1.2296 -0.3397 -0.2950
 2526SOL     OW 8476   6.763   3.869   5.061 -0.1938  0.8856  0.7020
 2526SOL    HW1 8477   6.679   3.878   5.114 -0.6249  0.0564  0.1833
 2526SOL    HW2 8478   6.841   3.858   5.122 -0.6816 -0.0749  1.1646
 2527SOL     OW 8479   3.457   0.303   1.848 -0.3256 -0.0902 -0.5633
 2527SOL    HW1 8480   3.362   0.294   1.816  0.2802 -1.1409 -2.1608
 2527SOL    HW2 8481   3.517   0.317   1.770  1.0482 -1.2206  0.2478
 2528SOL     OW 8482   4.197   6.843   6.265  0.1717 -0.3768  0.4377
 2528SOL    HW1 8483   4.178   6.936   6.235 -0.9556 -1.1164 -1.3173
 2528SOL    HW2 8484   4.113   6.789   6.262  0.8339 -1.5070  1.2803
 2529SOL     OW 8485   6.450   4.781   1.121  0.1625 -1.3183 -0.0305
 2529SOL    HW1 8486   6.373   4.728   1.085  1.0957 -2.8831  0.2122
 2529SOL    HW2 8487   6.418   4.874   1.143 -0.9458 -0.9413 -2.7869
 2530SOL     OW 8488   4.475   0.854   4.803 -0.2467  0.0348 -0.0614
 2530SOL    HW1 8489   4.409   0.848   4.877  1.9302 -0.2555  1.9845
 2530SOL    HW2 8490   4.528   0.938   4.813  0.5095 -0.3256 -0.9087
 2531SOL     OW 8491   3.541   2.982   6.092  0.1102  0.2559 -0.0979
 2531SOL    HW1 8492   3.444   2.990   6.070  0.0133  1.0534  0.5487
 2531SOL    HW2 8493   3.566   3.055   6.156  1.0596 -0.1485  0.0020
 2532SOL     OW 8494   3.099   6.596   3.771 -0.5186 -0.2613  0.6925
 2532SOL    HW1 8495   3.012   6.643   3.753 -2.0441 -3.1215 -0.0099
 2532SOL    HW2 8496   3.144   6.575   3.685 -1.0029 -1.9638  0.8128
 2533SOL     OW 8497   0.764   1.946   2.743  0.3617  0.0704  0.1651
 2533SOL    HW1 8498   0.697   2.018   2.764  0.2028  0.2166 -0.8117
 2533SOL    HW2 8499   0.817   1.972   2.663 -0.0711 -1.1443 -0.5461
 2534SOL     OW 8500   1.054   6.031   0.154  0.4626 -0.0280 -0.4990
 2534SOL    HW1 8501   1.004   6.105   0.109  0.6351  1.2355  1.3302
 2534SOL    HW2 8502   1.148   6.027   0.118  0.5158  0.7701 -0.4526
 2535SOL     OW 8503   6.240   0.205   1.664 -0.0736  0.3236 -0.2144
 2535SOL    HW1 8504   6.309   0.169   1.601 -0.8836 -1.8496  0.0402
 2535SOL    HW2 8505   6.242   0.152   1.749 -2.1231  0.0659 -0.2646
 2536SOL     OW 8506   1.127   7.003   5.329 -0.2465 -0.2219 -0.2455
 2536SOL    HW1 8507   1.190   7.073   5.364  0.1457  0.2912 -1.8563
 2536SOL    HW2 8508   1.171   6.913   5.333 -0.1438 -0.1475  0.3772
 2537SOL     OW 8509   3.891   3.225   0.659  0.0252  0.3452  0.5031
 2537SOL    HW1 8510   3.907   3.235   0.757  0.6185  0.9169  0.3469
 2537SOL    HW2 8511   3.968   3.261   0.608  0.5370 -1.5762 -0.1565
 2538SOL     OW 8512   6.191   3.221   0.804 -0.0623  0.0189 -0.0153
 2538SOL    HW1 8513   6.272   3.169   0.829 -0.6461 -0.2812  1.3026
 2538SOL    HW2 8514   6.173   3.210   0.706 -0.2645 -2.3990  0.2498
 2539SOL     OW 8515   6.249   3.409   0.989  0.0046  0.9235  0.0649
 2539SOL    HW1 8516   6.156   3.438   1.013  0.0221  1.0491 -0.0190
 2539SOL    HW2 8517   6.244   3.338   0.919 -0.1000 -0.3303  1.2973
 2540SOL     OW 8518   5.554   1.674   3.615 -0.4375 -0.8574 -0.3560
 2540SOL    HW1 8519   5.640   1.707   3.575  0.2360 -2.8344 -0.6790
 2540SOL    HW2 8520   5.489   1.750   3.622  1.3416  0.7236 -0.0321
 2541SOL     OW 8521   5.229   2.846   6.188  0.2685  0.3580  0.2890
 2541SOL    HW1 8522   5.289   2.793   6.129  1.1804  1.1027  0.5103
 2541SOL    HW2 8523   5.144   2.869   6.140 -0.3797 -1.7006  0.3660
 2542SOL     OW 8524   1.612   0.694   2.732  0.8652 -0.4391  0.1356
 2542SOL    HW1 8525   1.627   0.792   2.725  0.7877 -0.4096  0.3753
 2542SOL    HW2 8526   1.691   0.651   2.776  0.9880 -0.5119 -0.1535
 2543SOL     OW 8527   1.833   3.723   2.755  0.3741 -0.1833 -0.7003
 2543SOL    HW1 8528   1.927   3.750   2.730  0.7357 -0.6237  0.1286
 2543SOL    HW2 8529   1.807   3.642   2.704  1.4022 -1.5509  0.8268
 2544SOL     OW 8530   1.776   5.677   5.180 -0.0247  0.3528  0.2682
 2544SOL    HW1 8531   1.797   5.619   5.258 -1.3219 -1.6636 -0.8130
 2544SOL    HW2 8532   1.841   5.660   5.106 -2.4302 -2.5364 -1.3846
 2545SOL     OW 8533   5.438   4.533   6.327 -0.7675 -0.0429  0.1856
 2545SOL    HW1 8534   5.516   4.483   6.289  1.0929  1.9975  1.1186
 2545SOL    HW2 8535   5.452   4.548   6.425 -1.9937  0.9767  0.2292
 2546SOL     OW 8536   4.378   0.666   0.060  0.1051 -0.6423  0.1446
 2546SOL    HW1 8537   4.316   0.688   0.135 -1.6605  0.5181 -1.5649
 2546SOL    HW2 8538   4.333   0.604  -0.004 -0.1907  1.7952 -2.1851
 2547SOL     OW 8539   1.078   6.865   1.056 -0.2445  0.0285  0.0312
 2547SOL    HW1 8540   1.060   6.941   1.119 -1.1350 -0.4691  0.4008
 2547SOL    HW2 8541   1.127   6.899   0.976 -0.8808  1.0589  0.0602
 2548SOL     OW 8542   3.129   1.928   0.248 -0.0276 -0.4059 -0.2825
 2548SOL    HW1 8543   3.152   1.992   0.174 -0.8991  0.3751  0.1020
 2548SOL    HW2 8544   3.098   1.979   0.328  2.2443 -1.1375  1.1860
 2549SOL     OW 8545   4.695   6.793   1.691  0.0069 -0.0823  0.1835
 2549SOL    HW1 8546   4.611   6.790   1.745  0.0159 -0.8077  0.1611
 2549SOL    HW2 8547   4.672   6.802   1.594 -0.0016  2.4079  0.3363
 2550SOL     OW 8548   6.283   1.316   5.004  0.1114 -0.7394  0.2514
 2550SOL    HW1 8549   6.356   1.384   4.996 -1.0093  0.6845  1.5036
 2550SOL    HW2 8550   6.279   1.261   4.920  0.3674  1.4497 -1.2875
 2551SOL     OW 8551   4.777   0.625   6.912  0.1842  0.4184  0.6378
 2551SOL    HW1 8552   4.850   0.557   6.915  0.5856  0.8817  1.4467
 2551SOL    HW2 8553   4.725   0.613   6.827  0.2127 -0.9257  0.7893
 2552SOL     OW 8554   5.513   5.625   5.863  0.2987  0.2724  0.2318
 2552SOL    HW1 8555   5.501   5.723   5.847 -0.6703  0.1626  0.2439
 2552SOL    HW2 8556   5.462   5.573   5.794  0.1439 -0.2134  0.7039
 2553SOL     OW 8557   6.628   4.650   1.464 -0.2520  0.2938 -0.0658
 2553SOL    HW1 8558   6.678   4.563   1.457  0.2218  0.5727 -0.1336
 2553SOL    HW2 8559   6.547   4.636   1.522  0.6082  0.1600  1.1444
 2554SOL     OW 8560   1.165   2.665   5.139 -0.0823 -0.7188 -0.5325
 2554SOL    HW1 8561   1.255   2.659   5.182 -1.5197  1.0544  3.1458
 2554SOL    HW2 8562   1.159   2.750   5.085  1.1634 -2.1106 -3.0353
 2555SOL     OW 8563   1.342   1.187   3.625  0.1736  0.1044 -0.4214
 2555SOL    HW1 8564   1.294   1.179   3.537  1.0295 -0.4301 -0.8608
 2555SOL    HW2 8565   1.441   1.177   3.609  0.3211 -0.1830  0.6307
 2556SOL     OW 8566   4.956   1.785   4.517 -0.1042  0.8520  0.0033
 2556SOL    HW1 8567   5.029   1.767   4.583  0.0516 -0.3545 -0.4696
 2556SOL    HW2 8568   4.886   1.842   4.559  0.5966  1.1492  0.8026
 2557SOL     OW 8569   0.348   1.742   2.611  0.7010  0.3498  0.2196
 2557SOL    HW1 8570   0.446   1.751   2.596  0.6171 -0.6636 -1.0875
 2557SOL    HW2 8571   0.300   1.817   2.567  0.8164  0.2411 -0.0913
 2558SOL     OW 8572   4.202   5.636   4.897 -0.1320  0.2736 -0.3457
 2558SOL    HW1 8573   4.275   5.572   4.921  0.4312  1.0083 -0.0607
 2558SOL    HW2 8574   4.188   5.636   4.798 -2.1962 -2.4941 -0.1660
 2559SOL     OW 8575   4.678   0.839   3.662 -0.0589  0.1047  0.2696
 2559SOL    HW1 8576   4.687   0.765   3.595 -1.3126  0.0248  0.1674
 2559SOL    HW2 8577   4.762   0.893   3.663  1.2222 -1.7875  0.9313
 2560SOL     OW 8578   1.370   4.016   4.842  0.3777 -0.3878 -0.3748
 2560SOL    HW1 8579   1.361   3.980   4.935  0.8390  0.4575  0.0074
 2560SOL    HW2 8580   1.463   4.050   4.828  0.1215  0.1017 -0.9260
 2561SOL     OW 8581   7.007   4.902   6.471 -0.4780  0.0130 -0.4893
 2561SOL    HW1 8582   7.047   4.868   6.556 -1.0607 -1.5429 -0.7945
 2561SOL    HW2 8583   6.988   5.000   6.479 -1.4954 -0.3063  1.5693
 2562SOL     OW 8584   2.175   0.715   4.632  0.0256 -0.0018 -0.4988
 2562SOL    HW1 8585   2.203   0.799   4.677 -0.7781  0.0721 -0.1102
 2562SOL    HW2 8586   2.219   0.637   4.676  0.0186  0.1466 -0.2296
 2563SOL     OW 8587   6.174   4.710   2.542  0.4509 -0.4999 -0.5036
 2563SOL    HW1 8588   6.162   4.779   2.471 -1.9604  1.0034  1.2149
 2563SOL    HW2 8589   6.085   4.686   2.581  1.5353 -2.4143  0.9683
 2564SOL     OW 8590   4.016   6.904   0.365 -0.6729 -0.5480 -0.1193
 2564SOL    HW1 8591   4.071   6.968   0.311 -1.1066 -0.3635 -0.3483
 2564SOL    HW2 8592   4.061   6.815   0.367  0.4629  0.0244  1.0697
 2565SOL     OW 8593   3.409   6.301   2.198  0.3692 -0.1934 -0.5731
 2565SOL    HW1 8594   3.495   6.254   2.214  0.1010 -0.1611  1.1299
 2565SOL    HW2 8595   3.349   6.244   2.143  0.7413 -1.0545 -0.0989
 2566SOL     OW 8596   2.091   0.044   5.760 -0.3946  0.6684 -0.3338
 2566SOL    HW1 8597   2.185   0.056   5.793 -0.8664  0.1624  1.3253
 2566SOL    HW2 8598   2.033   0.117   5.796 -1.2590 -0.8172  1.4613
 2567SOL     OW 8599   0.978   3.648   1.117 -0.3294  0.5428 -0.1977
 2567SOL    HW1 8600   1.058   3.705   1.096 -0.1580  0.5430  0.4258
 2567SOL    HW2 8601   0.929   3.686   1.195 -0.1123 -0.2496  0.3445
 2568SOL     OW 8602   4.979   2.912   5.197 -0.3274 -0.1740  0.2103
 2568SOL    HW1 8603   4.955   2.888   5.291 -0.0234 -0.9995  0.0856
 2568SOL    HW2 8604   5.077   2.927   5.190 -0.4707  0.8181  0.2134
 2569SOL     OW 8605   6.889   3.238   1.260 -0.6060  0.2038  0.0438
 2569SOL    HW1 8606   6.873   3.190   1.347 -0.3556  1.0359  0.5655
 2569SOL    HW2 8607   6.951   3.314   1.276  1.4798 -1.1023 -1.3461
 2570SOL     OW 8608   0.185   6.477   2.730  0.2234  0.6550 -0.3752
 2570SOL    HW1 8609   0.164   6.540   2.805 -0.2785  1.0226 -0.8139
 2570SOL    HW2 8610   0.262   6.419   2.756 -1.5281 -1.0180  1.4369
 2571SOL     OW 8611   5.104   0.242   5.474  0.5596 -0.3275  0.2156
 2571SOL    HW1 8612   5.168   0.252   5.550 -0.3295 -1.6518  1.1751
 2571SOL    HW2 8613   5.018   0.203   5.507  0.4637 -1.8378 -1.6114
 2572SOL     OW 8614   6.493   4.832   4.758 -0.4777  0.4273  0.9066
 2572SOL    HW1 8615   6.570   4.892   4.732 -0.9184  1.6864  2.3714
 2572SOL    HW2 8616   6.412   4.858   4.705 -1.0334  2.1274  2.4738
 2573SOL     OW 8617   4.291   3.575   6.075 -0.2709 -0.2136  0.2054
 2573SOL    HW1 8618   4.311   3.616   6.164 -0.2210  0.1035  0.0483
 2573SOL    HW2 8619   4.366   3.513   6.050  0.1932  0.4561 -0.0706
 2574SOL     OW 8620   5.776   6.305   1.669 -0.7388 -0.2076 -0.0625
 2574SOL    HW1 8621   5.766   6.215   1.713 -0.0424 -1.4243 -2.2269
 2574SOL    HW2 8622   5.747   6.299   1.574  0.5471  1.5326 -0.6204
 2575SOL     OW 8623   4.916   6.483   3.554 -0.5754 -0.2788  0.2218
 2575SOL    HW1 8624   4.948   6.479   3.648 -0.3585 -1.4083  0.1114
 2575SOL    HW2 8625   4.842   6.551   3.546  0.0076  0.4675  1.0045
 2576SOL     OW 8626   1.642   5.692   6.832 -0.3540 -0.3301  0.3983
 2576SOL    HW1 8627   1.565   5.751   6.857  0.1348  1.0258 -1.1182
 2576SOL    HW2 8628   1.632   5.661   6.738  0.8854 -0.2114  0.2036
 2577SOL     OW 8629   5.170   2.065   4.208  0.3509 -0.1907  0.0799
 2577SOL    HW1 8630   5.139   2.081   4.301 -0.9076  0.2221 -0.3935
 2577SOL    HW2 8631   5.261   2.105   4.196 -0.8689  2.9225  0.1760
 2578SOL     OW 8632   6.757   1.983   0.168 -0.2034 -0.0205  0.4740
 2578SOL    HW1 8633   6.727   1.893   0.137  0.7087  0.5635 -2.4218
 2578SOL    HW2 8634   6.680   2.032   0.208 -1.6803 -0.7208 -1.3429
 2579SOL     OW 8635   1.610   4.342   5.655  0.2481 -0.0169  0.1710
 2579SOL    HW1 8636   1.698   4.350   5.701  1.0440 -1.5154 -1.0009
 2579SOL    HW2 8637   1.539   4.318   5.721  0.8195  0.5896  1.0266
 2580SOL     OW 8638   6.166   2.464   1.866  0.6899 -0.0141  0.2380
 2580SOL    HW1 8639   6.077   2.420   1.879 -0.4113  1.5198 -1.5186
 2580SOL    HW2 8640   6.195   2.507   1.951 -1.7920  2.0419  0.1597
 2581SOL     OW 8641   3.682   3.911   5.132  0.2764 -0.2435 -0.0002
 2581SOL    HW1 8642   3.609   3.905   5.200 -1.0192  1.1253 -1.1970
 2581SOL    HW2 8643   3.669   3.993   5.076  1.8965 -0.7651 -1.2295
 2582SOL     OW 8644   1.185   0.900   6.980 -0.0387 -0.5059  0.3622
 2582SOL    HW1 8645   1.201   0.982   6.926 -0.8314 -0.8833 -0.4854
 2582SOL    HW2 8646   1.098   0.909   7.030  0.3116 -0.4706  0.9716
 2583SOL     OW 8647   2.131   4.554   6.142  0.4676  0.3993  0.1097
 2583SOL    HW1 8648   2.159   4.614   6.067  0.0186 -0.3843 -0.7113
 2583SOL    HW2 8649   2.155   4.460   6.119 -0.5426  0.0316  0.5109
 2584SOL     OW 8650   0.435   5.934   5.243  0.0692 -0.6519  0.2592
 2584SOL    HW1 8651   0.513   5.871   5.233 -0.4973 -1.7403  2.1363
 2584SOL    HW2 8652   0.358   5.884   5.284 -1.1525  0.7513 -0.2671
 2585SOL     OW 8653   3.506   0.464   3.753  0.2429 -0.2264  0.1836
 2585SOL    HW1 8654   3.542   0.496   3.841 -0.6108  1.8045 -0.1492
 2585SOL    HW2 8655   3.561   0.503   3.679  0.6693 -1.5488 -0.2342
 2586SOL     OW 8656   1.483   2.948   5.964  0.3023 -0.5749 -0.2961
 2586SOL    HW1 8657   1.399   2.991   5.996  0.5717 -0.3376  0.1092
 2586SOL    HW2 8658   1.515   2.883   6.033  0.6219 -0.4313 -0.3092
 2587SOL     OW 8659   5.168   4.292   1.110  0.2886 -0.2200 -0.2680
 2587SOL    HW1 8660   5.117   4.306   1.025  1.6305 -0.3457 -1.1207
 2587SOL    HW2 8661   5.248   4.234   1.092  1.9410  1.6940  0.5535
 2588SOL     OW 8662   2.170   5.501   3.622 -0.0670  0.5748 -0.7052
 2588SOL    HW1 8663   2.074   5.527   3.621 -0.6158 -1.2069 -2.4099
 2588SOL    HW2 8664   2.209   5.516   3.713 -2.4003 -0.1696  0.4863
 2589SOL     OW 8665   4.116   3.177   1.552 -0.0908  0.2092  0.1955
 2589SOL    HW1 8666   4.025   3.201   1.517 -0.1329  0.5890  0.5560
 2589SOL    HW2 8667   4.169   3.133   1.479 -0.6571 -0.2659  0.0577
 2590SOL     OW 8668   5.153   5.083   1.443 -0.4732 -0.6019 -0.1071
 2590SOL    HW1 8669   5.100   5.011   1.488 -0.3014 -1.3931 -1.1398
 2590SOL    HW2 8670   5.235   5.102   1.497 -0.4911 -1.2146  0.1470
 2591SOL     OW 8671   5.793   4.421   6.317 -0.1420 -0.2307  0.5489
 2591SOL    HW1 8672   5.835   4.348   6.370  0.7941 -0.5394 -0.5964
 2591SOL    HW2 8673   5.775   4.389   6.224 -1.0281  0.5569  0.4342
 2592SOL     OW 8674   3.588   3.611   1.638 -0.0650 -0.2328 -0.2068
 2592SOL    HW1 8675   3.502   3.561   1.645  0.5920 -1.3621  0.0320
 2592SOL    HW2 8676   3.610   3.653   1.726  0.1794 -0.8843  0.0450
 2593SOL     OW 8677   3.585   1.192   6.090  0.1368  1.0893 -0.1157
 2593SOL    HW1 8678   3.656   1.159   6.027 -1.0097 -1.8279 -0.0822
 2593SOL    HW2 8679   3.520   1.249   6.039  0.2882  0.3694 -1.1681
 2594SOL     OW 8680   2.280   2.906   4.345  0.5834 -0.6446  0.1975
 2594SOL    HW1 8681   2.250   2.889   4.439  1.3037  0.2767  0.6079
 2594SOL    HW2 8682   2.359   2.847   4.324 -0.7136 -2.2315 -0.4983
 2595SOL     OW 8683   0.669   3.146   5.059  0.9670 -0.3807 -0.0461
 2595SOL    HW1 8684   0.672   3.243   5.080 -1.0407  0.7786 -4.1093
 2595SOL    HW2 8685   0.597   3.102   5.113 -1.6874  1.6329 -1.6927
 2596SOL     OW 8686   5.063   4.575   2.113 -0.0708 -0.6844  0.7631
 2596SOL    HW1 8687   5.077   4.616   2.204 -0.1771  2.4413 -0.5107
 2596SOL    HW2 8688   5.013   4.489   2.123 -0.3461 -0.2950  3.6421
 2597SOL     OW 8689   6.447   1.765   3.228 -0.4313 -0.7342 -0.6318
 2597SOL    HW1 8690   6.536   1.744   3.187  0.1292 -0.4874  0.4334
 2597SOL    HW2 8691   6.378   1.704   3.188  0.0288 -0.3278 -2.1293
 2598SOL     OW 8692   1.823   1.660   2.802 -0.4960 -0.0880  0.3057
 2598SOL    HW1 8693   1.776   1.663   2.890  1.5667 -0.7043  1.4903
 2598SOL    HW2 8694   1.866   1.748   2.784  1.9357 -0.9265  1.6247
 2599SOL     OW 8695   5.611   6.168   6.153 -0.4210  0.2786 -0.3669
 2599SOL    HW1 8696   5.638   6.206   6.241 -0.3547 -2.1457  0.7352
 2599SOL    HW2 8697   5.687   6.115   6.115 -1.2622 -0.8062 -0.6082
 2600SOL     OW 8698   3.236   4.969   6.656  0.1443 -0.2286 -0.5691
 2600SOL    HW1 8699   3.187   5.032   6.717  1.6792  0.5794 -0.1262
 2600SOL    HW2 8700   3.177   4.891   6.635 -0.5949 -0.3033  1.5718
 2601SOL     OW 8701   1.774   1.367   2.496  0.1569  0.1211 -0.2960
 2601SOL    HW1 8702   1.770   1.460   2.461  2.3451 -0.4850 -2.4826
 2601SOL    HW2 8703   1.696   1.315   2.462 -0.5380  0.8984  0.0983
 2602SOL     OW 8704   6.138   5.228   0.182  0.7752  0.2125 -0.3617
 2602SOL    HW1 8705   6.111   5.179   0.099  1.2838  0.8069 -0.8912
 2602SOL    HW2 8706   6.060   5.236   0.244  0.3393 -0.0569 -0.8743
 2603SOL     OW 8707   5.126   2.877   2.810  0.1405 -0.0658 -0.3616
 2603SOL    HW1 8708   5.102   2.867   2.713 -0.2104  0.3664 -0.3251
 2603SOL    HW2 8709   5.043   2.900   2.862 -0.0183 -1.9465  0.3098
 2604SOL     OW 8710   6.704   4.465   1.002  0.1468  0.2863 -0.0743
 2604SOL    HW1 8711   6.692   4.486   0.905  0.2455  0.3610 -0.0702
 2604SOL    HW2 8712   6.716   4.550   1.053  0.7993  0.2100 -0.0922
 2605SOL     OW 8713   0.017   4.667   2.917 -0.1914  0.1674 -0.4645
 2605SOL    HW1 8714   0.048   4.715   2.835  1.2506  2.4907  1.3105
 2605SOL    HW2 8715   0.091   4.665   2.985 -1.7833 -0.3086  1.3598
 2606SOL     OW 8716   2.113   2.067   3.780  0.2206 -0.5110  0.2019
 2606SOL    HW1 8717   2.019   2.062   3.747  0.2721  0.2436 -0.0612
 2606SOL    HW2 8718   2.132   1.988   3.839 -0.2227 -1.2655 -0.6546
 2607SOL     OW 8719   5.130   3.845   0.168 -0.1102 -0.1322 -0.2919
 2607SOL    HW1 8720   5.112   3.747   0.181 -0.5488  0.0659  0.6865
 2607SOL    HW2 8721   5.203   3.874   0.230  1.2629 -0.1988 -1.8245
 2608SOL     OW 8722   1.906   1.502   6.945 -0.0702  0.4176  0.0897
 2608SOL    HW1 8723   1.837   1.556   6.993  1.1629  0.3696  2.0113
 2608SOL    HW2 8724   1.998   1.533   6.971  0.6624 -1.0515 -0.5829
 2609SOL     OW 8725   6.468   6.048   2.970 -0.2456  0.4571 -0.5317
 2609SOL    HW1 8726   6.463   5.997   2.884  0.7631  1.2384 -1.0764
 2609SOL    HW2 8727   6.462   6.146   2.950 -1.2488  0.6093  0.4180
 2610SOL     OW 8728   6.078   5.008   2.725  0.1978 -1.0576  0.7862
 2610SOL    HW1 8729   6.165   4.967   2.696  0.4055 -0.5994  0.7550
 2610SOL    HW2 8730   6.090   5.052   2.814  0.7800  1.4939 -0.4583
 2611SOL     OW 8731   6.538   1.250   5.135  0.0995 -0.2705 -0.2376
 2611SOL    HW1 8732   6.631   1.232   5.104  0.3563 -1.8957  1.3227
 2611SOL    HW2 8733   6.472   1.203   5.076  0.2149  0.9768 -1.4136
 2612SOL     OW 8734   5.616   3.493   2.445  0.5035  0.1660 -0.1867
 2612SOL    HW1 8735   5.534   3.437   2.432  0.0994  1.1634 -2.3831
 2612SOL    HW2 8736   5.616   3.532   2.538 -1.4307  0.0047 -0.0828
 2613SOL     OW 8737   0.748   1.862   3.020 -0.1594  0.7864  0.2397
 2613SOL    HW1 8738   0.754   1.879   2.921  0.7808 -1.6445 -0.1735
 2613SOL    HW2 8739   0.689   1.784   3.037  0.4199  0.6195  1.5468
 2614SOL     OW 8740   5.853   5.890   6.926  0.5808  0.3554  0.1826
 2614SOL    HW1 8741   5.857   5.790   6.927 -1.4188  0.2381  0.6297
 2614SOL    HW2 8742   5.776   5.920   6.870  1.1652  1.6633  0.0299
 2615SOL     OW 8743   4.787   4.158   3.320 -0.1448  0.0405 -0.1980
 2615SOL    HW1 8744   4.709   4.170   3.382  0.8446 -1.3015  1.4266
 2615SOL    HW2 8745   4.870   4.193   3.364  0.5305 -0.6039 -0.9202
 2616SOL     OW 8746   5.328   5.032   6.667 -0.2657  0.2350  0.1810
 2616SOL    HW1 8747   5.319   4.968   6.743 -0.2458 -1.9583 -1.5796
 2616SOL    HW2 8748   5.267   5.006   6.593  0.6910  1.4877 -1.1159
 2617SOL     OW 8749   6.355   5.524   0.036 -0.6491 -0.2058  0.3385
 2617SOL    HW1 8750   6.406   5.535   0.121 -2.1196  1.4920  1.0515
 2617SOL    HW2 8751   6.257   5.530   0.054 -1.0072 -0.2020 -1.4097
 2618SOL     OW 8752   3.498   4.063   2.136 -0.0333 -0.3288 -0.0043
 2618SOL    HW1 8753   3.540   4.107   2.215 -0.8518  3.3119 -1.4030
 2618SOL    HW2 8754   3.399   4.061   2.146 -0.1185 -0.2256 -0.7295
 2619SOL     OW 8755   3.179   5.554   5.187  0.7014  0.3675  0.2303
 2619SOL    HW1 8756   3.171   5.464   5.229  0.7763  0.7048  1.0030
 2619SOL    HW2 8757   3.204   5.545   5.091  1.3407 -0.4201  0.4565
 2620SOL     OW 8758   2.898   0.708   1.966 -0.1080  0.3449 -0.2265
 2620SOL    HW1 8759   2.909   0.631   1.903  2.6190 -1.1745  1.8971
 2620SOL    HW2 8760   2.958   0.783   1.937  2.5600 -1.0364  1.3782
 2621SOL     OW 8761   0.523   2.904   4.306 -0.2529  0.5434 -0.1518
 2621SOL    HW1 8762   0.518   2.924   4.208 -2.8929  0.1366 -0.1674
 2621SOL    HW2 8763   0.566   2.815   4.319 -1.0600  0.0106 -1.0335
 2622SOL     OW 8764   4.016   4.350   5.846  0.1103 -0.4847 -0.3872
 2622SOL    HW1 8765   4.062   4.323   5.762 -0.9491 -0.6660 -0.9213
 2622SOL    HW2 8766   3.989   4.268   5.897  1.9276 -0.3933  0.8253
 2623SOL     OW 8767   5.364   2.475   3.908 -0.0066 -0.2909 -0.1179
 2623SOL    HW1 8768   5.351   2.435   3.817  0.1331  1.0975 -0.7870
 2623SOL    HW2 8769   5.449   2.441   3.948  0.5451 -0.0188 -1.0305
 2624SOL     OW 8770   1.325   4.140   2.736 -0.0489 -0.4956  0.5333
 2624SOL    HW1 8771   1.297   4.126   2.641 -1.1081  0.1633  0.7310
 2624SOL    HW2 8772   1.421   4.114   2.747  0.6216  1.0855 -1.1066
 2625SOL     OW 8773   4.851   6.021   2.241  0.5396 -0.3763 -0.1191
 2625SOL    HW1 8774   4.822   5.946   2.181 -0.3865 -0.4822  0.4568
 2625SOL    HW2 8775   4.886   5.984   2.327 -2.3102 -0.1420  1.2497
 2626SOL     OW 8776   1.504   3.610   3.727 -0.1837 -0.3793  0.2131
 2626SOL    HW1 8777   1.427   3.546   3.727 -0.1557 -0.5635  3.3998
 2626SOL    HW2 8778   1.583   3.566   3.770  0.7944  0.8053 -0.3147
 2627SOL     OW 8779   6.983   6.381   5.881  0.0363 -0.8939  0.0980
 2627SOL    HW1 8780   7.040   6.354   5.959 -1.3131  0.6914  1.7239
 2627SOL    HW2 8781   6.910   6.442   5.913 -0.2445  0.2586 -2.5161
 2628SOL     OW 8782   1.026   0.211   2.090 -0.3500 -0.4697  0.3092
 2628SOL    HW1 8783   1.104   0.170   2.043  0.3494  0.0523  0.9819
 2628SOL    HW2 8784   1.048   0.222   2.187 -1.6909 -1.3467  0.7374
 2629SOL     OW 8785   6.271   6.478   4.837 -0.1659 -0.1382  0.2209
 2629SOL    HW1 8786   6.195   6.416   4.854  1.5783 -1.9968  1.7886
 2629SOL    HW2 8787   6.294   6.526   4.922  1.6482 -1.1670  0.3746
 2630SOL     OW 8788   5.545   6.665   5.174 -0.0477  0.2349 -0.2552
 2630SOL    HW1 8789   5.570   6.665   5.077 -0.2688  0.3122 -0.3132
 2630SOL    HW2 8790   5.627   6.678   5.230  0.1588 -0.3408 -0.4116
 2631SOL     OW 8791   4.588   6.903   0.279  0.2831  0.3277  0.0465
 2631SOL    HW1 8792   4.672   6.875   0.325 -0.7892 -0.7053  1.4635
 2631SOL    HW2 8793   4.562   6.995   0.308 -0.0977 -0.1097  1.1190
 2632SOL     OW 8794   1.740   0.105   0.971  0.4179 -0.3232  0.2148
 2632SOL    HW1 8795   1.742   0.123   0.872  2.5987 -0.4094  0.1868
 2632SOL    HW2 8796   1.810   0.160   1.016 -0.0949 -0.7960  1.6332
 2633SOL     OW 8797   0.846   0.330   1.656 -0.1083 -0.3151 -0.0921
 2633SOL    HW1 8798   0.842   0.373   1.746  0.6158  1.4802 -0.8552
 2633SOL    HW2 8799   0.883   0.396   1.590 -1.3585 -1.3165 -1.8674
 2634SOL     OW 8800   5.340   0.168   5.926  0.5571 -0.1885 -0.7926
 2634SOL    HW1 8801   5.299   0.079   5.909  0.0992  0.1407 -1.4683
 2634SOL    HW2 8802   5.293   0.212   6.002  1.7535 -1.1235  0.5351
 2635SOL     OW 8803   6.700   6.689   5.772 -0.0370  0.0534  0.1043
 2635SOL    HW1 8804   6.728   6.621   5.840 -0.7989  0.8993  1.3028
 2635SOL    HW2 8805   6.774   6.703   5.706 -0.2767 -2.7540 -0.8847
 2636SOL     OW 8806   6.405   0.477   2.220  0.2304  0.0532  0.5505
 2636SOL    HW1 8807   6.315   0.514   2.198  1.2534  1.6415 -1.3659
 2636SOL    HW2 8808   6.402   0.429   2.307 -2.4751 -0.0574  0.4535
 2637SOL     OW 8809   5.255   2.074   6.854 -0.3272 -0.2503  0.2886
 2637SOL    HW1 8810   5.245   2.095   6.951  0.0162  0.3157  0.2076
 2637SOL    HW2 8811   5.171   2.033   6.819 -0.7274  0.2706  0.6423
 2638SOL     OW 8812   6.649   0.602   4.188 -0.1761  0.6904 -0.1222
 2638SOL    HW1 8813   6.619   0.510   4.161  0.0674  0.1800  1.2763
 2638SOL    HW2 8814   6.743   0.616   4.159 -0.6396  1.0268 -1.5381
 2639SOL     OW 8815   2.255   0.040   1.445 -0.0607 -0.1881 -0.2843
 2639SOL    HW1 8816   2.264  -0.059   1.456 -0.5015 -0.3604 -1.3213
 2639SOL    HW2 8817   2.191   0.076   1.513 -1.0009 -0.8459 -0.8078
 2640SOL     OW 8818   6.101   0.592   3.779 -0.4110  0.5645  0.1598
 2640SOL    HW1 8819   6.076   0.498   3.755 -0.5196  0.8577 -0.9328
 2640SOL    HW2 8820   6.154   0.632   3.704  1.1446  0.8098  1.3325
 2641SOL     OW 8821   5.239   0.729   2.283 -0.2692  0.3283 -0.2685
 2641SOL    HW1 8822   5.258   0.795   2.356 -0.9957  0.5707 -0.2908
 2641SOL    HW2 8823   5.262   0.637   2.315  0.9470  0.5998 -0.3098
 2642SOL     OW 8824   3.239   1.010   4.621  0.5166  0.0269 -0.0748
 2642SOL    HW1 8825   3.259   1.104   4.648  0.7154 -0.5501  1.9970
 2642SOL    HW2 8826   3.310   0.949   4.658 -1.1707 -1.2527  1.2269
 2643SOL     OW 8827   2.851   2.389   6.131  0.0444  1.0328  0.4136
 2643SOL    HW1 8828   2.796   2.460   6.088 -0.7947 -0.2497 -0.7193
 2643SOL    HW2 8829   2.856   2.309   6.070  0.0386 -0.3103  2.1037
 2644SOL     OW 8830   4.852   2.459   5.300  0.3637 -0.2011 -0.4354
 2644SOL    HW1 8831   4.759   2.426   5.286  0.3665 -0.5445  0.2937
 2644SOL    HW2 8832   4.899   2.464   5.212 -0.8431  1.5489 -1.0414
 2645SOL     OW 8833   6.237   5.405   0.890  0.6761  0.2579 -0.3895
 2645SOL    HW1 8834   6.278   5.347   0.819  2.3249  0.1065  0.6431
 2645SOL    HW2 8835   6.284   5.389   0.977 -0.7326  1.0824  0.5571
 2646SOL     OW 8836   0.387   1.667   4.287  0.1199 -0.0751  0.4992
 2646SOL    HW1 8837   0.435   1.671   4.375 -1.1852 -1.2757  1.3221
 2646SOL    HW2 8838   0.320   1.593   4.290  1.4045 -1.4904 -2.2180
 2647SOL     OW 8839   4.013   4.942   2.227  0.6416  0.5617 -0.5109
 2647SOL    HW1 8840   3.957   4.927   2.145  0.9609  0.7133 -0.7600
 2647SOL    HW2 8841   3.965   5.003   2.290  0.3394  0.3417 -0.5259
 2648SOL     OW 8842   0.360   0.265   4.580 -0.5235  0.2647 -0.1454
 2648SOL    HW1 8843   0.395   0.200   4.513 -1.9669 -0.5637 -0.1461
 2648SOL    HW2 8844   0.345   0.219   4.668 -2.8854  0.1807 -0.5237
 2649SOL     OW 8845   2.132   6.233   6.749  0.5084 -0.0076 -0.2291
 2649SOL    HW1 8846   2.163   6.259   6.841 -0.9668  0.2300  0.2178
 2649SOL    HW2 8847   2.188   6.157   6.715 -0.0966 -1.3572  1.6364
 2650SOL     OW 8848   5.888   3.483   0.327 -0.2072 -0.3385  0.7588
 2650SOL    HW1 8849   5.797   3.517   0.302  0.0898 -0.7328 -0.9817
 2650SOL    HW2 8850   5.958   3.539   0.283  0.3357 -1.3240  0.3366
 2651SOL     OW 8851   6.855   6.830   6.022 -0.2690 -0.7868  0.3431
 2651SOL    HW1 8852   6.888   6.867   6.110 -1.0983  0.7179  0.0564
 2651SOL    HW2 8853   6.918   6.857   5.949  0.4678 -2.1127  0.4468
 2652SOL     OW 8854   4.605   6.397   0.410  0.0498 -0.5049 -0.2957
 2652SOL    HW1 8855   4.523   6.356   0.450 -1.2092  2.0514 -0.0074
 2652SOL    HW2 8856   4.620   6.361   0.318 -0.8922 -1.6200 -0.0341
 2653SOL     OW 8857   6.427   6.576   1.629  0.0138  0.4982 -0.0861
 2653SOL    HW1 8858   6.419   6.651   1.564 -1.1047 -1.0492 -1.8395
 2653SOL    HW2 8859   6.336   6.542   1.652  0.4849 -0.1933  0.8437
 2654SOL     OW 8860   2.517   6.610   6.028  0.4418  0.5528 -0.3009
 2654SOL    HW1 8861   2.499   6.582   5.933 -1.1680 -1.4102  0.4955
 2654SOL    HW2 8862   2.436   6.589   6.084  2.5836 -1.8521  2.1817
 2655SOL     OW 8863   3.237   4.820   5.907 -0.1839 -0.4796  0.3247
 2655SOL    HW1 8864   3.257   4.861   5.996  0.7225  1.2057 -0.6124
 2655SOL    HW2 8865   3.317   4.826   5.848 -0.9240 -1.1110 -0.7875
 2656SOL     OW 8866   1.171   5.439   4.059  0.1821 -0.2507 -0.0068
 2656SOL    HW1 8867   1.139   5.481   4.144  0.9429  0.1130  0.1054
 2656SOL    HW2 8868   1.094   5.394   4.014 -0.1517 -0.8323  1.0873
 2657SOL     OW 8869   1.823   5.198   6.681 -0.2664 -0.3228  0.5971
 2657SOL    HW1 8870   1.730   5.233   6.672  0.2888  1.8478  2.4153
 2657SOL    HW2 8871   1.877   5.226   6.601 -0.1767  2.0667  1.4156
 2658SOL     OW 8872   5.695   3.525   3.284  0.4300 -0.1765  0.2447
 2658SOL    HW1 8873   5.680   3.528   3.186 -2.0724 -0.4237  0.5682
 2658SOL    HW2 8874   5.694   3.618   3.321  1.7050 -0.0571  0.0340
 2659SOL     OW 8875   2.732   4.491   6.946 -0.3079 -0.2099  0.1722
 2659SOL    HW1 8876   2.743   4.395   6.973 -1.2793 -0.3028  0.2886
 2659SOL    HW2 8877   2.663   4.497   6.874 -0.8695  0.4722  0.7491
 2660SOL     OW 8878   2.313   1.988   6.389  0.6454 -0.5562  0.1482
 2660SOL    HW1 8879   2.362   1.901   6.395  1.9320  0.1627  0.3417
 2660SOL    HW2 8880   2.246   1.994   6.463 -1.9426 -2.8133 -1.7678
 2661SOL     OW 8881   6.799   6.416   1.862  0.3634  0.2039  0.2809
 2661SOL    HW1 8882   6.734   6.432   1.937 -0.0256 -0.6106  0.1342
 2661SOL    HW2 8883   6.776   6.473   1.784  1.1414  1.5224  0.9838
 2662SOL     OW 8884   4.121   5.913   1.380 -0.3754  0.0538 -0.8451
 2662SOL    HW1 8885   4.058   5.893   1.455  0.5271 -1.1504 -0.3632
 2662SOL    HW2 8886   4.078   5.890   1.293  0.0213 -2.7473 -0.4132
 2663SOL     OW 8887   2.201   3.779   5.176 -0.2166  0.1837 -0.3899
 2663SOL    HW1 8888   2.277   3.843   5.168 -1.1277  1.2193 -1.0414
 2663SOL    HW2 8889   2.218   3.700   5.116 -0.1320  0.9101 -1.3533
 2664SOL     OW 8890   6.320   0.478   0.775  0.0767  0.8646  0.7077
 2664SOL    HW1 8891   6.263   0.543   0.724 -0.7773 -1.5725 -1.7134
 2664SOL    HW2 8892   6.262   0.426   0.838 -0.0225 -0.2262 -0.2657
 2665SOL     OW 8893   5.322   0.715   6.324  0.1757  0.2848 -0.7047
 2665SOL    HW1 8894   5.296   0.627   6.364 -2.0845  1.6484  1.0123
 2665SOL    HW2 8895   5.307   0.712   6.225  0.1683 -1.2478 -0.6877
 2666SOL     OW 8896   4.116   6.737   3.603  1.0308 -0.0944  0.4373
 2666SOL    HW1 8897   4.216   6.729   3.606  0.9229 -1.4277  2.1982
 2666SOL    HW2 8898   4.076   6.646   3.591  0.0087  0.5354 -1.2421
 2667SOL     OW 8899   0.704   2.430   4.575  0.3126 -0.7416  0.0646
 2667SOL    HW1 8900   0.747   2.512   4.614 -0.5918 -0.2197 -0.0044
 2667SOL    HW2 8901   0.620   2.410   4.625 -0.5099 -0.4612 -1.1733
 2668SOL     OW 8902   4.077   2.027   3.329  0.1138 -0.0252  0.4103
 2668SOL    HW1 8903   4.054   1.969   3.407 -0.1873 -0.5930 -0.0967
 2668SOL    HW2 8904   4.149   1.984   3.275  1.0026  0.8211  0.8983
 2669SOL     OW 8905   5.084   1.383   3.382 -0.5228 -0.0991 -0.1128
 2669SOL    HW1 8906   5.016   1.339   3.324 -0.5985 -2.2180  1.4476
 2669SOL    HW2 8907   5.176   1.351   3.357 -0.1925  1.5336 -1.1681
 2670SOL     OW 8908   0.389   6.825   6.426  0.3602 -0.2576 -0.2868
 2670SOL    HW1 8909   0.487   6.807   6.417  0.4465  0.2663 -0.4880
 2670SOL    HW2 8910   0.367   6.910   6.377 -0.1473 -0.2312 -0.0168
 2671SOL     OW 8911   2.493   6.407   0.098  0.7845  0.1844 -0.6376
 2671SOL    HW1 8912   2.495   6.500   0.136  1.8160 -0.0519 -0.0888
 2671SOL    HW2 8913   2.480   6.341   0.172 -0.3271 -0.1064 -1.0671
 2672SOL     OW 8914   3.162   5.418   3.847 -0.1014 -0.5196  0.2573
 2672SOL    HW1 8915   3.258   5.393   3.861  0.0126 -0.1565  0.1416
 2672SOL    HW2 8916   3.157   5.503   3.794 -0.4524  0.2148  1.4240
 2673SOL     OW 8917   6.741   0.916   4.791  0.0423  0.7137  0.0808
 2673SOL    HW1 8918   6.662   0.859   4.814  0.1089  0.2135 -0.8987
 2673SOL    HW2 8919   6.747   0.992   4.856 -2.0340  1.5401 -0.6056
 2674SOL     OW 8920   3.455   5.654   1.507  0.1355  0.2534 -0.3979
 2674SOL    HW1 8921   3.434   5.694   1.418  1.2318  0.8505 -0.4033
 2674SOL    HW2 8922   3.545   5.612   1.504  0.2043  0.3243  0.4495
 2675SOL     OW 8923   4.242   0.538   0.449 -0.0627  0.1133  0.2639
 2675SOL    HW1 8924   4.309   0.566   0.518 -0.3111 -0.7398  0.8550
 2675SOL    HW2 8925   4.232   0.612   0.382  0.0372  1.0345  1.2327
 2676SOL     OW 8926   0.937   2.558   5.225 -0.0089  0.1774  0.6777
 2676SOL    HW1 8927   0.957   2.509   5.309 -0.1403  0.2988  0.7805
 2676SOL    HW2 8928   1.023   2.589   5.183  0.1290 -0.8535  0.1718
 2677SOL     OW 8929   0.406   0.615   1.955  0.3224  0.0072  0.3757
 2677SOL    HW1 8930   0.475   0.554   1.917  1.5100 -0.0259  2.4441
 2677SOL    HW2 8931   0.426   0.632   2.051 -0.5846  2.7940  0.1680
 2678SOL     OW 8932   4.980   1.870   5.151  0.4052 -0.1407 -0.5090
 2678SOL    HW1 8933   5.028   1.796   5.199 -1.3161 -0.9584  0.0404
 2678SOL    HW2 8934   4.968   1.845   5.055 -0.0227 -0.5131 -0.3626
 2679SOL     OW 8935   4.969   3.095   3.272 -0.4055  0.4157  0.0208
 2679SOL    HW1 8936   4.968   3.080   3.370  2.6358  0.9862  0.2238
 2679SOL    HW2 8937   5.001   3.188   3.252 -1.9006  0.6626 -1.5352
 2680SOL     OW 8938   0.222   0.329   1.199  0.6415 -0.1269 -0.7775
 2680SOL    HW1 8939   0.251   0.261   1.132  1.6835  0.7854 -1.2669
 2680SOL    HW2 8940   0.143   0.379   1.164 -1.3493 -2.2672  0.3478
 2681SOL     OW 8941   0.495   3.002   4.041 -0.9111  0.9261  0.1722
 2681SOL    HW1 8942   0.534   2.925   3.991 -1.3518 -0.0359  1.2562
 2681SOL    HW2 8943   0.417   3.039   3.991 -0.7783  0.5801 -0.2936
 2682SOL     OW 8944   6.747   4.334   4.440 -0.1376 -0.0054 -0.0856
 2682SOL    HW1 8945   6.810   4.410   4.455  0.4134 -0.1368 -1.5825
 2682SOL    HW2 8946   6.656   4.370   4.421  0.1099  0.2754 -0.7330
 2683SOL     OW 8947   1.734   1.382   6.717  0.0149 -0.4959  0.4777
 2683SOL    HW1 8948   1.793   1.441   6.772 -1.3985 -0.0054  1.5094
 2683SOL    HW2 8949   1.714   1.427   6.630 -0.3349  0.1713  0.8929
 2684SOL     OW 8950   2.963   1.467   6.054 -0.3822  0.1282  0.5234
 2684SOL    HW1 8951   2.995   1.535   6.119  0.4185 -0.5565  0.8590
 2684SOL    HW2 8952   2.937   1.384   6.103  0.4925 -0.4925 -0.0501
 2685SOL     OW 8953   2.730   5.962   4.492 -0.4645 -0.6138  0.4344
 2685SOL    HW1 8954   2.804   6.001   4.438  1.2131  0.1402  3.0916
 2685SOL    HW2 8955   2.731   5.862   4.483  0.8376 -0.6051  0.3536
 2686SOL     OW 8956   1.804   0.626   0.031 -0.6288  0.2171 -0.5725
 2686SOL    HW1 8957   1.761   0.710   0.065 -0.4709 -0.6352  1.9849
 2686SOL    HW2 8958   1.736   0.554   0.024 -0.3160 -0.1113 -0.2562
 2687SOL     OW 8959   4.637   2.686   3.969  0.5962 -0.3157  0.3327
 2687SOL    HW1 8960   4.700   2.764   3.973  0.5912 -0.2410 -0.7385
 2687SOL    HW2 8961   4.581   2.684   4.052  0.8055  0.6425  0.5087
 2688SOL     OW 8962   2.544   6.124   6.705  0.1587 -0.2353 -0.4724
 2688SOL    HW1 8963   2.529   6.219   6.733 -0.7080 -0.3162 -0.6122
 2688SOL    HW2 8964   2.642   6.105   6.698  0.3951  0.0338  1.6541
 2689SOL     OW 8965   4.414   2.409   3.339  0.1668 -0.1617  0.0278
 2689SOL    HW1 8966   4.460   2.429   3.426 -0.1427 -1.5950  0.5526
 2689SOL    HW2 8967   4.417   2.310   3.322 -0.9963 -0.0547 -0.8927
 2690SOL     OW 8968   6.558   1.277   0.314 -0.1518  0.0632 -0.6311
 2690SOL    HW1 8969   6.598   1.329   0.390  0.2271  1.5750 -1.8096
 2690SOL    HW2 8970   6.609   1.193   0.300  0.6636  0.4622 -0.1130
 2691SOL     OW 8971   3.142   1.614   3.314 -0.0116  0.6688  0.2148
 2691SOL    HW1 8972   3.075   1.684   3.292  1.6824  2.1545 -0.4861
 2691SOL    HW2 8973   3.174   1.571   3.229 -0.7212 -0.7062  0.6079
 2692SOL     OW 8974   5.797   2.380   2.655 -0.0951  0.4164 -0.2286
 2692SOL    HW1 8975   5.734   2.364   2.578  0.2374 -0.3375 -0.3550
 2692SOL    HW2 8976   5.883   2.333   2.637 -0.4039 -0.7365  1.1220
 2693SOL     OW 8977   3.295   3.163   3.855  0.1465  0.1374  0.5770
 2693SOL    HW1 8978   3.285   3.179   3.756  1.0912  0.1932  0.4770
 2693SOL    HW2 8979   3.226   3.215   3.904 -1.0141 -0.7279 -0.1043
 2694SOL     OW 8980   6.174   4.073   5.144  0.1490  0.2082 -0.1655
 2694SOL    HW1 8981   6.199   4.111   5.055  1.0602  0.3697  0.1454
 2694SOL    HW2 8982   6.256   4.036   5.188 -0.4760 -0.8202  0.1555
 2695SOL     OW 8983   3.358   1.150   6.883  0.3893 -0.3933  0.6322
 2695SOL    HW1 8984   3.395   1.242   6.871 -1.0604  0.1505  0.1437
 2695SOL    HW2 8985   3.275   1.154   6.938  0.4686 -1.4556  0.8536
 2696SOL     OW 8986   0.091   5.398   1.748  0.2355 -0.3270  0.1306
 2696SOL    HW1 8987   0.006   5.359   1.784  0.7597 -0.8424  0.8619
 2696SOL    HW2 8988   0.169   5.351   1.790  0.8838  0.0873 -0.5822
 2697SOL     OW 8989   5.299   2.470   1.978 -0.2606 -0.8510  0.3698
 2697SOL    HW1 8990   5.222   2.529   2.000  1.1028 -0.2307  4.1717
 2697SOL    HW2 8991   5.270   2.374   1.983 -1.1793 -0.6031 -0.0747
 2698SOL     OW 8992   5.051   5.543   3.591  0.1929 -0.1597  0.3493
 2698SOL    HW1 8993   4.979   5.592   3.640  0.5451  0.7595 -0.0278
 2698SOL    HW2 8994   5.009   5.471   3.535 -0.5941  1.1728 -0.8473
 2699SOL     OW 8995   1.502   1.572   6.976 -0.3329  0.3517  0.5700
 2699SOL    HW1 8996   1.583   1.603   7.025  1.1543 -0.3918 -1.2889
 2699SOL    HW2 8997   1.490   1.474   6.989 -0.3117  0.2689  0.0104
 2700SOL     OW 8998   6.277   6.977   1.836 -0.0538  0.1152  0.1846
 2700SOL    HW1 8999   6.264   7.017   1.927  1.6970  0.9759  0.1069
 2700SOL    HW2 9000   6.192   6.934   1.806 -0.5505 -0.6318  2.4243
 2701SOL     OW 9001   4.497   5.577   1.076  0.2213 -0.1283  0.7677
 2701SOL    HW1 9002   4.413   5.534   1.107  0.8042 -0.9894  1.1973
 2701SOL    HW2 9003   4.486   5.676   1.076 -0.9730 -0.2512  0.2587
 2702SOL     OW 9004   5.613   4.452   2.881  0.3621  0.1603  0.4881
 2702SOL    HW1 9005   5.663   4.494   2.805  1.4322 -0.2212  0.9601
 2702SOL    HW2 9006   5.672   4.384   2.926 -1.0870 -1.3749  0.1557
 2703SOL     OW 9007   6.781   1.596   6.071 -0.2187  0.1493  0.5930
 2703SOL    HW1 9008   6.869   1.641   6.086  0.1977 -0.6970  0.7680
 2703SOL    HW2 9009   6.776   1.512   6.126 -1.3276  0.4271  0.9537
 2704SOL     OW 9010   0.291   2.724   6.753  0.1294 -0.6823  0.4745
 2704SOL    HW1 9011   0.351   2.659   6.802 -1.4503 -0.4322  2.9033
 2704SOL    HW2 9012   0.339   2.811   6.742  1.0796 -1.2261  0.1907
 2705SOL     OW 9013   0.018   1.270   4.590 -0.1372  0.5275 -0.1896
 2705SOL    HW1 9014   0.073   1.245   4.510  0.1982 -1.0286  0.4766
 2705SOL    HW2 9015  -0.075   1.290   4.561  0.5560  2.4545 -1.2484
 2706SOL     OW 9016   6.568   1.805   4.949  0.1652 -0.0786 -0.3296
 2706SOL    HW1 9017   6.572   1.886   5.008 -1.5106 -1.5836  2.0556
 2706SOL    HW2 9018   6.659   1.783   4.916  0.6620  2.7552 -1.1015
 2707SOL     OW 9019   5.446   2.492   0.409 -0.1668 -0.7609  0.0309
 2707SOL    HW1 9020   5.541   2.518   0.424 -0.6512  1.1931 -0.0426
 2707SOL    HW2 9021   5.432   2.472   0.312 -0.3351  1.3790 -0.4315
 2708SOL     OW 9022   3.274   4.873   1.185  0.3496 -0.3632  1.0250
 2708SOL    HW1 9023   3.311   4.922   1.264  0.2019  0.7498  0.4297
 2708SOL    HW2 9024   3.336   4.798   1.160  2.6311  1.7600 -0.2726
 2709SOL     OW 9025   4.147   3.740   5.067  0.6031  0.6169 -0.1744
 2709SOL    HW1 9026   4.156   3.643   5.048  0.7585  0.9665 -2.1425
 2709SOL    HW2 9027   4.067   3.776   5.018 -0.4540  1.1826  1.8674
 2710SOL     OW 9028   0.942   3.419   4.708  0.2874  0.3104  0.2031
 2710SOL    HW1 9029   0.974   3.379   4.794  1.3377 -0.6103 -0.5885
 2710SOL    HW2 9030   0.954   3.354   4.633 -3.0089  0.0971 -0.2871
 2711SOL     OW 9031   1.701   2.560   4.999  0.5342  0.3203 -0.1773
 2711SOL    HW1 9032   1.789   2.599   4.974  0.7179 -0.2042 -0.3614
 2711SOL    HW2 9033   1.693   2.467   4.961 -0.6563  0.8709 -1.3459
 2712SOL     OW 9034   0.442   5.156   4.767  0.1906  0.2170 -0.0248
 2712SOL    HW1 9035   0.347   5.141   4.740  0.2307  0.2938 -0.2097
 2712SOL    HW2 9036   0.497   5.077   4.740  0.3790  0.6347 -0.8903
 2713SOL     OW 9037   0.261   6.090   4.649  0.0961 -0.2658 -0.2053
 2713SOL    HW1 9038   0.291   6.177   4.689 -0.4705 -1.0167  2.0130
 2713SOL    HW2 9039   0.197   6.107   4.575  0.4590  1.2123 -0.2008
 2714SOL     OW 9040   6.020   2.260   2.661 -0.0435  0.2741 -0.1483
 2714SOL    HW1 9041   5.968   2.176   2.645 -1.9307  1.4831 -0.7374
 2714SOL    HW2 9042   6.093   2.241   2.726  0.0456 -1.9664 -0.7901
 2715SOL     OW 9043   5.261   5.682   5.437 -0.0023  0.0995 -0.5631
 2715SOL    HW1 9044   5.198   5.723   5.370  0.0756 -0.4160 -0.9586
 2715SOL    HW2 9045   5.217   5.679   5.527 -0.2593  0.4334 -0.6755
 2716SOL     OW 9046   2.590   6.328   4.842  0.2296  0.7094  0.1601
 2716SOL    HW1 9047   2.620   6.243   4.801  2.7287  0.7515  1.6720
 2716SOL    HW2 9048   2.537   6.309   4.925 -0.4623  0.6522 -0.2867
 2717SOL     OW 9049   0.897   4.522   4.750  0.8677  0.0604  0.0878
 2717SOL    HW1 9050   0.989   4.545   4.782  1.7062 -1.1371 -1.2986
 2717SOL    HW2 9051   0.884   4.423   4.754 -0.1919  0.1793 -0.1479
 2718SOL     OW 9052   6.676   5.659   3.334 -0.6705  0.7509  0.1243
 2718SOL    HW1 9053   6.716   5.716   3.262 -0.4451 -0.9518 -1.1829
 2718SOL    HW2 9054   6.584   5.691   3.355 -0.7787  1.2343 -1.0143
 2719SOL     OW 9055   6.893   3.831   0.932 -1.3112 -0.1473 -0.0439
 2719SOL    HW1 9056   6.876   3.901   1.002 -0.5881 -0.9107  0.9159
 2719SOL    HW2 9057   6.916   3.876   0.845 -1.4286  0.8058  0.4069
 2720SOL     OW 9058   7.012   6.872   3.471  0.1006  0.0395 -0.2770
 2720SOL    HW1 9059   7.019   6.947   3.536 -0.8761 -0.6246  0.6465
 2720SOL    HW2 9060   7.073   6.888   3.394  0.8862  1.1144  0.5403
 2721SOL     OW 9061   5.654   5.589   1.130  0.1373  0.3896  0.7391
 2721SOL    HW1 9062   5.662   5.552   1.222 -1.2347  1.2796  1.2492
 2721SOL    HW2 9063   5.560   5.619   1.114  0.6276  1.3581 -0.5274
 2722SOL     OW 9064   0.480   3.667   2.538 -0.0748  0.0006 -0.2775
 2722SOL    HW1 9065   0.548   3.679   2.466  0.5196  1.5759  0.4988
 2722SOL    HW2 9066   0.524   3.675   2.628 -1.0454 -0.3675  0.2510
 2723SOL     OW 9067   2.646   5.356   0.708 -0.6260  0.0915  0.6299
 2723SOL    HW1 9068   2.558   5.317   0.733  0.7628 -2.6816  1.6530
 2723SOL    HW2 9069   2.719   5.293   0.735  1.4896  0.1105 -4.1266
 2724SOL     OW 9070   6.812   4.670   1.971  0.1920 -0.7384 -0.6205
 2724SOL    HW1 9071   6.742   4.653   1.901  0.2774 -1.4118 -0.5512
 2724SOL    HW2 9072   6.810   4.766   1.997 -0.6860 -0.7386 -0.6498
 2725SOL     OW 9073   5.478   0.172   4.032  0.0786 -0.3375 -0.2216
 2725SOL    HW1 9074   5.535   0.169   4.114  0.2504 -0.3170 -0.3416
 2725SOL    HW2 9075   5.492   0.259   3.984 -0.6167 -0.0028  0.1548
 2726SOL     OW 9076   5.000   5.580   3.070 -0.2952 -0.0630  0.1599
 2726SOL    HW1 9077   4.979   5.669   3.029 -0.0085 -0.2111 -0.3157
 2726SOL    HW2 9078   5.014   5.513   2.997  0.2352 -0.3252  0.4979
 2727SOL     OW 9079   6.965   3.493   5.943  0.1795  0.3419  0.1203
 2727SOL    HW1 9080   6.900   3.432   5.988 -1.6870  0.0401 -2.7132
 2727SOL    HW2 9081   6.948   3.588   5.971 -0.1972  0.0614  0.8416
 2728SOL     OW 9082   1.449   1.628   1.426 -0.0205  0.0933 -0.1658
 2728SOL    HW1 9083   1.445   1.682   1.341 -0.3701 -0.1583 -0.3089
 2728SOL    HW2 9084   1.522   1.664   1.484  1.2535 -0.6697 -1.2254
 2729SOL     OW 9085   3.359   6.691   6.245 -0.1965 -0.3240  0.5610
 2729SOL    HW1 9086   3.275   6.697   6.191  0.3226 -0.1194 -0.2273
 2729SOL    HW2 9087   3.436   6.669   6.186  0.7690  2.0245  0.8263
 2730SOL     OW 9088   6.204   6.071   4.664  1.0078 -0.1926 -0.4414
 2730SOL    HW1 9089   6.185   6.132   4.587  0.6112  0.5008  0.1853
 2730SOL    HW2 9090   6.278   6.008   4.640  0.3820 -0.4983 -1.6552
 2731SOL     OW 9091   4.908   5.085   3.275 -0.1012 -0.6533  0.4426
 2731SOL    HW1 9092   4.910   5.136   3.189  0.2244  1.4901  1.6279
 2731SOL    HW2 9093   4.991   5.029   3.282  0.6868  0.4177  0.0404
 2732SOL     OW 9094   4.102   4.044   6.196  0.5911  0.2196 -0.3975
 2732SOL    HW1 9095   4.038   4.005   6.261  0.3251  0.8197 -0.2876
 2732SOL    HW2 9096   4.108   3.986   6.115  1.8991 -1.2291  0.6727
 2733SOL     OW 9097   6.427   3.103   6.133  0.1887  0.7422  0.3408
 2733SOL    HW1 9098   6.398   3.011   6.157  0.3455  0.1386 -1.6511
 2733SOL    HW2 9099   6.360   3.169   6.168 -0.1883 -0.1324  1.3402
 2734SOL     OW 9100   4.129   6.518   4.560 -0.0198 -0.2937 -0.2773
 2734SOL    HW1 9101   4.031   6.540   4.554  0.4019  1.4244 -1.5015
 2734SOL    HW2 9102   4.181   6.602   4.577  1.3256 -1.0677 -0.4470
 2735SOL     OW 9103   0.446   3.396   6.616  0.1648  0.2999 -0.3906
 2735SOL    HW1 9104   0.463   3.446   6.532  0.3573 -0.3170 -0.7243
 2735SOL    HW2 9105   0.418   3.460   6.688  0.3385  0.8695 -0.8236
 2736SOL     OW 9106   1.576   4.628   5.984 -0.5369 -0.4646  0.2608
 2736SOL    HW1 9107   1.558   4.719   6.021 -0.6290 -0.6382  0.6553
 2736SOL    HW2 9108   1.661   4.629   5.931 -1.0819  0.0897 -0.6124
 2737SOL     OW 9109   3.150   3.339   1.907 -0.2846 -0.2814  0.4225
 2737SOL    HW1 9110   3.075   3.394   1.872 -0.6888 -0.7689  0.5192
 2737SOL    HW2 9111   3.118   3.246   1.925  0.2379 -0.3812  0.8566
 2738SOL     OW 9112   5.986   2.313   1.064  0.3123  0.2540 -0.3262
 2738SOL    HW1 9113   5.946   2.261   1.140  1.2389 -1.1296 -0.7441
 2738SOL    HW2 9114   6.005   2.251   0.988  2.2798  1.0106 -0.5152
 2739SOL     OW 9115   0.886   6.372   0.345  0.2829 -0.0579 -0.3720
 2739SOL    HW1 9116   0.822   6.405   0.275  0.4472 -1.7847 -1.3939
 2739SOL    HW2 9117   0.925   6.450   0.394 -2.2907  1.0947  0.0404
 2740SOL     OW 9118   2.781   4.824   3.932  0.0960  0.2435 -0.1612
 2740SOL    HW1 9119   2.822   4.809   3.842 -0.4736  0.9060 -0.5384
 2740SOL    HW2 9120   2.714   4.897   3.926 -1.0720 -0.7454  0.4792
 2741SOL     OW 9121   0.024   0.697   1.807  0.5158 -0.2582 -0.4249
 2741SOL    HW1 9122  -0.062   0.746   1.794  0.5770 -0.5733 -2.3652
 2741SOL    HW2 9123   0.076   0.698   1.721  2.0920 -0.7547  0.4843
 2742SOL     OW 9124   3.025   4.699   1.383  0.2149 -0.1139 -0.0806
 2742SOL    HW1 9125   3.109   4.723   1.432  0.4977 -1.6684  0.2704
 2742SOL    HW2 9126   2.980   4.623   1.430 -1.4661  0.7528 -0.2114
 2743SOL     OW 9127   2.059   3.022   4.832 -0.6483  0.2033 -0.2555
 2743SOL    HW1 9128   1.960   3.039   4.828 -0.4810  1.1665 -0.5319
 2743SOL    HW2 9129   2.106   3.088   4.774  0.1153 -0.7044 -0.6870
 2744SOL     OW 9130   6.904   2.610   5.322 -0.0389 -0.1490  0.1382
 2744SOL    HW1 9131   6.982   2.664   5.291 -1.5564  1.5384 -0.9482
 2744SOL    HW2 9132   6.935   2.521   5.354  2.2694  0.3494 -0.5603
 2745SOL     OW 9133   3.479   2.022   1.485 -0.1629 -0.0559 -0.3793
 2745SOL    HW1 9134   3.516   2.059   1.570 -2.9572  0.1303  0.8692
 2745SOL    HW2 9135   3.508   2.080   1.408  1.3700  0.5152  0.5911
 2746SOL     OW 9136   3.708   6.267   6.912 -0.3220 -0.6676 -0.2543
 2746SOL    HW1 9137   3.632   6.305   6.859  0.3865 -2.4509 -2.7898
 2746SOL    HW2 9138   3.774   6.339   6.932 -2.3219  0.7999  1.4977
 2747SOL     OW 9139   6.663   5.719   5.318 -0.2419  0.0124  0.3485
 2747SOL    HW1 9140   6.566   5.716   5.346 -0.9154  3.2768 -1.2345
 2747SOL    HW2 9141   6.668   5.721   5.218  1.4162  0.7407  0.4306
 2748SOL     OW 9142   5.240   0.656   0.583 -0.4685 -0.5347 -0.2615
 2748SOL    HW1 9143   5.171   0.590   0.555  0.1041 -0.5065 -1.8385
 2748SOL    HW2 9144   5.331   0.616   0.572 -0.1311  0.3442 -0.8422
 2749SOL     OW 9145   0.339   4.155   4.507  0.1114  0.4849  0.3846
 2749SOL    HW1 9146   0.377   4.244   4.530 -0.9293  0.8831  0.5947
 2749SOL    HW2 9147   0.298   4.159   4.416 -1.0805  0.5928  0.9121
 2750SOL     OW 9148   1.177   2.268   2.726  0.0212 -0.4472  0.3904
 2750SOL    HW1 9149   1.233   2.350   2.737 -0.5334  0.2922 -1.7814
 2750SOL    HW2 9150   1.121   2.254   2.808  0.8945  0.7412  1.2134
 2751SOL     OW 9151   3.382   5.285   3.217 -0.3928 -0.5980 -0.2301
 2751SOL    HW1 9152   3.431   5.372   3.215 -1.9245  0.2866 -0.6273
 2751SOL    HW2 9153   3.289   5.299   3.250 -0.5573 -2.1636  0.0793
 2752SOL     OW 9154   0.884   1.748   3.974 -0.5806  0.3627  0.4834
 2752SOL    HW1 9155   0.924   1.780   3.888  1.8897 -1.2636  0.9216
 2752SOL    HW2 9156   0.889   1.648   3.978 -2.5325  0.2590  1.6889
 2753SOL     OW 9157   0.528   2.933   5.489  0.3768 -0.2785 -0.3321
 2753SOL    HW1 9158   0.503   2.992   5.565  2.5066  1.7530 -1.0897
 2753SOL    HW2 9159   0.485   2.843   5.501 -1.2891  0.7246  1.9476
 2754SOL     OW 9160   4.216   5.272   3.752 -0.3362  0.2637 -0.5447
 2754SOL    HW1 9161   4.296   5.216   3.733 -0.1787  0.4333 -0.3815
 2754SOL    HW2 9162   4.201   5.336   3.677 -0.8164 -0.3400 -0.9742
 2755SOL     OW 9163   1.563   4.321   2.177 -1.2012 -0.2026 -0.3832
 2755SOL    HW1 9164   1.621   4.370   2.112 -0.9261 -1.3217 -1.0132
 2755SOL    HW2 9165   1.618   4.255   2.227 -1.1349  1.5284  1.9771
 2756SOL     OW 9166   3.856   1.310   0.498  0.0039  0.3101 -0.8260
 2756SOL    HW1 9167   3.898   1.396   0.470  1.1209  0.3331  0.7258
 2756SOL    HW2 9168   3.856   1.304   0.598  1.6592 -2.2338 -0.8580
 2757SOL     OW 9169   5.758   4.035   1.961 -0.3701  0.4772 -0.0267
 2757SOL    HW1 9170   5.762   4.057   2.059  0.5321  1.4296 -0.2499
 2757SOL    HW2 9171   5.772   3.937   1.948 -0.0268  0.4126  0.7792
 2758SOL     OW 9172   0.959   6.628   3.084  0.4929 -0.2115  0.1248
 2758SOL    HW1 9173   0.963   6.696   3.158  0.8224 -0.3975  0.2797
 2758SOL    HW2 9174   0.953   6.675   2.996  0.8957  0.0232  0.2190
 2759SOL     OW 9175   0.210   2.458   5.095  0.1963 -0.1602 -0.0191
 2759SOL    HW1 9176   0.150   2.524   5.050  0.1723  0.1817  0.5128
 2759SOL    HW2 9177   0.301   2.462   5.053  0.6176  1.2667  0.9740
 2760SOL     OW 9178   3.732   4.432   5.952  0.2212  0.0789 -0.0654
 2760SOL    HW1 9179   3.772   4.414   6.042  2.0225 -1.3414 -1.0911
 2760SOL    HW2 9180   3.634   4.447   5.962  0.1420 -1.3680  1.9934
 2761SOL     OW 9181   1.416   6.906   1.447  0.3971  0.4327 -0.2766
 2761SOL    HW1 9182   1.384   6.820   1.407  0.4022  0.0620  0.4897
 2761SOL    HW2 9183   1.391   6.982   1.387 -1.3172  0.0883 -0.0467
 2762SOL     OW 9184   0.224   2.588   2.448 -0.0825  0.6949  0.5110
 2762SOL    HW1 9185   0.125   2.599   2.448 -0.1417  0.4519  2.0631
 2762SOL    HW2 9186   0.264   2.644   2.376 -1.3187  1.0841  0.1082
 2763SOL     OW 9187   6.644   5.997   5.914 -0.3960 -0.4046 -0.2107
 2763SOL    HW1 9188   6.740   6.015   5.893 -0.5003 -0.2892 -0.6180
 2763SOL    HW2 9189   6.611   6.065   5.980  0.2389 -1.4449  1.2232
 2764SOL     OW 9190   3.675   2.069   5.073 -0.2751 -0.8610 -0.0797
 2764SOL    HW1 9191   3.667   1.985   5.021 -0.1775 -0.8336 -0.1409
 2764SOL    HW2 9192   3.586   2.112   5.082 -0.0891 -0.1281 -1.4641
 2765SOL     OW 9193   5.557   2.372   2.782  0.4927  0.4662  0.1342
 2765SOL    HW1 9194   5.527   2.323   2.864  0.8377 -0.9043 -0.5281
 2765SOL    HW2 9195   5.655   2.358   2.767  0.8286  2.1838  0.4428
 2766SOL     OW 9196   5.741   2.349   0.229  0.2666 -0.3916  0.0470
 2766SOL    HW1 9197   5.744   2.380   0.134 -0.4627 -1.2249 -0.2671
 2766SOL    HW2 9198   5.721   2.251   0.231  1.2103 -0.5925  1.0402
 2767SOL     OW 9199   3.435   1.485   4.256 -0.5287 -0.1156  0.1159
 2767SOL    HW1 9200   3.507   1.555   4.258 -0.4058 -0.1479 -1.7063
 2767SOL    HW2 9201   3.411   1.460   4.350 -0.2192  1.9994  0.8253
 2768SOL     OW 9202   0.219   4.964   2.245  0.4082 -0.1751 -0.3093
 2768SOL    HW1 9203   0.133   5.015   2.243 -2.0385 -3.8564 -0.9211
 2768SOL    HW2 9204   0.285   5.011   2.302 -2.2845  2.4684  0.9008
 2769SOL     OW 9205   2.417   1.381   2.906 -0.6768 -0.5440 -0.0918
 2769SOL    HW1 9206   2.483   1.455   2.921  0.0347 -1.3855  1.1631
 2769SOL    HW2 9207   2.384   1.348   2.994 -0.6548 -2.0000 -0.6013
 2770SOL     OW 9208   4.783   1.310   3.929 -0.4144 -0.2381 -0.2571
 2770SOL    HW1 9209   4.838   1.387   3.897 -1.0303 -0.2568 -1.3882
 2770SOL    HW2 9210   4.721   1.340   4.000 -0.3846  0.2267 -0.4260
 2771SOL     OW 9211   0.442   4.036   2.839  0.1741  0.1172  1.2105
 2771SOL    HW1 9212   0.456   4.086   2.925  0.2917 -0.1236  1.3324
 2771SOL    HW2 9213   0.495   3.951   2.842 -0.7689 -0.4700  1.3821
 2772SOL     OW 9214   0.670   3.127   4.337 -0.0693 -0.0828 -0.1543
 2772SOL    HW1 9215   0.598   3.059   4.326  0.2916 -0.4706 -0.1330
 2772SOL    HW2 9216   0.753   3.095   4.293  0.3633 -0.0593  0.6271
 2773SOL     OW 9217   0.522   4.519   2.047 -0.4501 -0.0102 -0.0448
 2773SOL    HW1 9218   0.602   4.465   2.020 -0.2395 -0.0161  0.5766
 2773SOL    HW2 9219   0.541   4.616   2.033  1.1545  0.3606  3.5957
 2774SOL     OW 9220   6.900   2.588   5.707 -0.4741 -0.1577  0.0170
 2774SOL    HW1 9221   6.825   2.651   5.686  0.6981  2.2922  2.5586
 2774SOL    HW2 9222   6.863   2.503   5.744 -2.0381  0.7080  0.5481
 2775SOL     OW 9223   2.090   1.536   6.219  0.5896  0.3190 -0.4999
 2775SOL    HW1 9224   2.052   1.626   6.201 -0.3971 -0.3020 -1.6478
 2775SOL    HW2 9225   2.126   1.533   6.313 -0.9010  1.3822  0.1470
 2776SOL     OW 9226   2.430   3.527   0.219 -0.1195 -0.2497 -0.1686
 2776SOL    HW1 9227   2.377   3.612   0.214 -0.9353 -0.6836  0.8441
 2776SOL    HW2 9228   2.522   3.547   0.254  0.5164  0.5367 -2.1329
 2777SOL     OW 9229   5.574   6.244   3.958 -0.5692  0.0009 -0.1160
 2777SOL    HW1 9230   5.547   6.148   3.945 -0.7650  0.0185  0.1464
 2777SOL    HW2 9231   5.498   6.294   3.999  0.0748 -0.0961  1.2508
 2778SOL     OW 9232   4.447   6.933   6.133  0.1406 -0.2422  0.3050
 2778SOL    HW1 9233   4.381   6.917   6.206 -0.7022  0.5560 -0.2572
 2778SOL    HW2 9234   4.400   6.933   6.044  0.7739  1.0077 -0.0515
 2779SOL     OW 9235   0.102   2.178   5.571 -0.1772  0.4796  0.3046
 2779SOL    HW1 9236   0.114   2.125   5.655 -3.0752 -1.9631 -0.6462
 2779SOL    HW2 9237   0.170   2.149   5.503 -0.5692 -0.7125  0.4034
 2780SOL     OW 9238   5.299   4.949   1.930 -0.2413  0.2038 -0.4729
 2780SOL    HW1 9239   5.337   5.017   1.993 -2.8518  1.0850  0.3036
 2780SOL    HW2 9240   5.346   4.955   1.842  0.8294  1.7350  0.1519
 2781SOL     OW 9241   5.798   3.487   6.751 -0.2044  0.2469 -0.3478
 2781SOL    HW1 9242   5.770   3.463   6.658  1.5578 -0.7313 -0.6783
 2781SOL    HW2 9243   5.882   3.438   6.774  0.1863  1.5690  1.2478
 2782SOL     OW 9244   1.650   5.663   4.660  0.3916  0.1819 -0.2004
 2782SOL    HW1 9245   1.730   5.606   4.679  0.2349  0.1523  0.3912
 2782SOL    HW2 9246   1.614   5.699   4.745 -1.3313 -1.3066 -0.2374
 2783SOL     OW 9247   2.793   0.669   6.534  0.7571 -0.1562  0.0935
 2783SOL    HW1 9248   2.788   0.641   6.630  1.7316  1.4548  0.6403
 2783SOL    HW2 9249   2.880   0.639   6.496 -0.5794 -2.9324 -1.0605
 2784SOL     OW 9250   2.263   4.122   4.355  0.1273  0.5821 -0.1653
 2784SOL    HW1 9251   2.254   4.119   4.256  1.2022 -0.5735 -0.2584
 2784SOL    HW2 9252   2.325   4.049   4.385  1.1852  1.9703  1.2012
 2785SOL     OW 9253   2.924   4.243   5.655  0.0829  0.3862 -0.3521
 2785SOL    HW1 9254   2.829   4.257   5.684  0.5799  0.4218  1.3729
 2785SOL    HW2 9255   2.934   4.271   5.560 -1.4188  1.3189 -0.2711
 2786SOL     OW 9256   0.008   2.080   0.163  0.1463 -0.0798  0.5826
 2786SOL    HW1 9257  -0.085   2.051   0.188 -0.1658 -0.0606 -0.4916
 2786SOL    HW2 9258   0.012   2.097   0.064  0.9877  1.0582  0.7907
 2787SOL     OW 9259   0.243   3.273   5.341 -0.6185 -0.1600 -0.2570
 2787SOL    HW1 9260   0.272   3.248   5.434 -0.5297  1.4467  0.1765
 2787SOL    HW2 9261   0.191   3.197   5.301  1.1875 -1.7329  0.2562
 2788SOL     OW 9262   5.007   1.534   0.968 -0.1938 -0.0546  0.8158
 2788SOL    HW1 9263   4.915   1.504   0.941  0.6074 -2.0629  0.1328
 2788SOL    HW2 9264   5.026   1.504   1.061 -0.4611  0.9733  1.2155
 2789SOL     OW 9265   4.559   2.597   2.676 -0.1308  0.4388 -0.2608
 2789SOL    HW1 9266   4.609   2.683   2.672  1.1593 -0.1452  1.8838
 2789SOL    HW2 9267   4.523   2.583   2.768 -1.0241 -0.9353 -0.7815
 2790SOL     OW 9268   1.084   2.473   0.479 -0.7646 -0.2191  0.1893
 2790SOL    HW1 9269   1.005   2.486   0.539 -0.2692  1.0228  0.6067
 2790SOL    HW2 9270   1.126   2.384   0.499  0.3082  0.7708  2.8282
 2791SOL     OW 9271   6.095   1.553   1.517  0.0897  0.3373 -0.0214
 2791SOL    HW1 9272   6.055   1.517   1.433  0.6360  1.2110 -0.6783
 2791SOL    HW2 9273   6.027   1.609   1.564 -0.1307  0.0748 -0.0237
 2792SOL     OW 9274   5.357   2.685   5.753 -0.1208  0.3105 -0.4377
 2792SOL    HW1 9275   5.285   2.656   5.817  0.1031 -0.3377 -0.4728
 2792SOL    HW2 9276   5.413   2.606   5.729 -0.2429  0.5361 -1.4878
 2793SOL     OW 9277   2.170   3.158   2.416 -0.4486  0.2531 -0.3390
 2793SOL    HW1 9278   2.167   3.088   2.487 -0.2111  1.4896  0.9288
 2793SOL    HW2 9279   2.264   3.189   2.403 -0.7232  1.3550  0.1661
 2794SOL     OW 9280   4.433   3.636   0.500 -0.3518 -0.6062 -0.2627
 2794SOL    HW1 9281   4.532   3.621   0.488  0.2515  2.4302  0.1050
 2794SOL    HW2 9282   4.410   3.624   0.597 -0.1149 -0.1927 -0.1545
 2795SOL     OW 9283   6.116   1.803   5.477  0.6391  0.3973 -0.3569
 2795SOL    HW1 9284   6.165   1.736   5.421 -0.6599 -0.9554  0.0499
 2795SOL    HW2 9285   6.142   1.792   5.573 -0.0795  0.0155 -0.2047
 2796SOL     OW 9286   0.318   5.685   0.778 -0.6251 -0.5730 -0.0206
 2796SOL    HW1 9287   0.268   5.599   0.767  1.1224 -1.9931  2.4248
 2796SOL    HW2 9288   0.362   5.687   0.867  0.8700  2.1134 -0.7285
 2797SOL     OW 9289   2.988   3.960   0.094 -0.1475 -0.3191  0.1548
 2797SOL    HW1 9290   2.994   3.957   0.194  3.2055 -1.1230  0.0405
 2797SOL    HW2 9291   2.967   4.053   0.064  0.2322  0.2432  1.5627
 2798SOL     OW 9292   6.095   4.281   3.447 -0.0280  0.0455  0.3933
 2798SOL    HW1 9293   6.101   4.304   3.350  0.2568  1.4652  0.7278
 2798SOL    HW2 9294   6.004   4.247   3.468 -0.1016 -0.2423 -0.3551
 2799SOL     OW 9295   6.870   1.930   2.776  0.1217 -0.6197  0.3311
 2799SOL    HW1 9296   6.872   1.960   2.680 -1.5361  0.2131  0.5113
 2799SOL    HW2 9297   6.925   1.991   2.831  0.4654 -0.6478  0.0229
 2800SOL     OW 9298   4.817   4.925   3.550  0.2005 -0.4209 -0.2179
 2800SOL    HW1 9299   4.748   4.853   3.553 -2.7477  2.1723 -0.1620
 2800SOL    HW2 9300   4.799   4.984   3.471  0.3814  2.0999  1.5141
 2801SOL     OW 9301   6.520   1.512   5.242 -0.0068  0.1697 -0.4404
 2801SOL    HW1 9302   6.528   1.414   5.225 -1.6171 -0.2457  0.9394
 2801SOL    HW2 9303   6.512   1.560   5.155 -1.3425 -1.1601 -1.1065
 2802SOL     OW 9304   2.904   5.627   2.247 -0.5923 -0.2475 -0.2378
 2802SOL    HW1 9305   2.914   5.532   2.217 -0.5992  0.1646 -1.6044
 2802SOL    HW2 9306   2.886   5.685   2.168  1.6124  1.2206  0.2436
 2803SOL     OW 9307   0.834   1.491   6.516 -0.3202 -0.5743  0.5407
 2803SOL    HW1 9308   0.914   1.462   6.569 -0.4177 -1.7920  0.0568
 2803SOL    HW2 9309   0.757   1.432   6.538 -1.6968  1.8019  2.4834
 2804SOL     OW 9310   4.954   2.391   4.237 -0.2249  0.6552 -0.0848
 2804SOL    HW1 9311   4.959   2.305   4.287  0.0267  0.8543  0.2429
 2804SOL    HW2 9312   4.952   2.373   4.139 -2.7097  0.1808  0.0072
 2805SOL     OW 9313   2.092   5.445   0.346 -0.3501 -0.3909 -0.0975
 2805SOL    HW1 9314   2.177   5.464   0.298 -0.0940 -1.8264 -0.2624
 2805SOL    HW2 9315   2.023   5.513   0.322  0.3155 -0.0641 -1.1121
 2806SOL     OW 9316   2.930   2.937   5.334  0.3956 -0.2630  0.4656
 2806SOL    HW1 9317   2.833   2.948   5.356  0.3906  1.7520 -0.3074
 2806SOL    HW2 9318   2.948   2.978   5.245  1.6796 -2.0926 -0.1692
 2807SOL     OW 9319   6.628   5.715   3.852  0.4198 -0.1092 -0.4719
 2807SOL    HW1 9320   6.682   5.789   3.894 -1.0944  0.9679 -0.3452
 2807SOL    HW2 9321   6.649   5.710   3.754  2.3131 -1.1531 -0.0645
 2808SOL     OW 9322   1.958   4.715   5.614  0.3574 -0.1876 -0.1130
 2808SOL    HW1 9323   1.981   4.807   5.644  0.0098  0.0008 -0.4132
 2808SOL    HW2 9324   2.042   4.662   5.600  0.5679  0.1627 -0.1858
 2809SOL     OW 9325   2.155   3.376   3.339  0.3044  0.6608 -0.4005
 2809SOL    HW1 9326   2.111   3.464   3.360  0.8679  1.0920 -0.9965
 2809SOL    HW2 9327   2.162   3.366   3.240 -0.8234 -0.5993 -0.3779
 2810SOL     OW 9328   3.544   3.916   4.210  0.2559  0.3198  0.4977
 2810SOL    HW1 9329   3.468   3.981   4.210 -1.6675 -1.7353 -1.5462
 2810SOL    HW2 9330   3.526   3.844   4.277  0.3944 -0.1702  0.0161
 2811SOL     OW 9331   4.566   4.522   3.348  0.0846  0.0906 -0.0883
 2811SOL    HW1 9332   4.488   4.550   3.403  0.4502  1.2860 -0.1504
 2811SOL    HW2 9333   4.537   4.456   3.279 -0.8574  0.5006 -0.0918
 2812SOL     OW 9334   6.942   5.476   6.415  0.4927  0.3649  0.2836
 2812SOL    HW1 9335   7.022   5.422   6.390  1.1687  0.8943  1.2325
 2812SOL    HW2 9336   6.943   5.562   6.365  0.4805  0.3458  0.2504
 2813SOL     OW 9337   3.229   4.501   6.347 -0.1279  0.6572 -0.5642
 2813SOL    HW1 9338   3.251   4.467   6.256 -2.2379  0.9506 -1.2338
 2813SOL    HW2 9339   3.156   4.445   6.387  0.5487  0.7267  0.8436
 2814SOL     OW 9340   4.801   5.222   3.700 -0.6530  0.2914  0.3567
 2814SOL    HW1 9341   4.808   5.256   3.794 -0.0332  0.0556  0.3999
 2814SOL    HW2 9342   4.725   5.267   3.654  0.7701  2.5505  0.0706
 2815SOL     OW 9343   6.203   2.482   2.875 -0.9378 -0.0621 -0.6524
 2815SOL    HW1 9344   6.250   2.464   2.961  0.4212 -0.5607 -1.4703
 2815SOL    HW2 9345   6.221   2.408   2.811 -0.5441  1.0774 -1.9224
 2816SOL     OW 9346   0.464   4.155   3.780 -0.2740  0.1695 -0.3549
 2816SOL    HW1 9347   0.418   4.155   3.691  0.1998 -0.8694 -0.6107
 2816SOL    HW2 9348   0.419   4.089   3.840  0.6705 -0.6340 -0.5092
 2817SOL     OW 9349   1.464   4.909   6.038  0.3568 -0.4334  0.0713
 2817SOL    HW1 9350   1.452   5.004   6.064  0.3723 -0.3653 -0.1680
 2817SOL    HW2 9351   1.387   4.855   6.073 -0.9639  0.0758 -1.8402
 2818SOL     OW 9352   5.187   6.564   3.165 -0.3242  0.2210  0.9232
 2818SOL    HW1 9353   5.134   6.486   3.199 -1.2885 -0.2498 -1.4879
 2818SOL    HW2 9354   5.202   6.555   3.067 -0.2373  2.9352  0.6016
 2819SOL     OW 9355   4.964   2.246   5.039 -0.0002 -0.4413 -0.1225
 2819SOL    HW1 9356   4.923   2.324   4.991 -0.6993 -0.0980  1.0038
 2819SOL    HW2 9357   4.904   2.216   5.113  0.9310 -1.1275  0.3811
 2820SOL     OW 9358   3.149   3.024   4.710 -0.3680 -0.0141  0.0124
 2820SOL    HW1 9359   3.200   2.972   4.641 -1.5986  0.3868 -1.2420
 2820SOL    HW2 9360   3.176   2.993   4.801  0.3052 -1.5230 -0.6588
 2821SOL     OW 9361   2.054   1.444   4.647 -0.2329 -0.2824 -0.0857
 2821SOL    HW1 9362   2.076   1.368   4.586  0.5383 -0.4561  0.3928
 2821SOL    HW2 9363   2.094   1.528   4.612 -0.8124 -0.1542 -0.4463
 2822SOL     OW 9364   1.146   6.629   5.296 -0.6167  0.3539  0.3836
 2822SOL    HW1 9365   1.172   6.617   5.200  0.7298 -1.1241  0.8884
 2822SOL    HW2 9366   1.207   6.696   5.338  0.5848 -0.9661  0.8347
 2823SOL     OW 9367   2.806   3.258   0.022  0.1630 -0.0553  0.3540
 2823SOL    HW1 9368   2.821   3.350   0.057 -1.0298  0.0302  0.6788
 2823SOL    HW2 9369   2.827   3.255  -0.075  0.0707  0.5927  0.3114
 2824SOL     OW 9370   1.207   3.683   3.181  0.0523 -0.2440  0.0863
 2824SOL    HW1 9371   1.149   3.764   3.187  0.2635  0.0022 -1.0238
 2824SOL    HW2 9372   1.301   3.709   3.161  0.0951 -0.7660 -0.4332
 2825SOL     OW 9373   3.880   5.771   6.302  0.1632 -0.1711  0.1721
 2825SOL    HW1 9374   3.816   5.760   6.378 -0.0728 -1.5893 -0.2055
 2825SOL    HW2 9375   3.830   5.787   6.218  0.3835  0.2919  0.1235
 2826SOL     OW 9376   3.756   0.066   3.464 -0.4631 -0.0245  0.8350
 2826SOL    HW1 9377   3.781  -0.011   3.522 -0.4034 -0.9852 -0.4279
 2826SOL    HW2 9378   3.689   0.123   3.512  0.6322  0.0166  2.4011
 2827SOL     OW 9379   6.975   0.396   3.706 -0.0542 -0.1596 -0.0184
 2827SOL    HW1 9380   6.974   0.434   3.613  0.9062 -0.3448 -0.1118
 2827SOL    HW2 9381   7.034   0.453   3.764 -0.7524  0.0323  0.5208
 2828SOL     OW 9382   0.834   0.911   4.267 -0.3126  0.5404  0.1609
 2828SOL    HW1 9383   0.857   0.817   4.243 -1.2750 -0.0122  1.3232
 2828SOL    HW2 9384   0.909   0.971   4.239  0.4900 -0.6158 -0.2570
 2829SOL     OW 9385   6.757   6.364   0.561  0.0591 -0.0650  0.2648
 2829SOL    HW1 9386   6.697   6.309   0.619  0.9773 -0.9129  0.4341
 2829SOL    HW2 9387   6.775   6.452   0.605 -1.2481  0.3191  0.0918
 2830SOL     OW 9388   3.834   3.607   3.882  0.1186  0.5955 -0.2764
 2830SOL    HW1 9389   3.777   3.641   3.956  1.1908  0.0475  0.8427
 2830SOL    HW2 9390   3.837   3.507   3.886  1.1877  0.6170 -0.2687
 2831SOL     OW 9391   4.093   3.494   0.223 -0.2035 -0.1316  0.3772
 2831SOL    HW1 9392   4.057   3.548   0.147  2.0468  2.2582  0.8645
 2831SOL    HW2 9393   4.130   3.408   0.189  1.6002  1.2858 -1.4586
 2832SOL     OW 9394   0.001   2.077   0.861  0.6099  0.5882  0.0653
 2832SOL    HW1 9395  -0.055   2.025   0.925  1.5797  1.3359  1.5701
 2832SOL    HW2 9396  -0.024   2.173   0.866  3.0009  1.2055  1.9476
 2833SOL     OW 9397   6.362   5.533   3.620 -0.2245 -0.4810  0.1625
 2833SOL    HW1 9398   6.332   5.560   3.712 -1.8932 -0.6622 -0.3063
 2833SOL    HW2 9399   6.294   5.561   3.553  0.8100 -0.6715 -1.0033
 2834SOL     OW 9400   6.376   2.088   1.148  0.4725  0.8657  0.0628
 2834SOL    HW1 9401   6.305   2.030   1.106  0.7691  0.6380 -0.1245
 2834SOL    HW2 9402   6.412   2.043   1.229  1.3379  0.3647 -0.5815
 2835SOL     OW 9403   1.476   6.233   1.299 -0.1398 -0.1105 -0.3362
 2835SOL    HW1 9404   1.549   6.204   1.362  0.0557  0.2547 -0.3868
 2835SOL    HW2 9405   1.505   6.216   1.205  0.0347  0.3651 -0.3722
 2836SOL     OW 9406   6.306   0.905   1.230 -0.1112 -0.2054 -0.0107
 2836SOL    HW1 9407   6.304   0.938   1.325  0.9621 -1.3646  0.4591
 2836SOL    HW2 9408   6.370   0.828   1.224  0.8772  0.6939 -1.9634
 2837SOL     OW 9409   0.585   0.480   3.877 -1.2082  0.6492  0.2158
 2837SOL    HW1 9410   0.661   0.545   3.870 -1.5816  1.0439 -0.2060
 2837SOL    HW2 9411   0.567   0.460   3.973 -1.8235  2.0530  0.4122
 2838SOL     OW 9412   0.165   3.387   3.891 -0.0858  0.2213  0.3424
 2838SOL    HW1 9413   0.158   3.401   3.990 -1.2564 -1.7352  0.5762
 2838SOL    HW2 9414   0.074   3.396   3.850 -0.0051 -1.2816 -0.2065
 2839SOL     OW 9415   5.920   0.267   5.960  0.5152 -0.3267  0.0642
 2839SOL    HW1 9416   5.876   0.201   6.021 -0.1821 -0.0861 -0.1636
 2839SOL    HW2 9417   5.868   0.273   5.875  1.7304 -1.0045 -0.7606
 2840SOL     OW 9418   2.060   0.490   4.165 -0.0854  0.4736  0.2544
 2840SOL    HW1 9419   2.107   0.552   4.102 -0.7838  1.3965  0.6253
 2840SOL    HW2 9420   2.087   0.511   4.259 -1.8358  1.5958  0.5487
 2841SOL     OW 9421   3.529   6.992   3.872 -0.4896  0.3926  0.1091
 2841SOL    HW1 9422   3.571   7.079   3.897 -0.5887  0.5678 -0.3283
 2841SOL    HW2 9423   3.488   6.999   3.782 -0.0396 -0.2671 -0.1598
 2842SOL     OW 9424   0.205   5.803   5.009  0.2736 -0.4842 -0.1653
 2842SOL    HW1 9425   0.217   5.814   4.910  1.8591  1.3143  0.1838
 2842SOL    HW2 9426   0.261   5.869   5.057 -2.1101  0.1532  1.9445
 2843SOL     OW 9427   4.541   4.146   0.243  0.0403  0.5517 -0.0120
 2843SOL    HW1 9428   4.576   4.088   0.316 -0.0960  0.1338 -0.2747
 2843SOL    HW2 9429   4.475   4.095   0.189  2.6279 -0.3693 -2.5712
 2844SOL     OW 9430   0.547   6.965   6.660  0.7376  0.3115 -0.0393
 2844SOL    HW1 9431   0.465   6.963   6.602  0.0481 -0.4871  0.9099
 2844SOL    HW2 9432   0.576   7.059   6.675  0.3567  0.5693 -0.8931
 2845SOL     OW 9433   1.253   2.237   4.490 -0.4074 -0.4084 -0.4252
 2845SOL    HW1 9434   1.300   2.299   4.427  0.5287 -0.8026 -0.1357
 2845SOL    HW2 9435   1.280   2.143   4.470  0.7181 -0.4741  1.1962
 2846SOL     OW 9436   4.495   4.852   3.657 -0.1234  0.5045 -0.0408
 2846SOL    HW1 9437   4.411   4.826   3.704  0.5688 -0.1154  0.8810
 2846SOL    HW2 9438   4.555   4.773   3.649  0.4301  0.9634 -0.6014
 2847SOL     OW 9439   2.112   1.758   6.846  0.1826 -0.0207 -0.4285
 2847SOL    HW1 9440   2.098   1.741   6.748  0.0860 -0.7648 -0.2912
 2847SOL    HW2 9441   2.150   1.676   6.889  1.2110  0.6520 -0.0290
 2848SOL     OW 9442   4.298   5.283   5.641 -0.0802  0.1026 -0.4062
 2848SOL    HW1 9443   4.207   5.324   5.649  0.5257  1.6970 -1.1029
 2848SOL    HW2 9444   4.321   5.274   5.544  0.3488 -0.6658 -0.2364
 2849SOL     OW 9445   0.751   3.724   2.503 -0.1215 -0.1762  0.3763
 2849SOL    HW1 9446   0.807   3.729   2.586  0.4877  0.1006 -0.0371
 2849SOL    HW2 9447   0.789   3.655   2.441  1.2970  1.6951 -0.9736
 2850SOL     OW 9448   2.816   5.568   5.166  0.1414 -0.2439 -0.4957
 2850SOL    HW1 9449   2.825   5.541   5.070 -2.0689  0.8129 -1.0694
 2850SOL    HW2 9450   2.837   5.665   5.175  0.3469 -0.3422  0.0948
 2851SOL     OW 9451   2.895   3.552   3.739 -1.1442  0.1398 -0.1217
 2851SOL    HW1 9452   2.867   3.589   3.828 -0.6019  0.6581 -0.1634
 2851SOL    HW2 9453   2.899   3.452   3.744 -0.0271  0.2122  0.7576
 2852SOL     OW 9454   3.772   5.120   5.754  0.0849 -0.2067 -0.4447
 2852SOL    HW1 9455   3.749   5.202   5.807 -0.8544 -1.3070  0.9155
 2852SOL    HW2 9456   3.851   5.075   5.795  0.1753 -0.3447 -0.7721
 2853SOL     OW 9457   1.318   2.812   0.106 -0.1918 -0.5160  0.2948
 2853SOL    HW1 9458   1.375   2.743   0.149  0.2853 -1.8095 -2.2165
 2853SOL    HW2 9459   1.222   2.793   0.126 -0.0477 -1.7486 -0.1240
 2854SOL     OW 9460   6.518   0.565   6.678  0.2065  0.3109  0.5809
 2854SOL    HW1 9461   6.589   0.561   6.747  0.7659  0.5920  0.0344
 2854SOL    HW2 9462   6.429   0.542   6.719  0.8136 -1.4560  0.9512
 2855SOL     OW 9463   5.569   2.727   6.769 -0.0893 -0.5881  0.8415
 2855SOL    HW1 9464   5.568   2.804   6.705 -2.6475 -1.2787 -0.0609
 2855SOL    HW2 9465   5.589   2.643   6.720 -1.6848 -1.0698  0.9458
 2856SOL     OW 9466   5.329   1.165   0.426  0.1159  0.5689  0.4193
 2856SOL    HW1 9467   5.395   1.237   0.405 -0.1847  1.1084  1.2887
 2856SOL    HW2 9468   5.237   1.199   0.409  0.0014  0.1797  0.2522
 2857SOL     OW 9469   1.445   6.908   1.108  0.5064  0.2586  0.5033
 2857SOL    HW1 9470   1.539   6.877   1.093  0.6703  0.2740  1.4561
 2857SOL    HW2 9471   1.445   6.990   1.165 -0.1067  0.0295  0.8495
 2858SOL     OW 9472   3.269   4.121   3.690 -0.5345  0.0308  0.0048
 2858SOL    HW1 9473   3.253   4.128   3.788  1.5055  1.3632  0.3016
 2858SOL    HW2 9474   3.366   4.136   3.670 -0.4026 -2.7018 -2.0248
 2859SOL     OW 9475   2.239   0.051   5.485 -0.3611  0.1262  0.4827
 2859SOL    HW1 9476   2.183   0.113   5.539  0.0797  1.2611 -0.3187
 2859SOL    HW2 9477   2.185   0.017   5.407 -0.5285 -0.3165  0.7892
 2860SOL     OW 9478   5.961   4.612   2.334  0.2195  0.0793  0.1530
 2860SOL    HW1 9479   5.926   4.565   2.253  0.3617 -0.8253  0.5999
 2860SOL    HW2 9480   5.967   4.710   2.316 -2.4965  0.3075  0.0204
 2861SOL     OW 9481   4.159   1.341   4.314 -0.0569  0.1929 -0.3566
 2861SOL    HW1 9482   4.240   1.285   4.301  0.7235  0.9258  1.1551
 2861SOL    HW2 9483   4.088   1.312   4.249  0.1463 -2.7966  0.6101
 2862SOL     OW 9484   0.592   6.147   1.257 -0.4262  0.4056 -0.2029
 2862SOL    HW1 9485   0.628   6.229   1.212 -0.2510  0.1046 -0.6249
 2862SOL    HW2 9486   0.651   6.123   1.334  0.2255 -0.0122 -0.8118
 2863SOL     OW 9487   6.329   5.172   5.479 -0.0138  0.2178  0.5469
 2863SOL    HW1 9488   6.393   5.172   5.556  1.5285 -0.3026 -0.6751
 2863SOL    HW2 9489   6.367   5.227   5.405  0.5647 -2.5650 -1.3800
 2864SOL     OW 9490   4.609   1.691   0.145 -0.4530  0.1471  0.0275
 2864SOL    HW1 9491   4.619   1.703   0.244 -2.5042 -1.9755  0.5868
 2864SOL    HW2 9492   4.651   1.605   0.118  0.0665  0.6992 -0.9783
 2865SOL     OW 9493   0.589   0.213   5.226  0.7952  0.4225 -0.0090
 2865SOL    HW1 9494   0.576   0.116   5.204  1.9164  0.6039 -1.6587
 2865SOL    HW2 9495   0.500   0.256   5.240  0.1887 -0.4987 -0.8716
 2866SOL     OW 9496   3.466   5.872   3.983 -0.4382  0.2351  0.0074
 2866SOL    HW1 9497   3.373   5.836   3.973  0.1852 -1.5015  0.0684
 2866SOL    HW2 9498   3.485   5.935   3.907 -0.9528 -1.0569 -1.2533
 2867SOL     OW 9499   0.608   1.236   2.857 -0.4923  0.7887  0.3268
 2867SOL    HW1 9500   0.631   1.163   2.792 -0.4960  1.5396 -0.5347
 2867SOL    HW2 9501   0.511   1.228   2.881 -0.7446  1.1063 -0.5498
 2868SOL     OW 9502   3.137   1.940   2.048  0.2977 -0.0407 -0.1021
 2868SOL    HW1 9503   3.082   2.005   1.995 -0.9835 -0.1698  1.0092
 2868SOL    HW2 9504   3.210   1.989   2.096 -1.0756  0.7558  1.2795
 2869SOL     OW 9505   3.321   6.305   3.279 -0.0301  0.4149 -0.4516
 2869SOL    HW1 9506   3.371   6.260   3.205 -1.6653 -1.9149 -0.2795
 2869SOL    HW2 9507   3.349   6.266   3.367 -0.1495  1.1002 -0.1040
 2870SOL     OW 9508   0.787   3.715   0.656 -0.6911  0.1584  0.0974
 2870SOL    HW1 9509   0.779   3.624   0.615  1.8356 -0.6633  1.2331
 2870SOL    HW2 9510   0.786   3.707   0.756  2.7981  0.8579  0.3067
 2871SOL     OW 9511   5.494   3.053   6.091 -0.0393  0.0849 -0.0694
 2871SOL    HW1 9512   5.581   3.058   6.041  0.5110 -0.6881  0.7604
 2871SOL    HW2 9513   5.450   2.965   6.073 -0.0678 -0.0045  0.4286
 2872SOL     OW 9514   1.000   3.943   1.032  0.1293 -0.1561  0.2826
 2872SOL    HW1 9515   0.943   3.905   0.959 -0.8330  0.1978  0.8409
 2872SOL    HW2 9516   1.095   3.915   1.017 -0.6669 -3.8940  1.3592
 2873SOL     OW 9517   0.925   0.718   5.057 -0.4654 -0.3323  0.8932
 2873SOL    HW1 9518   0.952   0.657   4.982 -0.9270  0.9847 -0.4031
 2873SOL    HW2 9519   0.906   0.809   5.020 -1.2578  0.2120  2.5490
 2874SOL     OW 9520   0.664   6.978   2.892 -0.2413  0.0719 -0.1459
 2874SOL    HW1 9521   0.737   6.987   2.824  0.3523 -0.9341  0.3226
 2874SOL    HW2 9522   0.705   6.970   2.983 -1.0191  1.2152  0.3144
 2875SOL     OW 9523   5.658   1.839   2.332 -0.2410 -0.2148  0.4994
 2875SOL    HW1 9524   5.685   1.893   2.253 -0.8127 -0.4796  0.1161
 2875SOL    HW2 9525   5.595   1.767   2.303  1.7995 -2.2106  0.6743
 2876SOL     OW 9526   2.041   6.316   2.225 -0.3511  0.4392  0.0638
 2876SOL    HW1 9527   2.046   6.386   2.154 -0.3679 -0.7012 -1.0769
 2876SOL    HW2 9528   1.947   6.307   2.257 -0.1694  1.7195  1.0442
 2877SOL     OW 9529   5.233   2.268   5.909  0.0360 -0.3420  0.1038
 2877SOL    HW1 9530   5.235   2.340   5.979  0.4156 -0.1053 -0.1472
 2877SOL    HW2 9531   5.188   2.187   5.946  0.0074 -0.1292  0.5393
 2878SOL     OW 9532   4.210   5.348   2.250 -0.5991  0.0635 -0.1461
 2878SOL    HW1 9533   4.118   5.328   2.281 -0.5456  0.4838  0.3023
 2878SOL    HW2 9534   4.214   5.342   2.150 -1.0272 -0.2842 -0.1422
 2879SOL     OW 9535   1.088   0.242   4.252 -0.1318  0.2908 -0.0835
 2879SOL    HW1 9536   1.101   0.153   4.208 -0.1039  0.3957 -0.2914
 2879SOL    HW2 9537   1.146   0.310   4.206  1.0352  0.1108  1.0603
 2880SOL     OW 9538   1.129   0.915   2.226  0.2371  0.5571 -0.7505
 2880SOL    HW1 9539   1.030   0.909   2.213  0.0113  1.0320  0.5304
 2880SOL    HW2 9540   1.173   0.836   2.183 -1.0523 -1.6420  1.6257
 2881SOL     OW 9541   0.589   4.337   3.448  0.0036 -0.1445 -0.3161
 2881SOL    HW1 9542   0.615   4.278   3.372 -0.3649  0.7031 -1.1184
 2881SOL    HW2 9543   0.489   4.340   3.455  0.0393 -1.0308  0.8681
 2882SOL     OW 9544   6.616   6.925   2.767 -1.0483 -0.1638 -0.2430
 2882SOL    HW1 9545   6.583   6.835   2.797  0.7772 -0.6442  0.4928
 2882SOL    HW2 9546   6.641   6.979   2.847 -0.7543  0.4358 -0.7331
 2883SOL     OW 9547   5.435   1.490   1.102 -0.0934  0.0959 -0.2188
 2883SOL    HW1 9548   5.509   1.448   1.049  0.1274 -0.6506  0.6614
 2883SOL    HW2 9549   5.360   1.424   1.111 -0.6572  0.6667 -0.6638
 2884SOL     OW 9550   6.454   1.235   5.393 -0.1122 -0.0937  0.7519
 2884SOL    HW1 9551   6.457   1.137   5.414 -0.6409  0.0767  1.7027
 2884SOL    HW2 9552   6.469   1.249   5.295  0.1699 -1.1082  0.6393
 2885SOL     OW 9553   0.931   2.170   6.409  0.4340  0.5036 -0.3914
 2885SOL    HW1 9554   0.972   2.079   6.406  0.3045  0.4469 -0.4421
 2885SOL    HW2 9555   0.836   2.163   6.437  0.1651  0.5363 -1.2733
 2886SOL     OW 9556   3.584   6.705   6.539 -0.4881 -0.2739 -0.2955
 2886SOL    HW1 9557   3.624   6.769   6.474 -1.8362 -0.0671 -0.9521
 2886SOL    HW2 9558   3.616   6.613   6.520  0.0571 -0.0503 -0.4803
 2887SOL     OW 9559   0.130   2.559   3.142 -0.3646  0.2663 -0.2311
 2887SOL    HW1 9560   0.153   2.653   3.166  1.5651  0.4064 -2.3333
 2887SOL    HW2 9561   0.114   2.506   3.226  2.2434  1.5859  1.2403
 2888SOL     OW 9562   6.421   4.596   0.282 -0.4829  0.0509  0.0157
 2888SOL    HW1 9563   6.446   4.518   0.225  0.1342 -0.0112  0.3646
 2888SOL    HW2 9564   6.395   4.673   0.224  1.4566  0.4409 -0.4173
 2889SOL     OW 9565   0.062   0.192   1.410  0.2384  0.0729 -0.1071
 2889SOL    HW1 9566   0.060   0.234   1.501  0.2531 -2.9132  1.4174
 2889SOL    HW2 9567   0.156   0.169   1.386  0.0637 -0.8550  0.0415
 2890SOL     OW 9568   5.473   3.028   3.940  0.0143  0.0103  0.1126
 2890SOL    HW1 9569   5.571   3.013   3.924 -0.0965 -0.0791 -0.5159
 2890SOL    HW2 9570   5.455   3.126   3.945  0.1008  0.0347 -0.0316
 2891SOL     OW 9571   0.723   0.624   4.680 -0.4087 -0.7533  0.2017
 2891SOL    HW1 9572   0.630   0.594   4.662 -0.2244 -2.0137  1.2014
 2891SOL    HW2 9573   0.722   0.721   4.705 -1.5349 -0.8967  0.7942
 2892SOL     OW 9574   1.474   5.265   2.067 -0.5204 -0.1867 -0.4539
 2892SOL    HW1 9575   1.478   5.184   2.127  0.9436 -0.3816 -0.7580
 2892SOL    HW2 9576   1.476   5.235   1.972 -0.1321  0.1942 -0.5682
 2893SOL     OW 9577   6.250   7.011   2.130  0.0494 -0.1188  0.3507
 2893SOL    HW1 9578   6.237   7.010   2.229 -0.5842 -0.3584  0.2744
 2893SOL    HW2 9579   6.314   7.083   2.105  1.2595 -0.9231  1.0514
 2894SOL     OW 9580   6.559   5.296   3.361  0.3107  0.4872  0.1502
 2894SOL    HW1 9581   6.496   5.237   3.311 -0.4846  1.0959  0.3950
 2894SOL    HW2 9582   6.627   5.333   3.298  1.3649 -1.3453  0.1500
 2895SOL     OW 9583   3.229   6.392   4.883  0.1983 -0.4187  0.6867
 2895SOL    HW1 9584   3.230   6.424   4.978 -0.4722 -0.3300  0.6731
 2895SOL    HW2 9585   3.186   6.301   4.879 -0.8028  0.0518  0.3448
 2896SOL     OW 9586   0.663   4.969   6.884  0.7143 -0.1572  0.0846
 2896SOL    HW1 9587   0.609   4.896   6.926  2.5558 -1.7888 -0.2258
 2896SOL    HW2 9588   0.720   5.012   6.954  0.0505  0.6122  0.1599
 2897SOL     OW 9589   0.055   3.368   5.126  0.7593  0.2925 -0.5040
 2897SOL    HW1 9590   0.054   3.410   5.217 -0.4693  3.7606 -1.9508
 2897SOL    HW2 9591   0.146   3.377   5.086  0.8621  0.3389 -0.2612
 2898SOL     OW 9592   0.009   5.548   4.355 -0.2385  0.4269  0.6422
 2898SOL    HW1 9593   0.033   5.569   4.260 -1.7871  0.5278  0.2364
 2898SOL    HW2 9594   0.065   5.472   4.388  0.3592  0.4250 -0.3349
 2899SOL     OW 9595   0.574   3.728   1.407 -0.4708  0.6502  0.2181
 2899SOL    HW1 9596   0.573   3.771   1.498 -0.2560  1.7670 -0.2892
 2899SOL    HW2 9597   0.669   3.707   1.382 -0.4248  1.3225 -0.1866
 2900SOL     OW 9598   4.698   1.591   0.662 -0.1499  0.8748  0.3599
 2900SOL    HW1 9599   4.690   1.584   0.762  1.5624 -1.5823  0.4136
 2900SOL    HW2 9600   4.749   1.674   0.639 -0.8708  1.6670  1.4642
 2901SOL     OW 9601   1.661   6.982   6.980  0.3809  0.0752 -0.1935
 2901SOL    HW1 9602   1.656   7.030   7.068 -1.2424 -1.4640  0.6219
 2901SOL    HW2 9603   1.689   7.046   6.909 -0.8138  2.0179  0.9870
 2902SOL     OW 9604   6.908   4.255   2.110  0.0201 -0.4571 -0.1652
 2902SOL    HW1 9605   6.903   4.234   2.013  0.7216  0.0325 -0.3152
 2902SOL    HW2 9606   6.876   4.177   2.163  0.1742 -0.9354 -0.7728
 2903SOL     OW 9607   5.332   0.565   0.188  0.5159 -0.3882 -0.1881
 2903SOL    HW1 9608   5.420   0.517   0.183  0.1219 -1.0572 -0.9354
 2903SOL    HW2 9609   5.346   0.657   0.224  1.3575 -0.9109  0.8938
 2904SOL     OW 9610   6.390   5.180   0.799 -0.1940 -0.0235 -0.2375
 2904SOL    HW1 9611   6.362   5.086   0.817  1.5002 -0.3828  0.6993
 2904SOL    HW2 9612   6.421   5.189   0.705 -0.5928 -0.3192 -0.4007
 2905SOL     OW 9613   5.934   3.830   5.910 -0.1573 -0.6493 -0.4032
 2905SOL    HW1 9614   5.956   3.897   5.981  1.6786 -1.9380  0.3331
 2905SOL    HW2 9615   6.004   3.832   5.839 -1.0659 -0.5492 -1.3217
 2906SOL     OW 9616   2.490   1.858   2.639 -0.0296  0.2037  0.5902
 2906SOL    HW1 9617   2.552   1.883   2.714 -0.0563  1.5384  0.2000
 2906SOL    HW2 9618   2.502   1.761   2.617  4.6255  1.0347 -1.8160
 2907SOL     OW 9619   6.018   2.699   3.341  0.0273 -0.3551  0.3416
 2907SOL    HW1 9620   6.029   2.704   3.242 -0.6183 -0.4319  0.2596
 2907SOL    HW2 9621   6.004   2.604   3.368 -0.5043 -0.2589  0.4210
 2908SOL     OW 9622   0.832   3.691   0.211  0.2003  0.0275 -0.9717
 2908SOL    HW1 9623   0.786   3.775   0.184 -0.7275 -1.0872 -3.1311
 2908SOL    HW2 9624   0.901   3.711   0.281 -1.5425  2.2012  0.2655
 2909SOL     OW 9625   0.889   5.878   6.780 -0.3912 -0.3351  0.5097
 2909SOL    HW1 9626   0.804   5.826   6.796  0.2391 -0.9427  2.0674
 2909SOL    HW2 9627   0.866   5.970   6.750 -1.5877 -0.7305  0.1374
 2910SOL     OW 9628   0.057   5.756   6.992 -0.3727 -0.3679 -0.1812
 2910SOL    HW1 9629   0.099   5.810   6.919 -0.9385  1.8806  1.0643
 2910SOL    HW2 9630  -0.034   5.726   6.963 -0.7051  0.7489 -0.3459
 2911SOL     OW 9631   5.924   3.744   2.559  0.1982 -0.4720 -0.1477
 2911SOL    HW1 9632   5.982   3.819   2.591 -0.6871 -0.2953  1.0948
 2911SOL    HW2 9633   5.909   3.754   2.460  2.0133 -0.3696 -0.4449
 2912SOL     OW 9634   1.250   6.792   2.782 -0.3003 -0.4514 -0.4599
 2912SOL    HW1 9635   1.207   6.767   2.696 -0.6153  0.5620 -0.6151
 2912SOL    HW2 9636   1.350   6.787   2.772 -0.3537 -1.5309 -0.4983
 2913SOL     OW 9637   1.670   0.234   2.170  0.2589 -0.2040  0.4019
 2913SOL    HW1 9638   1.627   0.211   2.082 -0.2019  1.5844  0.1165
 2913SOL    HW2 9639   1.753   0.180   2.181  1.0382  0.4326 -1.7467
 2914SOL     OW 9640   1.491   2.770   2.646  0.4182  0.0059 -0.0272
 2914SOL    HW1 9641   1.577   2.812   2.674 -0.0383 -0.7168  2.8248
 2914SOL    HW2 9642   1.505   2.671   2.635  0.1432  0.0186 -0.5110
 2915SOL     OW 9643   2.111   2.718   6.456  0.1554  0.1821  0.3080
 2915SOL    HW1 9644   2.018   2.754   6.456 -0.0081 -0.1269 -1.8131
 2915SOL    HW2 9645   2.125   2.660   6.537 -0.5397  2.4647  2.1750
 2916SOL     OW 9646   1.422   0.033   0.686 -0.2835 -0.1137  0.0082
 2916SOL    HW1 9647   1.511   0.073   0.711 -0.0611 -0.2313 -0.5887
 2916SOL    HW2 9648   1.434  -0.029   0.609 -0.8826 -0.1624 -0.0460
 2917SOL     OW 9649   2.531   2.605   1.887 -0.2377 -0.5234  0.0114
 2917SOL    HW1 9650   2.452   2.544   1.875 -0.2238  0.0139 -4.3652
 2917SOL    HW2 9651   2.499   2.700   1.885  0.2485 -0.2779  1.9227
 2918SOL     OW 9652   3.028   5.858   0.597 -0.5774  0.1974  0.4927
 2918SOL    HW1 9653   3.007   5.920   0.522  2.4463  1.9153  0.8823
 2918SOL    HW2 9654   3.078   5.778   0.562  1.2772  1.2408  0.6238
 2919SOL     OW 9655   3.538   6.953   4.687 -0.3564 -0.0273 -0.3749
 2919SOL    HW1 9656   3.459   6.960   4.748 -0.3036 -0.4095 -0.2644
 2919SOL    HW2 9657   3.528   7.018   4.612 -0.8815 -0.2317 -0.4845
 2920SOL     OW 9658   4.524   5.131   6.735 -0.0905 -0.2165 -0.0779
 2920SOL    HW1 9659   4.619   5.101   6.727  0.3456  1.2953 -1.0698
 2920SOL    HW2 9660   4.464   5.052   6.729  0.8524 -0.9132 -5.0367
 2921SOL     OW 9661   0.976   6.611   2.431  0.5064  0.2462  0.3782
 2921SOL    HW1 9662   0.918   6.562   2.496  0.7377 -1.7045 -0.8249
 2921SOL    HW2 9663   1.067   6.624   2.471 -0.0922  1.3902  1.4222
 2922SOL     OW 9664   6.419   5.830   0.672 -0.7507 -0.2951  0.0695
 2922SOL    HW1 9665   6.500   5.795   0.719  0.2724  1.7137 -0.0966
 2922SOL    HW2 9666   6.341   5.772   0.694  0.1284 -0.7014  2.5124
 2923SOL     OW 9667   5.247   4.704   0.322 -0.0790 -0.0100 -0.7554
 2923SOL    HW1 9668   5.329   4.723   0.269  0.1812  2.1473  0.3370
 2923SOL    HW2 9669   5.190   4.785   0.326 -0.7301 -0.5147  1.1157
 2924SOL     OW 9670   4.898   0.926   0.676  0.2286 -0.2458 -0.5190
 2924SOL    HW1 9671   4.874   0.978   0.594  1.4696  1.5406  0.1706
 2924SOL    HW2 9672   4.838   0.954   0.751  1.7358  1.2649  0.1924
 2925SOL     OW 9673   4.791   2.423   4.826  0.0328  0.3444  0.0845
 2925SOL    HW1 9674   4.760   2.511   4.861 -0.2840  0.1561  0.2844
 2925SOL    HW2 9675   4.799   2.428   4.726 -0.0006  0.5949  0.0930
 2926SOL     OW 9676   1.700   3.341   2.737 -0.1095  0.3513  0.0520
 2926SOL    HW1 9677   1.701   3.260   2.796 -1.4544 -0.1779 -0.6142
 2926SOL    HW2 9678   1.666   3.316   2.646 -0.0177  1.5593 -0.3324
 2927SOL     OW 9679   1.244   4.053   5.661 -0.1765 -0.2315 -0.1757
 2927SOL    HW1 9680   1.313   4.035   5.731  1.5705  0.6740 -1.5752
 2927SOL    HW2 9681   1.249   3.982   5.590 -0.0637  0.3119 -0.7208
 2928SOL     OW 9682   3.841   4.882   6.219  0.6462 -0.3319  0.0742
 2928SOL    HW1 9683   3.801   4.958   6.169 -1.5505 -1.7507 -0.4760
 2928SOL    HW2 9684   3.933   4.865   6.186  0.4191  0.7922 -1.2346
 2929SOL     OW 9685   2.687   1.707   6.826  0.5311  0.1371 -0.0088
 2929SOL    HW1 9686   2.692   1.730   6.923  0.4661  0.8844 -0.1705
 2929SOL    HW2 9687   2.739   1.775   6.773 -0.3969  0.4241 -0.5865
 2930SOL     OW 9688   3.908   0.768   2.090 -0.0885 -0.3218  0.0771
 2930SOL    HW1 9689   3.948   0.715   2.015  0.6985  1.2806 -0.6705
 2930SOL    HW2 9690   3.851   0.842   2.053  0.6611  0.7691  1.0357
 2931SOL     OW 9691   1.294   2.900   4.055  0.1119  0.1399 -1.0336
 2931SOL    HW1 9692   1.392   2.883   4.047  0.3207  1.1077 -0.6987
 2931SOL    HW2 9693   1.257   2.926   3.966 -0.1656 -1.7447 -1.4972
 2932SOL     OW 9694   3.197   1.870   3.925 -0.3186  0.2106 -0.4048
 2932SOL    HW1 9695   3.274   1.821   3.885  1.5343  0.2165  2.8072
 2932SOL    HW2 9696   3.126   1.805   3.953  0.6013 -0.3522  0.7167
 2933SOL     OW 9697   5.288   5.006   6.217 -0.3259 -0.1843  0.0639
 2933SOL    HW1 9698   5.218   4.959   6.164 -0.1789 -0.9675  0.5481
 2933SOL    HW2 9699   5.333   5.075   6.160 -0.5829 -0.5946 -0.6387
 2934SOL     OW 9700   6.147   2.280   6.970  0.0964  0.2292 -0.1629
 2934SOL    HW1 9701   6.140   2.376   6.941 -0.2946  0.1997 -0.1612
 2934SOL    HW2 9702   6.144   2.275   7.070 -3.3278 -0.0459 -0.1893
 2935SOL     OW 9703   6.012   3.728   2.102 -0.0836  0.2479 -0.4892
 2935SOL    HW1 9704   6.072   3.803   2.132  0.3974 -0.0598 -0.6747
 2935SOL    HW2 9705   5.931   3.725   2.161  0.5923 -0.0102  0.4477
 2936SOL     OW 9706   1.000   2.579   3.902  0.2160  0.1920 -1.0527
 2936SOL    HW1 9707   0.931   2.585   3.974  1.4458 -1.4807  0.3403
 2936SOL    HW2 9708   1.017   2.670   3.864 -0.3884  1.1476  0.8626
 2937SOL     OW 9709   3.340   5.769   6.785 -0.0874  0.2364 -0.5193
 2937SOL    HW1 9710   3.392   5.843   6.741  2.2009 -0.0744  1.4352
 2937SOL    HW2 9711   3.381   5.681   6.760 -0.2642 -0.0909  0.3427
 2938SOL     OW 9712   2.757   1.143   5.821 -0.1207 -0.0768  0.6565
 2938SOL    HW1 9713   2.836   1.133   5.881  0.0421  3.1992  1.1794
 2938SOL    HW2 9714   2.779   1.209   5.749 -1.4975 -1.2598 -0.9071
 2939SOL     OW 9715   5.393   1.142   4.964  0.1591 -0.1887  0.1916
 2939SOL    HW1 9716   5.381   1.233   5.005  3.6979  0.9742 -0.9904
 2939SOL    HW2 9717   5.452   1.088   5.023  0.0598 -0.8337 -0.2968
 2940SOL     OW 9718   5.598   4.241   2.270  0.6104 -0.3060  0.1103
 2940SOL    HW1 9719   5.556   4.182   2.202 -1.6485 -0.5584  1.6426
 2940SOL    HW2 9720   5.616   4.331   2.229  0.3367 -0.7829 -1.1109
 2941SOL     OW 9721   4.718   5.782   6.171 -0.3448 -0.2333  0.4099
 2941SOL    HW1 9722   4.786   5.724   6.217  1.6247  0.2948 -1.6573
 2941SOL    HW2 9723   4.750   5.804   6.079 -3.2222  0.3306 -0.5649
 2942SOL     OW 9724   1.135   3.022   3.517 -0.3301 -0.1152  0.2781
 2942SOL    HW1 9725   1.227   3.002   3.551 -0.5561  1.3907  1.9389
 2942SOL    HW2 9726   1.141   3.053   3.422  0.7246 -1.1654 -0.0238
 2943SOL     OW 9727   3.421   3.771   6.056  0.7312  0.3556 -0.1248
 2943SOL    HW1 9728   3.434   3.869   6.044  0.3984  0.3572 -0.4749
 2943SOL    HW2 9729   3.379   3.753   6.145 -1.4231  0.7182 -1.0149
 2944SOL     OW 9730   3.954   4.157   5.164 -0.1870  0.0788 -0.7066
 2944SOL    HW1 9731   3.968   4.230   5.231  1.0645 -1.3193  0.6350
 2944SOL    HW2 9732   4.014   4.080   5.186 -1.9768 -1.6631 -1.6445
 2945SOL     OW 9733   1.552   5.069   2.243  0.6950  0.6137 -0.0755
 2945SOL    HW1 9734   1.612   5.105   2.314  1.4564  0.8737 -0.8267
 2945SOL    HW2 9735   1.516   4.980   2.271  1.9130  0.1693  0.1583
 2946SOL     OW 9736   5.268   1.390   5.070  0.1889  0.5226 -0.6941
 2946SOL    HW1 9737   5.204   1.428   5.004  0.7188  0.9242 -0.9832
 2946SOL    HW2 9738   5.219   1.367   5.154 -0.7759 -1.3142 -1.6814
 2947SOL     OW 9739   5.374   6.244   4.716 -0.5538 -0.0871 -0.3584
 2947SOL    HW1 9740   5.280   6.237   4.682 -1.1433  0.4560  1.0536
 2947SOL    HW2 9741   5.438   6.239   4.640 -1.7497  0.1597 -1.4129
 2948SOL     OW 9742   3.190   1.474   0.139  0.1617 -0.1219  0.3598
 2948SOL    HW1 9743   3.222   1.406   0.073  0.3942 -0.9236  1.2844
 2948SOL    HW2 9744   3.197   1.437   0.231 -0.1480  0.9940  0.8453
 2949SOL     OW 9745   6.658   3.382   3.976 -0.3989 -0.1563  0.4470
 2949SOL    HW1 9746   6.641   3.448   4.050 -0.1922 -0.1294  0.4716
 2949SOL    HW2 9747   6.664   3.431   3.889  1.6937  0.1299  0.6832
 2950SOL     OW 9748   0.301   3.231   4.291 -0.1971 -0.0220  0.0541
 2950SOL    HW1 9749   0.378   3.259   4.234  0.0394  1.7515  1.1989
 2950SOL    HW2 9750   0.216   3.267   4.252 -0.1393  0.3905  0.3088
 2951SOL     OW 9751   6.450   2.396   3.373  0.6468  0.7977 -0.0250
 2951SOL    HW1 9752   6.517   2.324   3.355  2.5426  1.8120  2.3435
 2951SOL    HW2 9753   6.384   2.364   3.441 -0.2427  0.3829 -1.0676
 2952SOL     OW 9754   0.045   4.240   5.815  0.1795  0.2016 -0.0592
 2952SOL    HW1 9755   0.104   4.281   5.746  1.3677 -1.0057  0.1959
 2952SOL    HW2 9756  -0.051   4.259   5.793  0.5127 -0.2493 -2.1108
 2953SOL     OW 9757   1.690   0.076   1.627  0.2288  0.4231  0.7891
 2953SOL    HW1 9758   1.619   0.051   1.693  0.1187  2.4526  1.5017
 2953SOL    HW2 9759   1.714   0.172   1.639  1.4753  0.3721 -0.9827
 2954SOL     OW 9760   3.501   0.729   6.325  0.3629 -0.4873 -0.1484
 2954SOL    HW1 9761   3.479   0.821   6.291  0.7469 -1.3095 -2.8474
 2954SOL    HW2 9762   3.420   0.671   6.317 -0.3161 -0.1202  2.8981
 2955SOL     OW 9763   5.057   4.251   4.711 -0.5505  0.0962 -0.2226
 2955SOL    HW1 9764   5.055   4.189   4.632  2.7518  0.1975 -0.5204
 2955SOL    HW2 9765   5.036   4.344   4.681 -1.1492 -0.1553 -0.6086
 2956SOL     OW 9766   5.269   6.914   5.898 -0.4975  0.7220  0.2626
 2956SOL    HW1 9767   5.223   6.825   5.895 -2.3405  1.6295  0.2767
 2956SOL    HW2 9768   5.368   6.901   5.890 -0.7316 -1.3119  0.2275
 2957SOL     OW 9769   6.830   2.829   3.275 -0.2038  0.1718 -0.1173
 2957SOL    HW1 9770   6.853   2.750   3.332  0.1880  1.7724  2.0643
 2957SOL    HW2 9771   6.806   2.906   3.333  1.1358  2.2087 -2.0922
 2958SOL     OW 9772   6.094   5.463   5.367 -0.2832  0.2562 -0.2854
 2958SOL    HW1 9773   6.033   5.498   5.438  0.0535  1.3271 -0.5069
 2958SOL    HW2 9774   6.098   5.363   5.373 -1.6112  0.1984  0.0829
 2959SOL     OW 9775   4.397   0.287   3.214 -0.1507  0.3071  0.1299
 2959SOL    HW1 9776   4.368   0.231   3.292  2.5870 -0.5132  0.6716
 2959SOL    HW2 9777   4.377   0.238   3.129 -0.2462 -0.2400  0.4648
 2960SOL     OW 9778   5.832   6.092   6.012  0.0496 -0.2832  0.2355
 2960SOL    HW1 9779   5.859   6.031   6.087 -1.2946 -0.0581  0.9431
 2960SOL    HW2 9780   5.903   6.160   5.998 -0.2578  0.5387  2.2845
 2961SOL     OW 9781   2.962   3.170   2.505  0.2225  0.1827  0.2151
 2961SOL    HW1 9782   2.899   3.093   2.503 -0.0627  0.4156  0.0998
 2961SOL    HW2 9783   2.956   3.216   2.594 -0.9317  1.1474 -0.3323
 2962SOL     OW 9784   1.427   2.263   5.676  0.7793 -0.4234 -0.0623
 2962SOL    HW1 9785   1.433   2.325   5.597  1.0928 -1.3708 -0.8045
 2962SOL    HW2 9786   1.371   2.184   5.652  1.8851 -1.3266  0.2437
 2963SOL     OW 9787   2.709   5.293   1.199 -0.1573 -0.3729 -0.0810
 2963SOL    HW1 9788   2.632   5.230   1.188 -0.1884 -0.1590 -1.3407
 2963SOL    HW2 9789   2.771   5.283   1.121 -0.3309  1.3603 -0.4874
 2964SOL     OW 9790   5.083   4.460   6.626 -0.1920 -0.1049  0.7791
 2964SOL    HW1 9791   5.150   4.412   6.683 -1.8149 -0.9907  2.0235
 2964SOL    HW2 9792   5.079   4.556   6.654 -0.9437 -0.5201  2.1921
 2965SOL     OW 9793   4.831   1.292   1.607 -0.4846 -0.3066  0.0321
 2965SOL    HW1 9794   4.833   1.372   1.667  2.4294  1.5333 -2.2431
 2965SOL    HW2 9795   4.737   1.263   1.592 -1.6188  2.4142  1.3039
 2966SOL     OW 9796   3.005   1.813   0.500 -0.5797  0.8120 -0.8340
 2966SOL    HW1 9797   3.059   1.836   0.419 -1.2944 -1.1929 -1.9634
 2966SOL    HW2 9798   3.051   1.848   0.582  1.7675  0.3066 -1.8386
 2967SOL     OW 9799   0.650   6.797   6.472 -0.0301 -0.4748  0.0395
 2967SOL    HW1 9800   0.744   6.765   6.458  0.3000  1.2707 -2.4966
 2967SOL    HW2 9801   0.647   6.860   6.550  0.1144 -3.1907  2.3832
 2968SOL     OW 9802   0.525   2.232   4.138  0.3524 -0.3340  0.3559
 2968SOL    HW1 9803   0.527   2.133   4.153 -0.0471 -0.6592 -1.5947
 2968SOL    HW2 9804   0.465   2.254   4.062  2.5165  1.1501 -1.0572
 2969SOL     OW 9805   5.624   1.210   4.044 -0.3230  0.5627 -0.4367
 2969SOL    HW1 9806   5.605   1.303   4.013  1.0196  0.5422 -1.4167
 2969SOL    HW2 9807   5.638   1.151   3.965 -1.9382 -0.6871  0.1555
 2970SOL     OW 9808   3.363   3.653   3.385 -0.1974 -0.6050 -0.0982
 2970SOL    HW1 9809   3.341   3.735   3.438  0.8124  1.4261 -2.5946
 2970SOL    HW2 9810   3.460   3.632   3.393  0.4928  1.1157 -2.7400
 2971SOL     OW 9811   6.304   5.215   2.554 -0.3708 -0.5524 -0.2681
 2971SOL    HW1 9812   6.257   5.259   2.478  0.1703 -1.0274 -0.8853
 2971SOL    HW2 9813   6.255   5.131   2.579 -0.2772 -0.6507 -0.4134
 2972SOL     OW 9814   4.473   6.991   0.802 -0.0714  0.1338  0.1945
 2972SOL    HW1 9815   4.417   6.971   0.883 -1.3024 -0.4120 -0.7735
 2972SOL    HW2 9816   4.566   6.959   0.818  0.0913  1.3249  1.9587
 2973SOL     OW 9817   6.394   1.239   2.699  0.2995 -0.1482 -0.0587
 2973SOL    HW1 9818   6.352   1.179   2.768 -2.2467 -0.4020 -1.7111
 2973SOL    HW2 9819   6.457   1.185   2.643 -0.1027 -0.7290  0.0322
 2974SOL     OW 9820   3.421   6.292   1.671 -0.0681  0.0358  0.3147
 2974SOL    HW1 9821   3.458   6.307   1.579  0.5562  1.2969  0.7340
 2974SOL    HW2 9822   3.342   6.232   1.667 -0.1616  0.2311 -1.0723
 2975SOL     OW 9823   3.865   1.567   2.969 -0.7621  0.4440 -0.8908
 2975SOL    HW1 9824   3.827   1.571   2.877 -2.2075 -0.0099 -0.3437
 2975SOL    HW2 9825   3.823   1.492   3.020  0.7951  0.0069 -0.1841
 2976SOL     OW 9826   1.689   0.579   2.968  0.1005 -0.2035  0.3363
 2976SOL    HW1 9827   1.707   0.511   3.040  3.7474  2.5501  2.3700
 2976SOL    HW2 9828   1.631   0.651   3.006  0.2585  0.2009 -0.1959
 2977SOL     OW 9829   5.901   5.039   4.414 -0.5559  0.2854 -0.4595
 2977SOL    HW1 9830   5.954   5.052   4.329 -0.3418  0.7628 -0.2550
 2977SOL    HW2 9831   5.807   5.069   4.400 -0.6453 -0.0840 -0.6697
 2978SOL     OW 9832   6.324   5.344   0.361 -0.5570  0.4431 -0.1828
 2978SOL    HW1 9833   6.347   5.439   0.340  1.2274 -0.1874 -1.2752
 2978SOL    HW2 9834   6.252   5.313   0.298 -1.7278  1.2726  0.7018
 2979SOL     OW 9835   4.344   4.638   2.060  0.0161 -0.1803 -0.0121
 2979SOL    HW1 9836   4.404   4.592   2.125 -3.1964 -1.2914  2.4819
 2979SOL    HW2 9837   4.336   4.582   1.977 -2.1456 -3.3612  2.1068
 2980SOL     OW 9838   0.452   2.453   2.266 -0.3517  0.0480 -0.1351
 2980SOL    HW1 9839   0.381   2.504   2.216  0.8392  2.7496  0.7363
 2980SOL    HW2 9840   0.496   2.388   2.205 -2.1620 -0.2195 -1.2330
 2981SOL     OW 9841   4.892   5.603   5.314 -0.5455  0.1792 -0.3042
 2981SOL    HW1 9842   4.845   5.635   5.396 -0.0100  0.1787  0.0070
 2981SOL    HW2 9843   4.961   5.670   5.286  0.2506 -0.4588  0.0762
 2982SOL     OW 9844   2.613   0.996   2.733  0.3454  0.6083  0.2067
 2982SOL    HW1 9845   2.580   0.910   2.694  0.4149  0.5865  0.1968
 2982SOL    HW2 9846   2.646   0.980   2.826  1.9164  0.2949 -0.3751
 2983SOL     OW 9847   0.681   5.150   3.967 -0.4409  0.1584 -0.4849
 2983SOL    HW1 9848   0.723   5.089   4.034  2.5154  1.8464 -0.6501
 2983SOL    HW2 9849   0.667   5.240   4.008 -3.0594 -0.0393 -0.7856
 2984SOL     OW 9850   0.775   4.928   1.173 -0.1652  0.6049  0.0379
 2984SOL    HW1 9851   0.832   4.846   1.168  0.7096  1.1986  0.0581
 2984SOL    HW2 9852   0.795   4.987   1.095 -0.9127  0.7276 -0.0681
 2985SOL     OW 9853   5.219   5.873   2.764  0.8847 -0.2708 -0.4386
 2985SOL    HW1 9854   5.170   5.812   2.702 -2.0046  1.1847  0.2212
 2985SOL    HW2 9855   5.272   5.940   2.712 -0.2739 -0.0278 -1.3489
 2986SOL     OW 9856   2.729   5.032   4.286  0.2548 -0.0375 -0.3556
 2986SOL    HW1 9857   2.768   5.068   4.371  0.8022 -2.2814  0.4121
 2986SOL    HW2 9858   2.781   5.067   4.208  1.3234  0.1057  0.4015
 2987SOL     OW 9859   0.587   3.395   2.103 -0.1040  0.1251  0.4712
 2987SOL    HW1 9860   0.683   3.422   2.108 -0.2773  1.0959 -0.7790
 2987SOL    HW2 9861   0.530   3.473   2.130 -0.5864  0.4958 -1.4933
 2988SOL     OW 9862   4.826   1.062   4.484 -0.2536  0.1801  0.2393
 2988SOL    HW1 9863   4.914   1.040   4.527  1.3370 -1.4982 -3.4887
 2988SOL    HW2 9864   4.755   1.002   4.521  0.9301 -0.9301  0.7858
 2989SOL     OW 9865   3.013   3.777   3.591 -0.1306  0.4346  0.1262
 2989SOL    HW1 9866   2.973   3.700   3.640  1.1187 -0.0489  0.4286
 2989SOL    HW2 9867   2.965   3.790   3.504  0.5968 -1.7210 -0.6764
 2990SOL     OW 9868   5.787   2.407   6.975 -0.2757  0.2163  0.4668
 2990SOL    HW1 9869   5.858   2.418   6.905  0.3843  0.4672  1.1657
 2990SOL    HW2 9870   5.738   2.493   6.986 -1.4364 -0.2484 -0.7848
 2991SOL     OW 9871   2.581   5.316   2.304 -0.9811 -0.0840 -0.1741
 2991SOL    HW1 9872   2.571   5.262   2.388 -1.5890  1.8694  1.0773
 2991SOL    HW2 9873   2.494   5.317   2.255 -1.1928  0.3749  0.2041
 2992SOL     OW 9874   2.702   1.882   2.792  0.8637 -0.8999  0.0855
 2992SOL    HW1 9875   2.777   1.927   2.745  1.3583 -1.3682  0.4122
 2992SOL    HW2 9876   2.673   1.938   2.870  0.3682 -0.3595 -0.4870
 2993SOL     OW 9877   3.508   1.562   1.154  0.1946  0.0441  0.5155
 2993SOL    HW1 9878   3.492   1.588   1.059 -0.7601  0.4783  0.7756
 2993SOL    HW2 9879   3.537   1.641   1.207  0.0353 -0.0315  0.7225
 2994SOL     OW 9880   2.221   5.306   6.421 -0.1624 -0.3568 -0.4281
 2994SOL    HW1 9881   2.231   5.324   6.519  0.9870  0.0789 -0.5982
 2994SOL    HW2 9882   2.306   5.265   6.386 -0.5561 -0.4959 -1.2398
 2995SOL     OW 9883   1.819   3.781   2.179 -0.2204 -0.0109 -0.0061
 2995SOL    HW1 9884   1.732   3.789   2.228 -0.4099  0.0649 -0.3495
 2995SOL    HW2 9885   1.840   3.685   2.164 -2.0535 -0.0747 -3.0520
 2996SOL     OW 9886   5.164   1.171   0.842  0.3656 -0.2647  0.5732
 2996SOL    HW1 9887   5.208   1.256   0.813 -0.5532  0.0129 -0.0666
 2996SOL    HW2 9888   5.203   1.094   0.791  0.8898 -0.1789  0.8355
 2997SOL     OW 9889   0.585   6.722   2.699  0.2280  0.2614  0.0505
 2997SOL    HW1 9890   0.657   6.788   2.675 -0.6325  1.0064 -0.5123
 2997SOL    HW2 9891   0.517   6.766   2.756 -0.9388  0.2013 -1.2336
 2998SOL     OW 9892   5.514   3.973   3.279  0.4002  0.1797  0.3117
 2998SOL    HW1 9893   5.510   3.894   3.218 -1.2496 -0.5509  1.2943
 2998SOL    HW2 9894   5.509   4.057   3.225 -0.9497 -0.4398 -0.5905
 2999SOL     OW 9895   6.206   1.712   1.024 -0.4491 -0.0505  0.2631
 2999SOL    HW1 9896   6.160   1.689   0.938 -0.4929  0.7556  0.0655
 2999SOL    HW2 9897   6.245   1.629   1.064 -0.7580 -0.4935 -0.3398
 3000SOL     OW 9898   1.682   0.002   4.312  0.3350 -0.6819 -0.4870
 3000SOL    HW1 9899   1.737   0.067   4.365 -0.4931 -0.3063 -0.0654
 3000SOL    HW2 9900   1.639  -0.062   4.375 -0.9590 -0.0022 -0.6581
 3001SOL     OW 9901   2.334   6.581   5.212  0.2452 -0.2247 -0.0132
 3001SOL    HW1 9902   2.376   6.657   5.161  1.9964 -2.5841 -2.3162
 3001SOL    HW2 9903   2.383   6.567   5.298  1.6969 -0.4182 -0.8385
 3002SOL     OW 9904   1.453   4.266   0.927 -0.0071  0.7804  0.1237
 3002SOL    HW1 9905   1.428   4.334   0.858  0.0689  1.8467  1.1168
 3002SOL    HW2 9906   1.375   4.205   0.944  0.5947 -0.8375 -2.3463
 3003SOL     OW 9907   1.430   2.682   0.348  0.1956  0.0949  0.1148
 3003SOL    HW1 9908   1.507   2.724   0.396  0.0652  0.0429  0.3698
 3003SOL    HW2 9909   1.461   2.599   0.301  0.2448 -0.0530  0.4069
 3004SOL     OW 9910   2.337   6.171   1.416 -0.0861 -0.3556  0.2872
 3004SOL    HW1 9911   2.262   6.118   1.455 -0.8600  1.8351  1.9498
 3004SOL    HW2 9912   2.305   6.263   1.393  1.9350  0.4297  0.3981
 3005SOL     OW 9913   5.580   6.180   2.038 -0.6733  0.0912  0.3799
 3005SOL    HW1 9914   5.635   6.259   2.066 -0.4165  0.4382 -1.0268
 3005SOL    HW2 9915   5.621   6.138   1.957 -1.2223 -1.0410  0.6728
 3006SOL     OW 9916   6.736   5.408   0.719 -0.7419 -0.0577  0.2392
 3006SOL    HW1 9917   6.680   5.341   0.669 -0.6221  0.1584 -0.1895
 3006SOL    HW2 9918   6.688   5.436   0.802 -2.3422  1.8145 -1.2243
 3007SOL     OW 9919   6.004   5.778   1.877 -0.3561  0.0098 -0.3478
 3007SOL    HW1 9920   5.906   5.762   1.887 -0.3051 -0.1082 -0.0207
 3007SOL    HW2 9921   6.052   5.691   1.875 -0.1004  0.0884  1.1884
 3008SOL     OW 9922   5.911   1.307   4.434 -0.2570 -0.3333 -0.4454
 3008SOL    HW1 9923   5.832   1.275   4.383 -1.2530  0.2799  0.6531
 3008SOL    HW2 9924   5.895   1.400   4.465  0.8169 -0.2709 -0.0348
 3009SOL     OW 9925   0.167   5.027   3.349 -0.4424  0.0658  0.4214
 3009SOL    HW1 9926   0.118   4.958   3.402 -1.7944  2.3538  2.3086
 3009SOL    HW2 9927   0.225   5.081   3.410  2.0067 -0.4721 -1.2840
 3010SOL     OW 9928   1.406   0.091   4.363  0.2076  0.1104  0.0903
 3010SOL    HW1 9929   1.485   0.041   4.327  1.5511  0.7995  1.9414
 3010SOL    HW2 9930   1.428   0.188   4.369 -0.6236  0.2518  1.0473
 3011SOL     OW 9931   5.976   0.320   3.751 -0.1393 -0.2302 -0.0067
 3011SOL    HW1 9932   6.001   0.339   3.846  2.8553  1.6912 -1.0562
 3011SOL    HW2 9933   6.041   0.256   3.711 -0.9594 -0.4779 -0.9795
 3012SOL     OW 9934   6.522   4.142   4.876 -1.2666 -0.0958 -0.1877
 3012SOL    HW1 9935   6.597   4.161   4.939 -1.7384  0.8395  0.1188
 3012SOL    HW2 9936   6.549   4.070   4.812  0.2135  0.8399 -0.6658
 3013SOL     OW 9937   6.861   3.463   4.575 -0.6430 -0.6533 -0.1167
 3013SOL    HW1 9938   6.842   3.388   4.512  1.0097 -0.0656 -1.3795
 3013SOL    HW2 9939   6.887   3.425   4.664 -1.9919 -1.5147 -0.0648
 3014SOL     OW 9940   1.416   0.763   2.911  0.3661 -0.1624  0.0966
 3014SOL    HW1 9941   1.465   0.825   2.972  1.6284  1.2362 -2.1886
 3014SOL    HW2 9942   1.481   0.709   2.859 -0.6428 -0.9110 -0.4287
 3015SOL     OW 9943   3.119   3.747   5.325  0.0516  0.5008  0.0249
 3015SOL    HW1 9944   3.202   3.697   5.350 -0.3181 -0.0594  0.1611
 3015SOL    HW2 9945   3.045   3.723   5.389 -0.3172  0.7049 -0.3189
 3016SOL     OW 9946   4.564   5.095   6.442  0.1747 -0.2518  0.3489
 3016SOL    HW1 9947   4.561   5.150   6.359  0.4110 -0.4280  0.2207
 3016SOL    HW2 9948   4.567   5.154   6.522  1.3738 -0.0567  0.1872
 3017SOL     OW 9949   3.188   4.843   4.876 -0.0711  0.2816  0.5148
 3017SOL    HW1 9950   3.090   4.856   4.857 -0.0521  0.9227  0.8228
 3017SOL    HW2 9951   3.221   4.763   4.826 -0.8727 -0.2585  0.8268
 3018SOL     OW 9952   4.919   2.271   2.788  0.6623  0.0349 -0.5965
 3018SOL    HW1 9953   4.926   2.349   2.725  0.8174 -0.6618 -1.4738
 3018SOL    HW2 9954   5.004   2.263   2.840  0.3192  0.9583  0.1368
 3019SOL     OW 9955   0.950   6.257   4.077 -0.2164  0.0540  0.9580
 3019SOL    HW1 9956   0.875   6.307   4.121  0.0281  0.1854  1.2239
 3019SOL    HW2 9957   1.013   6.222   4.147  0.6973  1.0876  0.6822
 3020SOL     OW 9958   2.435   4.602   4.330 -0.5774 -0.4076  0.4728
 3020SOL    HW1 9959   2.505   4.660   4.371  0.2327 -1.4636  0.5945
 3020SOL    HW2 9960   2.362   4.586   4.397 -0.3687 -0.2714  0.7353
 3021SOL     OW 9961   6.721   0.808   1.365 -0.0738 -0.0079 -0.0482
 3021SOL    HW1 9962   6.758   0.901   1.357 -0.4272  0.3094  1.6635
 3021SOL    HW2 9963   6.657   0.791   1.289  1.2785  0.4982 -1.3508
 3022SOL     OW 9964   6.479   6.359   3.223 -0.3768  0.4601 -0.2431
 3022SOL    HW1 9965   6.386   6.389   3.243 -0.5952 -0.1940 -0.2701
 3022SOL    HW2 9966   6.485   6.260   3.231  0.3571  0.5093 -0.0873
 3023SOL     OW 9967   0.291   6.430   4.552 -0.1122  0.1950  0.4838
 3023SOL    HW1 9968   0.302   6.471   4.642  0.8070  1.6900 -0.2699
 3023SOL    HW2 9969   0.381   6.415   4.511 -0.3920 -2.5051  0.6339
 3024SOL     OW 9970   2.447   4.255   0.352  0.1944  0.4639  0.5517
 3024SOL    HW1 9971   2.427   4.350   0.332  0.0768  0.2128 -0.6136
 3024SOL    HW2 9972   2.401   4.196   0.286  1.6145 -0.3151  0.1969
 3025SOL     OW 9973   6.928   4.451   2.515 -0.2396 -0.1743 -0.2079
 3025SOL    HW1 9974   6.923   4.353   2.534 -0.4315 -0.0515  0.3848
 3025SOL    HW2 9975   6.850   4.498   2.557 -1.0810  0.0175 -1.8823
 3026SOL     OW 9976   3.861   4.642   5.788 -0.4383 -0.2707  0.1962
 3026SOL    HW1 9977   3.898   4.643   5.881 -2.6784  0.8285  1.1236
 3026SOL    HW2 9978   3.806   4.560   5.775 -0.8615  0.0131  0.1667
 3027SOL     OW 9979   3.572   6.401   0.260 -0.2339  0.3038  0.3785
 3027SOL    HW1 9980   3.477   6.430   0.249 -0.0726  0.4457 -0.7903
 3027SOL    HW2 9981   3.621   6.467   0.317 -0.8245  0.2382  0.9706
 3028SOL     OW 9982   0.643   3.453   6.153 -0.4063 -0.4465  0.8148
 3028SOL    HW1 9983   0.713   3.523   6.141 -0.9022  0.0791  0.9744
 3028SOL    HW2 9984   0.557   3.483   6.112 -0.2291 -1.6247 -0.5282
 3029SOL     OW 9985   1.044   3.310   6.750  0.0631  0.2477  0.6595
 3029SOL    HW1 9986   1.040   3.409   6.767 -0.2567  0.5900 -1.2574
 3029SOL    HW2 9987   1.052   3.262   6.838 -1.0676  1.9001  1.7290
 3030SOL     OW 9988   6.056   4.271   1.942 -0.0623 -0.3585 -0.5872
 3030SOL    HW1 9989   6.142   4.242   1.984 -0.9334 -0.4749  1.1911
 3030SOL    HW2 9990   6.057   4.246   1.845  2.6849  1.3622 -1.1236
 3031SOL     OW 9991   2.477   1.876   0.884  0.3524 -0.1621  0.5071
 3031SOL    HW1 9992   2.517   1.924   0.962 -0.3973  1.8388 -0.2904
 3031SOL    HW2 9993   2.453   1.783   0.912  1.3100  0.0747  2.2796
 3032SOL     OW 9994   5.004   0.142   3.948 -0.3522  0.3507 -0.1633
 3032SOL    HW1 9995   5.083   0.166   4.005  0.2896 -1.2858 -0.3059
 3032SOL    HW2 9996   4.955   0.065   3.991  0.8849 -1.8044 -2.3627
 3033SOL     OW 9997   5.113   0.249   1.307 -0.1886  0.1038  0.1091
 3033SOL    HW1 9998   5.184   0.320   1.317  0.8467 -0.9169  0.1891
 3033SOL    HW2 9999   5.049   0.276   1.234  1.4141  0.1408 -1.3448
 3034SOL     OW10000   1.718   2.951   2.608  0.5222 -1.2536  0.2350
 3034SOL    HW110001   1.681   3.004   2.531 -0.2877 -2.2604 -0.0866
 3034SOL    HW210002   1.769   2.873   2.572 -1.4676 -2.8353  0.6770
 3035SOL     OW10003   5.678   0.802   2.872 -0.4773 -0.3555  0.6545
 3035SOL    HW110004   5.769   0.806   2.831 -1.8867  1.3916 -2.6308
 3035SOL    HW210005   5.687   0.790   2.971  3.2514 -0.7045  0.4248
 3036SOL     OW10006   5.835   3.876   4.815  0.1406 -0.4766 -0.0548
 3036SOL    HW110007   5.866   3.842   4.904  0.6807 -1.5626 -0.6438
 3036SOL    HW210008   5.737   3.895   4.819  0.0136 -1.2061  0.5594
 3037SOL     OW10009   2.048   3.670   3.123  0.1850 -0.3790 -0.1067
 3037SOL    HW110010   1.963   3.630   3.090 -0.9708  0.3037  1.9015
 3037SOL    HW210011   2.082   3.737   3.055 -1.6882  0.4521 -0.2892
 3038SOL     OW10012   0.331   4.828   3.552  0.3844 -0.1802 -0.0821
 3038SOL    HW110013   0.350   4.842   3.649  0.0043  0.0166 -0.0359
 3038SOL    HW210014   0.234   4.841   3.534  0.4795 -0.0467 -0.5224
 3039SOL     OW10015   4.208   5.133   0.271  0.6714 -0.0321  0.2460
 3039SOL    HW110016   4.155   5.178   0.342 -0.1380 -1.1830  0.3955
 3039SOL    HW210017   4.221   5.196   0.194 -1.1400  0.2062  0.0964
 3040SOL     OW10018   0.078   0.993   4.603  0.5467 -0.1527 -0.0205
 3040SOL    HW110019   0.041   1.084   4.581 -1.1453 -0.9699 -0.6587
 3040SOL    HW210020   0.008   0.937   4.646  2.4285 -0.1970  3.3543
 3041SOL     OW10021   3.631   2.598   5.847 -0.3684 -0.2328 -0.1979
 3041SOL    HW110022   3.577   2.581   5.764 -2.3523 -4.1521  1.5950
 3041SOL    HW210023   3.601   2.684   5.889 -2.2879 -0.2079 -1.4763
 3042SOL     OW10024   5.899   2.351   5.911  0.2658  0.3258  0.1765
 3042SOL    HW110025   5.831   2.305   5.853 -1.4116  2.4972  0.2635
 3042SOL    HW210026   5.925   2.290   5.985 -3.7996  0.2076  1.7984
 3043SOL     OW10027   5.562   0.941   1.666  0.0054  0.1005  0.0364
 3043SOL    HW110028   5.624   1.018   1.647 -0.0204  0.1045 -0.0325
 3043SOL    HW210029   5.614   0.865   1.704  0.3011 -0.4170 -1.3462
 3044SOL     OW10030   6.120   6.983   1.407 -0.4010  0.4993 -0.2044
 3044SOL    HW110031   6.188   7.057   1.402 -1.3832  1.4091 -0.7143
 3044SOL    HW210032   6.165   6.895   1.393  0.9424  0.9030  1.2750
 3045SOL     OW10033   5.690   1.835   0.731  0.3191 -0.9532  0.1935
 3045SOL    HW110034   5.708   1.747   0.686 -0.6610 -0.6770 -0.7773
 3045SOL    HW210035   5.645   1.819   0.819 -1.4312 -1.4180 -0.7298
 3046SOL     OW10036   5.497   5.140   4.653  0.9456  0.4952 -0.2339
 3046SOL    HW110037   5.508   5.077   4.729  0.1723 -0.2946 -0.7542
 3046SOL    HW210038   5.549   5.106   4.574 -0.8451 -0.4732 -1.0646
 3047SOL     OW10039   5.493   3.148   3.600  0.2675 -0.2886 -0.2509
 3047SOL    HW110040   5.560   3.128   3.672  1.4755 -0.4983 -1.4073
 3047SOL    HW210041   5.529   3.218   3.539 -0.8007 -0.0204 -0.5920
 3048SOL     OW10042   4.861   3.611   6.494  0.0030 -0.8227  0.1128
 3048SOL    HW110043   4.816   3.544   6.434 -0.2208 -2.2652  1.8009
 3048SOL    HW210044   4.801   3.634   6.570  0.7853 -0.0813  0.5233
 3049SOL     OW10045   2.233   5.086   3.732 -0.2320  0.5864  0.1214
 3049SOL    HW110046   2.326   5.087   3.770 -0.8307 -0.9605  1.7938
 3049SOL    HW210047   2.238   5.080   3.632  1.4872 -0.9244  0.2436
 3050SOL     OW10048   4.241   1.840   0.784 -0.3808  0.3457  0.2544
 3050SOL    HW110049   4.333   1.845   0.824 -1.1542 -0.5704  2.2561
 3050SOL    HW210050   4.186   1.916   0.818 -0.8049  0.0391  0.2631
 3051SOL     OW10051   2.238   2.240   5.064  0.0907 -0.2587  0.3048
 3051SOL    HW110052   2.246   2.161   5.125  1.0306 -1.6042 -1.4679
 3051SOL    HW210053   2.307   2.308   5.088 -0.4627 -0.1082  1.5854
 3052SOL     OW10054   6.701   4.735   1.070 -0.3065  0.2253  0.0964
 3052SOL    HW110055   6.720   4.778   0.982 -0.1879 -2.5727 -1.3448
 3052SOL    HW210056   6.604   4.747   1.093 -0.3970  0.7549 -0.5322
 3053SOL     OW10057   3.116   3.594   6.745  0.2350 -0.0617  0.5439
 3053SOL    HW110058   3.121   3.686   6.784  0.2491  0.6795 -1.1106
 3053SOL    HW210059   3.208   3.563   6.722  0.2270 -0.4934  1.0662
 3054SOL     OW10060   5.523   3.316   2.112 -0.6079  0.0404 -0.1575
 3054SOL    HW110061   5.608   3.269   2.087 -1.0557 -1.3109  0.7606
 3054SOL    HW210062   5.524   3.409   2.074  0.4059 -0.6079 -1.8186
 3055SOL     OW10063   3.865   2.418   1.385 -0.6080  0.4207 -0.3296
 3055SOL    HW110064   3.810   2.438   1.466 -1.9498  2.1884 -1.5965
 3055SOL    HW210065   3.961   2.438   1.403 -1.0750  2.0853  0.4356
 3056SOL     OW10066   6.640   3.545   5.667  0.7507 -0.1956  0.7922
 3056SOL    HW110067   6.682   3.486   5.598 -0.6407  0.2300 -0.4744
 3056SOL    HW210068   6.613   3.489   5.746  1.0101 -0.9507  0.3595
 3057SOL     OW10069   6.230   3.875   0.182  0.0652  0.0149 -0.3272
 3057SOL    HW110070   6.147   3.829   0.152 -0.7731  1.3366 -0.0733
 3057SOL    HW210071   6.207   3.946   0.249  1.2860  1.0371 -0.9533
 3058SOL     OW10072   5.316   4.725   1.045 -0.4933  0.1613  0.1051
 3058SOL    HW110073   5.259   4.699   0.968 -1.2455  0.4041  0.5632
 3058SOL    HW210074   5.329   4.825   1.045  0.2285  0.0733 -0.1930
 3059SOL     OW10075   6.380   6.622   5.022 -0.4015 -0.0138 -0.2098
 3059SOL    HW110076   6.470   6.585   5.003 -0.0559  0.5549  0.2987
 3059SOL    HW210077   6.388   6.701   5.083 -1.3201 -0.6019  0.7019
 3060SOL     OW10078   4.509   1.432   3.491  0.0738  0.3411  0.2300
 3060SOL    HW110079   4.434   1.495   3.474  1.5643  3.2555  3.1669
 3060SOL    HW210080   4.492   1.381   3.575  0.7672  0.0305  0.1912
 3061SOL     OW10081   6.802   5.394   4.486  0.3603 -0.3240 -0.1078
 3061SOL    HW110082   6.872   5.454   4.447  0.8138  1.7674  3.4333
 3061SOL    HW210083   6.715   5.444   4.492 -1.4939 -2.6728 -3.8590
 3062SOL     OW10084   0.224   1.453   5.817 -0.0288  0.0636 -0.1129
 3062SOL    HW110085   0.297   1.387   5.798  0.5205  0.8486 -0.7682
 3062SOL    HW210086   0.248   1.542   5.780  0.0022  1.0855  2.2059
 3063SOL     OW10087   2.732   1.614   5.597  0.4768  0.3863  0.0266
 3063SOL    HW110088   2.783   1.679   5.541  0.4854  0.8576  0.5652
 3063SOL    HW210089   2.634   1.637   5.593  0.5872  1.1755  1.1262
 3064SOL     OW10090   1.564   4.213   4.139  0.1427 -0.0257  0.5345
 3064SOL    HW110091   1.486   4.164   4.099 -0.3148  1.1587 -0.0669
 3064SOL    HW210092   1.544   4.232   4.235 -0.6147  0.8694  0.2064
 3065SOL     OW10093   2.161   2.113   1.291 -0.4786  0.4283  0.8577
 3065SOL    HW110094   2.260   2.103   1.294 -0.5032  0.3862  2.1866
 3065SOL    HW210095   2.134   2.152   1.203  0.5704 -0.9529 -0.1195
 3066SOL     OW10096   6.276   3.314   6.184 -0.4985 -0.4130  0.0822
 3066SOL    HW110097   6.193   3.332   6.238 -1.3690 -0.6348 -1.1459
 3066SOL    HW210098   6.326   3.399   6.170  0.3441 -0.5148  2.1531
 3067SOL     OW10099   6.953   4.624   3.605  0.0723  0.3329 -0.1723
 3067SOL    HW110100   7.024   4.557   3.630 -0.3066 -0.0924 -0.2323
 3067SOL    HW210101   6.896   4.643   3.684 -1.0056 -0.8644 -0.6402
 3068SOL     OW10102   1.266   5.195   6.870 -0.0767 -0.2066  0.2003
 3068SOL    HW110103   1.323   5.233   6.943 -0.0484 -1.0078  0.6049
 3068SOL    HW210104   1.191   5.258   6.850 -0.8404 -0.5456  1.8252
 3069SOL     OW10105   4.112   2.042   4.189  0.3630  0.0604 -0.0910
 3069SOL    HW110106   4.084   1.956   4.233 -0.7507  0.4665  0.0259
 3069SOL    HW210107   4.189   2.024   4.127 -0.7621 -1.3115 -1.1724
 3070SOL     OW10108   1.091   2.616   1.005  0.1113 -0.4149 -0.0652
 3070SOL    HW110109   1.147   2.663   1.073 -0.9185 -0.3110  0.7375
 3070SOL    HW210110   1.048   2.684   0.944  1.2051 -0.5192 -0.9786
 3071SOL     OW10111   0.968   1.858   3.743  0.6371 -0.3453 -0.1602
 3071SOL    HW110112   0.957   1.957   3.739 -5.0089 -0.6687 -0.3279
 3071SOL    HW210113   0.988   1.823   3.652 -1.5542  0.5031 -1.0414
 3072SOL     OW10114   2.205   1.206   3.333  0.3472  0.1883  0.6569
 3072SOL    HW110115   2.203   1.229   3.235 -0.2780  1.4427  0.9389
 3072SOL    HW210116   2.182   1.110   3.345 -2.4304  0.6623 -0.2765
 3073SOL     OW10117   2.195   1.247   3.079 -0.7742 -0.2440  0.5672
 3073SOL    HW110118   2.120   1.294   3.033 -0.1165  0.4982  0.2449
 3073SOL    HW210119   2.210   1.158   3.035 -0.1061  0.4812 -0.7414
 3074SOL     OW10120   0.982   4.910   0.457  0.2258  0.3847 -0.0233
 3074SOL    HW110121   0.981   4.835   0.522  0.9479  1.2480  1.0223
 3074SOL    HW210122   0.990   4.874   0.364 -0.4750 -0.8474  0.3709
 3075SOL     OW10123   5.965   5.624   3.125  0.1924  0.3814 -0.1267
 3075SOL    HW110124   6.028   5.589   3.055  1.0271 -1.8618  1.6218
 3075SOL    HW210125   6.005   5.706   3.167  1.9339 -0.8764  0.8009
 3076SOL     OW10126   5.892   4.720   4.147 -0.0218 -0.5841 -0.8033
 3076SOL    HW110127   5.811   4.754   4.195  0.0512  0.6545 -1.5316
 3076SOL    HW210128   5.892   4.753   4.053  1.0368 -1.0619 -0.9885
 3077SOL     OW10129   2.849   4.216   6.737 -0.3891 -0.3757  0.3760
 3077SOL    HW110130   2.890   4.226   6.827  0.5241  0.0608 -0.0702
 3077SOL    HW210131   2.877   4.293   6.679 -1.8477 -0.0615  0.0446
 3078SOL     OW10132   6.840   1.170   5.896 -0.3007 -0.2243  0.1806
 3078SOL    HW110133   6.866   1.126   5.810 -3.2665 -0.0907 -0.9148
 3078SOL    HW210134   6.812   1.264   5.878 -1.3339 -0.3182  1.2029
 3079SOL     OW10135   3.049   6.466   6.685  0.4325  0.5837 -0.4001
 3079SOL    HW110136   3.097   6.435   6.603  0.6010 -1.5099  0.4219
 3079SOL    HW210137   3.047   6.566   6.687  2.6748  0.7190 -1.6617
 3080SOL     OW10138   0.824   5.123   0.511 -0.0397  0.5910  0.2060
 3080SOL    HW110139   0.882   5.196   0.548  0.5969 -0.0015  0.4143
 3080SOL    HW210140   0.880   5.042   0.492 -0.7049  0.2010 -0.1581
 3081SOL     OW10141   3.906   3.709   0.096 -0.0535 -0.0861  0.5229
 3081SOL    HW110142   3.925   3.798   0.055 -0.8068  0.5747  1.5326
 3081SOL    HW210143   3.810   3.706   0.125 -0.7822 -2.1637 -1.7168
 3082SOL     OW10144   6.531   1.081   2.534  0.4877  0.2772  0.3538
 3082SOL    HW110145   6.529   1.045   2.441  0.9691  3.0866 -0.8646
 3082SOL    HW210146   6.612   1.046   2.582  0.6087 -0.6719 -0.5104
 3083SOL     OW10147   6.244   0.454   0.094  0.2633 -0.1000  0.4400
 3083SOL    HW110148   6.294   0.507   0.025  2.6842 -2.5172  0.1436
 3083SOL    HW210149   6.176   0.396   0.049  1.0015 -0.7784  0.1699
 3084SOL     OW10150   0.474   3.352   5.217  0.1801 -0.4147  0.0636
 3084SOL    HW110151   0.419   3.339   5.299 -0.1142 -1.3037 -0.2645
 3084SOL    HW210152   0.425   3.410   5.152 -0.6214 -1.6277 -0.4432
 3085SOL     OW10153   0.939   6.953   2.338  0.0192  0.1272  0.3398
 3085SOL    HW110154   0.931   6.874   2.399 -0.2558  0.4108  0.6776
 3085SOL    HW210155   1.030   6.994   2.348 -0.4705  0.9751  1.5689
 3086SOL     OW10156   0.441   6.456   5.239 -0.3466  0.4005 -0.2996
 3086SOL    HW110157   0.414   6.398   5.316  1.0243 -0.5644 -0.5002
 3086SOL    HW210158   0.449   6.551   5.270 -2.0799  0.4303  0.1720
 3087SOL     OW10159   4.443   4.054   6.984  0.0139 -0.0315 -0.7434
 3087SOL    HW110160   4.514   4.116   6.950  0.8949 -1.1068 -0.9317
 3087SOL    HW210161   4.440   3.973   6.925 -1.6345  0.1579 -0.9564
 3088SOL     OW10162   1.980   0.905   4.850 -0.5376  0.0260  0.0146
 3088SOL    HW110163   2.017   0.970   4.917  2.9804 -0.9747 -0.7113
 3088SOL    HW210164   1.982   0.813   4.888 -2.2677 -0.1098 -0.1487
 3089SOL     OW10165   6.220   5.435   2.713  0.9415 -0.1657  0.5504
 3089SOL    HW110166   6.248   5.366   2.647 -0.3720 -0.2305  0.0223
 3089SOL    HW210167   6.279   5.515   2.707  1.8221 -0.8177  0.4351
 3090SOL     OW10168   4.486   0.195   0.670 -0.4835  0.2644  0.5385
 3090SOL    HW110169   4.462   0.110   0.717  0.1023 -0.4134 -0.3518
 3090SOL    HW210170   4.435   0.271   0.710 -1.8539 -0.6712  0.6346
 3091SOL     OW10171   5.343   4.797   2.406  0.2061  0.3200 -0.0304
 3091SOL    HW110172   5.422   4.834   2.456 -0.8667  1.6393  0.7505
 3091SOL    HW210173   5.284   4.747   2.470  0.3976 -0.6940 -0.6205
 3092SOL     OW10174   4.942   1.533   5.604 -0.1236  0.2590 -0.1633
 3092SOL    HW110175   5.016   1.481   5.646 -1.6303  0.1528  2.6636
 3092SOL    HW210176   4.966   1.630   5.602  0.5099  0.1027 -0.2405
 3093SOL     OW10177   1.418   1.719   0.192  0.2020  0.1975 -0.0795
 3093SOL    HW110178   1.358   1.797   0.209  0.4411  0.3465  0.0800
 3093SOL    HW210179   1.419   1.699   0.094  1.5601  1.5476 -0.3706
 3094SOL     OW10180   5.530   1.834   6.905 -0.0494  0.2564 -0.0155
 3094SOL    HW110181   5.535   1.934   6.903 -0.1003  0.2500 -0.4769
 3094SOL    HW210182   5.446   1.803   6.860  0.3967 -0.0267 -0.6706
 3095SOL     OW10183   5.730   6.933   1.617 -1.2672 -0.6353 -0.3009
 3095SOL    HW110184   5.698   6.848   1.658 -0.1128 -1.0466 -0.2228
 3095SOL    HW210185   5.763   6.916   1.524 -0.4549 -0.3981 -0.0648
 3096SOL     OW10186   0.362   1.114   6.370  0.3454 -0.5607 -0.7823
 3096SOL    HW110187   0.420   1.035   6.388  0.0650 -0.0312  3.5787
 3096SOL    HW210188   0.266   1.090   6.385  0.3912  0.8757  3.1052
 3097SOL     OW10189   1.895   5.511   1.197  0.0700 -0.4344 -0.5793
 3097SOL    HW110190   1.905   5.569   1.116 -0.2199 -0.6974 -0.8052
 3097SOL    HW210191   1.798   5.499   1.218  0.1536  0.0812  0.1384
 3098SOL     OW10192   6.059   1.347   2.187 -0.0827 -0.1607 -0.1286
 3098SOL    HW110193   5.999   1.347   2.266 -1.5957 -0.0208 -1.2329
 3098SOL    HW210194   6.115   1.430   2.187 -3.2437  2.1907 -1.4429
 3099SOL     OW10195   5.779   2.859   0.083 -0.3719  0.1485 -0.8615
 3099SOL    HW110196   5.823   2.892   0.167 -2.4744  0.9637 -0.0159
 3099SOL    HW210197   5.842   2.870   0.006  1.7614 -0.9693  0.6127
 3100SOL     OW10198   2.190   2.073   4.151  0.6071  0.1570  0.4673
 3100SOL    HW110199   2.156   2.160   4.187  1.2622 -0.1028  1.7876
 3100SOL    HW210200   2.289   2.068   4.165  0.5301 -0.9288  0.6890
 3101SOL     OW10201   5.376   1.767   4.162 -0.0046  0.2152 -0.1679
 3101SOL    HW110202   5.342   1.801   4.250 -0.8270  1.2700 -0.8606
 3101SOL    HW210203   5.355   1.670   4.154 -0.0618  0.1451  0.7366
 3102SOL     OW10204   3.126   1.246   3.960  0.2569 -0.6037  0.1196
 3102SOL    HW110205   3.174   1.333   3.950 -1.2090  0.3513  0.9896
 3102SOL    HW210206   3.116   1.224   4.057 -0.0183 -1.3811 -0.0751
 3103SOL     OW10207   0.940   6.579   1.613  1.0971 -0.0158  0.5492
 3103SOL    HW110208   0.890   6.659   1.579 -0.0236 -1.2077 -0.7398
 3103SOL    HW210209   0.908   6.555   1.704  2.3814  1.7541  1.5212
 3104SOL     OW10210   0.436   2.537   3.994 -0.4860  0.0873  0.1015
 3104SOL    HW110211   0.339   2.531   3.970 -0.5877 -0.2287  0.5682
 3104SOL    HW210212   0.480   2.448   3.978 -0.7717 -0.4274  1.9412
 3105SOL     OW10213   6.405   6.274   6.927  0.7830 -0.1484 -0.1882
 3105SOL    HW110214   6.361   6.362   6.943  2.6059  0.7602  0.0376
 3105SOL    HW210215   6.475   6.283   6.856  1.5335 -1.2291  0.3814
 3106SOL     OW10216   3.390   6.846   2.661 -0.3572 -0.4982 -0.1765
 3106SOL    HW110217   3.301   6.822   2.702 -0.5149  1.0249  0.4162
 3106SOL    HW210218   3.388   6.824   2.564 -1.4472 -0.3628 -0.2021
 3107SOL     OW10219   0.635   5.517   6.619  0.2247  0.0005 -0.3118
 3107SOL    HW110220   0.616   5.498   6.716  1.3289 -3.1695 -0.6219
 3107SOL    HW210221   0.550   5.542   6.573 -0.1116  3.1370  1.6817
 3108SOL     OW10222   0.982   1.671   6.723 -0.5257 -0.4270 -0.1624
 3108SOL    HW110223   0.951   1.747   6.666 -1.4659 -0.6787 -0.0150
 3108SOL    HW210224   0.905   1.638   6.779  0.6301  0.6642  2.2361
 3109SOL     OW10225   0.689   4.882   1.510 -0.7049 -0.0909 -0.1945
 3109SOL    HW110226   0.681   4.937   1.427  0.9859 -0.4527 -0.6313
 3109SOL    HW210227   0.775   4.904   1.557 -2.8978  2.3680  3.2035
 3110SOL     OW10228   6.826   6.780   0.850  0.1952  0.3917 -0.2413
 3110SOL    HW110229   6.901   6.803   0.912  0.9974 -0.0374 -1.0230
 3110SOL    HW210230   6.840   6.827   0.763 -0.0943 -0.2113 -0.6168
 3111SOL     OW10231   3.437   3.854   1.538 -0.4979 -0.0627  0.4411
 3111SOL    HW110232   3.502   3.817   1.604 -0.7375  0.2791  0.8754
 3111SOL    HW210233   3.431   3.953   1.549 -1.3675 -0.1355  0.6610
 3112SOL     OW10234   2.201   0.290   0.542 -0.2525 -0.5033  0.1178
 3112SOL    HW110235   2.109   0.281   0.580 -0.2589  0.1632  0.2692
 3112SOL    HW210236   2.231   0.202   0.506 -0.1471 -1.2073  1.8556
 3113SOL     OW10237   5.083   1.791   0.596  0.1380 -0.2676  0.2952
 3113SOL    HW110238   5.071   1.692   0.603  0.7708 -0.2929  1.2574
 3113SOL    HW210239   5.063   1.833   0.684  0.0886  0.4375 -0.0495
 3114SOL     OW10240   2.400   5.789   2.240  0.2117 -0.1004 -0.1028
 3114SOL    HW110241   2.353   5.847   2.307 -1.8377 -1.8281  0.0571
 3114SOL    HW210242   2.490   5.765   2.275 -0.5990 -0.5118  1.8352
 3115SOL     OW10243   3.244   5.660   3.582 -0.0130  0.0621 -0.0490
 3115SOL    HW110244   3.324   5.656   3.641  0.7557  0.6339 -1.0156
 3115SOL    HW210245   3.265   5.618   3.494  0.0689  2.3611 -1.2117
 3116SOL     OW10246   4.993   3.398   6.129 -0.6908  0.0405  0.0846
 3116SOL    HW110247   5.049   3.397   6.212 -0.0372 -0.4481 -0.3537
 3116SOL    HW210248   5.039   3.450   6.058  0.0213 -1.7314 -0.8100
 3117SOL     OW10249   1.719   3.193   5.945  0.3137 -0.6931 -0.5203
 3117SOL    HW110250   1.654   3.118   5.953 -1.1698  0.6992  1.3260
 3117SOL    HW210251   1.675   3.273   5.904  1.4724 -0.3715 -1.1980
 3118SOL     OW10252   6.026   1.068   4.573 -0.1028 -0.1020  0.2294
 3118SOL    HW110253   5.987   1.159   4.560 -0.5457 -0.1844  0.9537
 3118SOL    HW210254   6.032   1.022   4.485  0.8225  0.8997 -0.2642
 3119SOL     OW10255   3.729   1.733   6.027 -0.0364  0.1698  0.6951
 3119SOL    HW110256   3.644   1.700   5.985  1.2550 -1.3032 -0.9273
 3119SOL    HW210257   3.741   1.689   6.116 -0.6711 -0.0831  0.6673
 3120SOL     OW10258   0.720   5.738   2.702 -0.4422 -0.6072  0.2070
 3120SOL    HW110259   0.690   5.670   2.768  2.0609 -0.9262  1.1149
 3120SOL    HW210260   0.820   5.744   2.703 -0.5048  2.0281 -0.9008
 3121SOL     OW10261   3.756   5.339   1.359 -0.0590 -0.0963  0.8344
 3121SOL    HW110262   3.765   5.247   1.321  0.8770 -0.3560  1.6416
 3121SOL    HW210263   3.847   5.377   1.376 -0.3546 -0.4684  3.8844
 3122SOL     OW10264   4.862   5.205   2.993 -0.8280  0.0440  0.1032
 3122SOL    HW110265   4.897   5.293   2.961 -0.0056 -0.3751 -0.1849
 3122SOL    HW210266   4.830   5.151   2.915 -0.7762 -0.1456  0.2117
 3123SOL     OW10267   1.257   6.239   5.723 -0.2621 -0.2654 -0.5885
 3123SOL    HW110268   1.315   6.190   5.657 -2.0000 -1.2610 -1.4543
 3123SOL    HW210269   1.287   6.334   5.729  0.7100 -0.4493 -1.8879
 3124SOL     OW10270   0.855   5.385   4.873  0.3153 -0.0510 -0.2358
 3124SOL    HW110271   0.886   5.393   4.968 -0.6361  1.6541 -0.0336
 3124SOL    HW210272   0.755   5.385   4.871  0.2934  1.7064 -1.3183
 3125SOL     OW10273   3.774   5.573   3.547 -0.5519  0.1662 -0.3884
 3125SOL    HW110274   3.728   5.652   3.590 -0.7784 -0.6592  0.9343
 3125SOL    HW210275   3.705   5.509   3.513 -0.4073 -0.6801  0.8564
 3126SOL     OW10276   0.622   2.098   6.709 -0.3167 -1.0117 -0.1614
 3126SOL    HW110277   0.610   2.125   6.613  0.4498  1.6031  0.3729
 3126SOL    HW210278   0.565   2.156   6.767  1.5953 -0.3092  1.1327
 3127SOL     OW10279   2.100   2.530   4.443 -0.0651 -0.5477 -0.2846
 3127SOL    HW110280   2.060   2.580   4.519 -1.1434 -0.7713 -0.6768
 3127SOL    HW210281   2.181   2.578   4.409 -0.5324  0.4211 -0.0564
 3128SOL     OW10282   6.555   0.173   4.200  0.6458  0.2048  0.5941
 3128SOL    HW110283   6.533   0.093   4.256  0.7523 -0.7601 -0.6893
 3128SOL    HW210284   6.490   0.246   4.220 -2.5919 -1.8248 -1.5353
 3129SOL     OW10285   3.328   4.306   0.679 -0.0497  0.3232 -0.3726
 3129SOL    HW110286   3.282   4.270   0.598  0.3563  0.6762 -0.7650
 3129SOL    HW210287   3.260   4.330   0.748 -0.3308 -1.6023  0.0971
 3130SOL     OW10288   5.977   6.958   6.414  0.1828  0.1992 -0.6842
 3130SOL    HW110289   6.042   6.916   6.351  1.4813 -0.0582  0.7809
 3130SOL    HW210290   5.974   6.906   6.499 -0.6551  1.2013 -0.0717
 3131SOL     OW10291   0.714   1.822   3.682 -0.2338  0.2234  0.1845
 3131SOL    HW110292   0.813   1.813   3.696 -0.3419 -1.1177  0.2359
 3131SOL    HW210293   0.695   1.899   3.622  0.9100  0.0051 -0.4849
 3132SOL     OW10294   5.109   5.758   5.220  0.3473  0.3971  0.4122
 3132SOL    HW110295   5.156   5.703   5.151  1.8997 -0.7819  2.2768
 3132SOL    HW210296   5.109   5.854   5.193  0.4586 -0.0895 -1.4197
 3133SOL     OW10297   0.507   2.191   5.567 -0.0404  1.0572 -0.0711
 3133SOL    HW110298   0.455   2.264   5.522 -0.5609 -0.8164 -2.7193
 3133SOL    HW210299   0.465   2.169   5.654 -3.2181  0.2675 -1.6794
 3134SOL     OW10300   3.437   4.185   4.938 -0.2131  0.4259 -0.4552
 3134SOL    HW110301   3.409   4.222   5.027  0.4241 -0.2759  0.0461
 3134SOL    HW210302   3.536   4.175   4.936 -0.1272  1.3132 -1.6038
 3135SOL     OW10303   2.065   0.699   6.984  0.2805 -0.6863  0.1819
 3135SOL    HW110304   1.977   0.653   6.993 -0.6025  0.7647 -0.6084
 3135SOL    HW210305   2.129   0.664   7.053 -0.8579 -1.8730  0.6609
 3136SOL     OW10306   4.002   3.632   3.099 -0.1240  0.1763 -0.1920
 3136SOL    HW110307   3.909   3.646   3.067  0.0504  0.5157 -0.5615
 3136SOL    HW210308   4.031   3.710   3.155 -0.8173 -0.9021  1.7831
 3137SOL     OW10309   5.695   1.079   0.123  0.0916  0.5437  0.6316
 3137SOL    HW110310   5.596   1.063   0.118 -0.1237  1.8569  0.2227
 3137SOL    HW210311   5.724   1.079   0.218  0.0209 -1.5225  0.6937
 3138SOL     OW10312   5.614   0.421   3.946  0.2103 -0.1286 -0.1811
 3138SOL    HW110313   5.692   0.371   3.984 -0.5093 -0.5098  0.8285
 3138SOL    HW210314   5.572   0.476   4.017  0.2433  0.9906 -0.9964
 3139SOL     OW10315   5.599   3.488   6.502  0.0181  0.4708 -0.3039
 3139SOL    HW110316   5.628   3.559   6.437 -0.7863  1.6012  0.5255
 3139SOL    HW210317   5.499   3.488   6.510  0.0017 -0.8010 -0.3131
 3140SOL     OW10318   5.339   5.256   3.774 -0.1989  0.7274 -0.1176
 3140SOL    HW110319   5.390   5.337   3.804  1.6933 -0.2204 -0.6747
 3140SOL    HW210320   5.377   5.175   3.818 -1.9923  0.0894  0.3237
 3141SOL     OW10321   5.851   4.146   0.181  0.5364  0.0409  0.2348
 3141SOL    HW110322   5.755   4.168   0.202 -0.1342 -3.2903  1.2189
 3141SOL    HW210323   5.911   4.202   0.237 -0.8917  0.9667  0.8918
 3142SOL     OW10324   3.408   4.501   1.195 -0.0158  0.4575  0.1125
 3142SOL    HW110325   3.458   4.433   1.249  1.6072  2.7815  1.6838
 3142SOL    HW210326   3.451   4.510   1.105 -0.8694 -1.2510 -0.5104
 3143SOL     OW10327   1.147   3.932   6.983 -0.1154  0.1632  0.5077
 3143SOL    HW110328   1.057   3.899   6.953 -0.6838  1.0817  1.1368
 3143SOL    HW210329   1.209   3.935   6.905 -0.4472 -1.0319  0.1681
 3144SOL     OW10330   4.507   6.295   5.565 -0.4511  0.4406 -0.6171
 3144SOL    HW110331   4.470   6.215   5.611  0.6911 -0.7378 -1.6645
 3144SOL    HW210332   4.484   6.292   5.468 -0.2960  1.3240 -0.6916
 3145SOL     OW10333   4.224   3.284   0.127  0.3543 -0.0283 -0.1102
 3145SOL    HW110334   4.156   3.211   0.130 -1.5477  1.6661  0.4293
 3145SOL    HW210335   4.260   3.291   0.034 -2.1121  0.6105 -1.0940
 3146SOL     OW10336   1.984   6.303   5.612 -0.1523 -0.8389  0.3112
 3146SOL    HW110337   1.891   6.336   5.631  0.8829  2.1529  0.8003
 3146SOL    HW210338   2.030   6.368   5.551  2.1043 -1.4460  1.2660
 3147SOL     OW10339   5.380   4.102   1.565 -0.3168  0.3243  0.5024
 3147SOL    HW110340   5.386   4.195   1.530 -1.0387  1.4914  3.2032
 3147SOL    HW210341   5.470   4.073   1.600  0.0079 -0.1920 -0.7188
 3148SOL     OW10342   0.868   5.512   1.430  0.2334 -0.2761  0.2813
 3148SOL    HW110343   0.837   5.558   1.347  1.9239 -2.2188 -1.5365
 3148SOL    HW210344   0.791   5.469   1.476 -1.1235  2.7988  1.1289
 3149SOL     OW10345   0.176   6.943   3.792  0.7474  0.0806 -0.3990
 3149SOL    HW110346   0.105   7.010   3.769  0.7018  0.0976 -0.2128
 3149SOL    HW210347   0.239   6.933   3.715  1.7587  1.6069  0.2020
 3150SOL     OW10348   1.449   5.971   2.050 -0.2356 -0.7006  0.3650
 3150SOL    HW110349   1.355   6.005   2.045 -0.2252 -0.8086 -0.7525
 3150SOL    HW210350   1.456   5.884   2.000  0.5555 -0.4577  0.0446
 3151SOL     OW10351   1.540   6.497   1.098 -0.1190  0.4665  0.1253
 3151SOL    HW110352   1.538   6.403   1.133 -0.5455  0.5913  0.4472
 3151SOL    HW210353   1.447   6.526   1.074 -0.3781  1.6335  2.3129
 3152SOL     OW10354   2.247   1.552   6.958 -0.3862 -0.1323  0.3104
 3152SOL    HW110355   2.206   1.532   7.047  1.3961 -4.6381  0.3701
 3152SOL    HW210356   2.347   1.554   6.966 -0.1706 -0.8321 -1.6089
 3153SOL     OW10357   3.167   5.054   3.217 -0.5420  0.1154 -0.1343
 3153SOL    HW110358   3.258   5.070   3.177 -0.5410 -0.3934 -0.3562
 3153SOL    HW210359   3.158   5.106   3.302 -0.0113  0.1104 -0.0700
 3154SOL     OW10360   5.272   2.730   2.443  0.5939 -0.1849 -0.1439
 3154SOL    HW110361   5.270   2.824   2.479 -2.5574  0.3990 -1.4092
 3154SOL    HW210362   5.260   2.733   2.343  1.6217 -1.9297 -0.3550
 3155SOL     OW10363   3.125   5.409   3.300 -0.0282 -0.9396 -0.2896
 3155SOL    HW110364   3.152   5.504   3.286  1.7091 -0.8292  2.9382
 3155SOL    HW210365   3.036   5.393   3.257  0.0540  1.8467 -1.7049
 3156SOL     OW10366   6.658   6.491   3.377 -0.1316  0.4637 -0.3884
 3156SOL    HW110367   6.606   6.440   3.308 -0.2425 -1.4085  0.9795
 3156SOL    HW210368   6.755   6.472   3.367 -0.2785 -1.3754  1.0520
 3157SOL     OW10369   5.803   1.557   5.964  0.0997  0.4109 -0.4852
 3157SOL    HW110370   5.726   1.571   5.902 -1.5410 -0.9267  1.1361
 3157SOL    HW210371   5.799   1.464   6.001  2.1458  0.5404  0.1451
 3158SOL     OW10372   6.048   2.045   5.329 -0.4647 -0.2448 -0.3648
 3158SOL    HW110373   6.062   1.954   5.369  0.9388 -1.1188 -2.6516
 3158SOL    HW210374   6.079   2.115   5.394 -1.9735 -1.2986  1.6160
 3159SOL     OW10375   6.875   5.281   6.818 -0.1063 -0.2845  0.0361
 3159SOL    HW110376   6.958   5.292   6.873 -1.7435  2.3052  2.2464
 3159SOL    HW210377   6.805   5.234   6.872 -1.7271  2.2284  0.2939
 3160SOL     OW10378   2.099   3.464   2.339  0.4195 -0.0205 -0.0759
 3160SOL    HW110379   2.141   3.475   2.249  1.4788  0.8743  0.5048
 3160SOL    HW210380   2.007   3.503   2.338  0.9608  1.3016 -0.3910
 3161SOL     OW10381   2.667   1.332   1.859 -0.0245  0.5529  0.3787
 3161SOL    HW110382   2.672   1.394   1.937  2.4419  0.5142  0.3230
 3161SOL    HW210383   2.677   1.238   1.891  2.3724  0.6197 -0.0414
 3162SOL     OW10384   0.737   4.668   4.120  0.5803 -0.2911  0.8414
 3162SOL    HW110385   0.682   4.657   4.202 -0.8062 -1.4439 -0.1834
 3162SOL    HW210386   0.798   4.589   4.109  3.4461  1.5054  2.5931
 3163SOL     OW10387   2.828   1.211   5.003  0.4261  0.2550  0.2412
 3163SOL    HW110388   2.877   1.261   4.931  1.1844 -0.2389  0.4008
 3163SOL    HW210389   2.883   1.134   5.033 -0.0729  0.2023  1.0577
 3164SOL     OW10390   4.262   6.402   0.228  0.1813 -0.0240 -1.1707
 3164SOL    HW110391   4.254   6.500   0.247 -1.8517 -0.2751 -0.4988
 3164SOL    HW210392   4.306   6.389   0.139  2.1213  1.4208 -0.4892
 3165SOL     OW10393   5.060   0.444   4.977  0.5166 -0.1674  0.3870
 3165SOL    HW110394   4.983   0.382   4.964  0.9232 -0.6546  0.2693
 3165SOL    HW210395   5.104   0.425   5.064  0.1664  0.4850  0.7090
 3166SOL     OW10396   1.036   5.296   1.536 -0.0029 -0.1425 -0.1749
 3166SOL    HW110397   0.999   5.386   1.513  0.3656 -0.2327 -1.1443
 3166SOL    HW210398   1.102   5.305   1.611 -1.6066  0.0858  1.2818
 3167SOL     OW10399   0.314   4.383   6.326  0.2726  0.1207  0.7947
 3167SOL    HW110400   0.282   4.292   6.299 -0.4939  0.3334  0.9592
 3167SOL    HW210401   0.379   4.417   6.258 -1.3228  0.4834 -0.6187
 3168SOL     OW10402   2.499   3.233   1.461  0.1073  0.3208  0.0148
 3168SOL    HW110403   2.485   3.307   1.527 -0.3229 -0.4705  0.8255
 3168SOL    HW210404   2.591   3.195   1.473 -0.0199  0.0879  0.2458
 3169SOL     OW10405   6.789   5.380   1.405  0.1659 -0.1349  0.4741
 3169SOL    HW110406   6.869   5.378   1.345 -0.4345 -0.3204 -0.3415
 3169SOL    HW210407   6.757   5.287   1.422  1.3957 -0.2402  2.5903
 3170SOL     OW10408   5.739   5.709   2.198  0.0409 -0.2889 -0.1223
 3170SOL    HW110409   5.759   5.805   2.214 -2.0441 -0.2361  3.0351
 3170SOL    HW210410   5.803   5.652   2.250 -1.3415 -0.4002  1.5492
 3171SOL     OW10411   2.610   1.969   1.145 -0.1307 -0.3951 -0.4319
 3171SOL    HW110412   2.634   1.873   1.162  1.5543  0.0363 -0.2019
 3171SOL    HW210413   2.559   2.004   1.223 -1.2601 -1.2393 -0.7587
 3172SOL     OW10414   6.187   6.685   0.421 -0.2582 -0.0305  0.4354
 3172SOL    HW110415   6.110   6.623   0.407 -1.4322  1.4909 -0.1660
 3172SOL    HW210416   6.171   6.770   0.370  2.5251 -0.2253 -0.9951
 3173SOL     OW10417   6.082   2.479   6.661  0.1483  0.3417 -0.1194
 3173SOL    HW110418   6.044   2.554   6.715  0.9317  0.7586 -0.1262
 3173SOL    HW210419   6.114   2.514   6.573 -2.1641 -0.5229 -1.3815
 3174SOL     OW10420   5.916   0.328   0.097 -0.1818 -0.2893 -0.4139
 3174SOL    HW110421   5.936   0.425   0.107 -2.4725  0.0969  1.3498
 3174SOL    HW210422   5.943   0.280   0.181  0.9611 -1.2047 -1.2834
 3175SOL     OW10423   2.057   6.541   1.545 -0.1577 -0.8352 -0.3758
 3175SOL    HW110424   2.043   6.634   1.577  0.6566 -0.3888 -1.2745
 3175SOL    HW210425   2.076   6.481   1.623 -0.1894 -0.1552  0.1594
 3176SOL     OW10426   3.080   1.962   6.656  0.0705 -0.1751 -0.6073
 3176SOL    HW110427   3.099   1.912   6.572  2.0423  0.0927 -0.3576
 3176SOL    HW210428   3.153   2.027   6.674 -1.8442  2.0221 -0.3047
 3177SOL     OW10429   2.110   3.282   6.710 -0.3726 -0.2143 -0.4264
 3177SOL    HW110430   2.140   3.280   6.614 -1.3990  1.0107 -0.8061
 3177SOL    HW210431   2.066   3.194   6.732 -0.8537 -0.2256 -1.3417
 3178SOL     OW10432   2.136   0.102   4.577  0.1392  0.0669 -0.2688
 3178SOL    HW110433   2.144   0.199   4.601  3.3239 -0.2378  0.3192
 3178SOL    HW210434   2.128   0.093   4.477 -0.4770  0.9146 -0.3074
 3179SOL     OW10435   3.207   1.084   2.941  0.3938  0.8049  0.0388
 3179SOL    HW110436   3.120   1.080   2.989  1.4253  0.7222  2.0324
 3179SOL    HW210437   3.239   1.179   2.937  1.0862  0.6380  1.0718
 3180SOL     OW10438   3.533   0.813   0.898 -0.0472  0.3386  0.6705
 3180SOL    HW110439   3.451   0.781   0.947  0.7766 -1.3052  1.0654
 3180SOL    HW210440   3.598   0.850   0.964 -0.4390  1.6184  0.3593
 3181SOL     OW10441   3.377   5.008   6.037  0.3485  0.4668 -0.3041
 3181SOL    HW110442   3.290   5.055   6.025  0.1250  0.4512  1.0837
 3181SOL    HW210443   3.412   5.026   6.129 -0.7063 -3.6215  1.0672
 3182SOL     OW10444   5.381   6.547   2.022 -0.0797  0.0937 -0.4521
 3182SOL    HW110445   5.335   6.460   2.005  0.0938  0.0144 -0.5161
 3182SOL    HW210446   5.460   6.532   2.081  1.9634 -0.3332 -3.1582
 3183SOL     OW10447   5.441   5.799   0.125 -0.0419 -0.3771  0.0407
 3183SOL    HW110448   5.433   5.896   0.102 -0.2566 -0.4868 -0.3520
 3183SOL    HW210449   5.452   5.745   0.041  0.8193 -0.6252  0.2971
 3184SOL     OW10450   5.368   1.014   1.887 -0.7221  0.1041 -0.1708
 3184SOL    HW110451   5.432   0.993   1.813 -0.4452 -2.1467  0.6321
 3184SOL    HW210452   5.338   0.929   1.931 -0.6961  1.3411  2.4508
 3185SOL     OW10453   1.586   1.804   4.472 -0.1733 -0.2026 -0.3803
 3185SOL    HW110454   1.643   1.785   4.392 -0.6127  0.1957 -0.7968
 3185SOL    HW210455   1.512   1.737   4.477  0.3954 -0.8042  0.2386
 3186SOL     OW10456   5.804   5.490   5.064 -0.6502  0.1988  0.3680
 3186SOL    HW110457   5.888   5.542   5.077  1.1824 -2.7048  1.1244
 3186SOL    HW210458   5.805   5.448   4.973 -1.5730  0.5825  0.1706
 3187SOL     OW10459   3.862   5.052   2.447  0.5507 -0.0867  0.1611
 3187SOL    HW110460   3.787   4.989   2.428 -0.1867  0.7825  0.0944
 3187SOL    HW210461   3.867   5.069   2.546  0.0144  0.6176  0.0719
 3188SOL     OW10462   3.806   2.413   5.982 -0.3469 -0.5545 -0.0149
 3188SOL    HW110463   3.751   2.452   5.908  2.3842  1.8696 -0.9625
 3188SOL    HW210464   3.890   2.375   5.944  0.1636 -1.2042  1.6772
 3189SOL     OW10465   4.840   4.236   0.514  0.1228 -0.4339  0.0331
 3189SOL    HW110466   4.803   4.255   0.424  1.3172 -1.2040 -0.6447
 3189SOL    HW210467   4.895   4.153   0.511 -0.0758 -0.6547  1.5468
 3190SOL     OW10468   6.721   6.880   4.194 -0.1999 -0.2488  0.2615
 3190SOL    HW110469   6.774   6.801   4.224  0.3295 -0.7379 -1.8249
 3190SOL    HW210470   6.735   6.956   4.258 -0.2871 -1.6255  2.0033
 3191SOL     OW10471   1.326   5.565   6.183 -0.5388 -0.4539 -0.1262
 3191SOL    HW110472   1.275   5.508   6.119  0.7178 -2.0741  0.2414
 3191SOL    HW210473   1.417   5.583   6.147 -0.9204  1.3899 -0.2402
 3192SOL     OW10474   2.474   4.343   5.946 -0.3435  0.1537  0.3579
 3192SOL    HW110475   2.542   4.275   5.976 -0.4925 -0.5281 -0.7974
 3192SOL    HW210476   2.521   4.420   5.903 -0.2607  0.0595  0.2798
 3193SOL     OW10477   2.517   5.708   6.959 -0.5161 -0.2908  0.6958
 3193SOL    HW110478   2.505   5.683   7.055 -0.9629  0.8021  0.9457
 3193SOL    HW210479   2.560   5.798   6.954 -1.5820  0.1956 -0.1050
 3194SOL     OW10480   5.175   6.744   1.379 -0.1582  0.3906  0.1699
 3194SOL    HW110481   5.233   6.738   1.460  0.9618  0.0409 -0.6358
 3194SOL    HW210482   5.158   6.840   1.356  0.8829  0.5150 -0.1194
 3195SOL     OW10483   0.482   0.560   4.569  1.0702  0.2418 -0.2494
 3195SOL    HW110484   0.396   0.509   4.575  0.4535  1.3690  1.5858
 3195SOL    HW210485   0.478   0.622   4.491  0.1472  0.3467 -0.1362
 3196SOL     OW10486   6.035   6.908   1.684  0.0984 -0.2664  0.3138
 3196SOL    HW110487   6.073   6.962   1.609 -0.1390 -0.3390  0.1358
 3196SOL    HW210488   5.937   6.928   1.693 -0.1631 -1.2154 -0.2537
 3197SOL     OW10489   6.702   2.101   0.684 -0.0283 -0.0918  0.1714
 3197SOL    HW110490   6.766   2.161   0.733  0.1666  1.5065 -1.9097
 3197SOL    HW210491   6.636   2.157   0.634  0.3016 -1.5711 -2.0377
 3198SOL     OW10492   1.077   6.285   5.186  0.1824 -0.2547  0.4283
 3198SOL    HW110493   1.124   6.299   5.274  2.3345 -0.1272 -0.6747
 3198SOL    HW210494   1.093   6.192   5.154 -0.5311 -0.2752  0.1047
 3199SOL     OW10495   1.950   4.851   2.582 -0.2792 -0.2725  0.5060
 3199SOL    HW110496   1.950   4.947   2.611  0.7801  0.5848 -2.0291
 3199SOL    HW210497   2.045   4.822   2.567 -0.6809 -1.1733 -0.3432
 3200SOL     OW10498   1.961   4.498   4.371  0.5432  0.0032  0.0253
 3200SOL    HW110499   1.929   4.592   4.385  2.5881  0.9602 -1.2867
 3200SOL    HW210500   1.894   4.449   4.316  0.7258  1.6070 -1.7325
 3201SOL     OW10501   2.316   2.767   3.397  0.1884 -0.7390 -0.0308
 3201SOL    HW110502   2.396   2.716   3.427  1.7915  0.6625 -1.6868
 3201SOL    HW210503   2.264   2.797   3.477  1.8358 -0.8773  1.1412
 3202SOL     OW10504   0.933   0.827   1.649 -0.2781 -0.5485  0.0074
 3202SOL    HW110505   0.995   0.774   1.706  0.1931  1.5352  1.5392
 3202SOL    HW210506   0.887   0.896   1.705 -0.9551  0.5947 -1.8585
 3203SOL     OW10507   0.951   6.632   0.435  0.1072  0.0626 -0.0903
 3203SOL    HW110508   0.872   6.692   0.423  0.2689  0.6908  1.6795
 3203SOL    HW210509   1.009   6.667   0.509  1.2423 -1.2215 -0.3257
 3204SOL     OW10510   6.352   6.009   5.922 -0.4887  0.5831 -0.1132
 3204SOL    HW110511   6.278   5.942   5.914 -0.8376  1.0796 -1.3262
 3204SOL    HW210512   6.439   5.964   5.902 -0.6475  0.3404 -0.2724
 3205SOL     OW10513   4.325   2.750   1.457 -0.1629  0.1138 -0.5748
 3205SOL    HW110514   4.386   2.745   1.536 -0.4413  0.6550 -0.3164
 3205SOL    HW210515   4.311   2.659   1.419  0.2102 -0.1093 -0.1822
 3206SOL     OW10516   0.578   4.204   4.783  0.4167 -0.1391  0.4163
 3206SOL    HW110517   0.543   4.120   4.741  0.6355 -0.2713  0.4936
 3206SOL    HW210518   0.524   4.226   4.863 -0.4878  0.5370 -0.3630
 3207SOL     OW10519   3.861   0.459   6.405  0.0489 -0.2753 -0.2308
 3207SOL    HW110520   3.862   0.433   6.501  1.0542 -1.9300 -0.6501
 3207SOL    HW210521   3.781   0.515   6.386 -1.8383 -2.4420  0.9261
 3208SOL     OW10522   3.718   5.735   5.963  0.2526  0.8068  0.8934
 3208SOL    HW110523   3.684   5.808   6.021 -0.1189 -0.1182  1.8639
 3208SOL    HW210524   3.721   5.649   6.014  0.4169  0.0711 -0.2976
 3209SOL     OW10525   0.304   0.926   0.897  0.0341  0.9227  0.3873
 3209SOL    HW110526   0.335   1.020   0.914  2.6294  0.1290  0.4723
 3209SOL    HW210527   0.370   0.880   0.838 -0.0065 -1.5113  2.1269
 3210SOL     OW10528   6.440   1.028   3.311  0.3335  0.2155 -0.3231
 3210SOL    HW110529   6.402   1.088   3.241  0.5665  1.4215  0.5555
 3210SOL    HW210530   6.467   1.082   3.390  2.5853 -0.7512 -0.3511
 3211SOL     OW10531   2.719   6.815   4.748  0.3396 -0.0851  0.6386
 3211SOL    HW110532   2.762   6.728   4.724 -0.1095 -0.5896  1.6087
 3211SOL    HW210533   2.789   6.885   4.759  0.5884  0.1537 -1.9440
 3212SOL     OW10534   0.666   3.909   2.188 -0.0705 -0.0242  0.1872
 3212SOL    HW110535   0.705   3.843   2.123  0.6856 -0.4734  1.0660
 3212SOL    HW210536   0.722   3.910   2.271 -1.3253  0.1310  1.0535
 3213SOL     OW10537   0.518   0.016   0.865 -0.4379  0.2028 -0.2236
 3213SOL    HW110538   0.593  -0.001   0.801  0.9864  0.1113  1.3955
 3213SOL    HW210539   0.451   0.078   0.823  1.6463  2.0989 -0.9409
 3214SOL     OW10540   2.946   4.223   1.674 -0.2570 -0.3567 -0.2186
 3214SOL    HW110541   2.914   4.309   1.713 -3.6724 -0.8216 -1.6820
 3214SOL    HW210542   3.045   4.216   1.686 -0.2354  2.4044  2.4636
 3215SOL     OW10543   5.053   3.738   3.150  0.2541  0.4702  0.2709
 3215SOL    HW110544   5.044   3.675   3.073  0.7720 -0.1540  0.7150
 3215SOL    HW210545   4.990   3.814   3.138  0.4426  0.4623 -0.8515
 3216SOL     OW10546   5.915   0.879   4.745  0.5815  0.1327 -0.1911
 3216SOL    HW110547   5.963   0.962   4.715  1.9097 -0.2844  0.6934
 3216SOL    HW210548   5.824   0.877   4.705 -0.2102  2.9705  1.2045
 3217SOL     OW10549   2.230   0.073   2.258  0.5214  0.7916 -0.3480
 3217SOL    HW110550   2.219   0.152   2.198  2.7794  0.7765 -0.8840
 3217SOL    HW210551   2.242  -0.009   2.203 -0.7891  0.2019  0.1991
 3218SOL     OW10552   5.726   2.029   2.541  0.1953 -0.0864 -0.4878
 3218SOL    HW110553   5.690   1.967   2.472  0.3120 -1.1776  0.4028
 3218SOL    HW210554   5.821   2.004   2.562  0.2089  0.3254 -0.0351
 3219SOL     OW10555   0.315   1.555   3.400  0.1387  0.5525  0.6510
 3219SOL    HW110556   0.317   1.628   3.469 -0.5869  0.4661  0.7679
 3219SOL    HW210557   0.229   1.560   3.350 -0.1885 -0.6174  1.0755
 3220SOL     OW10558   6.528   0.905   4.313 -0.7837 -0.0838  0.7567
 3220SOL    HW110559   6.626   0.886   4.326 -0.6885  0.9856  1.7298
 3220SOL    HW210560   6.506   0.896   4.216  0.9420  2.3777  0.0031
 3221SOL     OW10561   4.125   5.711   6.875 -0.0236  0.6138  0.0577
 3221SOL    HW110562   4.055   5.693   6.806  2.3788 -1.0178 -2.1138
 3221SOL    HW210563   4.099   5.792   6.928 -2.1999  1.7285 -2.4876
 3222SOL     OW10564   6.372   6.416   5.667  0.5573  0.0030 -0.9175
 3222SOL    HW110565   6.300   6.404   5.598  1.1389 -0.1675 -1.5033
 3222SOL    HW210566   6.448   6.354   5.647  0.4144 -0.6100  0.3253
 3223SOL     OW10567   6.948   3.590   0.347 -0.0713 -0.8493 -0.0312
 3223SOL    HW110568   6.948   3.689   0.335  1.5697 -0.8656 -0.4399
 3223SOL    HW210569   6.962   3.567   0.443  1.7509 -0.6570 -0.2299
 3224SOL     OW10570   2.031   0.653   4.929  0.2403  0.0084  0.3618
 3224SOL    HW110571   2.018   0.557   4.903 -0.0637 -0.8568  3.2990
 3224SOL    HW210572   2.127   0.669   4.951  0.3106  0.4378 -0.2289
 3225SOL     OW10573   1.192   3.003   5.044 -0.0840  0.1305  0.4018
 3225SOL    HW110574   1.278   2.959   5.069 -0.3680 -0.6712  0.0037
 3225SOL    HW210575   1.124   2.933   5.021 -0.6388  0.7758  0.0398
 3226SOL     OW10576   6.826   2.827   1.055  0.4895 -0.1762  0.0048
 3226SOL    HW110577   6.760   2.755   1.033  0.7154  0.0672 -1.5265
 3226SOL    HW210578   6.786   2.888   1.123  0.4141 -1.9025  1.6203
 3227SOL     OW10579   0.548   3.635   4.320  0.1785 -0.1601 -0.6467
 3227SOL    HW110580   0.577   3.636   4.224 -1.4975 -0.5398 -1.2018
 3227SOL    HW210581   0.597   3.563   4.369  1.0914  0.0717 -1.2000
 3228SOL     OW10582   4.896   6.999   6.487 -0.7453 -0.3266 -0.1589
 3228SOL    HW110583   4.851   7.038   6.567 -0.3680 -0.1987 -0.0054
 3228SOL    HW210584   4.836   7.008   6.407 -0.3080  1.4109 -0.3268
 3229SOL     OW10585   0.599   4.773   2.019 -0.0068  0.8654 -0.2177
 3229SOL    HW110586   0.686   4.772   1.969 -0.4282  0.9278 -0.9665
 3229SOL    HW210587   0.612   4.817   2.107  0.6438  1.2073 -0.4751
 3230SOL     OW10588   5.943   6.563   0.800  0.2496 -0.3950 -0.2455
 3230SOL    HW110589   5.896   6.565   0.889 -0.2963 -1.2923 -0.5019
 3230SOL    HW210590   5.976   6.655   0.778 -0.4249  0.0285  0.4522
 3231SOL     OW10591   4.078   6.038   5.826  0.5493 -0.2444 -0.2676
 3231SOL    HW110592   4.061   5.955   5.879 -2.0739  0.2453 -0.1973
 3231SOL    HW210593   4.127   6.105   5.884  0.4556 -0.8253  0.5000
 3232SOL     OW10594   5.708   3.803   5.743 -0.2822 -0.3364  0.0608
 3232SOL    HW110595   5.800   3.812   5.783 -0.0805  0.1836 -0.5005
 3232SOL    HW210596   5.674   3.710   5.759 -0.0658 -0.2401  1.1311
 3233SOL     OW10597   6.299   4.646   1.368  0.0118  0.4075  0.3735
 3233SOL    HW110598   6.348   4.708   1.308 -0.7389 -1.7435 -2.6954
 3233SOL    HW210599   6.201   4.667   1.366 -0.4785 -1.6520 -1.9557
 3234SOL     OW10600   0.410   4.289   5.492 -0.2491 -0.1615  0.8378
 3234SOL    HW110601   0.407   4.190   5.474 -0.5049 -0.0105 -0.0193
 3234SOL    HW210602   0.325   4.317   5.537  0.1466 -0.4521  1.7818
 3235SOL     OW10603   6.279   0.619   6.870 -0.0425 -0.0977  0.2075
 3235SOL    HW110604   6.297   0.690   6.938  0.1183  0.3093 -0.2512
 3235SOL    HW210605   6.239   0.661   6.788 -0.3173 -0.5930  0.0869
 3236SOL     OW10606   1.407   6.662   0.666 -0.0396 -0.1094 -0.3847
 3236SOL    HW110607   1.497   6.654   0.709 -0.5636  0.5458  0.8947
 3236SOL    HW210608   1.391   6.757   0.639 -1.4110  0.3887  1.9214
 3237SOL     OW10609   1.519   6.784   4.795  0.6073  0.0146  0.1269
 3237SOL    HW110610   1.456   6.832   4.856 -0.6396 -2.1343  0.6421
 3237SOL    HW210611   1.611   6.820   4.807 -0.0784  1.5185  1.2103
 3238SOL     OW10612   1.361   5.624   1.901  0.1384 -0.3743 -0.2647
 3238SOL    HW110613   1.300   5.657   1.829  0.6986  0.5221 -0.3528
 3238SOL    HW210614   1.443   5.682   1.904  0.0958 -0.3510  1.1478
 3239SOL     OW10615   2.323   5.918   2.468  0.3237  0.0539  0.3867
 3239SOL    HW110616   2.229   5.947   2.484  0.8535  1.8455  0.4764
 3239SOL    HW210617   2.377   5.933   2.551  0.7122 -0.9684  0.3414
 3240SOL     OW10618   1.364   3.264   2.992 -0.4241 -0.2264 -0.2760
 3240SOL    HW110619   1.377   3.303   3.084  0.7192 -1.1285 -0.0482
 3240SOL    HW210620   1.354   3.165   2.999 -3.4317 -0.0503 -0.8484
 3241SOL     OW10621   5.832   5.173   5.631  0.8043 -0.2187  0.3324
 3241SOL    HW110622   5.916   5.214   5.595  1.0103 -0.7124  0.2426
 3241SOL    HW210623   5.842   5.074   5.632 -0.0546 -0.3201 -0.3704
 3242SOL     OW10624   5.066   0.723   3.518 -0.0065 -0.4874  0.0900
 3242SOL    HW110625   5.058   0.795   3.587  2.0970 -0.0909 -0.0031
 3242SOL    HW210626   5.116   0.646   3.557  0.9675 -0.3740 -0.8783
 3243SOL     OW10627   0.945   5.821   3.438 -1.0387 -0.5243  0.6478
 3243SOL    HW110628   0.942   5.904   3.495 -1.7149 -1.2067  1.6326
 3243SOL    HW210629   0.854   5.779   3.435 -0.8989 -0.7892 -0.5434
 3244SOL     OW10630   1.364   3.049   1.518  0.5676 -0.2801 -0.0163
 3244SOL    HW110631   1.407   3.045   1.608 -0.5408 -0.4939  0.5188
 3244SOL    HW210632   1.402   3.126   1.467  1.1955 -0.1435  0.6312
 3245SOL     OW10633   5.052   1.290   0.420 -0.2927  0.1242  0.5335
 3245SOL    HW110634   5.023   1.273   0.325  0.5199  0.5244  0.2060
 3245SOL    HW210635   5.000   1.230   0.481 -1.3742  0.3911 -0.0862
 3246SOL     OW10636   4.294   6.707   0.945  0.1695  0.0937 -0.4376
 3246SOL    HW110637   4.368   6.641   0.934 -0.5020 -0.9683  1.1533
 3246SOL    HW210638   4.231   6.675   1.015 -2.6195  0.2485 -2.7283
 3247SOL     OW10639   3.765   2.901   0.250 -0.0774  0.3524  0.0583
 3247SOL    HW110640   3.832   2.888   0.323 -0.8406 -1.3918  0.5270
 3247SOL    HW210641   3.722   2.991   0.259  0.4956  0.5319  1.2043
 3248SOL     OW10642   2.875   5.834   5.169  0.3635  0.1523  0.3827
 3248SOL    HW110643   2.904   5.906   5.106  1.1495  0.3457  0.9497
 3248SOL    HW210644   2.815   5.873   5.239  0.0983  0.0839  0.1954
 3249SOL     OW10645   2.781   5.370   2.106 -0.0283  0.7167 -0.1475
 3249SOL    HW110646   2.729   5.348   2.189  0.6176  0.5630  0.2228
 3249SOL    HW210647   2.723   5.355   2.026 -0.2154 -0.5035  0.2009
 3250SOL     OW10648   2.636   0.079   4.540  0.4177 -0.5610  0.0428
 3250SOL    HW110649   2.641   0.033   4.452 -0.5240 -0.5751 -0.0212
 3250SOL    HW210650   2.717   0.136   4.554 -0.1235  0.6533 -1.5069
 3251SOL     OW10651   6.490   1.730   4.699 -0.4500  0.1329  0.4936
 3251SOL    HW110652   6.507   1.632   4.709 -1.4169 -0.1945 -0.7826
 3251SOL    HW210653   6.484   1.772   4.790 -0.1257 -1.0038  1.0611
 3252SOL     OW10654   4.298   6.543   6.606 -0.0232 -0.7023  0.1500
 3252SOL    HW110655   4.284   6.632   6.563  1.4498  0.1404  1.3506
 3252SOL    HW210656   4.212   6.514   6.649 -0.2670  0.5884  0.5770
 3253SOL     OW10657   0.852   6.114   6.603 -0.1061  0.4378 -0.5716
 3253SOL    HW110658   0.936   6.158   6.570 -0.4153  1.2871 -0.2699
 3253SOL    HW210659   0.789   6.185   6.636  0.3873 -0.3467  2.3558
 3254SOL     OW10660   2.381   4.769   1.170  0.2446 -0.1422  0.1229
 3254SOL    HW110661   2.392   4.821   1.255  0.4068 -1.3192  0.8344
 3254SOL    HW210662   2.294   4.794   1.127  0.3577  0.7753  0.3981
 3255SOL     OW10663   6.079   4.902   1.037 -0.8063  0.2014  0.1909
 3255SOL    HW110664   6.097   4.811   1.074 -2.4956 -0.0554  0.4737
 3255SOL    HW210665   6.164   4.943   1.005  0.1526 -1.0197  1.0943
 3256SOL     OW10666   6.809   6.709   4.913  0.0355  0.1530  0.6179
 3256SOL    HW110667   6.878   6.668   4.853  2.8247  3.4204  1.2952
 3256SOL    HW210668   6.794   6.649   4.992  0.5971 -1.5064 -0.4735
 3257SOL     OW10669   5.789   5.835   1.260 -0.1997 -0.3872 -0.0960
 3257SOL    HW110670   5.878   5.792   1.244 -0.3171 -0.6342 -0.0843
 3257SOL    HW210671   5.736   5.779   1.323 -0.1053  0.1071  0.4319
 3258SOL     OW10672   3.489   0.732   1.845 -0.0881  0.2582 -0.4905
 3258SOL    HW110673   3.477   0.645   1.892 -0.4681  0.2077 -0.6758
 3258SOL    HW210674   3.434   0.733   1.761 -0.1373  0.6995 -0.4575
 3259SOL     OW10675   2.211   4.276   0.098  0.0694 -0.3967 -0.2558
 3259SOL    HW110676   2.129   4.307   0.049 -0.1806 -2.6187 -1.3351
 3259SOL    HW210677   2.292   4.291   0.042  0.1098 -0.4777 -0.2195
 3260SOL     OW10678   5.976   5.487   2.570 -0.3069 -0.5234  0.0947
 3260SOL    HW110679   6.058   5.493   2.627 -1.3032 -1.9412  1.7825
 3260SOL    HW210680   6.000   5.507   2.475  1.3638  2.1377  0.9755
 3261SOL     OW10681   5.448   5.732   0.580 -0.6424  0.1848 -0.1430
 3261SOL    HW110682   5.492   5.794   0.515  0.9502 -1.0451 -0.3025
 3261SOL    HW210683   5.389   5.668   0.530  0.3302 -0.5554 -0.3538
 3262SOL     OW10684   1.135   6.154   2.747  0.0928  0.3183  0.6550
 3262SOL    HW110685   1.116   6.067   2.793  0.6899 -0.2075 -0.0609
 3262SOL    HW210686   1.055   6.181   2.693  0.1250 -0.1166  0.3817
 3263SOL     OW10687   5.148   5.795   3.476 -0.9339 -0.6069 -0.4662
 3263SOL    HW110688   5.244   5.799   3.450 -1.1867  2.1483 -1.2715
 3263SOL    HW210689   5.126   5.703   3.508  2.3456 -0.8823  1.3861
 3264SOL     OW10690   6.767   2.334   0.049 -0.3410  0.1594 -0.6906
 3264SOL    HW110691   6.735   2.366   0.138  0.6799 -1.4938  0.3433
 3264SOL    HW210692   6.865   2.313   0.054 -0.7370 -2.2515 -1.4612
 3265SOL     OW10693   0.377   0.854   3.289  0.8637  0.2980 -0.1443
 3265SOL    HW110694   0.450   0.908   3.331  1.6583  0.7065 -1.9619
 3265SOL    HW210695   0.305   0.915   3.256  0.2681 -0.0141  0.5546
 3266SOL     OW10696   4.407   6.914   1.114 -0.4004 -0.6491  0.9213
 3266SOL    HW110697   4.498   6.942   1.145  0.8654 -0.8749 -2.2089
 3266SOL    HW210698   4.400   6.814   1.117 -0.3568 -0.6588  0.7422
 3267SOL     OW10699   4.748   6.519   5.402 -0.0094 -0.0151 -0.0034
 3267SOL    HW110700   4.786   6.432   5.370  0.8201  0.7572 -1.1986
 3267SOL    HW210701   4.660   6.503   5.447  0.2644 -1.4965  0.0333
 3268SOL     OW10702   1.195   2.715   0.478  0.3066  0.0515 -0.3163
 3268SOL    HW110703   1.281   2.712   0.428  0.1909  0.4106 -0.5410
 3268SOL    HW210704   1.138   2.637   0.451  0.9046 -0.6876  0.4787
 3269SOL     OW10705   0.006   1.987   4.698 -0.4190  0.0242  0.1206
 3269SOL    HW110706   0.060   1.935   4.764 -0.2296 -0.5193 -0.4538
 3269SOL    HW210707  -0.082   2.012   4.739 -0.5796 -0.8899  0.3627
 3270SOL     OW10708   6.423   1.984   1.394  0.4033 -0.1699  0.2877
 3270SOL    HW110709   6.336   1.984   1.443  0.0168 -0.6502 -0.3892
 3270SOL    HW210710   6.494   2.021   1.454 -0.6694  2.4775  0.0770
 3271SOL     OW10711   6.817   5.877   2.734  0.2249 -0.3226  0.3182
 3271SOL    HW110712   6.747   5.866   2.804  0.2240 -0.5310  0.2859
 3271SOL    HW210713   6.821   5.973   2.705  1.2778  0.0806  1.7077
 3272SOL     OW10714   3.243   6.544   4.479 -0.2492  0.1305  0.0063
 3272SOL    HW110715   3.196   6.589   4.555  0.3013  3.9016 -1.6564
 3272SOL    HW210716   3.342   6.547   4.495 -0.1934 -0.4147 -0.2144
 3273SOL     OW10717   0.857   2.739   5.784 -0.1426  0.4681  0.3718
 3273SOL    HW110718   0.773   2.728   5.837 -0.2795  0.0925  0.0805
 3273SOL    HW210719   0.865   2.833   5.752  1.0041  1.3040  2.8390
 3274SOL     OW10720   2.417   0.121   1.924  0.6569 -0.0935  0.3226
 3274SOL    HW110721   2.374   0.046   1.973  0.2602 -1.2161 -1.6599
 3274SOL    HW210722   2.361   0.204   1.934 -2.0085 -1.4527 -2.0117
 3275SOL     OW10723   5.013   1.553   2.021  0.3733  0.5489 -0.4373
 3275SOL    HW110724   4.954   1.506   2.087 -1.2003  2.0109 -0.7418
 3275SOL    HW210725   5.075   1.615   2.070  0.8394 -0.0815 -0.2061
 3276SOL     OW10726   4.321   0.870   4.029  0.1269 -0.8037 -0.3948
 3276SOL    HW110727   4.382   0.945   4.003 -0.5473 -0.8466 -2.2593
 3276SOL    HW210728   4.373   0.801   4.080  1.6654 -0.8255 -1.8860
 3277SOL     OW10729   5.595   3.314   4.523  0.2446  0.3062 -0.0042
 3277SOL    HW110730   5.598   3.240   4.590 -0.6650 -0.7566 -1.0897
 3277SOL    HW210731   5.512   3.306   4.468 -0.4315  2.7946  0.5539
 3278SOL     OW10732   1.372   3.907   1.859 -0.1116 -0.1460  0.2430
 3278SOL    HW110733   1.378   3.809   1.842  1.2850 -0.0960  0.3305
 3278SOL    HW210734   1.365   3.956   1.772 -0.9427 -0.3203  0.2057
 3279SOL     OW10735   6.318   6.297   6.222 -0.9454 -0.0763 -0.0123
 3279SOL    HW110736   6.305   6.287   6.123 -0.6543  1.1861 -0.1973
 3279SOL    HW210737   6.404   6.253   6.248 -0.8282 -0.0784 -0.3926
 3280SOL     OW10738   3.514   1.308   3.310  0.2743 -0.2823  0.7764
 3280SOL    HW110739   3.415   1.304   3.327  0.3965 -0.8438  1.3742
 3280SOL    HW210740   3.559   1.351   3.388  0.8317 -2.7794  1.9192
 3281SOL     OW10741   5.792   2.022   6.003 -0.1185 -0.2289 -0.1708
 3281SOL    HW110742   5.693   2.036   6.009 -0.1106 -0.7396  2.2376
 3281SOL    HW210743   5.815   1.931   6.038  1.1296 -0.5564 -1.7453
 3282SOL     OW10744   5.709   5.347   0.644 -0.4816  0.2168 -0.1753
 3282SOL    HW110745   5.759   5.342   0.731  1.5110 -0.7236 -1.2993
 3282SOL    HW210746   5.699   5.255   0.607 -0.1535  0.7311 -1.5725
 3283SOL     OW10747   1.516   0.238   2.548 -0.1220  0.3485  0.3834
 3283SOL    HW110748   1.469   0.203   2.467  2.7603  0.1746 -1.3435
 3283SOL    HW210749   1.593   0.178   2.570  2.0236  2.9333  0.3091
 3284SOL     OW10750   3.123   5.694   3.304  0.2155 -0.2830 -0.4875
 3284SOL    HW110751   3.055   5.739   3.246 -0.0039 -0.1216 -0.1108
 3284SOL    HW210752   3.147   5.754   3.381 -0.4551 -1.0051  0.3049
 3285SOL     OW10753   3.421   5.371   3.910 -0.5422 -0.5275  0.3342
 3285SOL    HW110754   3.387   5.459   3.942 -0.5501 -0.5807  0.4727
 3285SOL    HW210755   3.461   5.321   3.986  1.4745  0.2821 -0.1254
 3286SOL     OW10756   1.817   0.371   3.458 -0.4506  0.7101 -0.4796
 3286SOL    HW110757   1.887   0.441   3.444 -0.7242  1.1389  0.2473
 3286SOL    HW210758   1.862   0.282   3.470  0.1856  1.2851  2.2071
 3287SOL     OW10759   0.096   5.284   2.859 -0.2942 -0.0444  0.0355
 3287SOL    HW110760   0.164   5.299   2.930 -0.9083  0.1350  0.5962
 3287SOL    HW210761   0.141   5.253   2.775  0.3920 -0.7160  0.6372
 3288SOL     OW10762   0.008   6.355   1.544 -0.1571 -0.0043  0.5761
 3288SOL    HW110763  -0.050   6.274   1.537 -1.4150  1.0149 -1.7721
 3288SOL    HW210764   0.104   6.328   1.540 -0.4407 -1.5273  2.3289
 3289SOL     OW10765   1.658   5.018   0.010 -0.2974  0.1641 -0.3063
 3289SOL    HW110766   1.658   4.920   0.028 -2.4707  0.2698  0.5940
 3289SOL    HW210767   1.639   5.034  -0.087 -0.5790 -0.2993 -0.3282
 3290SOL     OW10768   5.458   0.093   2.131  0.0978 -0.0489 -0.5372
 3290SOL    HW110769   5.443   0.024   2.203  1.6949  1.0184  0.8936
 3290SOL    HW210770   5.507   0.051   2.055 -0.2415 -0.8388 -0.3369
 3291SOL     OW10771   5.823   0.197   5.398  0.3738  0.2782  0.2347
 3291SOL    HW110772   5.836   0.107   5.357  0.2350  0.4103 -0.0989
 3291SOL    HW210773   5.725   0.216   5.407  0.4004  0.5673 -0.0725
 3292SOL     OW10774   1.789   5.494   5.426 -0.1540 -0.0241 -0.1086
 3292SOL    HW110775   1.703   5.452   5.454  1.3985 -1.5688  2.8157
 3292SOL    HW210776   1.826   5.548   5.501  0.7233  1.9494 -1.8545
 3293SOL     OW10777   1.970   4.368   4.619 -0.2230  0.1078 -0.4110
 3293SOL    HW110778   1.956   4.402   4.526  0.2829 -0.8383 -0.8517
 3293SOL    HW210779   1.948   4.440   4.685  0.6195  1.2003 -1.2831
 3294SOL     OW10780   4.575   3.741   6.010 -0.0853  0.0169 -0.0809
 3294SOL    HW110781   4.631   3.733   6.093 -2.3545 -1.7837  1.3878
 3294SOL    HW210782   4.544   3.650   5.981  0.1644  0.6614 -2.6333
 3295SOL     OW10783   1.335   0.296   3.623 -0.2491 -0.2683  0.3522
 3295SOL    HW110784   1.323   0.382   3.574 -0.6875 -0.8682 -0.6193
 3295SOL    HW210785   1.433   0.274   3.629 -0.2414 -1.2249 -2.1670
 3296SOL     OW10786   1.396   3.119   3.299  0.2360 -0.3498 -0.0982
 3296SOL    HW110787   1.301   3.128   3.269 -0.5920  0.4465  2.4926
 3296SOL    HW210788   1.417   3.189   3.367  3.5055  1.0924 -2.3277
 3297SOL     OW10789   6.672   0.352   2.987 -0.0697 -0.4424 -0.5106
 3297SOL    HW110790   6.666   0.253   2.978  0.8831 -0.4866 -0.7277
 3297SOL    HW210791   6.755   0.385   2.943 -0.0254  0.3786  0.1608
 3298SOL     OW10792   4.653   0.352   6.631  0.3301 -0.7490  0.0979
 3298SOL    HW110793   4.578   0.299   6.591 -2.0141  2.3645  0.0536
 3298SOL    HW210794   4.651   0.344   6.730  0.1392 -0.9207  0.0810
 3299SOL     OW10795   6.955   0.620   0.440  0.5546 -0.1068  0.5174
 3299SOL    HW110796   6.903   0.579   0.365 -0.6705  1.3238  0.5521
 3299SOL    HW210797   6.954   0.719   0.431  0.4061  0.0957  2.4055
 3300SOL     OW10798   1.947   6.589   4.286  0.0224 -0.0535 -0.8066
 3300SOL    HW110799   1.893   6.668   4.256  1.4185  0.7886 -1.2160
 3300SOL    HW210800   1.926   6.510   4.229 -0.7388  0.2677 -0.9760
 3301SOL     OW10801   1.060   7.004   2.606 -0.0438  0.6603  0.5393
 3301SOL    HW110802   1.049   7.103   2.594 -0.5917  0.6850  1.2085
 3301SOL    HW210803   1.147   6.984   2.650  1.2423  0.6739 -1.8483
 3302SOL     OW10804   4.025   0.256   4.220  0.7931 -0.1277 -0.0557
 3302SOL    HW110805   4.121   0.229   4.230  0.3518 -1.4582  0.7638
 3302SOL    HW210806   3.980   0.252   4.310 -0.0224  0.5479 -0.4236
 3303SOL     OW10807   1.130   5.652   3.572 -0.0500  0.2527  0.3367
 3303SOL    HW110808   1.076   5.723   3.527 -0.1505  0.6914  1.1390
 3303SOL    HW210809   1.187   5.606   3.504  0.0149  1.0951 -0.1974
 3304SOL     OW10810   6.481   4.662   5.199 -0.1002  0.3585  0.1381
 3304SOL    HW110811   6.482   4.745   5.143  0.9973  0.8693  0.8937
 3304SOL    HW210812   6.535   4.591   5.154  0.9974  0.8510  0.6341
 3305SOL     OW10813   2.898   2.753   1.689 -0.4239 -0.2267 -0.1262
 3305SOL    HW110814   2.981   2.809   1.697 -0.2936 -0.3109 -0.8411
 3305SOL    HW210815   2.897   2.686   1.763 -0.3740  0.4486  0.4922
 3306SOL     OW10816   1.959   1.045   4.605 -0.4944 -0.0766  0.3120
 3306SOL    HW110817   2.008   1.104   4.669  0.1310 -0.7748  0.4888
 3306SOL    HW210818   1.948   0.954   4.645  0.6374 -0.7699 -0.8791
 3307SOL     OW10819   3.299   3.866   3.548 -0.0503 -0.3190  0.3842
 3307SOL    HW110820   3.207   3.847   3.582 -0.4560  0.6057 -0.1533
 3307SOL    HW210821   3.297   3.946   3.488  1.2961  0.4299  1.2751
 3308SOL     OW10822   6.243   5.908   3.836  0.5344  0.2367 -0.1333
 3308SOL    HW110823   6.321   5.968   3.819  0.4523 -0.0354 -1.5728
 3308SOL    HW210824   6.275   5.814   3.849  0.5721  0.3959  1.0460
 3309SOL     OW10825   3.601   6.680   3.654  0.1017  0.1470 -0.7070
 3309SOL    HW110826   3.678   6.740   3.631  0.8875 -0.6891 -0.3149
 3309SOL    HW210827   3.615   6.641   3.744 -1.6661  1.3364  0.1563
 3310SOL     OW10828   2.032   6.688   2.812  0.5224 -0.0087  0.1203
 3310SOL    HW110829   2.102   6.686   2.884  1.1343 -0.0842 -0.4683
 3310SOL    HW210830   1.991   6.598   2.803 -1.2316  0.5211  1.9626
 3311SOL     OW10831   4.944   1.972   3.750 -0.3096  0.3999 -0.1118
 3311SOL    HW110832   4.950   1.922   3.836 -0.5422  0.3419 -0.1282
 3311SOL    HW210833   5.029   2.021   3.734 -0.3451  0.5822  0.2560
 3312SOL     OW10834   5.424   6.916   6.846 -0.0902  0.2829 -0.5947
 3312SOL    HW110835   5.515   6.877   6.830 -0.9664 -1.4565 -1.7221
 3312SOL    HW210836   5.395   6.966   6.765 -0.8341 -0.6968 -0.9531
 3313SOL     OW10837   6.667   2.600   5.094 -0.5665  0.3364 -0.3991
 3313SOL    HW110838   6.665   2.659   5.013 -1.7142  0.0174 -0.6242
 3313SOL    HW210839   6.712   2.513   5.071  0.9568  1.0281 -0.1169
 3314SOL     OW10840   1.976   4.294   3.986  0.1779  0.0007 -0.1257
 3314SOL    HW110841   2.072   4.299   3.959  0.7767 -1.3522  1.5764
 3314SOL    HW210842   1.929   4.226   3.930 -0.0030  1.1659 -1.4421
 3315SOL     OW10843   4.796   5.775   1.526 -0.5042  1.1633  0.2092
 3315SOL    HW110844   4.856   5.823   1.590 -1.4292  2.0588  0.4297
 3315SOL    HW210845   4.722   5.836   1.497 -0.5671  0.5043 -1.0867
 3316SOL     OW10846   5.842   0.485   4.739  0.5531 -0.1029  0.2324
 3316SOL    HW110847   5.753   0.443   4.721 -0.0243 -0.8971  4.0575
 3316SOL    HW210848   5.913   0.432   4.693 -0.7631 -0.6319 -1.2837
 3317SOL     OW10849   1.919   4.517   0.722 -0.8543 -0.0232 -0.1530
 3317SOL    HW110850   1.921   4.432   0.671 -0.2587  1.9762 -3.8206
 3317SOL    HW210851   1.825   4.552   0.726 -0.7421  0.4166 -1.0740
 3318SOL     OW10852   1.272   0.035   2.070  0.2008  0.2242 -0.0437
 3318SOL    HW110853   1.224  -0.034   2.016  0.8127  0.5520 -1.0492
 3318SOL    HW210854   1.366   0.005   2.088  0.3411  0.5961 -0.1296
 3319SOL     OW10855   5.718   5.656   2.533 -0.4045  0.4422  0.1615
 3319SOL    HW110856   5.732   5.744   2.488 -0.7888  1.3120  1.6719
 3319SOL    HW210857   5.801   5.601   2.526 -0.1686  0.8975 -0.8223
 3320SOL     OW10858   5.525   0.703   4.269  0.5952  0.7965  0.5452
 3320SOL    HW110859   5.442   0.753   4.293 -0.0290 -0.1879  0.4949
 3320SOL    HW210860   5.572   0.750   4.194 -1.0900  0.2103 -0.9295
 3321SOL     OW10861   2.936   4.386   0.623  0.9457 -0.1325  0.5258
 3321SOL    HW110862   2.851   4.352   0.583  0.8959  0.5500  0.0242
 3321SOL    HW210863   2.962   4.329   0.700 -0.2871  0.0025  1.0716
 3322SOL     OW10864   4.630   4.148   6.367  0.1047 -0.9800 -0.6125
 3322SOL    HW110865   4.700   4.090   6.410  1.5449  0.9612 -0.2163
 3322SOL    HW210866   4.559   4.170   6.435  1.1947  0.2230  0.1853
 3323SOL     OW10867   2.649   4.480   5.340 -0.7895 -0.0636 -0.1597
 3323SOL    HW110868   2.731   4.508   5.289  0.3467 -0.6290  1.2740
 3323SOL    HW210869   2.568   4.497   5.284  0.2712  0.7491 -1.5364
 3324SOL     OW10870   3.249   5.324   6.337  0.0081 -0.1031 -0.3538
 3324SOL    HW110871   3.198   5.240   6.352  0.5135 -0.5238 -0.9183
 3324SOL    HW210872   3.188   5.394   6.300 -0.1600 -0.6143 -1.0655
 3325SOL     OW10873   5.893   1.866   6.370 -0.6985  0.6019 -0.4270
 3325SOL    HW110874   5.798   1.835   6.376 -0.6319  0.4353 -0.1882
 3325SOL    HW210875   5.930   1.842   6.280 -0.1784 -1.4145  0.2815
 3326SOL     OW10876   5.378   5.609   6.099  0.1658  0.0411  0.5544
 3326SOL    HW110877   5.435   5.607   6.017  1.5223  0.9745  1.4175
 3326SOL    HW210878   5.285   5.580   6.077  1.3733 -3.5096 -0.5635
 3327SOL     OW10879   5.777   0.469   4.421  0.0234  0.2377 -0.5191
 3327SOL    HW110880   5.857   0.437   4.472  0.9098  1.0281 -1.3558
 3327SOL    HW210881   5.785   0.568   4.405 -1.4665  0.4599 -0.0383
 3328SOL     OW10882   2.642   4.929   2.218 -0.1708 -0.0624 -0.5895
 3328SOL    HW110883   2.719   4.980   2.182  1.6425 -2.1426  0.0776
 3328SOL    HW210884   2.672   4.837   2.244 -2.1172  0.0272  2.6675
 3329SOL     OW10885   6.662   3.653   0.224  0.0581  0.3242  0.3444
 3329SOL    HW110886   6.667   3.662   0.324 -0.2197 -1.0321  0.5052
 3329SOL    HW210887   6.715   3.573   0.196 -1.7250 -0.6812 -0.3297
 3330SOL     OW10888   0.619   5.821   2.449  0.1855 -0.1470 -0.2882
 3330SOL    HW110889   0.659   5.798   2.538  0.2562 -1.5502 -0.6696
 3330SOL    HW210890   0.549   5.891   2.462  1.0725  0.5941  0.6972
 3331SOL     OW10891   2.812   6.340   1.819  0.8085 -0.2087 -0.1055
 3331SOL    HW110892   2.794   6.432   1.854  0.6112 -1.2725  2.8612
 3331SOL    HW210893   2.726   6.291   1.808  0.9731 -0.3782 -0.6518
 3332SOL     OW10894   0.930   2.393   3.727  0.1902 -0.5299 -0.3276
 3332SOL    HW110895   0.971   2.462   3.786  2.0107 -2.4071  0.7526
 3332SOL    HW210896   0.896   2.317   3.783  1.2701 -2.0105 -1.5974
 3333SOL     OW10897   5.811   3.885   6.557 -0.1462 -0.0791 -0.2245
 3333SOL    HW110898   5.767   3.819   6.618  2.6891 -1.7637  0.1698
 3333SOL    HW210899   5.818   3.974   6.603  0.6405 -0.9288  1.3790
 3334SOL     OW10900   0.086   4.490   0.530  0.2479  0.7260  0.3387
 3334SOL    HW110901   0.033   4.417   0.488  0.4017  1.2188 -0.7607
 3334SOL    HW210902   0.183   4.479   0.506 -0.0237  2.8015 -2.3310
 3335SOL     OW10903   4.862   4.824   6.800  0.6636  0.0480 -0.4243
 3335SOL    HW110904   4.820   4.892   6.740  0.0294 -1.2467 -1.5009
 3335SOL    HW210905   4.871   4.862   6.892  0.2543  1.5420 -0.9698
 3336SOL     OW10906   0.225   3.756   3.409 -0.0203 -0.4103  0.1399
 3336SOL    HW110907   0.160   3.756   3.485  0.4030 -0.8764  0.5009
 3336SOL    HW210908   0.288   3.679   3.418  0.0986 -0.4138 -0.6274
 3337SOL     OW10909   2.677   4.126   0.201 -0.1389  0.2418 -0.0448
 3337SOL    HW110910   2.664   4.027   0.205  0.5375  0.1491 -0.0535
 3337SOL    HW210911   2.609   4.171   0.259  1.2046 -0.3766  2.1532
 3338SOL     OW10912   0.429   6.189   6.232 -0.7078  0.4858 -0.4592
 3338SOL    HW110913   0.378   6.105   6.215 -1.1791  0.1933  2.0040
 3338SOL    HW210914   0.383   6.242   6.304  1.2683  1.2778  0.2901
 3339SOL     OW10915   5.166   0.961   0.654 -0.3477 -0.8121  0.1298
 3339SOL    HW110916   5.208   0.890   0.598 -0.8284 -0.0534 -1.2460
 3339SOL    HW210917   5.067   0.950   0.653 -0.3581 -0.8103  0.8694
 3340SOL     OW10918   4.607   2.675   4.676 -0.2879 -0.3812  0.0059
 3340SOL    HW110919   4.549   2.612   4.625 -2.0145  0.2017  1.1753
 3340SOL    HW210920   4.577   2.679   4.771  0.1168  1.7818  0.0946
 3341SOL     OW10921   1.870   5.453   4.429  0.9929 -0.1521  0.4777
 3341SOL    HW110922   1.848   5.383   4.497  1.0160 -1.3563 -0.7193
 3341SOL    HW210923   1.803   5.452   4.356  0.9123  1.2036  0.5011
 3342SOL     OW10924   6.685   0.685   5.240  0.2648  0.2579 -0.1120
 3342SOL    HW110925   6.762   0.695   5.302  0.6005 -1.2082 -0.2406
 3342SOL    HW210926   6.618   0.757   5.257  1.2348  1.0019  0.6277
 3343SOL     OW10927   5.221   5.060   4.434  0.4948  0.3048 -0.5152
 3343SOL    HW110928   5.248   5.153   4.457  0.6667  0.2143 -0.3478
 3343SOL    HW210929   5.183   5.015   4.515  3.0801 -0.7367  0.2264
 3344SOL     OW10930   0.114   2.798   5.282  0.4544  0.5667 -0.2506
 3344SOL    HW110931   0.098   2.897   5.279  0.2141  0.5144 -1.2580
 3344SOL    HW210932   0.182   2.774   5.213 -0.2974 -0.1034 -0.7790
 3345SOL     OW10933   1.966   6.498   2.584 -0.5729 -0.4762  0.2018
 3345SOL    HW110934   1.915   6.411   2.581  0.6069 -1.1589 -0.6437
 3345SOL    HW210935   1.958   6.544   2.496  0.6799 -0.8524 -0.1315
 3346SOL     OW10936   1.215   7.007   0.879  0.1636  0.5042  0.5071
 3346SOL    HW110937   1.197   7.095   0.923 -0.7214  0.9921 -0.7949
 3346SOL    HW210938   1.292   7.017   0.816  2.0025 -0.4035  2.4819
 3347SOL     OW10939   6.515   2.136   4.805  0.4506  0.3250  0.5287
 3347SOL    HW110940   6.528   2.197   4.884  1.0870  0.9036 -0.0102
 3347SOL    HW210941   6.430   2.084   4.817  0.8455 -0.0594  1.8945
 3348SOL     OW10942   0.485   5.061   1.619 -0.2628  0.2615  0.0241
 3348SOL    HW110943   0.545   4.983   1.602  0.8042  1.2465 -0.8887
 3348SOL    HW210944   0.449   5.057   1.712  1.3823 -0.2553  0.6526
 3349SOL     OW10945   0.186   2.104   2.848  0.5436 -0.3596  0.1256
 3349SOL    HW110946   0.261   2.151   2.894  0.3423  0.1236 -0.0297
 3349SOL    HW210947   0.177   2.139   2.755  0.3356 -0.6492  0.0354
 3350SOL     OW10948   2.105   0.460   6.850  0.0541 -0.3379  0.3536
 3350SOL    HW110949   2.071   0.548   6.883 -0.2183 -0.2185 -0.2333
 3350SOL    HW210950   2.188   0.474   6.796  0.5659 -0.5442  1.0652
 3351SOL     OW10951   4.462   5.549   0.533 -0.5511  0.0016 -0.2575
 3351SOL    HW110952   4.384   5.486   0.536 -0.2577 -0.3203  0.9602
 3351SOL    HW210953   4.488   5.564   0.438  0.8459 -3.6080 -0.6293
 3352SOL     OW10954   6.059   2.837   3.991  0.0260 -0.0794 -0.0875
 3352SOL    HW110955   6.073   2.785   3.906 -1.4379  1.9050 -1.6555
 3352SOL    HW210956   6.119   2.917   3.990  1.1575 -0.8450  1.5816
 3353SOL     OW10957   6.202   1.752   6.913 -0.2750 -0.1611 -0.2664
 3353SOL    HW110958   6.141   1.785   6.841  0.6907  0.4268 -0.8374
 3353SOL    HW210959   6.289   1.802   6.908  0.6674 -1.7288 -0.1713
 3354SOL     OW10960   5.978   1.382   0.614  0.0014 -0.7831  0.1993
 3354SOL    HW110961   5.889   1.337   0.625  0.0497 -1.1770 -0.9036
 3354SOL    HW210962   6.051   1.317   0.633  0.0680 -1.0876 -1.0434
 3355SOL     OW10963   1.843   1.011   3.663 -0.4150 -0.1221 -0.0029
 3355SOL    HW110964   1.886   1.051   3.743  0.5763  0.0270 -0.5935
 3355SOL    HW210965   1.852   0.912   3.666 -1.0687 -0.1757  0.4451
 3356SOL     OW10966   1.698   1.044   5.513  0.1655  0.4802  0.5623
 3356SOL    HW110967   1.768   1.057   5.583 -0.0338 -1.3303  1.1446
 3356SOL    HW210968   1.743   1.034   5.424  0.6211 -0.0821  0.8468
 3357SOL     OW10969   6.825   2.469   3.235 -0.1911  0.3796 -0.5846
 3357SOL    HW110970   6.919   2.469   3.267 -1.3540 -0.5225  3.3881
 3357SOL    HW210971   6.793   2.563   3.226  0.7506  0.6783 -0.9496
 3358SOL     OW10972   0.956   0.277   3.923  0.0512 -0.1612  0.6000
 3358SOL    HW110973   0.893   0.275   4.001 -0.7858 -0.1891 -0.0671
 3358SOL    HW210974   0.977   0.371   3.900 -0.9964 -0.1023 -0.1593
 3359SOL     OW10975   5.972   0.371   2.321  0.0797  0.1819 -0.0933
 3359SOL    HW110976   5.996   0.303   2.391  0.5534 -0.8359 -1.2180
 3359SOL    HW210977   5.914   0.329   2.252  1.7330  0.4416 -1.7022
 3360SOL     OW10978   6.730   0.844   0.978  0.2599  0.0276  0.3685
 3360SOL    HW110979   6.797   0.780   1.015 -0.6908 -0.7475  0.7966
 3360SOL    HW210980   6.656   0.793   0.934  0.3288  0.8845 -0.7946
 3361SOL     OW10981   2.899   6.335   5.052  0.0910 -0.0127 -0.1462
 3361SOL    HW110982   2.980   6.355   5.106 -0.7677  0.8181  0.9005
 3361SOL    HW210983   2.838   6.415   5.052 -2.4495 -1.7408  2.2626
 3362SOL     OW10984   3.638   0.530   3.524 -0.0303  0.4564 -0.3367
 3362SOL    HW110985   3.545   0.516   3.490 -0.9438  0.1112  2.0826
 3362SOL    HW210986   3.678   0.610   3.480 -1.7264  1.0092 -0.9472
 3363SOL     OW10987   1.594   3.033   4.258  0.2387 -0.6246 -0.3572
 3363SOL    HW110988   1.664   3.098   4.289 -0.7269  0.8344 -1.0748
 3363SOL    HW210989   1.532   3.012   4.333 -1.6043  2.2388 -0.9016
 3364SOL     OW10990   4.069   5.443   5.032  0.1690 -0.4868  0.3649
 3364SOL    HW110991   4.113   5.516   4.980  1.2590 -0.8746  0.7168
 3364SOL    HW210992   4.011   5.483   5.104 -1.1470  0.0444 -0.9375
 3365SOL     OW10993   6.066   2.650   1.060 -0.1826 -0.6117  0.5691
 3365SOL    HW110994   5.986   2.617   1.009 -0.5390  0.0806  0.6699
 3365SOL    HW210995   6.068   2.749   1.057  2.1653 -0.6434 -1.7121
 3366SOL     OW10996   5.065   3.566   2.945  0.1028  0.7197  0.1339
 3366SOL    HW110997   5.140   3.595   2.885  1.3624 -1.8200  0.3192
 3366SOL    HW210998   5.022   3.484   2.908 -0.5554  0.3689  1.5844
 3367SOL     OW10999   0.941   0.980   0.092 -0.0754 -0.1419 -0.0384
 3367SOL    HW111000   0.874   1.054   0.104  0.2719  0.1107  0.3861
 3367SOL    HW211001   0.921   0.908   0.158 -0.5014 -0.4970 -0.5490
 3368SOL     OW11002   1.594   5.197   3.870 -0.1008  0.0180  0.0676
 3368SOL    HW111003   1.685   5.157   3.857 -0.1840 -0.4611  0.9092
 3368SOL    HW211004   1.602   5.279   3.926 -0.2230 -0.1736  0.3628
 3369SOL     OW11005   6.898   5.761   4.444 -0.1813 -0.5421 -0.5863
 3369SOL    HW111006   6.949   5.681   4.413 -0.6053 -0.4842 -1.4696
 3369SOL    HW211007   6.947   5.844   4.419  0.2925 -0.5138  0.3917
 3370SOL     OW11008   6.407   6.404   0.541  0.1451 -0.1628  0.2722
 3370SOL    HW111009   6.327   6.397   0.600 -0.7738  1.9372 -0.6659
 3370SOL    HW211010   6.488   6.423   0.597 -0.6546  1.4313  0.9257
 3371SOL     OW11011   6.517   6.038   6.441  0.2930 -0.2824 -0.4426
 3371SOL    HW111012   6.547   6.012   6.533  0.3304  2.5642  0.4555
 3371SOL    HW211013   6.429   6.086   6.447  0.5315  0.3641 -1.8021
 3372SOL     OW11014   3.625   2.253   0.922  0.3975 -0.1279 -0.6039
 3372SOL    HW111015   3.581   2.183   0.865 -1.5042 -0.4418  1.1364
 3372SOL    HW211016   3.697   2.210   0.977  0.9475 -0.1930 -1.3584
 3373SOL     OW11017   2.009   4.909   0.122 -0.1964  0.5817  0.5571
 3373SOL    HW111018   1.955   4.851   0.183  0.4055  0.2412  0.7783
 3373SOL    HW211019   2.050   4.983   0.175  0.0783  0.4624  0.5119
 3374SOL     OW11020   6.397   0.546   3.616  0.4323  0.1621  0.4324
 3374SOL    HW111021   6.313   0.571   3.568  1.3740  1.2962 -0.6911
 3374SOL    HW211022   6.457   0.626   3.623  1.8101 -0.8287  0.3995
 3375SOL     OW11023   5.187   3.653   2.700  0.1328  0.5017  0.4936
 3375SOL    HW111024   5.093   3.630   2.675  0.7060 -0.6443 -0.7605
 3375SOL    HW211025   5.194   3.750   2.719 -1.0474  0.8581 -0.7237
 3376SOL     OW11026   3.256   1.361   1.830  0.2831 -0.4483  0.2273
 3376SOL    HW111027   3.226   1.294   1.762  0.8278  1.4221 -2.0080
 3376SOL    HW211028   3.342   1.331   1.871  2.1266  0.0777 -2.8945
 3377SOL     OW11029   6.546   0.416   3.986 -0.2398 -0.5291 -0.7674
 3377SOL    HW111030   6.509   0.334   3.943 -0.9241  0.0249 -1.2678
 3377SOL    HW211031   6.574   0.481   3.915  0.8672 -0.5702 -0.3844
 3378SOL     OW11032   2.191   3.821   5.953 -0.5112 -0.3180 -0.6248
 3378SOL    HW111033   2.248   3.901   5.966 -0.6567 -0.2179 -0.5970
 3378SOL    HW211034   2.239   3.754   5.898 -0.6519  0.0689 -1.2233
 3379SOL     OW11035   5.449   0.957   3.622  0.8629 -0.6381 -0.1201
 3379SOL    HW111036   5.354   0.988   3.621  1.1933  0.4683  0.6695
 3379SOL    HW211037   5.453   0.861   3.596 -0.5490 -0.8880  0.4905
 3380SOL     OW11038   4.048   2.233   2.301 -0.2724 -0.4548 -0.3366
 3380SOL    HW111039   4.021   2.223   2.205  1.1066  1.4944 -1.0105
 3380SOL    HW211040   3.971   2.269   2.354 -0.5960 -0.0814 -1.0509
 3381SOL     OW11041   0.751   1.585   6.901  0.3563  0.6967 -0.3207
 3381SOL    HW111042   0.661   1.547   6.879  0.3103  0.3789  0.3823
 3381SOL    HW211043   0.747   1.629   6.991  1.7133 -2.3249  1.3802
 3382SOL     OW11044   2.308   3.616   5.469 -0.8228 -0.7018  0.2394
 3382SOL    HW111045   2.359   3.537   5.436 -0.8553 -0.5258 -0.2418
 3382SOL    HW211046   2.212   3.608   5.443 -0.4005  0.6659 -2.0607
 3383SOL     OW11047   6.362   1.347   4.023  0.7366 -0.1415 -0.7532
 3383SOL    HW111048   6.324   1.379   4.109  3.3448  2.2117 -0.3459
 3383SOL    HW211049   6.293   1.355   3.951 -1.2858 -1.5723  0.8921
 3384SOL     OW11050   0.641   3.756   5.259 -0.1967  0.2646  0.6001
 3384SOL    HW111051   0.714   3.701   5.218 -1.6469 -0.6419 -0.9412
 3384SOL    HW211052   0.640   3.847   5.217  0.1612  0.3435  0.7623
 3385SOL     OW11053   3.496   4.802   1.598 -0.4645 -0.2807  0.2383
 3385SOL    HW111054   3.399   4.826   1.594 -0.5043 -0.4640  0.1351
 3385SOL    HW211055   3.510   4.731   1.667 -0.3491  0.0214  0.5264
 3386SOL     OW11056   1.635   2.490   6.352  0.0827  0.2489 -0.0970
 3386SOL    HW111057   1.539   2.467   6.369 -0.3012  2.2118  0.7226
 3386SOL    HW211058   1.639   2.568   6.289  1.0476  1.3745  1.3099
 3387SOL     OW11059   3.770   3.891   4.480  0.5326 -0.2015  0.3461
 3387SOL    HW111060   3.702   3.820   4.463  1.1098 -1.1204  1.6699
 3387SOL    HW211061   3.854   3.871   4.430  0.6637 -0.3983  0.6455
 3388SOL     OW11062   2.232   3.073   0.943  0.1428 -0.6649  0.0020
 3388SOL    HW111063   2.222   2.998   0.877  0.0221  0.6364 -1.5106
 3388SOL    HW211064   2.237   3.035   1.036  0.8787 -2.5920 -0.7705
 3389SOL     OW11065   7.010   3.645   6.595 -0.4087 -0.0559  0.4815
 3389SOL    HW111066   7.024   3.546   6.593  2.3727  0.2660  0.3823
 3389SOL    HW211067   7.031   3.680   6.687  1.3323  0.7215 -0.1680
 3390SOL     OW11068   6.310   4.919   0.878 -0.3504 -0.0545 -0.2792
 3390SOL    HW111069   6.231   4.880   0.829 -0.1257 -0.7390 -0.1135
 3390SOL    HW211070   6.368   4.845   0.911 -1.3003  0.3031  2.4021
 3391SOL     OW11071   5.758   0.333   6.779  0.0984  0.1328  0.3113
 3391SOL    HW111072   5.755   0.237   6.753  0.6944  0.5462 -1.4162
 3391SOL    HW211073   5.826   0.346   6.851 -0.2867 -0.7824  0.8576
 3392SOL     OW11074   4.982   5.896   3.679 -0.3726 -0.2719 -0.2561
 3392SOL    HW111075   4.977   5.995   3.693 -0.0639 -0.4136  0.9859
 3392SOL    HW211076   5.008   5.877   3.585  0.2758  0.8484 -0.3227
 3393SOL     OW11077   2.748   2.372   1.290  0.6032 -0.2454 -0.3808
 3393SOL    HW111078   2.822   2.307   1.270  0.2003 -0.6397 -0.5991
 3393SOL    HW211079   2.708   2.351   1.379  0.9556  0.1617 -0.1229
 3394SOL     OW11080   4.917   2.074   3.080 -0.0581 -0.0280  0.5994
 3394SOL    HW111081   4.862   2.039   3.004  0.8189  1.4164 -0.7290
 3394SOL    HW211082   4.976   2.001   3.114  1.2729 -0.1120 -1.6951
 3395SOL     OW11083   0.276   0.108   5.272  0.0813  0.7285 -0.2800
 3395SOL    HW111084   0.300   0.203   5.290  0.3325  0.8436 -1.1550
 3395SOL    HW211085   0.233   0.101   5.182 -1.7920  0.3037  0.5898
 3396SOL     OW11086   3.638   1.631   4.372  1.2491 -0.0531  0.0281
 3396SOL    HW111087   3.671   1.539   4.394  4.2990  0.6593 -1.0186
 3396SOL    HW211088   3.632   1.685   4.456  1.8268 -0.5185  0.3796
 3397SOL     OW11089   3.127   4.038   1.938 -0.0726 -0.1224 -0.7562
 3397SOL    HW111090   3.076   3.955   1.912 -3.1555  1.1125  0.7695
 3397SOL    HW211091   3.078   4.119   1.906  2.3679  1.2028 -1.3832
 3398SOL     OW11092   4.794   2.038   0.994 -0.4201  0.1576 -0.1743
 3398SOL    HW111093   4.851   2.118   1.014 -2.6735  1.7184  0.3348
 3398SOL    HW211094   4.779   1.986   1.077 -0.5675  0.3241 -0.0960
 3399SOL     OW11095   0.301   6.901   0.479 -0.2074  0.0903 -0.6101
 3399SOL    HW111096   0.221   6.930   0.426 -1.0097 -0.3236  0.3390
 3399SOL    HW211097   0.363   6.979   0.490 -1.3186  0.9120  0.1095
 3400SOL     OW11098   1.959   0.808   3.390 -0.6327 -0.2205  0.2873
 3400SOL    HW111099   2.051   0.786   3.423 -0.7484  0.8217  1.3581
 3400SOL    HW211100   1.959   0.900   3.352 -0.5150 -1.3506 -2.7225
 3401SOL     OW11101   0.198   2.236   2.352  0.1603 -0.3099  0.2075
 3401SOL    HW111102   0.271   2.219   2.418  1.5665 -2.5996 -1.7784
 3401SOL    HW211103   0.229   2.301   2.283 -0.4901  0.3723  0.5501
 3402SOL     OW11104   6.278   1.780   1.957  0.8234 -0.1130 -0.2248
 3402SOL    HW111105   6.263   1.877   1.939  2.3687 -0.0512 -1.4081
 3402SOL    HW211106   6.338   1.770   2.037  1.5416 -0.0500 -0.7532
 3403SOL     OW11107   0.197   4.947   4.188  0.1108  0.2228  0.1664
 3403SOL    HW111108   0.265   4.892   4.139 -0.5979 -1.1731  0.7141
 3403SOL    HW211109   0.212   5.044   4.167  2.0763 -0.0622  0.0464
 3404SOL     OW11110   4.398   2.019   5.747  0.7903  0.2504 -0.0879
 3404SOL    HW111111   4.476   2.078   5.763  0.7016 -0.2471  2.5301
 3404SOL    HW211112   4.424   1.924   5.765 -0.4053  0.0858  0.9147
 3405SOL     OW11113   4.797   1.016   1.994  0.1072 -0.6008  0.5860
 3405SOL    HW111114   4.870   1.022   2.062  0.9353  2.4649 -0.3719
 3405SOL    HW211115   4.835   0.984   1.907 -0.0499 -0.6625  0.5399
 3406SOL     OW11116   2.983   1.070   5.959 -0.3415 -0.4019 -0.1122
 3406SOL    HW111117   3.014   0.975   5.959  1.3726  0.1064  0.8466
 3406SOL    HW211118   3.062   1.131   5.946 -1.1771  0.9444  0.8807
 3407SOL     OW11119   5.796   4.512   2.703 -0.0132  0.1872  0.4370
 3407SOL    HW111120   5.849   4.458   2.638  0.1635  0.3022  0.4850
 3407SOL    HW211121   5.818   4.609   2.692 -1.3356  0.3993 -0.5828
 3408SOL     OW11122   5.977   1.098   3.429  0.3204  0.2257 -0.8149
 3408SOL    HW111123   5.883   1.070   3.446  0.3868  0.9435  0.9757
 3408SOL    HW211124   6.038   1.046   3.488  0.6697  2.3051  0.7607
 3409SOL     OW11125   1.473   6.957   1.700 -0.2155 -0.5392 -0.3646
 3409SOL    HW111126   1.484   6.870   1.748 -0.2271  0.0826  0.7745
 3409SOL    HW211127   1.456   6.938   1.603 -1.5145 -1.8478  0.0746
 3410SOL     OW11128   2.477   3.933   0.183  0.3571  0.3388 -0.1002
 3410SOL    HW111129   2.416   3.856   0.199  0.9670  0.0859  1.0828
 3410SOL    HW211130   2.495   3.941   0.085 -1.6692  0.5108 -0.5135
 3411SOL     OW11131   0.147   2.270   0.313 -0.4202  0.1818 -0.2053
 3411SOL    HW111132   0.217   2.240   0.378 -0.7221 -1.1285 -0.4674
 3411SOL    HW211133   0.104   2.191   0.271 -0.1042  1.0058 -2.1838
 3412SOL     OW11134   4.468   3.335   1.312 -0.2461  0.3259 -0.3976
 3412SOL    HW111135   4.516   3.422   1.307 -0.4478  0.4550 -0.1368
 3412SOL    HW211136   4.498   3.276   1.238 -0.2514  0.6906 -0.6921
 3413SOL     OW11137   2.393   6.654   2.659 -0.2138 -0.4193  0.0740
 3413SOL    HW111138   2.418   6.698   2.573 -0.0375  1.6590  1.1331
 3413SOL    HW211139   2.359   6.723   2.724  1.1636 -1.6613  2.2404
 3414SOL     OW11140   0.438   6.237   0.269 -0.4758 -0.8740  0.1481
 3414SOL    HW111141   0.356   6.294   0.272 -1.0947 -1.7497  0.3576
 3414SOL    HW211142   0.443   6.181   0.352 -0.3111 -1.6915 -0.4006
 3415SOL     OW11143   6.850   3.498   5.044  0.0341 -0.0477  0.4098
 3415SOL    HW111144   6.881   3.590   5.019 -1.5705  0.6298  0.7727
 3415SOL    HW211145   6.929   3.441   5.066  1.1582  0.7872 -1.3012
 3416SOL     OW11146   3.597   6.838   2.266 -0.1811  0.0437 -0.0061
 3416SOL    HW111147   3.654   6.758   2.289 -0.6003 -0.5170 -0.8919
 3416SOL    HW211148   3.588   6.846   2.167  1.7292  2.5356 -0.0708
 3417SOL     OW11149   6.291   0.317   3.859  0.1558  0.4746 -0.0054
 3417SOL    HW111150   6.291   0.225   3.819  2.8149  0.3988 -0.0002
 3417SOL    HW211151   6.205   0.332   3.907 -0.0993 -2.2685  0.5538
 3418SOL     OW11152   3.444   5.351   6.144 -0.0034 -0.1137 -0.5286
 3418SOL    HW111153   3.487   5.261   6.140  1.0943  0.2791  1.0715
 3418SOL    HW211154   3.367   5.348   6.208  0.6155  0.2772  0.2514
 3419SOL     OW11155   2.314   4.799   2.006 -0.2613  0.2553  0.2498
 3419SOL    HW111156   2.357   4.725   2.058 -0.5666 -0.5204 -0.5664
 3419SOL    HW211157   2.225   4.768   1.972  0.9909 -0.2654 -2.9202
 3420SOL     OW11158   2.391   2.843   0.625 -0.1539 -0.0612 -0.1043
 3420SOL    HW111159   2.481   2.871   0.658  0.5300 -1.5212 -0.6067
 3420SOL    HW211160   2.401   2.760   0.570 -1.7928 -0.1263 -0.3446
 3421SOL     OW11161   0.644   5.354   5.318 -0.1056  0.2882  0.6588
 3421SOL    HW111162   0.730   5.406   5.321 -0.0383  0.2243 -0.0032
 3421SOL    HW211163   0.658   5.265   5.361  0.3649 -0.0026 -0.0824
 3422SOL     OW11164   5.067   3.273   2.749 -0.1295  0.2016 -0.4837
 3422SOL    HW111165   4.999   3.278   2.821 -1.0009  1.0290 -1.3261
 3422SOL    HW211166   5.158   3.280   2.788 -0.4115 -2.3384  0.8177
 3423SOL     OW11167   2.897   6.061   3.346  0.1255 -0.0064 -0.4242
 3423SOL    HW111168   2.979   6.009   3.368  0.1736 -0.2807 -1.2015
 3423SOL    HW211169   2.898   6.148   3.395  2.3436  1.3202 -2.5684
 3424SOL     OW11170   5.475   1.827   2.036  0.2171 -0.1392 -0.0091
 3424SOL    HW111171   5.568   1.794   2.021  1.1026  2.3261 -0.4069
 3424SOL    HW211172   5.424   1.821   1.950  0.8558  0.8869 -0.4828
 3425SOL     OW11173   6.321   4.004   1.593 -0.3600 -0.1391 -0.5037
 3425SOL    HW111174   6.344   4.015   1.689 -0.6744  1.6397 -0.6037
 3425SOL    HW211175   6.355   4.082   1.541 -1.8782 -0.1082 -1.5155
 3426SOL     OW11176   1.783   1.845   5.080  0.1293 -0.1408 -0.0612
 3426SOL    HW111177   1.815   1.933   5.044 -0.8450  0.9362  1.5914
 3426SOL    HW211178   1.860   1.781   5.085  0.6800  0.2759 -2.1200
 3427SOL     OW11179   5.167   3.011   0.684 -0.6394  0.0481 -0.4566
 3427SOL    HW111180   5.149   3.047   0.776 -1.9920 -0.4216 -0.5104
 3427SOL    HW211181   5.157   3.084   0.617 -0.3268  0.2416 -0.2957
 3428SOL     OW11182   5.214   1.953   0.976 -0.8704 -0.0548 -0.4449
 3428SOL    HW111183   5.263   1.948   0.889 -0.6739 -0.2770 -0.3235
 3428SOL    HW211184   5.121   1.920   0.964 -0.8848  0.0438 -0.6017
 3429SOL     OW11185   1.365   1.829   5.076  0.1214  0.7664  1.1583
 3429SOL    HW111186   1.351   1.900   5.007 -0.4639  1.0712  1.5814
 3429SOL    HW211187   1.291   1.833   5.142 -0.1995 -0.5857  0.8961
 3430SOL     OW11188   4.901   1.546   2.313 -0.4237 -0.2199 -0.8379
 3430SOL    HW111189   4.872   1.485   2.387  0.4418  0.9791  0.5542
 3430SOL    HW211190   4.840   1.625   2.310  0.5576  0.5929 -0.2112
 3431SOL     OW11191   6.912   3.833   1.583  0.1062 -0.1467  0.1979
 3431SOL    HW111192   6.899   3.760   1.516  1.1500 -0.5266  0.3881
 3431SOL    HW211193   6.990   3.890   1.555  0.6166 -0.3648  1.1284
 3432SOL     OW11194   2.852   5.256   6.841 -0.3239 -0.3057  0.1376
 3432SOL    HW111195   2.885   5.349   6.825  0.6622 -0.7274 -0.3707
 3432SOL    HW211196   2.752   5.253   6.830 -0.2046  0.4040 -1.2663
 3433SOL     OW11197   0.711   5.253   0.295 -0.0495 -0.5917  0.1084
 3433SOL    HW111198   0.670   5.195   0.225  0.5125  1.5039 -2.0764
 3433SOL    HW211199   0.753   5.196   0.365 -0.0078 -2.7911 -1.6149
 3434SOL     OW11200   6.996   5.152   5.556  0.2381 -0.3020  0.3028
 3434SOL    HW111201   6.970   5.142   5.460 -1.2037  0.6061  0.5854
 3434SOL    HW211202   7.041   5.240   5.569 -1.9680  0.7904  0.9272
 3435SOL     OW11203   0.527   3.776   6.192 -0.2314  0.5068 -0.1437
 3435SOL    HW111204   0.541   3.818   6.103 -1.4061 -0.3986 -0.7777
 3435SOL    HW211205   0.458   3.704   6.185 -1.1184  1.1063  1.7019
 3436SOL     OW11206   1.733   4.432   5.286 -0.6574  0.4568  0.2150
 3436SOL    HW111207   1.721   4.363   5.358  0.6828 -1.6606 -1.4597
 3436SOL    HW211208   1.656   4.427   5.222 -0.1861 -0.0509 -0.3246
 3437SOL     OW11209   3.615   3.265   1.554 -0.4277 -0.0993  0.3643
 3437SOL    HW111210   3.665   3.281   1.639 -0.1480 -0.5369  0.2859
 3437SOL    HW211211   3.606   3.167   1.538  0.1794 -0.0321 -0.4859
 3438SOL     OW11212   6.686   3.402   1.617  0.4633 -0.0879 -0.0999
 3438SOL    HW111213   6.768   3.345   1.610  0.5314  0.0652 -0.5685
 3438SOL    HW211214   6.670   3.426   1.713  0.7603 -0.4181  0.0332
 3439SOL     OW11215   1.683   1.282   2.139 -0.1845 -0.3200  0.5615
 3439SOL    HW111216   1.603   1.222   2.141  0.5519 -1.4128 -0.8741
 3439SOL    HW211217   1.729   1.273   2.051  1.8121 -0.1001  1.5284
 3440SOL     OW11218   4.918   3.390   4.903  1.1836  0.3519 -0.6286
 3440SOL    HW111219   4.874   3.472   4.940 -0.5394  0.0894 -2.0191
 3440SOL    HW211220   4.897   3.312   4.962 -2.9073 -0.3967 -2.7265
 3441SOL     OW11221   1.748   3.319   3.950 -0.4309  0.2643 -0.1484
 3441SOL    HW111222   1.674   3.298   4.014 -1.8163 -1.3018 -2.1353
 3441SOL    HW211223   1.836   3.298   3.993 -1.2518  0.2583  1.5861
 3442SOL     OW11224   1.690   1.729   4.234 -0.2764  0.3106 -0.2889
 3442SOL    HW111225   1.790   1.730   4.242 -0.3073 -0.3237  0.2883
 3442SOL    HW211226   1.665   1.704   4.141  0.0934  1.9802 -0.8792
 3443SOL     OW11227   6.245   4.085   2.347  0.0410  0.0636  0.0228
 3443SOL    HW111228   6.331   4.035   2.332 -0.0948 -0.0231 -0.4949
 3443SOL    HW211229   6.168   4.025   2.325 -0.2187 -0.4034  2.0454
 3444SOL     OW11230   6.638   3.884   5.976 -0.6671  0.0567  0.6244
 3444SOL    HW111231   6.709   3.814   5.970 -2.0190 -1.3094 -0.3933
 3444SOL    HW211232   6.674   3.971   5.942  0.8454 -0.2864  1.2624
 3445SOL     OW11233   6.325   4.892   2.659  0.3178 -0.1046  0.3066
 3445SOL    HW111234   6.423   4.877   2.671  0.5195  0.4584 -0.5968
 3445SOL    HW211235   6.287   4.819   2.602  0.3902  0.1934 -0.1229
 3446SOL     OW11236   5.831   6.537   1.295 -0.1645 -0.0203  0.4253
 3446SOL    HW111237   5.899   6.586   1.349  2.0682 -1.2532 -1.1143
 3446SOL    HW211238   5.766   6.491   1.356  1.4261 -0.2371  2.0263
 3447SOL     OW11239   6.148   1.403   2.874 -0.0494  0.0732  0.3201
 3447SOL    HW111240   6.181   1.466   2.805 -0.3073  0.6468  0.7176
 3447SOL    HW211241   6.152   1.309   2.838 -0.1988  0.3637 -0.4690
 3448SOL     OW11242   1.873   2.894   5.886 -0.4018 -0.4137  0.2136
 3448SOL    HW111243   1.785   2.927   5.852 -0.4078  0.3804  0.9585
 3448SOL    HW211244   1.866   2.798   5.910 -0.7252 -0.6777 -0.8677
 3449SOL     OW11245   0.241   0.496   0.838 -0.0986 -0.0310  0.2961
 3449SOL    HW111246   0.174   0.437   0.884 -0.9073  0.6202 -0.0097
 3449SOL    HW211247   0.192   0.565   0.784  0.8300 -0.3301 -0.9634
 3450SOL     OW11248   0.667   5.650   1.653  0.1714  0.5223  0.3309
 3450SOL    HW111249   0.609   5.691   1.723  2.1118  0.5620  1.9772
 3450SOL    HW211250   0.674   5.552   1.669 -0.7126  0.2354 -0.8562
 3451SOL     OW11251   0.216   5.615   1.117  0.1498  0.1866 -0.1482
 3451SOL    HW111252   0.169   5.532   1.088 -0.7261 -0.0688  1.7844
 3451SOL    HW211253   0.302   5.625   1.068  0.1816 -1.7575 -0.5457
 3452SOL     OW11254   0.871   3.005   5.711  0.4054  0.2939  0.0638
 3452SOL    HW111255   0.809   3.077   5.682 -1.6952  0.2809  3.9277
 3452SOL    HW211256   0.957   3.045   5.743  0.3623  0.7878 -0.4370
 3453SOL     OW11257   5.499   6.799   3.013  0.2572 -0.2190  0.4754
 3453SOL    HW111258   5.552   6.884   3.026 -0.0257  0.3566 -1.6503
 3453SOL    HW211259   5.481   6.757   3.102  3.9140 -0.2380  1.3744
 3454SOL     OW11260   0.060   2.660   4.995  0.1676  0.0282 -0.2453
 3454SOL    HW111261   0.088   2.656   4.899  2.3157  0.8511  0.2944
 3454SOL    HW211262   0.052   2.755   5.023 -1.8294 -0.1824  0.0736
 3455SOL     OW11263   0.796   6.445   3.169 -0.8565 -0.1659 -0.7127
 3455SOL    HW111264   0.867   6.376   3.180  0.0742  0.9996  1.0375
 3455SOL    HW211265   0.838   6.529   3.133 -1.2985  0.5654  0.4328
 3456SOL     OW11266   1.756   6.293   2.249  0.0663  0.2356 -0.0826
 3456SOL    HW111267   1.707   6.380   2.239 -0.5743 -0.2455 -1.4129
 3456SOL    HW211268   1.709   6.222   2.196  1.1410 -0.6916  0.1660
 3457SOL     OW11269   1.055   5.790   1.369 -0.0573 -0.1603 -0.1508
 3457SOL    HW111270   0.978   5.813   1.310  0.7317 -0.5401 -1.3708
 3457SOL    HW211271   1.091   5.700   1.344 -0.8330 -1.2022  2.1456
 3458SOL     OW11272   4.488   3.458   0.983 -0.1016  0.3369  0.2357
 3458SOL    HW111273   4.532   3.546   1.002  1.0561 -0.6367  2.5567
 3458SOL    HW211274   4.400   3.454   1.030 -0.9032  0.8208 -1.1881
 3459SOL     OW11275   6.708   1.757   2.448 -0.0915  0.0339  0.0610
 3459SOL    HW111276   6.761   1.733   2.529  2.1903 -0.6549 -1.5451
 3459SOL    HW211277   6.683   1.854   2.452  0.5904  0.1790  1.2485
 3460SOL     OW11278   6.309   5.615   1.816  0.5679  0.0083  0.0338
 3460SOL    HW111279   6.372   5.600   1.892 -0.4676 -2.1235  0.5230
 3460SOL    HW211280   6.226   5.561   1.830 -0.5290  1.1820 -1.6067
 3461SOL     OW11281   5.166   6.416   6.303 -0.2852 -0.1443 -0.0533
 3461SOL    HW111282   5.214   6.488   6.352  0.6478 -0.8016  0.0317
 3461SOL    HW211283   5.200   6.327   6.334 -0.0469 -0.5828 -1.5164
 3462SOL     OW11284   1.180   0.763   4.159 -0.2469  0.1048  0.6567
 3462SOL    HW111285   1.259   0.702   4.170  0.5217  0.8134 -0.6245
 3462SOL    HW211286   1.198   0.827   4.084 -1.9183  0.5043  0.5620
 3463SOL     OW11287   5.628   2.640   0.009  0.1414  0.0665 -0.1720
 3463SOL    HW111288   5.673   2.710   0.065 -1.0632 -0.1570  1.1332
 3463SOL    HW211289   5.593   2.682  -0.075  0.4703  0.7710  0.0371
 3464SOL     OW11290   5.942   6.054   6.550  0.1021 -0.0501 -0.4015
 3464SOL    HW111291   5.966   6.148   6.576  3.5738 -1.0333  0.5626
 3464SOL    HW211292   6.011   5.991   6.587 -1.9444 -2.9959 -1.2326
 3465SOL     OW11293   1.264   5.730   2.782 -0.1739 -0.2404  0.3815
 3465SOL    HW111294   1.308   5.790   2.714 -0.6385 -0.4973 -0.1545
 3465SOL    HW211295   1.215   5.786   2.848 -0.4429 -0.0150 -0.0042
 3466SOL     OW11296   5.086   0.688   0.825 -0.1561 -0.6423  0.2995
 3466SOL    HW111297   5.013   0.754   0.809 -0.1998 -0.7454  0.0715
 3466SOL    HW211298   5.153   0.693   0.750 -1.3439 -2.4651 -0.9857
 3467SOL     OW11299   5.383   2.921   4.496  0.1292 -0.1877  0.1364
 3467SOL    HW111300   5.357   2.971   4.413 -0.8010 -0.1096  0.4562
 3467SOL    HW211301   5.482   2.925   4.508  0.0005  2.9414  1.0003
 3468SOL     OW11302   4.875   2.326   1.138  0.3946  0.3801 -0.3074
 3468SOL    HW111303   4.964   2.368   1.119  0.2899  0.7638  0.0419
 3468SOL    HW211304   4.802   2.386   1.106  0.2165  1.0328  1.2767
 3469SOL     OW11305   0.191   0.284   3.367 -0.1160 -0.6048  0.0228
 3469SOL    HW111306   0.232   0.272   3.457 -0.3533 -1.1225  0.0672
 3469SOL    HW211307   0.149   0.374   3.361  0.1536 -0.4551  0.3242
 3470SOL     OW11308   5.345   1.519   3.326  0.2859  0.2358 -0.0025
 3470SOL    HW111309   5.318   1.505   3.231  0.0912  1.5096 -0.1487
 3470SOL    HW211310   5.425   1.580   3.329  1.3090 -1.0646  0.5833
 3471SOL     OW11311   3.702   3.312   0.511 -0.2814  0.3997 -1.0259
 3471SOL    HW111312   3.763   3.283   0.586  1.3829 -0.2158 -2.5425
 3471SOL    HW211313   3.679   3.409   0.522  1.1416  0.6999 -0.4998
 3472SOL     OW11314   1.476   4.467   4.759  0.7060 -0.3571 -0.3436
 3472SOL    HW111315   1.465   4.399   4.686 -1.5742 -1.3404  0.8010
 3472SOL    HW211316   1.564   4.454   4.805  0.4604 -2.3710 -0.3547
 3473SOL     OW11317   6.356   6.052   3.565 -0.0363  0.3398 -0.1698
 3473SOL    HW111318   6.349   6.123   3.635 -1.3826 -1.1881  1.3401
 3473SOL    HW211319   6.446   6.057   3.522 -0.2501  3.1987 -0.4530
 3474SOL     OW11320   5.695   4.042   1.391 -0.0901  0.2575  0.0672
 3474SOL    HW111321   5.695   3.966   1.456 -0.2568  1.5456  1.6297
 3474SOL    HW211322   5.601   4.064   1.366 -0.0762  0.3094  0.0605
 3475SOL     OW11323   6.958   4.414   4.935 -0.0156 -0.5418 -0.2277
 3475SOL    HW111324   6.894   4.489   4.921  0.5132 -0.4751 -2.6730
 3475SOL    HW211325   6.994   4.382   4.847  2.6716 -1.1509  0.9580
 3476SOL     OW11326   2.783   4.782   3.204 -0.0860 -0.6897 -0.0981
 3476SOL    HW111327   2.702   4.833   3.176  0.4158  0.5333  0.6171
 3476SOL    HW211328   2.768   4.740   3.293  0.6219  0.9128  0.8030
 3477SOL     OW11329   6.181   3.664   4.203 -0.0195  0.8232  0.4432
 3477SOL    HW111330   6.144   3.691   4.292 -0.7337  0.9148  0.1236
 3477SOL    HW211331   6.132   3.713   4.131  0.8300  1.0624  0.0132
 3478SOL     OW11332   6.563   4.174   6.386 -0.0062 -0.2300 -0.1206
 3478SOL    HW111333   6.572   4.262   6.339  2.7436 -0.0859  0.5127
 3478SOL    HW211334   6.611   4.103   6.335 -0.2863 -0.8996  0.5172
 3479SOL     OW11335   1.442   5.151   6.189 -0.3276  0.1165 -0.1279
 3479SOL    HW111336   1.343   5.162   6.175 -0.3319 -0.3805 -0.5044
 3479SOL    HW211337   1.465   5.177   6.283 -0.3660  3.0971 -0.8187
 3480SOL     OW11338   6.905   3.297   6.602  0.1460  0.0501 -0.2676
 3480SOL    HW111339   6.831   3.328   6.661 -0.0449 -0.8500 -0.0175
 3480SOL    HW211340   6.992   3.304   6.652 -0.0036 -0.6243  0.1012
 3481SOL     OW11341   6.048   6.865   3.631  0.3527  0.5283  0.2653
 3481SOL    HW111342   6.110   6.829   3.562  0.6899  2.8263 -0.7078
 3481SOL    HW211343   6.097   6.877   3.718  0.3246 -0.8836  0.5084
 3482SOL     OW11344   6.827   0.531   0.210  0.2646  0.0382  0.0823
 3482SOL    HW111345   6.764   0.601   0.175  0.5859  1.9586  3.0136
 3482SOL    HW211346   6.778   0.444   0.218 -0.5010  0.1358 -2.4469
 3483SOL     OW11347   4.751   0.228   6.197 -0.6105 -0.4163  0.2750
 3483SOL    HW111348   4.754   0.309   6.256 -1.9729  2.1577 -2.8728
 3483SOL    HW211349   4.813   0.241   6.120 -2.1361 -1.5344 -1.2057
 3484SOL     OW11350   3.288   0.660   6.613  0.1417 -0.3739  0.3795
 3484SOL    HW111351   3.230   0.724   6.664 -1.2904 -2.4018  1.3939
 3484SOL    HW211352   3.379   0.656   6.656  0.8741  2.2089 -0.7348
 3485SOL     OW11353   5.228   4.523   0.024 -0.1377 -0.4779  0.1563
 3485SOL    HW111354   5.178   4.505   0.109 -0.9396 -1.0317 -0.4187
 3485SOL    HW211355   5.167   4.509  -0.054  0.9294 -1.2199 -0.5754
 3486SOL     OW11356   5.169   6.360   2.001 -0.0353  0.2452  0.2754
 3486SOL    HW111357   5.135   6.429   1.937 -0.3234 -0.1731 -0.0271
 3486SOL    HW211358   5.224   6.293   1.951  2.1063  1.4359  0.8793
 3487SOL     OW11359   5.610   3.438   3.618  0.5058 -0.0273 -0.4084
 3487SOL    HW111360   5.685   3.486   3.570 -0.3054  1.4190 -0.2921
 3487SOL    HW211361   5.630   3.434   3.716  1.1132 -0.9780 -0.5610
 3488SOL     OW11362   3.881   4.811   3.083 -0.4176  0.0260  0.2215
 3488SOL    HW111363   3.798   4.830   3.135  0.2070  0.3597  1.1347
 3488SOL    HW211364   3.960   4.851   3.131  0.4053 -1.2366 -0.0244
 3489SOL     OW11365   6.804   0.209   1.027 -0.4668 -0.0163  0.2303
 3489SOL    HW111366   6.718   0.166   1.053 -0.4245  0.8299  1.9497
 3489SOL    HW211367   6.828   0.184   0.934 -1.3452 -2.2003  0.5483
 3490SOL     OW11368   6.749   4.642   3.791 -0.7355 -0.1182 -0.3900
 3490SOL    HW111369   6.716   4.734   3.810  1.2746  0.3765  0.9505
 3490SOL    HW211370   6.724   4.581   3.867 -0.8702 -0.3752 -0.6363
 3491SOL     OW11371   6.518   6.523   3.858  0.1780  0.4814  0.0582
 3491SOL    HW111372   6.435   6.530   3.802 -1.9821 -0.0729  2.9025
 3491SOL    HW211373   6.536   6.611   3.902  2.3767  1.1662 -2.0401
 3492SOL     OW11374   6.986   5.658   2.703 -0.1959  0.1688  0.4900
 3492SOL    HW111375   7.078   5.688   2.726 -0.2774  1.4755 -0.7438
 3492SOL    HW211376   6.920   5.726   2.734 -0.7365 -0.6298  1.1214
 3493SOL     OW11377   0.076   3.066   4.469  0.1161 -0.7250  0.2178
 3493SOL    HW111378   0.151   3.117   4.511 -1.7443  0.6553  2.0789
 3493SOL    HW211379   0.076   3.081   4.371  1.0668  0.9094  0.4391
 3494SOL     OW11380   5.228   0.083   2.637  0.0935  0.1425 -0.0920
 3494SOL    HW111381   5.207   0.172   2.678 -0.5564  0.0086 -0.1299
 3494SOL    HW211382   5.209   0.010   2.704  0.2166  0.0046 -0.2060
 3495SOL     OW11383   3.061   2.417   1.105 -0.3050 -0.4812  0.1172
 3495SOL    HW111384   3.097   2.376   1.022 -0.2821 -0.4514  0.1129
 3495SOL    HW211385   3.039   2.344   1.171 -0.6835 -0.5290 -0.0595
 3496SOL     OW11386   4.257   0.536   4.642 -0.3364  0.3866  0.4816
 3496SOL    HW111387   4.300   0.575   4.560  0.5175 -0.1374  0.6608
 3496SOL    HW211388   4.201   0.457   4.615 -1.2212  1.0803  0.2449
 3497SOL     OW11389   1.403   0.027   6.289  0.0350 -0.4070  0.4157
 3497SOL    HW111390   1.354   0.090   6.350  0.4210 -0.9303  1.2901
 3497SOL    HW211391   1.499   0.023   6.316  0.2842 -0.4031 -0.4468
 3498SOL     OW11392   5.430   3.912   6.530 -0.0664 -0.2969 -0.2114
 3498SOL    HW111393   5.504   3.948   6.588  1.1992 -0.0337 -1.9032
 3498SOL    HW211394   5.343   3.952   6.559  0.2836 -1.2390  2.3630
 3499SOL     OW11395   0.773   4.233   0.774  0.5292  0.2149 -0.2813
 3499SOL    HW111396   0.751   4.136   0.785 -1.1212  0.7867  2.5695
 3499SOL    HW211397   0.688   4.287   0.777  1.4874  1.8134 -0.7519
 3500SOL     OW11398   2.373   2.776   4.595 -0.0330 -0.1527  0.3805
 3500SOL    HW111399   2.308   2.811   4.663 -2.2068 -2.0775 -0.6063
 3500SOL    HW211400   2.466   2.783   4.633 -0.8793  1.3542  2.4184
 3501SOL     OW11401   5.782   3.114   5.477  0.0875 -0.1009  0.0895
 3501SOL    HW111402   5.724   3.037   5.449 -0.6955  0.8021 -0.8784
 3501SOL    HW211403   5.836   3.145   5.399 -1.1844  1.6614 -0.1521
 3502SOL     OW11404   6.132   6.478   6.259 -0.3195  0.3088 -0.4097
 3502SOL    HW111405   6.209   6.415   6.247 -0.5407 -0.1548  0.4739
 3502SOL    HW211406   6.159   6.552   6.321  0.3917  1.9224 -2.5155
 3503SOL     OW11407   2.347   1.561   1.216  0.2607  0.7711 -0.4192
 3503SOL    HW111408   2.332   1.650   1.260 -0.1787  0.6469 -0.3159
 3503SOL    HW211409   2.265   1.505   1.224  0.8789 -0.0401  0.4002
 3504SOL     OW11410   5.770   1.784   3.512 -0.4502  0.0049 -0.0675
 3504SOL    HW111411   5.791   1.837   3.430 -0.1221 -0.4231 -0.2639
 3504SOL    HW211412   5.832   1.812   3.586 -2.3132  2.1475  0.8063
 3505SOL     OW11413   4.316   4.872   6.240 -0.4232 -0.5750  0.3797
 3505SOL    HW111414   4.410   4.873   6.206 -0.3328  2.4077  0.4646
 3505SOL    HW211415   4.302   4.950   6.301 -2.9363 -1.0354  0.4909
 3506SOL     OW11416   4.845   0.639   4.469  0.2191 -0.4812 -0.1663
 3506SOL    HW111417   4.877   0.601   4.556  0.3107 -1.0150 -0.4290
 3506SOL    HW211418   4.764   0.696   4.485  1.4009  1.0627  0.5356
 3507SOL     OW11419   0.573   3.261   0.359 -0.0196  0.6279 -0.7326
 3507SOL    HW111420   0.525   3.231   0.277 -2.0236  0.0018  0.5677
 3507SOL    HW211421   0.587   3.360   0.357 -0.1532  0.6281 -1.7517
 3508SOL     OW11422   1.255   5.989   4.312  0.4957 -0.0188  0.0487
 3508SOL    HW111423   1.326   5.963   4.377  1.2550 -1.0985 -1.1768
 3508SOL    HW211424   1.239   5.915   4.247 -0.2355  1.0177 -1.0108
 3509SOL     OW11425   4.966   0.591   4.727 -0.0862  0.2623  0.4865
 3509SOL    HW111426   5.032   0.536   4.778  0.1648  0.9369  0.9095
 3509SOL    HW211427   4.925   0.659   4.788 -1.3269 -0.2745  0.2823
 3510SOL     OW11428   3.540   2.445   5.373  0.5265  0.4752  0.7727
 3510SOL    HW111429   3.468   2.379   5.395 -0.3334  1.8750  2.3483
 3510SOL    HW211430   3.621   2.396   5.342 -0.5733 -1.2300  0.4418
 3511SOL     OW11431   0.344   5.848   0.165 -0.2317  0.0482 -0.2101
 3511SOL    HW111432   0.410   5.898   0.108  0.2403  0.7736  0.9261
 3511SOL    HW211433   0.259   5.899   0.170 -0.8530 -0.8105 -1.5467
 3512SOL     OW11434   0.773   2.250   5.478  0.1738  0.4901 -0.1256
 3512SOL    HW111435   0.758   2.180   5.408  0.5714  1.7749 -1.5635
 3512SOL    HW211436   0.684   2.283   5.511 -0.2334  2.5970 -2.9406
 3513SOL     OW11437   2.985   1.545   6.453 -0.2910 -0.5171  0.4227
 3513SOL    HW111438   2.918   1.480   6.415  1.8289 -2.0403 -0.9470
 3513SOL    HW211439   3.018   1.511   6.541  0.5833 -1.1989 -0.1458
 3514SOL     OW11440   1.180   4.779   5.061  0.2093  0.3188 -0.3809
 3514SOL    HW111441   1.273   4.749   5.039 -0.3219  0.2467 -2.8845
 3514SOL    HW211442   1.172   4.877   5.044 -0.5478  0.0381 -1.8156
 3515SOL     OW11443   3.307   2.365   6.502  0.0411  0.0863  0.3545
 3515SOL    HW111444   3.317   2.442   6.439  0.2431  0.3200  0.6687
 3515SOL    HW211445   3.392   2.354   6.554  0.8209 -1.6893 -1.1934
 3516SOL     OW11446   4.086   5.138   1.502  0.2984 -0.2557 -0.2755
 3516SOL    HW111447   3.995   5.097   1.513  0.6934 -0.7851  1.2188
 3516SOL    HW211448   4.151   5.068   1.474  0.5202 -0.1581  0.0013
 3517SOL     OW11449   1.918   1.150   3.887  0.6285 -0.5566  0.4948
 3517SOL    HW111450   2.002   1.177   3.934 -0.2357  1.7150  0.8736
 3517SOL    HW211451   1.845   1.134   3.954 -0.0910  0.7604  0.0569
 3518SOL     OW11452   6.680   1.953   2.964 -0.2806 -0.4600 -0.3022
 3518SOL    HW111453   6.745   1.927   2.892 -0.0612 -1.3231  0.1883
 3518SOL    HW211454   6.667   1.876   3.026  2.4478  1.3156  2.8033
 3519SOL     OW11455   5.484   1.001   0.699  0.1784 -0.1193 -0.2450
 3519SOL    HW111456   5.408   0.998   0.633  0.8830 -1.9956 -1.0635
 3519SOL    HW211457   5.554   0.935   0.671  1.6534  0.8284  1.0589
 3520SOL     OW11458   5.803   6.613   0.422 -0.2462 -0.4819  0.0872
 3520SOL    HW111459   5.737   6.684   0.448  1.1763  0.4336  1.3425
 3520SOL    HW211460   5.841   6.570   0.504  0.1099 -1.5874 -0.6302
 3521SOL     OW11461   0.103   5.918   5.885  0.6734  0.4938  0.1576
 3521SOL    HW111462   0.030   5.986   5.880  0.7367  0.5737  0.3181
 3521SOL    HW211463   0.152   5.916   5.798 -0.3735 -0.5271 -0.4373
 3522SOL     OW11464   5.757   4.284   1.044  0.2190  0.3304 -0.4139
 3522SOL    HW111465   5.753   4.242   1.134 -0.0120  0.0495 -0.5549
 3522SOL    HW211466   5.736   4.382   1.052 -0.7983  0.1034 -0.3000
 3523SOL     OW11467   6.205   4.509   5.637  0.7072  0.0686 -0.5175
 3523SOL    HW111468   6.216   4.481   5.542 -0.5207 -0.2316 -0.5850
 3523SOL    HW211469   6.250   4.596   5.652 -0.3237  0.8453 -1.7473
 3524SOL     OW11470   2.397   4.281   2.028 -0.8144  0.0440  0.4511
 3524SOL    HW111471   2.378   4.321   1.938 -0.6185 -0.1109  0.3396
 3524SOL    HW211472   2.496   4.270   2.038 -0.8370  0.0536  0.6836
 3525SOL     OW11473   2.157   0.940   2.312 -0.1418  0.0839 -0.4072
 3525SOL    HW111474   2.206   0.958   2.397  0.6975 -1.6546 -0.4945
 3525SOL    HW211475   2.063   0.973   2.320  0.1230  0.5424  0.9344
 3526SOL     OW11476   0.081   3.470   3.396 -0.1872  0.4764 -0.2888
 3526SOL    HW111477   0.140   3.389   3.399  1.7219  1.8135  1.0584
 3526SOL    HW211478   0.045   3.488   3.488 -1.1824  0.7442 -0.7245
 3527SOL     OW11479   0.134   1.385   2.396  0.0297  0.2088  0.1823
 3527SOL    HW111480   0.169   1.314   2.335 -3.4100 -1.9575  0.4727
 3527SOL    HW211481   0.120   1.469   2.345 -0.1344 -0.7013 -1.3375
 3528SOL     OW11482   0.722   0.840   5.581 -0.1691 -0.0581  0.3174
 3528SOL    HW111483   0.656   0.777   5.624 -0.8892  0.7287  0.4093
 3528SOL    HW211484   0.690   0.864   5.489 -0.2428  0.6459  0.5163
 3529SOL     OW11485   6.712   6.881   1.192 -0.0819  1.3649  0.1450
 3529SOL    HW111486   6.666   6.805   1.239  0.3672  0.5761 -0.6505
 3529SOL    HW211487   6.799   6.849   1.154  0.5428  2.5193  0.5545
 3530SOL     OW11488   6.548   2.666   1.340 -0.1878  0.2422  0.1926
 3530SOL    HW111489   6.497   2.671   1.426 -0.5420  1.1349 -0.0557
 3530SOL    HW211490   6.606   2.747   1.331  1.7455 -1.0119  0.7309
 3531SOL     OW11491   3.345   1.943   0.677  0.6461  0.4751 -0.1322
 3531SOL    HW111492   3.311   1.946   0.771  0.7152 -1.7921  0.0068
 3531SOL    HW211493   3.269   1.962   0.614 -0.0792 -0.8142  0.3125
 3532SOL     OW11494   3.914   2.707   0.434  0.1946  0.4235 -0.7321
 3532SOL    HW111495   3.981   2.693   0.362  0.9805 -0.7136  0.1940
 3532SOL    HW211496   3.936   2.791   0.484  1.8657 -0.6715  0.5006
 3533SOL     OW11497   1.842   5.218   4.587  0.1321 -0.0611  0.6902
 3533SOL    HW111498   1.752   5.225   4.631  0.1018  1.5389  0.4355
 3533SOL    HW211499   1.873   5.123   4.589 -1.4479 -0.6015  1.0136
 3534SOL     OW11500   6.945   4.301   6.338  0.1345 -0.4179 -0.3651
 3534SOL    HW111501   6.962   4.315   6.241  2.4872 -1.6406 -0.1879
 3534SOL    HW211502   6.930   4.203   6.355  0.2437 -0.2736  0.5809
 3535SOL     OW11503   3.347   2.449   1.382  0.5864 -0.2681 -0.0373
 3535SOL    HW111504   3.410   2.498   1.443 -0.7586  0.4028  0.8483
 3535SOL    HW211505   3.376   2.353   1.375  1.6218 -0.0095  0.4580
 3536SOL     OW11506   0.288   0.565   4.879  0.6226  0.5336 -0.2331
 3536SOL    HW111507   0.384   0.578   4.901  1.1420 -2.2573 -0.3913
 3536SOL    HW211508   0.280   0.498   4.805 -1.4585 -1.6961  1.8189
 3537SOL     OW11509   6.254   5.541   5.882 -0.4272 -0.2357  0.4833
 3537SOL    HW111510   6.226   5.497   5.797 -1.6921 -0.2786  0.8934
 3537SOL    HW211511   6.192   5.512   5.956 -0.5910  1.3303  1.0060
 3538SOL     OW11512   3.152   3.511   5.607 -0.3122 -0.2032 -0.3104
 3538SOL    HW111513   3.182   3.545   5.696 -0.3522 -0.0926 -0.3384
 3538SOL    HW211514   3.181   3.416   5.595 -0.0590 -0.1265 -0.2986
 3539SOL     OW11515   4.713   4.531   2.421 -0.5616 -0.0320  0.6824
 3539SOL    HW111516   4.617   4.504   2.416 -0.9265  1.2838  0.4358
 3539SOL    HW211517   4.766   4.457   2.465 -1.8398 -0.3553  1.7338
 3540SOL     OW11518   4.346   6.981   1.962 -0.1273 -0.2075  0.6301
 3540SOL    HW111519   4.288   7.040   1.906 -1.1172 -2.2158 -0.5919
 3540SOL    HW211520   4.336   7.005   2.059 -1.7910  0.5157  0.3043
 3541SOL     OW11521   0.965   2.006   6.970  0.3049  0.1891 -0.6256
 3541SOL    HW111522   0.885   2.059   6.999 -0.0638  0.0171 -1.3142
 3541SOL    HW211523   1.033   2.067   6.929  0.0353  0.1755 -1.0901
 3542SOL     OW11524   3.303   6.591   3.296  0.3873 -0.0936  0.2159
 3542SOL    HW111525   3.218   6.643   3.291  0.1859 -0.4785 -0.5513
 3542SOL    HW211526   3.289   6.501   3.254  1.0498 -0.3356  0.5007
 3543SOL     OW11527   3.741   1.631   0.556 -0.3176 -0.1731 -0.1602
 3543SOL    HW111528   3.667   1.590   0.610 -0.9994  3.0485  1.5940
 3543SOL    HW211529   3.706   1.713   0.510  2.1919  1.7256  1.0995
 3544SOL     OW11530   3.334   4.197   6.219 -0.1645 -0.3377  0.3747
 3544SOL    HW111531   3.393   4.192   6.300  0.4671 -0.3923 -0.0754
 3544SOL    HW211532   3.261   4.129   6.226  0.8794 -1.5196  0.1276
 3545SOL     OW11533   4.965   1.320   2.750  0.4133  0.3007  0.3679
 3545SOL    HW111534   4.932   1.226   2.763 -1.3857  0.9838  1.1762
 3545SOL    HW211535   4.934   1.354   2.661  1.0091  0.1588  0.1033
 3546SOL     OW11536   3.730   0.099   6.828 -0.0050 -0.1331 -0.0435
 3546SOL    HW111537   3.777   0.030   6.774 -1.5552 -2.2256  1.1201
 3546SOL    HW211538   3.707   0.177   6.771  1.6542 -0.6208 -1.4535
 3547SOL     OW11539   1.027   4.783   4.504 -0.2466 -0.0445  0.2433
 3547SOL    HW111540   1.081   4.781   4.421 -2.0048  2.9063 -1.1168
 3547SOL    HW211541   1.071   4.840   4.573 -0.9233  1.2668 -0.3813
 3548SOL     OW11542   1.224   1.118   6.821 -0.2641 -0.0434  0.6723
 3548SOL    HW111543   1.314   1.152   6.793 -0.3890 -0.8224 -0.7614
 3548SOL    HW211544   1.155   1.148   6.755 -1.1074  0.6744  1.8386
 3549SOL     OW11545   4.766   2.923   4.209  0.2626  0.1364 -0.3851
 3549SOL    HW111546   4.770   2.929   4.110  1.2657  0.5421 -0.3360
 3549SOL    HW211547   4.763   2.827   4.237  1.8869 -0.0580 -0.7743
 3550SOL     OW11548   1.480   2.275   6.266 -0.4804  0.0117  0.0123
 3550SOL    HW111549   1.554   2.335   6.235 -0.3479  1.0658  2.1552
 3550SOL    HW211550   1.474   2.195   6.206  2.9478 -0.5216  0.1949
 3551SOL     OW11551   5.111   6.289   5.814  0.3073  0.3628 -0.1085
 3551SOL    HW111552   5.068   6.262   5.728 -0.2647  0.1276  0.2429
 3551SOL    HW211553   5.057   6.253   5.890  0.2636  1.4016  0.3597
 3552SOL     OW11554   2.212   2.391   6.441  0.2140 -0.3820  0.1415
 3552SOL    HW111555   2.125   2.343   6.451  0.6834 -1.4009 -0.5527
 3552SOL    HW211556   2.262   2.355   6.362  1.8810 -0.7699  1.3144
 3553SOL     OW11557   0.525   2.864   1.213 -0.9653 -0.7150  0.5236
 3553SOL    HW111558   0.537   2.764   1.210 -0.5985 -0.6663  0.3246
 3553SOL    HW211559   0.427   2.885   1.220 -1.0895 -1.0751 -0.0433
 3554SOL     OW11560   3.871   5.648   4.124  0.0351  0.4626  0.2249
 3554SOL    HW111561   3.836   5.657   4.030  0.5167 -0.9576 -0.1088
 3554SOL    HW211562   3.896   5.739   4.158 -1.8912  1.2559 -0.3158
 3555SOL     OW11563   0.231   0.300   6.287 -0.0876  0.1496  0.6485
 3555SOL    HW111564   0.154   0.350   6.246  0.3265  0.7806  0.6181
 3555SOL    HW211565   0.235   0.321   6.385  1.2345  1.7281  0.2931
 3556SOL     OW11566   3.842   6.625   2.241  0.0229  0.5120 -0.1673
 3556SOL    HW111567   3.790   6.574   2.309  1.5302 -1.5803 -0.4894
 3556SOL    HW211568   3.797   6.616   2.151 -0.2943  0.6736 -0.0271
 3557SOL     OW11569   4.818   3.248   5.756 -0.3123 -0.3799 -0.7222
 3557SOL    HW111570   4.796   3.337   5.795 -1.0072 -1.1936  0.8196
 3557SOL    HW211571   4.799   3.176   5.822  1.9036 -1.5892 -1.2677
 3558SOL     OW11572   0.430   4.833   3.043  0.1537  0.5351 -0.3644
 3558SOL    HW111573   0.503   4.823   2.975  0.5966 -0.6492  0.2651
 3558SOL    HW211574   0.459   4.899   3.112 -0.8649  2.8506 -2.0092
 3559SOL     OW11575   5.995   3.570   6.491  0.9129  0.0966 -0.4104
 3559SOL    HW111576   5.904   3.608   6.510  0.5527 -2.1332  3.4391
 3559SOL    HW211577   6.064   3.642   6.502 -0.1623  1.0935  0.0053
 3560SOL     OW11578   5.117   3.031   3.811 -0.1459 -0.2397 -0.0461
 3560SOL    HW111579   5.141   3.016   3.906 -0.5880  0.8234  0.2427
 3560SOL    HW211580   5.186   2.987   3.752  1.8186  1.6047  0.7482
 3561SOL     OW11581   6.598   1.489   6.445 -0.6796  0.1458 -0.2740
 3561SOL    HW111582   6.659   1.431   6.499  0.0627 -1.3041 -2.5272
 3561SOL    HW211583   6.633   1.583   6.445 -0.3568  0.0475  1.1837
 3562SOL     OW11584   0.248   1.787   4.548 -0.1332 -0.0603 -0.2116
 3562SOL    HW111585   0.223   1.880   4.522 -0.1222  0.3833  1.2483
 3562SOL    HW211586   0.184   1.722   4.507  0.5922  0.4523 -2.2576
 3563SOL     OW11587   3.862   6.860   6.342  0.4236  0.1850 -0.0766
 3563SOL    HW111588   3.929   6.792   6.313  1.0308  1.2608 -1.2753
 3563SOL    HW211589   3.825   6.908   6.262 -2.9513 -1.3733  0.3561
 3564SOL     OW11590   6.557   3.207   5.929 -0.0072 -0.5839  0.2913
 3564SOL    HW111591   6.630   3.262   5.969 -1.7817  1.5741  0.7666
 3564SOL    HW211592   6.501   3.167   6.001 -0.9464  0.1462 -0.0050
 3565SOL     OW11593   2.573   1.662   0.425  0.1334  0.0583  0.8717
 3565SOL    HW111594   2.491   1.654   0.481 -2.0133  2.3560 -1.6660
 3565SOL    HW211595   2.598   1.758   0.415  0.2804 -0.2029 -2.2003
 3566SOL     OW11596   5.770   2.171   5.738 -0.1832 -0.0253  0.2130
 3566SOL    HW111597   5.678   2.155   5.701 -0.3941 -1.6116  1.3128
 3566SOL    HW211598   5.818   2.084   5.746  1.0711  0.6771  0.5555
 3567SOL     OW11599   0.850   0.947   2.254  0.7223  0.7269  0.8668
 3567SOL    HW111600   0.872   1.041   2.230  0.3771  0.1557 -2.0517
 3567SOL    HW211601   0.791   0.946   2.335 -1.7775  3.2709 -0.7272
 3568SOL     OW11602   5.244   3.238   6.854  0.1713 -0.2630  0.1840
 3568SOL    HW111603   5.321   3.176   6.867  0.9905  0.5581 -0.6278
 3568SOL    HW211604   5.257   3.292   6.771 -0.8751  0.4793  0.4722
 3569SOL     OW11605   3.838   3.019   2.934  0.0155 -0.3167 -0.1247
 3569SOL    HW111606   3.889   2.968   2.864 -1.1257 -0.8756 -0.5822
 3569SOL    HW211607   3.812   3.108   2.897  0.0061 -0.3371 -0.1677
 3570SOL     OW11608   6.749   4.733   6.697 -0.6502 -0.4903 -0.1577
 3570SOL    HW111609   6.695   4.764   6.619 -0.1865  1.5324  0.2639
 3570SOL    HW211610   6.693   4.734   6.780 -0.3919  0.0876  0.0114
 3571SOL     OW11611   1.314   0.096   1.307  0.6446  0.3985 -0.2445
 3571SOL    HW111612   1.334   0.186   1.347 -1.1790 -0.8309  4.0271
 3571SOL    HW211613   1.215   0.090   1.289  0.9103 -0.4026 -1.5124
 3572SOL     OW11614   1.180   5.010   2.659  0.2993 -0.2185 -0.0167
 3572SOL    HW111615   1.221   5.020   2.569 -1.6620  0.0231 -0.9366
 3572SOL    HW211616   1.195   4.917   2.694  0.5217 -0.5109 -0.8843
 3573SOL     OW11617   6.647   3.182   3.048 -0.6104  0.4426 -0.1168
 3573SOL    HW111618   6.709   3.176   2.970 -0.7644 -0.5571 -0.1775
 3573SOL    HW211619   6.689   3.237   3.120  1.4932 -2.1964  0.8451
 3574SOL     OW11620   6.942   3.504   1.722  0.2555 -0.5712 -0.7225
 3574SOL    HW111621   6.952   3.569   1.797 -0.4393 -1.6849  0.3846
 3574SOL    HW211622   6.994   3.535   1.643 -1.8862  2.5054 -1.0718
 3575SOL     OW11623   4.233   6.812   5.491 -0.1200 -0.3244  0.6343
 3575SOL    HW111624   4.178   6.877   5.544 -0.2524 -0.7657  1.0496
 3575SOL    HW211625   4.312   6.859   5.452 -0.4097  0.1620  0.6272
 3576SOL     OW11626   1.028   4.837   5.488 -0.3909 -0.3019  0.8608
 3576SOL    HW111627   1.128   4.832   5.481 -0.4743 -1.2551  0.1919
 3576SOL    HW211628   1.002   4.859   5.582  0.4183 -1.0584  1.2702
 3577SOL     OW11629   1.827   4.888   2.285  0.6059 -0.8809 -0.2584
 3577SOL    HW111630   1.744   4.941   2.268 -0.6225 -2.9828 -1.2473
 3577SOL    HW211631   1.834   4.865   2.383 -0.2953 -1.1480 -0.2524
 3578SOL     OW11632   0.382   4.881   6.324 -0.2915  0.4430 -0.1927
 3578SOL    HW111633   0.291   4.906   6.292  0.1681 -1.0253 -2.9130
 3578SOL    HW211634   0.379   4.794   6.373 -0.6257  1.5146  1.7963
 3579SOL     OW11635   2.903   5.106   0.531  0.1124 -0.4876  0.0137
 3579SOL    HW111636   2.843   5.057   0.595  0.7591 -1.9040 -0.4228
 3579SOL    HW211637   2.852   5.130   0.448 -0.0782 -0.8809  0.0173
 3580SOL     OW11638   3.603   5.762   5.694 -0.0627 -0.0601 -0.1050
 3580SOL    HW111639   3.610   5.670   5.657 -1.3733  0.3358 -1.4302
 3580SOL    HW211640   3.636   5.763   5.788  0.0268 -1.8517 -0.0909
 3581SOL     OW11641   2.709   2.076   5.084 -0.1846  1.0950  0.1549
 3581SOL    HW111642   2.741   2.034   5.169 -0.3163  0.4944 -0.0919
 3581SOL    HW211643   2.787   2.099   5.026 -0.1856 -0.5390 -0.5309
 3582SOL     OW11644   1.949   0.062   6.109  0.4830 -0.2197 -0.2209
 3582SOL    HW111645   1.930   0.129   6.037 -0.8537 -1.6384 -1.2648
 3582SOL    HW211646   1.972   0.110   6.194 -1.3386  1.6123 -0.6590
 3583SOL     OW11647   2.837   1.141   2.631  0.0245  0.0430 -0.1343
 3583SOL    HW111648   2.910   1.085   2.593  0.6755  0.0188  1.1178
 3583SOL    HW211649   2.757   1.084   2.651  1.2628 -0.8496  2.7145
 3584SOL     OW11650   0.382   4.633   6.481 -0.3196  0.8401 -0.4140
 3584SOL    HW111651   0.404   4.610   6.576  0.4271  0.3138 -0.7111
 3584SOL    HW211652   0.349   4.551   6.434  1.0962  0.6483 -1.1155
 3585SOL     OW11653   2.683   3.071   0.793 -0.3850  0.1672 -0.7043
 3585SOL    HW111654   2.612   3.114   0.849 -0.3672  1.6450 -1.7677
 3585SOL    HW211655   2.715   3.136   0.724 -0.6046 -1.6441 -2.6330
 3586SOL     OW11656   4.478   2.256   2.375  0.3331 -0.0984 -0.1521
 3586SOL    HW111657   4.452   2.290   2.285  0.9356 -0.7225 -0.5709
 3586SOL    HW211658   4.528   2.170   2.365 -1.2587 -1.2004  0.8854
 3587SOL     OW11659   1.883   1.929   6.611  0.0239  0.1396  0.2049
 3587SOL    HW111660   1.799   1.980   6.592  0.1280  0.2837  0.1291
 3587SOL    HW211661   1.885   1.847   6.554 -1.8472 -1.8558  2.8103
 3588SOL     OW11662   5.474   2.108   6.008 -0.0966 -0.1879 -0.2505
 3588SOL    HW111663   5.404   2.085   5.941 -0.6481  1.0955 -0.1447
 3588SOL    HW211664   5.438   2.094   6.100  0.5945 -1.7609 -0.1791
 3589SOL     OW11665   6.663   2.735   4.828 -0.3345  0.1468  0.0854
 3589SOL    HW111666   6.633   2.680   4.751 -0.8729  1.2999 -0.5481
 3589SOL    HW211667   6.638   2.831   4.813  2.1980  0.9098  0.2743
 3590SOL     OW11668   3.822   1.107   5.933 -0.1447 -0.2115 -0.5909
 3590SOL    HW111669   3.837   1.153   5.845 -0.6516  0.0764 -0.5331
 3590SOL    HW211670   3.865   1.161   6.005 -2.3329  1.2613 -0.2695
 3591SOL     OW11671   1.457   6.537   4.917 -0.2222 -0.2836  0.1416
 3591SOL    HW111672   1.503   6.603   4.858 -0.8725 -0.0064 -0.0571
 3591SOL    HW211673   1.519   6.460   4.935  0.4459  0.2540  0.1735
 3592SOL     OW11674   6.640   5.431   1.979  0.0054  0.0798 -0.0262
 3592SOL    HW111675   6.613   5.527   1.985 -1.1940 -0.2149 -0.4006
 3592SOL    HW211676   6.609   5.383   2.062  1.6032  0.2246  0.6966
 3593SOL     OW11677   6.031   4.709   1.354  0.1091 -0.3762 -0.1830
 3593SOL    HW111678   6.024   4.669   1.263 -1.0267 -2.3384  0.7021
 3593SOL    HW211679   5.941   4.744   1.382  0.5550  0.6646  0.0160
 3594SOL     OW11680   3.253   1.334   3.459 -0.0976  0.2163 -0.2511
 3594SOL    HW111681   3.183   1.404   3.443 -0.2285  0.1582  0.0636
 3594SOL    HW211682   3.241   1.259   3.395  0.7390  0.9932 -1.3753
 3595SOL     OW11683   1.450   6.190   5.194  0.5631  0.5944 -0.9617
 3595SOL    HW111684   1.520   6.121   5.216  0.2194  0.3216 -0.7027
 3595SOL    HW211685   1.443   6.200   5.095 -0.1166 -0.5271 -1.0478
 3596SOL     OW11686   0.062   2.933   1.103  0.8813 -0.1496 -0.0471
 3596SOL    HW111687  -0.022   2.878   1.100  0.3656  0.3639  2.6701
 3596SOL    HW211688   0.039   3.028   1.081  1.6612 -0.6952 -4.0529
 3597SOL     OW11689   3.789   0.566   1.607 -0.0682  0.0709 -0.3853
 3597SOL    HW111690   3.747   0.610   1.528  3.4323  0.9284 -1.9597
 3597SOL    HW211691   3.793   0.630   1.684  0.9197  0.9821 -1.1744
 3598SOL     OW11692   0.690   5.670   5.509 -0.2794  0.6304 -0.1072
 3598SOL    HW111693   0.717   5.762   5.536  0.1936  0.9191 -1.4844
 3598SOL    HW211694   0.614   5.640   5.567 -1.3205  2.4079 -0.4751
 3599SOL     OW11695   5.530   0.893   0.976  0.3951 -0.3095 -0.2137
 3599SOL    HW111696   5.474   0.824   1.022 -0.3365  0.1814 -0.3497
 3599SOL    HW211697   5.478   0.932   0.900  0.4221  1.0669  0.4451
 3600SOL     OW11698   2.884   3.667   4.017  0.5233  0.3761 -0.0268
 3600SOL    HW111699   2.906   3.618   4.102  1.9190 -0.1008 -0.6282
 3600SOL    HW211700   2.947   3.745   4.007 -1.9817  2.7129  1.1820
 3601SOL     OW11701   2.881   0.588   3.376 -0.5969  0.7674 -0.0981
 3601SOL    HW111702   2.905   0.491   3.386  0.0203  0.6317 -2.3166
 3601SOL    HW211703   2.829   0.618   3.456  1.4517 -0.6669  1.8908
 3602SOL     OW11704   5.230   0.308   6.113  0.0742 -0.1723 -0.1253
 3602SOL    HW111705   5.266   0.292   6.205  0.4047 -0.9375 -0.3801
 3602SOL    HW211706   5.133   0.331   6.119 -0.0034 -0.5986  0.3964
 3603SOL     OW11707   1.410   2.084   6.082 -0.1630  0.1703 -0.0804
 3603SOL    HW111708   1.450   2.077   5.990  0.3309  3.6925 -0.2738
 3603SOL    HW211709   1.319   2.126   6.075  0.7752  2.5811  1.0993
 3604SOL     OW11710   0.709   2.686   4.251  0.1702  0.1480 -0.4131
 3604SOL    HW111711   0.696   2.587   4.253  1.8933 -0.1420 -1.3590
 3604SOL    HW211712   0.781   2.712   4.314  0.1546  0.7250 -0.6229
 3605SOL     OW11713   6.110   2.321   4.642  0.3558  0.1916  0.2007
 3605SOL    HW111714   6.209   2.309   4.641  0.3580  0.2131  0.0435
 3605SOL    HW211715   6.065   2.238   4.673  0.2361 -1.1987 -3.2261
 3606SOL     OW11716   2.907   5.433   5.915  0.4132  0.6729 -0.2913
 3606SOL    HW111717   2.915   5.502   5.843 -0.4733  0.7130 -0.3687
 3606SOL    HW211718   2.825   5.378   5.898  0.7997 -0.0213  0.0894
 3607SOL     OW11719   2.580   0.923   3.245  0.2901  0.4639  0.4627
 3607SOL    HW111720   2.525   0.974   3.179  0.1211 -0.1112  0.1546
 3607SOL    HW211721   2.631   0.851   3.198 -0.0830 -0.1651  0.9975
 3608SOL     OW11722   5.310   1.475   5.465  0.0682  0.6381 -0.1084
 3608SOL    HW111723   5.269   1.473   5.557 -0.7916 -1.6724 -0.4666
 3608SOL    HW211724   5.386   1.540   5.464  1.1481 -0.3927  2.7242
 3609SOL     OW11725   3.513   2.027   5.921 -0.0081  0.2934  0.0879
 3609SOL    HW111726   3.415   2.041   5.909 -0.1773 -0.5289  0.4032
 3609SOL    HW211727   3.558   2.030   5.832 -0.6619 -1.6309 -0.3592
 3610SOL     OW11728   4.963   5.320   1.360  0.2398 -0.7674 -0.3499
 3610SOL    HW111729   4.942   5.318   1.262  0.9983 -0.5463 -0.5260
 3610SOL    HW211730   5.019   5.242   1.384 -0.7569 -1.3628  0.1178
 3611SOL     OW11731   3.660   1.767   1.532  0.0707  0.6157  0.2296
 3611SOL    HW111732   3.631   1.837   1.597  0.3365  0.5181  0.4554
 3611SOL    HW211733   3.593   1.693   1.530 -1.6503  2.0979 -2.0058
 3612SOL     OW11734   6.493   7.009   3.514  0.2569  0.0629 -0.9893
 3612SOL    HW111735   6.590   6.991   3.501  0.3313 -1.7520  1.4046
 3612SOL    HW211736   6.466   7.089   3.461  3.0645  0.6663 -1.6269
 3613SOL     OW11737   2.352   3.231   5.586 -0.1743  0.2001 -0.6029
 3613SOL    HW111738   2.377   3.162   5.519  0.3060 -0.2484  0.0219
 3613SOL    HW211739   2.341   3.320   5.541  1.5836  0.2203 -1.0798
 3614SOL     OW11740   6.448   0.866   3.580 -0.2206  0.3398  0.2289
 3614SOL    HW111741   6.470   0.935   3.512  1.2991 -0.8921 -0.5931
 3614SOL    HW211742   6.482   0.896   3.670 -1.2239  1.4614  0.2490
 3615SOL     OW11743   0.595   1.541   5.767 -0.0424 -0.5576  0.3281
 3615SOL    HW111744   0.621   1.521   5.672 -1.2037 -1.0621  0.0978
 3615SOL    HW211745   0.676   1.536   5.825  0.7920  0.2953 -0.7093
 3616SOL     OW11746   6.401   6.773   4.311  0.1319  0.3059 -0.3464
 3616SOL    HW111747   6.450   6.831   4.246 -0.1054  0.0133 -0.7977
 3616SOL    HW211748   6.423   6.800   4.404  3.4541 -1.6150 -0.4092
 3617SOL     OW11749   5.204   4.138   4.154  0.8682  0.1784  0.2285
 3617SOL    HW111750   5.149   4.221   4.144 -0.2040 -0.6765 -1.4637
 3617SOL    HW211751   5.255   4.141   4.240 -0.6562  1.7020  1.1269
 3618SOL     OW11752   0.159   4.342   5.600 -0.0437  0.1216  0.1313
 3618SOL    HW111753   0.080   4.311   5.546  1.1794 -1.8268 -0.6645
 3618SOL    HW211754   0.156   4.441   5.609 -0.5639  0.5385 -3.1837
 3619SOL     OW11755   5.796   1.306   6.095  0.2814  0.0834 -0.1963
 3619SOL    HW111756   5.867   1.312   6.165  0.5233 -1.2709 -0.2923
 3619SOL    HW211757   5.796   1.214   6.055 -0.1059  0.6988 -1.7126
 3620SOL     OW11758   4.449   0.761   6.542 -0.4428  0.6710 -0.1551
 3620SOL    HW111759   4.357   0.769   6.581 -0.3768 -0.8090  0.3816
 3620SOL    HW211760   4.447   0.697   6.465 -0.2455  2.2848 -1.5584
 3621SOL     OW11761   0.855   6.226   6.024  0.1571  0.2241 -0.1759
 3621SOL    HW111762   0.766   6.266   5.999  0.4934  0.5369 -0.9134
 3621SOL    HW211763   0.928   6.281   5.984  0.6343 -1.5938 -1.9566
 3622SOL     OW11764   4.062   4.943   5.222 -0.9179  0.0913  0.1749
 3622SOL    HW111765   3.975   4.894   5.232 -0.3391 -1.2448 -0.9554
 3622SOL    HW211766   4.108   4.912   5.138  1.4665 -0.5926  1.6319
 3623SOL     OW11767   2.906   2.876   6.281 -0.5538  0.2226 -0.6899
 3623SOL    HW111768   2.962   2.794   6.286 -0.8199 -0.0648 -2.1402
 3623SOL    HW211769   2.966   2.957   6.280 -0.0751 -0.1008 -2.8739
 3624SOL     OW11770   0.349   2.215   2.020 -0.3656  0.2160  0.2697
 3624SOL    HW111771   0.432   2.254   1.981  1.4302 -0.7265  2.9208
 3624SOL    HW211772   0.322   2.134   1.968  0.2380  0.6319 -0.7148
 3625SOL     OW11773   3.816   1.955   1.362  0.6957 -0.0424 -0.3029
 3625SOL    HW111774   3.783   1.884   1.424  2.0285  0.1370  0.6662
 3625SOL    HW211775   3.913   1.939   1.341  0.4527  0.2823 -1.8267
 3626SOL     OW11776   1.891   2.163   5.717 -0.3986  0.4880  0.2890
 3626SOL    HW111777   1.873   2.176   5.620 -2.0534 -0.2910  0.4531
 3626SOL    HW211778   1.937   2.075   5.731 -2.1331 -0.4510  0.3537
 3627SOL     OW11779   2.150   5.241   6.957 -0.3011 -0.5465 -0.2756
 3627SOL    HW111780   2.154   5.161   6.899  0.0459  0.1357 -1.2157
 3627SOL    HW211781   2.086   5.225   7.033 -0.9901 -1.3340 -1.0109
 3628SOL     OW11782   4.395   6.963   5.843  0.7559  0.2513 -0.8617
 3628SOL    HW111783   4.369   7.050   5.885 -0.4020 -0.6413  0.3471
 3628SOL    HW211784   4.371   6.964   5.746 -3.5208 -0.2428 -0.0126
 3629SOL     OW11785   1.677   4.049   3.724 -0.4371 -0.3931 -0.1190
 3629SOL    HW111786   1.669   4.019   3.629 -1.4005  1.1898 -0.5704
 3629SOL    HW211787   1.773   4.065   3.745 -0.1593 -1.2641 -0.6408
 3630SOL     OW11788   1.093   0.762   5.886 -0.7391 -0.5112 -0.4438
 3630SOL    HW111789   1.002   0.734   5.854 -0.2205 -0.4714 -2.0434
 3630SOL    HW211790   1.140   0.812   5.813  0.6551 -0.7151  0.2832
 3631SOL     OW11791   4.100   0.071   0.543  0.0177  0.7884 -0.2546
 3631SOL    HW111792   4.035   0.030   0.479 -0.6182  1.1956  0.1143
 3631SOL    HW211793   4.192   0.036   0.524  0.1146  2.0173 -2.3488
 3632SOL     OW11794   4.331   5.859   6.614  0.3020 -0.0491 -0.0689
 3632SOL    HW111795   4.351   5.785   6.679  0.9018  0.7663  0.7021
 3632SOL    HW211796   4.410   5.921   6.610  0.9682 -0.9264 -2.7978
 3633SOL     OW11797   4.776   0.582   6.215  0.2137 -0.5992  0.8296
 3633SOL    HW111798   4.823   0.511   6.266  1.8881  0.5768  1.0089
 3633SOL    HW211799   4.735   0.647   6.279  1.0596  0.0750  0.7090
 3634SOL     OW11800   3.757   1.192   1.538  0.1499 -0.1784  0.3229
 3634SOL    HW111801   3.738   1.247   1.456  0.5731  0.6202  0.7512
 3634SOL    HW211802   3.695   1.220   1.612 -0.7647 -1.4314  0.0690
 3635SOL     OW11803   6.103   2.132   1.296 -0.4715 -0.5122 -0.3976
 3635SOL    HW111804   6.153   2.088   1.370  1.2010 -0.5476 -1.5180
 3635SOL    HW211805   6.126   2.089   1.209 -0.2457  1.3095 -1.2856
 3636SOL     OW11806   0.708   4.885   5.107  0.0558  0.5973  0.4435
 3636SOL    HW111807   0.712   4.982   5.082 -0.9054  0.9041  1.4141
 3636SOL    HW211808   0.758   4.870   5.192  2.0691 -0.1822 -0.7973
 3637SOL     OW11809   0.866   5.417   6.443 -0.2075 -0.4103 -0.6674
 3637SOL    HW111810   0.885   5.494   6.504 -1.5968  0.1624 -0.9324
 3637SOL    HW211811   0.915   5.336   6.476  0.6120  0.3654  0.0873
 3638SOL     OW11812   4.582   4.886   0.786 -0.8725 -0.2078  0.1527
 3638SOL    HW111813   4.505   4.828   0.809  0.4064 -0.3324  5.1957
 3638SOL    HW211814   4.560   4.981   0.806  0.0809 -0.2175  1.4282
 3639SOL     OW11815   3.733   2.449   1.640 -0.2131  0.4340  0.1745
 3639SOL    HW111816   3.709   2.402   1.725 -0.7993 -1.3563 -0.9256
 3639SOL    HW211817   3.808   2.513   1.656 -0.1672 -0.0404  1.9696
 3640SOL     OW11818   2.326   6.384   3.382  0.2786  0.4341 -0.1640
 3640SOL    HW111819   2.348   6.287   3.375 -2.3932 -0.3416  0.9109
 3640SOL    HW211820   2.252   6.407   3.320  1.4836  2.0796 -1.0992
 3641SOL     OW11821   0.238   0.800   5.462  0.3604  0.0123  0.1479
 3641SOL    HW111822   0.168   0.830   5.396  1.5484  0.8076 -0.7854
 3641SOL    HW211823   0.293   0.878   5.490  0.2972 -0.4470  1.6093
 3642SOL     OW11824   5.271   0.227   1.740  0.4435  0.0113  0.2022
 3642SOL    HW111825   5.176   0.208   1.716  0.9313 -1.8404 -0.4176
 3642SOL    HW211826   5.283   0.217   1.839 -0.3432  2.0560  0.5670
 3643SOL     OW11827   1.574   0.766   2.027  0.1304  0.8685 -0.2913
 3643SOL    HW111828   1.599   0.676   2.061 -1.0614  1.1539  1.4582
 3643SOL    HW211829   1.506   0.757   1.954 -0.7998  0.3415  0.6092
 3644SOL     OW11830   0.359   0.082   3.212 -0.3203 -0.0273  0.7706
 3644SOL    HW111831   0.408   0.113   3.130 -4.0260  1.0079 -1.3132
 3644SOL    HW211832   0.292   0.151   3.239 -0.0895 -0.9025  4.0156
 3645SOL     OW11833   4.236   0.994   0.885 -0.2842 -0.1704  0.2592
 3645SOL    HW111834   4.150   1.046   0.885  0.1261  0.5140  0.4782
 3645SOL    HW211835   4.239   0.935   0.966 -0.5804 -0.2619  0.2056
 3646SOL     OW11836   6.256   4.680   0.690 -0.4143  0.0963  0.1626
 3646SOL    HW111837   6.220   4.602   0.741 -1.1327  0.1281 -0.2806
 3646SOL    HW211838   6.330   4.650   0.630 -0.9696 -0.3268 -0.3175
 3647SOL     OW11839   6.208   6.965   2.390 -0.0244  0.5754 -0.0399
 3647SOL    HW111840   6.155   6.894   2.436 -1.1052  0.4695 -1.3789
 3647SOL    HW211841   6.276   7.003   2.453 -0.0051 -1.0378  0.9616
 3648SOL     OW11842   2.287   2.891   3.150 -0.1633  0.3356 -0.3993
 3648SOL    HW111843   2.321   2.852   3.236  0.6750  1.2287 -0.3104
 3648SOL    HW211844   2.227   2.969   3.170 -1.1265 -0.3252 -0.6035
 3649SOL     OW11845   3.199   3.044   2.690  0.2596 -0.1671  0.3573
 3649SOL    HW111846   3.201   2.982   2.769 -0.5047  0.3696  0.8089
 3649SOL    HW211847   3.251   3.127   2.710 -0.9838  0.5330  0.7981
 3650SOL     OW11848   5.185   6.448   3.490  0.3360  0.2190 -0.1958
 3650SOL    HW111849   5.090   6.473   3.506 -0.5289 -0.7960 -3.1175
 3650SOL    HW211850   5.190   6.353   3.458  2.2749  0.3731 -0.4934
 3651SOL     OW11851   3.951   6.065   1.659 -0.4232 -0.2159 -0.0965
 3651SOL    HW111852   3.879   6.015   1.708 -1.5731  0.7161 -0.7789
 3651SOL    HW211853   3.913   6.104   1.575  0.6233  1.1591  0.0287
 3652SOL     OW11854   0.582   3.979   1.303 -0.1653  0.3726 -0.1938
 3652SOL    HW111855   0.562   3.882   1.318  1.4603  0.1602  0.8671
 3652SOL    HW211856   0.515   4.035   1.352 -0.9572 -0.1981 -0.5947
 3653SOL     OW11857   1.293   3.350   2.711 -0.0733  0.2817 -0.2099
 3653SOL    HW111858   1.347   3.339   2.795  0.8304 -0.9299 -0.9281
 3653SOL    HW211859   1.310   3.273   2.650 -0.3653  1.3773 -1.7252
 3654SOL     OW11860   3.975   6.390   6.641 -0.1608  0.6911  0.1606
 3654SOL    HW111861   4.023   6.306   6.664  1.5709  1.5438 -0.1914
 3654SOL    HW211862   3.930   6.427   6.723 -0.3928 -0.2194  0.4495
 3655SOL     OW11863   3.239   0.248   6.826 -0.3487 -0.1218  0.2068
 3655SOL    HW111864   3.273   0.154   6.833  0.3672  0.1554  0.4448
 3655SOL    HW211865   3.141   0.248   6.846 -0.7804 -1.0881 -1.5879
 3656SOL     OW11866   2.819   6.571   3.419 -0.6632  0.3148  0.4691
 3656SOL    HW111867   2.744   6.567   3.353  0.1048 -1.2298 -0.3514
 3656SOL    HW211868   2.834   6.480   3.457  1.4485  0.3602 -0.1601
 3657SOL     OW11869   6.220   2.756   2.448  0.1910 -0.0999  0.2198
 3657SOL    HW111870   6.225   2.656   2.457  2.7148 -0.1265 -0.6158
 3657SOL    HW211871   6.311   2.795   2.462 -0.9382  2.2413  1.6654
 3658SOL     OW11872   0.824   6.046   6.228 -0.4151  0.0806  0.1221
 3658SOL    HW111873   0.879   6.067   6.309  0.0988  0.1082 -0.2264
 3658SOL    HW211874   0.842   6.114   6.157 -0.0098 -0.5790 -0.4154
 3659SOL     OW11875   0.652   5.036   0.696  0.0275 -0.6043 -0.3256
 3659SOL    HW111876   0.685   5.058   0.788  1.5039 -0.3198 -0.8986
 3659SOL    HW211877   0.712   5.077   0.628  0.9400 -3.5711 -1.4678
 3660SOL     OW11878   3.051   5.109   6.366  0.8684 -0.3631 -0.2646
 3660SOL    HW111879   3.130   5.047   6.371 -0.4304 -2.1986 -1.2630
 3660SOL    HW211880   2.993   5.094   6.446  0.2280 -0.9222 -0.8258
 3661SOL     OW11881   3.061   1.049   4.423 -0.0412  0.1239  0.4085
 3661SOL    HW111882   3.068   1.107   4.342 -0.6141  0.5416  0.6520
 3661SOL    HW211883   3.147   1.052   4.474  0.4455 -0.4226 -0.3662
 3662SOL     OW11884   2.518   4.320   6.279  0.0206 -0.4122 -0.4862
 3662SOL    HW111885   2.567   4.248   6.329 -0.1494 -0.7907 -0.8529
 3662SOL    HW211886   2.579   4.398   6.266 -0.4874  0.4530  1.8826
 3663SOL     OW11887   5.202   6.396   6.813  0.5936 -0.2293  0.8053
 3663SOL    HW111888   5.122   6.441   6.775 -0.2904 -3.6524 -1.9005
 3663SOL    HW211889   5.283   6.452   6.795 -0.3007  0.1425 -3.1015
 3664SOL     OW11890   2.750   1.885   0.371  0.0310  1.1297 -0.7634
 3664SOL    HW111891   2.829   1.847   0.419  1.1379  2.1058 -1.7410
 3664SOL    HW211892   2.751   1.984   0.378 -1.6996  1.1375  0.0498
 3665SOL     OW11893   3.791   2.020   1.042 -0.2419 -0.1877  0.2607
 3665SOL    HW111894   3.867   2.071   1.003 -0.3356  0.0870  0.4334
 3665SOL    HW211895   3.768   2.057   1.132  0.2763 -1.1169  0.7942
 3666SOL     OW11896   3.956   4.355   0.846  0.4928 -0.6160 -0.4617
 3666SOL    HW111897   4.034   4.309   0.889 -1.0520 -2.3818  0.5960
 3666SOL    HW211898   3.946   4.447   0.885  1.4160 -0.7444  0.1111
 3667SOL     OW11899   4.407   5.548   6.989  0.3262 -0.3213  0.2418
 3667SOL    HW111900   4.485   5.572   6.931 -0.1229  0.9937  0.1563
 3667SOL    HW211901   4.351   5.478   6.944  0.6680 -0.2299 -0.3241
 3668SOL     OW11902   4.294   6.153   1.413 -0.5264 -0.3381  0.4583
 3668SOL    HW111903   4.253   6.062   1.415 -1.5136  0.0312 -0.8893
 3668SOL    HW211904   4.228   6.220   1.447 -0.5226  0.0841 -0.3341
 3669SOL     OW11905   1.267   2.723   2.814  0.3626 -0.2870  0.0345
 3669SOL    HW111906   1.347   2.766   2.773  0.6301 -2.1335 -1.5448
 3669SOL    HW211907   1.195   2.714   2.745  0.4651 -2.6207  0.1619
 3670SOL     OW11908   3.554   6.787   4.180 -0.1208 -0.2099  1.1614
 3670SOL    HW111909   3.572   6.722   4.253  0.8828 -1.9879 -0.5835
 3670SOL    HW211910   3.456   6.810   4.178 -0.2767 -0.7193  2.5517
 3671SOL     OW11911   0.865   0.227   0.825  0.3220  0.5384 -0.0912
 3671SOL    HW111912   0.881   0.200   0.730  0.4738 -0.2496  0.1465
 3671SOL    HW211913   0.953   0.232   0.873  0.1344 -0.8675  0.4584
 3672SOL     OW11914   3.330   6.291   0.054 -0.2389  1.0568 -0.1165
 3672SOL    HW111915   3.351   6.194   0.059  1.7613  1.4999  1.2325
 3672SOL    HW211916   3.233   6.303   0.032 -0.5685 -1.2168 -0.1388
 3673SOL     OW11917   4.758   5.608   0.266  0.9041 -0.4425 -0.0417
 3673SOL    HW111918   4.815   5.526   0.276 -0.2699 -1.1832  0.9623
 3673SOL    HW211919   4.786   5.659   0.184  0.6705 -2.6979 -1.6347
 3674SOL     OW11920   2.236   5.203   1.714 -0.2136 -0.3193  0.1121
 3674SOL    HW111921   2.235   5.186   1.812 -1.6197  0.6661  0.2982
 3674SOL    HW211922   2.219   5.301   1.697  0.6211 -0.3605 -1.0905
 3675SOL     OW11923   3.499   1.557   1.581  0.0162  0.0503 -0.0450
 3675SOL    HW111924   3.406   1.543   1.616  1.5772 -1.0984  4.1393
 3675SOL    HW211925   3.521   1.484   1.516 -1.7441  0.0076 -0.6655
 3676SOL     OW11926   6.256   3.071   4.651 -0.0834  0.4903  0.0871
 3676SOL    HW111927   6.264   3.044   4.555  1.7438  2.0938 -0.2662
 3676SOL    HW211928   6.338   3.043   4.700 -1.0059 -0.3119  1.2092
 3677SOL     OW11929   3.430   6.482   1.856 -0.1734 -0.0836  0.0896
 3677SOL    HW111930   3.487   6.432   1.922 -1.1314 -0.3589  0.7304
 3677SOL    HW211931   3.420   6.428   1.773  1.5070  0.5075 -0.5317
 3678SOL     OW11932   5.399   3.518   0.913 -0.2045  0.5114  0.3299
 3678SOL    HW111933   5.372   3.589   0.977 -0.0586 -0.1728  1.1728
 3678SOL    HW211934   5.457   3.451   0.960  1.2456  0.8435 -0.9281
 3679SOL     OW11935   5.326   1.554   3.049  0.1122 -0.1291 -0.3616
 3679SOL    HW111936   5.281   1.532   2.962  1.1111 -1.7073 -0.5245
 3679SOL    HW211937   5.270   1.619   3.100 -1.4528 -0.6563 -1.3394
 3680SOL     OW11938   2.910   2.156   0.382  0.0755 -0.0811 -0.2982
 3680SOL    HW111939   2.944   2.173   0.290 -1.8995 -0.7767 -1.2296
 3680SOL    HW211940   2.944   2.227   0.444  1.8521  0.1122 -1.4289
 3681SOL     OW11941   0.659   2.272   0.512  0.9673 -0.5801 -0.1007
 3681SOL    HW111942   0.594   2.218   0.565  0.2867 -0.0147 -0.3446
 3681SOL    HW211943   0.610   2.337   0.455  1.6652 -1.4705 -1.7760
 3682SOL     OW11944   5.959   0.268   3.015 -0.5636 -0.0598 -0.2060
 3682SOL    HW111945   6.032   0.335   2.999 -1.2988  0.4418 -1.6421
 3682SOL    HW211946   5.997   0.176   3.011  0.0280  0.2010 -0.8053
 3683SOL     OW11947   4.959   5.414   5.990  0.0706 -0.4185  0.5274
 3683SOL    HW111948   4.992   5.336   5.936 -2.1162 -1.7495  0.9940
 3683SOL    HW211949   4.905   5.381   6.067 -1.5457  1.5643  0.3341
 3684SOL     OW11950   4.508   0.901   5.957  0.5950 -0.7840  0.1074
 3684SOL    HW111951   4.499   0.857   6.047 -0.5450 -1.3322 -0.2512
 3684SOL    HW211952   4.494   0.999   5.966 -0.6706 -0.9784  0.3755
 3685SOL     OW11953   1.069   1.419   6.786 -0.6441 -0.7076  0.1255
 3685SOL    HW111954   1.050   1.517   6.792 -3.2683 -1.2437  2.2139
 3685SOL    HW211955   1.095   1.396   6.692  2.7350  2.3114  0.0925
 3686SOL     OW11956   2.857   0.862   5.691 -0.2827 -0.0024  0.0986
 3686SOL    HW111957   2.956   0.865   5.698 -0.3738  0.8113  1.1685
 3686SOL    HW211958   2.816   0.891   5.778 -1.4537 -0.8348 -0.1483
 3687SOL     OW11959   1.870   4.793   3.799  0.3055  0.5063 -0.3702
 3687SOL    HW111960   1.967   4.817   3.789  0.4491  0.5025  0.8902
 3687SOL    HW211961   1.862   4.704   3.843 -0.2730  0.3744 -0.7400
 3688SOL     OW11962   5.429   0.074   4.952 -0.3324  0.3193 -0.6289
 3688SOL    HW111963   5.461   0.002   4.890  0.8788  0.6001 -0.3451
 3688SOL    HW211964   5.377   0.141   4.899 -1.8226 -0.9446 -0.8273
 3689SOL     OW11965   1.055   4.260   3.367 -0.4741  0.1005  0.3013
 3689SOL    HW111966   1.138   4.219   3.403 -1.3087 -1.2417  0.7915
 3689SOL    HW211967   1.005   4.306   3.441  0.5091  2.2034 -0.2620
 3690SOL     OW11968   0.848   5.497   1.923 -0.0245  0.0553  0.1087
 3690SOL    HW111969   0.923   5.557   1.893 -0.2942  1.3847  1.9302
 3690SOL    HW211970   0.784   5.550   1.978 -2.6913 -0.8663 -1.8939
 3691SOL     OW11971   4.011   5.976   2.976  0.5937  0.0822 -0.0084
 3691SOL    HW111972   3.954   5.894   2.983  0.4870  0.0638 -0.9475
 3691SOL    HW211973   3.954   6.058   2.979  0.4184  0.0481 -1.6416
 3692SOL     OW11974   3.763   4.157   4.753 -0.5849  0.6100  0.5486
 3692SOL    HW111975   3.713   4.197   4.676 -1.1413 -0.0381  0.5620
 3692SOL    HW211976   3.855   4.132   4.722 -1.3811 -1.3056 -0.4445
 3693SOL     OW11977   6.808   1.230   6.911 -0.8704 -0.5929  0.1542
 3693SOL    HW111978   6.752   1.284   6.847 -0.3024 -1.7417 -1.3960
 3693SOL    HW211979   6.864   1.291   6.967  0.6407  0.4742 -2.3471
 3694SOL     OW11980   6.338   5.648   3.884 -0.3809  0.6542 -0.3416
 3694SOL    HW111981   6.325   5.575   3.951  0.7519  0.7843  0.0461
 3694SOL    HW211982   6.436   5.664   3.871 -0.5718  3.1675  0.7520
 3695SOL     OW11983   0.052   2.636   6.860 -0.6260 -0.1318  0.4897
 3695SOL    HW111984   0.140   2.667   6.823 -0.6394 -0.5917  0.0810
 3695SOL    HW211985   0.060   2.541   6.890 -1.3033 -0.5423 -0.6015
 3696SOL     OW11986   4.611   0.646   0.415  0.0462 -0.0486  0.7966
 3696SOL    HW111987   4.689   0.590   0.390 -0.3706  0.1227 -0.9856
 3696SOL    HW211988   4.559   0.600   0.487  0.2142 -1.5286  0.0065
 3697SOL     OW11989   4.446   6.618   6.361 -0.6258 -0.6035  0.1153
 3697SOL    HW111990   4.403   6.604   6.271 -1.3484  0.8163  0.2118
 3697SOL    HW211991   4.423   6.709   6.395 -1.0317 -1.4015  2.1255
 3698SOL     OW11992   1.138   5.564   4.329 -0.3407 -0.2163  0.6021
 3698SOL    HW111993   1.053   5.532   4.371  0.5847 -0.7451  2.1808
 3698SOL    HW211994   1.210   5.567   4.399  0.5223  1.8841 -0.3092
 3699SOL     OW11995   1.652   1.947   2.748  0.0648 -0.6399 -0.1099
 3699SOL    HW111996   1.576   1.942   2.813  2.0214  0.1891  2.4370
 3699SOL    HW211997   1.629   1.896   2.666 -2.3102 -2.3689  1.4843
 3700SOL     OW11998   3.273   3.164   0.025  0.5735 -0.3886 -0.1564
 3700SOL    HW111999   3.236   3.129  -0.060  0.2116 -0.1687 -0.0896
 3700SOL    HW212000   3.240   3.109   0.102  0.6353 -0.3859 -0.1277
 3701SOL     OW12001   1.913   3.224   1.694  0.7346  0.1941  0.1577
 3701SOL    HW112002   2.011   3.237   1.708  1.1483 -0.3524 -1.7993
 3701SOL    HW212003   1.879   3.292   1.629  0.6841 -1.7715 -2.0326
 3702SOL     OW12004   6.356   2.248   2.561 -0.2941 -0.1853 -0.1293
 3702SOL    HW112005   6.441   2.197   2.570  0.3386  0.6988 -0.8552
 3702SOL    HW212006   6.292   2.197   2.504 -0.2698 -0.8660  0.4400
 3703SOL     OW12007   1.656   1.717   0.887 -0.3576 -0.1858  0.5472
 3703SOL    HW112008   1.580   1.690   0.829  1.4738  0.7126 -2.5191
 3703SOL    HW212009   1.724   1.644   0.891  0.0743  0.2056  0.5582
 3704SOL     OW12010   4.844   0.776   4.211 -0.0179  0.2367 -0.4498
 3704SOL    HW112011   4.842   0.700   4.276  0.5350  1.1808  0.7059
 3704SOL    HW212012   4.755   0.822   4.209  0.0329  0.3481 -0.1778
 3705SOL     OW12013   6.990   6.631   1.563 -0.2755 -0.3085  0.3689
 3705SOL    HW112014   7.019   6.535   1.556  1.5849  0.1797  0.7003
 3705SOL    HW212015   7.012   6.679   1.478 -0.0839  0.0825  0.6355
 3706SOL     OW12016   2.008   3.408   0.127 -0.6591 -0.2114 -0.4916
 3706SOL    HW112017   2.101   3.378   0.104 -0.0009  1.5724 -0.3917
 3706SOL    HW212018   2.012   3.473   0.203 -2.1369 -1.0040  0.3063
 3707SOL     OW12019   5.655   2.991   6.351  0.5535 -0.7655  0.4567
 3707SOL    HW112020   5.614   3.034   6.270 -1.4928 -1.9670  0.7772
 3707SOL    HW212021   5.743   3.034   6.371  0.3670  0.6281 -1.4570
 3708SOL     OW12022   3.502   6.565   4.509  0.2423 -0.2925 -0.2396
 3708SOL    HW112023   3.524   6.497   4.439  2.1114  1.6332 -1.6640
 3708SOL    HW212024   3.514   6.525   4.599  1.3957 -1.8412 -1.0238
 3709SOL     OW12025   6.506   6.549   4.711  0.1868  0.4995  0.0954
 3709SOL    HW112026   6.418   6.520   4.749  0.5098 -0.0968  0.4096
 3709SOL    HW212027   6.580   6.501   4.759  0.5845 -1.0867 -1.9967
 3710SOL     OW12028   2.719   0.950   2.306  0.0259  0.7753  0.0139
 3710SOL    HW112029   2.787   1.022   2.299 -0.1456  1.0446  0.9877
 3710SOL    HW212030   2.636   0.986   2.349 -0.4090  0.2304 -0.3460
 3711SOL     OW12031   2.868   5.030   6.015 -0.9080  0.3622 -0.1974
 3711SOL    HW112032   2.897   4.996   5.926  0.3006  1.9921 -0.4680
 3711SOL    HW212033   2.869   4.955   6.081  0.3439 -0.4157 -1.0549
 3712SOL     OW12034   2.691   0.875   6.810  0.3703 -0.4895  0.0936
 3712SOL    HW112035   2.660   0.831   6.726  0.6187  0.2784 -0.4016
 3712SOL    HW212036   2.612   0.890   6.870  0.1790 -0.9369 -0.0362
 3713SOL     OW12037   1.018   6.802   0.665  0.5396  0.3116 -0.2314
 3713SOL    HW112038   0.968   6.732   0.715  1.1789 -0.8255 -1.1232
 3713SOL    HW212039   1.017   6.887   0.717  0.2263 -0.4993  1.1520
 3714SOL     OW12040   5.635   0.852   4.567 -0.4496  0.5261 -0.2397
 3714SOL    HW112041   5.571   0.785   4.606 -0.5484 -0.1682 -1.5626
 3714SOL    HW212042   5.583   0.925   4.522 -0.3422 -0.1664 -1.5306
 3715SOL     OW12043   6.496   6.350   4.534  0.1145 -0.2091  0.0900
 3715SOL    HW112044   6.404   6.315   4.520  0.5578 -1.0080 -1.0074
 3715SOL    HW212045   6.494   6.425   4.601 -1.5017  0.6624 -0.8782
 3716SOL     OW12046   6.279   6.127   6.510  0.0157 -0.3232  1.0289
 3716SOL    HW112047   6.253   6.049   6.567 -0.9542  0.1919  1.3249
 3716SOL    HW212048   6.203   6.192   6.506  0.0679 -0.3266 -0.8390
 3717SOL     OW12049   6.420   2.851   6.773  0.0414 -0.5049  0.4842
 3717SOL    HW112050   6.443   2.935   6.723 -0.2046 -0.3269  0.6626
 3717SOL    HW212051   6.420   2.774   6.710 -0.1055 -0.3086  0.2398
 3718SOL     OW12052   1.296   3.920   6.203 -0.3157  0.0867 -0.0975
 3718SOL    HW112053   1.258   3.956   6.118 -2.8694  0.3415  1.0830
 3718SOL    HW212054   1.296   3.820   6.200 -2.0464  0.0585  0.2502
 3719SOL     OW12055   4.478   5.861   1.061  0.0582  0.0040  0.0753
 3719SOL    HW112056   4.464   5.960   1.060 -0.0553 -0.0144 -0.6471
 3719SOL    HW212057   4.435   5.822   1.142  0.7601  0.6374  0.7769
 3720SOL     OW12058   2.623   0.107   0.767  0.5664 -0.2737  0.2246
 3720SOL    HW112059   2.529   0.136   0.788  0.1331 -1.7741  0.4415
 3720SOL    HW212060   2.663   0.172   0.702  0.3265  1.8807  2.0744
 3721SOL     OW12061   6.196   4.981   3.911  0.2528 -0.2479  0.8207
 3721SOL    HW112062   6.259   5.011   3.983  0.6104 -2.0077  1.2962
 3721SOL    HW212063   6.187   5.053   3.843  0.6251  1.1101  2.1455
 3722SOL     OW12064   3.721   3.464   2.093 -0.0189  0.5095 -0.3479
 3722SOL    HW112065   3.684   3.415   2.172  0.9571  0.1402 -0.1079
 3722SOL    HW212066   3.664   3.544   2.074 -1.2571 -0.3288 -0.3299
 3723SOL     OW12067   5.195   3.142   5.051 -0.1802  0.3892  0.0371
 3723SOL    HW112068   5.234   3.231   5.027 -0.7266  0.3373 -1.1130
 3723SOL    HW212069   5.096   3.143   5.036 -0.3378 -0.1035  0.9894
 3724SOL     OW12070   2.206   6.351   0.008 -0.7394 -0.4785 -0.1857
 3724SOL    HW112071   2.300   6.385   0.011 -0.6866 -0.2500 -2.4429
 3724SOL    HW212072   2.160   6.372   0.094  1.2032 -0.4191  0.8867
 3725SOL     OW12073   0.247   3.781   6.067 -0.2639 -0.4178  0.7284
 3725SOL    HW112074   0.250   3.699   6.124  2.2989 -0.5391  0.5271
 3725SOL    HW212075   0.258   3.862   6.125  0.3267 -0.4184  0.6207
 3726SOL     OW12076   6.866   1.045   5.590  0.0088  0.0480  0.0449
 3726SOL    HW112077   6.795   1.098   5.543  2.2020  2.2798 -0.9922
 3726SOL    HW212078   6.941   1.027   5.526  1.1309 -0.7852  1.5328
 3727SOL     OW12079   4.933   5.770   1.081 -0.0926 -0.3439  0.2253
 3727SOL    HW112080   4.953   5.724   1.168  2.8910  1.1645  0.4288
 3727SOL    HW212081   4.897   5.861   1.099  0.3018 -0.1184 -0.1432
 3728SOL     OW12082   5.308   6.181   6.414 -0.1929  0.2617 -0.2960
 3728SOL    HW112083   5.389   6.139   6.373  0.8230  0.3446  1.5481
 3728SOL    HW212084   5.258   6.112   6.466  0.3493  0.8320  1.0286
 3729SOL     OW12085   6.384   3.387   4.595  0.1630 -0.5775  0.3429
 3729SOL    HW112086   6.476   3.407   4.561 -0.6032  1.6478 -0.6209
 3729SOL    HW212087   6.332   3.339   4.524 -0.1842  0.4738 -0.1383
 3730SOL     OW12088   6.818   5.182   4.106 -0.4338 -0.2815  0.1319
 3730SOL    HW112089   6.792   5.121   4.180 -1.6792  0.2116  0.1200
 3730SOL    HW212090   6.736   5.221   4.064  0.1160 -1.7685 -2.5774
 3731SOL     OW12091   0.638   4.403   6.772 -0.3243  0.5519  0.5476
 3731SOL    HW112092   0.625   4.310   6.736 -0.9181  0.7578  0.2120
 3731SOL    HW212093   0.673   4.461   6.699 -3.1281  1.3779 -0.2637
 3732SOL     OW12094   5.981   5.944   5.242 -0.3627  0.2434 -0.4027
 3732SOL    HW112095   5.888   5.915   5.220  0.8970 -4.0055 -1.2110
 3732SOL    HW212096   6.038   5.936   5.159  1.2289 -0.0149  0.6687
 3733SOL     OW12097   1.339   4.220   5.108  0.1812 -0.1112 -0.0625
 3733SOL    HW112098   1.324   4.122   5.101  0.3228 -0.1938  0.6731
 3733SOL    HW212099   1.258   4.269   5.076 -0.4996 -0.5029  1.0282
 3734SOL     OW12100   3.889   1.622   3.378 -0.6383 -0.2934  1.1093
 3734SOL    HW112101   3.947   1.653   3.453 -0.5448 -0.0215  0.9263
 3734SOL    HW212102   3.946   1.598   3.300 -0.6792 -1.3341  1.3858
 3735SOL     OW12103   0.125   3.972   5.612  0.0144  0.1486  0.1149
 3735SOL    HW112104   0.215   3.985   5.572 -0.4476  0.1648 -0.9510
 3735SOL    HW212105   0.063   4.044   5.579  0.0468  1.2737  2.2671
 3736SOL     OW12106   0.806   3.836   4.266  0.2453 -0.1639 -0.1264
 3736SOL    HW112107   0.742   3.885   4.325  0.3684  0.4051 -0.4515
 3736SOL    HW212108   0.802   3.876   4.174 -1.1757 -2.1060 -0.9721
 3737SOL     OW12109   0.931   4.131   2.479 -0.0572 -0.1521  0.1083
 3737SOL    HW112110   0.947   4.199   2.409  0.0611  1.4957  1.6672
 3737SOL    HW212111   0.839   4.094   2.469  0.5988 -1.3881 -2.0335
 3738SOL     OW12112   4.782   1.742   3.152 -0.1980 -0.1282 -0.1721
 3738SOL    HW112113   4.826   1.654   3.174  0.1885 -0.5868 -2.5035
 3738SOL    HW212114   4.690   1.743   3.191  0.1264 -1.1792  0.6899
 3739SOL     OW12115   0.341   2.042   7.002 -0.0550 -0.1846  0.0516
 3739SOL    HW112116   0.331   1.983   7.082  1.7074 -1.1742 -0.3870
 3739SOL    HW212117   0.422   2.100   7.012 -0.2678  0.2579 -0.6636
 3740SOL     OW12118   5.183   4.685   2.602  0.2798 -0.4999  0.2362
 3740SOL    HW112119   5.145   4.729   2.683 -0.1082 -0.8387  0.2389
 3740SOL    HW212120   5.235   4.605   2.630 -2.2779 -2.3609 -0.0185
 3741SOL     OW12121   5.332   4.722   5.048 -0.1888  0.0329 -0.1024
 3741SOL    HW112122   5.310   4.656   4.976 -3.0292  0.2623  0.4313
 3741SOL    HW212123   5.267   4.798   5.044  0.6791  0.9189  1.6280
 3742SOL     OW12124   5.348   3.907   5.089 -0.0964 -0.3106 -0.1627
 3742SOL    HW112125   5.282   3.907   5.165  0.0176 -0.2543 -0.0642
 3742SOL    HW212126   5.351   3.997   5.047  1.0296  0.1180  0.7982
 3743SOL     OW12127   4.556   1.122   1.367 -0.2390 -0.2282  0.2899
 3743SOL    HW112128   4.539   1.207   1.417  0.5635  0.6747 -0.9221
 3743SOL    HW212129   4.651   1.095   1.381 -0.6781 -1.3575  1.2629
 3744SOL     OW12130   0.595   6.227   3.854  0.3665 -0.2429 -0.3253
 3744SOL    HW112131   0.534   6.240   3.932  1.0880 -0.9045  0.3668
 3744SOL    HW212132   0.586   6.305   3.792  0.9516  1.1215  1.2202
 3745SOL     OW12133   6.743   6.408   4.751 -0.4522  0.4413 -0.2113
 3745SOL    HW112134   6.785   6.476   4.691 -2.1350 -0.1504 -2.1811
 3745SOL    HW212135   6.782   6.318   4.733  0.2105  0.5035  0.8191
 3746SOL     OW12136   4.860   6.870   3.601  0.5224  0.1018 -0.8876
 3746SOL    HW112137   4.959   6.880   3.588  0.5496  0.5782 -0.3447
 3746SOL    HW212138   4.815   6.956   3.579  0.3716  0.3131  0.1913
 3747SOL     OW12139   3.707   2.795   1.310 -0.2456  0.1608 -0.0509
 3747SOL    HW112140   3.705   2.695   1.306 -1.0087  0.1946 -1.1517
 3747SOL    HW212141   3.648   2.832   1.238  0.8766  1.4197 -0.3638
 3748SOL     OW12142   5.281   1.827   4.877 -0.0756 -0.4668  0.2485
 3748SOL    HW112143   5.295   1.926   4.883 -2.0062 -0.1429  0.1884
 3748SOL    HW212144   5.331   1.782   4.950  2.3397  0.3297 -0.7930
 3749SOL     OW12145   5.967   0.063   3.449 -0.1366 -0.1044 -0.1357
 3749SOL    HW112146   5.989  -0.027   3.410 -0.0960  0.2563 -0.9715
 3749SOL    HW212147   5.963   0.130   3.376 -1.2085  0.3878  0.3577
 3750SOL     OW12148   3.411   2.734   0.225 -0.0139  0.2353 -0.0129
 3750SOL    HW112149   3.456   2.708   0.140  0.7348 -0.1559  0.4871
 3750SOL    HW212150   3.475   2.786   0.282 -1.0429  1.9585 -0.3922
 3751SOL     OW12151   1.930   1.965   2.992  0.1045 -0.1150 -0.1537
 3751SOL    HW112152   1.944   2.060   3.019  0.6456 -0.2343 -0.0165
 3751SOL    HW212153   1.989   1.942   2.915 -1.6104  0.2961 -1.6754
 3752SOL     OW12154   3.262   2.063   3.528  0.3430  0.2871 -0.2243
 3752SOL    HW112155   3.361   2.054   3.518  0.1648 -0.5467 -1.5505
 3752SOL    HW212156   3.224   1.975   3.557  0.0916  0.9173  1.4704
 3753SOL     OW12157   4.543   6.622   6.693  0.5899  0.0473  0.0987
 3753SOL    HW112158   4.598   6.700   6.664 -1.6473  1.4835 -0.4612
 3753SOL    HW212159   4.463   6.612   6.634 -0.4853 -1.1582  1.6456
 3754SOL     OW12160   3.338   6.614   1.107 -0.3149  0.1151 -0.0987
 3754SOL    HW112161   3.349   6.574   1.016  0.5688  1.1295 -0.4603
 3754SOL    HW212162   3.404   6.688   1.119  0.5097 -0.8828  1.8861
 3755SOL     OW12163   1.831   2.436   5.710 -0.5578 -0.2803 -0.2013
 3755SOL    HW112164   1.747   2.435   5.655 -0.3858 -2.1118 -0.4954
 3755SOL    HW212165   1.853   2.343   5.739  1.0703  0.2424  0.3559
 3756SOL     OW12166   0.451   1.569   1.197  0.1752  0.7683 -0.1984
 3756SOL    HW112167   0.448   1.494   1.131 -0.3487  1.7125 -1.3000
 3756SOL    HW212168   0.528   1.555   1.260  0.0401 -0.7097 -0.3269
 3757SOL     OW12169   3.604   2.891   6.554 -0.2426 -0.3156  0.3954
 3757SOL    HW112170   3.655   2.933   6.628 -0.1452  0.0552  0.1207
 3757SOL    HW212171   3.639   2.924   6.466  0.0288 -1.1944  0.1676
 3758SOL     OW12172   2.725   5.198   1.769 -0.3487 -0.0111 -0.6200
 3758SOL    HW112173   2.671   5.184   1.686 -0.6845  0.4301 -0.4830
 3758SOL    HW212174   2.806   5.139   1.767  0.2927  0.8495 -1.8279
 3759SOL     OW12175   2.753   3.097   1.457  0.4726 -0.0618  0.3022
 3759SOL    HW112176   2.761   2.998   1.472  0.4640  0.1601  1.8450
 3759SOL    HW212177   2.844   3.136   1.440  0.3787 -0.4543 -1.3377
 3760SOL     OW12178   3.343   0.872   0.089  0.0688 -0.7141 -0.5689
 3760SOL    HW112179   3.311   0.920   0.170 -1.4640 -2.0182 -0.3493
 3760SOL    HW212180   3.434   0.833   0.108 -0.0971 -0.6730  0.3915
 3761SOL     OW12181   3.154   2.117   2.332 -0.8449 -0.0231  0.3023
 3761SOL    HW112182   3.209   2.142   2.252 -1.5819 -0.2908 -0.3016
 3761SOL    HW212183   3.075   2.063   2.303 -1.4778  0.4187  1.1401
 3762SOL     OW12184   0.448   4.778   1.174 -0.3726 -0.3536 -0.9126
 3762SOL    HW112185   0.466   4.835   1.094  1.7984  0.7930  0.3217
 3762SOL    HW212186   0.519   4.708   1.182 -0.4678 -0.3436  0.1129
 3763SOL     OW12187   6.848   0.308   6.112 -0.1758  0.0890  0.1665
 3763SOL    HW112188   6.767   0.328   6.056 -1.2336 -0.1190  1.5552
 3763SOL    HW212189   6.819   0.287   6.205  1.4710 -0.4599  0.5857
 3764SOL     OW12190   3.383   6.763   0.064  0.1023 -0.0102 -0.6404
 3764SOL    HW112191   3.284   6.759   0.049 -0.1729  1.0574  0.6684
 3764SOL    HW212192   3.415   6.858   0.055  0.2750  0.3764  2.7355
 3765SOL     OW12193   6.769   3.821   6.581 -0.1560 -0.0031 -0.3196
 3765SOL    HW112194   6.740   3.732   6.546  1.2918 -0.6364  0.0085
 3765SOL    HW212195   6.867   3.819   6.598 -0.2711  1.3620  0.6143
 3766SOL     OW12196   6.937   1.228   1.668 -0.1415 -0.3123  0.3400
 3766SOL    HW112197   6.903   1.297   1.604 -1.0362 -1.7510 -0.8033
 3766SOL    HW212198   6.865   1.207   1.734 -1.0209 -2.2833 -1.1675
 3767SOL     OW12199   0.264   2.734   0.245  0.2926  0.0546 -0.4492
 3767SOL    HW112200   0.188   2.729   0.180  0.2779  2.2483 -0.6712
 3767SOL    HW212201   0.351   2.733   0.195  0.4065 -1.5401 -0.2544
 3768SOL     OW12202   0.102   2.397   3.371  0.7580 -0.2894 -0.0759
 3768SOL    HW112203   0.072   2.302   3.374  0.0148 -0.0497  0.7759
 3768SOL    HW212204   0.174   2.411   3.439  1.4531 -0.4222 -0.7742
 3769SOL     OW12205   2.616   2.445   5.905 -0.1175 -0.4170 -0.3228
 3769SOL    HW112206   2.618   2.545   5.912  2.4641 -0.3260 -1.1394
 3769SOL    HW212207   2.640   2.417   5.812 -0.7230 -1.8085 -0.0918
 3770SOL     OW12208   0.547   3.116   2.139 -0.0812  0.5210 -0.5311
 3770SOL    HW112209   0.570   3.207   2.104  1.7242  0.0164 -0.7406
 3770SOL    HW212210   0.487   3.126   2.219 -2.3918  1.7514 -2.3050
 3771SOL     OW12211   5.619   2.064   0.470 -0.1805  0.3418 -0.4875
 3771SOL    HW112212   5.659   2.086   0.559 -1.8154 -0.0998  0.3954
 3771SOL    HW212213   5.586   1.970   0.470  0.0869  0.2324 -1.6774
 3772SOL     OW12214   0.258   4.626   3.052  0.1911  0.2234  0.3864
 3772SOL    HW112215   0.261   4.598   3.148 -2.9910  0.8178  0.7776
 3772SOL    HW212216   0.305   4.713   3.041 -0.0286  0.5131  1.5980
 3773SOL     OW12217   3.958   6.839   1.947  0.1433 -0.3003  0.0316
 3773SOL    HW112218   3.860   6.822   1.954  0.4287 -2.6086 -0.7994
 3773SOL    HW212219   4.001   6.822   2.035 -0.0500 -0.3310  0.1208
 3774SOL     OW12220   0.824   5.253   2.215  0.1091  0.0175 -0.4600
 3774SOL    HW112221   0.791   5.329   2.270  0.6712  1.1189 -1.6092
 3774SOL    HW212222   0.907   5.280   2.166 -0.0775 -1.1079 -1.4455
 3775SOL     OW12223   4.760   2.368   2.054 -0.5771 -0.5270  0.2981
 3775SOL    HW112224   4.799   2.434   2.119  0.2087 -0.5793 -0.1067
 3775SOL    HW212225   4.661   2.384   2.046 -0.2486  1.3195 -0.5988
 3776SOL     OW12226   4.748   4.156   1.135  0.0985  0.2484 -0.0668
 3776SOL    HW112227   4.685   4.144   1.058 -1.6064  1.2840  1.0811
 3776SOL    HW212228   4.731   4.086   1.204  1.5951 -0.6547 -0.5664
 3777SOL     OW12229   0.208   6.248   3.605  0.3029  0.2331  0.1742
 3777SOL    HW112230   0.148   6.224   3.681  1.1473 -0.4337  0.6414
 3777SOL    HW212231   0.247   6.339   3.620  3.5770 -1.3825  2.6064
 3778SOL     OW12232   6.319   3.768   5.424  0.4377  0.4790  0.5201
 3778SOL    HW112233   6.277   3.853   5.455 -1.3158 -0.6515  1.4136
 3778SOL    HW212234   6.316   3.701   5.498  2.1846 -0.2384 -0.0262
 3779SOL     OW12235   2.588   1.503   6.695  0.1729 -0.4448 -0.4583
 3779SOL    HW112236   2.625   1.588   6.734  0.1596 -0.3093 -0.7411
 3779SOL    HW212237   2.629   1.425   6.743  1.1048 -0.3111 -1.0036
 3780SOL     OW12238   4.833   2.662   6.657 -0.2853 -0.2707 -0.3877
 3780SOL    HW112239   4.850   2.619   6.568 -4.0114 -0.0745 -1.3998
 3780SOL    HW212240   4.888   2.617   6.727 -1.2978 -4.4251 -1.9236
 3781SOL     OW12241   4.596   3.688   1.091 -0.4665 -0.4515  0.0530
 3781SOL    HW112242   4.603   3.629   1.171 -0.2198 -0.2228  0.2062
 3781SOL    HW212243   4.688   3.719   1.065 -0.6682  0.6415  0.5724
 3782SOL     OW12244   5.998   2.004   4.097 -0.5506  0.2118 -0.6067
 3782SOL    HW112245   5.958   1.945   4.027  0.2097 -0.8026 -0.2121
 3782SOL    HW212246   6.046   1.948   4.164 -0.4267  1.2391  0.1903
 3783SOL     OW12247   3.350   3.243   2.780  0.6863  0.4023  0.0730
 3783SOL    HW112248   3.422   3.237   2.849 -1.5394 -0.0382  2.5333
 3783SOL    HW212249   3.275   3.298   2.815 -0.9117 -0.5261 -1.6984
 3784SOL     OW12250   4.541   2.512   2.398 -0.0122 -0.0632  0.0673
 3784SOL    HW112251   4.524   2.414   2.407  0.8169 -0.3892 -1.5625
 3784SOL    HW212252   4.537   2.555   2.488 -2.4940 -1.2152  0.5941
 3785SOL     OW12253   2.050   3.526   0.372  0.6549 -0.4297 -0.2343
 3785SOL    HW112254   2.081   3.462   0.442  1.8570 -0.7146 -0.9789
 3785SOL    HW212255   1.953   3.546   0.384  0.8005 -0.6074  1.3794
 3786SOL     OW12256   5.668   4.507   4.983  0.5886  0.6554 -0.0028
 3786SOL    HW112257   5.742   4.440   4.977 -0.7584 -1.0099  1.0081
 3786SOL    HW212258   5.632   4.508   5.076 -1.9296 -0.0540 -0.8932
 3787SOL     OW12259   1.946   1.077   3.398  0.0132 -0.0188  0.1482
 3787SOL    HW112260   1.901   1.159   3.363 -1.6971 -0.5325  1.0032
 3787SOL    HW212261   1.919   1.063   3.493 -0.1164 -1.8239 -0.1258
 3788SOL     OW12262   6.141   0.552   2.222 -0.3355  0.1637  0.2393
 3788SOL    HW112263   6.071   0.485   2.248  0.6736 -0.2983  1.9228
 3788SOL    HW212264   6.125   0.638   2.272  1.1745 -0.4759  1.9375
 3789SOL     OW12265   6.017   2.127   0.322  0.7090 -0.0587  0.1150
 3789SOL    HW112266   6.041   2.039   0.363  0.8834 -0.4323 -0.7689
 3789SOL    HW212267   5.932   2.117   0.270  0.9248  0.2091 -0.2908
 3790SOL     OW12268   2.829   1.695   5.910  0.2815  0.2433  0.0029
 3790SOL    HW112269   2.800   1.633   5.838  1.8497 -0.3685 -0.1321
 3790SOL    HW212270   2.879   1.644   5.980 -0.8376  0.8957  1.3366
 3791SOL     OW12271   4.314   1.577   1.067 -0.2713  0.2226 -0.2046
 3791SOL    HW112272   4.310   1.481   1.040  0.3557 -0.3038  1.4791
 3791SOL    HW212273   4.221   1.612   1.081 -0.4528 -0.8393  1.4637
 3792SOL     OW12274   0.381   5.116   2.391  0.0980 -0.1576 -0.0709
 3792SOL    HW112275   0.325   5.199   2.389  0.3471  0.0115 -1.4026
 3792SOL    HW212276   0.453   5.125   2.459 -1.4494 -0.3674  1.6613
 3793SOL     OW12277   2.872   6.308   1.418 -0.1274 -0.2059 -0.0301
 3793SOL    HW112278   2.858   6.217   1.457 -0.2835 -0.2145 -0.1067
 3793SOL    HW212279   2.870   6.376   1.492  1.9494 -0.4408  0.3048
 3794SOL     OW12280   2.729   4.790   4.823 -0.5111 -0.0472  0.3453
 3794SOL    HW112281   2.742   4.738   4.907 -2.1092 -1.1530 -0.0551
 3794SOL    HW212282   2.812   4.784   4.767  0.4597  0.4703  1.6870
 3795SOL     OW12283   4.260   5.341   2.000  0.5262 -0.0211 -0.7171
 3795SOL    HW112284   4.217   5.379   1.918 -0.4123  1.0536  0.2454
 3795SOL    HW212285   4.327   5.272   1.973 -0.6567 -0.6007 -2.3273
 3796SOL     OW12286   3.899   5.665   3.297 -0.4614 -0.8062  0.0455
 3796SOL    HW112287   3.880   5.649   3.394  1.5564 -1.2017  0.4166
 3796SOL    HW212288   3.955   5.747   3.287 -2.3662  0.4350 -1.0122
 3797SOL     OW12289   3.394   2.780   6.940  0.2603 -0.0909  0.0039
 3797SOL    HW112290   3.459   2.846   6.977  1.4138  0.6966 -3.0815
 3797SOL    HW212291   3.349   2.820   6.860 -0.9209 -2.1470 -0.4218
 3798SOL     OW12292   6.161   3.042   3.570 -0.0048 -0.1700 -0.5734
 3798SOL    HW112293   6.233   2.994   3.621 -0.1594 -1.9001 -1.9048
 3798SOL    HW212294   6.178   3.141   3.575  0.6483 -0.3341  1.7710
 3799SOL     OW12295   2.706   4.694   3.459 -0.0536  0.1550  0.1481
 3799SOL    HW112296   2.636   4.628   3.487 -0.1323  0.1790  0.0096
 3799SOL    HW212297   2.757   4.725   3.540 -1.2592  1.3546  0.4801
 3800SOL     OW12298   0.340   2.882   5.099  0.2721  0.1160 -0.1334
 3800SOL    HW112299   0.410   2.816   5.072 -0.1194 -1.2920  2.0133
 3800SOL    HW212300   0.378   2.945   5.167  0.5829  2.0917 -2.0153
 3801SOL     OW12301   1.268   1.794   1.555 -0.0610 -0.8456  0.5958
 3801SOL    HW112302   1.232   1.861   1.490 -2.1649 -1.4485  1.0780
 3801SOL    HW212303   1.336   1.736   1.509  0.9066  0.7953 -0.1452
 3802SOL     OW12304   5.673   3.512   3.872 -0.1485 -0.2399 -0.0882
 3802SOL    HW112305   5.624   3.496   3.958 -0.8280 -0.0652 -0.4432
 3802SOL    HW212306   5.686   3.610   3.859  0.0650 -0.2720 -0.1332
 3803SOL     OW12307   1.554   0.852   0.622 -0.0876  0.1879 -0.6326
 3803SOL    HW112308   1.542   0.939   0.670 -0.6166 -0.2144 -0.0084
 3803SOL    HW212309   1.597   0.868   0.533  2.6669  0.7752  0.7005
 3804SOL     OW12310   1.864   0.819   2.027 -0.0751  0.0414  0.2590
 3804SOL    HW112311   1.768   0.846   2.020 -0.1073  0.4689  1.8382
 3804SOL    HW212312   1.873   0.748   2.097  0.9693  1.4017  1.5809
 3805SOL     OW12313   0.197   1.670   1.107  0.0779  0.3589  0.0701
 3805SOL    HW112314   0.174   1.607   1.033 -0.5685 -1.5077  1.7613
 3805SOL    HW212315   0.271   1.632   1.162 -0.6162  0.8194  1.3846
 3806SOL     OW12316   5.099   3.071   0.997 -0.0657  0.0418  0.0138
 3806SOL    HW112317   5.057   3.150   1.042  1.1826 -0.6297  2.5571
 3806SOL    HW212318   5.156   3.021   1.063 -1.2221 -3.3241 -1.3163
 3807SOL     OW12319   2.946   5.454   4.875  0.1275  0.7197 -0.4073
 3807SOL    HW112320   2.993   5.426   4.792  1.1094  1.2528 -0.0521
 3807SOL    HW212321   2.993   5.416   4.955  0.9918  2.5825  0.0428
 3808SOL     OW12322   0.898   6.411   2.655  0.0759 -0.0801 -0.7075
 3808SOL    HW112323   0.891   6.311   2.648 -0.3463 -0.1287  0.2346
 3808SOL    HW212324   0.938   6.435   2.743 -1.1702  0.6131 -0.2990
 3809SOL     OW12325   5.426   1.579   4.731 -0.8079 -0.7430  0.0787
 3809SOL    HW112326   5.332   1.544   4.739 -1.6605  1.5347  1.0874
 3809SOL    HW212327   5.468   1.582   4.822 -0.0619 -0.9589 -0.2536
 3810SOL     OW12328   1.477   5.639   5.826  0.1300 -0.3169  0.6586
 3810SOL    HW112329   1.406   5.709   5.829 -1.5108 -1.9239  2.7174
 3810SOL    HW212330   1.510   5.622   5.919  1.4772 -1.3418  0.0283
 3811SOL     OW12331   4.424   6.820   2.772 -0.2457  0.1251  0.0644
 3811SOL    HW112332   4.506   6.840   2.719  0.2640  1.0572  1.1471
 3811SOL    HW212333   4.371   6.904   2.784 -0.0734  0.0723  1.4461
 3812SOL     OW12334   1.483   0.309   4.751 -0.4880  0.5251  0.3642
 3812SOL    HW112335   1.408   0.306   4.817 -0.2031  3.7995  1.0294
 3812SOL    HW212336   1.553   0.373   4.784  0.0025  1.7395 -2.7304
 3813SOL     OW12337   1.311   1.891   2.029  0.2533  0.5627  0.1798
 3813SOL    HW112338   1.225   1.842   2.031  1.5548 -1.8978  2.7160
 3813SOL    HW212339   1.338   1.909   1.934 -1.4133 -1.6229 -0.7694
 3814SOL     OW12340   6.575   2.987   5.496 -0.9695  0.1619  0.7627
 3814SOL    HW112341   6.496   2.932   5.471 -0.2293 -1.0493  0.9920
 3814SOL    HW212342   6.545   3.075   5.533 -2.2642 -0.9166  2.3979
 3815SOL     OW12343   6.975   3.106   0.736  0.0977  0.5407 -0.0710
 3815SOL    HW112344   6.899   3.041   0.733 -1.8329  2.5086  2.5538
 3815SOL    HW212345   6.971   3.159   0.820  3.1472  2.2933 -0.8809
 3816SOL     OW12346   0.818   2.393   2.292 -0.0885 -0.4009  0.2332
 3816SOL    HW112347   0.782   2.306   2.325  0.0077 -0.4425  0.2289
 3816SOL    HW212348   0.903   2.414   2.340 -0.2046 -0.2215  0.3610
 3817SOL     OW12349   1.980   6.534   1.974  0.4194 -0.1698 -0.0299
 3817SOL    HW112350   1.910   6.586   1.925  1.3611 -0.1092 -1.3690
 3817SOL    HW212351   2.028   6.595   2.037  0.0070  0.0440  0.0836
 3818SOL     OW12352   4.299   0.592   1.781 -0.1856  0.6504 -0.0212
 3818SOL    HW112353   4.360   0.632   1.850  0.7149 -0.6677 -0.0277
 3818SOL    HW212354   4.344   0.514   1.738 -1.1539  0.8190 -1.3776
 3819SOL     OW12355   0.150   0.689   3.740  0.3059  0.5912 -0.5673
 3819SOL    HW112356   0.245   0.709   3.765  0.3584  1.1760 -1.2110
 3819SOL    HW212357   0.101   0.655   3.820  1.9834 -3.2214 -0.9133
 3820SOL     OW12358   2.968   1.535   0.514 -0.5390 -0.5277 -0.9515
 3820SOL    HW112359   2.945   1.625   0.477  0.3970 -0.8894 -2.4905
 3820SOL    HW212360   2.888   1.475   0.507 -0.8696 -0.1023 -0.8421
 3821SOL     OW12361   1.569   2.558   1.756  0.2162  0.1080 -0.2341
 3821SOL    HW112362   1.628   2.482   1.727  0.6142  0.5431 -0.5826
 3821SOL    HW212363   1.473   2.534   1.740  0.3325 -0.3603 -0.2442
 3822SOL     OW12364   6.509   3.969   2.329 -0.3209 -0.8355 -0.0747
 3822SOL    HW112365   6.505   3.935   2.423 -3.4873 -0.8081 -0.0669
 3822SOL    HW212366   6.559   3.904   2.272  0.0613 -1.7828  1.3038
 3823SOL     OW12367   1.425   4.483   3.216 -0.1298  0.0912  0.1398
 3823SOL    HW112368   1.356   4.542   3.173 -0.8750 -0.3645  0.6857
 3823SOL    HW212369   1.501   4.539   3.248  0.2621  0.4879 -1.4081
 3824SOL     OW12370   0.870   1.960   4.827 -0.2843  0.0237 -0.4219
 3824SOL    HW112371   0.827   1.878   4.863  0.8293 -0.2054  0.4785
 3824SOL    HW212372   0.967   1.942   4.810 -0.3918  0.6659 -1.8628
 3825SOL     OW12373   1.613   6.449   4.543  0.3370  0.1806  0.5719
 3825SOL    HW112374   1.532   6.392   4.561  0.8242 -1.2973 -1.5321
 3825SOL    HW212375   1.587   6.527   4.487 -0.0105  1.1044  1.9585
 3826SOL     OW12376   3.836   1.036   5.276 -0.8363 -0.2725 -0.4584
 3826SOL    HW112377   3.855   1.087   5.192 -0.1773 -1.1037 -0.8337
 3826SOL    HW212378   3.904   1.059   5.346 -0.7185 -0.4071 -0.5280
 3827SOL     OW12379   0.724   3.612   3.621 -0.8940  0.1321  0.8659
 3827SOL    HW112380   0.699   3.707   3.638 -1.1097  0.1385  0.5199
 3827SOL    HW212381   0.766   3.573   3.703  2.1323  1.4756  0.1147
 3828SOL     OW12382   5.157   1.451   4.765 -0.6820  0.5568 -0.2351
 3828SOL    HW112383   5.087   1.472   4.834  1.6858 -1.3737  3.0044
 3828SOL    HW212384   5.142   1.359   4.729 -0.1303  0.3330  0.0964
 3829SOL     OW12385   6.027   0.161   2.468  1.0465  0.2111  0.4873
 3829SOL    HW112386   6.007   0.149   2.565 -3.9330 -1.8993 -0.5395
 3829SOL    HW212387   6.066   0.076   2.431  0.5839  0.1364  0.1684
 3830SOL     OW12388   4.642   0.330   3.122 -0.7927 -0.5508 -0.1171
 3830SOL    HW112389   4.571   0.289   3.180 -0.7622 -0.3079  0.0913
 3830SOL    HW212390   4.635   0.429   3.126 -0.9732 -0.5332 -0.7556
 3831SOL     OW12391   1.190   5.834   5.337  0.3261  0.1844  0.0064
 3831SOL    HW112392   1.281   5.818   5.299  0.5526  0.1307  0.5693
 3831SOL    HW212393   1.121   5.799   5.273  0.6853  0.4945 -0.5596
 3832SOL     OW12394   6.427   1.351   1.992  0.3517 -0.3223  0.1046
 3832SOL    HW112395   6.415   1.254   1.974 -1.5727 -0.3377  1.3106
 3832SOL    HW212396   6.344   1.401   1.967  1.6885  1.2226 -1.5917
 3833SOL     OW12397   0.480   3.476   2.950  0.6077 -0.3393  0.1041
 3833SOL    HW112398   0.413   3.417   2.995 -1.2267  1.9646  0.5685
 3833SOL    HW212399   0.461   3.479   2.851 -2.0184  2.5798  0.5635
 3834SOL     OW12400   1.271   5.434   0.739  0.2089 -0.0917  0.2784
 3834SOL    HW112401   1.285   5.476   0.650 -0.9608  3.5800  1.6618
 3834SOL    HW212402   1.344   5.462   0.802 -0.0623 -1.0111  1.0415
 3835SOL     OW12403   4.232   1.518   1.604 -0.2339  0.1595 -0.6939
 3835SOL    HW112404   4.206   1.498   1.698  2.5164  0.3572  0.2028
 3835SOL    HW212405   4.232   1.434   1.550 -0.3686 -0.2162 -0.1157
 3836SOL     OW12406   0.872   2.363   1.448 -0.2472 -0.3065  0.1103
 3836SOL    HW112407   0.948   2.404   1.398 -0.7384 -0.5418 -0.8449
 3836SOL    HW212408   0.831   2.432   1.509 -0.2913  0.2875 -0.5757
 3837SOL     OW12409   5.318   6.043   2.578  0.5575  0.2776 -0.0913
 3837SOL    HW112410   5.320   6.139   2.608  3.1814  0.5217 -0.8214
 3837SOL    HW212411   5.302   6.040   2.480 -0.1698 -0.0840  0.0359
 3838SOL     OW12412   3.829   1.849   3.045 -0.2791  0.5778  0.0303
 3838SOL    HW112413   3.781   1.840   3.132 -0.6889  0.3861 -0.2138
 3838SOL    HW212414   3.812   1.768   2.988 -2.0283  1.7559 -1.2092
 3839SOL     OW12415   5.696   0.795   6.014 -0.8563  0.3815  0.4720
 3839SOL    HW112416   5.627   0.794   5.941 -1.8209 -0.6858  1.3719
 3839SOL    HW212417   5.768   0.730   5.993 -0.8549  0.4692  0.2055
 3840SOL     OW12418   6.287   2.145   0.465  0.4592  0.4433 -0.3570
 3840SOL    HW112419   6.219   2.073   0.470  1.4311 -0.4428  0.9276
 3840SOL    HW212420   6.363   2.116   0.406  0.5570  0.6846 -0.3533
 3841SOL     OW12421   5.258   5.047   0.078 -0.0444  0.2393  0.2986
 3841SOL    HW112422   5.349   5.078   0.103  0.2663  1.1310 -1.7443
 3841SOL    HW212423   5.202   5.038   0.161  1.2664  1.6600  1.3945
 3842SOL     OW12424   3.441   2.476   0.337 -0.5373 -0.2738 -0.7006
 3842SOL    HW112425   3.410   2.562   0.296 -0.2891 -0.0081 -0.3382
 3842SOL    HW212426   3.540   2.468   0.327 -0.6011 -0.6948 -1.0566
 3843SOL     OW12427   2.109   2.126   3.286  0.0099  0.3386  0.0849
 3843SOL    HW112428   2.018   2.168   3.288 -0.1348  0.0164  1.3867
 3843SOL    HW212429   2.161   2.156   3.366  2.0054  2.4830 -1.8768
 3844SOL     OW12430   2.962   2.157   2.706  0.1415 -0.0213 -0.2188
 3844SOL    HW112431   3.061   2.153   2.690  0.4096  1.1921  1.0433
 3844SOL    HW212432   2.944   2.191   2.798 -1.4294 -2.3956  0.4574
 3845SOL     OW12433   4.119   1.977   4.623 -0.2647 -0.1990 -0.3081
 3845SOL    HW112434   4.108   1.956   4.720  1.3541  1.0060  0.1826
 3845SOL    HW212435   4.063   2.056   4.600 -1.6033 -1.2283 -0.6785
 3846SOL     OW12436   1.409   4.499   5.520 -0.1191  0.5147  0.2051
 3846SOL    HW112437   1.333   4.436   5.536 -1.3991  1.8438 -0.3962
 3846SOL    HW212438   1.495   4.453   5.542 -0.7033 -2.4164 -2.8409
 3847SOL     OW12439   1.750   5.736   4.180 -0.4399 -0.5495  0.4933
 3847SOL    HW112440   1.791   5.824   4.202 -1.0249 -0.0054 -0.5337
 3847SOL    HW212441   1.709   5.697   4.262  0.5455 -0.2669  1.1393
 3848SOL     OW12442   3.507   0.504   2.035  0.1977 -0.0485 -0.7506
 3848SOL    HW112443   3.603   0.504   2.062  0.3897  1.3558 -1.3662
 3848SOL    HW212444   3.493   0.434   1.965  0.0325 -2.5652  1.6194
 3849SOL     OW12445   6.593   2.179   3.139  0.8327 -0.1729  0.1496
 3849SOL    HW112446   6.644   2.113   3.083  1.1063 -0.3984  0.6587
 3849SOL    HW212447   6.639   2.190   3.227 -0.0962 -0.5156  0.6877
 3850SOL     OW12448   0.957   4.712   0.672 -0.0749 -0.7956 -0.4216
 3850SOL    HW112449   1.048   4.693   0.710  0.0551  0.9964  0.2774
 3850SOL    HW212450   0.887   4.673   0.733  0.1760  0.7253  0.9217
 3851SOL     OW12451   2.365   1.364   6.803 -0.8243  0.7235 -0.3743
 3851SOL    HW112452   2.308   1.434   6.847 -1.0851  0.5442 -0.4209
 3851SOL    HW212453   2.423   1.407   6.734 -0.7231  0.9441 -0.1566
 3852SOL     OW12454   4.514   2.851   1.221 -0.9511 -0.0577 -0.0352
 3852SOL    HW112455   4.463   2.792   1.283 -0.1358 -0.9268 -0.1669
 3852SOL    HW212456   4.603   2.810   1.201 -1.0059  0.4332 -1.4105
 3853SOL     OW12457   0.061   3.493   5.362  0.1885 -0.0357 -0.5442
 3853SOL    HW112458   0.150   3.452   5.380 -0.7153 -1.9362 -0.1177
 3853SOL    HW212459   0.044   3.566   5.428  0.6230 -0.9840  0.6584
 3854SOL     OW12460   5.695   4.374   1.639  0.2889  0.3356  0.7424
 3854SOL    HW112461   5.619   4.412   1.692  1.0090  0.9601  1.3567
 3854SOL    HW212462   5.664   4.292   1.590 -1.7080  2.3513 -1.6782
 3855SOL     OW12463   3.924   1.264   6.128  0.0691  0.0180  0.1792
 3855SOL    HW112464   3.947   1.251   6.224  0.1383  1.0522  0.3075
 3855SOL    HW212465   3.972   1.344   6.092 -2.8142  1.9267  0.2932
 3856SOL     OW12466   2.149   4.753   4.674 -0.3938 -0.1351 -0.0939
 3856SOL    HW112467   2.120   4.843   4.639 -1.1326 -0.5839 -0.6567
 3856SOL    HW212468   2.224   4.766   4.738 -0.1861  0.8610 -0.5063
 3857SOL     OW12469   2.654   1.583   2.041  0.1878 -0.2944  0.3002
 3857SOL    HW112470   2.745   1.613   2.013  0.7015 -2.8595 -1.0998
 3857SOL    HW212471   2.658   1.544   2.133  0.1763  0.8875  0.8135
 3858SOL     OW12472   5.730   2.915   3.905 -0.2083  0.3210  0.6926
 3858SOL    HW112473   5.710   2.827   3.861  0.3277  0.1622  0.7618
 3858SOL    HW212474   5.742   2.900   4.003  3.7031 -0.2203  0.2899
 3859SOL     OW12475   1.897   0.745   1.741  0.0408 -0.7033 -0.8769
 3859SOL    HW112476   1.990   0.727   1.709  0.4411  1.1432 -0.8448
 3859SOL    HW212477   1.899   0.773   1.837 -0.7718 -2.4822 -0.2930
 3860SOL     OW12478   6.320   3.829   1.157  0.0787 -0.5607  0.2370
 3860SOL    HW112479   6.275   3.911   1.193  1.5570 -0.2866  1.5714
 3860SOL    HW212480   6.363   3.851   1.070  0.1758  0.0036  0.4221
 3861SOL     OW12481   0.472   5.659   5.669 -0.3974 -0.4070  0.4962
 3861SOL    HW112482   0.433   5.734   5.722  0.6315 -1.0579  2.2398
 3861SOL    HW212483   0.442   5.572   5.707 -0.4251 -0.9128 -0.6224
 3862SOL     OW12484   2.677   2.819   0.415 -0.5212  0.8812  0.1700
 3862SOL    HW112485   2.761   2.863   0.447 -0.1434  0.4033 -0.1446
 3862SOL    HW212486   2.632   2.774   0.492  0.3128 -0.1459  0.0726
 3863SOL     OW12487   6.868   1.069   2.360  0.5222 -0.0901  0.1088
 3863SOL    HW112488   6.913   1.096   2.445  0.1716  0.0736  0.2478
 3863SOL    HW212489   6.820   0.982   2.374 -1.1544  0.8696  0.6757
 3864SOL     OW12490   4.914   3.756   4.781 -0.3470 -0.4777 -0.3538
 3864SOL    HW112491   4.846   3.829   4.775  1.4483  1.3333  0.1427
 3864SOL    HW212492   4.891   3.694   4.855 -0.9253  0.7108  0.4917
 3865SOL     OW12493   4.085   1.670   4.765  0.1193 -0.6176  0.4078
 3865SOL    HW112494   4.145   1.737   4.810  1.6554 -2.1072  0.6971
 3865SOL    HW212495   4.108   1.664   4.668 -0.1501 -0.5971  0.3407
 3866SOL     OW12496   0.674   0.874   5.314  0.3829  0.1019  0.3482
 3866SOL    HW112497   0.601   0.877   5.246  0.2841  0.0162  0.4486
 3866SOL    HW212498   0.737   0.799   5.293 -0.3733 -0.7778  1.0743
 3867SOL     OW12499   3.200   5.823   5.207  0.0838  0.1501  0.0566
 3867SOL    HW112500   3.190   5.724   5.212  2.3459 -0.1179  0.4654
 3867SOL    HW212501   3.185   5.853   5.113 -0.0389 -0.6743 -0.1957
 3868SOL     OW12502   2.990   0.729   0.958  0.5847 -0.8519  0.5663
 3868SOL    HW112503   2.893   0.709   0.966  0.8635 -2.0854  1.1334
 3868SOL    HW212504   3.028   0.678   0.880  0.8423 -0.6132  0.5326
 3869SOL     OW12505   0.627   2.011   0.713  0.2190  0.1584  0.0103
 3869SOL    HW112506   0.658   1.923   0.677 -0.7145 -0.6028  1.0039
 3869SOL    HW212507   0.556   2.049   0.653 -0.4454 -0.5089  0.3509
 3870SOL     OW12508   4.065   6.786   4.110 -0.3107  0.0322 -0.1451
 3870SOL    HW112509   4.014   6.864   4.146 -2.7384 -0.3060 -2.5432
 3870SOL    HW212510   4.090   6.804   4.014 -1.5392 -2.3444 -0.9759
 3871SOL     OW12511   5.017   3.650   4.553 -0.0235  0.2563  0.0093
 3871SOL    HW112512   4.965   3.694   4.627 -0.7241  0.8022 -0.7834
 3871SOL    HW212513   5.114   3.674   4.561 -0.0610  0.1317  0.8707
 3872SOL     OW12514   5.191   4.838   3.509 -0.1997  0.1845  0.0989
 3872SOL    HW112515   5.186   4.738   3.503 -0.8139  0.2131  0.0287
 3872SOL    HW212516   5.100   4.874   3.531  0.1066  0.7004  0.5298
 3873SOL     OW12517   3.235   1.682   6.031 -0.4012 -0.1490 -0.4854
 3873SOL    HW112518   3.194   1.705   5.943 -0.8132  2.2809  0.2740
 3873SOL    HW212519   3.171   1.702   6.105  0.3314 -1.1335  0.4556
 3874SOL     OW12520   0.423   4.635   5.382 -0.4535 -0.8015 -0.4353
 3874SOL    HW112521   0.333   4.653   5.341  0.6958  1.8518 -2.0887
 3874SOL    HW212522   0.474   4.572   5.324 -0.5232 -0.7018 -0.6066
 3875SOL     OW12523   0.157   3.987   3.053 -0.5588  0.1543  0.2056
 3875SOL    HW112524   0.102   4.054   3.104 -1.5777  0.0912 -0.7828
 3875SOL    HW212525   0.243   3.972   3.101 -2.0907 -1.0665  2.8105
 3876SOL     OW12526   0.446   2.516   4.970 -0.3887 -0.3143  0.5242
 3876SOL    HW112527   0.437   2.524   4.871  2.1105  0.0754  0.2516
 3876SOL    HW212528   0.509   2.586   5.003  0.8810 -2.0576  1.9957
 3877SOL     OW12529   1.628   5.685   3.561  0.2602 -0.2742  0.4276
 3877SOL    HW112530   1.683   5.635   3.494 -1.7155  0.1781 -1.6290
 3877SOL    HW212531   1.563   5.623   3.604  0.8627 -0.3578  1.2444
 3878SOL     OW12532   1.487   0.625   2.478  0.0570 -0.2974  0.2255
 3878SOL    HW112533   1.558   0.568   2.437  0.5706  0.2825  0.2946
 3878SOL    HW212534   1.523   0.668   2.561 -0.4133 -0.0920  0.3222
 3879SOL     OW12535   0.746   3.989   4.052  0.5742  0.3491 -0.0284
 3879SOL    HW112536   0.677   4.004   4.124  0.8665  1.0663  0.1105
 3879SOL    HW212537   0.738   4.060   3.983  1.1361  0.3982 -0.0467
 3880SOL     OW12538   3.883   5.755   4.637 -0.5610 -0.5925  0.1382
 3880SOL    HW112539   3.922   5.783   4.724 -0.3852 -0.2045 -0.0593
 3880SOL    HW212540   3.787   5.783   4.633 -0.7449 -1.1809  0.4620
 3881SOL     OW12541   2.407   4.773   3.119 -0.0883 -0.1706 -0.2726
 3881SOL    HW112542   2.350   4.740   3.043 -0.2510  1.6648 -0.9889
 3881SOL    HW212543   2.350   4.816   3.188  0.3904  2.1254 -1.2261
 3882SOL     OW12544   2.690   4.640   2.254  0.5728 -0.0853  0.3779
 3882SOL    HW112545   2.755   4.587   2.200 -0.2833  1.6760 -2.6485
 3882SOL    HW212546   2.597   4.620   2.223 -0.0446  0.2392  1.9537
 3883SOL     OW12547   6.820   1.629   4.432 -0.4241  0.0607  0.1826
 3883SOL    HW112548   6.797   1.543   4.385 -1.4526  0.5141 -0.1724
 3883SOL    HW212549   6.914   1.625   4.464  0.3176 -0.2937 -1.8829
 3884SOL     OW12550   0.308   1.220   1.086 -0.1920  0.4818  0.0598
 3884SOL    HW112551   0.225   1.274   1.071 -1.0581  0.2054  3.1831
 3884SOL    HW212552   0.306   1.182   1.178  0.9600 -3.9154 -1.5168
 3885SOL     OW12553   4.371   6.059   5.644  0.3863 -0.1265  0.4028
 3885SOL    HW112554   4.337   5.996   5.574 -0.0073  0.4856  0.0268
 3885SOL    HW212555   4.308   6.061   5.721  0.0008  0.3541  0.0864
 3886SOL     OW12556   0.067   4.349   6.084 -0.4167  0.6888 -0.4447
 3886SOL    HW112557   0.077   4.310   5.993 -3.2974  0.7089 -0.8502
 3886SOL    HW212558   0.110   4.439   6.087  0.0657  0.5118 -1.6329
 3887SOL     OW12559   5.149   4.772   3.808 -0.1277  0.4940  0.4822
 3887SOL    HW112560   5.226   4.729   3.762 -0.9912 -1.2458  0.5689
 3887SOL    HW212561   5.112   4.845   3.751  0.2978 -0.0311 -0.4772
 3888SOL     OW12562   0.970   0.339   5.401 -0.2164  0.0013 -0.0528
 3888SOL    HW112563   0.989   0.284   5.482 -0.4872  0.9205  0.6349
 3888SOL    HW212564   0.883   0.386   5.411  0.7629  1.8798  0.1074
 3889SOL     OW12565   3.053   6.413   0.167 -0.2680  0.4838 -0.6412
 3889SOL    HW112566   2.995   6.443   0.092 -0.0192  1.1675 -0.5677
 3889SOL    HW212567   2.998   6.363   0.234 -0.6585  0.6394 -0.8458
 3890SOL     OW12568   0.158   1.248   4.362  0.4268 -0.5149 -0.0489
 3890SOL    HW112569   0.129   1.178   4.297 -0.9541 -0.1770  0.1827
 3890SOL    HW212570   0.257   1.263   4.353  0.3543 -0.8349 -1.7084
 3891SOL     OW12571   4.699   3.694   6.729  0.3120 -0.0198  0.0302
 3891SOL    HW112572   4.655   3.782   6.747  0.6802  0.0015  0.8678
 3891SOL    HW212573   4.655   3.622   6.783  0.8785 -0.1108  0.3804
 3892SOL     OW12574   4.347   0.562   3.284 -0.5583 -0.6508 -0.2778
 3892SOL    HW112575   4.264   0.598   3.242 -0.0420  0.2274 -0.5664
 3892SOL    HW212576   4.375   0.479   3.237 -1.8847 -1.6176  0.5316
 3893SOL     OW12577   5.789   4.227   5.343 -0.3337 -0.2449  0.1824
 3893SOL    HW112578   5.836   4.222   5.431 -1.0769  1.1855  0.6935
 3893SOL    HW212579   5.850   4.195   5.271  0.6004 -0.6056  1.1009
 3894SOL     OW12580   3.462   4.905   3.382 -0.6820 -0.2320 -0.1564
 3894SOL    HW112581   3.528   4.857   3.324 -1.1902 -2.5816  1.0981
 3894SOL    HW212582   3.500   4.916   3.473 -1.0298  0.8123 -0.1188
 3895SOL     OW12583   5.538   4.144   3.051 -0.9468 -0.0699  0.1085
 3895SOL    HW112584   5.500   4.089   2.976 -1.0475 -1.5493  1.1954
 3895SOL    HW212585   5.631   4.172   3.027 -0.6939 -1.1815 -0.2785
 3896SOL     OW12586   5.632   1.278   2.501 -0.0378 -0.1248 -0.2138
 3896SOL    HW112587   5.672   1.287   2.593 -0.4987  2.2512 -0.1765
 3896SOL    HW212588   5.565   1.351   2.487  0.4618 -0.0620 -2.6704
 3897SOL     OW12589   2.859   2.455   6.383  0.3377  0.3252 -0.0593
 3897SOL    HW112590   2.863   2.402   6.299  0.2377  0.0682  0.0983
 3897SOL    HW212591   2.765   2.484   6.401  0.1562 -0.6047  0.5706
 3898SOL     OW12592   3.974   4.650   6.892  0.4963  0.5930  0.9723
 3898SOL    HW112593   3.943   4.688   6.805 -0.5097 -0.3983  0.8743
 3898SOL    HW212594   4.073   4.634   6.888  0.4442  0.4472 -0.0293
 3899SOL     OW12595   3.828   0.723   0.892  0.6631  0.3055  0.0474
 3899SOL    HW112596   3.768   0.784   0.944  0.8616  1.1528 -0.6840
 3899SOL    HW212597   3.794   0.630   0.898  0.3068  0.4859  1.1350
 3900SOL     OW12598   2.334   1.365   6.024  0.5883 -0.6537  0.1999
 3900SOL    HW112599   2.282   1.312   5.956  0.7475  2.0361 -2.2151
 3900SOL    HW212600   2.284   1.366   6.110 -1.7332 -0.8758 -1.0500
 3901SOL     OW12601   4.164   1.211   3.932  0.2900 -0.2443  0.7500
 3901SOL    HW112602   4.064   1.210   3.945  0.1593  1.7968  0.2247
 3901SOL    HW212603   4.209   1.209   4.022 -0.2232 -0.8317  1.0013
 3902SOL     OW12604   5.507   6.901   4.299  0.0506 -0.4652 -0.0988
 3902SOL    HW112605   5.476   6.831   4.234  2.3273 -0.0093 -1.8020
 3902SOL    HW212606   5.540   6.981   4.249  1.3290  0.1638  1.6407
 3903SOL     OW12607   2.636   3.583   1.334  0.0607  0.0186  0.1326
 3903SOL    HW112608   2.602   3.636   1.412 -0.7935 -1.9407  1.1669
 3903SOL    HW212609   2.736   3.587   1.332  0.0481  0.8746  0.7462
 3904SOL     OW12610   5.486   2.564   4.869  0.0633  0.0665  0.0666
 3904SOL    HW112611   5.427   2.485   4.886  0.5972 -1.0046 -2.5221
 3904SOL    HW212612   5.535   2.551   4.783  0.1607  3.2528 -0.4970
 3905SOL     OW12613   6.541   2.582   3.539  0.1050 -0.4268 -0.0334
 3905SOL    HW112614   6.503   2.528   3.463 -2.3594 -0.0877  0.8754
 3905SOL    HW212615   6.498   2.554   3.625 -0.4118  2.1836  0.6335
 3906SOL     OW12616   6.866   0.269   5.178  0.3596  0.1161  0.4243
 3906SOL    HW112617   6.940   0.288   5.243  0.5684 -0.5464  0.3808
 3906SOL    HW212618   6.778   0.292   5.220  0.3925 -1.3743  1.3721
 3907SOL     OW12619   3.150   2.171   6.286 -0.2545  0.1848 -0.1155
 3907SOL    HW112620   3.053   2.161   6.311  0.3701 -0.7415  2.1883
 3907SOL    HW212621   3.192   2.241   6.343  0.2412  1.3418 -1.8306
 3908SOL     OW12622   6.645   3.523   4.766  0.4648  0.5063  0.4570
 3908SOL    HW112623   6.558   3.551   4.726 -0.3716 -2.1301  0.2346
 3908SOL    HW212624   6.714   3.515   4.693 -0.1023 -0.8034  0.0204
 3909SOL     OW12625   1.417   5.034   0.582 -0.5053  0.1989  0.0909
 3909SOL    HW112626   1.346   4.973   0.619 -1.2632  0.9942 -0.0228
 3909SOL    HW212627   1.375   5.119   0.550  0.6701  1.3251  1.3845
 3910SOL     OW12628   1.424   2.422   5.887  0.2246 -0.0878  0.2450
 3910SOL    HW112629   1.333   2.460   5.869  0.0314  0.1485  1.6239
 3910SOL    HW212630   1.441   2.346   5.825 -0.3842  0.6720 -0.8934
 3911SOL     OW12631   6.535   2.500   6.452 -0.0586  0.3176  0.4172
 3911SOL    HW112632   6.473   2.534   6.523 -0.9458 -1.7424  0.7026
 3911SOL    HW212633   6.496   2.517   6.362 -0.8017 -0.4547  0.5776
 3912SOL     OW12634   1.416   2.175   0.207 -0.3647  0.2420  0.6861
 3912SOL    HW112635   1.355   2.254   0.200  0.5321  0.9479  0.6280
 3912SOL    HW212636   1.499   2.192   0.155  0.9116  0.3144  2.6212
 3913SOL     OW12637   1.621   5.442   3.951 -0.2967 -0.5328  0.0937
 3913SOL    HW112638   1.708   5.490   3.957 -0.9922  0.6016  2.2815
 3913SOL    HW212639   1.546   5.507   3.956 -1.3263 -1.4943 -1.6864
 3914SOL     OW12640   0.627   5.012   6.266  0.0356 -0.5400 -0.2837
 3914SOL    HW112641   0.651   5.109   6.278  2.4702 -1.3019  2.3968
 3914SOL    HW212642   0.534   4.996   6.298  0.3241  0.6366  1.2523
 3915SOL     OW12643   2.626   2.694   5.630 -0.1415  0.1620  0.2039
 3915SOL    HW112644   2.634   2.729   5.723  0.2606 -0.9333  0.5976
 3915SOL    HW212645   2.529   2.694   5.603 -0.0292  3.4862 -0.6228
 3916SOL     OW12646   4.843   6.898   4.626  0.2175 -0.4153 -0.8324
 3916SOL    HW112647   4.908   6.827   4.652 -1.3151 -1.0134  1.7728
 3916SOL    HW212648   4.886   6.988   4.634  1.1170 -0.8580 -0.6077
 3917SOL     OW12649   6.763   0.250   6.356 -0.0755 -0.3157  0.4027
 3917SOL    HW112650   6.710   0.332   6.376 -0.5729 -0.3104 -0.8301
 3917SOL    HW212651   6.819   0.226   6.435  1.2541  2.0788  0.2663
 3918SOL     OW12652   4.177   4.950   5.643  0.8245  0.0953  0.5629
 3918SOL    HW112653   4.150   5.017   5.574  2.3463 -0.8998 -1.0923
 3918SOL    HW212654   4.275   4.956   5.659  0.7467 -0.7583  1.4870
 3919SOL     OW12655   3.739   0.538   0.620  0.3521 -0.2557 -0.6617
 3919SOL    HW112656   3.729   0.442   0.645 -0.5760  0.1605  0.6937
 3919SOL    HW212657   3.706   0.596   0.695  1.0099  1.1272 -1.3966
 3920SOL     OW12658   1.473   6.781   6.483 -0.0870 -0.0597 -1.0850
 3920SOL    HW112659   1.394   6.772   6.423 -0.5081  2.1686 -0.9309
 3920SOL    HW212660   1.530   6.857   6.452 -0.4154  1.3009  1.3633
 3921SOL     OW12661   1.042   3.715   0.382 -0.2611  0.1512 -0.1454
 3921SOL    HW112662   1.056   3.617   0.369 -2.2097 -0.2804  0.6534
 3921SOL    HW212663   1.131   3.762   0.379  0.7167 -1.6232 -0.4730
 3922SOL     OW12664   6.389   3.141   1.605  0.2482  0.3504 -0.6858
 3922SOL    HW112665   6.350   3.231   1.585  0.1511  0.4571 -0.0456
 3922SOL    HW212666   6.337   3.098   1.678 -0.1927 -0.5752 -1.5343
 3923SOL     OW12667   6.761   1.935   6.019  0.4104 -0.0596  0.1437
 3923SOL    HW112668   6.742   1.896   5.929 -1.1224 -0.2965  0.5300
 3923SOL    HW212669   6.859   1.939   6.035  0.6644 -1.0749 -1.0759
 3924SOL     OW12670   6.944   5.074   2.883 -0.2455 -0.1826  0.4236
 3924SOL    HW112671   6.999   5.157   2.882  0.2111 -0.4530  1.7167
 3924SOL    HW212672   6.993   5.000   2.838 -0.0492 -0.1156  0.5287
 3925SOL     OW12673   3.902   1.060   0.940  0.6916 -0.0690  0.1611
 3925SOL    HW112674   3.905   1.118   0.859  0.9237  1.3823  1.1697
 3925SOL    HW212675   3.806   1.039   0.963  0.6395 -0.7953 -0.6781
 3926SOL     OW12676   6.192   2.897   1.144  0.5580  0.6909 -0.4690
 3926SOL    HW112677   6.289   2.910   1.122  1.4018 -1.4810  1.4283
 3926SOL    HW212678   6.184   2.823   1.211 -2.3471  1.5903  0.3061
 3927SOL     OW12679   5.374   6.148   5.856 -0.2458  0.4084  0.2885
 3927SOL    HW112680   5.301   6.216   5.850  0.4735  1.3302  1.4582
 3927SOL    HW212681   5.356   6.087   5.933 -0.5547 -0.3342 -0.3631
 3928SOL     OW12682   1.230   2.351   0.088 -0.5240 -0.2179  0.7080
 3928SOL    HW112683   1.140   2.368   0.049 -0.5813 -0.2330  0.8332
 3928SOL    HW212684   1.293   2.423   0.060 -0.9599  0.6496  1.8871
 3929SOL     OW12685   2.691   1.654   5.045 -0.1954  0.0615 -0.3083
 3929SOL    HW112686   2.768   1.625   5.102 -0.7139 -0.1614  0.2931
 3929SOL    HW212687   2.608   1.610   5.077 -0.7945  1.2525 -0.1615
 3930SOL     OW12688   6.369   3.383   5.831  0.1069 -0.6344 -0.2184
 3930SOL    HW112689   6.434   3.315   5.864  0.3864  0.0115  0.5962
 3930SOL    HW212690   6.291   3.336   5.788  1.1712 -1.4080 -1.3693
 3931SOL     OW12691   5.262   6.242   3.769  0.3405  0.0749  0.1345
 3931SOL    HW112692   5.172   6.275   3.797 -0.2717 -0.4579 -1.1173
 3931SOL    HW212693   5.253   6.181   3.690  1.8725  0.7861 -0.6496
 3932SOL     OW12694   6.273   5.460   4.994  0.3377 -0.5347 -0.0661
 3932SOL    HW112695   6.210   5.413   5.056  0.0924  2.2207  1.9484
 3932SOL    HW212696   6.227   5.475   4.906 -2.0759  1.5989  1.4066
 3933SOL     OW12697   2.534   2.553   3.493  0.8150 -0.5766 -0.1416
 3933SOL    HW112698   2.620   2.599   3.474 -0.1829  1.5871  0.2825
 3933SOL    HW212699   2.540   2.506   3.581  1.5986 -0.5839 -0.1930
 3934SOL     OW12700   5.567   5.910   1.066 -0.1698 -0.1050 -0.1399
 3934SOL    HW112701   5.605   5.942   0.979  0.0185  0.9689  0.3161
 3934SOL    HW212702   5.635   5.855   1.114  0.6589  1.3446  0.4197
 3935SOL     OW12703   1.867   1.830   3.227 -0.5612 -0.0307  0.3485
 3935SOL    HW112704   1.870   1.877   3.139 -0.6503  0.2122  0.4744
 3935SOL    HW212705   1.960   1.812   3.259 -0.3696  3.1432  1.9400
 3936SOL     OW12706   3.412   3.412   4.912 -0.1029  0.6453 -0.1870
 3936SOL    HW112707   3.429   3.395   4.815  1.4551  4.1626 -0.6966
 3936SOL    HW212708   3.500   3.419   4.960 -0.8146  0.4124  1.2060
 3937SOL     OW12709   2.283   6.037   6.672 -0.2181  0.1483  0.2465
 3937SOL    HW112710   2.378   6.065   6.686 -0.1867  0.5383 -0.6311
 3937SOL    HW212711   2.258   5.965   6.737  0.2002  1.1105  1.4869
 3938SOL     OW12712   2.353   0.540   4.800  0.3083  0.3353 -0.5135
 3938SOL    HW112713   2.374   0.459   4.855  0.6647 -0.4467 -1.7671
 3938SOL    HW212714   2.346   0.620   4.860  0.3680 -0.5390  0.6971
 3939SOL     OW12715   6.386   3.726   4.891  0.3950 -0.1868  0.3329
 3939SOL    HW112716   6.358   3.635   4.922 -1.4501  0.2731  0.1762
 3939SOL    HW212717   6.435   3.774   4.964 -0.1699 -0.6746  1.0409
 3940SOL     OW12718   6.855   3.249   6.078 -0.3328 -0.0136  0.2527
 3940SOL    HW112719   6.914   3.211   6.149  2.4320  1.3229 -1.1722
 3940SOL    HW212720   6.788   3.310   6.120  0.2014 -0.4495  1.8256
 3941SOL     OW12721   2.560   1.100   1.527  0.4888  0.8057 -0.0758
 3941SOL    HW112722   2.530   1.073   1.435 -0.9426 -1.0005  0.8626
 3941SOL    HW212723   2.649   1.060   1.546 -0.9481 -2.2875  0.7285
 3942SOL     OW12724   1.261   0.406   2.522  0.1273 -1.3195  0.0637
 3942SOL    HW112725   1.289   0.488   2.471  1.5736 -1.2157  0.9528
 3942SOL    HW212726   1.330   0.386   2.591 -2.3874 -0.6383  2.9535
 3943SOL     OW12727   2.694   4.626   1.171  0.2613  0.0879  0.7190
 3943SOL    HW112728   2.597   4.643   1.186  0.4155  1.8970 -0.0414
 3943SOL    HW212729   2.706   4.538   1.125 -1.1580  0.5409 -0.6179
 3944SOL     OW12730   2.546   5.644   5.166  0.4197  0.6353  0.1868
 3944SOL    HW112731   2.564   5.733   5.209  1.3283  0.0423  1.0718
 3944SOL    HW212732   2.632   5.595   5.153 -0.0719 -0.1290 -0.2764
 3945SOL     OW12733   5.463   1.743   5.889  0.6681 -0.1981  0.3143
 3945SOL    HW112734   5.504   1.774   5.974  1.2293 -1.7364  0.6345
 3945SOL    HW212735   5.526   1.682   5.841 -0.3502 -0.8006 -0.3105
 3946SOL     OW12736   2.646   3.589   5.615  0.4749  0.6255 -0.1627
 3946SOL    HW112737   2.585   3.572   5.538  0.2620  1.1059 -0.1045
 3946SOL    HW212738   2.635   3.683   5.646  1.0831  0.6524 -0.0079
 3947SOL     OW12739   0.102   5.718   1.999  0.0960  0.3116 -0.3574
 3947SOL    HW112740   0.093   5.797   1.938 -1.1964  1.0375  0.7235
 3947SOL    HW212741   0.025   5.657   1.986  0.6658 -0.3735 -0.5929
 3948SOL     OW12742   2.729   2.338   3.609 -0.4969 -0.2170 -0.2893
 3948SOL    HW112743   2.675   2.255   3.598 -0.0385 -0.5043 -0.3406
 3948SOL    HW212744   2.689   2.393   3.683 -0.9950 -0.3203 -0.4785
 3949SOL     OW12745   6.072   3.934   1.541 -0.4079  0.2461  0.6457
 3949SOL    HW112746   6.010   3.984   1.601  0.0063 -0.2877  1.5423
 3949SOL    HW212747   6.164   3.970   1.550 -0.4334  0.5236 -0.0993
 3950SOL     OW12748   2.980   4.921   5.797  0.2577 -0.5717  0.7186
 3950SOL    HW112749   3.068   4.879   5.818  0.8519  0.7942  1.0654
 3950SOL    HW212750   2.995   5.013   5.761 -0.9314 -1.2228 -1.6136
 3951SOL     OW12751   4.481   6.328   6.604  0.4910  0.1103 -0.7633
 3951SOL    HW112752   4.533   6.386   6.541  2.0564 -0.2889  0.1108
 3951SOL    HW212753   4.413   6.383   6.652  1.7696  1.1981 -0.1407
 3952SOL     OW12754   1.962   2.088   4.790 -0.8998  0.0430 -0.6446
 3952SOL    HW112755   1.895   2.153   4.754 -2.3469 -1.3022 -0.5115
 3952SOL    HW212756   1.952   2.080   4.889  0.3550  0.7683 -0.4369
 3953SOL     OW12757   5.486   2.018   0.210 -0.1805  0.0004  0.2708
 3953SOL    HW112758   5.455   1.924   0.198  1.1311 -0.2864 -1.3285
 3953SOL    HW212759   5.515   2.032   0.304 -2.2256 -0.5798  1.0367
 3954SOL     OW12760   3.107   1.608   2.995  0.4499  0.0900  0.2169
 3954SOL    HW112761   3.056   1.656   2.924 -0.1553  0.3435  0.8114
 3954SOL    HW212762   3.179   1.667   3.032  0.0716  0.3490  0.5526
 3955SOL     OW12763   4.826   6.614   2.361 -0.6119 -1.1525 -0.7527
 3955SOL    HW112764   4.818   6.524   2.404 -2.5034 -0.3665  0.6997
 3955SOL    HW212765   4.749   6.671   2.389  1.9792  1.9073  0.7944
 3956SOL     OW12766   5.592   4.298   0.153  0.1993 -0.2357 -0.1785
 3956SOL    HW112767   5.575   4.315   0.250  0.2905 -2.3576  0.2780
 3956SOL    HW212768   5.506   4.272   0.108  0.5495 -1.7842 -0.0259
 3957SOL     OW12769   1.522   0.261   1.909 -0.3181 -0.5185 -0.2132
 3957SOL    HW112770   1.555   0.353   1.888  0.2398 -0.1881  1.8700
 3957SOL    HW212771   1.432   0.247   1.868  0.3760  0.2787 -2.0752
 3958SOL     OW12772   1.744   1.346   0.560 -0.2017 -0.1543 -0.9944
 3958SOL    HW112773   1.779   1.400   0.636  1.4443  0.1857 -1.9633
 3958SOL    HW212774   1.748   1.249   0.584  1.5196 -0.1362 -1.0861
 3959SOL     OW12775   6.937   0.264   5.443  0.1269  0.2611 -0.6474
 3959SOL    HW112776   6.916   0.180   5.394 -2.7543  0.8784 -0.6893
 3959SOL    HW212777   6.880   0.270   5.525  2.2507  0.9336  0.8707
 3960SOL     OW12778   3.145   4.368   0.898 -0.0591  0.0385  0.2073
 3960SOL    HW112779   3.134   4.270   0.913  0.4746  0.0129  0.4780
 3960SOL    HW212780   3.144   4.415   0.987  2.0946  0.0030  0.3081
 3961SOL     OW12781   5.312   1.820   3.175  0.6285 -0.4497  0.3253
 3961SOL    HW112782   5.345   1.856   3.087  1.6400 -0.8704  0.5218
 3961SOL    HW212783   5.232   1.872   3.204  1.5945  1.1628  0.2236
 3962SOL     OW12784   6.533   5.623   5.056  0.2486  0.7429  0.4053
 3962SOL    HW112785   6.564   5.670   4.973  1.2376 -1.7654 -0.7413
 3962SOL    HW212786   6.433   5.632   5.063  0.0784  0.6101 -1.3322
 3963SOL     OW12787   0.774   1.504   0.294 -0.3253 -0.2092  0.0680
 3963SOL    HW112788   0.706   1.523   0.223  0.6313 -0.0765 -0.8352
 3963SOL    HW212789   0.858   1.555   0.275  0.8364 -2.0724 -0.1006
 3964SOL     OW12790   4.459   1.993   1.913 -0.3544  0.0477  0.0969
 3964SOL    HW112791   4.361   1.996   1.932 -0.6198 -1.4906 -0.9021
 3964SOL    HW212792   4.480   2.055   1.836 -0.8837 -1.0652 -0.9711
 3965SOL     OW12793   1.051   6.827   3.430  0.0592  0.2008 -0.1298
 3965SOL    HW112794   1.099   6.804   3.515  2.0126  1.8717 -0.6840
 3965SOL    HW212795   1.102   6.899   3.382 -2.5959  1.4733 -1.2476
 3966SOL     OW12796   0.105   5.333   6.910  0.0133  0.0473  0.2525
 3966SOL    HW112797   0.128   5.413   6.966  0.8437  1.6966 -2.2819
 3966SOL    HW212798   0.188   5.298   6.867 -0.6136 -1.1173 -0.0251
 3967SOL     OW12799   4.439   3.866   6.565  0.3991 -0.0340 -0.3426
 3967SOL    HW112800   4.351   3.835   6.602  0.4843  0.4315  0.2614
 3967SOL    HW212801   4.430   3.961   6.536  0.7854  0.1060 -0.0029
 3968SOL     OW12802   3.660   0.310   1.624 -0.0868 -0.1870 -0.5058
 3968SOL    HW112803   3.722   0.384   1.648 -0.1503 -0.7201  1.4392
 3968SOL    HW212804   3.687   0.226   1.671 -1.7454 -0.6644 -0.3200
 3969SOL     OW12805   5.762   6.577   2.502 -0.4972 -0.4066  0.2355
 3969SOL    HW112806   5.725   6.636   2.573 -2.7946 -1.4549 -0.0087
 3969SOL    HW212807   5.790   6.632   2.423 -1.3671  0.4633  0.5248
 3970SOL     OW12808   6.878   6.130   3.472 -0.9351  0.1306 -0.1632
 3970SOL    HW112809   6.956   6.159   3.416 -0.5453 -0.0093  0.2977
 3970SOL    HW212810   6.867   6.193   3.549 -0.9040 -0.1869  0.1044
 3971SOL     OW12811   1.059   5.048   1.037  0.7023  0.5025  0.1569
 3971SOL    HW112812   1.064   5.124   1.101  0.0457 -0.1090  0.9674
 3971SOL    HW212813   1.024   5.080   0.949 -3.1653  0.6204  1.5239
 3972SOL     OW12814   0.237   3.768   2.877 -0.2287 -0.5659 -0.5799
 3972SOL    HW112815   0.215   3.861   2.904 -0.8126 -0.7549 -0.3790
 3972SOL    HW212816   0.326   3.766   2.831  1.2631 -0.3732  2.1060
 3973SOL     OW12817   4.800   2.455   2.589  0.6387 -0.0927 -0.3316
 3973SOL    HW112818   4.870   2.516   2.551 -0.2501 -0.2195 -2.2868
 3973SOL    HW212819   4.715   2.506   2.600 -0.2143 -0.9923 -2.3176
 3974SOL     OW12820   4.965   4.248   1.276  0.2271 -0.3467  0.3998
 3974SOL    HW112821   5.046   4.260   1.217 -0.3284  0.5234 -0.2256
 3974SOL    HW212822   4.885   4.233   1.219 -0.2706  0.1645  0.9473
 3975SOL     OW12823   4.774   0.725   2.311 -0.5465  0.8237 -0.0438
 3975SOL    HW112824   4.760   0.652   2.378  0.9520  0.3306 -0.2336
 3975SOL    HW212825   4.777   0.813   2.358  1.6454  0.3890  0.7412
 3976SOL     OW12826   6.394   2.411   1.695  0.0368  0.1110  0.7282
 3976SOL    HW112827   6.421   2.477   1.624 -0.7541 -1.6628 -1.3331
 3976SOL    HW212828   6.324   2.452   1.753 -2.7593  0.2387 -2.4227
 3977SOL     OW12829   5.990   0.002   3.995  0.1241 -0.4900 -0.1040
 3977SOL    HW112830   6.063  -0.066   3.988  1.0996  0.4470  0.6273
 3977SOL    HW212831   6.008   0.062   4.073 -0.2066  1.1616 -1.2497
 3978SOL     OW12832   3.256   3.385   6.376 -0.0207  0.4711 -0.4328
 3978SOL    HW112833   3.303   3.314   6.428  1.0333  1.0399 -0.5577
 3978SOL    HW212834   3.306   3.403   6.291 -2.6273 -1.6577 -2.6010
 3979SOL     OW12835   4.832   1.356   5.078 -0.1925  0.3745  0.4501
 3979SOL    HW112836   4.764   1.412   5.126 -1.4926 -0.4708 -0.3542
 3979SOL    HW212837   4.857   1.278   5.135 -1.2544 -0.2832  0.0226
 3980SOL     OW12838   2.341   1.044   2.104  0.5568 -0.2661 -0.1347
 3980SOL    HW112839   2.269   0.991   2.150 -0.6195  1.2729 -0.1210
 3980SOL    HW212840   2.310   1.068   2.012  0.2022  2.0045  0.5182
 3981SOL     OW12841   0.815   4.037   3.611  0.2229 -0.2322  0.1652
 3981SOL    HW112842   0.729   4.038   3.560  0.8603  0.1818 -0.9217
 3981SOL    HW212843   0.830   3.945   3.647  0.0493 -0.7072 -0.9208
 3982SOL     OW12844   0.357   3.989   5.465  0.1761  0.4928 -0.1757
 3982SOL    HW112845   0.351   3.894   5.433 -0.4527  0.2717  0.5496
 3982SOL    HW212846   0.425   3.995   5.538  0.9834  0.8218 -0.9398
 3983SOL     OW12847   2.531   6.408   6.786 -0.4239 -0.0133 -0.0029
 3983SOL    HW112848   2.502   6.406   6.882 -1.5751 -2.3787 -0.3050
 3983SOL    HW212849   2.631   6.414   6.782 -0.2319 -1.3155  1.4337
 3984SOL     OW12850   6.228   1.128   2.346 -0.1690 -0.4269  0.0002
 3984SOL    HW112851   6.260   1.223   2.346  0.5125 -0.6533  1.2652
 3984SOL    HW212852   6.128   1.128   2.349 -0.1572  0.2856  2.5133
 3985SOL     OW12853   5.566   3.049   5.016 -0.7239  0.0629 -0.3915
 3985SOL    HW112854   5.550   3.140   5.053 -1.8037 -0.2758  0.0213
 3985SOL    HW212855   5.664   3.027   5.022 -0.3438  1.4434 -1.1342
 3986SOL     OW12856   4.981   5.511   5.599  0.0563 -0.1906  0.2415
 3986SOL    HW112857   4.911   5.548   5.539 -0.0587  1.0834  1.1205
 3986SOL    HW212858   5.021   5.429   5.558  0.5917  1.1101 -1.9671
 3987SOL     OW12859   4.452   0.377   4.007  0.5866  0.2090  0.5084
 3987SOL    HW112860   4.420   0.401   3.916  1.9456  0.3643  0.0519
 3987SOL    HW212861   4.444   0.279   4.021 -0.6157  0.3056  0.6412
 3988SOL     OW12862   1.980   2.252   1.986 -0.3202  0.1285  0.3515
 3988SOL    HW112863   2.021   2.175   2.036  2.3025  1.7148  0.8436
 3988SOL    HW212864   1.957   2.325   2.050 -0.9070  0.5343 -0.3109
 3989SOL     OW12865   4.397   2.694   0.412 -0.5420 -0.4884 -0.1322
 3989SOL    HW112866   4.384   2.768   0.346 -1.5028 -0.1777  0.3828
 3989SOL    HW212867   4.470   2.719   0.476  0.4475 -0.8250 -1.0998
 3990SOL     OW12868   5.525   6.394   2.876  0.3988 -0.1646  0.0886
 3990SOL    HW112869   5.501   6.469   2.815  2.5043 -1.7765 -3.0463
 3990SOL    HW212870   5.553   6.431   2.965 -1.7120  2.4109 -0.1817
 3991SOL     OW12871   1.237   0.145   5.549  0.3471 -0.8627  0.4265
 3991SOL    HW112872   1.148   0.156   5.594 -0.2592 -2.6316 -0.2374
 3991SOL    HW212873   1.250   0.218   5.482 -1.0657 -1.0875 -0.1347
 3992SOL     OW12874   4.372   1.173   0.630 -0.1136 -0.1090 -0.0232
 3992SOL    HW112875   4.315   1.123   0.695  0.7627 -1.7348 -0.4494
 3992SOL    HW212876   4.340   1.155   0.537  0.1356  0.2571 -0.1830
 3993SOL     OW12877   0.065   1.532   2.137  0.2376  0.0831  0.1067
 3993SOL    HW112878   0.139   1.471   2.108 -0.1528  0.2272 -1.2662
 3993SOL    HW212879  -0.021   1.500   2.098 -0.1334  0.9257  0.2136
 3994SOL     OW12880   2.417   0.247   4.602  0.4490  0.2226  0.1599
 3994SOL    HW112881   2.386   0.242   4.697  0.7053 -1.2121  0.1894
 3994SOL    HW212882   2.467   0.163   4.578  0.0459  0.3769 -1.3626
 3995SOL     OW12883   5.997   0.757   1.915  0.4495  0.5100 -0.2581
 3995SOL    HW112884   6.045   0.678   1.876  0.2187  0.7972 -1.1556
 3995SOL    HW212885   5.953   0.730   2.001  1.1483 -0.0868 -0.0733
 3996SOL     OW12886   5.075   5.193   5.431 -0.1548  0.4075 -0.6004
 3996SOL    HW112887   5.005   5.189   5.360  0.8470 -0.0583 -1.5948
 3996SOL    HW212888   5.136   5.115   5.422  0.4525  0.7631  0.2977
 3997SOL     OW12889   0.173   3.106   1.512  0.4779  0.4801 -0.0270
 3997SOL    HW112890   0.079   3.107   1.547  0.5161  1.3350  0.0735
 3997SOL    HW212891   0.189   3.020   1.464 -0.7412  0.7818 -1.0443
 3998SOL     OW12892   6.646   4.570   1.799  0.6433  0.6895 -0.5859
 3998SOL    HW112893   6.635   4.482   1.753  1.4406  1.0194 -1.4339
 3998SOL    HW212894   6.571   4.631   1.773 -0.1516  0.1489  0.3369
 3999SOL     OW12895   0.050   4.753   3.249 -0.0686 -0.1641  0.1925
 3999SOL    HW112896   0.134   4.739   3.301  0.7617 -1.6199 -1.4489
 3999SOL    HW212897   0.071   4.796   3.161 -1.1559  0.2461  0.1157
 4000SOL     OW12898   6.532   0.744   6.463 -0.7084  0.1529 -0.5022
 4000SOL    HW112899   6.542   0.677   6.536  0.2442  0.5007 -0.3056
 4000SOL    HW212900   6.607   0.735   6.398 -2.6911 -1.6489 -2.7160
 4001SOL     OW12901   4.338   1.787   2.899 -0.0152  0.1632 -0.2644
 4001SOL    HW112902   4.432   1.773   2.868 -0.4983 -0.4606 -1.4899
 4001SOL    HW212903   4.325   1.883   2.923  1.4378 -0.0877  1.7076
 4002SOL     OW12904   3.130   2.533   1.488  0.6010 -0.7542  0.3185
 4002SOL    HW112905   3.212   2.510   1.436  0.8178 -0.3469  0.4813
 4002SOL    HW212906   3.157   2.568   1.578  0.3004  1.1102 -0.2913
 4003SOL     OW12907   5.152   2.181   3.778  0.3700 -0.5369  0.5234
 4003SOL    HW112908   5.204   2.241   3.718 -0.4250  0.2615  0.6035
 4003SOL    HW212909   5.124   2.232   3.860 -1.0338 -0.7652  0.2043
 4004SOL     OW12910   2.857   2.179   6.608 -0.0025  0.3084  0.0448
 4004SOL    HW112911   2.802   2.258   6.633  0.7556  0.9044 -0.1125
 4004SOL    HW212912   2.857   2.168   6.508  0.6991  0.7291 -0.0119
 4005SOL     OW12913   2.093   3.852   2.871 -0.0881 -0.4041 -0.5506
 4005SOL    HW112914   2.135   3.769   2.834  0.3437 -0.9395  1.0784
 4005SOL    HW212915   2.100   3.925   2.803  0.6437 -1.3494 -1.5345
 4006SOL     OW12916   5.653   0.405   1.833  0.5628  0.0908 -0.3732
 4006SOL    HW112917   5.638   0.306   1.826  0.0238  0.2217 -1.2287
 4006SOL    HW212918   5.569   0.448   1.866  1.1679  0.1494  1.1469
 4007SOL     OW12919   5.299   6.811   1.595 -0.1439 -0.2039  0.7791
 4007SOL    HW112920   5.387   6.799   1.549 -0.7716  0.1772 -0.5843
 4007SOL    HW212921   5.314   6.826   1.692  1.3914  1.1938  0.3720
 4008SOL     OW12922   4.231   5.700   5.734  0.0930 -0.1846 -0.3193
 4008SOL    HW112923   4.163   5.696   5.807 -0.4264  3.5905 -0.3740
 4008SOL    HW212924   4.185   5.714   5.646  0.8174 -2.7238 -1.2028
 4009SOL     OW12925   0.013   0.947   5.361 -0.0271  0.4786  0.0633
 4009SOL    HW112926  -0.049   0.943   5.283  1.9975 -0.5764 -1.5845
 4009SOL    HW212927   0.041   1.042   5.376 -2.2442  1.0413  1.1071
 4010SOL     OW12928   5.893   0.943   1.305 -0.7552  0.3323  0.8106
 4010SOL    HW112929   5.971   1.003   1.319 -1.6186  1.3014  1.6349
 4010SOL    HW212930   5.907   0.857   1.354  0.5130 -0.2150 -0.4302
 4011SOL     OW12931   6.921   4.520   6.714  0.3837  0.2428 -0.1636
 4011SOL    HW112932   6.893   4.443   6.657 -0.1313 -0.9398  1.6082
 4011SOL    HW212933   6.853   4.593   6.708 -0.3715 -0.4339 -0.0261
 4012SOL     OW12934   0.101   4.783   2.669  0.2351  0.1418 -0.1383
 4012SOL    HW112935   0.136   4.875   2.651 -1.3428  0.3452 -2.6445
 4012SOL    HW212936   0.148   4.717   2.611 -0.8382 -0.1057 -0.7689
 4013SOL     OW12937   1.057   6.592   1.173 -0.1452 -0.8001 -0.2335
 4013SOL    HW112938   1.076   6.689   1.156  0.2727 -0.8968 -0.3443
 4013SOL    HW212939   1.116   6.560   1.247  0.7790 -1.3241 -1.1605
 4014SOL     OW12940   4.047   3.568   5.971  0.1428  0.5425  0.1560
 4014SOL    HW112941   4.143   3.592   5.984  0.5655 -0.7110 -0.5455
 4014SOL    HW212942   4.005   3.549   6.060  0.5808  0.8950  0.4423
 4015SOL     OW12943   4.893   2.157   1.590  0.1678 -0.4478  0.6978
 4015SOL    HW112944   4.971   2.220   1.589 -0.7927  0.7635  0.8010
 4015SOL    HW212945   4.812   2.203   1.554 -0.6367 -1.5177  1.0974
 4016SOL     OW12946   1.894   6.630   5.592  0.2956 -0.2712  0.0865
 4016SOL    HW112947   1.876   6.704   5.657  2.2015  1.2124 -0.9916
 4016SOL    HW212948   1.831   6.554   5.611  1.6872 -0.6008  4.6403
 4017SOL     OW12949   5.626   4.201   4.399 -0.3750 -0.0834 -0.5992
 4017SOL    HW112950   5.713   4.181   4.353 -0.1058 -0.0633 -0.1019
 4017SOL    HW212951   5.606   4.128   4.464 -1.1920 -0.5639 -1.3577
 4018SOL     OW12952   6.183   2.009   1.549 -1.3560  0.5115  0.2578
 4018SOL    HW112953   6.199   1.912   1.565 -0.9661  0.1603 -1.9142
 4018SOL    HW212954   6.214   2.062   1.629  2.7854 -0.8061 -0.2271
 4019SOL     OW12955   0.545   3.180   6.264 -0.2309 -0.0385 -0.2821
 4019SOL    HW112956   0.579   3.271   6.240  0.1498 -0.1544 -0.1916
 4019SOL    HW212957   0.616   3.112   6.247 -1.0731 -0.5557 -1.9365
 4020SOL     OW12958   2.529   1.894   1.484  0.1739 -0.1678 -0.0559
 4020SOL    HW112959   2.604   1.833   1.458 -0.6568 -0.6183 -1.5285
 4020SOL    HW212960   2.496   1.869   1.575 -0.6646 -2.4659 -0.9233
 4021SOL     OW12961   3.813   6.621   2.795  0.3106  0.0255  0.5957
 4021SOL    HW112962   3.738   6.687   2.795 -0.9362 -1.2954 -0.8166
 4021SOL    HW212963   3.897   6.665   2.764 -0.8845  0.6036 -2.0711
 4022SOL     OW12964   2.779   1.729   0.859  0.1588 -0.0179 -0.4572
 4022SOL    HW112965   2.690   1.684   0.870  0.9844 -1.3742  1.3680
 4022SOL    HW212966   2.838   1.671   0.803  1.1074 -1.1829  1.6008
 4023SOL     OW12967   1.581   3.986   3.452  0.3696 -0.2076  0.1891
 4023SOL    HW112968   1.550   3.892   3.461 -0.3255 -0.0814 -0.7283
 4023SOL    HW212969   1.650   3.992   3.381  0.3390 -0.0063  0.1747
 4024SOL     OW12970   5.727   5.903   6.489 -1.1231 -0.3172 -0.5241
 4024SOL    HW112971   5.794   5.973   6.515 -0.3971 -1.0073 -0.4861
 4024SOL    HW212972   5.706   5.845   6.568 -1.3249 -0.4590 -0.6799
 4025SOL     OW12973   0.097   3.906   0.592  0.3612  0.7079 -0.4069
 4025SOL    HW112974   0.147   3.828   0.629 -0.6998 -0.4626 -1.3528
 4025SOL    HW212975   0.040   3.945   0.665  2.0175  1.5839  0.4702
 4026SOL     OW12976   1.061   5.733   5.099  0.3327 -0.7408 -0.0237
 4026SOL    HW112977   1.132   5.728   5.029 -0.3544 -0.1506 -0.7758
 4026SOL    HW212978   1.014   5.645   5.104 -1.4123 -0.0092 -2.2482
 4027SOL     OW12979   2.815   1.782   5.395  0.8741  0.1649  0.2572
 4027SOL    HW112980   2.734   1.754   5.344  1.9635 -0.5348 -1.1528
 4027SOL    HW212981   2.894   1.784   5.334  2.0884  0.0746  1.7612
 4028SOL     OW12982   2.616   6.575   3.241  0.2741  0.1862 -0.5489
 4028SOL    HW112983   2.693   6.588   3.178  0.7967 -1.2988 -0.2408
 4028SOL    HW212984   2.595   6.478   3.249 -0.2020  0.3951  1.0856
 4029SOL     OW12985   0.981   4.864   5.744 -0.5148 -0.4091  0.3535
 4029SOL    HW112986   0.991   4.960   5.771  0.5724 -0.1219 -0.9184
 4029SOL    HW212987   1.023   4.805   5.813 -0.6945  0.0602  0.8708
 4030SOL     OW12988   5.826   1.614   3.179  0.1556 -0.0117 -0.2997
 4030SOL    HW112989   5.850   1.579   3.270 -0.5154 -0.3128 -0.2385
 4030SOL    HW212990   5.731   1.644   3.178 -0.8564 -2.9339 -1.7389
 4031SOL     OW12991   3.939   6.112   1.124  0.2903 -0.0521 -0.1969
 4031SOL    HW112992   3.847   6.083   1.098  0.7641 -0.5021 -1.4219
 4031SOL    HW212993   4.007   6.061   1.071  1.2021  1.8017 -0.8933
 4032SOL     OW12994   3.305   2.383   6.982 -0.2135 -0.2938 -0.5391
 4032SOL    HW112995   3.381   2.448   6.983 -1.1512  0.8342  0.7458
 4032SOL    HW212996   3.219   2.433   6.969 -0.8811 -1.3496 -0.2686
 4033SOL     OW12997   2.767   2.341   3.173 -0.0049  0.7109 -0.5788
 4033SOL    HW112998   2.714   2.263   3.208  1.9970 -0.3132  0.3521
 4033SOL    HW212999   2.708   2.397   3.115 -1.5120 -1.5512 -1.4082
 4034SOL     OW13000   0.056   0.463   6.159 -0.0300  0.1001  0.0656
 4034SOL    HW113001   0.077   0.533   6.092  2.8437  0.6550  1.3916
 4034SOL    HW213002  -0.030   0.418   6.134  0.6196  0.5738 -3.6615
 4035SOL     OW13003   6.300   6.222   2.593 -0.1457  0.2209 -0.4506
 4035SOL    HW113004   6.240   6.161   2.645  0.1818  0.4585  0.2241
 4035SOL    HW213005   6.252   6.256   2.512 -0.2023 -1.2190 -1.0466
 4036SOL     OW13006   0.925   6.192   3.202 -0.0008 -0.5026  0.1658
 4036SOL    HW113007   0.916   6.237   3.291 -2.6049 -1.6610  0.5711
 4036SOL    HW213008   0.962   6.100   3.215 -1.0378 -0.9274  0.1491
 4037SOL     OW13009   6.686   4.264   2.557 -0.5917  0.0137 -0.7410
 4037SOL    HW113010   6.608   4.266   2.620 -0.8400 -1.1541 -0.9965
 4037SOL    HW213011   6.705   4.357   2.525 -0.1869  0.7209  1.3818
 4038SOL     OW13012   1.472   1.160   1.158 -0.1680  0.1631  0.2761
 4038SOL    HW113013   1.420   1.240   1.129  0.7698  0.2994 -1.0851
 4038SOL    HW213014   1.447   1.137   1.252 -1.1254  1.4834  0.3713
 4039SOL     OW13015   0.492   0.093   4.356 -0.2837 -0.1764  0.1885
 4039SOL    HW113016   0.494   0.029   4.279  2.0784  2.8944 -2.5687
 4039SOL    HW213017   0.583   0.101   4.395 -0.3778  1.8545  0.0801
 4040SOL     OW13018   2.057   4.389   1.261  0.2931  0.3483  0.3791
 4040SOL    HW113019   2.051   4.304   1.210 -1.0234  0.7708 -0.2110
 4040SOL    HW213020   2.124   4.450   1.218 -1.5622  1.1321 -1.5541
 4041SOL     OW13021   7.001   2.044   4.269  0.7781 -0.1524 -0.1220
 4041SOL    HW113022   6.908   2.073   4.247  0.6375  1.5949  2.3400
 4041SOL    HW213023   7.000   1.946   4.292 -0.5642 -0.0408  0.3988
 4042SOL     OW13024   5.105   6.546   0.123 -0.5643 -0.3687 -0.1213
 4042SOL    HW113025   5.157   6.599   0.056  0.8093 -1.2465  0.2173
 4042SOL    HW213026   5.089   6.601   0.204 -0.2613 -0.0500 -0.2766
 4043SOL     OW13027   0.317   3.472   0.167 -0.0006 -0.0802  0.3396
 4043SOL    HW113028   0.357   3.563   0.170 -0.2362  0.0020  1.5782
 4043SOL    HW213029   0.279   3.449   0.257 -3.8937  0.3604 -1.0253
 4044SOL     OW13030   6.663   0.883   2.859  0.5739  0.1050 -0.1639
 4044SOL    HW113031   6.735   0.923   2.803  0.7293  0.9296  0.6073
 4044SOL    HW213032   6.590   0.949   2.873 -0.9723 -1.1120 -1.9531
 4045SOL     OW13033   4.342   0.156   3.693  0.5044 -0.4318  0.3630
 4045SOL    HW113034   4.399   0.077   3.716  1.7968  0.4722  0.2963
 4045SOL    HW213035   4.265   0.160   3.758  0.0282 -2.1060 -0.0316
 4046SOL     OW13036   0.617   2.377   0.926 -0.6461 -0.3721 -0.2793
 4046SOL    HW113037   0.679   2.454   0.944 -1.2615  0.2809 -0.8680
 4046SOL    HW213038   0.602   2.326   1.010  1.0538 -0.8304 -0.2221
 4047SOL     OW13039   1.489   5.508   3.684  0.3481 -0.3157 -0.4114
 4047SOL    HW113040   1.543   5.446   3.741  1.4399  1.0859  0.1304
 4047SOL    HW213041   1.416   5.456   3.639 -0.1999 -1.6015  1.7837
 4048SOL     OW13042   4.886   3.445   5.245 -0.5018 -0.3320 -0.0466
 4048SOL    HW113043   4.822   3.511   5.206 -0.4842 -0.2807  0.0130
 4048SOL    HW213044   4.932   3.396   5.170 -0.6271 -0.3859 -0.0894
 4049SOL     OW13045   6.149   1.089   3.846  0.7298 -0.3222  0.0142
 4049SOL    HW113046   6.246   1.114   3.848  0.4711  0.8585 -0.7978
 4049SOL    HW213047   6.094   1.172   3.834 -0.3441 -1.0506 -0.2262
 4050SOL     OW13048   1.317   6.448   1.400  0.2221 -0.1945  0.0412
 4050SOL    HW113049   1.374   6.378   1.356  1.6388 -0.4233  2.1106
 4050SOL    HW213050   1.253   6.404   1.463 -0.7554  0.2287 -0.6292
 4051SOL     OW13051   5.488   1.059   4.433 -0.1610 -0.7320 -0.1697
 4051SOL    HW113052   5.433   1.071   4.516  0.7898  0.2135  0.3548
 4051SOL    HW213053   5.433   1.080   4.353 -0.0816  2.2550  0.4439
 4052SOL     OW13054   2.724   6.801   5.958  0.7784 -0.5035 -0.2415
 4052SOL    HW113055   2.718   6.819   5.859  0.1292 -1.0917 -0.3109
 4052SOL    HW213056   2.669   6.721   5.981  1.5654 -0.8497  0.4796
 4053SOL     OW13057   1.140   1.767   0.033 -0.2430  0.7249  0.0908
 4053SOL    HW113058   1.189   1.811   0.108  2.2460 -0.1881 -0.8881
 4053SOL    HW213059   1.068   1.829  -0.001  0.0364  2.0361  1.7691
 4054SOL     OW13060   4.931   6.963   0.844 -0.7649  0.1545 -0.1468
 4054SOL    HW113061   4.984   6.944   0.761 -1.6266 -1.0865 -0.4403
 4054SOL    HW213062   4.986   6.939   0.924 -0.6406 -0.5269 -0.4245
 4055SOL     OW13063   3.324   4.711   5.282 -0.1677  0.5513  0.2329
 4055SOL    HW113064   3.399   4.649   5.258  1.0950  1.6718  1.1546
 4055SOL    HW213065   3.347   4.804   5.255 -2.5537  0.5533 -2.2488
 4056SOL     OW13066   5.459   4.517   4.784 -0.2827 -0.1733  0.1362
 4056SOL    HW113067   5.518   4.470   4.849  0.7256 -1.4399 -1.6017
 4056SOL    HW213068   5.499   4.606   4.761  1.3729 -1.2470 -1.4448
 4057SOL     OW13069   6.613   5.205   3.067 -0.1111 -0.5240 -0.4468
 4057SOL    HW113070   6.663   5.118   3.060 -0.0720 -0.5849  0.4006
 4057SOL    HW213071   6.676   5.277   3.097 -0.4337 -0.5196  0.2565
 4058SOL     OW13072   4.632   2.651   4.310 -0.0276 -0.0357 -0.0168
 4058SOL    HW113073   4.585   2.626   4.395 -0.5703  0.4813 -0.1568
 4058SOL    HW213074   4.730   2.631   4.318 -0.0959 -0.0985  0.6872
 4059SOL     OW13075   1.500   3.020   0.125  0.3470 -0.4630  0.2516
 4059SOL    HW113076   1.438   2.945   0.101  0.9929 -0.9782  0.1587
 4059SOL    HW213077   1.467   3.065   0.208 -0.7566 -0.0099 -0.4133
 4060SOL     OW13078   1.147   2.046   5.586 -0.3435  0.3838  0.4432
 4060SOL    HW113079   1.131   2.030   5.489 -0.0250 -1.1118  0.6228
 4060SOL    HW213080   1.070   2.098   5.624 -1.8339 -1.3745 -0.0453
 4061SOL     OW13081   2.563   1.827   1.935  0.0894 -0.5367  0.8291
 4061SOL    HW113082   2.512   1.792   1.856 -0.0359 -1.0852  1.1420
 4061SOL    HW213083   2.608   1.750   1.982  3.1716  0.1668 -0.7625
 4062SOL     OW13084   4.492   3.155   0.269  0.0916 -0.0244  0.2127
 4062SOL    HW113085   4.559   3.216   0.312  0.1154  1.4682 -1.8007
 4062SOL    HW213086   4.408   3.205   0.251  0.1647 -0.4759 -1.6461
 4063SOL     OW13087   3.013   6.086   4.601  0.3691 -0.3294 -0.6284
 4063SOL    HW113088   3.066   6.042   4.529  0.8800  0.7106 -0.9122
 4063SOL    HW213089   2.919   6.052   4.599 -0.0351  0.7159 -2.7681
 4064SOL     OW13090   0.391   0.146   1.075 -0.2419 -0.4162 -0.2892
 4064SOL    HW113091   0.440   0.092   1.007 -0.5666 -1.9737  0.6577
 4064SOL    HW213092   0.452   0.217   1.112  0.1003  0.0986 -1.7618
 4065SOL     OW13093   4.776   5.922   5.951  0.0237  0.0126  0.1868
 4065SOL    HW113094   4.794   5.965   5.862  0.4403 -1.2254 -0.3393
 4065SOL    HW213095   4.778   5.993   6.023  2.7539  0.6213 -0.3821
 4066SOL     OW13096   5.174   1.910   6.245  0.3913  0.0558  0.4408
 4066SOL    HW113097   5.092   1.887   6.298  0.3541  0.4701  0.5624
 4066SOL    HW213098   5.209   1.827   6.201 -0.8345  0.0892 -0.6657
 4067SOL     OW13099   1.465   6.294   3.947 -0.1085 -0.0234 -0.0376
 4067SOL    HW113100   1.450   6.237   4.028 -1.9663 -0.1667 -0.4259
 4067SOL    HW213101   1.416   6.381   3.958  1.4188  0.8747 -0.1092
 4068SOL     OW13102   1.009   2.727   5.523  0.3750 -0.5177  1.2138
 4068SOL    HW113103   0.970   2.790   5.456  0.6473 -1.0086  0.5801
 4068SOL    HW213104   0.939   2.700   5.589 -0.0876 -0.5853  0.7036
 4069SOL     OW13105   5.433   0.475   4.771 -0.4081  0.7813 -0.3918
 4069SOL    HW113106   5.395   0.566   4.788  3.2516  2.2918  0.8304
 4069SOL    HW213107   5.467   0.470   4.677  1.4664  1.6482  0.1873
 4070SOL     OW13108   3.543   3.345   5.600 -0.0873  0.1354 -0.7263
 4070SOL    HW113109   3.624   3.288   5.618  0.7534  0.3826 -3.3016
 4070SOL    HW213110   3.468   3.316   5.659  0.7409 -2.6573 -0.9057
 4071SOL     OW13111   6.956   3.860   5.258 -0.0088  0.4356 -0.0055
 4071SOL    HW113112   6.981   3.797   5.331 -1.1078  0.4567  0.4161
 4071SOL    HW213113   6.964   3.954   5.291  0.3904  0.4810 -0.2210
 4072SOL     OW13114   3.475   2.715   5.267  0.0855  0.1398 -0.1772
 4072SOL    HW113115   3.465   2.751   5.174  0.0671 -0.4441 -0.4038
 4072SOL    HW213116   3.539   2.637   5.266 -0.3788 -0.2486  0.1946
 4073SOL     OW13117   0.405   6.106   4.330  0.4701  0.2806 -0.0022
 4073SOL    HW113118   0.306   6.099   4.342  0.3955  1.3096  0.1329
 4073SOL    HW213119   0.448   6.020   4.356 -0.3483 -0.0351  0.3540
 4074SOL     OW13120   1.602   4.262   1.176 -0.4506  0.3262 -0.0342
 4074SOL    HW113121   1.662   4.221   1.244 -0.2605  0.9708  0.1930
 4074SOL    HW213122   1.592   4.199   1.099  1.6164  0.7256 -0.7077
 4075SOL     OW13123   3.084   5.384   2.065 -0.0101  0.0633  0.2602
 4075SOL    HW113124   3.011   5.316   2.062  2.1468 -2.3906  0.0558
 4075SOL    HW213125   3.074   5.448   1.988 -2.3651  0.3851  0.7512
 4076SOL     OW13126   3.308   2.568   1.103 -0.2684  0.1325  0.4070
 4076SOL    HW113127   3.208   2.571   1.095 -0.2474  0.6561  0.2872
 4076SOL    HW213128   3.333   2.538   1.195 -0.5342 -0.4167  0.3023
 4077SOL     OW13129   6.057   6.641   6.460 -0.1910  0.3466 -0.8548
 4077SOL    HW113130   6.068   6.705   6.537 -1.6222 -1.1216  0.6677
 4077SOL    HW213131   5.961   6.642   6.430 -0.3012 -1.2269 -0.6201
 4078SOL     OW13132   3.047   5.745   6.687  0.4305  0.7212  0.5896
 4078SOL    HW113133   3.135   5.704   6.711  0.6818  0.4364 -0.7587
 4078SOL    HW213134   3.022   5.720   6.594  0.0573  2.7291  0.0954
 4079SOL     OW13135   0.637   6.385   5.027 -0.4036 -0.0751  0.3576
 4079SOL    HW113136   0.588   6.300   5.004 -0.6210 -0.4729  2.1340
 4079SOL    HW213137   0.593   6.428   5.106  1.2147  0.3485  1.0709
 4080SOL     OW13138   2.416   0.276   5.557  0.2252  0.0794  0.5053
 4080SOL    HW113139   2.513   0.299   5.566  0.4289 -0.9511  1.1672
 4080SOL    HW213140   2.401   0.227   5.471  0.0403  1.3824 -0.2267
 4081SOL     OW13141   4.336   4.420   0.998  0.2451  0.1884  0.3771
 4081SOL    HW113142   4.363   4.358   1.071 -1.5910 -0.2119  0.7724
 4081SOL    HW213143   4.320   4.368   0.914 -2.0695 -0.0788  0.9107
 4082SOL     OW13144   1.198   4.888   3.913  0.1963 -0.9151 -0.1355
 4082SOL    HW113145   1.238   4.947   3.842  2.4584 -1.2760  0.7280
 4082SOL    HW213146   1.266   4.819   3.941 -0.8814 -1.2642  1.8264
 4083SOL     OW13147   6.580   1.698   5.900 -0.0725  0.5799 -0.6324
 4083SOL    HW113148   6.637   1.702   5.819  1.3632  0.1914  0.3258
 4083SOL    HW213149   6.634   1.667   5.978 -1.9376 -1.4016 -0.0094
 4084SOL     OW13150   6.118   6.758   2.967  0.2013 -0.1082 -0.2350
 4084SOL    HW113151   6.143   6.775   2.872 -0.7761 -0.4634 -0.5621
 4084SOL    HW213152   6.051   6.685   2.972  0.9237 -0.7334  0.8105
 4085SOL     OW13153   4.946   4.397   6.281  0.2640 -0.5071  0.1709
 4085SOL    HW113154   4.910   4.473   6.335  0.1928  0.9974 -1.8388
 4085SOL    HW213155   5.046   4.393   6.291  0.2828 -0.0511  0.1941
 4086SOL     OW13156   2.187   5.544   2.451  0.1829 -0.2169  0.1701
 4086SOL    HW113157   2.231   5.529   2.363  2.9749 -1.3029  1.6395
 4086SOL    HW213158   2.088   5.541   2.439  0.4556 -0.4241 -2.8778
 4087SOL     OW13159   5.114   3.515   1.108  0.7108 -0.5270  0.5373
 4087SOL    HW113160   5.083   3.466   1.190  2.0517 -2.2868  0.0704
 4087SOL    HW213161   5.201   3.561   1.127  1.3630 -1.4859 -0.0369
 4088SOL     OW13162   6.758   4.093   3.769  0.5536 -0.2681 -0.4470
 4088SOL    HW113163   6.732   4.026   3.699  0.2949  1.5626 -2.2097
 4088SOL    HW213164   6.752   4.185   3.730 -2.5771  1.1551  2.8216
 4089SOL     OW13165   4.878   6.447   3.856  0.2237 -0.2437  0.1324
 4089SOL    HW113166   4.865   6.369   3.916 -1.2306 -0.7350 -0.7591
 4089SOL    HW213167   4.794   6.463   3.803  1.7240 -0.4440 -2.4811
 4090SOL     OW13168   2.882   5.282   3.507 -0.3120 -0.7465 -0.6338
 4090SOL    HW113169   2.846   5.368   3.544  0.1903  0.0047 -1.8285
 4090SOL    HW213170   2.932   5.234   3.579  0.7098  0.7074 -0.3186
 4091SOL     OW13171   1.886   0.315   6.953  0.5662 -0.1202 -0.5214
 4091SOL    HW113172   1.899   0.221   6.983  0.0833 -0.0141  0.0422
 4091SOL    HW213173   1.974   0.355   6.928  0.7056 -0.9159 -1.3793
 4092SOL     OW13174   4.389   4.124   6.532  0.3707  0.5800 -0.3077
 4092SOL    HW113175   4.390   4.173   6.619 -2.6159  0.1103  0.0988
 4092SOL    HW213176   4.298   4.133   6.490  1.3733 -0.1970 -2.8283
 4093SOL     OW13177   5.227   0.466   6.429  0.1199 -0.2133 -0.1090
 4093SOL    HW113178   5.152   0.506   6.482  1.5483  1.1867  0.9753
 4093SOL    HW213179   5.249   0.375   6.464 -0.0611  0.0103  0.5882
 4094SOL     OW13180   5.366   1.113   2.423  0.0492 -0.2051  0.2324
 4094SOL    HW113181   5.413   1.045   2.366  0.4156 -0.6611  1.0633
 4094SOL    HW213182   5.365   1.201   2.376  1.3250 -0.3061 -0.0107
 4095SOL     OW13183   5.241   3.044   6.379 -0.6710 -0.2488 -0.0867
 4095SOL    HW113184   5.257   3.006   6.288  1.4724 -1.1329  0.6042
 4095SOL    HW213185   5.256   2.973   6.448 -1.2493  0.6702  1.0124
 4096SOL     OW13186   6.565   6.716   3.515 -0.1858  0.1193  0.3942
 4096SOL    HW113187   6.600   6.637   3.464 -0.5060  0.4442 -0.3544
 4096SOL    HW213188   6.467   6.704   3.531 -0.1954  0.2736  0.4476
 4097SOL     OW13189   0.399   5.271   2.661 -0.0139 -0.8515  0.0620
 4097SOL    HW113190   0.401   5.368   2.640 -2.7535 -0.6386  0.4546
 4097SOL    HW213191   0.493   5.238   2.676  1.2376  1.0584 -2.7483
 4098SOL     OW13192   0.322   5.018   5.795  0.4060 -1.1069  0.7368
 4098SOL    HW113193   0.358   4.950   5.859  0.2074 -1.6505  0.2836
 4098SOL    HW213194   0.224   5.029   5.811  0.7577  0.4217  2.0147
 4099SOL     OW13195   4.543   0.442   4.564  0.1875 -0.0059 -0.1455
 4099SOL    HW113196   4.460   0.392   4.590 -0.1207  0.5316 -0.1039
 4099SOL    HW213197   4.530   0.486   4.476  0.2966  0.3882  0.0333
 4100SOL     OW13198   4.188   6.225   6.790 -0.7718  0.2365 -0.8837
 4100SOL    HW113199   4.257   6.168   6.743 -0.3876 -0.1668  0.1452
 4100SOL    HW213200   4.231   6.271   6.868 -2.0556 -1.5156  0.9582
 4101SOL     OW13201   3.504   2.839   1.149  0.9997  0.2788  0.4350
 4101SOL    HW113202   3.455   2.801   1.071  2.7543 -0.8381 -0.1843
 4101SOL    HW213203   3.449   2.911   1.192 -0.2746  0.4551 -1.4122
 4102SOL     OW13204   6.525   0.720   2.671 -0.4045 -0.9339  0.1526
 4102SOL    HW113205   6.539   0.784   2.746 -0.9936 -2.0954  1.2925
 4102SOL    HW213206   6.490   0.633   2.707 -0.1729 -1.7136 -1.4028
 4103SOL     OW13207   5.957   4.693   2.961  0.4769  0.1677  0.1475
 4103SOL    HW113208   5.994   4.780   2.992 -0.5536  1.5073 -2.1383
 4103SOL    HW213209   5.888   4.661   3.026  0.2240  1.5170  0.5701
 4104SOL     OW13210   4.852   2.224   2.442 -0.3826  0.4822  0.5604
 4104SOL    HW113211   4.830   2.288   2.515 -0.2739 -0.0997  1.1128
 4104SOL    HW213212   4.775   2.161   2.428 -0.4306  0.6302  0.1228
 4105SOL     OW13213   5.008   5.967   3.323 -0.3985  0.1770  0.1345
 4105SOL    HW113214   4.921   5.951   3.370  0.3647 -1.0766  1.1884
 4105SOL    HW213215   5.072   5.893   3.345  0.8862  0.9782 -0.7658
 4106SOL     OW13216   1.431   4.988   3.225  0.3250 -0.2353  0.2921
 4106SOL    HW113217   1.478   5.069   3.191  0.5865 -0.2461  0.6241
 4106SOL    HW213218   1.332   5.002   3.221 -0.0436 -2.1289 -5.4660
 4107SOL     OW13219   6.264   2.589   2.130  0.7898 -0.4945 -0.3211
 4107SOL    HW113220   6.243   2.671   2.185 -0.8179 -1.8934  1.3027
 4107SOL    HW213221   6.341   2.540   2.171 -0.1371 -1.3136  0.4959
 4108SOL     OW13222   6.163   5.026   1.560  0.3138 -0.1338  0.1934
 4108SOL    HW113223   6.243   5.006   1.617  0.5927  3.6492  1.3775
 4108SOL    HW213224   6.087   4.968   1.589  1.3798 -0.6794  2.1288
 4109SOL     OW13225   2.254   2.476   3.561  0.4834  0.3719 -0.1303
 4109SOL    HW113226   2.327   2.538   3.534  0.2301  1.5383  1.6966
 4109SOL    HW213227   2.170   2.528   3.577 -0.2183 -0.6857 -0.2529
 4110SOL     OW13228   1.787   1.469   3.522 -0.3426  0.0201 -0.4256
 4110SOL    HW113229   1.863   1.464   3.457  0.4257  1.4461  0.3052
 4110SOL    HW213230   1.824   1.467   3.615 -1.0956  1.7291 -0.0632
 4111SOL     OW13231   3.436   5.380   2.791 -0.1288  0.0979 -0.4363
 4111SOL    HW113232   3.406   5.443   2.720  0.8223  1.7402  0.5484
 4111SOL    HW213233   3.536   5.376   2.792  0.0893  2.4634  2.6072
 4112SOL     OW13234   1.460   1.659   2.028 -0.1414 -0.6765 -0.1921
 4112SOL    HW113235   1.402   1.739   2.011  0.7049 -0.1033 -0.4611
 4112SOL    HW213236   1.488   1.658   2.124  1.7827  0.7070 -0.6942
 4113SOL     OW13237   4.914   1.867   5.797 -0.0810 -0.0156  0.5274
 4113SOL    HW113238   4.866   1.891   5.881  0.4843 -0.8989  1.1126
 4113SOL    HW213239   4.995   1.813   5.818 -0.0327 -0.4198 -0.6026
 4114SOL     OW13240   2.445   0.823   2.614 -0.0132  0.7553  0.1960
 4114SOL    HW113241   2.410   0.776   2.695 -0.7210  1.2133  0.1655
 4114SOL    HW213242   2.451   0.758   2.538 -0.2523  0.5390  0.3602
 4115SOL     OW13243   0.955   5.954   4.113  0.1787 -0.3584 -0.3217
 4115SOL    HW113244   0.965   6.049   4.084  1.9437  0.0243  1.3137
 4115SOL    HW213245   0.994   5.893   4.045  1.0943  0.2670 -0.3767
 4116SOL     OW13246   1.092   3.516   6.376 -0.5038  0.3904  0.0341
 4116SOL    HW113247   1.121   3.585   6.309  1.2538  1.0954  1.4132
 4116SOL    HW213248   1.049   3.562   6.453  0.6483 -0.0176  0.9472
 4117SOL     OW13249   0.275   6.322   6.876 -0.1738 -0.2471  0.5900
 4117SOL    HW113250   0.367   6.329   6.915  0.3405 -0.9093 -0.4567
 4117SOL    HW213251   0.225   6.247   6.921 -0.0825 -0.1103  0.9212
 4118SOL     OW13252   3.367   0.546   5.973 -0.1346 -0.2271 -0.6994
 4118SOL    HW113253   3.366   0.531   6.072 -0.2967  1.6254 -0.3998
 4118SOL    HW213254   3.275   0.530   5.937  0.1401 -1.9218 -0.7560
 4119SOL     OW13255   6.735   6.813   4.582  0.6004 -0.2328  0.3044
 4119SOL    HW113256   6.636   6.796   4.585  0.5092 -0.2420 -1.5256
 4119SOL    HW213257   6.760   6.876   4.655 -0.9692  0.7222  0.0752
 4120SOL     OW13258   4.331   6.609   6.121  0.2770 -0.5568  0.0769
 4120SOL    HW113259   4.368   6.624   6.029 -2.0582 -1.2811 -1.0439
 4120SOL    HW213260   4.245   6.658   6.130  1.0091  0.4430  2.3347
 4121SOL     OW13261   1.896   4.507   6.473  0.1972 -0.2396  0.0063
 4121SOL    HW113262   1.982   4.557   6.482  0.5404 -0.5005 -1.4606
 4121SOL    HW213263   1.825   4.569   6.439 -0.7760  0.4745  3.0938
 4122SOL     OW13264   2.430   6.281   0.343 -0.1960 -0.9837 -0.4014
 4122SOL    HW113265   2.475   6.279   0.432  0.0415  1.4840 -0.4003
 4122SOL    HW213266   2.347   6.225   0.346 -2.4457  2.1008  2.7101
 4123SOL     OW13267   5.494   3.623   5.898 -0.4726 -0.1037 -0.1391
 4123SOL    HW113268   5.462   3.666   5.814  2.1230  1.2819 -0.5160
 4123SOL    HW213269   5.439   3.655   5.975 -0.5375  1.5591 -0.8368
 4124SOL     OW13270   4.610   6.656   2.931 -0.8122 -0.3034  0.5600
 4124SOL    HW113271   4.541   6.722   2.901 -0.3021  0.0310  0.0966
 4124SOL    HW213272   4.612   6.579   2.867  0.6787  0.6867 -0.6445
 4125SOL     OW13273   5.481   1.216   0.836 -0.6036  0.2820  0.1278
 4125SOL    HW113274   5.476   1.194   0.933 -1.4903  0.2405  0.0740
 4125SOL    HW213275   5.489   1.131   0.783  0.3708  0.3232  0.1783
 4126SOL     OW13276   2.158   0.558   4.407 -0.0272 -0.9512  0.1101
 4126SOL    HW113277   2.177   0.637   4.464 -0.0885 -0.5023 -0.4848
 4126SOL    HW213278   2.244   0.512   4.384 -0.0396 -1.4236  0.9568
 4127SOL     OW13279   3.299   6.097   6.246  0.2078 -0.5187  0.5462
 4127SOL    HW113280   3.338   6.030   6.309 -0.8136  0.0332  1.8259
 4127SOL    HW213281   3.325   6.189   6.275  0.4916 -0.2934 -0.4012
 4128SOL     OW13282   2.177   6.469   4.520 -0.1024 -0.1629 -0.6212
 4128SOL    HW113283   2.081   6.450   4.499 -0.3051  2.7415 -2.7979
 4128SOL    HW213284   2.233   6.392   4.490 -1.6557 -1.9366  0.7314
 4129SOL     OW13285   2.543   1.312   0.778 -0.1412 -0.1456  0.4919
 4129SOL    HW113286   2.478   1.249   0.819  0.8426  0.2961  2.8858
 4129SOL    HW213287   2.564   1.385   0.843  2.0006  0.2628 -0.5737
 4130SOL     OW13288   1.927   6.633   2.333 -0.2384  0.1506 -0.3366
 4130SOL    HW113289   1.852   6.661   2.274 -0.5354  0.2519  0.0827
 4130SOL    HW213290   1.999   6.702   2.331 -1.3010  1.3678  1.2892
 4131SOL     OW13291   6.758   6.348   6.668 -0.1173  0.9013 -0.1145
 4131SOL    HW113292   6.796   6.315   6.755 -0.9315  0.1126 -0.0453
 4131SOL    HW213293   6.662   6.370   6.680 -0.9754 -1.7459 -1.4122
 4132SOL     OW13294   5.814   1.807   5.110  0.0138  0.4110 -0.4407
 4132SOL    HW113295   5.897   1.782   5.061 -0.5481 -1.5179 -0.4955
 4132SOL    HW213296   5.823   1.781   5.206 -0.8716 -0.8191 -0.6571
 4133SOL     OW13297   2.900   3.438   2.119  0.4129  0.1049  0.3458
 4133SOL    HW113298   2.912   3.523   2.170  2.1146 -0.9561  1.8227
 4133SOL    HW213299   2.872   3.459   2.025  2.2494  2.3583  0.2318
 4134SOL     OW13300   6.031   5.027   6.170 -0.7981  0.3138 -0.1430
 4134SOL    HW113301   6.035   4.977   6.084  2.5253  0.6756 -0.3551
 4134SOL    HW213302   6.078   4.975   6.241 -3.2221  0.1601  1.4437
 4135SOL     OW13303   1.206   0.261   6.672 -0.5164 -0.4617 -0.4142
 4135SOL    HW113304   1.200   0.170   6.715 -1.5798 -0.2828 -0.1774
 4135SOL    HW213305   1.115   0.292   6.646 -0.0610  0.1564 -1.3247
 4136SOL     OW13306   4.710   5.610   4.377  0.1349  0.2139  0.5875
 4136SOL    HW113307   4.614   5.636   4.367 -0.1747 -0.0730  2.4539
 4136SOL    HW213308   4.722   5.514   4.353  0.2512  0.6009 -1.0101
 4137SOL     OW13309   4.219   5.714   0.298  0.1709  0.1670  0.0573
 4137SOL    HW113310   4.292   5.651   0.274  0.2459  0.1854  0.2366
 4137SOL    HW213311   4.137   5.692   0.245  0.3155  0.1688 -0.1704
 4138SOL     OW13312   6.758   2.102   6.323  0.0199 -0.0411  0.1935
 4138SOL    HW113313   6.824   2.047   6.272 -0.2853 -1.1973  1.0125
 4138SOL    HW213314   6.666   2.065   6.310 -0.4640  1.3726 -0.6834
 4139SOL     OW13315   0.002   1.778   4.257 -0.0902 -0.3373  0.2154
 4139SOL    HW113316   0.085   1.733   4.224 -0.1019  0.5398 -1.0841
 4139SOL    HW213317  -0.078   1.726   4.230 -0.0191 -0.5162  0.3510
 4140SOL     OW13318   0.841   6.996   5.561 -0.2850  0.1540 -0.1356
 4140SOL    HW113319   0.793   6.909   5.556 -0.4369  0.1803  0.6944
 4140SOL    HW213320   0.785   7.068   5.518 -0.5540  0.0057 -0.0348
 4141SOL     OW13321   5.708   1.156   1.637  0.8457  0.6034  0.1210
 4141SOL    HW113322   5.798   1.149   1.680  0.0572  1.1140  1.9561
 4141SOL    HW213323   5.684   1.252   1.624  0.3122  0.4953  0.2446
 4142SOL     OW13324   4.872   2.839   5.504  0.8209 -0.4961  0.3258
 4142SOL    HW113325   4.806   2.907   5.470 -1.0082 -0.8919  2.8015
 4142SOL    HW213326   4.940   2.884   5.562  2.4497 -0.1897 -1.7044
 4143SOL     OW13327   6.096   6.419   2.029  0.2645  0.1403 -0.2888
 4143SOL    HW113328   6.061   6.374   1.947  0.2275 -0.6532  0.1497
 4143SOL    HW213329   6.024   6.423   2.098  1.4637 -3.4054  1.4154
 4144SOL     OW13330   3.152   5.169   4.613 -0.0965  0.0555  0.1981
 4144SOL    HW113331   3.108   5.258   4.605  0.9071  0.5215 -0.3029
 4144SOL    HW213332   3.087   5.103   4.651 -0.7070  1.1105  1.0520
 4145SOL     OW13333   4.252   2.410   6.241  0.2656  0.0680 -0.1914
 4145SOL    HW113334   4.314   2.404   6.319 -0.1041 -0.9181  0.0444
 4145SOL    HW213335   4.162   2.376   6.268  0.3645 -1.1399 -1.2638
 4146SOL     OW13336   5.167   5.886   4.727 -0.0494 -0.0086  0.3840
 4146SOL    HW113337   5.222   5.900   4.809 -0.9594 -0.9600  1.1868
 4146SOL    HW213338   5.141   5.975   4.689 -0.0419  0.4502  1.4160
 4147SOL     OW13339   1.931   1.082   3.052  0.2080 -0.3280 -0.2345
 4147SOL    HW113340   1.980   1.137   3.121  1.5746 -0.3106 -1.1714
 4147SOL    HW213341   1.858   1.137   3.012  1.1919  0.6700 -0.7493
 4148SOL     OW13342   2.570   5.917   0.109 -0.1868 -0.4807  0.5087
 4148SOL    HW113343   2.577   5.911   0.209 -1.0586 -0.9963  0.5490
 4148SOL    HW213344   2.482   5.958   0.084  0.3083  0.2642 -0.0424
 4149SOL     OW13345   2.834   5.292   5.093 -0.0869 -0.1539  0.1831
 4149SOL    HW113346   2.838   5.376   5.147 -0.4106 -1.1827  1.9165
 4149SOL    HW213347   2.755   5.238   5.124  1.6683 -2.3382  1.0885
 4150SOL     OW13348   5.083   6.774   3.308 -0.0452  0.4028 -0.6532
 4150SOL    HW113349   5.154   6.833   3.347  0.1119 -0.2686  0.0920
 4150SOL    HW213350   5.126   6.700   3.256 -0.2131  0.3060 -0.6553
 4151SOL     OW13351   2.291   4.710   3.991  0.1662 -0.0674  0.0784
 4151SOL    HW113352   2.390   4.697   3.984 -0.1402 -2.6239 -0.5911
 4151SOL    HW213353   2.256   4.658   4.068 -0.8318 -0.4879 -0.6404
 4152SOL     OW13354   4.595   6.017   3.646  0.1418  0.0212 -0.3239
 4152SOL    HW113355   4.692   6.003   3.668  0.1201 -0.0581 -0.2767
 4152SOL    HW213356   4.541   6.008   3.730  0.0573 -0.2804 -0.4125
 4153SOL     OW13357   5.692   3.757   3.395  0.3008 -0.4838 -0.3410
 4153SOL    HW113358   5.644   3.840   3.365  0.9409  0.8810  2.1071
 4153SOL    HW213359   5.772   3.783   3.448  0.2820 -2.6779  0.8480
 4154SOL     OW13360   6.379   5.058   1.175 -0.1821 -0.2026 -0.5991
 4154SOL    HW113361   6.451   5.114   1.132 -0.1887 -0.8323 -1.4395
 4154SOL    HW213362   6.338   5.110   1.250  0.4209  0.5826 -0.7940
 4155SOL     OW13363   2.473   4.298   6.996  0.3272 -0.1789  0.3351
 4155SOL    HW113364   2.454   4.271   6.901 -1.1558 -0.2049  0.6226
 4155SOL    HW213365   2.551   4.245   7.030  3.1248  2.0846 -1.8760
 4156SOL     OW13366   4.807   4.039   2.832 -0.0993 -0.2915 -0.4534
 4156SOL    HW113367   4.881   3.994   2.782  0.2333 -0.8598  0.5219
 4156SOL    HW213368   4.756   4.098   2.769  0.3878 -0.8675 -1.4224
 4157SOL     OW13369   1.715   6.890   0.497  0.0010 -0.2000 -0.1599
 4157SOL    HW113370   1.781   6.960   0.523  0.7912 -1.0044  0.0231
 4157SOL    HW213371   1.734   6.805   0.546 -0.7864 -0.6346 -0.5727
 4158SOL     OW13372   1.189   4.925   0.689 -0.5860  0.4433  0.4089
 4158SOL    HW113373   1.222   4.841   0.733 -1.6471  0.3991  1.1470
 4158SOL    HW213374   1.090   4.918   0.675 -0.2837  0.3634 -2.2080
 4159SOL     OW13375   3.364   1.848   0.246  0.5081 -0.1854 -0.1273
 4159SOL    HW113376   3.393   1.895   0.163  0.0757  2.2543  1.0224
 4159SOL    HW213377   3.266   1.863   0.261  0.2188 -1.9674  0.0035
 4160SOL     OW13378   5.297   6.805   6.506  0.5467  0.0305 -0.3247
 4160SOL    HW113379   5.221   6.780   6.447  0.7069  0.8347 -0.8891
 4160SOL    HW213380   5.384   6.789   6.458  0.7412 -0.8903  0.3161
 4161SOL     OW13381   5.900   4.644   3.859  0.1645 -0.1460  0.0411
 4161SOL    HW113382   5.885   4.571   3.792  1.1785 -0.9572  0.6725
 4161SOL    HW213383   5.965   4.710   3.821  0.0200 -0.1108 -0.1448
 4162SOL     OW13384   6.978   2.634   1.278 -0.1888 -0.0262  0.4594
 4162SOL    HW113385   7.071   2.601   1.260  0.0186  0.2581  1.0050
 4162SOL    HW213386   6.935   2.662   1.192  0.1588 -0.3394  0.1812
 4163SOL     OW13387   3.716   2.888   5.878  0.2277  0.1259 -0.4445
 4163SOL    HW113388   3.721   2.940   5.963  0.2826 -0.4214 -0.1120
 4163SOL    HW213389   3.793   2.825   5.872 -0.9673 -1.4584  0.1828
 4164SOL     OW13390   6.713   1.675   5.352 -0.1198  0.3467 -0.8977
 4164SOL    HW113391   6.650   1.618   5.299  0.1837  1.5219 -2.5750
 4164SOL    HW213392   6.795   1.693   5.298  0.6647  0.7342  0.3892
 4165SOL     OW13393   5.994   2.983   5.280  0.1355  0.1517 -0.3647
 4165SOL    HW113394   6.004   2.885   5.267 -1.0760 -0.2127  1.1675
 4165SOL    HW213395   5.942   3.022   5.203  2.2417 -0.0141 -1.9719
 4166SOL     OW13396   0.612   0.718   0.914  0.7835 -0.0949  0.5089
 4166SOL    HW113397   0.597   0.650   0.986 -1.1468 -0.2465  0.0013
 4166SOL    HW213398   0.710   0.726   0.896  1.4536  0.6848  3.8433
 4167SOL     OW13399   2.197   4.168   2.493  0.0618 -0.1061  0.6476
 4167SOL    HW113400   2.279   4.200   2.447  0.5393 -1.6762  0.3325
 4167SOL    HW213401   2.213   4.163   2.592  0.2432 -0.1115  0.6178
 4168SOL     OW13402   5.773   1.977   6.615 -0.2145 -0.2113 -0.0114
 4168SOL    HW113403   5.674   1.976   6.629 -0.2571 -1.3183 -0.3134
 4168SOL    HW213404   5.795   1.941   6.525  0.5236 -1.2478  0.5487
 4169SOL     OW13405   0.975   0.370   2.892 -0.2798 -0.3558 -0.6223
 4169SOL    HW113406   0.980   0.467   2.870 -3.8921  0.1198  0.1170
 4169SOL    HW213407   1.000   0.316   2.812  1.2846  1.1271 -1.1938
 4170SOL     OW13408   0.435   5.275   5.752 -0.2111  0.3458  0.1631
 4170SOL    HW113409   0.395   5.184   5.764 -1.4633  0.7673 -0.6454
 4170SOL    HW213410   0.516   5.284   5.811 -1.6769 -0.3029  2.4019
 4171SOL     OW13411   2.138   3.341   1.744  0.3810  0.3044  0.3729
 4171SOL    HW113412   2.201   3.405   1.789  0.7489  0.3634 -0.2066
 4171SOL    HW213413   2.130   3.365   1.647  0.0729 -0.1787  0.2747
 4172SOL     OW13414   4.697   6.206   0.956 -0.5085 -0.1341 -0.1593
 4172SOL    HW113415   4.637   6.199   0.876  1.0536  0.4950 -1.4405
 4172SOL    HW213416   4.792   6.199   0.926  0.0843 -1.4319  1.8519
 4173SOL     OW13417   0.446   3.637   2.105  0.0452 -0.0103 -0.0078
 4173SOL    HW113418   0.448   3.691   2.022  0.2301 -0.1324 -0.0833
 4173SOL    HW213419   0.437   3.697   2.184 -0.1451  0.1040 -0.1170
 4174SOL     OW13420   5.430   4.366   2.451  0.0686 -0.5600 -0.3628
 4174SOL    HW113421   5.435   4.449   2.395 -2.2589 -1.3958 -1.9605
 4174SOL    HW213422   5.500   4.301   2.421  0.6292  0.0611 -0.4219
 4175SOL     OW13423   0.738   3.741   3.947 -0.1382  0.5330 -0.0300
 4175SOL    HW113424   0.738   3.835   3.981 -0.8613  0.8610 -0.9078
 4175SOL    HW213425   0.680   3.684   4.007 -0.2629  0.7961  0.0991
 4176SOL     OW13426   3.786   3.721   5.316 -0.1572  0.6527 -0.4143
 4176SOL    HW113427   3.703   3.682   5.355  0.9561 -2.6962 -1.0159
 4176SOL    HW213428   3.763   3.771   5.232 -1.5072 -1.2395 -1.2494
 4177SOL     OW13429   1.354   0.575   1.133 -0.3594 -0.2852 -0.0770
 4177SOL    HW113430   1.406   0.631   1.198 -1.5923  0.7306  0.0882
 4177SOL    HW213431   1.260   0.564   1.167 -0.2463 -2.2187 -0.2747
 4178SOL     OW13432   2.606   5.714   2.608  0.5458 -0.2610  0.6045
 4178SOL    HW113433   2.610   5.682   2.513 -1.2584 -0.0230  0.4205
 4178SOL    HW213434   2.644   5.643   2.668  2.7732  0.0413 -0.3445
 4179SOL     OW13435   5.136   2.534   1.363  0.2690  0.1713 -0.4908
 4179SOL    HW113436   5.146   2.590   1.280  0.5777  0.4209 -0.2828
 4179SOL    HW213437   5.225   2.499   1.391  0.6319  2.3063  1.2835
 4180SOL     OW13438   5.946   1.932   1.443 -0.0455 -0.0342  0.1929
 4180SOL    HW113439   6.027   1.972   1.487 -0.3703  1.9316 -0.8730
 4180SOL    HW213440   5.894   2.004   1.398 -1.0814 -1.6092 -1.2558
 4181SOL     OW13441   2.777   5.835   6.798  0.1344  0.2068 -0.7527
 4181SOL    HW113442   2.731   5.753   6.832  0.1344  1.2975  2.1419
 4181SOL    HW213443   2.875   5.818   6.791  0.0470 -0.2457 -0.8998
 4182SOL     OW13444   6.349   2.541   3.724  0.3065 -0.2737 -0.3205
 4182SOL    HW113445   6.376   2.533   3.820  1.8367 -0.0660 -0.7080
 4182SOL    HW213446   6.269   2.600   3.718  0.5117  0.1603  0.7935
 4183SOL     OW13447   3.250   5.490   3.037  0.3772  0.2733  0.0075
 4183SOL    HW113448   3.312   5.429   2.987 -0.0774 -0.9143  0.8553
 4183SOL    HW213449   3.302   5.549   3.098  0.6652 -1.5746  1.6508
 4184SOL     OW13450   6.873   6.561   6.885  0.2433 -0.1442 -0.5432
 4184SOL    HW113451   6.871   6.591   6.790 -0.0028 -0.7393 -0.7295
 4184SOL    HW213452   6.967   6.538   6.911  0.0718 -1.6051 -1.1635
 4185SOL     OW13453   6.529   4.576   3.069  0.5729  0.4853  0.1740
 4185SOL    HW113454   6.507   4.660   3.019 -0.9838 -0.3103 -0.5404
 4185SOL    HW213455   6.452   4.551   3.128  0.7041 -0.8453 -0.1871
 4186SOL     OW13456   4.170   2.462   1.728 -0.0616  0.3886 -0.6448
 4186SOL    HW113457   4.092   2.412   1.766 -1.5148  1.4360 -2.1260
 4186SOL    HW213458   4.142   2.508   1.644  2.5288 -0.3363 -2.0021
 4187SOL     OW13459   1.998   2.393   5.046  0.1543 -0.1669  0.0412
 4187SOL    HW113460   2.079   2.340   5.020 -0.0600 -0.2091 -0.5500
 4187SOL    HW213461   2.026   2.486   5.068  0.3515 -0.1486 -0.2722
 4188SOL     OW13462   1.052   3.444   0.287  0.7957 -0.5142 -0.4875
 4188SOL    HW113463   1.094   3.482   0.205  0.3741 -0.1499 -0.5327
 4188SOL    HW213464   0.996   3.365   0.263  2.1173 -1.5422 -0.3288
 4189SOL     OW13465   4.892   0.853   6.972  0.1811  0.5045  0.6608
 4189SOL    HW113466   4.855   0.761   6.964  2.3382 -0.6567  2.8145
 4189SOL    HW213467   4.889   0.883   7.067  1.8139  1.6168  0.4126
 4190SOL     OW13468   4.124   1.088   6.314  0.5567 -0.1677 -0.0357
 4190SOL    HW113469   4.193   1.015   6.310 -1.4514 -2.1506 -2.5369
 4190SOL    HW213470   4.041   1.053   6.359  0.1111  1.1509  0.2114
 4191SOL     OW13471   6.604   1.392   2.187 -0.2441  0.0961 -0.3676
 4191SOL    HW113472   6.524   1.375   2.129 -0.4406  1.2639 -0.4715
 4191SOL    HW213473   6.633   1.487   2.176  0.6801 -0.0975  0.2757
 4192SOL     OW13474   5.615   2.741   5.068  0.5153 -0.0363  0.6396
 4192SOL    HW113475   5.573   2.672   5.009 -1.1133 -0.9462  2.7133
 4192SOL    HW213476   5.544   2.785   5.123  1.9338  0.7895  1.8826
 4193SOL     OW13477   1.608   4.994   6.513  0.1326  0.0916  0.0441
 4193SOL    HW113478   1.697   4.949   6.526  0.1959  0.4128  0.7824
 4193SOL    HW213479   1.623   5.084   6.474  0.0625 -0.2014 -0.6714
 4194SOL     OW13480   3.960   5.652   6.643 -0.2051  0.6669 -0.6914
 4194SOL    HW113481   4.001   5.734   6.602  0.4983  0.0771 -1.1945
 4194SOL    HW213482   3.910   5.602   6.573  0.6355 -0.1175 -0.7575
 4195SOL     OW13483   4.734   5.881   4.522  0.3451 -0.0572 -0.2559
 4195SOL    HW113484   4.751   5.782   4.529  2.3057  0.2092 -0.6035
 4195SOL    HW213485   4.775   5.916   4.438  2.5059  1.5385  1.3577
 4196SOL     OW13486   5.874   3.432   4.206 -0.3228  0.6894 -0.0387
 4196SOL    HW113487   5.903   3.378   4.126  3.5998  1.4230  0.6893
 4196SOL    HW213488   5.886   3.377   4.288 -0.1461  1.3338  0.3714
 4197SOL     OW13489   3.353   3.898   6.727 -0.0128  0.2707 -0.2561
 4197SOL    HW113490   3.363   3.861   6.635 -1.2561 -1.3002  0.1836
 4197SOL    HW213491   3.311   3.989   6.722 -1.5389 -0.4414 -1.2117
 4198SOL     OW13492   0.041   5.796   1.013 -0.4119  0.0089  0.1354
 4198SOL    HW113493  -0.004   5.849   1.085  1.3703  2.1865 -0.2310
 4198SOL    HW213494   0.106   5.732   1.053  0.1255  0.7754  0.4953
 4199SOL     OW13495   2.782   1.536   0.300  0.0583 -0.0004  0.0977
 4199SOL    HW113496   2.691   1.557   0.335 -1.1109 -1.5183 -1.8137
 4199SOL    HW213497   2.818   1.615   0.250 -0.8959  0.0897 -0.4607
 4200SOL     OW13498   1.241   3.579   3.428  0.7107 -0.3651  0.3633
 4200SOL    HW113499   1.171   3.527   3.476  0.9774 -0.4096  0.6979
 4200SOL    HW213500   1.215   3.587   3.331 -0.3386  0.5791  0.6870
 4201SOL     OW13501   4.946   1.443   4.181  0.1763  0.5834  0.6703
 4201SOL    HW113502   4.982   1.459   4.274 -0.1248 -0.5165  0.9935
 4201SOL    HW213503   4.884   1.517   4.156  0.8980  1.3215  1.0181
 4202SOL     OW13504   1.262   3.114   4.245  0.6645 -0.1107  0.1822
 4202SOL    HW113505   1.270   3.036   4.183 -0.5411 -1.0872  1.1699
 4202SOL    HW213506   1.294   3.197   4.200  0.1098 -0.8229 -1.6297
 4203SOL     OW13507   5.628   1.518   4.344 -0.2410  0.0824 -0.3080
 4203SOL    HW113508   5.530   1.539   4.354 -0.5266 -1.2048 -0.2994
 4203SOL    HW213509   5.639   1.430   4.298  0.9323  0.3214 -0.5238
 4204SOL     OW13510   3.306   5.776   5.992 -0.4044  0.0233 -0.5772
 4204SOL    HW113511   3.359   5.691   5.984  0.2872  0.0974  2.3145
 4204SOL    HW213512   3.368   5.853   6.005 -1.1241  0.6513 -0.7562
 4205SOL     OW13513   0.076   5.564   4.979 -0.3916  0.2375  0.8861
 4205SOL    HW113514   0.128   5.645   5.005  0.5666  0.2509 -0.9320
 4205SOL    HW213515  -0.001   5.590   4.922  0.6351 -0.1802 -0.7530
 4206SOL     OW13516   5.953   4.495   3.578  0.0934 -0.0661 -0.4897
 4206SOL    HW113517   5.997   4.566   3.523 -0.1930 -1.2636 -2.3546
 4206SOL    HW213518   6.023   4.436   3.618  0.3045  0.8079  0.4755
 4207SOL     OW13519   2.229   4.080   0.600  0.7720  0.4907  0.4756
 4207SOL    HW113520   2.179   4.108   0.519  1.3776 -1.2979 -0.5538
 4207SOL    HW213521   2.244   4.160   0.659  0.9166  1.9684 -1.4738
 4208SOL     OW13522   1.355   2.441   4.351  0.3876  0.0728 -0.2666
 4208SOL    HW113523   1.349   2.509   4.278 -1.5360 -0.0084 -0.2322
 4208SOL    HW213524   1.372   2.488   4.438 -0.0915  0.4525 -0.3723
 4209SOL     OW13525   4.209   0.915   2.990 -0.3233 -0.6659  0.2497
 4209SOL    HW113526   4.168   1.005   2.981  0.9623 -0.0286  0.4639
 4209SOL    HW213527   4.291   0.921   3.048  1.2336 -1.4460 -1.7287
 4210SOL     OW13528   4.520   1.354   1.154 -0.5295  0.0854 -0.1884
 4210SOL    HW113529   4.431   1.356   1.109 -1.5417 -1.7429  1.5605
 4210SOL    HW213530   4.526   1.273   1.212  2.2811  0.1868 -0.2047
 4211SOL     OW13531   1.913   5.796   1.579  0.1845  0.3639  0.0577
 4211SOL    HW113532   1.854   5.802   1.499  1.6731  0.2341 -1.0990
 4211SOL    HW213533   2.006   5.824   1.554  0.5895  0.7803  1.8626
 4212SOL     OW13534   1.858   6.077   5.523 -0.5036 -0.2968  0.7097
 4212SOL    HW113535   1.835   6.083   5.426  2.3128 -1.8487 -0.1708
 4212SOL    HW213536   1.898   6.164   5.553  0.9889 -0.6220 -0.2591
 4213SOL     OW13537   5.020   2.680   3.189  0.3237 -0.2147  0.5070
 4213SOL    HW113538   5.062   2.753   3.241  0.4266  1.1628 -1.4166
 4213SOL    HW213539   4.959   2.719   3.119 -0.7889 -2.0106  0.4070
 4214SOL     OW13540   4.781   5.352   3.974 -0.4179  0.5659 -0.0791
 4214SOL    HW113541   4.871   5.380   3.941 -1.2473  0.6251 -2.4689
 4214SOL    HW213542   4.787   5.259   4.011  0.2512 -0.3171 -2.2544
 4215SOL     OW13543   0.809   1.688   4.889 -0.1607 -0.5701  0.1226
 4215SOL    HW113544   0.827   1.598   4.848  0.0014 -0.3021 -0.3951
 4215SOL    HW213545   0.877   1.707   4.959  0.4823 -0.3528 -0.5606
 4216SOL     OW13546   4.667   0.624   6.665 -0.2539  0.0368 -0.3611
 4216SOL    HW113547   4.630   0.538   6.630 -1.1441 -0.0547  0.7273
 4216SOL    HW213548   4.610   0.700   6.636  0.7482  0.3237 -1.6389
 4217SOL     OW13549   4.388   3.745   5.420 -0.0330 -0.0680  0.5515
 4217SOL    HW113550   4.374   3.842   5.439  0.6409  0.2589 -0.4985
 4217SOL    HW213551   4.408   3.733   5.323  1.6367 -1.0642  0.9862
 4218SOL     OW13552   6.006   3.506   5.650 -0.5789 -0.5043 -0.1825
 4218SOL    HW113553   5.910   3.483   5.668 -1.3251  2.0412 -0.5973
 4218SOL    HW213554   6.011   3.581   5.585  1.7246 -0.3970  0.0299
 4219SOL     OW13555   1.600   5.106   4.677 -0.8059 -0.5203 -0.5813
 4219SOL    HW113556   1.607   5.035   4.606  0.8205 -2.5436  1.4631
 4219SOL    HW213557   1.611   5.064   4.767 -0.3586  2.2930  0.7678
 4220SOL     OW13558   4.979   6.199   0.874 -0.1182  0.1277  0.2149
 4220SOL    HW113559   5.018   6.137   0.942 -1.5272  0.0872  1.0334
 4220SOL    HW213560   5.024   6.186   0.786 -0.5425 -2.2473  0.2873
 4221SOL     OW13561   6.720   6.592   1.686 -0.6095  0.0916  0.7854
 4221SOL    HW113562   6.802   6.636   1.649 -0.3608 -0.3900  0.7602
 4221SOL    HW213563   6.639   6.641   1.654 -0.3712  0.0328  0.0769
 4222SOL     OW13564   4.004   6.166   4.133  0.3000  0.0625 -0.0493
 4222SOL    HW113565   4.098   6.194   4.150 -0.0239  0.3219  1.4332
 4222SOL    HW213566   3.945   6.202   4.205 -0.5998 -1.9212  0.2804
 4223SOL     OW13567   3.848   0.113   1.504 -0.2538 -0.0439 -0.3584
 4223SOL    HW113568   3.868   0.055   1.583 -0.7048  0.2495 -0.0265
 4223SOL    HW213569   3.755   0.096   1.473  0.0115 -0.3545 -0.9983
 4224SOL     OW13570   1.785   2.621   6.567 -0.5622  0.0874 -0.2086
 4224SOL    HW113571   1.747   2.555   6.501 -2.0933 -1.3475  1.9608
 4224SOL    HW213572   1.779   2.713   6.529  1.8006 -0.8682 -3.4524
 4225SOL     OW13573   1.747   3.835   1.316 -0.3445 -0.5841 -0.4393
 4225SOL    HW113574   1.672   3.771   1.299 -1.6345  0.8153 -0.1794
 4225SOL    HW213575   1.809   3.795   1.384  0.5219 -2.7817 -2.3523
 4226SOL     OW13576   0.177   6.252   2.453  0.1982  0.1758  0.1610
 4226SOL    HW113577   0.206   6.156   2.456 -1.8282 -0.4996 -0.1190
 4226SOL    HW213578   0.233   6.302   2.387 -0.2639 -1.4055 -1.5010
 4227SOL     OW13579   6.927   3.540   0.654  0.8368 -0.3329  0.1962
 4227SOL    HW113580   6.852   3.514   0.714 -0.2370 -0.5641 -1.2079
 4227SOL    HW213581   7.010   3.554   0.709 -0.5025  1.2131  1.9621
 4228SOL     OW13582   1.049   5.199   4.204  0.5981  0.2165 -0.2667
 4228SOL    HW113583   1.015   5.261   4.133  2.2131  1.2195 -0.2202
 4228SOL    HW213584   1.019   5.233   4.294  2.0873  1.4342 -0.1786
 4229SOL     OW13585   0.007   2.896   5.697  0.2574 -0.5701  0.0893
 4229SOL    HW113586  -0.077   2.851   5.667  0.9466 -0.6475 -1.8621
 4229SOL    HW213587   0.006   2.991   5.665  1.1276 -0.7185 -0.3958
 4230SOL     OW13588   0.125   5.291   6.360  0.3644  0.0762 -0.0688
 4230SOL    HW113589   0.222   5.274   6.381  0.4417 -0.2211 -0.6457
 4230SOL    HW213590   0.078   5.203   6.348 -0.6750  0.0624  3.1640
 4231SOL     OW13591   5.428   2.666   5.340 -1.5190  0.1013 -0.0750
 4231SOL    HW113592   5.337   2.624   5.343 -0.5286 -2.4521 -1.8518
 4231SOL    HW213593   5.491   2.612   5.396 -0.5965  0.3365 -0.8683
 4232SOL     OW13594   4.363   5.251   5.302 -0.4659  0.1458 -0.0227
 4232SOL    HW113595   4.398   5.226   5.212  1.6933  0.3886  0.6939
 4232SOL    HW213596   4.407   5.336   5.332 -0.5171 -0.3833  1.6154
 4233SOL     OW13597   3.364   3.853   5.166  0.2972 -0.1736 -0.3178
 4233SOL    HW113598   3.388   3.853   5.263  1.3064  3.1467 -0.4254
 4233SOL    HW213599   3.428   3.795   5.116  1.6972  0.4626  0.6650
 4234SOL     OW13600   3.634   3.606   6.452  0.3603  0.0780 -1.0710
 4234SOL    HW113601   3.660   3.510   6.463 -3.4904 -0.9210  1.3989
 4234SOL    HW213602   3.682   3.662   6.519  0.6789 -0.5952 -0.7255
 4235SOL     OW13603   5.179   5.308   2.105 -0.4019 -0.2415  0.5442
 4235SOL    HW113604   5.147   5.266   2.020  1.4401  0.2206 -0.4461
 4235SOL    HW213605   5.154   5.405   2.106  0.4246 -0.0070  0.0194
 4236SOL     OW13606   2.373   6.507   4.043 -0.1540  0.7833  0.2779
 4236SOL    HW113607   2.320   6.446   4.103  1.3488  0.4512  1.3138
 4236SOL    HW213608   2.355   6.602   4.069 -1.2467  0.7350 -0.2584
 4237SOL     OW13609   4.436   6.691   0.378  0.6440  0.4977  0.0514
 4237SOL    HW113610   4.344   6.699   0.417  1.0186 -2.2067  1.7408
 4237SOL    HW213611   4.463   6.779   0.340 -1.8600  1.9168  1.2710
 4238SOL     OW13612   5.044   0.120   1.588 -0.6076  0.9318 -0.0035
 4238SOL    HW113613   5.025   0.200   1.531 -1.4198  2.5437  2.3448
 4238SOL    HW213614   4.967   0.105   1.651 -0.7404 -2.1276 -0.7446
 4239SOL     OW13615   0.741   4.323   4.121  0.1307  0.0015 -0.4391
 4239SOL    HW113616   0.824   4.357   4.078  1.8191 -1.3739  1.5427
 4239SOL    HW213617   0.694   4.261   4.057  0.7935  0.5384 -1.4777
 4240SOL     OW13618   3.760   4.076   6.567 -0.3697 -0.3942 -0.1483
 4240SOL    HW113619   3.734   4.104   6.659  0.7220 -0.8459  0.3157
 4240SOL    HW213620   3.842   4.127   6.539 -1.8451  1.2962 -1.7240
 4241SOL     OW13621   4.061   3.302   3.801  0.1923 -0.3596  0.2514
 4241SOL    HW113622   4.069   3.299   3.901  2.1951 -3.3969  0.1574
 4241SOL    HW213623   4.091   3.391   3.768 -1.2690  0.9908  2.3539
 4242SOL     OW13624   3.374   5.877   1.675 -0.7044  0.3217 -0.0397
 4242SOL    HW113625   3.316   5.860   1.754 -0.3277  0.4466  0.2706
 4242SOL    HW213626   3.388   5.793   1.624  1.1596 -0.3748  1.4828
 4243SOL     OW13627   1.246   1.213   2.805 -0.1805 -0.1963 -0.1352
 4243SOL    HW113628   1.197   1.134   2.767 -0.0167  0.1729 -1.1618
 4243SOL    HW213629   1.227   1.294   2.749 -0.9960  0.6886  1.3807
 4244SOL     OW13630   5.663   1.127   2.269 -0.3215 -0.0049 -0.3997
 4244SOL    HW113631   5.689   1.192   2.197  0.0117 -0.5657 -0.7858
 4244SOL    HW213632   5.658   1.175   2.357  1.5686  0.2137 -0.3810
 4245SOL     OW13633   5.685   4.223   0.781  0.2630  0.8868  0.0729
 4245SOL    HW113634   5.765   4.240   0.724  2.5892 -1.2830  2.3986
 4245SOL    HW213635   5.709   4.235   0.877 -2.3087  0.4296  0.8660
 4246SOL     OW13636   3.608   0.587   6.553 -0.3413  0.4633  0.0480
 4246SOL    HW113637   3.670   0.648   6.603  1.0793  0.4791 -1.6346
 4246SOL    HW213638   3.562   0.638   6.481 -2.0432  0.3461  1.0054
 4247SOL     OW13639   6.014   5.443   6.012 -0.3871  0.1688  0.0137
 4247SOL    HW113640   6.018   5.425   6.110  1.6639  1.3119  0.2015
 4247SOL    HW213641   5.966   5.529   5.996  0.2757  0.5722  0.1396
 4248SOL     OW13642   2.281   5.579   3.873 -0.1512 -0.1294  0.0392
 4248SOL    HW113643   2.379   5.588   3.891  0.0760 -1.0171 -0.6797
 4248SOL    HW213644   2.234   5.554   3.958  0.5016 -1.4199  0.0434
 4249SOL     OW13645   5.103   3.793   1.595 -0.0647  0.5589 -0.2022
 4249SOL    HW113646   5.149   3.726   1.538  0.5970  0.5972  0.2670
 4249SOL    HW213647   5.171   3.837   1.655 -1.0621 -1.3149  2.4907
 4250SOL     OW13648   2.215   6.134   0.286  0.0599  0.1753 -0.1176
 4250SOL    HW113649   2.143   6.076   0.323 -1.8575  2.0691 -0.6575
 4250SOL    HW213650   2.176   6.220   0.253  2.5125  1.0892 -0.9568
 4251SOL     OW13651   6.717   6.993   7.000  0.2574 -0.5098 -0.3260
 4251SOL    HW113652   6.696   6.912   6.945  0.3043  0.9942 -2.6920
 4251SOL    HW213653   6.781   6.967   7.073 -0.1286 -2.6877 -0.6765
 4252SOL     OW13654   1.279   4.435   6.911 -0.1083 -0.1597  0.5021
 4252SOL    HW113655   1.224   4.434   6.827  0.6807 -1.4944 -0.0281
 4252SOL    HW213656   1.264   4.521   6.959  1.0099  1.5986 -2.0755
 4253SOL     OW13657   6.297   4.480   6.121 -0.2114 -0.5278  0.1679
 4253SOL    HW113658   6.304   4.497   6.220  0.1633  0.0590  0.0452
 4253SOL    HW213659   6.252   4.392   6.106  1.0171 -1.3337  0.8965
 4254SOL     OW13660   6.118   4.398   3.166  0.0863 -0.3957  0.4128
 4254SOL    HW113661   6.196   4.446   3.206  0.4490 -0.6845  0.0659
 4254SOL    HW213662   6.092   4.443   3.080 -0.8838  0.4083  1.0975
 4255SOL     OW13663   1.441   1.737   0.699 -0.6331  0.6143 -0.0492
 4255SOL    HW113664   1.466   1.648   0.660 -1.2854  0.3860  0.0423
 4255SOL    HW213665   1.373   1.780   0.640 -2.9129 -0.4721  1.6591
 4256SOL     OW13666   6.498   6.632   1.922  0.3673  0.3207 -0.2273
 4256SOL    HW113667   6.594   6.616   1.902  0.0042 -0.0713 -1.7702
 4256SOL    HW213668   6.451   6.665   1.840 -1.5036 -2.6672 -0.4957
 4257SOL     OW13669   5.097   5.718   4.916  0.0235  0.1866 -0.1495
 4257SOL    HW113670   5.131   5.624   4.915 -0.9036 -0.1456 -1.0254
 4257SOL    HW213671   5.118   5.763   4.829  0.1710  0.6889  0.1400
 4258SOL     OW13672   0.683   5.298   5.907 -0.4183  0.0161 -0.1144
 4258SOL    HW113673   0.773   5.337   5.888 -0.6026 -0.1093 -1.3637
 4258SOL    HW213674   0.694   5.205   5.943 -0.0365  0.2956  0.5034
 4259SOL     OW13675   0.944   4.424   0.855  0.1491  0.4481 -0.0890
 4259SOL    HW113676   0.901   4.339   0.823 -0.4631  0.8543 -0.3792
 4259SOL    HW213677   0.993   4.407   0.940  0.9599 -0.4374 -0.7091
 4260SOL     OW13678   2.617   1.705   4.766  0.4142  0.2186  0.0803
 4260SOL    HW113679   2.641   1.686   4.861  3.5008  1.2349 -0.4094
 4260SOL    HW213680   2.594   1.618   4.721 -2.2443 -0.1740  1.9098
 4261SOL     OW13681   2.917   3.818   2.457  0.4514 -0.2303 -0.0634
 4261SOL    HW113682   2.859   3.809   2.376 -0.2073  0.8154  0.2755
 4261SOL    HW213683   2.914   3.733   2.510  0.2399 -0.6275 -0.6946
 4262SOL     OW13684   3.277   1.030   5.396  0.0135  0.1492 -0.7634
 4262SOL    HW113685   3.343   1.081   5.342 -0.4591  3.1527  1.2302
 4262SOL    HW213686   3.309   1.022   5.490 -0.8405 -1.6320 -0.5710
 4263SOL     OW13687   5.719   2.879   4.202  0.0773 -0.3727 -0.6096
 4263SOL    HW113688   5.705   2.860   4.299  2.3810 -0.9924 -0.3303
 4263SOL    HW213689   5.686   2.971   4.180  0.1038  0.0187  0.8961
 4264SOL     OW13690   2.004   1.414   2.968  0.4842 -0.3379 -0.8062
 4264SOL    HW113691   1.942   1.404   2.891 -0.1986  0.0161 -0.3231
 4264SOL    HW213692   2.070   1.487   2.949  0.3883 -0.3265 -1.0942
 4265SOL     OW13693   1.434   2.016   3.095  0.2611 -0.3611 -0.0541
 4265SOL    HW113694   1.358   2.002   3.031 -0.7218  1.8430  0.5134
 4265SOL    HW213695   1.489   2.094   3.065  0.3240  0.1334  1.2608
 4266SOL     OW13696   6.856   0.380   1.289  0.3983 -0.6394  0.2625
 4266SOL    HW113697   6.937   0.320   1.289  1.0638  0.2429  0.1485
 4266SOL    HW213698   6.863   0.445   1.365  0.9931  1.0062 -1.1417
 4267SOL     OW13699   7.009   1.417   6.286 -0.4295 -0.4107  0.0989
 4267SOL    HW113700   7.036   1.383   6.196 -0.5265  1.5043 -0.7111
 4267SOL    HW213701   6.918   1.384   6.309 -0.3284 -1.0625 -0.4224
 4268SOL     OW13702   3.933   0.222   4.883  0.3075 -0.3422 -0.5821
 4268SOL    HW113703   3.880   0.183   4.807 -1.2711  0.9170 -0.1949
 4268SOL    HW213704   3.893   0.193   4.970 -0.0471  0.9656 -0.2822
 4269SOL     OW13705   3.566   6.597   6.094 -0.1486 -0.4871 -0.1415
 4269SOL    HW113706   3.626   6.664   6.051 -0.6514 -0.4869 -0.8486
 4269SOL    HW213707   3.575   6.509   6.049 -0.4963 -0.5500 -0.0929
 4270SOL     OW13708   6.628   2.384   1.882 -0.5541 -0.2455  0.3397
 4270SOL    HW113709   6.544   2.403   1.831  0.8360  1.7501 -1.3871
 4270SOL    HW213710   6.689   2.463   1.876  2.2730 -2.3028 -0.1209
 4271SOL     OW13711   2.318   5.946   5.888 -0.3014 -0.3171  0.0072
 4271SOL    HW113712   2.278   6.027   5.846 -0.6488 -0.7614 -0.5332
 4271SOL    HW213713   2.415   5.941   5.868 -0.4570 -0.5031 -0.7091
 4272SOL     OW13714   0.652   6.481   6.372  0.2371  0.3006  0.4640
 4272SOL    HW113715   0.554   6.491   6.389  0.0549 -0.9974  0.3023
 4272SOL    HW213716   0.700   6.466   6.458  0.0515 -0.7906  0.3864
 4273SOL     OW13717   3.400   3.544   5.219  0.2776 -0.4104 -0.3404
 4273SOL    HW113718   3.332   3.477   5.192  0.7597 -0.7894 -0.6336
 4273SOL    HW213719   3.425   3.601   5.141  0.1205 -0.1143 -0.1759
 4274SOL     OW13720   5.713   6.194   0.008 -0.2688  0.1536 -0.1082
 4274SOL    HW113721   5.689   6.281   0.049 -2.7365 -0.3658 -0.3080
 4274SOL    HW213722   5.810   6.195  -0.017  0.2382  2.0767  1.6408
 4275SOL     OW13723   1.408   4.849   6.909  0.6510  0.3573 -0.2258
 4275SOL    HW113724   1.458   4.926   6.870  0.1195 -0.5210 -2.8582
 4275SOL    HW213725   1.451   4.763   6.880  0.1819 -0.3874  1.1633
 4276SOL     OW13726   6.689   3.411   6.192 -0.5340  0.2460  0.0601
 4276SOL    HW113727   6.609   3.448   6.144 -0.4633 -1.0925 -1.1548
 4276SOL    HW213728   6.665   3.390   6.287 -0.6821  2.9360  0.7086
 4277SOL     OW13729   5.551   2.371   4.064  0.1662 -0.3509 -0.3738
 4277SOL    HW113730   5.626   2.306   4.052 -0.2365 -1.2209  1.4446
 4277SOL    HW213731   5.556   2.410   4.156 -1.7896 -0.6764 -0.0929
 4278SOL     OW13732   1.745   6.573   0.316 -0.1118  0.1573  0.2492
 4278SOL    HW113733   1.650   6.569   0.347  0.2164  1.1687  1.5194
 4278SOL    HW213734   1.750   6.626   0.231 -0.8072 -0.9102 -0.4701
 4279SOL     OW13735   4.829   1.557   1.474 -0.3316 -0.2530 -0.1040
 4279SOL    HW113736   4.748   1.605   1.439  0.3407 -0.0311 -1.3885
 4279SOL    HW213737   4.801   1.470   1.515 -1.1144 -0.7074 -1.5445
 4280SOL     OW13738   6.560   2.742   5.362 -0.5012  0.3356 -0.0938
 4280SOL    HW113739   6.608   2.812   5.310 -0.4913 -1.3396 -2.4921
 4280SOL    HW213740   6.485   2.784   5.414  0.0827  2.2067 -0.6984
 4281SOL     OW13741   2.196   4.538   5.467  0.0424  0.2972  0.5354
 4281SOL    HW113742   2.291   4.516   5.488  0.4589  0.7259 -0.7857
 4281SOL    HW213743   2.193   4.620   5.409 -1.1720  0.6548  1.0812
 4282SOL     OW13744   2.529   5.962   5.129  0.0006 -0.1298 -0.2806
 4282SOL    HW113745   2.446   5.984   5.180 -0.2149 -1.0286 -0.2174
 4282SOL    HW213746   2.591   6.040   5.131 -0.3183  0.1133  0.7191
 4283SOL     OW13747   3.734   5.858   3.603  0.4534  0.3939  0.6045
 4283SOL    HW113748   3.652   5.907   3.573  1.1114  1.0211 -0.2518
 4283SOL    HW213749   3.812   5.885   3.545  1.0137 -1.0836  0.6030
 4284SOL     OW13750   1.374   1.339   4.415  0.6836  0.3486  0.1274
 4284SOL    HW113751   1.334   1.258   4.371  0.5244 -0.5247  1.8109
 4284SOL    HW213752   1.471   1.344   4.393  0.6810 -0.2684 -0.0548
 4285SOL     OW13753   2.610   4.674   4.574 -0.4566  0.3459  0.0545
 4285SOL    HW113754   2.660   4.676   4.660 -0.6428 -1.1745  0.2215
 4285SOL    HW213755   2.535   4.609   4.580 -0.5611  0.3206 -1.2106
 4286SOL     OW13756   4.089   2.605   1.513  0.6825  0.2569  0.0504
 4286SOL    HW113757   4.072   2.703   1.503 -2.0105 -0.2138 -1.0087
 4286SOL    HW213758   4.141   2.572   1.434  0.5676  0.6447 -0.1921
 4287SOL     OW13759   4.782   2.861   6.242 -0.1322  0.1563  0.4150
 4287SOL    HW113760   4.874   2.887   6.212  0.0449  0.7868  1.4621
 4287SOL    HW213761   4.759   2.771   6.205  0.6233  0.2979 -0.4358
 4288SOL     OW13762   4.052   6.284   2.886 -0.9114 -0.5276  0.0881
 4288SOL    HW113763   3.968   6.307   2.837 -0.9058 -1.4581 -0.3709
 4288SOL    HW213764   4.125   6.266   2.820 -0.0138  1.3890  0.4805
 4289SOL     OW13765   3.715   0.792   5.372  0.0363  0.7013 -0.0691
 4289SOL    HW113766   3.726   0.885   5.337 -0.7310  1.4576  1.5558
 4289SOL    HW213767   3.779   0.778   5.448  0.0664 -0.0610 -0.2306
 4290SOL     OW13768   2.644   1.165   5.469  0.6698  0.0981  0.4010
 4290SOL    HW113769   2.645   1.066   5.458 -0.3940  0.1064  0.1081
 4290SOL    HW213770   2.733   1.202   5.443  0.7911 -0.6965 -0.3653
 4291SOL     OW13771   2.898   3.508   5.100  0.2659  0.1328 -0.3356
 4291SOL    HW113772   2.818   3.558   5.131  0.7181  0.9601 -0.4660
 4291SOL    HW213773   2.949   3.564   5.034  1.5232  0.0731  0.5340
 4292SOL     OW13774   4.919   1.200   0.200  0.4928  0.0320  0.4484
 4292SOL    HW113775   4.949   1.239   0.113  0.8186 -0.6693  0.2408
 4292SOL    HW213776   4.919   1.100   0.194 -2.0874 -0.0274  0.3790
 4293SOL     OW13777   0.778   4.602   6.938 -0.2923  0.8447  0.3370
 4293SOL    HW113778   0.769   4.599   7.037 -1.9470  1.1634  0.2160
 4293SOL    HW213779   0.748   4.515   6.899 -1.2753  1.3097  0.0231
 4294SOL     OW13780   4.026   5.684   2.905  0.5132  0.3643  0.0639
 4294SOL    HW113781   4.058   5.648   2.817 -1.6427 -1.0285 -0.2244
 4294SOL    HW213782   4.095   5.664   2.975  1.4370 -0.2052 -0.9696
 4295SOL     OW13783   6.315   6.042   5.390  0.1083  0.7749  0.4254
 4295SOL    HW113784   6.243   6.106   5.365  0.1584  0.7539  0.2236
 4295SOL    HW213785   6.289   5.993   5.473 -0.0051  0.9356  0.4859
 4296SOL     OW13786   2.845   6.274   0.303 -0.4824  0.0466 -0.4745
 4296SOL    HW113787   2.817   6.228   0.387 -1.3908  2.1400  0.4472
 4296SOL    HW213788   2.780   6.252   0.230 -0.0817 -1.2318 -0.4724
 4297SOL     OW13789   6.039   6.544   0.148  0.5463  0.0868 -0.0675
 4297SOL    HW113790   5.974   6.607   0.189  0.4330  0.8214 -1.3252
 4297SOL    HW213791   6.071   6.581   0.060  2.7353 -0.1967  0.5476
 4298SOL     OW13792   1.096   1.545   6.061  0.2495 -0.2403  0.3680
 4298SOL    HW113793   1.028   1.547   6.135  1.6499 -1.5047  1.7513
 4298SOL    HW213794   1.075   1.618   5.995 -0.7261  1.3309  2.2943
 4299SOL     OW13795   1.952   4.645   1.248  0.2300  0.2388 -0.1592
 4299SOL    HW113796   1.992   4.559   1.280 -2.0021  0.2416  3.0639
 4299SOL    HW213797   1.864   4.628   1.205 -0.0267  0.8496  0.1013
 4300SOL     OW13798   6.060   5.025   4.840 -0.0727 -0.3437 -0.6785
 4300SOL    HW113799   5.970   5.047   4.877  0.1187 -0.7007  0.0099
 4300SOL    HW213800   6.050   4.984   4.749 -0.5031  1.3709 -1.4383
 4301SOL     OW13801   6.616   5.182   4.571  0.1822  0.0724 -0.5437
 4301SOL    HW113802   6.647   5.113   4.636 -0.9060  0.0034 -0.0847
 4301SOL    HW213803   6.694   5.238   4.542  0.7982 -0.3426  0.2888
 4302SOL     OW13804   1.903   4.372   6.702  0.3921 -0.0565 -0.0112
 4302SOL    HW113805   1.890   4.426   6.619  1.4957 -1.7622 -1.3870
 4302SOL    HW213806   1.947   4.285   6.678 -0.9450 -1.4273  2.1151
 4303SOL     OW13807   2.213   0.610   2.843  0.4870 -0.0361 -0.4597
 4303SOL    HW113808   2.275   0.577   2.772 -0.3170 -0.7308 -0.8635
 4303SOL    HW213809   2.198   0.708   2.831  1.6451  0.1812 -0.2314
 4304SOL     OW13810   1.936   3.883   0.579  0.1766 -0.1965 -0.1561
 4304SOL    HW113811   1.923   3.965   0.634 -1.0348 -0.1418 -0.5015
 4304SOL    HW213812   1.937   3.803   0.639 -1.9453 -0.2141 -0.0787
 4305SOL     OW13813   6.823   5.661   6.897  0.4827  0.4938 -0.2207
 4305SOL    HW113814   6.809   5.754   6.862  1.4646  0.5450 -0.4975
 4305SOL    HW213815   6.789   5.595   6.831  2.0331  0.6011 -1.1606
 4306SOL     OW13816   1.903   0.349   3.981  0.7986  0.0129  0.1406
 4306SOL    HW113817   1.886   0.424   3.918 -0.3033 -0.7890 -0.5448
 4306SOL    HW213818   1.949   0.384   4.063  0.1538  1.4514 -0.0835
 4307SOL     OW13819   0.278   5.109   0.424  0.4545 -0.3201 -0.1664
 4307SOL    HW113820   0.225   5.169   0.483  0.8967  0.2635 -0.3523
 4307SOL    HW213821   0.312   5.031   0.477 -1.2850 -1.1556 -0.2322
 4308SOL     OW13822   0.111   1.720   6.716 -0.4626 -0.1398  0.2058
 4308SOL    HW113823   0.068   1.637   6.751  0.5339 -0.3505  0.9761
 4308SOL    HW213824   0.051   1.798   6.733 -1.0184 -0.5790  0.2864
 4309SOL     OW13825   3.659   4.750   1.001  0.1874  0.2948 -0.2648
 4309SOL    HW113826   3.624   4.835   1.038 -2.0185 -1.1941  1.2854
 4309SOL    HW213827   3.620   4.734   0.910  0.2856  0.6964 -0.3804
 4310SOL     OW13828   3.079   5.953   2.866  0.0223  0.1456 -0.4322
 4310SOL    HW113829   3.030   5.989   2.787 -3.7903  1.4500  2.1967
 4310SOL    HW213830   3.078   5.853   2.863  1.3372  0.1346 -2.6699
 4311SOL     OW13831   6.135   2.725   3.749  0.1261 -0.3321 -0.4101
 4311SOL    HW113832   6.200   2.796   3.724  0.1985 -0.7711 -1.5544
 4311SOL    HW213833   6.049   2.740   3.700 -0.3605 -0.2336  0.4445
 4312SOL     OW13834   2.171   6.707   2.406 -0.0380 -0.5917 -0.2634
 4312SOL    HW113835   2.142   6.727   2.499  0.9316 -1.0403  0.1541
 4312SOL    HW213836   2.271   6.706   2.402 -0.0644 -0.1387 -1.4079
 4313SOL     OW13837   4.571   4.712   1.165  0.2956 -0.4436 -0.2008
 4313SOL    HW113838   4.644   4.779   1.151 -0.3418  0.1895 -0.5566
 4313SOL    HW213839   4.567   4.687   1.262  0.6685 -0.1207 -0.0961
 4314SOL     OW13840   6.344   2.902   3.733 -0.0371  0.5575  0.0100
 4314SOL    HW113841   6.363   2.950   3.818  2.0936  1.3546 -0.8399
 4314SOL    HW213842   6.391   2.948   3.657 -0.2620 -1.2261 -1.2844
 4315SOL     OW13843   3.288   0.813   0.564 -0.4105  0.1401  1.1323
 4315SOL    HW113844   3.361   0.826   0.497  0.0640 -0.3306  1.5489
 4315SOL    HW213845   3.296   0.883   0.635 -1.0472  0.7768  0.5957
 4316SOL     OW13846   2.582   0.582   2.120 -0.1358 -0.1285 -0.2243
 4316SOL    HW113847   2.655   0.633   2.074 -0.2819 -0.3969 -0.7555
 4316SOL    HW213848   2.495   0.628   2.103 -0.5677 -1.6154 -2.3849
 4317SOL     OW13849   5.638   5.636   0.781  0.5429 -0.6816  0.4259
 4317SOL    HW113850   5.730   5.627   0.742  0.8923  0.9857  0.7949
 4317SOL    HW213851   5.571   5.627   0.708  1.0876 -0.0718 -0.1713
 4318SOL     OW13852   2.870   5.002   3.419  0.2687 -0.3134 -0.0918
 4318SOL    HW113853   2.848   5.100   3.424 -2.8056 -0.9403  0.7978
 4318SOL    HW213854   2.845   4.967   3.329 -0.9149 -0.6986  0.3638
 4319SOL     OW13855   4.797   3.655   0.848  0.1701 -0.1249 -0.5210
 4319SOL    HW113856   4.815   3.753   0.842  0.9446 -0.1268  1.1899
 4319SOL    HW213857   4.882   3.604   0.835 -0.1365 -0.5506 -0.8967
 4320SOL     OW13858   5.396   6.248   0.392  0.2757 -0.2444 -0.3932
 4320SOL    HW113859   5.462   6.317   0.362 -0.8300  0.4712 -1.3078
 4320SOL    HW213860   5.319   6.293   0.437 -0.2657 -0.9194 -0.6240
 4321SOL     OW13861   5.077   3.577   0.846 -0.2251 -0.0986  0.4069
 4321SOL    HW113862   5.099   3.564   0.943 -0.9741  0.0867  0.6097
 4321SOL    HW213863   5.141   3.642   0.806  0.9303 -1.1879  0.4362
 4322SOL     OW13864   6.502   0.495   1.920 -0.2692  0.4196 -0.1151
 4322SOL    HW113865   6.600   0.502   1.941  0.0176 -1.5221 -0.5806
 4322SOL    HW213866   6.490   0.487   1.821 -0.7053 -1.3258  0.0476
 4323SOL     OW13867   4.175   0.327   2.482 -0.6484  0.3635  0.4543
 4323SOL    HW113868   4.166   0.283   2.571 -0.4003  0.3130  0.4546
 4323SOL    HW213869   4.270   0.353   2.467 -0.1195 -2.1276 -0.9813
 4324SOL     OW13870   0.247   2.567   1.242  0.4157 -0.3597 -0.2133
 4324SOL    HW113871   0.270   2.470   1.237  1.9401 -0.1893  2.1346
 4324SOL    HW213872   0.322   2.621   1.205 -0.5652 -0.0292 -1.8142
 4325SOL     OW13873   1.110   6.894   4.976 -0.4968  0.0228 -0.3501
 4325SOL    HW113874   1.068   6.941   5.054 -1.0188 -1.2672  0.1694
 4325SOL    HW213875   1.066   6.925   4.892 -0.7997  0.4996 -0.0239
 4326SOL     OW13876   0.410   3.010   5.721  0.1334  0.1296  0.0688
 4326SOL    HW113877   0.346   2.938   5.748 -0.0702 -0.2243 -1.2858
 4326SOL    HW213878   0.460   3.043   5.801  0.2424 -1.5345  0.7077
 4327SOL     OW13879   3.464   0.431   2.286  0.2818  0.0671 -0.0780
 4327SOL    HW113880   3.483   0.466   2.194  0.8433  1.2019  0.4485
 4327SOL    HW213881   3.498   0.496   2.354 -0.1116 -0.7635  0.9402
 4328SOL     OW13882   5.430   6.719   1.854  0.1889 -0.4269  0.7595
 4328SOL    HW113883   5.446   6.797   1.915  1.8008 -0.7976  0.8705
 4328SOL    HW213884   5.419   6.636   1.909  1.7304 -0.7768  0.5875
 4329SOL     OW13885   6.421   2.685   1.579  0.3657 -0.6226 -0.4893
 4329SOL    HW113886   6.340   2.715   1.628  1.2584  1.2944 -0.0653
 4329SOL    HW213887   6.503   2.717   1.627  1.3886 -2.1992 -1.0840
 4330SOL     OW13888   1.314   5.299   1.334  0.1455 -0.2794 -0.6514
 4330SOL    HW113889   1.249   5.234   1.294 -1.9547  0.5127  1.2468
 4330SOL    HW213890   1.288   5.392   1.310 -0.7634  0.1770  1.7430
 4331SOL     OW13891   0.382   5.330   1.838 -0.2222 -0.6528 -0.9071
 4331SOL    HW113892   0.398   5.234   1.864 -1.6224 -1.2037 -1.9393
 4331SOL    HW213893   0.470   5.376   1.828  0.4435 -1.0276  2.2946
 4332SOL     OW13894   2.902   3.933   5.700 -0.1110 -0.0647 -0.2196
 4332SOL    HW113895   2.836   3.867   5.665  0.4487 -1.0595  0.5399
 4332SOL    HW213896   2.857   4.021   5.716 -0.8787 -0.2751 -1.1806
 4333SOL     OW13897   6.656   3.577   5.245 -0.3758 -0.1605 -0.1538
 4333SOL    HW113898   6.689   3.547   5.155 -2.0282  1.8213 -1.5202
 4333SOL    HW213899   6.714   3.537   5.316  1.4556 -1.2240 -2.0957
 4334SOL     OW13900   5.111   0.188   0.600 -0.2196 -0.2572 -0.3392
 4334SOL    HW113901   5.102   0.264   0.664 -2.3610 -0.1157 -0.7367
 4334SOL    HW213902   5.197   0.197   0.549  0.2672  1.0483  0.6553
 4335SOL     OW13903   4.645   2.428   1.314 -0.4976 -0.3185 -0.5349
 4335SOL    HW113904   4.654   2.375   1.399  0.8727  0.2210 -0.3145
 4335SOL    HW213905   4.660   2.368   1.236  1.1499 -0.2784 -0.2842
 4336SOL     OW13906   6.926   3.706   2.422  0.1575  0.1988  0.1065
 4336SOL    HW113907   6.990   3.733   2.494 -0.9484  0.8157  0.8694
 4336SOL    HW213908   6.895   3.787   2.372 -1.6690  0.1704  1.1391
 4337SOL     OW13909   1.985   2.281   0.694 -0.3241 -0.3602 -0.0478
 4337SOL    HW113910   1.988   2.213   0.766 -1.2190 -0.8269 -0.4361
 4337SOL    HW213911   1.940   2.364   0.728  1.1574  0.2296  0.5580
 4338SOL     OW13912   2.467   3.429   5.364 -0.1374  0.0529 -0.2263
 4338SOL    HW113913   2.544   3.366   5.360 -0.6666 -0.7183  1.1040
 4338SOL    HW213914   2.398   3.402   5.297  0.1915 -0.0026 -0.5461
 4339SOL     OW13915   6.839   4.432   0.231  0.7094 -0.1664  0.0669
 4339SOL    HW113916   6.837   4.517   0.283  0.1209  0.6567 -1.2394
 4339SOL    HW213917   6.917   4.432   0.168 -0.0339  0.0257 -0.8833
 4340SOL     OW13918   0.810   2.910   0.283 -0.6239  0.1198 -0.1331
 4340SOL    HW113919   0.733   2.938   0.225 -0.3067  3.4978  0.8438
 4340SOL    HW213920   0.794   2.943   0.376  0.5351 -2.0588  0.8908
 4341SOL     OW13921   0.036   4.368   5.339 -0.2897  0.0171  0.5217
 4341SOL    HW113922  -0.023   4.429   5.287 -0.1844 -0.5245 -0.2534
 4341SOL    HW213923   0.127   4.365   5.297 -0.2396 -0.5223  0.6527
 4342SOL     OW13924   6.508   5.335   6.676  0.2700  0.0314  0.3135
 4342SOL    HW113925   6.472   5.422   6.643  0.5652  0.0067 -0.0764
 4342SOL    HW213926   6.597   5.349   6.719  0.2975 -0.0694  0.2911
 4343SOL     OW13927   5.856   6.657   4.568  0.0184 -0.3888 -0.2259
 4343SOL    HW113928   5.913   6.694   4.494 -0.8541 -0.9099 -1.1960
 4343SOL    HW213929   5.806   6.577   4.533 -0.9032 -0.2505  0.7540
 4344SOL     OW13930   0.662   4.392   5.555  0.2507 -0.1292  1.1645
 4344SOL    HW113931   0.570   4.359   5.533  0.5691  0.3029 -1.0269
 4344SOL    HW213932   0.658   4.490   5.576  0.4265  0.4767 -1.2615
 4345SOL     OW13933   5.798   1.695   4.226 -0.8794 -0.1259  0.0308
 4345SOL    HW113934   5.877   1.718   4.283 -2.7530  3.9786  1.3733
 4345SOL    HW213935   5.747   1.620   4.268  0.7701 -0.9558  0.6317
 4346SOL     OW13936   7.011   1.778   2.007  0.4969  0.3934  0.2782
 4346SOL    HW113937   7.034   1.698   2.064  0.0997 -0.6574 -0.9830
 4346SOL    HW213938   7.069   1.779   1.926  0.5799  1.4787  0.3354
 4347SOL     OW13939   5.177   4.081   5.207 -0.4467  0.2071  0.6183
 4347SOL    HW113940   5.140   4.142   5.136  1.5544 -0.1627 -0.8255
 4347SOL    HW213941   5.244   4.132   5.262 -1.4135  0.2676  1.7786
 4348SOL     OW13942   2.751   4.783   5.783 -0.1179  0.5454  0.1843
 4348SOL    HW113943   2.764   4.727   5.701  0.1967  1.2634 -0.2601
 4348SOL    HW213944   2.835   4.833   5.803  0.3312 -0.7888  1.8399
 4349SOL     OW13945   1.244   5.548   1.269 -0.6073  0.2328 -0.0681
 4349SOL    HW113946   1.182   5.561   1.192 -0.7453 -1.7615 -0.3484
 4349SOL    HW213947   1.339   5.558   1.238 -0.5383 -2.4538 -1.0579
 4350SOL     OW13948   1.634   2.337   2.008  0.2403  0.1774 -0.5100
 4350SOL    HW113949   1.720   2.385   2.026  0.4441 -0.6401  0.9301
 4350SOL    HW213950   1.570   2.355   2.083  0.2420 -1.5486 -0.0500
 4351SOL     OW13951   5.867   1.498   3.449  0.4205  0.7933 -0.3933
 4351SOL    HW113952   5.948   1.442   3.464  0.9704  1.7600  0.4176
 4351SOL    HW213953   5.859   1.566   3.523 -1.9004 -0.1631  0.3414
 4352SOL     OW13954   3.195   3.684   2.801  0.1743  0.4501 -0.5212
 4352SOL    HW113955   3.188   3.650   2.707 -1.4296 -1.0133  0.0742
 4352SOL    HW213956   3.112   3.735   2.824  0.0913 -0.0915  0.4168
 4353SOL     OW13957   4.521   0.134   2.169 -0.0555  0.2990 -0.1344
 4353SOL    HW113958   4.449   0.069   2.192  0.9999  0.0990  3.2020
 4353SOL    HW213959   4.525   0.205   2.239  2.2649  0.9126 -0.8039
 4354SOL     OW13960   0.984   5.816   4.365  0.0558  0.4654  0.4013
 4354SOL    HW113961   0.957   5.878   4.291 -0.6227  0.0758  0.3120
 4354SOL    HW213962   1.002   5.725   4.327 -3.2821 -0.5992  1.0048
 4355SOL     OW13963   3.270   2.194   4.325 -0.3900  0.0151  0.2979
 4355SOL    HW113964   3.308   2.136   4.253 -0.4641  0.3067  0.0226
 4355SOL    HW213965   3.188   2.240   4.291  1.5980  3.0876 -0.7359
 4356SOL     OW13966   1.734   2.381   6.703 -0.4537  0.0347 -0.3563
 4356SOL    HW113967   1.773   2.334   6.783  0.1090  0.1679 -0.5427
 4356SOL    HW213968   1.775   2.472   6.696  0.7064 -0.5608 -1.6984
 4357SOL     OW13969   5.150   2.665   3.873 -0.2513 -0.3678 -0.6025
 4357SOL    HW113970   5.132   2.662   3.775  1.2973  1.1933 -0.9884
 4357SOL    HW213971   5.218   2.595   3.897  1.6682  1.1621 -1.2641
 4358SOL     OW13972   3.920   5.434   3.167  0.1789  0.7187  0.3251
 4358SOL    HW113973   3.895   5.434   3.070 -0.7027 -0.2519  0.5414
 4358SOL    HW213974   3.931   5.529   3.198  1.6387  1.0292 -0.9931
 4359SOL     OW13975   6.417   4.959   6.917 -0.3089 -0.4350 -0.2988
 4359SOL    HW113976   6.371   5.048   6.917  1.2083  0.3808 -1.3479
 4359SOL    HW213977   6.426   4.926   6.823  1.1071 -0.6309 -0.1096
 4360SOL     OW13978   2.057   0.859   1.356  0.0050  0.3103  0.4628
 4360SOL    HW113979   2.041   0.762   1.377 -1.3292  0.6965  1.3024
 4360SOL    HW213980   2.141   0.867   1.302  0.6172 -1.2232  1.1255
 4361SOL     OW13981   0.064   0.484   5.355 -0.2893  0.4371 -0.0344
 4361SOL    HW113982   0.026   0.575   5.337 -0.7084  0.2203 -0.2553
 4361SOL    HW213983  -0.001   0.430   5.407  0.1953  0.4529  0.5967
 4362SOL     OW13984   6.285   1.328   0.322  0.2260 -0.0399 -0.0066
 4362SOL    HW113985   6.382   1.311   0.335  0.2934  1.0453  0.9934
 4362SOL    HW213986   6.243   1.249   0.277  1.5269 -0.5806 -0.2919
 4363SOL     OW13987   3.931   6.340   5.902 -0.3737  0.6084 -0.4155
 4363SOL    HW113988   3.969   6.274   5.966 -1.2586  0.6529  0.1838
 4363SOL    HW213989   3.956   6.315   5.809  1.7102  1.0628 -0.0090
 4364SOL     OW13990   4.101   5.568   6.307  0.0145 -0.4194 -0.0913
 4364SOL    HW113991   4.073   5.650   6.257  1.9252  1.0708  1.1530
 4364SOL    HW213992   4.057   5.567   6.397  0.7540 -0.2187  0.2793
 4365SOL     OW13993   4.897   6.536   4.917 -0.0017  0.1482 -0.3723
 4365SOL    HW113994   4.886   6.587   4.831 -0.4276  0.8258  0.0675
 4365SOL    HW213995   4.818   6.476   4.930  0.6447 -0.8603 -1.0367
 4366SOL     OW13996   0.069   5.524   1.495 -0.1967  0.3032  0.2142
 4366SOL    HW113997   0.050   5.473   1.579  2.0874  1.2876  1.4286
 4366SOL    HW213998   0.039   5.619   1.506  1.4703  0.8196  0.5641
 4367SOL     OW13999   0.328   5.564   2.351 -0.0766 -0.0925 -0.4205
 4367SOL    HW114000   0.243   5.613   2.371  0.7214  1.2238 -0.1461
 4367SOL    HW214001   0.389   5.572   2.430 -0.2149 -2.2292 -0.0467
 4368SOL     OW14002   5.301   0.056   6.604 -0.1652  0.1507  0.8756
 4368SOL    HW114003   5.294  -0.032   6.558  2.1815  1.5184 -2.5040
 4368SOL    HW214004   5.231   0.118   6.570 -1.0899 -0.0013  2.4038
 4369SOL     OW14005   2.280   1.648   2.129  0.2230 -0.5773  0.0023
 4369SOL    HW114006   2.301   1.735   2.173 -0.7687 -0.5845  0.5217
 4369SOL    HW214007   2.364   1.603   2.101  0.7341  0.7727 -0.7140
 4370SOL     OW14008   1.844   2.685   4.420  0.1281 -0.1862 -0.5363
 4370SOL    HW114009   1.879   2.776   4.396  0.9466 -0.4301 -0.2852
 4370SOL    HW214010   1.845   2.675   4.520 -1.7732  0.2353 -0.4359
 4371SOL     OW14011   1.972   5.365   4.070  0.3883  0.1104  0.2561
 4371SOL    HW114012   2.050   5.379   4.131  1.2260 -0.7846 -0.5881
 4371SOL    HW214013   2.004   5.329   3.982 -0.8778  0.6370 -0.4448
 4372SOL     OW14014   2.295   4.481   1.114 -0.2293 -0.2679 -0.7657
 4372SOL    HW114015   2.295   4.577   1.140 -0.3486 -0.1806 -1.0827
 4372SOL    HW214016   2.357   4.467   1.037  0.4536 -0.6013 -0.1683
 4373SOL     OW14017   3.799   2.957   3.191 -0.0616  0.3520  0.2662
 4373SOL    HW114018   3.825   2.991   3.101  1.0723  0.4152  0.5970
 4373SOL    HW214019   3.877   2.965   3.253 -0.5406 -0.5449  1.0104
 4374SOL     OW14020   5.886   0.627   1.380 -0.0179  0.1688  1.0798
 4374SOL    HW114021   5.969   0.598   1.333 -1.2506 -1.1887 -0.3755
 4374SOL    HW214022   5.867   0.565   1.456 -2.0826 -2.4835 -1.3883
 4375SOL     OW14023   2.848   2.241   0.787  0.3891 -0.5151  0.7817
 4375SOL    HW114024   2.846   2.146   0.816  0.0422 -0.2499  1.6794
 4375SOL    HW214025   2.940   2.264   0.755  0.4135 -1.2030  0.3404
 4376SOL     OW14026   0.397   0.140   0.496  0.0071  0.7985  0.1143
 4376SOL    HW114027   0.374   0.169   0.589 -0.8931  0.8395 -0.1100
 4376SOL    HW214028   0.357   0.204   0.430 -1.8614 -0.7818 -0.3942
 4377SOL     OW14029   1.683   2.980   5.093  0.2122 -0.7304 -0.1895
 4377SOL    HW114030   1.783   2.970   5.089  0.0526 -2.2368 -1.0496
 4377SOL    HW214031   1.661   3.071   5.130  1.8919 -0.0733 -0.6680
 4378SOL     OW14032   0.803   2.985   6.463  0.5812  0.2774  0.0523
 4378SOL    HW114033   0.709   2.966   6.433  0.8897  0.2176 -0.9326
 4378SOL    HW214034   0.801   3.032   6.551 -0.3376 -0.5136  0.4733
 4379SOL     OW14035   3.476   5.965   0.799  0.0986  0.0737  0.7579
 4379SOL    HW114036   3.382   5.938   0.820  0.3369 -1.6602 -0.2132
 4379SOL    HW214037   3.478   6.063   0.776 -1.5063  0.0739  0.4978
 4380SOL     OW14038   2.891   6.734   5.310  0.3561  0.0506 -0.3499
 4380SOL    HW114039   2.844   6.646   5.314 -0.8273  0.6542 -0.6398
 4380SOL    HW214040   2.867   6.781   5.225  0.6754  0.8139 -0.0248
 4381SOL     OW14041   6.945   0.416   0.688 -0.6772  0.2655  0.3008
 4381SOL    HW114042   6.941   0.450   0.594 -0.0627  0.9651  0.5193
 4381SOL    HW214043   6.931   0.492   0.752  0.5160  0.0937  0.7932
 4382SOL     OW14044   5.223   1.334   2.642  0.5133  0.5648  0.0378
 4382SOL    HW114045   5.181   1.283   2.567  1.3113 -0.5031  0.2804
 4382SOL    HW214046   5.155   1.346   2.715  0.4403 -0.6654  0.2016
 4383SOL     OW14047   5.144   1.304   4.067 -0.1601  0.3140 -0.2621
 4383SOL    HW114048   5.071   1.356   4.112  0.1079  0.6686 -0.2365
 4383SOL    HW214049   5.112   1.272   3.978 -0.4390  0.2407 -0.1362
 4384SOL     OW14050   1.287   1.461   0.348 -0.4588 -0.3999  0.6941
 4384SOL    HW114051   1.367   1.483   0.292  0.0683  0.3682  1.7345
 4384SOL    HW214052   1.204   1.488   0.298 -0.1531 -1.8902 -0.7191
 4385SOL     OW14053   5.669   0.921   6.631 -0.3492  0.1846  0.5215
 4385SOL    HW114054   5.638   0.992   6.694 -1.5404 -0.4525  0.6916
 4385SOL    HW214055   5.601   0.908   6.558  0.7168  0.4832 -0.5647
 4386SOL     OW14056   6.465   4.209   3.190  0.0298  0.1466 -0.2180
 4386SOL    HW114057   6.556   4.240   3.161  0.9767 -0.6181  1.7627
 4386SOL    HW214058   6.457   4.217   3.289 -1.8233 -0.5111 -0.2730
 4387SOL     OW14059   3.244   4.890   0.892 -0.1539  0.6273  0.0512
 4387SOL    HW114060   3.246   4.917   0.988  0.9951 -0.8061  0.4889
 4387SOL    HW214061   3.154   4.854   0.868 -0.8274  2.1412  0.2136
 4388SOL     OW14062   6.292   4.116   6.021 -0.4690  0.2016 -0.5631
 4388SOL    HW114063   6.221   4.186   6.028  0.7825  1.3534  1.7169
 4388SOL    HW214064   6.263   4.034   6.070 -0.8361  0.0698 -0.9866
 4389SOL     OW14065   3.951   6.281   5.460  0.3866 -0.2855  0.2090
 4389SOL    HW114066   3.934   6.198   5.515 -0.1083 -1.1303 -1.1644
 4389SOL    HW214067   3.905   6.359   5.503 -1.5850 -1.2890  0.0251
 4390SOL     OW14068   3.822   3.119   6.532 -0.5313 -0.6403  0.4298
 4390SOL    HW114069   3.883   3.056   6.483  1.3259  1.8843 -0.7046
 4390SOL    HW214070   3.802   3.081   6.623  4.3557 -0.8665  1.6978
 4391SOL     OW14071   2.608   6.278   5.433 -0.3820  0.2010  0.1614
 4391SOL    HW114072   2.656   6.201   5.477  0.6252 -0.1945 -1.5279
 4391SOL    HW214073   2.510   6.259   5.431 -0.4002  0.0199  1.7746
 4392SOL     OW14074   4.615   6.774   4.492 -0.5022 -0.1268 -0.5956
 4392SOL    HW114075   4.525   6.818   4.501 -0.7061 -0.7393  0.4463
 4392SOL    HW214076   4.686   6.839   4.519 -0.3813  1.1779 -3.5852
 4393SOL     OW14077   2.854   5.075   1.508  0.2988 -0.0814  0.0122
 4393SOL    HW114078   2.770   5.129   1.504  1.0051  1.0999  0.7511
 4393SOL    HW214079   2.842   4.992   1.454 -0.9638  0.5872 -0.7800
 4394SOL     OW14080   2.850   5.411   6.244  0.0129  0.6589 -1.0965
 4394SOL    HW114081   2.803   5.459   6.170 -0.0153 -0.0921 -1.5758
 4394SOL    HW214082   2.808   5.322   6.258  0.6056  0.4174 -0.8015
 4395SOL     OW14083   3.823   2.503   6.568 -0.7117 -0.1914 -0.1093
 4395SOL    HW114084   3.818   2.595   6.607  0.7981  0.2812 -0.9697
 4395SOL    HW214085   3.741   2.487   6.512 -0.9690  0.6454  0.0103
 4396SOL     OW14086   2.485   1.910   5.074 -0.1650  0.1946 -0.7146
 4396SOL    HW114087   2.470   1.883   4.979  0.4795 -1.4769 -0.3721
 4396SOL    HW214088   2.568   1.966   5.080  0.6810 -0.9848 -0.9690
 4397SOL     OW14089   1.126   3.614   2.486  0.5028 -0.2359 -0.3464
 4397SOL    HW114090   1.045   3.556   2.497  0.3591  0.3034  2.1550
 4397SOL    HW214091   1.207   3.557   2.474  0.1838 -0.9327  0.6557
 4398SOL     OW14092   1.304   5.686   3.141 -0.1740 -0.1585  0.0446
 4398SOL    HW114093   1.374   5.669   3.072 -0.6129 -0.5880 -0.3012
 4398SOL    HW214094   1.213   5.682   3.099 -0.3623  2.3988  0.0595
 4399SOL     OW14095   3.679   1.759   6.599 -0.1103 -0.0711  0.2631
 4399SOL    HW114096   3.733   1.699   6.658 -2.1293 -0.4753  1.8227
 4399SOL    HW214097   3.634   1.829   6.655 -1.6078 -0.0766 -0.8522
 4400SOL     OW14098   5.779   2.299   4.992  0.3719 -0.4145 -0.1080
 4400SOL    HW114099   5.763   2.201   4.982 -1.1300 -0.2051  0.0922
 4400SOL    HW214100   5.813   2.336   4.905 -0.8647 -0.7977 -0.7845
 4401SOL     OW14101   2.642   4.877   6.241 -0.2366  0.2586 -0.3219
 4401SOL    HW114102   2.658   4.910   6.335  0.9372 -1.2992  0.0592
 4401SOL    HW214103   2.721   4.824   6.211 -0.3715  1.1639 -2.4203
 4402SOL     OW14104   6.286   6.045   0.816  0.3274  1.5339 -0.4223
 4402SOL    HW114105   6.342   5.989   0.755 -0.4346  0.9132 -0.5704
 4402SOL    HW214106   6.190   6.024   0.800  0.0827  2.1147  0.2841
 4403SOL     OW14107   6.815   6.424   2.273 -0.2685 -0.2429  0.4536
 4403SOL    HW114108   6.867   6.341   2.255 -2.2276 -0.8750 -3.1575
 4403SOL    HW214109   6.719   6.401   2.289 -1.0777  1.2790 -1.7581
 4404SOL     OW14110   0.844   4.614   2.970  0.2019 -0.1537  0.1752
 4404SOL    HW114111   0.877   4.587   2.879  0.4711 -0.6653  0.4224
 4404SOL    HW214112   0.887   4.557   3.040  0.5649  0.7408  0.6887
 4405SOL     OW14113   2.700   5.018   0.800 -0.2495 -0.2258  0.0488
 4405SOL    HW114114   2.676   4.928   0.835  2.0681 -0.9613 -0.0970
 4405SOL    HW214115   2.728   5.077   0.876 -3.1899  0.9477  0.3465
 4406SOL     OW14116   4.926   2.986   3.024 -0.7853 -0.3140  0.2561
 4406SOL    HW114117   4.852   2.923   3.049 -1.0227  0.2021  0.9021
 4406SOL    HW214118   4.964   3.028   3.107  0.8026 -1.1889  0.0076
 4407SOL     OW14119   1.675   0.516   2.147 -0.4268  0.3095 -0.1881
 4407SOL    HW114120   1.747   0.550   2.207 -0.8548 -0.0447  0.5459
 4407SOL    HW214121   1.670   0.417   2.154  0.0154  0.1987 -1.3909
 4408SOL     OW14122   5.277   0.049   4.468 -0.1386  0.2354 -0.4470
 4408SOL    HW114123   5.373   0.063   4.443  1.0407 -1.1789  2.7077
 4408SOL    HW214124   5.244   0.129   4.518  0.1160 -0.0868  0.2577
 4409SOL     OW14125   5.506   5.893   6.350  0.0896  0.0546  0.0521
 4409SOL    HW114126   5.490   5.794   6.347  0.9203 -0.0968 -2.5848
 4409SOL    HW214127   5.588   5.912   6.404  1.1349 -0.9649 -1.1028
 4410SOL     OW14128   2.077   4.903   1.803 -0.0941  0.3856  0.3514
 4410SOL    HW114129   2.122   4.941   1.722 -1.3136 -0.4765 -0.7812
 4410SOL    HW214130   2.050   4.977   1.864 -1.4109  1.3114 -1.2525
 4411SOL     OW14131   1.478   2.319   4.672  0.1405  0.0675  0.7600
 4411SOL    HW114132   1.413   2.259   4.625  2.0899 -0.3664 -1.5772
 4411SOL    HW214133   1.475   2.410   4.631  2.7609 -0.6472 -1.3118
 4412SOL     OW14134   0.173   5.035   1.473 -0.2389 -0.0246  0.4765
 4412SOL    HW114135   0.271   5.017   1.469 -0.4445 -1.1235 -2.2930
 4412SOL    HW214136   0.143   5.036   1.568  2.6210  1.6376  1.4970
 4413SOL     OW14137   4.883   0.202   3.044  0.5291 -0.0752 -0.2820
 4413SOL    HW114138   4.956   0.270   3.045  1.0939 -0.6561  0.9554
 4413SOL    HW214139   4.797   0.244   3.074  0.6029  0.3467 -0.6514
 4414SOL     OW14140   4.409   5.040   0.453  0.0105 -0.3436  0.0671
 4414SOL    HW114141   4.367   5.008   0.538  1.4501 -0.8747  0.6179
 4414SOL    HW214142   4.338   5.074   0.391 -1.9051 -5.3130 -0.9388
 4415SOL     OW14143   4.268   1.029   5.430  0.1541 -0.2259  0.2470
 4415SOL    HW114144   4.356   1.000   5.392  0.2793  0.3907  0.0597
 4415SOL    HW214145   4.253   0.983   5.517  0.6870 -0.2905  0.3105
 4416SOL     OW14146   3.290   0.415   5.348  0.2659  0.1769 -0.0743
 4416SOL    HW114147   3.358   0.485   5.371  1.0689 -0.7639  0.5220
 4416SOL    HW214148   3.326   0.356   5.276  0.3366 -0.6730  0.6339
 4417SOL     OW14149   5.300   0.104   0.398 -0.1417  0.3399  0.0899
 4417SOL    HW114150   5.318   0.028   0.460  0.1542  0.7211  0.4772
 4417SOL    HW214151   5.349   0.089   0.312  0.8011  0.6097  0.5616
 4418SOL     OW14152   2.027   0.380   2.722  0.0821  1.0267 -0.0192
 4418SOL    HW114153   1.995   0.299   2.771  1.8632  0.6439  0.5620
 4418SOL    HW214154   2.115   0.361   2.679 -0.5313  1.9610 -1.8115
 4419SOL     OW14155   4.499   1.150   4.781  0.3491  0.0782  0.8124
 4419SOL    HW114156   4.552   1.232   4.762 -0.5532  0.1718 -1.6218
 4419SOL    HW214157   4.465   1.111   4.696 -3.3943 -0.0674  2.1650
 4420SOL     OW14158   3.659   2.757   6.230  0.7920  0.0871 -0.1089
 4420SOL    HW114159   3.567   2.731   6.200  1.0414 -0.6802 -0.2368
 4420SOL    HW214160   3.690   2.836   6.178  0.5930 -0.2573 -0.7643
 4421SOL     OW14161   4.317   1.320   1.868  0.3758  0.0415  0.8334
 4421SOL    HW114162   4.397   1.267   1.839  1.1452  1.3260  0.5279
 4421SOL    HW214163   4.237   1.260   1.871  0.7571 -0.6946 -1.6000
 4422SOL     OW14164   1.027   2.778   4.503  0.1761 -0.1221 -0.0553
 4422SOL    HW114165   1.088   2.843   4.549  1.7264 -0.5231 -1.4442
 4422SOL    HW214166   1.037   2.688   4.547  1.4617 -0.4440 -0.9308
 4423SOL     OW14167   0.914   0.674   4.153  0.3822 -0.0018 -0.6426
 4423SOL    HW114168   0.892   0.603   4.220 -1.5738  0.8329 -0.3460
 4423SOL    HW214169   1.010   0.700   4.163  0.2304 -0.1029  1.6606
 4424SOL     OW14170   2.363   6.953   5.858 -0.1331 -0.3777 -0.1518
 4424SOL    HW114171   2.450   6.905   5.851 -0.7560 -1.5589 -0.0387
 4424SOL    HW214172   2.297   6.911   5.795 -0.8848 -0.1092  0.4426
 4425SOL     OW14173   1.524   0.542   6.581  0.2215 -0.0756 -0.3365
 4425SOL    HW114174   1.612   0.501   6.604 -0.5804 -1.3341  0.5510
 4425SOL    HW214175   1.487   0.590   6.660  0.5425  1.3137 -0.9927
 4426SOL     OW14176   3.181   1.406   4.443  0.2954 -0.0138  0.8890
 4426SOL    HW114177   3.143   1.499   4.439  1.3545  0.4235  0.2999
 4426SOL    HW214178   3.245   1.400   4.519  1.4218  0.2476 -0.0022
 4427SOL     OW14179   6.005   2.154   4.864  0.3102 -0.1688  0.0233
 4427SOL    HW114180   5.915   2.120   4.892  0.3446  1.1868  1.9724
 4427SOL    HW214181   6.063   2.167   4.944  0.6504  3.3586 -0.5989
 4428SOL     OW14182   2.163   6.997   0.796  0.2309  0.2080 -0.4624
 4428SOL    HW114183   2.143   6.937   0.874  1.5022 -0.6024 -0.7388
 4428SOL    HW214184   2.236   6.957   0.741  0.0836  1.3014 -1.4896
 4429SOL     OW14185   4.919   3.553   3.881 -0.2472 -0.0407 -0.3072
 4429SOL    HW114186   4.938   3.458   3.858 -1.0904  0.0303 -1.4352
 4429SOL    HW214187   4.940   3.570   3.977 -0.6710 -1.5309  0.0728
 4430SOL     OW14188   4.403   6.075   3.266 -0.3168 -0.4458 -0.8084
 4430SOL    HW114189   4.487   6.102   3.219 -0.1338 -0.6549 -0.6014
 4430SOL    HW214190   4.325   6.093   3.206 -0.1153 -0.3638 -1.0497
 4431SOL     OW14191   3.726   4.593   1.211  0.7820  0.0345  0.5524
 4431SOL    HW114192   3.691   4.650   1.136 -1.8455  0.9678  2.3455
 4431SOL    HW214193   3.718   4.497   1.185 -2.7908  0.1895  0.5368
 4432SOL     OW14194   3.938   5.258   2.266 -0.2488  0.2602 -0.2062
 4432SOL    HW114195   3.850   5.247   2.312 -0.4697  0.5316 -0.5593
 4432SOL    HW214196   3.924   5.263   2.167  0.0290  1.6007 -0.2017
 4433SOL     OW14197   1.193   5.256   1.779  0.0719  0.7129 -0.4934
 4433SOL    HW114198   1.275   5.310   1.758  1.3057 -0.4035  1.1695
 4433SOL    HW214199   1.215   5.159   1.771 -1.3303  0.3972 -0.7393
 4434SOL     OW14200   5.658   3.239   6.572  0.0520  0.2743  0.1610
 4434SOL    HW114201   5.570   3.191   6.574 -0.6413  1.3378 -1.9535
 4434SOL    HW214202   5.645   3.331   6.534  2.1462  0.3297 -0.5572
 4435SOL     OW14203   6.443   0.999   5.552  0.2764 -0.2950 -0.1465
 4435SOL    HW114204   6.383   0.922   5.571 -1.9447  1.3725  0.0080
 4435SOL    HW214205   6.456   1.053   5.636 -0.9484  1.2775 -0.9021
 4436SOL     OW14206   1.639   4.979   3.000  0.2984 -0.1281  0.2637
 4436SOL    HW114207   1.641   4.906   2.933  0.2313  0.7909 -0.7726
 4436SOL    HW214208   1.650   4.941   3.092  3.2029 -1.1659 -0.4361
 4437SOL     OW14209   2.934   0.182   2.247 -0.2035 -0.1154  0.2263
 4437SOL    HW114210   2.951   0.278   2.271  0.8272 -0.1456 -0.2993
 4437SOL    HW214211   2.863   0.145   2.306 -0.4168  0.8914  0.6277
 4438SOL     OW14212   5.700   2.783   5.803  0.2931 -0.0348 -0.0494
 4438SOL    HW114213   5.655   2.699   5.833  0.3445 -0.6078 -1.5253
 4438SOL    HW214214   5.631   2.848   5.771  0.0540  1.2827  2.7624
 4439SOL     OW14215   4.151   6.253   3.420  0.0492 -0.2628  0.1001
 4439SOL    HW114216   4.185   6.159   3.418  0.0784 -0.2401 -0.7607
 4439SOL    HW214217   4.224   6.316   3.394  0.0882  0.0232  0.8742
 4440SOL     OW14218   6.771   5.773   1.580 -0.3103  0.4014  0.5061
 4440SOL    HW114219   6.707   5.811   1.647  0.2188 -1.2372  2.0095
 4440SOL    HW214220   6.722   5.756   1.494 -0.7328  3.6514 -0.0251
 4441SOL     OW14221   6.446   4.085   5.213  0.4571 -0.5137 -0.3386
 4441SOL    HW114222   6.519   4.124   5.156  1.0010 -1.3355 -0.2345
 4441SOL    HW214223   6.442   4.135   5.300 -0.7106  1.0680 -1.2591
 4442SOL     OW14224   5.562   2.318   1.921 -0.2432  0.2531  0.0203
 4442SOL    HW114225   5.626   2.391   1.944  0.6027 -0.9016  1.4657
 4442SOL    HW214226   5.613   2.238   1.887 -1.1084  0.1237 -1.0231
 4443SOL     OW14227   0.427   2.402   1.419 -0.5776 -0.4744 -0.4966
 4443SOL    HW114228   0.527   2.400   1.424 -0.5269  1.2105 -0.2084
 4443SOL    HW214229   0.390   2.331   1.478  0.4526 -0.2211  0.5036
 4444SOL     OW14230   5.866   3.263   4.874 -0.3501 -0.1576  0.1737
 4444SOL    HW114231   5.928   3.336   4.847 -1.1931  0.5438  0.0991
 4444SOL    HW214232   5.891   3.178   4.827 -1.0381  0.7454 -1.9078
 4445SOL     OW14233   1.829   2.043   1.823 -0.2271  0.8177 -0.5673
 4445SOL    HW114234   1.922   2.041   1.788 -0.1100  1.2641 -0.2871
 4445SOL    HW214235   1.830   2.038   1.923 -0.5669 -0.6765 -0.6111
 4446SOL     OW14236   1.806   2.965   6.832  0.0719 -0.0982 -0.4172
 4446SOL    HW114237   1.843   2.962   6.925 -0.7797  0.9989 -0.0226
 4446SOL    HW214238   1.732   2.899   6.823 -0.1960  0.1718 -0.1639
 4447SOL     OW14239   2.782   2.497   0.558  0.2843  0.6402 -0.3735
 4447SOL    HW114240   2.733   2.512   0.644 -0.3709 -0.8305 -0.4561
 4447SOL    HW214241   2.827   2.408   0.560  0.5470  0.7317 -1.4139
 4448SOL     OW14242   1.307   0.229   4.945 -0.0509 -0.2367  0.3312
 4448SOL    HW114243   1.229   0.202   4.888 -0.2111 -0.9942  0.9048
 4448SOL    HW214244   1.273   0.264   5.033  0.2717 -1.0617  0.7892
 4449SOL     OW14245   6.616   3.528   4.197 -0.1444 -0.0362 -0.0440
 4449SOL    HW114246   6.645   3.596   4.265  0.6305 -1.0571  0.6860
 4449SOL    HW214247   6.518   3.512   4.206 -0.0626 -0.1201  0.8330
 4450SOL     OW14248   4.153   3.583   4.685  0.6679  0.5509  0.8282
 4450SOL    HW114249   4.136   3.680   4.664  0.9931  0.4778  0.2214
 4450SOL    HW214250   4.080   3.549   4.744  1.4241  1.6190  2.4507
 4451SOL     OW14251   6.336   0.163   1.348  0.1568 -0.4702 -0.2838
 4451SOL    HW114252   6.395   0.133   1.423  0.0727 -3.0285 -1.1455
 4451SOL    HW214253   6.384   0.149   1.261 -0.8255 -0.3094 -0.8582
 4452SOL     OW14254   5.238   0.291   2.826 -0.0794  0.1816  0.4028
 4452SOL    HW114255   5.160   0.351   2.848  0.5484  1.3681 -0.5177
 4452SOL    HW214256   5.316   0.346   2.797  0.4682 -1.0985 -0.6836
 4453SOL     OW14257   0.671   6.136   0.850  0.2728 -0.5653  0.3925
 4453SOL    HW114258   0.677   6.220   0.905 -0.1215 -0.4910  0.3274
 4453SOL    HW214259   0.738   6.139   0.777  0.1527 -0.2323  0.2935
 4454SOL     OW14260   0.489   4.448   6.113  0.2518  0.3693 -0.2453
 4454SOL    HW114261   0.433   4.492   6.043 -0.1108  0.8274  0.3183
 4454SOL    HW214262   0.584   4.478   6.105 -0.3148  2.9484  1.3853
 4455SOL     OW14263   6.302   6.293   3.691  0.2284  0.7900 -0.2207
 4455SOL    HW114264   6.253   6.378   3.711 -0.2992 -0.0926  2.8111
 4455SOL    HW214265   6.399   6.313   3.675 -0.5866  2.3307 -4.1874
 4456SOL     OW14266   2.706   3.652   6.481 -0.2304  0.1292  0.0816
 4456SOL    HW114267   2.761   3.626   6.561  0.4121  0.3311 -0.2896
 4456SOL    HW214268   2.711   3.581   6.412 -1.8117 -0.6360  0.7025
 4457SOL     OW14269   0.622   5.476   4.572 -0.2728  0.5016 -0.0541
 4457SOL    HW114270   0.541   5.507   4.621 -0.4702  2.1065 -1.3030
 4457SOL    HW214271   0.700   5.532   4.599  0.2743 -0.5229  0.5536
 4458SOL     OW14272   1.141   3.314   5.527 -0.1990 -0.1044  0.1918
 4458SOL    HW114273   1.062   3.276   5.478 -0.3016 -0.0964  0.3490
 4458SOL    HW214274   1.224   3.300   5.473 -0.2461 -0.4934  0.2175
 4459SOL     OW14275   6.642   1.832   4.525 -0.4564 -0.0180 -0.2762
 4459SOL    HW114276   6.708   1.767   4.487 -0.2680  0.7674 -1.3372
 4459SOL    HW214277   6.585   1.786   4.593 -0.2021 -1.2300 -0.8584
 4460SOL     OW14278   1.409   0.307   0.568 -0.6895 -0.0538 -0.4542
 4460SOL    HW114279   1.401   0.207   0.561  4.0115 -0.6315 -0.7042
 4460SOL    HW214280   1.418   0.333   0.664 -1.8581  0.1939 -0.3934
 4461SOL     OW14281   3.792   3.221   5.683  0.1917 -0.5332 -0.3471
 4461SOL    HW114282   3.857   3.294   5.657  0.8619 -0.7731  0.5977
 4461SOL    HW214283   3.843   3.138   5.705 -0.4016 -0.5867  0.8771
 4462SOL     OW14284   2.535   6.009   4.300  0.4257  0.0171 -0.0851
 4462SOL    HW114285   2.460   5.969   4.351  0.8695 -1.8914 -0.8124
 4462SOL    HW214286   2.622   5.987   4.345  0.7515 -0.8556 -1.0820
 4463SOL     OW14287   5.877   1.967   1.033  0.0779 -0.0993  0.7436
 4463SOL    HW114288   5.795   1.911   1.043 -0.5304  0.6583  0.1657
 4463SOL    HW214289   5.867   2.026   0.952 -0.2593  2.3896  2.4583
 4464SOL     OW14290   3.035   6.377   3.000 -0.1020  0.4006 -0.0583
 4464SOL    HW114291   3.018   6.290   3.047 -0.3026  0.4933  0.0447
 4464SOL    HW214292   3.044   6.362   2.902 -1.1236  0.3823 -0.1628
 4465SOL     OW14293   6.180   6.086   3.277  0.0365 -0.0892 -0.5283
 4465SOL    HW114294   6.132   6.097   3.190  0.1377 -0.9224 -0.6962
 4465SOL    HW214295   6.149   6.157   3.341  0.6578  1.1129 -1.5321
 4466SOL     OW14296   5.591   0.668   3.806 -0.0625 -0.6135 -0.2232
 4466SOL    HW114297   5.626   0.581   3.841 -0.5684 -0.8559 -0.3046
 4466SOL    HW214298   5.528   0.707   3.874  0.8514  0.1408  0.2155
 4467SOL     OW14299   5.228   4.684   5.912 -0.0556  0.1566 -0.3419
 4467SOL    HW114300   5.313   4.643   5.945 -0.5232 -0.3661  0.2588
 4467SOL    HW214301   5.237   4.783   5.913  0.6690  0.1040 -0.6353
 4468SOL     OW14302   6.638   3.857   3.652  0.2938  0.1436  0.2042
 4468SOL    HW114303   6.567   3.798   3.690  0.9401 -0.2969  0.7451
 4468SOL    HW214304   6.668   3.822   3.564  0.4007 -0.1191  0.3443
 4469SOL     OW14305   5.047   6.766   6.408  0.6663  0.0622  0.1000
 4469SOL    HW114306   4.998   6.764   6.321 -0.1485 -1.9324  0.5395
 4469SOL    HW214307   5.022   6.848   6.458 -0.2512  0.3537 -0.7933
 4470SOL     OW14308   4.226   6.219   3.099  0.1591 -0.0665  0.3617
 4470SOL    HW114309   4.153   6.218   3.030  0.0215  0.0271  0.5036
 4470SOL    HW214310   4.249   6.314   3.121 -1.1000 -0.0471  1.7927
 4471SOL     OW14311   1.420   1.319   0.063 -0.4457  0.1956 -0.3709
 4471SOL    HW114312   1.473   1.262   0.126 -1.4792 -0.3964 -0.0002
 4471SOL    HW214313   1.322   1.305   0.080 -0.7615 -0.1363 -2.2303
 4472SOL     OW14314   0.170   4.610   6.014 -0.3229  0.3377 -0.1590
 4472SOL    HW114315   0.176   4.669   6.095 -0.6980  0.1820 -0.0128
 4472SOL    HW214316   0.250   4.624   5.956 -1.5715  2.8579 -1.4164
 4473SOL     OW14317   1.482   5.562   1.161 -0.1169 -0.2390 -0.2772
 4473SOL    HW114318   1.511   5.656   1.174  0.5394 -0.7145  2.1191
 4473SOL    HW214319   1.557   5.500   1.185 -0.9548 -1.3881 -0.5116
 4474SOL     OW14320   5.479   6.600   1.410 -0.6241  0.1512 -0.3118
 4474SOL    HW114321   5.390   6.574   1.448 -1.1571  0.2331 -1.4697
 4474SOL    HW214322   5.509   6.530   1.344 -1.9794  2.2078 -3.3293
 4475SOL     OW14323   0.298   6.033   6.531 -0.3562  0.2899 -0.3864
 4475SOL    HW114324   0.278   6.115   6.478 -0.7648 -0.5007 -1.5118
 4475SOL    HW214325   0.380   6.047   6.587 -0.7563  1.6371 -0.1210
 4476SOL     OW14326   3.987   3.940   4.657  0.2935  0.0728 -0.3954
 4476SOL    HW114327   3.893   3.934   4.623  0.1989 -0.1126 -0.1035
 4476SOL    HW214328   4.049   3.960   4.581  0.4972 -3.3808 -1.3070
 4477SOL     OW14329   3.714   3.739   2.216 -0.6507 -0.2350 -0.3197
 4477SOL    HW114330   3.792   3.680   2.196 -1.5546 -1.7712  0.5252
 4477SOL    HW214331   3.747   3.830   2.239  0.9497 -0.9997  0.6415
 4478SOL     OW14332   3.886   0.744   1.271 -0.5697 -0.2646 -0.5374
 4478SOL    HW114333   3.926   0.653   1.262 -0.1066 -0.2302  0.9008
 4478SOL    HW214334   3.949   0.804   1.322 -1.3584  0.5253 -0.4559
 4479SOL     OW14335   2.322   5.738   1.511  0.2459  0.0495  0.0243
 4479SOL    HW114336   2.414   5.726   1.476  0.4555 -1.0550  0.9198
 4479SOL    HW214337   2.258   5.747   1.434  0.7627 -1.7870 -0.6710
 4480SOL     OW14338   3.958   0.195   1.271 -0.2889  0.1220  0.2109
 4480SOL    HW114339   4.030   0.136   1.236 -0.1635  0.0519  0.5769
 4480SOL    HW214340   3.906   0.145   1.341 -1.8018 -0.4572 -1.2605
 4481SOL     OW14341   0.414   2.395   4.651  0.1273 -0.2396  0.0894
 4481SOL    HW114342   0.429   2.493   4.642  0.6148 -0.1987  1.1470
 4481SOL    HW214343   0.424   2.351   4.562  1.6934  0.4461 -0.1094
 4482SOL     OW14344   5.789   4.785   0.835 -0.3543  0.1688 -0.1611
 4482SOL    HW114345   5.703   4.739   0.857 -0.4188  0.4340  0.1554
 4482SOL    HW214346   5.838   4.733   0.765  0.3178 -1.2331  1.2940
 4483SOL     OW14347   1.774   3.026   1.199 -0.1946  0.2309  0.3840
 4483SOL    HW114348   1.694   2.990   1.152  0.5620  0.7715 -1.4297
 4483SOL    HW214349   1.745   3.083   1.276 -1.5972  0.8283 -0.5346
 4484SOL     OW14350   6.715   2.745   2.399 -0.3435  0.4297  0.5346
 4484SOL    HW114351   6.625   2.759   2.359 -0.0652  2.1201  0.4303
 4484SOL    HW214352   6.705   2.705   2.491 -1.1481  0.0269  0.2799
 4485SOL     OW14353   4.805   3.754   0.016  0.4740 -0.1735 -0.3170
 4485SOL    HW114354   4.784   3.678  -0.046 -2.6433  1.2504 -1.2501
 4485SOL    HW214355   4.746   3.747   0.097 -0.1195  1.3683 -0.5827
 4486SOL     OW14356   0.883   6.145   2.605 -0.1149  0.0215 -0.4202
 4486SOL    HW114357   0.856   6.160   2.510 -1.1231  0.1251 -0.1289
 4486SOL    HW214358   0.833   6.067   2.642  1.4209 -1.0098 -0.4241
 4487SOL     OW14359   5.558   3.714   0.696  0.1209  0.2503 -0.3454
 4487SOL    HW114360   5.573   3.664   0.610 -2.1009  0.3274 -0.8401
 4487SOL    HW214361   5.509   3.656   0.760 -1.4777  1.3700 -0.5033
 4488SOL     OW14362   0.867   0.945   6.829 -0.1340 -0.3364  0.2707
 4488SOL    HW114363   0.903   0.934   6.922  0.9442 -0.6969 -0.1710
 4488SOL    HW214364   0.795   0.878   6.813 -1.0013  0.3462  1.1489
 4489SOL     OW14365   5.041   4.364   4.208  0.0008 -0.4680 -0.7909
 4489SOL    HW114366   5.107   4.427   4.250  1.2954 -1.8772 -0.6188
 4489SOL    HW214367   4.965   4.416   4.170  0.2391  1.0685  0.7214
 4490SOL     OW14368   6.577   1.865   6.193 -0.0920 -0.1135  0.4774
 4490SOL    HW114369   6.644   1.816   6.248  0.4297  1.6103  1.4492
 4490SOL    HW214370   6.624   1.912   6.118 -0.4529 -0.3218  0.1193
 4491SOL     OW14371   1.216   3.500   1.345 -0.4047 -0.3900 -0.8404
 4491SOL    HW114372   1.215   3.600   1.340 -0.2158 -0.3958 -0.9886
 4491SOL    HW214373   1.157   3.471   1.421  1.4215 -0.0484  0.8088
 4492SOL     OW14374   0.616   2.428   5.821  0.6082  0.5895  0.7153
 4492SOL    HW114375   0.586   2.523   5.812 -0.0728  0.4768  1.7038
 4492SOL    HW214376   0.680   2.420   5.898  2.4923  0.6466 -0.7521
 4493SOL     OW14377   4.650   4.210   3.550  0.5790  0.3164  0.1987
 4493SOL    HW114378   4.582   4.253   3.609  0.7748 -2.1689  2.4181
 4493SOL    HW214379   4.736   4.261   3.555  0.6809  0.0150  2.3750
 4494SOL     OW14380   3.347   4.131   0.299  0.2196  0.0214  0.0178
 4494SOL    HW114381   3.296   4.045   0.302  0.0046  0.0808 -1.3774
 4494SOL    HW214382   3.401   4.134   0.215  2.6798 -0.1002  1.4970
 4495SOL     OW14383   2.114   0.205   5.232  0.2877 -0.1078  0.0744
 4495SOL    HW114384   2.111   0.183   5.135 -0.0184 -0.8378  0.2419
 4495SOL    HW214385   2.132   0.303   5.244 -0.9199  0.2269 -0.7253
 4496SOL     OW14386   3.603   4.962   2.764  0.3739 -0.7738 -0.0510
 4496SOL    HW114387   3.680   4.910   2.801  0.4297 -1.1529 -0.6932
 4496SOL    HW214388   3.581   5.038   2.826  0.5323 -1.3352  0.6995
 4497SOL     OW14389   1.977   0.279   1.014  0.3052 -0.1567  0.1677
 4497SOL    HW114390   2.020   0.243   1.096  1.9543  0.5921 -0.3361
 4497SOL    HW214391   2.014   0.370   0.994 -1.5350  0.5364 -0.2947
 4498SOL     OW14392   6.594   5.541   4.082  0.4330 -0.1217 -0.7644
 4498SOL    HW114393   6.569   5.593   4.164  1.4044  0.2860 -0.7189
 4498SOL    HW214394   6.606   5.604   4.005 -1.6026 -0.6036 -1.5368
 4499SOL     OW14395   6.778   0.754   5.715 -0.1072  0.4777  0.3403
 4499SOL    HW114396   6.772   0.853   5.720  1.0382  0.6103 -0.4869
 4499SOL    HW214397   6.835   0.719   5.789  0.6638  0.5889 -0.1853
 4500SOL     OW14398   2.662   1.368   5.159  0.4089  0.8208 -0.3690
 4500SOL    HW114399   2.732   1.423   5.204  1.2093 -0.1069 -0.4438
 4500SOL    HW214400   2.706   1.306   5.093 -0.3419 -0.6093  0.4345
 4501SOL     OW14401   6.186   2.676   6.457 -0.5584 -0.1178 -0.1064
 4501SOL    HW114402   6.278   2.713   6.474 -0.4096 -0.5539  0.0426
 4501SOL    HW214403   6.129   2.748   6.418 -0.0867  0.0912 -0.4283
 4502SOL     OW14404   1.413   6.773   0.216 -0.2751 -0.1032  0.9211
 4502SOL    HW114405   1.328   6.727   0.189 -0.5316 -0.7744  2.7824
 4502SOL    HW214406   1.478   6.769   0.140 -0.7644 -2.3805  0.5453
 4503SOL     OW14407   2.970   4.845   2.422  0.2694 -0.2170 -0.0272
 4503SOL    HW114408   2.967   4.793   2.337 -0.3323  1.5236 -1.1254
 4503SOL    HW214409   3.060   4.834   2.465  0.2181 -1.9581 -0.3127
 4504SOL     OW14410   2.774   4.048   1.035  0.2353 -0.1138 -0.2519
 4504SOL    HW114411   2.822   4.037   1.122  1.7250  1.1257 -0.8630
 4504SOL    HW214412   2.821   3.995   0.964 -0.1224  0.0045 -0.5807
 4505SOL     OW14413   3.409   5.984   1.116 -0.0391  0.5312  0.2857
 4505SOL    HW114414   3.344   5.966   1.042  1.7583 -1.1829 -0.9923
 4505SOL    HW214415   3.439   5.897   1.155 -0.4135  1.3850  2.6334
 4506SOL     OW14416   5.406   1.696   1.720  0.5093  0.1806  0.2596
 4506SOL    HW114417   5.397   1.751   1.637 -0.6503  0.6894  0.7073
 4506SOL    HW214418   5.398   1.599   1.696  2.0913  0.1876 -0.4632
 4507SOL     OW14419   5.745   1.717   4.813  0.5819 -0.2609  0.2397
 4507SOL    HW114420   5.648   1.733   4.793  0.4669  1.0871  1.6377
 4507SOL    HW214421   5.764   1.744   4.908  2.1772 -1.1958  0.2185
 4508SOL     OW14422   0.443   4.848   0.562  0.0114  0.1521 -0.2010
 4508SOL    HW114423   0.516   4.912   0.587 -0.1384 -0.4747  1.9858
 4508SOL    HW214424   0.473   4.754   0.579 -0.8035 -0.2039 -0.6579
 4509SOL     OW14425   5.572   6.007   1.393  0.6894 -0.5426  0.5193
 4509SOL    HW114426   5.475   5.989   1.373  0.8969 -2.4334  0.9811
 4509SOL    HW214427   5.623   6.009   1.307  0.1307  1.4617  0.1885
 4510SOL     OW14428   1.748   2.987   0.318  0.4432  0.1063  0.3764
 4510SOL    HW114429   1.668   3.017   0.267  1.0931  2.0065  0.4007
 4510SOL    HW214430   1.797   3.066   0.354  1.7969 -1.0468  1.2073
 4511SOL     OW14431   2.177   2.959   5.602  0.1389  0.3680  0.3651
 4511SOL    HW114432   2.165   3.035   5.667  1.1489  0.6346  0.2636
 4511SOL    HW214433   2.256   2.978   5.544 -1.0808  0.4228 -1.3641
 4512SOL     OW14434   1.066   5.306   2.483  0.0057 -0.8585 -0.1690
 4512SOL    HW114435   1.101   5.298   2.389  1.8329  1.6286  0.1904
 4512SOL    HW214436   1.026   5.397   2.495 -2.7889 -2.1136  0.7399
 4513SOL     OW14437   1.092   6.855   1.873  0.1238 -0.0564 -0.1045
 4513SOL    HW114438   1.110   6.858   1.775  1.8750 -2.7430  0.0360
 4513SOL    HW214439   0.997   6.828   1.889 -0.3171  0.8893 -1.0170
 4514SOL     OW14440   6.366   0.319   5.128  0.4279 -0.0284  0.0944
 4514SOL    HW114441   6.411   0.233   5.103 -0.3180 -0.7840  1.2954
 4514SOL    HW214442   6.270   0.302   5.148  0.4371  0.9734  1.0626
 4515SOL     OW14443   6.237   1.649   0.256 -0.7603 -0.6581  0.1499
 4515SOL    HW114444   6.248   1.615   0.349 -1.1191 -1.8203 -0.2081
 4515SOL    HW214445   6.263   1.577   0.191 -0.4705  0.1455 -0.6545
 4516SOL     OW14446   5.228   0.295   4.580  0.1222 -0.3113 -0.2650
 4516SOL    HW114447   5.211   0.391   4.555  2.8690  0.1072 -0.8006
 4516SOL    HW214448   5.241   0.289   4.679 -1.0385 -0.3363 -0.0960
 4517SOL     OW14449   0.510   4.968   4.265  0.0888  0.2843 -0.0760
 4517SOL    HW114450   0.474   4.881   4.299 -1.0898  0.0528 -1.8155
 4517SOL    HW214451   0.607   4.959   4.245 -0.3423 -1.1236 -1.7067
 4518SOL     OW14452   3.047   1.651   4.000  0.2514  0.2837  0.3508
 4518SOL    HW114453   3.009   1.649   3.908  0.0095  0.8758  0.4343
 4518SOL    HW214454   3.132   1.598   4.002 -0.0048 -0.1471 -0.0904
 4519SOL     OW14455   6.171   6.554   1.735 -0.1512 -0.3778 -1.0022
 4519SOL    HW114456   6.151   6.628   1.799 -3.2437 -0.5358 -1.6184
 4519SOL    HW214457   6.104   6.481   1.747  0.7368 -1.5438 -2.7177
 4520SOL     OW14458   5.611   3.155   5.834 -0.0137 -0.2048 -0.4312
 4520SOL    HW114459   5.578   3.097   5.760  1.1426 -0.5717 -0.6908
 4520SOL    HW214460   5.689   3.110   5.879  0.6852  0.9873 -0.4038
 4521SOL     OW14461   3.050   0.596   6.444  0.2960 -0.6689 -0.4614
 4521SOL    HW114462   3.040   0.609   6.346 -0.2756  0.5484 -0.2556
 4521SOL    HW214463   3.140   0.629   6.473 -0.0186  0.1253 -0.3875
 4522SOL     OW14464   6.865   2.243   4.491 -0.4243 -0.0870 -0.1971
 4522SOL    HW114465   6.964   2.231   4.486 -0.0647  1.1125  2.1857
 4522SOL    HW214466   6.828   2.186   4.564 -0.8645  2.0919  1.3860
 4523SOL     OW14467   4.932   5.380   6.995 -0.2336 -0.3884  0.5801
 4523SOL    HW114468   4.885   5.357   7.080  1.4354  0.9297  1.9211
 4523SOL    HW214469   4.945   5.297   6.940 -1.7131 -1.1839  1.3859
 4524SOL     OW14470   1.408   2.895   6.848 -0.1491  0.2965 -0.1050
 4524SOL    HW114471   1.499   2.856   6.842 -0.2675  0.1636 -1.1155
 4524SOL    HW214472   1.367   2.870   6.936  0.4668 -0.3341  0.0084
 4525SOL     OW14473   1.134   0.340   5.163  0.2586  0.4637  0.0497
 4525SOL    HW114474   1.205   0.407   5.185  1.1410 -0.4830  0.1088
 4525SOL    HW214475   1.080   0.320   5.245  0.8185  0.1350  0.3393
 4526SOL     OW14476   1.293   4.034   3.187 -0.4407 -0.2697  0.3333
 4526SOL    HW114477   1.330   4.103   3.125  1.4231 -1.4243  0.0855
 4526SOL    HW214478   1.263   4.078   3.271 -1.0811  1.0575 -0.5424
 4527SOL     OW14479   5.586   1.366   6.313  0.0930  0.0759 -0.3985
 4527SOL    HW114480   5.626   1.424   6.383 -0.2924  0.6454 -0.6420
 4527SOL    HW214481   5.646   1.365   6.232  0.2978 -0.1928 -0.2456
 4528SOL     OW14482   3.632   4.993   3.995  0.0573  0.2690  0.4902
 4528SOL    HW114483   3.567   5.009   4.070 -0.5144  1.5005 -0.2312
 4528SOL    HW214484   3.710   4.942   4.030 -0.1461  0.8962  1.9735
 4529SOL     OW14485   5.947   5.885   5.520  0.1497  0.4368  0.4296
 4529SOL    HW114486   5.883   5.959   5.541 -0.4618  0.5154 -1.4756
 4529SOL    HW214487   5.979   5.895   5.425  2.0499 -0.3119  0.9531
 4530SOL     OW14488   0.210   5.975   2.431 -0.7207 -0.1213  0.1142
 4530SOL    HW114489   0.144   5.901   2.418 -1.4458  0.6139 -0.5191
 4530SOL    HW214490   0.249   6.001   2.343 -2.4625  2.0156 -0.1258
 4531SOL     OW14491   2.385   2.596   4.392 -0.1933  0.3421 -0.5162
 4531SOL    HW114492   2.399   2.657   4.471  0.4797 -1.5867  0.9417
 4531SOL    HW214493   2.422   2.506   4.413 -1.0348 -0.5676 -2.6526
 4532SOL     OW14494   4.978   2.087   4.802 -0.2084  0.0019 -0.3235
 4532SOL    HW114495   4.973   1.996   4.844  2.3856 -0.5337 -0.9866
 4532SOL    HW214496   4.995   2.155   4.873  1.4728 -0.5583 -0.1320
 4533SOL     OW14497   5.726   5.616   6.286  0.2791 -0.0856 -0.2829
 4533SOL    HW114498   5.803   5.628   6.348  1.1100  0.4834 -1.3909
 4533SOL    HW214499   5.643   5.652   6.328  0.5219 -1.0350  1.0779
 4534SOL     OW14500   4.781   5.274   4.478 -0.1866  0.1469  0.3683
 4534SOL    HW114501   4.872   5.311   4.458  0.1803 -1.3710 -0.9570
 4534SOL    HW214502   4.722   5.286   4.398 -0.2118 -1.5929  0.0923
 4535SOL     OW14503   4.446   5.484   4.996  0.0183 -0.3239  0.6822
 4535SOL    HW114504   4.475   5.392   5.020 -1.8701 -1.2375 -0.3473
 4535SOL    HW214505   4.508   5.522   4.927 -0.1498 -1.5246 -0.1666
 4536SOL     OW14506   6.845   1.306   0.699 -0.1754 -0.4073  0.1633
 4536SOL    HW114507   6.799   1.238   0.755 -1.6752 -0.6686 -1.3298
 4536SOL    HW214508   6.778   1.371   0.663  0.8664  0.2498 -0.6583
 4537SOL     OW14509   6.103   1.960   3.197  0.5914 -0.0509 -0.7537
 4537SOL    HW114510   6.187   2.009   3.176  1.2229 -0.4970  0.6443
 4537SOL    HW214511   6.123   1.864   3.218  0.0201  0.2261  1.3777
 4538SOL     OW14512   2.784   1.347   1.314 -0.2918 -0.4323 -0.3244
 4538SOL    HW114513   2.771   1.375   1.409  2.5300 -0.8965  0.2832
 4538SOL    HW214514   2.817   1.424   1.261 -1.5379 -0.2648 -0.8915
 4539SOL     OW14515   6.017   5.879   2.324 -0.3584  1.0015  0.3334
 4539SOL    HW114516   5.935   5.936   2.327  0.1046  1.8726 -1.6484
 4539SOL    HW214517   6.076   5.910   2.249  2.0013  0.6579  1.9496
 4540SOL     OW14518   4.495   5.054   1.654  0.2879 -0.0913  0.0242
 4540SOL    HW114519   4.416   5.035   1.595  0.2283  1.7314 -0.5494
 4540SOL    HW214520   4.579   5.023   1.608  0.2202  1.1151 -0.9776
 4541SOL     OW14521   0.195   5.882   6.791  0.2776 -0.2808  0.2105
 4541SOL    HW114522   0.234   5.941   6.720  0.2633 -0.8234 -0.2546
 4541SOL    HW214523   0.234   5.790   6.783 -1.9473 -1.1964 -1.0506
 4542SOL     OW14524   6.065   3.139   6.000  0.1226 -0.4257 -0.6269
 4542SOL    HW114525   6.052   3.232   5.964 -0.4342 -0.8663 -1.6009
 4542SOL    HW214526   6.104   3.144   6.092  2.3686  0.7332 -1.5644
 4543SOL     OW14527   1.661   5.947   5.338 -0.2915  1.0610 -0.3956
 4543SOL    HW114528   1.611   5.977   5.420  3.0893  1.4964  1.7271
 4543SOL    HW214529   1.670   5.848   5.338 -1.2686  0.9653 -0.8899
 4544SOL     OW14530   4.211   1.579   5.262 -0.5353  0.0499 -0.4335
 4544SOL    HW114531   4.240   1.578   5.166 -1.4084  2.2939 -0.7958
 4544SOL    HW214532   4.271   1.520   5.316  2.3035  1.5114 -1.7782
 4545SOL     OW14533   6.227   3.956   3.067 -0.0934 -0.1590 -0.3950
 4545SOL    HW114534   6.150   4.019   3.082 -1.1420 -1.8867  2.1609
 4545SOL    HW214535   6.308   4.009   3.044 -1.3022  2.0000 -0.0336
 4546SOL     OW14536   6.416   4.339   3.739 -0.6735 -0.3323 -0.0920
 4546SOL    HW114537   6.490   4.390   3.781  0.9645 -1.5039 -1.4257
 4546SOL    HW214538   6.349   4.314   3.809 -1.0226  2.6376  0.7829
 4547SOL     OW14539   2.556   5.519   1.207  0.6385 -0.6850 -0.0532
 4547SOL    HW114540   2.629   5.455   1.230 -0.3837 -0.7687  3.7015
 4547SOL    HW214541   2.588   5.613   1.224  1.4238 -0.2097 -3.4580
 4548SOL     OW14542   6.980   2.413   5.459 -0.6265  0.4596 -0.2043
 4548SOL    HW114543   7.031   2.330   5.484  1.9192  1.2090 -2.3862
 4548SOL    HW214544   6.922   2.440   5.535 -3.0110 -4.2464  0.0341
 4549SOL     OW14545   5.597   2.446   6.667 -0.1760  0.4123  0.3358
 4549SOL    HW114546   5.610   2.369   6.605 -0.9973  1.0952 -0.7142
 4549SOL    HW214547   5.501   2.452   6.692 -0.2874  1.6280 -0.3228
 4550SOL     OW14548   6.916   1.760   5.204  0.4451 -0.5328 -0.6727
 4550SOL    HW114549   7.012   1.779   5.221 -0.1429  1.1505  1.2437
 4550SOL    HW214550   6.882   1.820   5.131 -0.0347  1.9292  1.4372
 4551SOL     OW14551   6.858   4.593   6.318  0.2441  0.4110 -0.1408
 4551SOL    HW114552   6.928   4.527   6.345  1.5513  0.5907 -2.7718
 4551SOL    HW214553   6.874   4.680   6.366  2.5080  0.7542 -1.3750
 4552SOL     OW14554   5.385   4.486   2.690  0.1282  0.2790  0.2587
 4552SOL    HW114555   5.360   4.413   2.627  0.0560  0.7133 -0.2310
 4552SOL    HW214556   5.472   4.465   2.734 -1.0271 -1.2290  1.9400
 4553SOL     OW14557   2.294   0.918   4.222  0.1037 -0.0226 -0.5729
 4553SOL    HW114558   2.205   0.910   4.268 -0.6304  2.3243 -1.4153
 4553SOL    HW214559   2.283   0.893   4.126  0.4707 -0.1817 -0.5719
 4554SOL     OW14560   6.699   5.114   2.712 -0.0920  0.9074 -0.5692
 4554SOL    HW114561   6.648   5.164   2.782 -0.5936 -1.3210  0.7516
 4554SOL    HW214562   6.793   5.099   2.742 -0.4804 -0.5980 -0.0592
 4555SOL     OW14563   5.195   3.501   4.356  0.2522  0.2740 -0.0336
 4555SOL    HW114564   5.215   3.543   4.445 -1.4031  0.2525  0.3730
 4555SOL    HW214565   5.110   3.538   4.320 -0.0426 -1.0447 -0.7601
 4556SOL     OW14566   1.187   1.982   1.356 -0.7233  0.4131  0.0516
 4556SOL    HW114567   1.111   2.029   1.400 -2.5082 -0.9206 -1.4208
 4556SOL    HW214568   1.165   1.966   1.260  3.1193  3.5026 -1.6420
 4557SOL     OW14569   5.797   3.732   2.315 -0.3885 -0.1522 -0.1265
 4557SOL    HW114570   5.809   3.633   2.312 -0.6495 -0.2666  1.4136
 4557SOL    HW214571   5.702   3.753   2.335  0.0921  0.3055  1.9209
 4558SOL     OW14572   5.578   3.761   5.267  0.0760 -0.1447  0.0692
 4558SOL    HW114573   5.482   3.740   5.250  0.5283 -0.3864 -2.5517
 4558SOL    HW214574   5.584   3.844   5.322 -1.6503  1.1208 -1.5205
 4559SOL     OW14575   1.796   2.066   6.169  0.1791  0.3907  0.0467
 4559SOL    HW114576   1.738   2.041   6.247  0.6369 -0.0280  0.2585
 4559SOL    HW214577   1.890   2.079   6.201  0.0003  2.2346 -0.0883
 4560SOL     OW14578   6.994   1.899   2.249  0.4283 -0.5360  0.5764
 4560SOL    HW114579   7.014   1.867   2.157  1.3878  0.7197  0.3123
 4560SOL    HW214580   6.903   1.868   2.276  0.2609 -1.1970 -0.6579
 4561SOL     OW14581   1.971   5.007   6.840  0.1224  0.5191  0.4840
 4561SOL    HW114582   1.921   4.996   6.926 -0.2497  1.5199  0.4154
 4561SOL    HW214583   1.929   5.081   6.787  1.5922  1.3087  0.3725
 4562SOL     OW14584   2.118   6.074   1.569 -0.2597 -0.3390  0.0540
 4562SOL    HW114585   2.024   6.109   1.561 -1.0106 -2.1782  0.3537
 4562SOL    HW214586   2.143   6.067   1.665 -0.7317 -2.0753  0.0804
 4563SOL     OW14587   5.040   1.739   1.425 -1.1896 -0.2767  0.0094
 4563SOL    HW114588   4.975   1.666   1.448 -0.1563 -0.3514  3.1141
 4563SOL    HW214589   5.025   1.817   1.485 -0.0036  0.7209 -0.9275
 4564SOL     OW14590   4.934   4.760   1.258 -0.3540  0.4351  0.3678
 4564SOL    HW114591   4.909   4.677   1.208 -0.2324  2.3184 -3.0403
 4564SOL    HW214592   4.999   4.735   1.330  1.5271 -2.2147 -1.9992
 4565SOL     OW14593   0.366   4.961   6.607  0.5582 -0.1846 -0.2490
 4565SOL    HW114594   0.282   5.010   6.633 -0.1767 -0.9157 -1.1573
 4565SOL    HW214595   0.400   4.998   6.520  0.9477 -0.1771 -0.0961
 4566SOL     OW14596   3.747   1.644   1.961  0.1795  0.0122  0.0801
 4566SOL    HW114597   3.805   1.590   2.021  1.4740  0.1646 -1.0008
 4566SOL    HW214598   3.753   1.740   1.987  1.0983  0.1336 -0.5844
 4567SOL     OW14599   2.045   5.513   6.916 -0.3640 -0.0770 -0.4452
 4567SOL    HW114600   2.044   5.417   6.942  0.8380  0.4012  1.5917
 4567SOL    HW214601   1.951   5.543   6.896 -0.6943 -1.7460 -1.6464
 4568SOL     OW14602   1.445   1.954   5.446  0.1895 -0.3346  0.4552
 4568SOL    HW114603   1.375   1.891   5.480  0.1845 -0.5634  0.0361
 4568SOL    HW214604   1.499   1.908   5.376 -0.0538  0.2429 -0.1287
 4569SOL     OW14605   1.842   3.303   5.595  0.0849 -0.0780 -0.1779
 4569SOL    HW114606   1.924   3.326   5.542 -0.5813  0.1974 -1.1179
 4569SOL    HW214607   1.865   3.300   5.692  0.9835  1.0130 -0.3364
 4570SOL     OW14608   6.008   5.648   6.386  0.3196 -0.0556  0.0456
 4570SOL    HW114609   6.005   5.671   6.484  0.0893 -1.4106  0.3782
 4570SOL    HW214610   6.088   5.690   6.344  1.0342 -0.3608  1.0654
 4571SOL     OW14611   3.640   3.395   3.680 -0.4768 -0.0758  0.4124
 4571SOL    HW114612   3.580   3.474   3.662  1.5976  1.7764  1.1854
 4571SOL    HW214613   3.662   3.392   3.777  1.4520 -0.0991  0.0141
 4572SOL     OW14614   1.047   0.157   4.772 -0.8292  0.1614  0.0750
 4572SOL    HW114615   1.093   0.210   4.700 -2.9813  1.6634 -0.3046
 4572SOL    HW214616   1.023   0.067   4.737  0.4094 -0.0753 -0.2154
 4573SOL     OW14617   6.102   0.840   0.188 -0.0657  0.3462  0.2452
 4573SOL    HW114618   6.190   0.832   0.142 -0.6606  0.6921 -1.0135
 4573SOL    HW214619   6.034   0.875   0.123 -1.4085 -1.0816  0.8219
 4574SOL     OW14620   6.675   5.569   0.109 -0.5801 -0.1473 -0.5792
 4574SOL    HW114621   6.734   5.592   0.031  1.1745  0.1528  0.7814
 4574SOL    HW214622   6.701   5.479   0.144 -1.0437 -0.0766 -0.0478
 4575SOL     OW14623   5.547   5.441   0.435 -0.0538 -0.5207  0.0010
 4575SOL    HW114624   5.603   5.431   0.516 -1.3536 -1.5782  0.8138
 4575SOL    HW214625   5.456   5.401   0.451 -1.2034  1.4461 -1.1152
 4576SOL     OW14626   6.859   2.798   2.174  0.0586  0.7104 -0.2621
 4576SOL    HW114627   6.834   2.785   2.270 -1.2853 -1.7777 -0.8805
 4576SOL    HW214628   6.953   2.767   2.159  0.4881  1.6622  0.3070
 4577SOL     OW14629   1.678   3.936   3.977 -0.1009  0.1648 -0.1939
 4577SOL    HW114630   1.673   4.001   3.901 -1.6995 -0.4039 -0.6160
 4577SOL    HW214631   1.649   3.981   4.062  0.5174  0.4795 -0.1503
 4578SOL     OW14632   5.312   0.574   3.179  0.0215 -0.5555 -0.7469
 4578SOL    HW114633   5.252   0.530   3.246  1.2613  2.0612  2.2802
 4578SOL    HW214634   5.403   0.533   3.183  0.3786  0.3038 -0.0786
 4579SOL     OW14635   5.804   2.630   6.104 -0.3177  0.6260 -0.1148
 4579SOL    HW114636   5.792   2.542   6.059  1.9938 -0.9257  2.0662
 4579SOL    HW214637   5.715   2.663   6.137 -1.3111 -0.5349 -1.5151
 4580SOL     OW14638   3.789   6.089   6.431  0.5964  0.3056  0.1009
 4580SOL    HW114639   3.883   6.122   6.420  1.4886 -2.1208 -0.1399
 4580SOL    HW214640   3.766   6.087   6.529  0.8585  0.7166  0.1739
 4581SOL     OW14641   2.540   1.178   3.055 -0.2016  0.1646  0.1534
 4581SOL    HW114642   2.579   1.267   3.079 -2.4534  1.0154  0.9901
 4581SOL    HW214643   2.440   1.181   3.068 -0.7843 -1.4529 -3.0474
 4582SOL     OW14644   2.322   6.935   2.759 -0.3546 -0.0811  0.1165
 4582SOL    HW114645   2.339   6.974   2.849  0.5907 -0.5956  0.1774
 4582SOL    HW214646   2.366   6.991   2.689  2.0052 -1.5468  0.2944
 4583SOL     OW14647   4.664   1.725   4.889 -0.4627  0.1896  0.1051
 4583SOL    HW114648   4.652   1.709   4.987  0.2540 -1.7078 -0.0628
 4583SOL    HW214649   4.685   1.638   4.844  1.2592  1.3249 -1.4332
 4584SOL     OW14650   0.739   1.470   0.585 -0.1103  0.4796 -0.0694
 4584SOL    HW114651   0.756   1.460   0.487  2.0276  1.8615  0.1062
 4584SOL    HW214652   0.811   1.424   0.637 -0.9042  0.2544  0.8687
 4585SOL     OW14653   1.702   2.304   0.308 -0.6209  0.5484 -0.0164
 4585SOL    HW114654   1.774   2.302   0.238  0.6737  0.3405  1.2622
 4585SOL    HW214655   1.736   2.260   0.391 -1.0115  3.2713  1.7215
 4586SOL     OW14656   0.815   3.059   2.758 -0.3653 -0.2508  0.5831
 4586SOL    HW114657   0.906   3.057   2.718  0.1049  0.0520  1.6059
 4586SOL    HW214658   0.768   2.973   2.738  0.5287 -0.8261  0.9255
 4587SOL     OW14659   0.537   0.794   0.671  0.3554  0.1910  0.9592
 4587SOL    HW114660   0.573   0.762   0.759  0.4448  1.7817  1.5313
 4587SOL    HW214661   0.596   0.867   0.636  1.3010 -1.5313 -1.2989
 4588SOL     OW14662   6.253   1.504   4.215  0.2537  0.1225 -0.0534
 4588SOL    HW114663   6.188   1.485   4.289  0.1816 -0.0190 -0.1524
 4588SOL    HW214664   6.219   1.578   4.158  0.1623  0.0260 -0.1245
 4589SOL     OW14665   1.420   4.815   1.417  0.3715 -0.0828 -0.0374
 4589SOL    HW114666   1.384   4.834   1.326  0.5518 -0.3154 -0.1601
 4589SOL    HW214667   1.480   4.890   1.445 -1.9245  1.4110  1.1112
 4590SOL     OW14668   6.008   5.365   1.102 -0.1474  0.1948 -0.2883
 4590SOL    HW114669   5.999   5.269   1.129 -0.3245  0.0926 -0.6984
 4590SOL    HW214670   6.100   5.382   1.069  0.6025  0.7140  1.8688
 4591SOL     OW14671   2.870   7.006   2.890 -0.3090 -0.6948 -0.2276
 4591SOL    HW114672   2.954   7.060   2.890 -1.2672  0.8522 -0.2563
 4591SOL    HW214673   2.812   7.034   2.813 -1.8188 -0.1291  1.0465
 4592SOL     OW14674   0.038   6.919   5.810  0.4617 -0.6759 -0.7370
 4592SOL    HW114675   0.070   6.916   5.905  0.5049  2.8592 -0.5133
 4592SOL    HW214676   0.116   6.906   5.749  1.2247  0.9771 -0.1962
 4593SOL     OW14677   6.265   6.766   1.344 -0.4625  0.1963 -0.0462
 4593SOL    HW114678   6.296   6.734   1.254 -0.3220  1.3464 -0.4118
 4593SOL    HW214679   6.345   6.786   1.401 -0.5521  0.7166 -0.1080
 4594SOL     OW14680   1.192   6.671   4.337 -0.5638 -0.3635 -0.0395
 4594SOL    HW114681   1.252   6.613   4.283 -1.3771 -1.3170  0.0386
 4594SOL    HW214682   1.100   6.630   4.340 -1.0327  0.6779  0.4339
 4595SOL     OW14683   6.963   2.043   3.639  0.0903 -0.0137 -0.4501
 4595SOL    HW114684   7.042   2.069   3.583 -0.1205  2.2007  0.1952
 4595SOL    HW214685   6.913   2.125   3.666 -3.3335 -1.4164 -2.0486
 4596SOL     OW14686   1.403   2.379   3.163  0.9145  0.2908 -0.2683
 4596SOL    HW114687   1.360   2.468   3.157 -0.2263 -0.3042 -1.3651
 4596SOL    HW214688   1.464   2.376   3.242 -0.3126  1.4772  0.7538
 4597SOL     OW14689   1.074   1.817   1.740 -0.1597 -0.5696 -0.6148
 4597SOL    HW114690   1.106   1.771   1.823  0.1415  1.0583  0.2274
 4597SOL    HW214691   1.137   1.798   1.665  2.5385  1.9037  0.7975
 4598SOL     OW14692   0.814   6.559   0.704 -0.1978  0.5126 -0.1158
 4598SOL    HW114693   0.880   6.554   0.629 -1.5498 -0.4565 -1.2820
 4598SOL    HW214694   0.741   6.623   0.680  0.3125  1.6491  1.2076
 4599SOL     OW14695   6.132   6.497   4.559 -0.1303 -0.1644 -0.1841
 4599SOL    HW114696   6.105   6.583   4.516 -3.0591  0.4624  2.5134
 4599SOL    HW214697   6.178   6.516   4.646 -0.7185 -1.2662  0.3907
 4600SOL     OW14698   5.116   3.517   5.608 -0.2379 -0.0690 -0.5019
 4600SOL    HW114699   5.050   3.548   5.540 -0.1098 -0.8227 -0.9828
 4600SOL    HW214700   5.208   3.522   5.569 -0.0560  0.4539 -0.0255
 4601SOL     OW14701   4.035   6.834   2.217 -0.1429  0.2766 -0.3794
 4601SOL    HW114702   3.991   6.902   2.274 -1.0535 -0.1340 -0.5747
 4601SOL    HW214703   3.993   6.745   2.233  0.9369 -0.2215 -0.2280
 4602SOL     OW14704   3.694   4.859   5.712  0.2926  0.2334  0.3671
 4602SOL    HW114705   3.735   4.950   5.702  0.3232  0.2749  0.8672
 4602SOL    HW214706   3.755   4.801   5.765  1.1323 -0.6416 -1.4716
 4603SOL     OW14707   6.536   6.895   0.925 -0.2447  0.1001 -0.7532
 4603SOL    HW114708   6.565   6.910   0.830 -0.0389  1.4889 -0.4888
 4603SOL    HW214709   6.614   6.910   0.986 -0.4087 -0.6642 -0.3502
 4604SOL     OW14710   5.918   4.103   1.241 -0.1579  0.7556 -0.5588
 4604SOL    HW114711   5.839   4.082   1.298 -1.2814  2.1180 -1.5539
 4604SOL    HW214712   5.955   4.017   1.204 -1.3006  0.1016 -0.2497
 4605SOL     OW14713   5.254   6.282   3.061 -0.0085  0.6733 -0.0809
 4605SOL    HW114714   5.330   6.217   3.066 -0.2823  0.3352 -0.1881
 4605SOL    HW214715   5.250   6.322   2.970 -0.0192  0.6116 -0.1080
 4606SOL     OW14716   4.721   2.513   1.049  0.1075 -0.2930  0.4242
 4606SOL    HW114717   4.710   2.603   1.091 -1.4766  0.3122 -1.1550
 4606SOL    HW214718   4.752   2.524   0.955 -0.6730 -1.3328  0.0239
 4607SOL     OW14719   4.820   4.781   0.897  0.1182 -0.4098  0.0588
 4607SOL    HW114720   4.766   4.779   0.814 -0.7688  0.9318  0.5803
 4607SOL    HW214721   4.785   4.850   0.959  1.4001 -0.6643  1.1317
 4608SOL     OW14722   0.583   0.047   0.315  0.3519 -0.2083  0.3654
 4608SOL    HW114723   0.538   0.055   0.404 -1.1457 -0.0706 -0.3750
 4608SOL    HW214724   0.635   0.130   0.296 -2.2779  1.3879 -0.4181
 4609SOL     OW14725   6.719   5.848   0.982 -0.1026 -0.3961 -0.0593
 4609SOL    HW114726   6.677   5.760   0.958  0.6212 -0.5361 -0.8805
 4609SOL    HW214727   6.718   5.908   0.902  3.4634 -1.3020 -0.9585
 4610SOL     OW14728   3.527   0.824   5.163  0.3311 -0.4146  0.1517
 4610SOL    HW114729   3.579   0.773   5.232 -0.0845  1.0034  1.5469
 4610SOL    HW214730   3.539   0.779   5.074  1.3535 -1.9472  1.0046
 4611SOL     OW14731   1.645   6.642   1.309 -1.4313  0.0755  0.1101
 4611SOL    HW114732   1.594   6.601   1.234 -0.1733 -1.2444 -0.0587
 4611SOL    HW214733   1.714   6.704   1.273  0.0181 -1.5045  0.0449
 4612SOL     OW14734   0.414   2.671   6.474 -0.3248 -0.5896  0.0664
 4612SOL    HW114735   0.394   2.740   6.543  1.6516  0.6564 -0.5224
 4612SOL    HW214736   0.329   2.646   6.426 -0.8976  3.0266 -1.1254
 4613SOL     OW14737   1.722   4.457   3.659 -0.3580 -0.3489 -0.1822
 4613SOL    HW114738   1.696   4.526   3.727  1.5725  0.7423 -0.4562
 4613SOL    HW214739   1.646   4.395   3.643 -0.7598 -0.9217  3.3032
 4614SOL     OW14740   3.209   1.043   2.163 -0.4434 -0.0970 -0.5119
 4614SOL    HW114741   3.246   0.950   2.160  1.5686  0.6666 -0.6228
 4614SOL    HW214742   3.194   1.075   2.069 -1.8895 -0.5558 -0.4648
 4615SOL     OW14743   5.213   4.714   3.177 -0.2670 -0.8210  0.3132
 4615SOL    HW114744   5.132   4.772   3.166  1.6399  2.0745  0.4990
 4615SOL    HW214745   5.247   4.689   3.086  0.6101  1.0182  0.0863
 4616SOL     OW14746   6.877   6.834   5.616 -0.8568 -0.0772 -0.0902
 4616SOL    HW114747   6.804   6.898   5.592 -0.5359 -0.4665 -2.2512
 4616SOL    HW214748   6.924   6.868   5.698 -2.7156  0.7512  0.7067
 4617SOL     OW14749   3.904   1.041   3.616 -0.2126  0.4918  0.5205
 4617SOL    HW114750   3.954   1.022   3.532 -2.0947 -0.5622 -0.4169
 4617SOL    HW214751   3.860   0.958   3.649  0.1105  0.9847  2.3205
 4618SOL     OW14752   2.169   3.036   5.957 -0.1491 -0.2721 -0.4220
 4618SOL    HW114753   2.076   3.020   5.926 -0.9724  0.8388  1.3092
 4618SOL    HW214754   2.196   3.130   5.933  1.2837 -1.1741 -2.6103
 4619SOL     OW14755   6.606   5.023   5.356  0.2167 -0.0423  0.6507
 4619SOL    HW114756   6.698   5.063   5.351  1.3905 -2.6768 -3.4949
 4619SOL    HW214757   6.547   5.068   5.288 -0.9700  0.1507  1.7721
 4620SOL     OW14758   3.706   6.464   6.538  0.4595 -0.3898  0.8535
 4620SOL    HW114759   3.794   6.439   6.579  0.4041 -0.0472  1.1890
 4620SOL    HW214760   3.632   6.440   6.601  0.2775 -1.0286  0.4123
 4621SOL     OW14761   1.967   3.186   0.344  0.1597 -0.1236  0.3089
 4621SOL    HW114762   2.060   3.151   0.346 -0.3898 -1.9153 -1.4354
 4621SOL    HW214763   1.960   3.259   0.276  0.7114  1.6056  2.0199
 4622SOL     OW14764   0.337   1.058   5.601 -0.7104  0.4619  0.6516
 4622SOL    HW114765   0.323   1.141   5.655  1.6890 -0.0864  2.2974
 4622SOL    HW214766   0.411   1.073   5.536 -1.8594  0.2932 -0.7510
 4623SOL     OW14767   0.554   5.993   6.679 -0.2042 -0.0650 -0.1280
 4623SOL    HW114768   0.599   5.907   6.658 -0.1381 -0.2555  0.7903
 4623SOL    HW214769   0.578   6.061   6.609 -2.0386 -1.3818 -2.1707
 4624SOL     OW14770   0.268   3.160   3.605  0.0169  0.5054 -0.4136
 4624SOL    HW114771   0.221   3.107   3.676  1.3665 -1.0629 -0.6160
 4624SOL    HW214772   0.366   3.140   3.608  0.1702  0.7542 -2.4158
 4625SOL     OW14773   0.181   5.500   0.341 -0.3569  0.0013 -0.1399
 4625SOL    HW114774   0.152   5.585   0.384  0.1823  0.8860 -1.4570
 4625SOL    HW214775   0.108   5.432   0.349 -0.5330  0.3391  1.5162
 4626SOL     OW14776   1.711   3.552   3.278 -0.9140 -0.1440 -0.0443
 4626SOL    HW114777   1.761   3.613   3.216 -0.4304 -1.1975 -0.7387
 4626SOL    HW214778   1.741   3.568   3.372  2.8460 -2.4905 -0.6322
 4627SOL     OW14779   5.177   3.334   4.092  0.1929 -0.1199 -0.4667
 4627SOL    HW114780   5.183   3.378   4.182  1.6994 -2.2101  0.5365
 4627SOL    HW214781   5.093   3.281   4.086  0.0280  0.1260 -0.3549
 4628SOL     OW14782   1.620   5.967   6.544  0.2012 -0.5080 -0.2565
 4628SOL    HW114783   1.546   6.024   6.580 -1.0412 -1.4107 -1.2754
 4628SOL    HW214784   1.608   5.873   6.575  0.1822 -0.9164 -1.4462
 4629SOL     OW14785   3.601   5.910   6.183 -0.5745 -0.8826  0.4266
 4629SOL    HW114786   3.560   5.945   6.099 -0.0812 -0.2993  0.4228
 4629SOL    HW214787   3.540   5.927   6.260 -0.6135 -0.5856  0.3287
 4630SOL     OW14788   4.349   0.676   4.420  0.2434 -0.3977 -0.2848
 4630SOL    HW114789   4.305   0.764   4.405  0.2672 -0.4462 -0.6460
 4630SOL    HW214790   4.384   0.641   4.333  1.1417 -0.2851  0.0177
 4631SOL     OW14791   6.389   2.192   4.353 -0.4955 -0.0767 -0.1041
 4631SOL    HW114792   6.301   2.151   4.328 -0.3006 -0.8128  0.3943
 4631SOL    HW214793   6.462   2.126   4.338 -0.0129  0.5615 -0.5925
 4632SOL     OW14794   0.154   4.187   4.214  0.2239 -0.3425  0.6338
 4632SOL    HW114795   0.170   4.111   4.151  0.6827  0.1727  0.1130
 4632SOL    HW214796   0.065   4.175   4.259  0.7091 -1.6975  1.3089
 4633SOL     OW14797   3.233   4.123   3.422 -0.3099 -0.4574  0.0004
 4633SOL    HW114798   3.217   4.131   3.521 -0.0288  0.6457 -0.0283
 4633SOL    HW214799   3.322   4.162   3.400 -2.2085  3.7797 -1.2416
 4634SOL     OW14800   3.613   3.085   3.359 -0.2461 -0.1397  0.0765
 4634SOL    HW114801   3.637   3.167   3.307 -1.4313 -0.1450 -0.5305
 4634SOL    HW214802   3.637   3.003   3.306 -2.0594 -0.1452 -0.8319
 4635SOL     OW14803   2.239   1.688   2.431 -0.5863 -0.1325 -1.1395
 4635SOL    HW114804   2.244   1.674   2.332  1.8335  0.8042 -1.2160
 4635SOL    HW214805   2.241   1.786   2.452 -2.9934 -0.2159 -0.1668
 4636SOL     OW14806   4.410   4.655   4.472 -0.2531  0.0206 -0.1996
 4636SOL    HW114807   4.487   4.595   4.450  1.5263  2.0382  0.2044
 4636SOL    HW214808   4.380   4.636   4.565  0.3335 -0.2035 -0.0448
 4637SOL     OW14809   6.546   3.302   2.349  0.1527 -0.5792  0.4849
 4637SOL    HW114810   6.515   3.283   2.442 -1.4780  1.9779  0.5727
 4637SOL    HW214811   6.577   3.397   2.343  0.9975 -0.9257 -1.4123
 4638SOL     OW14812   6.736   5.331   0.145 -0.8223 -0.2367 -0.0363
 4638SOL    HW114813   6.651   5.282   0.164 -0.7428 -0.3275  0.0842
 4638SOL    HW214814   6.804   5.267   0.108 -0.7881 -0.1753 -0.0811
 4639SOL     OW14815   6.635   2.020   2.435  0.0748  0.2306  0.1652
 4639SOL    HW114816   6.568   2.015   2.361  0.8952 -0.9397 -0.5285
 4639SOL    HW214817   6.588   2.036   2.522 -0.8183  2.7392 -0.7133
 4640SOL     OW14818   1.919   2.797   3.480  0.2197  0.0303 -0.0596
 4640SOL    HW114819   1.976   2.807   3.561 -0.1885  1.2881  0.0939
 4640SOL    HW214820   1.927   2.704   3.445 -0.8159 -1.0704  2.3464
 4641SOL     OW14821   5.129   4.053   2.908 -0.1228 -0.0413  0.4631
 4641SOL    HW114822   5.035   4.040   2.939 -0.3604  0.4380 -0.0285
 4641SOL    HW214823   5.193   4.028   2.981 -0.5673 -2.2646  0.1484
 4642SOL     OW14824   5.369   5.310   1.804  1.0855  0.1291  0.3183
 4642SOL    HW114825   5.417   5.267   1.880 -0.3884 -0.0707  1.1748
 4642SOL    HW214826   5.314   5.241   1.757  0.8373  0.5446 -0.0076
 4643SOL     OW14827   5.609   5.933   4.925  0.4472 -0.0494  0.1179
 4643SOL    HW114828   5.576   5.845   4.959 -2.6062  0.9983  0.1240
 4643SOL    HW214829   5.623   5.928   4.826  1.8229 -0.9205  0.3258
 4644SOL     OW14830   3.921   5.791   5.557 -0.5235 -0.9597 -0.0692
 4644SOL    HW114831   3.894   5.763   5.650 -1.9787 -0.5034 -0.3218
 4644SOL    HW214832   3.863   5.745   5.491 -1.8560  1.2678 -0.5766
 4645SOL     OW14833   4.264   4.929   6.875  0.3187 -0.2562  0.7290
 4645SOL    HW114834   4.217   5.011   6.843 -0.5936 -1.0272  0.0342
 4645SOL    HW214835   4.199   4.868   6.920  0.5430 -1.5021 -0.5498
 4646SOL     OW14836   0.075   0.956   3.193 -0.3202 -0.0115  0.4212
 4646SOL    HW114837   0.001   0.909   3.240 -0.0934 -0.6135  0.1816
 4646SOL    HW214838   0.087   1.047   3.233  0.0315 -0.5965  1.6882
 4647SOL     OW14839   6.357   0.584   0.316  0.8454  0.1632 -0.6068
 4647SOL    HW114840   6.309   0.552   0.234 -1.1872  1.4486  0.0143
 4647SOL    HW214841   6.292   0.589   0.392  2.3798  0.3725  0.7346
 4648SOL     OW14842   1.171   1.668   3.393 -0.7200  0.5850  0.2588
 4648SOL    HW114843   1.090   1.726   3.386 -1.1655 -0.0888 -0.2129
 4648SOL    HW214844   1.199   1.640   3.301 -0.8289 -0.3941  0.5188
 4649SOL     OW14845   4.454   6.103   1.188  0.4185 -0.5260 -0.3645
 4649SOL    HW114846   4.388   6.116   1.262  0.7499 -0.3652 -0.0902
 4649SOL    HW214847   4.501   6.190   1.171  0.2212 -0.5198 -0.8842
 4650SOL     OW14848   2.040   0.545   3.385 -0.3098  0.0790 -0.1751
 4650SOL    HW114849   2.087   0.518   3.301 -3.3763 -1.3519 -1.5637
 4650SOL    HW214850   1.994   0.633   3.371 -0.1782  0.2312  0.3081
 4651SOL     OW14851   6.754   0.414   4.835 -0.0981 -0.5467  0.1952
 4651SOL    HW114852   6.778   0.465   4.918 -0.6579 -0.4953  0.3276
 4651SOL    HW214853   6.808   0.330   4.831 -0.0318 -0.5239  0.5847
 4652SOL     OW14854   2.304   3.890   0.999  0.4577  0.0676  0.6468
 4652SOL    HW114855   2.384   3.929   0.953  0.2254  1.3451  1.2940
 4652SOL    HW214856   2.236   3.863   0.930 -0.4892  3.2448  0.1658
 4653SOL     OW14857   1.551   6.123   1.582  0.4044 -0.5656 -0.1362
 4653SOL    HW114858   1.612   6.202   1.573 -0.7594  0.5450  1.1836
 4653SOL    HW214859   1.466   6.152   1.627 -0.0896 -2.5577  0.2922
 4654SOL     OW14860   1.075   0.933   1.414  0.1886 -0.0723  0.1272
 4654SOL    HW114861   1.034   1.006   1.359  0.8689 -0.0594 -0.3775
 4654SOL    HW214862   1.004   0.885   1.465 -0.3566  0.4354 -0.1504
 4655SOL     OW14863   0.812   2.232   6.871  0.4629  0.0572  0.5010
 4655SOL    HW114864   0.749   2.172   6.820 -0.7448  1.6556  0.0451
 4655SOL    HW214865   0.873   2.279   6.806  0.5463  0.2819  0.7424
 4656SOL     OW14866   5.723   5.926   5.165  0.0573 -0.0298 -0.3321
 4656SOL    HW114867   5.650   5.967   5.220  0.4459 -0.0172  0.1907
 4656SOL    HW214868   5.698   5.928   5.069 -1.4385 -1.6681 -0.0287
 4657SOL     OW14869   1.751   5.918   6.953 -0.3144 -0.0576 -0.3041
 4657SOL    HW114870   1.666   5.969   6.939  0.4486  1.1152 -0.8176
 4657SOL    HW214871   1.746   5.830   6.906 -0.8097  0.4976 -1.3028
 4658SOL     OW14872   2.476   5.804   1.975 -0.0793 -0.3847 -0.1829
 4658SOL    HW114873   2.474   5.709   1.943 -0.9140 -0.0629 -1.1409
 4658SOL    HW214874   2.453   5.807   2.072 -2.4910 -0.9828 -0.6691
 4659SOL     OW14875   6.885   2.096   3.919  0.0743  0.6627  0.3883
 4659SOL    HW114876   6.802   2.071   3.869  1.1983  0.5416 -1.5043
 4659SOL    HW214877   6.958   2.034   3.895  1.3900  2.2710  0.0533
 4660SOL     OW14878   4.086   6.225   0.055 -0.0552 -0.0211  0.1632
 4660SOL    HW114879   4.150   6.250   0.127  0.5246  0.2316 -0.4265
 4660SOL    HW214880   3.992   6.235   0.088  0.2039  0.2845  0.8142
 4661SOL     OW14881   2.971   3.350   5.306 -0.0785 -0.5067  0.4368
 4661SOL    HW114882   2.950   3.435   5.256  0.0697 -1.5073 -1.4035
 4661SOL    HW214883   2.890   3.292   5.309  0.4873 -1.4081 -0.6554
 4662SOL     OW14884   4.001   0.940   3.908 -0.1726  0.6886 -0.2516
 4662SOL    HW114885   4.100   0.925   3.913 -0.3436 -1.0967 -1.4330
 4662SOL    HW214886   3.958   0.905   3.991  0.1075  0.6740 -0.1107
 4663SOL     OW14887   3.542   3.151   5.404  0.1273  0.3812 -0.0541
 4663SOL    HW114888   3.464   3.139   5.343 -0.7348 -0.8261  1.2210
 4663SOL    HW214889   3.532   3.236   5.455  0.3007  0.8553 -0.7988
 4664SOL     OW14890   3.097   1.416   5.778 -0.3100 -0.1022  0.5778
 4664SOL    HW114891   3.106   1.377   5.870 -1.1436  1.7193  1.4925
 4664SOL    HW214892   3.001   1.411   5.749 -0.0399 -0.7356 -0.2557
 4665SOL     OW14893   5.955   5.863   4.729 -0.0760  0.1311  0.0388
 4665SOL    HW114894   6.021   5.928   4.691  0.4889 -1.1600 -1.2837
 4665SOL    HW214895   5.862   5.898   4.716  0.2060  0.5649 -0.9291
 4666SOL     OW14896   4.756   2.142   3.945  0.5988  0.0541  0.0387
 4666SOL    HW114897   4.687   2.070   3.951  0.9283 -0.3525 -0.8530
 4666SOL    HW214898   4.713   2.231   3.960  0.1822 -0.3162  1.1257
 4667SOL     OW14899   5.954   6.299   6.284 -0.0473 -0.2159  0.4136
 4667SOL    HW114900   5.961   6.213   6.232  0.6089 -0.1671  0.4031
 4667SOL    HW214901   6.043   6.344   6.283 -0.3124  0.3102  0.6910
 4668SOL     OW14902   6.468   1.073   1.874  0.2810 -0.8217  0.3191
 4668SOL    HW114903   6.464   1.016   1.792  1.6525 -0.1283 -0.2601
 4668SOL    HW214904   6.429   1.023   1.952 -1.2755 -1.3958 -0.7899
 4669SOL     OW14905   4.297   2.617   6.958 -0.1821 -0.1391  0.0743
 4669SOL    HW114906   4.225   2.554   6.932 -2.7189  2.0726  1.2164
 4669SOL    HW214907   4.342   2.584   7.041 -1.1851 -0.6505  0.4258
 4670SOL     OW14908   2.121   0.050   4.995 -0.3117 -0.2934  0.0768
 4670SOL    HW114909   2.119  -0.050   5.001 -1.5318 -0.3413 -0.7546
 4670SOL    HW214910   2.028   0.084   4.979  0.1007  0.9773  0.2785
 4671SOL     OW14911   2.539   2.735   0.182 -0.9401 -0.2314 -0.5843
 4671SOL    HW114912   2.510   2.640   0.192  1.1845 -0.8323  0.1884
 4671SOL    HW214913   2.583   2.766   0.266 -1.7119  1.5122 -0.7740
 4672SOL     OW14914   3.179   1.679   5.772  0.3916 -0.4501 -0.0961
 4672SOL    HW114915   3.209   1.700   5.679  1.1431 -1.2879 -0.0630
 4672SOL    HW214916   3.154   1.582   5.777 -0.6764 -0.1652  0.3205
 4673SOL     OW14917   0.636   6.025   3.208  0.2985  0.0870 -0.0729
 4673SOL    HW114918   0.722   6.070   3.234  0.5727  0.5323 -1.6774
 4673SOL    HW214919   0.638   6.003   3.111 -1.4757  0.2389 -0.1715
 4674SOL     OW14920   6.327   2.846   3.341  0.1108  0.1336  0.4238
 4674SOL    HW114921   6.265   2.875   3.414 -2.0785 -0.0659 -1.2488
 4674SOL    HW214922   6.400   2.913   3.332 -1.1496  1.6629  0.9659
 4675SOL     OW14923   4.263   0.423   5.901  0.0955 -0.4621 -0.0708
 4675SOL    HW114924   4.272   0.485   5.979  0.4633 -0.6976  0.0735
 4675SOL    HW214925   4.292   0.470   5.818  3.2950 -1.3201  0.4217
 4676SOL     OW14926   0.848   6.188   2.327 -0.4030 -0.3484 -0.2583
 4676SOL    HW114927   0.888   6.231   2.246  1.0763 -0.6960  0.2603
 4676SOL    HW214928   0.754   6.220   2.338  0.1959  1.7110 -0.6529
 4677SOL     OW14929   4.649   0.276   5.657  0.3099  0.1783 -0.0793
 4677SOL    HW114930   4.550   0.260   5.660  0.5596 -1.6284  0.1065
 4677SOL    HW214931   4.681   0.265   5.562  0.3613  0.5227 -0.1006
 4678SOL     OW14932   5.391   4.767   1.350 -0.1703 -0.1886 -0.6880
 4678SOL    HW114933   5.423   4.860   1.335 -0.7848  0.1569  0.0753
 4678SOL    HW214934   5.388   4.719   1.262 -0.9379  0.8718 -1.2717
 4679SOL     OW14935   2.218   2.803   3.635  0.3621 -0.0564 -0.1777
 4679SOL    HW114936   2.233   2.901   3.644  2.7692 -0.4565  1.0058
 4679SOL    HW214937   2.153   2.772   3.705 -1.9314  0.8981 -1.7552
 4680SOL     OW14938   6.067   3.147   3.104 -0.1687 -0.4082 -0.3742
 4680SOL    HW114939   6.023   3.058   3.090  0.0247 -0.5540 -0.0558
 4680SOL    HW214940   5.996   3.218   3.109 -0.3936 -0.6811  0.4322
 4681SOL     OW14941   1.678   3.152   2.931 -0.2217  0.0414 -0.4187
 4681SOL    HW114942   1.747   3.173   3.001  0.2308 -1.9731 -0.2012
 4681SOL    HW214943   1.593   3.201   2.952  0.8035  1.8232 -0.1656
 4682SOL     OW14944   2.305   2.773   5.768 -0.1801 -0.0524 -0.1566
 4682SOL    HW114945   2.272   2.831   5.694  0.8748 -0.2245 -0.7923
 4682SOL    HW214946   2.237   2.769   5.841 -1.9712 -1.1922 -1.8031
 4683SOL     OW14947   1.679   0.084   6.065  0.1749  0.1523  0.3663
 4683SOL    HW114948   1.623   0.006   6.092 -1.5934  1.2368 -0.0268
 4683SOL    HW214949   1.770   0.076   6.106 -0.3632 -1.4714  1.3196
 4684SOL     OW14950   2.270   0.852   3.360  0.4622  1.0029  0.3783
 4684SOL    HW114951   2.233   0.884   3.273 -0.6075  1.9267  1.1351
 4684SOL    HW214952   2.349   0.793   3.343 -0.7194 -0.2069 -1.2718
 4685SOL     OW14953   3.512   3.192   4.017  0.6186 -0.2629  0.1156
 4685SOL    HW114954   3.428   3.178   3.965  1.3677 -0.2902 -1.1453
 4685SOL    HW214955   3.548   3.103   4.045  0.8770 -0.3370 -0.4373
 4686SOL     OW14956   3.465   1.033   0.757 -0.0223  0.3970  0.1158
 4686SOL    HW114957   3.501   0.944   0.786 -2.1933 -1.3730 -2.1903
 4686SOL    HW214958   3.390   1.060   0.817  0.0521  0.2418  0.2810
 4687SOL     OW14959   0.152   2.112   3.465  0.8024 -0.6564 -0.0951
 4687SOL    HW114960   0.249   2.133   3.467  1.1364 -1.9565 -1.3732
 4687SOL    HW214961   0.123   2.094   3.371 -0.4741 -1.1702  0.3666
 4688SOL     OW14962   6.452   3.971   2.716  0.5070  0.0240  0.5470
 4688SOL    HW114963   6.387   4.038   2.679 -0.1619 -1.1735 -0.5122
 4688SOL    HW214964   6.487   4.004   2.803  1.9409  2.8586 -0.9524
 4689SOL     OW14965   4.901   0.266   5.103  0.0622 -0.5073 -0.3206
 4689SOL    HW114966   4.836   0.195   5.130 -0.5250 -0.5805 -1.7980
 4689SOL    HW214967   4.985   0.258   5.157 -0.2167 -1.9673 -0.0743
 4690SOL     OW14968   1.815   0.129   0.470 -0.3819 -0.1234  0.1516
 4690SOL    HW114969   1.824   0.192   0.392  0.4580 -0.4313 -0.0163
 4690SOL    HW214970   1.876   0.159   0.543 -2.7252  1.4171  1.5850
 4691SOL     OW14971   5.522   0.087   6.133 -0.5457  0.6808  0.0461
 4691SOL    HW114972   5.494   0.108   6.227  2.0286  3.8228  0.2727
 4691SOL    HW214973   5.455   0.126   6.069 -1.7584 -0.5766  0.4792
 4692SOL     OW14974   2.610   2.023   2.991 -0.5129 -0.4051 -0.0416
 4692SOL    HW114975   2.560   2.110   2.991 -0.8581 -0.5854  1.1009
 4692SOL    HW214976   2.665   2.016   3.075  1.8254 -0.0189 -1.4671
 4693SOL     OW14977   0.096   5.418   2.068  0.0700  0.5753 -0.5755
 4693SOL    HW114978   0.002   5.419   2.033 -0.6921  0.9220  1.3373
 4693SOL    HW214979   0.142   5.503   2.041 -0.2001  0.4804 -1.3747
 4694SOL     OW14980   5.149   5.807   5.700  0.2960  0.2375  0.0748
 4694SOL    HW114981   5.245   5.825   5.723  0.3185 -0.4551  0.5508
 4694SOL    HW214982   5.113   5.736   5.760 -0.3878  0.1720 -0.4005
 4695SOL     OW14983   6.969   3.146   3.255 -0.2109 -0.2678 -0.0071
 4695SOL    HW114984   6.879   3.175   3.287 -0.4057 -0.9082  0.0299
 4695SOL    HW214985   6.964   3.116   3.160  0.3985  1.7607 -0.7292
 4696SOL     OW14986   6.733   4.110   6.980 -0.0846  0.1928 -0.4482
 4696SOL    HW114987   6.804   4.064   7.033  0.4180  0.7711 -0.6082
 4696SOL    HW214988   6.751   4.208   6.978 -1.1204  0.4039 -0.1440
 4697SOL     OW14989   0.322   2.286   3.961  0.1177 -0.4976 -0.3845
 4697SOL    HW114990   0.242   2.345   3.961  1.0874  0.8994 -1.4901
 4697SOL    HW214991   0.340   2.254   3.868 -0.1771 -2.2961  0.1346
 4698SOL     OW14992   5.246   0.247   4.850  0.1269  0.0672 -0.2723
 4698SOL    HW114993   5.287   0.334   4.874  0.7344  0.1833 -1.6341
 4698SOL    HW214994   5.171   0.226   4.913  0.2837  1.3315  0.3525
 4699SOL     OW14995   5.057   4.797   1.947  0.5156 -0.6650  0.0878
 4699SOL    HW114996   5.052   4.735   2.026  1.3953  0.0236  0.7052
 4699SOL    HW214997   5.145   4.843   1.947  0.3629 -0.3546 -1.0895
 4700SOL     OW14998   3.633   0.462   6.030 -0.2277  0.1174  0.0777
 4700SOL    HW114999   3.679   0.525   6.093  0.7927 -1.5117  1.0282
 4700SOL    HW215000   3.543   0.498   6.007  0.3859  2.0072  0.4296
 4701SOL     OW15001   0.962   2.511   4.224  0.0917 -0.2262  0.3898
 4701SOL    HW115002   1.046   2.566   4.228 -0.0217  0.0097 -0.2646
 4701SOL    HW215003   0.960   2.448   4.301  0.1848  0.7508  1.2062
 4702SOL     OW15004   5.131   3.974   6.341  0.0541  0.2365  0.4745
 4702SOL    HW115005   5.062   4.001   6.275  0.9243 -0.5992 -0.8226
 4702SOL    HW215006   5.219   4.014   6.316  0.3574  0.0655  1.2334
 4703SOL     OW15007   6.739   1.345   3.954  0.0435 -0.6124 -0.1641
 4703SOL    HW115008   6.662   1.288   3.982 -0.4425  0.2027  0.2265
 4703SOL    HW215009   6.822   1.290   3.948 -0.1903 -1.1664  1.2583
 4704SOL     OW15010   1.843   6.812   1.935 -0.2619 -0.3153 -0.5200
 4704SOL    HW115011   1.800   6.772   1.854 -1.9163  0.6156 -0.1503
 4704SOL    HW215012   1.878   6.903   1.912 -0.4561 -0.1784 -0.2842
 4705SOL     OW15013   3.674   2.148   6.590 -0.0164  0.1740  0.2289
 4705SOL    HW115014   3.657   2.145   6.492 -0.2827 -1.3776  0.2976
 4705SOL    HW215015   3.652   2.239   6.626 -1.2831  0.3275 -0.8913
 4706SOL     OW15016   1.527   5.887   1.471  0.4474  0.5220 -0.2454
 4706SOL    HW115017   1.527   5.981   1.507 -1.1276  0.2829  0.4760
 4706SOL    HW215018   1.484   5.886   1.381 -1.3472  0.2642  0.5648
 4707SOL     OW15019   4.048   5.847   2.100  0.0144  0.4806  0.4698
 4707SOL    HW115020   4.091   5.830   2.189  1.3001 -0.7243 -0.3431
 4707SOL    HW215021   3.964   5.794   2.092  0.8537 -0.8674  0.2894
 4708SOL     OW15022   3.203   4.167   1.276  0.1173  0.4248 -0.8371
 4708SOL    HW115023   3.150   4.245   1.310 -0.3777  0.0988 -0.8525
 4708SOL    HW215024   3.300   4.191   1.275  0.2016  0.3111  1.1606
 4709SOL     OW15025   5.668   4.309   1.989  0.1786 -0.0346 -0.0113
 4709SOL    HW115026   5.583   4.297   1.938 -1.2914 -0.9414  2.4783
 4709SOL    HW215027   5.731   4.234   1.969  0.0526  0.1389 -1.1473
 4710SOL     OW15028   0.799   6.709   0.958  0.6493  0.0217 -0.8029
 4710SOL    HW115029   0.813   6.636   0.892  0.8488  2.0840 -3.1803
 4710SOL    HW215030   0.875   6.773   0.954 -1.0523  2.1160 -1.2215
 4711SOL     OW15031   1.131   6.872   3.800  0.2549  0.0895 -0.1164
 4711SOL    HW115032   1.217   6.906   3.763  0.2132 -1.3472 -1.6284
 4711SOL    HW215033   1.058   6.938   3.780  0.2089 -0.6606 -2.8328
 4712SOL     OW15034   2.025   3.008   6.700  0.5748  0.1832  0.3417
 4712SOL    HW115035   1.953   2.954   6.744  1.4058 -0.4898  0.8967
 4712SOL    HW215036   2.031   2.983   6.603  2.1486 -2.0857  0.9609
 4713SOL     OW15037   3.700   4.661   1.485  0.2798  0.0600  0.6129
 4713SOL    HW115038   3.620   4.714   1.514 -1.5533 -1.2716 -1.7048
 4713SOL    HW215039   3.698   4.650   1.386  3.8889  0.7244  0.3243
 4714SOL     OW15040   1.932   1.432   4.298 -0.3523 -0.4383  0.3418
 4714SOL    HW115041   1.974   1.523   4.295 -1.1399 -0.0797  0.0320
 4714SOL    HW215042   1.993   1.369   4.345  0.7369 -0.0336 -0.4955
 4715SOL     OW15043   4.041   5.926   5.171 -0.3704  0.1176 -0.0286
 4715SOL    HW115044   4.096   5.847   5.197 -1.7815 -1.3500 -1.3083
 4715SOL    HW215045   3.984   5.954   5.248 -1.4012 -1.4841 -0.1652
 4716SOL     OW15046   0.918   1.714   2.799  0.0301  0.4923  0.3168
 4716SOL    HW115047   0.867   1.628   2.806  0.6032  0.1398  0.2237
 4716SOL    HW215048   0.858   1.784   2.761  0.2297 -0.4974 -2.0166
 4717SOL     OW15049   2.383   2.711   5.487 -0.2037 -0.8653 -0.3091
 4717SOL    HW115050   2.288   2.679   5.486 -0.2404 -0.8446 -2.2834
 4717SOL    HW215051   2.421   2.704   5.394  1.8097 -1.1073  0.4849
 4718SOL     OW15052   2.912   0.444   3.916  0.1579  0.1546 -0.2321
 4718SOL    HW115053   2.936   0.513   3.848  1.1456  1.7029  1.5959
 4718SOL    HW215054   2.813   0.439   3.925  0.0237  2.9483  1.0452
 4719SOL     OW15055   5.218   0.835   0.072  0.1884  0.3949  0.4483
 4719SOL    HW115056   5.197   0.833   0.170  1.3604 -0.7954  0.7070
 4719SOL    HW215057   5.182   0.752   0.029 -0.4634  0.9927 -0.1640
 4720SOL     OW15058   1.399   5.655   5.544  0.1145 -0.2872  0.0479
 4720SOL    HW115059   1.357   5.662   5.634  2.0984 -0.0003  1.0088
 4720SOL    HW215060   1.486   5.605   5.552  0.0684 -0.7269 -1.8017
 4721SOL     OW15061   3.745   3.790   6.647  0.0956  0.0861 -0.1593
 4721SOL    HW115062   3.717   3.784   6.743  1.9526  1.3808  0.4985
 4721SOL    HW215063   3.747   3.886   6.618 -1.8022 -0.3289 -1.9748
 4722SOL     OW15064   5.315   0.721   4.777 -0.4371  0.2724  1.0845
 4722SOL    HW115065   5.388   0.784   4.803  1.4712 -1.2597 -0.1858
 4722SOL    HW215066   5.242   0.723   4.845  0.6155  2.1355  2.2307
 4723SOL     OW15067   5.753   6.228   4.546 -0.1056 -0.0223 -0.9142
 4723SOL    HW115068   5.808   6.175   4.482  0.7591 -1.5903  1.0180
 4723SOL    HW215069   5.757   6.325   4.522 -0.1172 -0.5706 -3.3769
 4724SOL     OW15070   3.097   6.011   5.811 -0.7969  0.3191 -0.3488
 4724SOL    HW115071   3.124   5.925   5.767  0.9211  0.5196  0.2149
 4724SOL    HW215072   3.045   6.067   5.747  0.0677 -0.1678 -1.5127
 4725SOL     OW15073   5.366   5.831   0.836  0.3621  0.1969  0.0388
 4725SOL    HW115074   5.358   5.930   0.826 -0.4211  0.0553 -0.8212
 4725SOL    HW215075   5.427   5.795   0.764  1.2081  0.1228  0.7690
 4726SOL     OW15076   3.759   3.384   6.575  0.2895 -0.1564  0.1608
 4726SOL    HW115077   3.788   3.290   6.559 -0.6123 -0.6817  1.4746
 4726SOL    HW215078   3.836   3.436   6.614  0.7239 -0.4025 -0.3611
 4727SOL     OW15079   5.193   1.016   6.136 -0.2203  0.4010  0.1276
 4727SOL    HW115080   5.272   1.063   6.096 -0.2864  0.8749  0.5526
 4727SOL    HW215081   5.173   0.934   6.082  1.6236 -0.6811  1.0091
 4728SOL     OW15082   2.228   5.690   4.843  0.1071 -0.2207  0.0525
 4728SOL    HW115083   2.221   5.662   4.939 -0.5279  0.5352  0.2304
 4728SOL    HW215084   2.307   5.750   4.832 -0.5519  0.7232  0.3637
 4729SOL     OW15085   5.189   0.359   0.365 -0.0628  0.5209  0.3782
 4729SOL    HW115086   5.214   0.262   0.372  1.4744  0.9222  0.9993
 4729SOL    HW215087   5.270   0.412   0.339 -0.8757  1.6502  0.0973
 4730SOL     OW15088   4.069   1.160   2.955  0.4116  0.1926 -0.2171
 4730SOL    HW115089   4.086   1.187   2.860 -1.1912  1.1652 -0.2651
 4730SOL    HW215090   3.983   1.200   2.986  0.7225 -0.4194  1.5431
 4731SOL     OW15091   6.996   1.882   5.883  0.4449  0.2581 -0.3670
 4731SOL    HW115092   7.083   1.842   5.913  0.3836 -1.3603 -2.1078
 4731SOL    HW215093   7.013   1.969   5.837  1.0948  0.2360 -0.1700
 4732SOL     OW15094   1.539   2.238   3.843  0.5275 -0.3869 -0.4091
 4732SOL    HW115095   1.532   2.334   3.867  0.4554 -0.3175 -0.7039
 4732SOL    HW215096   1.557   2.184   3.925  0.4755 -0.1331 -0.2312
 4733SOL     OW15097   1.036   3.356   0.588 -0.4853 -0.3121 -0.3509
 4733SOL    HW115098   0.984   3.342   0.503 -0.4904 -0.8054 -0.2665
 4733SOL    HW215099   1.109   3.288   0.594 -0.3147 -0.1070 -0.0888
 4734SOL     OW15100   2.160   2.733   4.063 -0.0145  0.0694 -0.8016
 4734SOL    HW115101   2.240   2.676   4.078 -0.3177 -0.2475 -0.3735
 4734SOL    HW215102   2.077   2.677   4.067 -0.3393  0.5916 -0.0423
 4735SOL     OW15103   4.203   3.579   6.873 -0.2506 -0.0440 -0.2911
 4735SOL    HW115104   4.191   3.657   6.812  0.1261  0.5178  0.3453
 4735SOL    HW215105   4.115   3.530   6.882 -1.2326  1.8835  1.4199
 4736SOL     OW15106   3.459   5.750   0.424 -0.0401 -0.6141 -0.0445
 4736SOL    HW115107   3.372   5.785   0.459 -0.3240 -0.2584 -1.0691
 4736SOL    HW215108   3.442   5.696   0.342  0.7971  0.3288 -0.8598
 4737SOL     OW15109   1.883   5.011   1.477  0.6977  0.5328 -0.0924
 4737SOL    HW115110   1.901   5.106   1.506 -1.1545  0.7637  0.4239
 4737SOL    HW215111   1.819   4.969   1.541  1.1383 -0.9330 -0.5930
 4738SOL     OW15112   1.558   6.552   5.502  0.5125  0.1018 -0.2313
 4738SOL    HW115113   1.620   6.628   5.485  1.0310 -0.0710  0.8160
 4738SOL    HW215114   1.519   6.520   5.415 -0.1570  1.9212 -0.6400
 4739SOL     OW15115   4.188   0.736   0.258 -0.1297 -0.4064  0.2045
 4739SOL    HW115116   4.220   0.821   0.216 -2.0962 -1.2130 -3.3805
 4739SOL    HW215117   4.089   0.728   0.246 -0.5377 -1.7503  3.4484
 4740SOL     OW15118   6.392   3.752   6.038 -0.1803 -0.0503 -0.3898
 4740SOL    HW115119   6.475   3.802   6.013  0.8157 -0.5884  1.6155
 4740SOL    HW215120   6.353   3.792   6.121 -0.4000 -1.4450  0.2043
 4741SOL     OW15121   4.585   6.197   6.872  0.5853  0.1086  0.0208
 4741SOL    HW115122   4.621   6.109   6.902  2.8267  0.9810  0.0993
 4741SOL    HW215123   4.560   6.192   6.776  0.3924 -0.7010  0.1105
 4742SOL     OW15124   4.435   4.660   0.943  0.4954  0.0142 -0.2734
 4742SOL    HW115125   4.489   4.689   1.022 -1.7178  2.0870  0.5848
 4742SOL    HW215126   4.371   4.588   0.971  0.0311  0.4194 -0.2915
 4743SOL     OW15127   2.076   6.855   5.371  0.6337  0.4724  0.5966
 4743SOL    HW115128   2.105   6.817   5.458  2.0813 -0.7422 -0.3645
 4743SOL    HW215129   1.994   6.807   5.339 -0.0763  1.1170  1.3747
 4744SOL     OW15130   6.911   1.810   3.182  0.4490 -0.0458 -0.1320
 4744SOL    HW115131   6.995   1.769   3.146  0.1400 -0.4437 -0.4058
 4744SOL    HW215132   6.832   1.764   3.142  0.0988 -0.2559  0.7810
 4745SOL     OW15133   3.358   1.870   6.818  0.2153  0.2449  0.1466
 4745SOL    HW115134   3.392   1.785   6.856  0.5170 -0.1144 -0.9066
 4745SOL    HW215135   3.385   1.878   6.722 -1.0231  0.8556 -0.1772
 4746SOL     OW15136   3.759   0.872   2.984  0.0487  0.1672 -0.1451
 4746SOL    HW115137   3.741   0.922   3.069 -0.7629 -0.3718  0.0051
 4746SOL    HW215138   3.692   0.899   2.915  0.6788  0.5707 -0.6119
 4747SOL     OW15139   0.528   6.683   0.450  0.0544  0.1772  0.2088
 4747SOL    HW115140   0.509   6.617   0.377 -1.0899  0.4494  0.2480
 4747SOL    HW215141   0.450   6.745   0.460  0.2824  0.2671  1.5331
 4748SOL     OW15142   5.748   2.907   1.293 -0.3839  0.3126 -0.2449
 4748SOL    HW115143   5.835   2.879   1.335 -0.5518 -1.3061 -0.8906
 4748SOL    HW215144   5.708   2.981   1.347  0.1860 -0.5991  1.5319
 4749SOL     OW15145   6.744   2.812   5.637  0.1186 -0.1797  0.2495
 4749SOL    HW115146   6.697   2.853   5.559 -1.9153 -0.7342  1.1233
 4749SOL    HW215147   6.713   2.855   5.721 -0.0293 -1.6523  0.9768
 4750SOL     OW15148   4.684   4.129   5.845 -0.2999  0.1018  0.1825
 4750SOL    HW115149   4.629   4.212   5.838 -0.0001  0.4250  1.5520
 4750SOL    HW215150   4.781   4.153   5.855 -0.2899 -0.3724  1.4099
 4751SOL     OW15151   5.100   2.089   2.536  0.0882 -0.2126  0.4919
 4751SOL    HW115152   5.020   2.147   2.523 -0.0329 -0.5852 -0.5875
 4751SOL    HW215153   5.134   2.099   2.629 -2.4637 -1.6137  1.6762
 4752SOL     OW15154   1.978   4.516   4.840 -0.0239  0.3350  0.2107
 4752SOL    HW115155   1.978   4.551   4.934  2.6759 -1.1350  0.8807
 4752SOL    HW215156   2.071   4.486   4.816 -0.9797 -0.8845 -2.3511
 4753SOL     OW15157   4.229   6.816   4.354  0.1051 -0.0261 -0.3902
 4753SOL    HW115158   4.297   6.797   4.283  0.5887 -1.9093  0.5206
 4753SOL    HW215159   4.139   6.822   4.312  0.3661 -1.2119 -1.1740
 4754SOL     OW15160   4.119   6.858   3.867 -0.6217 -0.5668  0.2551
 4754SOL    HW115161   4.096   6.808   3.783 -2.3802 -2.4633  1.7420
 4754SOL    HW215162   4.207   6.825   3.902 -1.1608 -1.7692  0.5389
 4755SOL     OW15163   2.170   5.766   1.788 -0.3461  0.5541  0.0416
 4755SOL    HW115164   2.239   5.803   1.725 -0.3169 -0.6684 -0.6825
 4755SOL    HW215165   2.180   5.808   1.878  0.2774  1.5905 -0.4999
 4756SOL     OW15166   6.856   6.138   1.895 -0.1891  0.1286  0.1754
 4756SOL    HW115167   6.849   6.233   1.865 -0.4353  0.3810  0.9966
 4756SOL    HW215168   6.904   6.134   1.983 -0.0090 -0.5226  0.0535
 4757SOL     OW15169   6.395   1.904   5.862 -0.0635 -0.4776 -0.1986
 4757SOL    HW115170   6.429   1.995   5.835 -1.8639  0.0976 -0.6658
 4757SOL    HW215171   6.470   1.838   5.858  1.3895  1.0459  0.5329
 4758SOL     OW15172   6.240   6.534   3.792  0.0811 -0.2132  0.2907
 4758SOL    HW115173   6.160   6.524   3.733  0.5183 -1.7513 -0.1077
 4758SOL    HW215174   6.210   6.557   3.885 -0.8692 -1.1754  0.2482
 4759SOL     OW15175   0.978   2.768   1.347  0.4305 -0.1611 -0.0015
 4759SOL    HW115176   1.058   2.827   1.339  0.1634  0.1347 -0.5458
 4759SOL    HW215177   1.007   2.676   1.372  0.9494 -0.0857 -0.3068
 4760SOL     OW15178   2.414   1.174   1.010 -0.5128 -0.0434  0.2299
 4760SOL    HW115179   2.322   1.164   1.047 -0.3948  0.9057  0.8007
 4760SOL    HW215180   2.461   1.248   1.057  0.5880 -0.5922  0.0313
 4761SOL     OW15181   1.904   3.462   6.907  0.6054  0.1989 -0.1819
 4761SOL    HW115182   1.926   3.439   7.002 -0.9795 -1.4178 -0.1550
 4761SOL    HW215183   1.811   3.499   6.902 -0.2003 -1.8414 -1.3349
 4762SOL     OW15184   2.504   1.637   3.546 -0.5533 -0.7483  0.0155
 4762SOL    HW115185   2.561   1.575   3.601 -1.1453 -1.5166 -0.2296
 4762SOL    HW215186   2.508   1.610   3.450  0.6034  0.6904 -0.3702
 4763SOL     OW15187   7.000   1.066   0.647 -0.0670 -0.0472 -0.5443
 4763SOL    HW115188   6.949   1.136   0.696 -1.1000 -1.7288  0.9089
 4763SOL    HW215189   7.097   1.091   0.644 -0.4578  1.5602 -0.3268
 4764SOL     OW15190   4.131   4.190   1.008  0.2078  0.5733  0.2874
 4764SOL    HW115191   4.168   4.108   1.052  0.9915 -0.0324 -1.3936
 4764SOL    HW215192   4.066   4.234   1.069 -0.0875 -1.1986  1.3344
 4765SOL     OW15193   3.690   4.403   5.403  0.0945  0.2907 -0.1758
 4765SOL    HW115194   3.772   4.449   5.368  0.3539  1.2212  1.5477
 4765SOL    HW215195   3.713   4.350   5.485 -1.0640  0.8771  0.5658
 4766SOL     OW15196   1.309   0.375   4.052 -0.2004  0.0079 -0.7360
 4766SOL    HW115197   1.345   0.468   4.042 -0.8721  0.2599 -0.8606
 4766SOL    HW215198   1.331   0.322   3.970  2.4251 -0.7473  0.3323
 4767SOL     OW15199   1.833   0.751   3.630  0.0199 -0.3657  0.6059
 4767SOL    HW115200   1.859   0.758   3.533  0.3260  0.5771  0.7367
 4767SOL    HW215201   1.738   0.722   3.637 -0.0526 -0.2927  0.0135
 4768SOL     OW15202   5.857   2.605   2.811 -0.9929 -0.7570  0.6961
 4768SOL    HW115203   5.928   2.664   2.772 -1.3305 -1.3944 -0.9484
 4768SOL    HW215204   5.856   2.517   2.763 -2.4334 -1.0191  1.1595
 4769SOL     OW15205   2.093   4.684   6.840  0.0364  0.1536  0.5990
 4769SOL    HW115206   2.031   4.670   6.763  0.2309 -0.8184  0.6117
 4769SOL    HW215207   2.060   4.761   6.896 -0.3929  0.5272 -0.1496
 4770SOL     OW15208   1.181   4.672   0.001 -0.1598  0.2399  0.0597
 4770SOL    HW115209   1.111   4.698  -0.066  0.1882  1.2194  0.0511
 4770SOL    HW215210   1.251   4.743   0.004  1.0880 -0.9446 -0.2689
 4771SOL     OW15211   4.259   3.522   1.144 -0.0441 -0.6837 -0.2162
 4771SOL    HW115212   4.191   3.581   1.189 -0.5241  0.6979 -2.5647
 4771SOL    HW215213   4.299   3.460   1.212 -1.2926  0.6648  1.8939
 4772SOL     OW15214   0.691   1.163   0.835  0.0269  0.5372 -0.8072
 4772SOL    HW115215   0.677   1.146   0.738 -1.1027  0.4594 -0.6435
 4772SOL    HW215216   0.604   1.188   0.877  0.6543  1.3886  0.0253
 4773SOL     OW15217   2.017   5.998   0.456 -0.0350  0.2110  0.4853
 4773SOL    HW115218   2.039   5.916   0.404  1.1580  0.8711 -0.0825
 4773SOL    HW215219   1.924   5.990   0.492 -0.4164 -0.8114 -0.6571
 4774SOL     OW15220   1.947   4.558   5.129 -0.5014  0.3373 -0.4082
 4774SOL    HW115221   2.045   4.572   5.138 -0.6225  1.5759 -0.9001
 4774SOL    HW215222   1.914   4.500   5.204  0.6584 -0.4541 -0.4810
 4775SOL     OW15223   2.695   2.624   5.240  0.3818  0.1059 -0.2891
 4775SOL    HW115224   2.788   2.634   5.276  0.3037 -0.6324  0.1339
 4775SOL    HW215225   2.677   2.528   5.221  0.2255  0.4209 -1.8114
 4776SOL     OW15226   0.507   6.592   0.961 -0.1774 -0.3534 -0.0157
 4776SOL    HW115227   0.466   6.608   0.871  0.6449 -0.2711 -0.3861
 4776SOL    HW215228   0.583   6.655   0.975  0.7778 -1.4765  0.0304
 4777SOL     OW15229   0.081   3.471   0.005 -0.3628  0.2598  0.3987
 4777SOL    HW115230   0.159   3.492   0.064  0.9835  0.3985 -1.3331
 4777SOL    HW215231   0.004   3.442   0.060  1.1408 -0.6153  2.1493
 4778SOL     OW15232   5.913   4.902   5.694  0.1398  0.1763 -0.2004
 4778SOL    HW115233   5.959   4.923   5.781  1.1123 -1.1887 -0.3619
 4778SOL    HW215234   5.975   4.852   5.635 -0.7061  0.6075 -1.4917
 4779SOL     OW15235   0.214   1.799   5.953 -0.1042 -0.6995 -0.0631
 4779SOL    HW115236   0.281   1.783   5.881  1.7052  2.9613  0.5874
 4779SOL    HW215237   0.247   1.763   6.040  1.2782  1.2559  0.2946
 4780SOL     OW15238   0.398   6.227   0.732  0.4120 -0.4848 -0.6290
 4780SOL    HW115239   0.335   6.181   0.795 -2.1796  2.3564 -0.8837
 4780SOL    HW215240   0.470   6.272   0.784 -1.4773  1.5113  0.4423
 4781SOL     OW15241   6.357   6.853   3.080  0.4026 -0.6585  0.0163
 4781SOL    HW115242   6.272   6.824   3.036 -0.1755  1.2391 -0.2371
 4781SOL    HW215243   6.434   6.838   3.019 -0.0732 -0.2798 -0.6898
 4782SOL     OW15244   1.158   4.776   1.070  0.1506  0.5040 -0.1266
 4782SOL    HW115245   1.140   4.874   1.058  0.0624  0.3062 -1.8038
 4782SOL    HW215246   1.072   4.725   1.060  0.4975  0.1114 -1.2623
 4783SOL     OW15247   0.578   5.754   1.384  0.0480  0.1315  0.2305
 4783SOL    HW115248   0.586   5.721   1.479  1.2057  0.7485  0.3722
 4783SOL    HW215249   0.482   5.757   1.358 -0.9269  4.5465  3.0999
 4784SOL     OW15250   3.000   1.265   4.778  0.1242 -0.5465 -0.7080
 4784SOL    HW115251   2.970   1.214   4.698 -0.3882 -0.0015 -0.8747
 4784SOL    HW215252   3.031   1.356   4.750 -0.8647 -0.0332 -0.2092
 4785SOL     OW15253   2.848   6.205   5.981 -0.1651  0.1874 -0.2395
 4785SOL    HW115254   2.939   6.182   6.016 -0.6545  0.5727  1.3688
 4785SOL    HW215255   2.822   6.141   5.909  0.8545 -0.6946  0.1591
 4786SOL     OW15256   4.148   2.293   1.434 -0.6716 -0.3457  0.1666
 4786SOL    HW115257   4.158   2.238   1.351 -0.9458 -2.6514  1.5849
 4786SOL    HW215258   4.083   2.249   1.495  0.9808  0.2259  2.4468
 4787SOL     OW15259   0.435   0.234   4.866 -0.6724  0.1501 -0.3013
 4787SOL    HW115260   0.454   0.150   4.917  1.2990  0.8875  0.2887
 4787SOL    HW215261   0.510   0.299   4.881 -2.4368  2.2617 -0.2259
 4788SOL     OW15262   2.952   2.431   0.194  0.5509  0.0062 -0.3661
 4788SOL    HW115263   2.909   2.405   0.107  1.8875 -0.0649 -1.0278
 4788SOL    HW215264   2.899   2.505   0.236  0.5399  0.8823 -1.8473
 4789SOL     OW15265   2.245   5.468   1.720 -0.0796 -0.0160  0.1184
 4789SOL    HW115266   2.341   5.444   1.736 -0.3507 -1.1998  0.0664
 4789SOL    HW215267   2.235   5.568   1.718  1.0545  0.1215  0.6650
 4790SOL     OW15268   6.185   6.322   2.358 -0.2455  0.4287  0.1667
 4790SOL    HW115269   6.184   6.421   2.343 -2.5918  0.2788 -1.1662
 4790SOL    HW215270   6.100   6.282   2.323  1.7730 -2.4741 -1.8975
 4791SOL     OW15271   1.574   1.057   2.396 -0.1161 -0.2433 -0.4019
 4791SOL    HW115272   1.505   0.986   2.411 -1.4589  0.9712 -0.7139
 4791SOL    HW215273   1.579   1.078   2.298  0.6465 -0.2360 -0.3720
 4792SOL     OW15274   1.710   2.763   2.274 -0.2245  0.1334 -1.0004
 4792SOL    HW115275   1.745   2.805   2.190  0.8857  0.6182 -0.3235
 4792SOL    HW215276   1.767   2.791   2.351 -1.5910  0.2146  0.0270
 4793SOL     OW15277   1.867   4.965   6.424  0.0565  1.0786 -0.3239
 4793SOL    HW115278   1.893   5.061   6.416 -1.6914  1.7370  1.2914
 4793SOL    HW215279   1.924   4.920   6.492 -0.5913  1.5644  0.5498
 4794SOL     OW15280   3.215   4.246   1.737 -0.1172  0.9659  0.1025
 4794SOL    HW115281   3.279   4.186   1.784 -0.5331 -0.0934 -0.6596
 4794SOL    HW215282   3.227   4.340   1.771 -1.2666  0.0803  3.2389
 4795SOL     OW15283   0.739   2.717   6.669 -0.1991  0.3674  0.2953
 4795SOL    HW115284   0.729   2.669   6.581 -1.0978  0.2440  0.4561
 4795SOL    HW215285   0.803   2.667   6.727 -0.4912 -0.1900  0.1466
 4796SOL     OW15286   4.958   3.702   2.476  0.0338 -0.1534 -0.1793
 4796SOL    HW115287   5.051   3.690   2.441  0.3112 -0.1634  0.5467
 4796SOL    HW215288   4.930   3.621   2.528  0.1167  0.3705  0.7038
 4797SOL     OW15289   4.419   2.101   5.345  0.0167  0.3025 -0.0427
 4797SOL    HW115290   4.391   2.161   5.271 -0.1832  0.0407 -0.1829
 4797SOL    HW215291   4.337   2.066   5.392  0.1227 -0.0212 -0.0952
 4798SOL     OW15292   0.428   4.701   4.808  0.0414 -0.3820  0.1621
 4798SOL    HW115293   0.461   4.611   4.780  1.9758  0.4100 -0.2453
 4798SOL    HW215294   0.442   4.712   4.907  1.7368  0.1972 -0.1113
 4799SOL     OW15295   2.696   6.769   6.253  0.1994 -0.1601  0.2202
 4799SOL    HW115296   2.705   6.802   6.159  1.0913 -1.5899 -0.2207
 4799SOL    HW215297   2.772   6.708   6.275 -0.9245 -1.2322  1.2781
 4800SOL     OW15298   2.009   5.964   5.955  0.3482 -0.3622  0.2610
 4800SOL    HW115299   1.953   5.987   6.035 -0.4777  1.9094 -0.8775
 4800SOL    HW215300   2.087   6.027   5.950 -0.0547  0.0659 -1.1180
 4801SOL     OW15301   2.833   1.900   1.410  0.5700  0.3834  0.2272
 4801SOL    HW115302   2.913   1.913   1.352  1.1612  0.6602  1.0823
 4801SOL    HW215303   2.820   1.981   1.468 -1.0712  0.8781 -0.7618
 4802SOL     OW15304   1.604   4.613   3.404 -0.4801  0.6187  0.6148
 4802SOL    HW115305   1.675   4.617   3.474 -0.6185  2.4021  0.6992
 4802SOL    HW215306   1.514   4.615   3.447 -0.6153 -1.2007  0.4878
 4803SOL     OW15307   4.192   0.904   1.157 -0.1468  0.0437 -0.2847
 4803SOL    HW115308   4.266   0.903   1.224 -0.0011  0.2072 -0.4440
 4803SOL    HW215309   4.136   0.986   1.170 -0.8769 -0.5503  0.4632
 4804SOL     OW15310   0.804   0.654   3.902 -0.2872 -0.2101 -0.0572
 4804SOL    HW115311   0.870   0.607   3.843 -0.8909 -0.8833 -0.2121
 4804SOL    HW215312   0.846   0.672   3.991 -0.0319 -1.0545  0.0041
 4805SOL     OW15313   1.587   5.156   0.295  0.2871 -0.1838 -0.3489
 4805SOL    HW115314   1.554   5.076   0.245  0.9183 -0.9852  0.4705
 4805SOL    HW215315   1.509   5.208   0.330 -0.1560  0.2357 -1.8746
 4806SOL     OW15316   4.651   3.288   0.461  0.3281  0.0843  0.0489
 4806SOL    HW115317   4.697   3.341   0.390 -0.8058  1.3220  0.1829
 4806SOL    HW215318   4.716   3.260   0.531  0.5851  4.2305  1.7668
 4807SOL     OW15319   4.956   4.229   5.897 -0.1645 -0.0570  0.0440
 4807SOL    HW115320   4.997   4.273   5.817  1.6209 -0.5223  0.6800
 4807SOL    HW215321   5.023   4.223   5.970 -0.9864 -2.0357  0.6842
 4808SOL     OW15322   5.037   5.285   5.029 -0.1681  0.1949  0.2409
 4808SOL    HW115323   4.955   5.342   5.036 -1.2273 -0.7116 -3.1184
 4808SOL    HW215324   5.023   5.201   5.082 -0.0057  1.3859  2.3140
 4809SOL     OW15325   2.382   0.709   3.059 -0.0079  0.1473  0.3326
 4809SOL    HW115326   2.426   0.691   3.147  0.7460 -1.8419 -0.4009
 4809SOL    HW215327   2.313   0.639   3.042 -1.2947  1.4420  0.0304
 4810SOL     OW15328   1.121   2.540   1.366 -0.5024  0.2551  0.2766
 4810SOL    HW115329   1.186   2.562   1.293  0.0904  0.5623  0.8826
 4810SOL    HW215330   1.148   2.454   1.409 -0.5282  0.3487  0.4830
 4811SOL     OW15331   5.701   5.959   3.058 -0.0583 -0.3246  0.3412
 4811SOL    HW115332   5.668   5.866   3.065  0.6522 -0.6193 -0.1089
 4811SOL    HW215333   5.787   5.961   3.007  0.6619  0.3916  1.4998
 4812SOL     OW15334   4.173   2.029   5.490  0.9009  0.5325  0.2300
 4812SOL    HW115335   4.218   2.015   5.578  0.7038  0.4524  0.3192
 4812SOL    HW215336   4.134   1.942   5.459  1.3504  0.4627 -0.1464
 4813SOL     OW15337   3.886   0.391   0.176  0.6303  0.2642 -0.1693
 4813SOL    HW115338   3.817   0.345   0.121  0.0089  0.3800  0.4989
 4813SOL    HW215339   3.862   0.488   0.186  1.2544  0.4588 -0.5052
 4814SOL     OW15340   3.935   0.852   5.736 -0.0944 -0.0684 -0.1972
 4814SOL    HW115341   3.849   0.901   5.721  0.3347  0.5999 -0.4995
 4814SOL    HW215342   3.919   0.775   5.798 -0.7470  0.5363  0.3953
 4815SOL     OW15343   2.773   6.744   2.852 -0.0077 -0.1578  0.2853
 4815SOL    HW115344   2.789   6.838   2.883  0.1188  0.0925 -0.5083
 4815SOL    HW215345   2.790   6.680   2.927  1.1269  0.3646  0.5000
 4816SOL     OW15346   4.631   3.561   1.337 -1.3271  0.4957  0.2074
 4816SOL    HW115347   4.595   3.562   1.430 -0.8264 -1.1902  0.4487
 4816SOL    HW215348   4.727   3.589   1.338 -1.1116 -0.2190  0.3197
 4817SOL     OW15349   0.628   4.769   5.897  0.2902  0.1899  0.2577
 4817SOL    HW115350   0.641   4.829   5.819 -0.1166  0.5358  0.4487
 4817SOL    HW215351   0.717   4.750   5.940  0.5558 -0.2751 -0.4767
 4818SOL     OW15352   0.732   4.185   6.935  0.1116 -0.5780  0.9578
 4818SOL    HW115353   0.791   4.115   6.895 -0.5558 -0.2329 -0.7413
 4818SOL    HW215354   0.773   4.275   6.922 -0.0941 -0.4647  1.0876
 4819SOL     OW15355   6.816   1.766   4.859 -0.4533 -0.3347  0.4417
 4819SOL    HW115356   6.889   1.826   4.894 -1.9771  0.5858  2.2035
 4819SOL    HW215357   6.856   1.680   4.828  1.4371  0.3448  0.8500
 4820SOL     OW15358   6.503   1.447   5.659  0.7233 -0.4003 -0.1075
 4820SOL    HW115359   6.518   1.484   5.567  0.2605  0.2026  0.0536
 4820SOL    HW215360   6.405   1.451   5.681  0.9768  0.6952  0.9149
 4821SOL     OW15361   4.984   5.692   2.717 -0.1937 -0.1565 -0.8568
 4821SOL    HW115362   4.939   5.745   2.788 -0.7494 -0.2109 -1.1601
 4821SOL    HW215363   4.943   5.714   2.628 -0.2822 -0.9238 -1.0147
 4822SOL     OW15364   2.611   5.179   2.555 -0.1069  0.3603  0.6469
 4822SOL    HW115365   2.695   5.227   2.580 -0.4921  1.4380 -0.0656
 4822SOL    HW215366   2.632   5.082   2.540  1.8222  1.1603 -3.1299
 4823SOL     OW15367   6.526   3.113   4.437 -0.4963  0.1869 -0.6710
 4823SOL    HW115368   6.538   3.015   4.423  0.9051  0.4769 -1.7239
 4823SOL    HW215369   6.435   3.140   4.407 -1.0254 -0.8384 -0.0410
 4824SOL     OW15370   1.338   5.930   2.594 -0.2828  0.0822 -0.5953
 4824SOL    HW115371   1.361   5.897   2.502  0.1719 -0.2261 -0.3813
 4824SOL    HW215372   1.253   5.981   2.591  0.2293  0.9317 -1.3697
 4825SOL     OW15373   0.810   1.341   1.196 -0.3345 -0.3287  0.2124
 4825SOL    HW115374   0.785   1.411   1.262 -0.4007 -1.1947  1.1448
 4825SOL    HW215375   0.849   1.383   1.115  2.1716  0.7101  1.8320
 4826SOL     OW15376   1.730   5.223   2.782  0.2678 -0.0532 -0.4945
 4826SOL    HW115377   1.651   5.205   2.724 -1.2132 -0.6080  1.5724
 4826SOL    HW215378   1.743   5.321   2.794 -1.6608  0.0622  1.0644
 4827SOL     OW15379   0.062   6.548   2.348 -0.1464 -0.0149 -0.0303
 4827SOL    HW115380   0.004   6.485   2.401 -1.8654  0.2377 -1.4918
 4827SOL    HW215381   0.032   6.547   2.252  0.9423  1.7147 -0.4287
 4828SOL     OW15382   2.671   2.297   5.219  0.4026 -0.1104  0.2648
 4828SOL    HW115383   2.684   2.209   5.173  1.5707 -0.5583  1.3907
 4828SOL    HW215384   2.759   2.331   5.249 -0.1636  0.9731  0.7271
 4829SOL     OW15385   2.515   6.777   4.349  0.4397 -0.0028  0.2169
 4829SOL    HW115386   2.489   6.736   4.261  0.1819  0.2870  0.1556
 4829SOL    HW215387   2.447   6.752   4.418 -1.4390  2.7582 -0.4791
 4830SOL     OW15388   1.680   5.477   6.351  0.0620 -0.3580  0.0751
 4830SOL    HW115389   1.634   5.560   6.323 -0.5702 -0.4433  0.8292
 4830SOL    HW215390   1.779   5.487   6.338 -0.1666 -0.3817 -2.0806
 4831SOL     OW15391   5.968   0.884   1.664 -0.0875 -0.2662 -0.0686
 4831SOL    HW115392   5.978   0.835   1.750 -0.5547 -0.6884 -0.2519
 4831SOL    HW215393   5.978   0.982   1.680  1.0410 -0.4229  0.2692
 4832SOL     OW15394   4.835   2.697   5.922 -0.5005  0.3109  0.2064
 4832SOL    HW115395   4.904   2.668   5.856 -2.6486 -1.1724 -1.5444
 4832SOL    HW215396   4.745   2.666   5.892 -1.9003  1.6308  2.6893
 4833SOL     OW15397   4.887   2.891   0.940 -0.1083  0.2881  0.5042
 4833SOL    HW115398   4.791   2.918   0.942 -0.4753 -0.6986 -1.4014
 4833SOL    HW215399   4.945   2.972   0.949 -1.1497  1.2009 -0.6793
 4834SOL     OW15400   2.857   0.711   2.242 -0.0365  0.4013 -0.0557
 4834SOL    HW115401   2.798   0.785   2.274 -0.5688  0.1365 -0.3973
 4834SOL    HW215402   2.886   0.729   2.148  0.0644  0.3151 -0.0416
 4835SOL     OW15403   5.653   5.694   3.046  0.1380  0.0276  0.1892
 4835SOL    HW115404   5.732   5.640   3.018  0.0226  0.1427 -0.3722
 4835SOL    HW215405   5.578   5.680   2.982 -0.1914  0.1696  0.5374
 4836SOL     OW15406   1.516   2.188   1.837 -0.2597  0.6788  0.0953
 4836SOL    HW115407   1.525   2.098   1.879  2.3639  0.8304  0.0310
 4836SOL    HW215408   1.564   2.256   1.893 -0.2200  1.6109 -1.0267
 4837SOL     OW15409   3.075   5.106   1.261  0.8469 -0.1380  0.5148
 4837SOL    HW115410   3.167   5.075   1.284  1.3745  1.9093  1.4616
 4837SOL    HW215411   3.021   5.030   1.227  3.3001 -1.1718 -1.4257
 4838SOL     OW15412   3.758   6.643   4.578 -0.3063  0.1665  0.7481
 4838SOL    HW115413   3.782   6.739   4.565 -0.3322  0.2170  1.0670
 4838SOL    HW215414   3.661   6.630   4.558 -0.2228  0.1333  0.3434
 4839SOL     OW15415   5.726   1.496   1.572  0.5946  0.1365 -0.0975
 4839SOL    HW115416   5.804   1.442   1.540  0.0026 -0.7342 -0.1000
 4839SOL    HW215417   5.683   1.541   1.494 -0.7813 -1.8955 -0.5790
 4840SOL     OW15418   4.981   3.157   5.985  0.1845  0.7026  0.2070
 4840SOL    HW115419   5.000   3.245   6.029  1.6549 -0.2811  1.6528
 4840SOL    HW215420   5.067   3.120   5.949 -0.1882 -0.6866  0.7146
 4841SOL     OW15421   1.146   2.344   3.109  0.3141 -0.0632 -1.0252
 4841SOL    HW115422   1.116   2.438   3.121  0.7299 -0.1199  0.7971
 4841SOL    HW215423   1.245   2.339   3.122  0.2035 -0.8412 -0.3991
 4842SOL     OW15424   2.633   5.675   0.403 -0.2969  0.4953 -0.0067
 4842SOL    HW115425   2.705   5.724   0.354  1.0396 -1.3940 -0.0367
 4842SOL    HW215426   2.659   5.665   0.499 -1.4286  1.4095  0.4236
 4843SOL     OW15427   6.969   5.302   4.663 -0.4160 -0.5885  0.0133
 4843SOL    HW115428   6.951   5.332   4.757  1.1012 -0.0173  0.1443
 4843SOL    HW215429   6.894   5.332   4.604 -1.6106 -1.3503  1.1005
 4844SOL     OW15430   3.157   3.937   5.555 -0.0766  0.6968 -0.1613
 4844SOL    HW115431   3.205   3.850   5.542 -0.7922  0.3876 -0.8339
 4844SOL    HW215432   3.068   3.919   5.597  0.6765  1.3359  1.7915
 4845SOL     OW15433   2.765   5.816   1.445  0.3838  0.0540  0.2235
 4845SOL    HW115434   2.738   5.749   1.514  1.9390 -2.1825 -1.1922
 4845SOL    HW215435   2.696   5.819   1.373  0.8442 -0.9782 -0.2904
 4846SOL     OW15436   1.104   0.656   1.228 -1.2657 -0.3528 -0.1251
 4846SOL    HW115437   1.093   0.750   1.260 -0.9633 -0.5269  0.5111
 4846SOL    HW215438   1.016   0.620   1.198 -1.5312 -0.1410  0.3952
 4847SOL     OW15439   6.039   1.675   2.453 -0.0991  0.4368 -0.1532
 4847SOL    HW115440   5.950   1.693   2.494 -0.1739  1.6624 -0.7948
 4847SOL    HW215441   6.105   1.651   2.524 -0.8846 -0.2856  0.3432
 4848SOL     OW15442   3.080   4.341   5.828 -0.2960 -0.0592  0.3596
 4848SOL    HW115443   3.040   4.274   5.766  0.8099 -1.3044  0.9688
 4848SOL    HW215444   3.079   4.431   5.785 -2.0560 -0.3889 -0.3542
 4849SOL     OW15445   5.974   2.367   2.399 -0.3584  0.2540  0.4281
 4849SOL    HW115446   6.043   2.424   2.355 -0.4288  1.1492  1.4255
 4849SOL    HW215447   6.013   2.320   2.477  0.1702 -2.5476 -1.3695
 4850SOL     OW15448   0.548   5.640   3.979 -0.1956 -0.1712  0.2865
 4850SOL    HW115449   0.530   5.676   3.888  2.4431 -0.2405 -0.3414
 4850SOL    HW215450   0.591   5.711   4.034  0.6678 -0.9322  0.6052
 4851SOL     OW15451   6.748   6.525   2.625 -0.3646 -0.0284  0.1936
 4851SOL    HW115452   6.828   6.496   2.572  0.5328  1.5075  0.6504
 4851SOL    HW215453   6.685   6.448   2.634  0.6707 -1.0535 -0.8676
 4852SOL     OW15454   5.504   5.260   1.231 -0.2718  0.7500  0.2105
 4852SOL    HW115455   5.604   5.257   1.229 -0.2745  0.4804  0.4069
 4852SOL    HW215456   5.468   5.167   1.234 -0.5694  0.7873 -1.2977
 4853SOL     OW15457   5.874   4.201   4.266  0.4578 -0.1290 -0.2295
 4853SOL    HW115458   5.912   4.294   4.267  0.9748 -0.3274 -0.7711
 4853SOL    HW215459   5.850   4.176   4.172 -1.5002  0.1749  0.1310
 4854SOL     OW15460   2.339   1.526   1.584 -0.3924  0.2883  0.4267
 4854SOL    HW115461   2.250   1.549   1.623 -0.7279 -1.3339  0.7009
 4854SOL    HW215462   2.351   1.426   1.584  0.9371  0.4102 -0.6952
 4855SOL     OW15463   0.388   1.428   0.453  0.5799  0.8690 -0.1795
 4855SOL    HW115464   0.355   1.422   0.359  0.6446  0.5748 -0.1841
 4855SOL    HW215465   0.476   1.476   0.454  1.0577  0.0025 -0.3853
 4856SOL     OW15466   5.556   6.370   5.929 -0.0966 -0.0348  0.1794
 4856SOL    HW115467   5.526   6.305   5.858 -2.0724 -0.8066  1.6340
 4856SOL    HW215468   5.563   6.322   6.016  2.5992  0.8401  0.5386
 4857SOL     OW15469   1.076   6.197   4.304 -0.6699 -0.3868 -0.2727
 4857SOL    HW115470   1.126   6.275   4.343  0.6518 -0.9765 -0.7285
 4857SOL    HW215471   1.133   6.115   4.311 -1.7976 -1.1932 -0.3625
 4858SOL     OW15472   6.782   1.146   3.376  0.7515 -0.2175 -0.1482
 4858SOL    HW115473   6.871   1.190   3.385  0.4289  0.5132 -0.4443
 4858SOL    HW215474   6.793   1.060   3.326  1.3623 -0.3847  0.2690
 4859SOL     OW15475   2.948   6.703   4.167 -0.4441 -0.1620 -0.4161
 4859SOL    HW115476   2.898   6.656   4.093  1.3253 -0.5480 -1.4445
 4859SOL    HW215477   3.045   6.678   4.161 -0.0912  0.6695  1.4069
 4860SOL     OW15478   0.298   5.748   1.352  0.2877  0.3394  0.5585
 4860SOL    HW115479   0.271   5.672   1.294 -0.7095  0.2988  1.0584
 4860SOL    HW215480   0.259   5.833   1.317  1.3165  0.6156  0.0567
 4861SOL     OW15481   6.492   1.581   4.368 -0.1174  0.0264 -0.8334
 4861SOL    HW115482   6.429   1.553   4.296 -1.0841 -2.0542  0.7200
 4861SOL    HW215483   6.585   1.556   4.343 -0.4807 -0.9446 -1.2283
 4862SOL     OW15484   1.829   2.259   2.757 -0.2230  0.0220 -0.4775
 4862SOL    HW115485   1.863   2.226   2.845  1.1879  0.9973 -0.6309
 4862SOL    HW215486   1.730   2.250   2.754 -0.2276 -0.6277  0.9525
 4863SOL     OW15487   6.104   2.202   5.532  0.3557 -0.0780  0.4473
 4863SOL    HW115488   6.114   2.166   5.624  1.0510 -0.2455  0.3157
 4863SOL    HW215489   6.024   2.262   5.528 -0.2268 -0.8049  0.9121
 4864SOL     OW15490   0.843   1.445   4.778  0.0879  0.2737 -0.8597
 4864SOL    HW115491   0.895   1.459   4.694  0.5910 -0.3937 -0.6691
 4864SOL    HW215492   0.848   1.349   4.805  2.3927  0.9279  1.4873
 4865SOL     OW15493   1.554   4.394   0.514 -0.8514  0.9495 -0.9720
 4865SOL    HW115494   1.582   4.479   0.559 -1.5225  0.7684 -0.1745
 4865SOL    HW215495   1.509   4.416   0.427 -1.0502  1.4147 -0.7593
 4866SOL     OW15496   0.802   4.555   6.578  0.1941  0.3237  0.3089
 4866SOL    HW115497   0.898   4.573   6.601  0.9461 -1.3401 -1.2522
 4866SOL    HW215498   0.772   4.618   6.507  0.9417 -0.7025 -0.9502
 4867SOL     OW15499   5.060   5.976   5.502 -0.1376 -0.6962  0.3337
 4867SOL    HW115500   5.075   5.920   5.583 -1.1735 -0.6241  0.5853
 4867SOL    HW215501   4.962   5.983   5.483  0.1135 -1.2993 -1.3435
 4868SOL     OW15502   1.707   2.116   3.004  0.0126 -0.4400 -0.3069
 4868SOL    HW115503   1.724   2.024   2.967  0.5869 -0.0639 -1.0242
 4868SOL    HW215504   1.787   2.144   3.058  0.5785  0.2878 -1.4825
 4869SOL     OW15505   3.336   3.690   5.502  0.2722 -0.0758  0.0649
 4869SOL    HW115506   3.425   3.648   5.520 -0.5348 -1.3604  1.2411
 4869SOL    HW215507   3.266   3.644   5.557 -0.9277  1.7387  0.1169
 4870SOL     OW15508   5.705   5.676   0.282  0.1443  1.2406  0.3234
 4870SOL    HW115509   5.673   5.770   0.274 -1.2843  0.9672  2.1027
 4870SOL    HW215510   5.628   5.617   0.309  0.9915 -0.4514 -0.8043
 4871SOL     OW15511   4.982   1.033   2.402  0.3438  0.5439  0.0952
 4871SOL    HW115512   4.884   1.021   2.419  0.2562  0.4390 -0.4771
 4871SOL    HW215513   5.034   0.963   2.451 -0.0963 -1.7341 -2.5022
 4872SOL     OW15514   1.254   1.812   0.911  0.2644 -0.6441 -0.0241
 4872SOL    HW115515   1.328   1.795   0.846  0.2129  1.8546 -0.8440
 4872SOL    HW215516   1.173   1.844   0.861 -0.4188 -0.5767  1.1027
 4873SOL     OW15517   3.603   0.751   0.085 -0.5948 -0.2664 -0.3464
 4873SOL    HW115518   3.602   0.659   0.125 -0.4284 -0.8479 -1.6337
 4873SOL    HW215519   3.668   0.808   0.135 -0.6033 -0.8842  0.3882
 4874SOL     OW15520   1.785   2.627   0.057  0.0051  0.2545 -0.2280
 4874SOL    HW115521   1.807   2.717   0.093  0.2365  0.4191 -0.7680
 4874SOL    HW215522   1.850   2.603  -0.015 -0.6528  0.0871 -0.7808
 4875SOL     OW15523   4.180   0.274   1.786  0.5780  0.6840 -0.8163
 4875SOL    HW115524   4.272   0.311   1.780  1.4389 -1.3368 -0.9361
 4875SOL    HW215525   4.127   0.305   1.707  0.2808  3.9052  0.5165
 4876SOL     OW15526   2.561   0.739   6.215 -0.0435  0.1578 -0.2830
 4876SOL    HW115527   2.463   0.734   6.195 -0.5376  1.4366  1.4633
 4876SOL    HW215528   2.596   0.829   6.187  0.6204 -0.2513 -0.7970
 4877SOL     OW15529   4.259   2.867   6.887  0.2317  0.0601 -0.3609
 4877SOL    HW115530   4.284   2.774   6.915  0.7182  0.5668  1.0098
 4877SOL    HW215531   4.330   2.930   6.918 -1.9013  1.3809  2.2566
 4878SOL     OW15532   1.038   1.362   3.224  0.6473 -0.2302 -0.4097
 4878SOL    HW115533   1.092   1.427   3.172  2.5719 -1.3028  0.1679
 4878SOL    HW215534   0.970   1.319   3.163  3.1174 -1.7820 -2.2492
 4879SOL     OW15535   0.873   1.451   3.448  0.0881  0.0150 -0.4774
 4879SOL    HW115536   0.927   1.433   3.367 -0.4648  0.3723 -0.9351
 4879SOL    HW215537   0.914   1.406   3.527  1.1757  0.4692 -0.7664
 4880SOL     OW15538   5.927   0.925   6.502 -0.8269  0.7418  1.0073
 4880SOL    HW115539   5.827   0.932   6.506 -0.8957  1.7277 -1.0937
 4880SOL    HW215540   5.952   0.846   6.447 -0.6529  3.0911 -2.6546
 4881SOL     OW15541   0.341   6.004   2.139 -0.1765 -0.5156 -0.2356
 4881SOL    HW115542   0.370   5.908   2.141  0.4919 -0.3019  1.1558
 4881SOL    HW215543   0.315   6.028   2.045  2.9179 -1.0980 -1.3547
 4882SOL     OW15544   2.493   2.016   6.131  0.5062  0.5714 -0.0499
 4882SOL    HW115545   2.476   1.918   6.123  0.6196  0.5690 -0.2510
 4882SOL    HW215546   2.490   2.059   6.041  0.0284  0.8268  0.0800
 4883SOL     OW15547   1.349   6.029   4.621 -0.3501  0.1466  0.3601
 4883SOL    HW115548   1.438   6.030   4.666 -0.6597  2.1556  1.0239
 4883SOL    HW215549   1.281   5.988   4.682 -0.2271  0.2744  0.5829
 4884SOL     OW15550   0.776   0.345   5.779 -0.6139 -0.1415 -0.6850
 4884SOL    HW115551   0.734   0.301   5.858  1.5396  0.0066  0.6074
 4884SOL    HW215552   0.755   0.442   5.780 -0.2281 -0.0593 -0.0193
 4885SOL     OW15553   4.295   0.157   6.496  0.1508 -0.1676  0.6488
 4885SOL    HW115554   4.393   0.149   6.511  0.2791 -0.9282 -0.4512
 4885SOL    HW215555   4.245   0.121   6.575  0.7600 -1.0257  0.6476
 4886SOL     OW15556   6.039   4.494   0.418  0.1561 -0.0618 -0.2243
 4886SOL    HW115557   6.006   4.569   0.360  1.2476 -0.1307 -0.9581
 4886SOL    HW215558   6.102   4.437   0.366 -1.4338 -2.1216 -0.0156
 4887SOL     OW15559   1.398   3.358   4.970 -0.3620  0.0727 -0.3178
 4887SOL    HW115560   1.415   3.359   4.871 -1.0979 -2.9138 -0.5954
 4887SOL    HW215561   1.479   3.323   5.017 -1.1664 -1.9909 -0.3323
 4888SOL     OW15562   5.238   3.834   6.912 -0.7296 -0.1809 -0.0069
 4888SOL    HW115563   5.184   3.839   6.997  0.0002  0.0277  0.4563
 4888SOL    HW215564   5.233   3.921   6.864 -0.6761 -0.1083  0.1179
 4889SOL     OW15565   1.944   1.040   2.631  0.0132  0.2861 -0.3590
 4889SOL    HW115566   1.973   0.970   2.565  1.5659  0.6138 -0.0584
 4889SOL    HW215567   1.847   1.027   2.652  0.3989 -2.2176  0.2231
 4890SOL     OW15568   6.335   4.937   4.215 -0.3168  0.6265 -0.3548
 4890SOL    HW115569   6.429   4.936   4.249 -0.0858 -1.0141 -0.9493
 4890SOL    HW215570   6.291   4.849   4.236 -1.2436  0.8393 -1.3375
 4891SOL     OW15571   1.879   0.282   1.341  0.3602 -0.9235 -0.3055
 4891SOL    HW115572   1.977   0.284   1.358  0.8247 -0.3465 -2.7340
 4891SOL    HW215573   1.855   0.351   1.273 -2.1257  0.5414  1.9011
 4892SOL     OW15574   0.590   2.631   3.410 -0.3063  0.8459 -0.3838
 4892SOL    HW115575   0.678   2.646   3.365  1.0888 -2.0869  1.0703
 4892SOL    HW215576   0.551   2.544   3.378 -2.2581  1.6382 -0.2887
 4893SOL     OW15577   2.484   0.934   0.895 -0.5469  0.1860 -0.1065
 4893SOL    HW115578   2.407   0.871   0.880 -1.1569  0.9183 -0.1148
 4893SOL    HW215579   2.449   1.021   0.931  0.3526  0.3064  0.4991
 4894SOL     OW15580   2.567   6.697   3.747 -0.5304 -0.6397  0.3917
 4894SOL    HW115581   2.660   6.710   3.715 -0.9095  0.3062 -0.3759
 4894SOL    HW215582   2.530   6.612   3.710  0.0448 -1.0527  0.7575
 4895SOL     OW15583   5.585   5.114   6.652 -0.0979  0.3244 -0.2003
 4895SOL    HW115584   5.492   5.107   6.688  0.2482  0.3490  0.7192
 4895SOL    HW215585   5.599   5.205   6.613 -0.2561  0.5346  0.2353
 4896SOL     OW15586   6.430   2.803   6.434 -0.1853 -0.1181 -0.0374
 4896SOL    HW115587   6.510   2.863   6.437  0.8674 -1.4937  1.7924
 4896SOL    HW215588   6.383   2.813   6.346  2.4954  0.0854 -1.5315
 4897SOL     OW15589   5.830   1.524   0.913 -0.2832  0.4178  0.0184
 4897SOL    HW115590   5.821   1.566   1.003 -0.2835  2.5085 -0.9007
 4897SOL    HW215591   5.739   1.500   0.878 -0.1750 -2.4271  1.3950
 4898SOL     OW15592   6.138   0.494   0.503 -0.3099 -0.1126 -0.1303
 4898SOL    HW115593   6.108   0.582   0.466 -0.3766 -0.1118 -0.0745
 4898SOL    HW215594   6.087   0.474   0.587 -0.5888 -0.4016 -0.3667
 4899SOL     OW15595   6.462   4.377   4.730 -0.3493  0.0987 -0.4186
 4899SOL    HW115596   6.506   4.306   4.784  1.9242  1.6231 -0.1449
 4899SOL    HW215597   6.381   4.339   4.684  2.5054 -3.6020 -2.9662
 4900SOL     OW15598   6.060   0.270   0.370  0.3081  0.2848 -0.0057
 4900SOL    HW115599   6.101   0.357   0.397 -0.5177  0.7835 -0.3090
 4900SOL    HW215600   5.974   0.256   0.420 -0.0979  0.1495 -0.7223
 4901SOL     OW15601   0.594   3.965   3.377 -0.2851  0.1306 -0.4452
 4901SOL    HW115602   0.634   3.897   3.316  1.9309  0.7207  0.2538
 4901SOL    HW215603   0.637   4.053   3.361 -0.8586  0.6646  0.8216
 4902SOL     OW15604   1.362   0.313   3.138  0.3907 -0.3489 -0.4177
 4902SOL    HW115605   1.443   0.290   3.193  0.1274  0.7678  0.4696
 4902SOL    HW215606   1.317   0.228   3.111  0.7571 -0.9539  0.7596
 4903SOL     OW15607   4.811   2.890   3.684  0.3975  0.4297 -0.0870
 4903SOL    HW115608   4.826   2.923   3.591  0.1705  2.6644  0.6041
 4903SOL    HW215609   4.839   2.795   3.691  0.7083  0.3075 -2.3483
 4904SOL     OW15610   6.340   2.065   3.681 -1.0748  0.4879 -0.2072
 4904SOL    HW115611   6.351   1.986   3.742 -0.6182  0.4309 -0.3610
 4904SOL    HW215612   6.332   2.033   3.586  3.4434  0.7083 -0.8850
 4905SOL     OW15613   3.090   2.905   1.393  0.0642  0.4914 -0.7368
 4905SOL    HW115614   3.119   2.904   1.297 -0.5253  0.4028 -0.9134
 4905SOL    HW215615   3.043   2.819   1.414  0.8872  0.1744 -0.1535
 4906SOL     OW15616   0.060   0.870   2.750 -0.8033 -0.4653 -0.5586
 4906SOL    HW115617   0.032   0.965   2.767  1.6697  0.1475  0.5214
 4906SOL    HW215618   0.017   0.810   2.817 -0.5521  0.2395  0.2436
 4907SOL     OW15619   0.024   0.709   2.988  0.8715  0.1464  0.2781
 4907SOL    HW115620   0.047   0.802   3.018 -0.0450  0.3593  0.3487
 4907SOL    HW215621  -0.073   0.692   3.004  0.9323 -0.6665 -0.1689
 4908SOL     OW15622   1.503   3.402   5.463  0.1652 -0.6446 -0.2712
 4908SOL    HW115623   1.586   3.442   5.423 -0.6820  1.1649 -0.3254
 4908SOL    HW215624   1.526   3.314   5.506  1.8207 -0.8619 -1.4787
 4909SOL     OW15625   4.786   3.244   5.439  0.1376  0.0612  0.6874
 4909SOL    HW115626   4.849   3.311   5.401  2.3946 -1.6344  1.2382
 4909SOL    HW215627   4.782   3.253   5.538 -0.3808  0.0525  0.6713
 4910SOL     OW15628   2.482   4.639   6.139 -0.2973 -0.2112 -0.2578
 4910SOL    HW115629   2.553   4.693   6.184  0.5410 -0.4854 -1.2108
 4910SOL    HW215630   2.447   4.570   6.203  3.4039 -3.0338 -0.8859
 4911SOL     OW15631   6.449   6.777   5.260  0.8420 -0.9347  0.4923
 4911SOL    HW115632   6.544   6.771   5.289  1.3910  2.6897 -0.2186
 4911SOL    HW215633   6.408   6.860   5.297 -0.4387  0.3712 -3.4735
 4912SOL     OW15634   4.186   5.654   2.239 -0.3321  0.1218  0.4253
 4912SOL    HW115635   4.198   5.557   2.262 -1.1472  0.4058  2.1887
 4912SOL    HW215636   4.272   5.690   2.202  0.1106 -1.1688  0.1527
 4913SOL     OW15637   4.325   0.961   1.454 -0.3826 -0.2502  0.1474
 4913SOL    HW115638   4.418   0.992   1.435 -0.1815 -1.2354 -0.5981
 4913SOL    HW215639   4.327   0.894   1.528 -0.2932 -1.3005 -0.7761
 4914SOL     OW15640   4.490   6.778   1.845 -0.4822  0.4557  0.7945
 4914SOL    HW115641   4.428   6.851   1.874 -2.7153 -0.8112 -0.4222
 4914SOL    HW215642   4.462   6.691   1.887  0.7463 -0.0958  0.5295
 4915SOL     OW15643   2.709   0.293   6.118 -0.0961 -0.3302  0.2967
 4915SOL    HW115644   2.674   0.254   6.033  0.9716 -1.2715  0.2693
 4915SOL    HW215645   2.635   0.341   6.165 -1.1922 -1.4311 -0.2365
 4916SOL     OW15646   4.669   7.004   6.271 -0.2319 -0.2786 -0.3256
 4916SOL    HW115647   4.589   6.983   6.215 -1.5909  2.2054  0.5400
 4916SOL    HW215648   4.708   7.092   6.243  3.1338 -1.9833 -1.6227
 4917SOL     OW15649   2.777   2.268   2.272  0.0026 -0.0223  0.5100
 4917SOL    HW115650   2.838   2.323   2.329 -0.0877  0.0016  0.5827
 4917SOL    HW215651   2.806   2.275   2.177 -0.8436  1.3048  0.3123
 4918SOL     OW15652   1.592   1.415   4.625  0.1205 -0.0469 -0.2548
 4918SOL    HW115653   1.612   1.398   4.528 -2.0091 -0.4955 -0.6722
 4918SOL    HW215654   1.641   1.497   4.655  2.1664 -0.8679 -1.2092
 4919SOL     OW15655   3.482   5.560   4.557  0.4360 -0.2294  0.3792
 4919SOL    HW115656   3.541   5.631   4.595  1.6041 -0.9452 -0.0620
 4919SOL    HW215657   3.531   5.472   4.556 -0.7482 -0.9148  0.3032
 4920SOL     OW15658   0.525   6.934   1.781  0.0419 -0.0442 -0.3496
 4920SOL    HW115659   0.566   6.968   1.697 -3.4875 -1.1554 -2.7759
 4920SOL    HW215660   0.483   7.009   1.831  1.7197  0.5518  0.2246
 4921SOL     OW15661   1.312   5.370   2.613 -0.0928 -0.0485  0.2705
 4921SOL    HW115662   1.231   5.335   2.565  1.1935 -0.3967 -1.8153
 4921SOL    HW215663   1.346   5.451   2.564  0.6450  0.2804  1.3105
 4922SOL     OW15664   5.870   2.888   5.037  0.4794 -0.3564 -0.1076
 4922SOL    HW115665   5.962   2.849   5.042  1.3471  1.7142  2.6606
 4922SOL    HW215666   5.803   2.821   5.069  1.2689 -1.2680 -0.3423
 4923SOL     OW15667   4.250   3.457   1.532  0.0714 -0.3418  0.1031
 4923SOL    HW115668   4.211   3.378   1.486 -0.9445  1.0810 -1.6013
 4923SOL    HW215669   4.212   3.464   1.625 -0.6423 -1.2423 -0.1121
 4924SOL     OW15670   6.836   4.957   1.709  0.2156 -0.5317  0.3104
 4924SOL    HW115671   6.762   5.013   1.668  1.3599  1.3087  0.6294
 4924SOL    HW215672   6.814   4.938   1.804 -0.1538 -0.5372  0.2264
 4925SOL     OW15673   3.918   6.171   2.533 -0.0435  0.4767 -0.3385
 4925SOL    HW115674   4.017   6.162   2.537 -0.1438 -0.6296  0.1325
 4925SOL    HW215675   3.876   6.104   2.595 -1.0945  0.4369 -1.0697
 4926SOL     OW15676   4.043   3.296   4.750 -0.6621  0.0782  0.0622
 4926SOL    HW115677   4.126   3.323   4.701 -1.1620 -0.3494 -1.0490
 4926SOL    HW215678   4.061   3.297   4.849  1.8594 -3.7051 -0.1450
 4927SOL     OW15679   4.515   2.464   2.923  0.2132  0.1495  0.2543
 4927SOL    HW115680   4.450   2.438   2.995  0.7639  1.2843  1.2001
 4927SOL    HW215681   4.608   2.438   2.951  0.1983 -1.5208 -1.1171
 4928SOL     OW15682   0.806   2.023   2.455  0.5732 -0.0339  0.5811
 4928SOL    HW115683   0.845   2.036   2.364  1.4551 -0.3891  0.9020
 4928SOL    HW215684   0.800   2.112   2.501  1.3403 -0.0190  0.6610
 4929SOL     OW15685   1.320   5.430   4.997 -0.0791 -0.3000 -0.5313
 4929SOL    HW115686   1.347   5.495   5.068  0.5659 -2.9399  1.8139
 4929SOL    HW215687   1.305   5.340   5.038 -2.2114 -1.4147 -3.4052
 4930SOL     OW15688   3.060   1.493   5.451 -0.2115  0.8353  0.5869
 4930SOL    HW115689   3.137   1.442   5.412 -1.2961 -1.5151  1.3302
 4930SOL    HW215690   3.095   1.561   5.516  1.2613 -0.1087  0.8366
 4931SOL     OW15691   6.282   4.597   6.828  0.0021 -1.0683 -0.4789
 4931SOL    HW115692   6.343   4.521   6.808  0.2304 -0.7139 -1.1812
 4931SOL    HW215693   6.202   4.593   6.767  0.7131  0.0380 -1.5498
 4932SOL     OW15694   6.805   4.115   6.018 -0.1799  0.6937 -0.1698
 4932SOL    HW115695   6.836   4.096   5.925 -1.4769  3.5506 -1.2864
 4932SOL    HW215696   6.858   4.060   6.083  0.0017 -2.2316 -2.5932
 4933SOL     OW15697   3.327   3.299   0.677 -0.2128  0.0373  0.3990
 4933SOL    HW115698   3.228   3.311   0.664 -0.1188 -0.5510 -1.0764
 4933SOL    HW215699   3.352   3.205   0.653  0.7593  0.2819  0.4352
 4934SOL     OW15700   5.712   1.728   0.207 -0.1215  0.4406 -0.5923
 4934SOL    HW115701   5.812   1.731   0.196 -0.2344  1.5937 -1.3803
 4934SOL    HW215702   5.672   1.679   0.130 -0.1102 -0.9555  0.2519
 4935SOL     OW15703   5.792   6.914   4.768 -0.0564  0.2624 -0.0028
 4935SOL    HW115704   5.770   6.879   4.677  0.5554  0.3200 -0.1787
 4935SOL    HW215705   5.745   6.859   4.837 -0.4277  0.1417 -0.3452
 4936SOL     OW15706   3.319   3.166   5.244  0.1032 -0.1350 -0.3639
 4936SOL    HW115707   3.281   3.077   5.220  1.0488  0.0126 -2.7524
 4936SOL    HW215708   3.262   3.238   5.204  0.9566  0.1855 -1.0495
 4937SOL     OW15709   0.673   6.911   5.876 -0.1531  0.5898 -0.1412
 4937SOL    HW115710   0.664   7.010   5.864  0.1961  0.7259  0.6550
 4937SOL    HW215711   0.768   6.888   5.897 -0.5378  0.2836  1.3541
 4938SOL     OW15712   6.935   6.481   5.061 -0.9943 -0.2009  0.2028
 4938SOL    HW115713   7.034   6.475   5.074 -0.7783  1.8967 -0.1485
 4938SOL    HW215714   6.901   6.394   5.024  0.9283 -0.5135 -0.9850
 4939SOL     OW15715   5.870   0.715   4.136  0.1414  0.2173  0.1526
 4939SOL    HW115716   5.835   0.718   4.230 -0.0500 -0.2922  0.1032
 4939SOL    HW215717   5.931   0.792   4.120 -0.6030  0.8710  0.3907
 4940SOL     OW15718   2.966   3.940   4.782 -0.0840 -0.2582  0.1269
 4940SOL    HW115719   2.896   4.009   4.805  0.4331 -0.2596  1.8748
 4940SOL    HW215720   3.042   3.949   4.846 -0.2754 -2.8552  0.8083
 4941SOL     OW15721   4.684   6.411   0.682  0.9300 -0.4425 -0.3293
 4941SOL    HW115722   4.656   6.503   0.655  1.2844  0.0481  0.8891
 4941SOL    HW215723   4.716   6.361   0.602 -0.3822  0.0754 -1.2126
 4942SOL     OW15724   4.673   0.382   3.481 -0.5568 -0.3654  0.1440
 4942SOL    HW115725   4.574   0.390   3.464 -0.5849 -0.2464  0.3573
 4942SOL    HW215726   4.705   0.464   3.528 -0.5352 -0.7947  0.8966
 4943SOL     OW15727   2.232   4.348   4.848 -0.2697 -0.3017 -0.0797
 4943SOL    HW115728   2.197   4.270   4.796  0.0161 -0.3154 -0.2573
 4943SOL    HW215729   2.229   4.327   4.946 -2.5744  0.4327  0.0763
 4944SOL     OW15730   5.996   3.040   6.990  0.6431 -0.0133  0.0300
 4944SOL    HW115731   5.959   3.104   7.057  0.2188 -0.9470  0.7003
 4944SOL    HW215732   6.093   3.026   7.007  0.5966 -0.0386  0.2701
 4945SOL     OW15733   2.648   6.822   6.639 -0.4893 -0.2789  0.2132
 4945SOL    HW115734   2.688   6.737   6.604 -1.4863 -1.2425  1.3379
 4945SOL    HW215735   2.677   6.837   6.733  0.1466  0.9559 -0.1642
 4946SOL     OW15736   3.040   5.176   3.710  0.1949  0.5292 -0.2608
 4946SOL    HW115737   3.085   5.237   3.776 -2.3444  0.4768  1.6787
 4946SOL    HW215738   3.063   5.081   3.732 -0.4723  0.5235  0.4883
 4947SOL     OW15739   0.519   1.541   0.777  0.4689  0.3074  0.0591
 4947SOL    HW115740   0.551   1.615   0.837  1.4191 -0.7772  0.9316
 4947SOL    HW215741   0.595   1.509   0.721  0.5052 -1.1031  0.8739
 4948SOL     OW15742   1.965   4.841   5.999 -0.0084 -0.0387  0.0188
 4948SOL    HW115743   2.058   4.862   6.027 -0.0762  1.9677 -1.0682
 4948SOL    HW215744   1.901   4.900   6.049 -0.3096  1.6897 -2.2183
 4949SOL     OW15745   1.716   6.395   5.658 -0.4322  0.1469 -0.2457
 4949SOL    HW115746   1.636   6.448   5.630 -0.5606  0.9009  1.4380
 4949SOL    HW215747   1.687   6.322   5.720  0.3029  1.2428  1.4357
 4950SOL     OW15748   3.044   2.817   6.724 -0.0483  0.4285 -0.1702
 4950SOL    HW115749   3.134   2.784   6.697 -0.1723  0.6193 -0.8475
 4950SOL    HW215750   3.036   2.816   6.823  0.2700 -0.7302 -0.1466
 4951SOL     OW15751   3.440   6.359   5.926  0.3649  0.0423 -1.1695
 4951SOL    HW115752   3.500   6.310   5.989  0.4413  0.0208 -1.2581
 4951SOL    HW215753   3.426   6.303   5.844 -0.7440 -0.4794 -0.6427
 4952SOL     OW15754   0.775   1.737   6.109  0.1904 -0.2202 -0.8073
 4952SOL    HW115755   0.824   1.681   6.176 -0.6118  0.4141  0.3407
 4952SOL    HW215756   0.803   1.710   6.016  0.3049 -2.0517 -0.2801
 4953SOL     OW15757   0.556   3.535   4.061  0.2347  0.0108  0.5428
 4953SOL    HW115758   0.466   3.556   4.024 -0.5041  1.3942  2.9008
 4953SOL    HW215759   0.556   3.443   4.098  0.3135 -0.5657 -0.8194
 4954SOL     OW15760   4.580   2.924   0.411  0.1128  0.0499  0.1854
 4954SOL    HW115761   4.678   2.943   0.408  0.4578 -1.5208 -2.8712
 4954SOL    HW215762   4.530   2.998   0.365  0.0231  0.1519  0.4482
 4955SOL     OW15763   6.638   3.066   2.045  0.3490 -0.6685  0.1883
 4955SOL    HW115764   6.707   3.030   2.109  0.5465  0.2263  0.4871
 4955SOL    HW215765   6.668   3.153   2.008  0.0954 -1.0334 -0.9196
 4956SOL     OW15766   0.104   6.657   0.233  0.4103  0.0504  0.8290
 4956SOL    HW115767   0.187   6.676   0.181  1.0238 -1.6525  1.1263
 4956SOL    HW215768   0.058   6.577   0.194 -0.2576  0.0323  1.6258
 4957SOL     OW15769   5.570   3.810   3.074  0.2035  0.0493  0.1600
 4957SOL    HW115770   5.568   3.844   2.980  0.2962  1.9868  0.8051
 4957SOL    HW215771   5.588   3.712   3.074 -0.5416 -0.1296 -1.8561
 4958SOL     OW15772   6.361   0.033   5.980  0.3825 -0.2529 -0.4320
 4958SOL    HW115773   6.447  -0.016   5.998 -0.2517 -1.0775  0.4740
 4958SOL    HW215774   6.322   0.001   5.894  0.1609 -1.0941 -0.0291
 4959SOL     OW15775   3.646   6.062   2.916  0.4140  0.4873 -0.0588
 4959SOL    HW115776   3.713   6.090   2.984  1.8328 -1.4594 -0.5952
 4959SOL    HW215777   3.608   5.973   2.939  0.5839 -0.0048 -1.5622
 4960SOL     OW15778   2.923   5.193   4.142 -0.2915  0.2549  1.0589
 4960SOL    HW115779   2.969   5.281   4.131 -1.1388  0.7241  1.1832
 4960SOL    HW215780   2.902   5.156   4.051 -1.1096  0.8208  1.0049
 4961SOL     OW15781   0.525   0.534   1.120  0.1263 -0.6724 -0.4582
 4961SOL    HW115782   0.495   0.485   1.201  0.5930 -0.2094  0.0010
 4961SOL    HW215783   0.539   0.469   1.045  1.2163 -1.3265  0.2790
 4962SOL     OW15784   3.616   4.178   5.264 -0.3097  0.2859  0.3659
 4962SOL    HW115785   3.649   4.168   5.170  0.8299  0.6525  0.7094
 4962SOL    HW215786   3.656   4.260   5.305  0.5727 -0.7856  1.7289
 4963SOL     OW15787   1.321   4.297   3.826  0.4112  0.0627  0.2598
 4963SOL    HW115788   1.344   4.358   3.901 -2.8592  0.5297  1.0537
 4963SOL    HW215789   1.234   4.326   3.785  0.4327 -2.1247 -1.5361
 4964SOL     OW15790   2.339   6.537   0.661 -0.1201 -0.1436 -0.1739
 4964SOL    HW115791   2.302   6.584   0.741  0.7629  0.6660 -0.2223
 4964SOL    HW215792   2.296   6.574   0.578  1.0686  1.1101 -0.2613
 4965SOL     OW15793   4.833   2.469   4.558 -0.0980  0.0738  0.1322
 4965SOL    HW115794   4.919   2.514   4.535 -0.4241  0.4098 -0.4744
 4965SOL    HW215795   4.766   2.537   4.589 -0.4519 -0.0423 -0.3590
 4966SOL     OW15796   5.570   4.933   2.521  0.1701  0.3042 -0.0196
 4966SOL    HW115797   5.602   4.918   2.615  1.1940  0.5524 -0.3115
 4966SOL    HW215798   5.546   5.030   2.510 -1.5965 -0.0447  0.4479
 4967SOL     OW15799   0.358   3.412   5.756  0.6491  0.3729  0.0132
 4967SOL    HW115800   0.331   3.483   5.690 -1.2269 -1.4292 -1.2918
 4967SOL    HW215801   0.333   3.322   5.720  1.3845 -0.8577  2.3704
 4968SOL     OW15802   4.332   1.608   5.001  0.0616  0.1830  0.4388
 4968SOL    HW115803   4.403   1.537   5.010  0.4032  0.6101  1.2772
 4968SOL    HW215804   4.366   1.682   4.943  0.4506  0.5494  1.1186
 4969SOL     OW15805   0.251   0.839   4.844  0.5743  0.1106  0.5371
 4969SOL    HW115806   0.180   0.871   4.781  1.2423  0.7068  0.0553
 4969SOL    HW215807   0.247   0.740   4.852  0.4897  0.0172 -0.4845
 4970SOL     OW15808   6.108   0.941   4.341  0.9227  0.5491 -0.6320
 4970SOL    HW115809   6.085   0.980   4.251  1.2852  1.1789 -0.4615
 4970SOL    HW215810   6.172   0.865   4.329 -1.9507 -1.9536 -1.2053
 4971SOL     OW15811   1.724   4.419   4.861  0.2862  0.2657 -0.7584
 4971SOL    HW115812   1.822   4.438   4.858  0.4195  0.0770  1.3923
 4971SOL    HW215813   1.703   4.360   4.938 -1.6082  0.7660 -0.8355
 4972SOL     OW15814   2.401   2.448   0.907 -0.0873  0.0340  0.4532
 4972SOL    HW115815   2.397   2.501   0.991  0.3357  0.4155  0.2369
 4972SOL    HW215816   2.417   2.352   0.929  0.8636  0.2560  0.7809
 4973SOL     OW15817   3.555   4.166   3.664 -0.6945 -0.4234  0.2801
 4973SOL    HW115818   3.606   4.247   3.637 -0.5108 -0.7883 -0.5037
 4973SOL    HW215819   3.599   4.122   3.742 -0.1783 -0.3748  0.0164
 4974SOL     OW15820   6.720   5.013   4.762 -0.1708 -0.0782  0.1951
 4974SOL    HW115821   6.651   5.039   4.829 -1.4288 -0.8920 -0.7213
 4974SOL    HW215822   6.811   5.039   4.795 -1.0127  2.4106  0.7672
 4975SOL     OW15823   2.795   4.712   2.889  0.1160  0.2259 -0.2700
 4975SOL    HW115824   2.820   4.742   2.981  0.7570 -0.5741 -0.1714
 4975SOL    HW215825   2.855   4.756   2.822  2.4220 -2.2246  0.0156
 4976SOL     OW15826   0.439   5.747   3.752  0.5192  0.2586 -0.1230
 4976SOL    HW115827   0.451   5.844   3.732  0.3213  0.6795  1.6224
 4976SOL    HW215828   0.391   5.702   3.676  2.6327  0.9979 -1.9909
 4977SOL     OW15829   4.692   4.585   1.693  0.9382 -0.2835  0.2033
 4977SOL    HW115830   4.749   4.666   1.706  1.9140 -0.8496 -0.3878
 4977SOL    HW215831   4.688   4.533   1.778 -0.2859  0.7389  0.7926
 4978SOL     OW15832   0.770   0.377   3.071 -0.6520  0.0069 -0.0874
 4978SOL    HW115833   0.857   0.368   3.021 -0.2292 -0.9160  0.7769
 4978SOL    HW215834   0.725   0.462   3.044  1.4162  1.4597  0.7817
 4979SOL     OW15835   2.327   0.343   7.006 -0.0838  0.9634 -1.1556
 4979SOL    HW115836   2.302   0.386   7.094 -0.6990  0.2553 -0.9731
 4979SOL    HW215837   2.264   0.373   6.935 -0.0887  0.8995 -1.1783
 4980SOL     OW15838   6.379   5.332   3.010 -0.3418  0.0255 -0.0304
 4980SOL    HW115839   6.331   5.333   3.097  1.5077  2.6552  1.0631
 4980SOL    HW215840   6.471   5.296   3.023 -0.3000 -0.2786 -1.0693
 4981SOL     OW15841   6.311   5.167   6.707  0.0672  0.3857  0.5068
 4981SOL    HW115842   6.391   5.219   6.679  0.6935 -0.4810  0.6350
 4981SOL    HW215843   6.275   5.204   6.792 -0.8209  1.9644 -0.4995
 4982SOL     OW15844   5.512   1.869   2.681 -0.2594  0.2059  0.6836
 4982SOL    HW115845   5.451   1.871   2.601  0.7526 -1.2110 -0.1690
 4982SOL    HW215846   5.594   1.923   2.661  0.1569 -0.4435  0.6066
 4983SOL     OW15847   1.935   4.478   3.489 -0.2667 -0.0824  0.2496
 4983SOL    HW115848   1.914   4.428   3.405 -0.6541  1.6437 -0.7325
 4983SOL    HW215849   1.860   4.466   3.554 -1.1788  0.6097 -0.6448
 4984SOL     OW15850   5.024   3.429   6.947 -0.0643  0.0185  0.0657
 4984SOL    HW115851   5.005   3.526   6.931 -3.1591 -0.2728  1.2704
 4984SOL    HW215852   5.026   3.381   6.860 -2.7586  0.5896 -0.4138
 4985SOL     OW15853   6.828   4.790   2.696  0.1897  0.3571  0.1663
 4985SOL    HW115854   6.769   4.713   2.672 -1.2864  0.8966  1.8444
 4985SOL    HW215855   6.922   4.759   2.703 -0.3563 -1.3025  0.6687
 4986SOL     OW15856   2.242   0.564   2.234  0.2365  0.2111 -0.2687
 4986SOL    HW115857   2.247   0.469   2.201 -0.5574  0.0389  0.0890
 4986SOL    HW215858   2.253   0.626   2.157  1.2025 -0.1610 -0.4485
 4987SOL     OW15859   4.101   1.658   5.868 -0.3056  0.2490  0.3020
 4987SOL    HW115860   4.041   1.738   5.873 -0.5582  0.1097 -0.3083
 4987SOL    HW215861   4.187   1.677   5.914  0.4279  1.5970 -1.4930
 4988SOL     OW15862   3.043   5.729   6.100  0.2312  0.2904 -0.2731
 4988SOL    HW115863   2.990   5.813   6.113 -0.1670 -0.0917  0.6788
 4988SOL    HW215864   3.130   5.750   6.055  1.9139  1.8755  3.2828
 4989SOL     OW15865   3.501   4.354   1.741 -0.3275  0.4347 -0.1528
 4989SOL    HW115866   3.506   4.445   1.782 -0.7450  0.4093 -0.0450
 4989SOL    HW215867   3.529   4.286   1.809  0.2186  0.4995 -0.3071
 4990SOL     OW15868   5.818   2.928   4.773  0.4482 -0.1859  0.1115
 4990SOL    HW115869   5.721   2.903   4.769  0.6558 -0.8892 -0.9818
 4990SOL    HW215870   5.849   2.927   4.868 -0.8842  1.1626  0.6029
 4991SOL     OW15871   3.498   5.812   5.029 -0.4944 -0.3187  0.6111
 4991SOL    HW115872   3.507   5.836   5.126 -0.7391 -0.4884  0.6759
 4991SOL    HW215873   3.585   5.774   4.997  0.2335  1.5427  0.2464
 4992SOL     OW15874   0.201   3.224   3.337  0.4316  0.2585 -0.9102
 4992SOL    HW115875   0.227   3.176   3.421  2.5549  1.3432 -0.8797
 4992SOL    HW215876   0.114   3.188   3.304  0.8260 -2.0204  0.3127
 4993SOL     OW15877   6.210   6.932   4.550 -0.6635  0.2787 -0.1725
 4993SOL    HW115878   6.125   6.942   4.498 -0.1554 -0.3442 -1.1607
 4993SOL    HW215879   6.211   6.997   4.625 -1.3383  1.3718 -1.0718
 4994SOL     OW15880   4.551   6.664   5.065  0.4604 -0.3849  0.0499
 4994SOL    HW115881   4.508   6.750   5.093  1.7535  0.3088 -0.0161
 4994SOL    HW215882   4.609   6.630   5.139  0.4285 -0.8829 -0.1515
 4995SOL     OW15883   5.243   6.276   0.045  0.3512 -0.3747  0.3791
 4995SOL    HW115884   5.215   6.335   0.121  1.3229  0.2813  0.2428
 4995SOL    HW215885   5.209   6.315  -0.040 -1.5343 -1.5923  0.5096
 4996SOL     OW15886   2.997   4.594   6.889 -0.2474 -0.2814  0.1568
 4996SOL    HW115887   2.910   4.581   6.936  0.3147 -0.9387  1.0475
 4996SOL    HW215888   3.066   4.534   6.929  0.3707 -0.5452 -1.2302
 4997SOL     OW15889   6.466   3.836   5.133  0.3295 -0.7125  0.6505
 4997SOL    HW115890   6.455   3.782   5.216  0.7287 -0.7819  0.6593
 4997SOL    HW215891   6.451   3.933   5.153  1.0975 -0.6510  0.9454
 4998SOL     OW15892   0.820   4.524   0.180  0.2878  0.1744  0.1270
 4998SOL    HW115893   0.788   4.567   0.265 -0.0604 -0.6167  0.4052
 4998SOL    HW215894   0.914   4.552   0.161  0.1194  0.9297  0.3863
 4999SOL     OW15895   2.221   4.550   4.488  0.1924 -0.4430 -0.3272
 4999SOL    HW115896   2.152   4.491   4.447 -1.2328 -1.2320  2.8927
 4999SOL    HW215897   2.178   4.614   4.551  2.2748 -0.1896  0.9496
 5000SOL     OW15898   5.210   4.556   3.400 -0.1720  0.3062 -0.2470
 5000SOL    HW115899   5.189   4.459   3.386  0.0890 -0.1134  1.9119
 5000SOL    HW215900   5.211   4.603   3.312  1.1612 -1.9435 -1.5347
 5001SOL     OW15901   1.850   0.030   1.400 -1.0526 -0.5909 -0.3514
 5001SOL    HW115902   1.870   0.123   1.369 -0.7062 -0.6037 -0.1732
 5001SOL    HW215903   1.796   0.034   1.484 -0.8429 -0.5432 -0.2151
 5002SOL     OW15904   6.754   2.866   5.160  0.3734 -0.2284  0.0017
 5002SOL    HW115905   6.820   2.935   5.130 -0.6039  0.6890 -0.1312
 5002SOL    HW215906   6.800   2.778   5.171  1.1496 -0.2429 -2.5606
 5003SOL     OW15907   1.162   0.761   2.833 -0.4475 -0.1019  0.2494
 5003SOL    HW115908   1.259   0.749   2.855 -0.5834  0.9254  1.4973
 5003SOL    HW215909   1.133   0.689   2.770  0.5951 -1.7118  1.5366
 5004SOL     OW15910   2.641   2.360   6.749  0.6841  0.2158  0.2365
 5004SOL    HW115911   2.628   2.444   6.697  0.9067  0.0101 -0.1560
 5004SOL    HW215912   2.567   2.296   6.728  0.6825  0.1965  0.3004
 5005SOL     OW15913   4.917   6.107   6.475  0.0607 -0.5046  0.1309
 5005SOL    HW115914   4.916   6.194   6.427  1.7992 -0.7495 -0.4288
 5005SOL    HW215915   5.002   6.098   6.527  0.9150 -2.7126 -1.4892
 5006SOL     OW15916   5.001   0.020   4.424  0.2387  0.3138  0.2906
 5006SOL    HW115917   4.964  -0.062   4.466  1.3184  0.9194  2.5564
 5006SOL    HW215918   5.101   0.014   4.420  0.2481  0.8761 -0.9942
 5007SOL     OW15919   4.030   6.197   4.746  0.0731 -0.1219 -0.9001
 5007SOL    HW115920   4.077   6.283   4.766  1.7975 -1.3348  0.5105
 5007SOL    HW215921   3.948   6.216   4.691 -0.4999  2.5846  0.7019
 5008SOL     OW15922   2.327   2.029   1.955  0.0817  0.0920  0.7480
 5008SOL    HW115923   2.416   1.986   1.973  0.1440 -1.0223 -1.7131
 5008SOL    HW215924   2.332   2.127   1.975  1.4886 -0.1730  1.8076
 5009SOL     OW15925   5.989   4.123   0.680 -0.3138 -0.3452 -0.1053
 5009SOL    HW115926   6.015   4.220   0.685  2.3581 -1.0197  1.1200
 5009SOL    HW215927   5.966   4.100   0.586  1.0509  1.0439 -0.8373
 5010SOL     OW15928   0.157   2.132   0.622  0.3992 -0.2379 -0.1043
 5010SOL    HW115929   0.142   2.046   0.574 -0.5454  0.6670 -1.4996
 5010SOL    HW215930   0.082   2.147   0.687 -0.8300  0.6741 -1.6546
 5011SOL     OW15931   4.779   3.224   6.883  0.5847 -0.3047 -0.0136
 5011SOL    HW115932   4.833   3.141   6.895  2.5950  1.1314  1.6028
 5011SOL    HW215933   4.788   3.257   6.789  1.1932 -0.9841 -0.1970
 5012SOL     OW15934   1.592   3.884   0.092  0.3444 -0.2434 -0.2613
 5012SOL    HW115935   1.583   3.852  -0.003  2.9163  1.0133 -1.0254
 5012SOL    HW215936   1.624   3.979   0.092 -1.7233  0.5430  1.9247
 5013SOL     OW15937   1.722   5.747   3.029 -0.4260 -0.0377 -0.2027
 5013SOL    HW115938   1.702   5.742   3.127 -0.0632  2.4056  0.0594
 5013SOL    HW215939   1.639   5.774   2.980 -0.8782 -2.2273 -0.7640
 5014SOL     OW15940   5.620   6.510   3.111  0.1148 -0.1073  0.4489
 5014SOL    HW115941   5.690   6.445   3.138 -0.5034 -0.7686  0.4969
 5014SOL    HW215942   5.588   6.561   3.191 -0.2866 -0.6399  0.6340
 5015SOL     OW15943   0.763   3.531   2.853  0.0367  0.3230  0.0734
 5015SOL    HW115944   0.828   3.458   2.832  0.6691  1.4202 -2.1440
 5015SOL    HW215945   0.670   3.496   2.845  0.3323 -0.5324  0.2805
 5016SOL     OW15946   3.911   5.311   5.421  0.4169  0.3602 -0.2337
 5016SOL    HW115947   3.952   5.222   5.403  1.5884  0.9907 -0.7612
 5016SOL    HW215948   3.815   5.299   5.448  0.6904 -1.0761  0.1613
 5017SOL     OW15949   2.633   3.297   6.839 -0.2674  0.3573  0.4663
 5017SOL    HW115950   2.639   3.248   6.926 -0.9364 -1.1352 -0.2945
 5017SOL    HW215951   2.589   3.386   6.854  0.0969  0.3496  1.7187
 5018SOL     OW15952   1.737   6.801   2.184  0.4820  0.1302 -0.0589
 5018SOL    HW115953   1.776   6.775   2.095 -0.1636  0.2406 -0.3761
 5018SOL    HW215954   1.776   6.889   2.212  1.2846 -0.2780  0.1510
 5019SOL     OW15955   3.885   6.896   4.481 -0.4793 -0.3280  0.4018
 5019SOL    HW115956   3.976   6.930   4.504 -1.2916  1.1661  1.5953
 5019SOL    HW215957   3.861   6.923   4.388 -0.4610  1.0089  0.7699
 5020SOL     OW15958   6.591   5.254   2.489  0.1108 -0.9555 -0.2091
 5020SOL    HW115959   6.495   5.227   2.493 -0.5083  1.2092  0.6252
 5020SOL    HW215960   6.641   5.208   2.562 -0.5049 -1.2505  0.0340
 5021SOL     OW15961   2.551   3.210   0.099  0.4632 -0.2895 -0.2810
 5021SOL    HW115962   2.650   3.220   0.096  0.4013  1.0496  0.7919
 5021SOL    HW215963   2.524   3.167   0.185 -0.0508  3.6457  1.7789
 5022SOL     OW15964   5.035   0.449   3.779 -0.3378  0.2195 -0.4576
 5022SOL    HW115965   4.944   0.414   3.758 -0.4681  0.3095 -0.0367
 5022SOL    HW215966   5.031   0.510   3.858  0.2764 -0.7636  0.3629
 5023SOL     OW15967   0.376   6.385   5.661 -0.3160  0.2282  0.1801
 5023SOL    HW115968   0.399   6.419   5.752 -0.6388 -0.3625  0.4938
 5023SOL    HW215969   0.282   6.350   5.662  0.2153 -1.3032  0.0817
 5024SOL     OW15970   5.732   5.645   5.279 -0.6067  0.0998  0.3011
 5024SOL    HW115971   5.736   5.740   5.249  0.5413  0.1400  0.5325
 5024SOL    HW215972   5.762   5.585   5.205 -1.9698 -0.1564 -0.0744
 5025SOL     OW15973   3.456   3.905   4.800 -0.7273  0.8759 -0.3320
 5025SOL    HW115974   3.529   3.843   4.771  0.0778  0.7822  1.7112
 5025SOL    HW215975   3.473   3.996   4.764  0.5116  0.8883  0.2113
 5026SOL     OW15976   2.002   1.315   1.868  0.3410 -0.3575  0.1909
 5026SOL    HW115977   1.976   1.247   1.936 -1.7657 -0.5779 -0.7444
 5026SOL    HW215978   2.020   1.402   1.913 -2.6348 -0.0498  0.9789
 5027SOL     OW15979   1.300   5.803   6.616 -0.0736  0.9030 -0.2133
 5027SOL    HW115980   1.220   5.780   6.672 -0.3738 -0.4296 -1.1487
 5027SOL    HW215981   1.273   5.867   6.544 -0.2758  0.6126 -0.4022
 5028SOL     OW15982   6.407   1.932   6.922 -0.3235  0.1709 -0.4038
 5028SOL    HW115983   6.505   1.938   6.941 -0.6904 -0.6399  2.1330
 5028SOL    HW215984   6.380   2.009   6.865  1.9646 -0.2342 -2.1960
 5029SOL     OW15985   5.223   2.927   1.465  0.0230 -0.2965  0.1789
 5029SOL    HW115986   5.165   2.994   1.511 -0.6352  0.5126 -1.7263
 5029SOL    HW215987   5.226   2.843   1.520 -2.0187  0.0425  0.9173
 5030SOL     OW15988   3.730   3.344   3.321  0.0315  0.1346 -0.5917
 5030SOL    HW115989   3.785   3.311   3.398 -0.0691  0.2475 -0.4700
 5030SOL    HW215990   3.782   3.334   3.236  0.9284  1.7889 -0.2955
 5031SOL     OW15991   5.734   6.906   0.690 -0.0902  0.4024 -0.4639
 5031SOL    HW115992   5.827   6.869   0.691 -0.6238 -1.1350 -2.1856
 5031SOL    HW215993   5.689   6.888   0.778  0.3648 -1.2611 -0.5446
 5032SOL     OW15994   1.665   3.599   5.053 -0.3906 -0.2310  0.3240
 5032SOL    HW115995   1.709   3.526   4.999 -2.7558 -1.4509 -0.0946
 5032SOL    HW215996   1.692   3.688   5.017  1.2840 -0.9203 -0.2252
 5033SOL     OW15997   6.034   6.812   5.893 -0.1036  0.8371 -0.4521
 5033SOL    HW115998   5.973   6.850   5.823  1.4508  0.0240 -2.3315
 5033SOL    HW215999   6.129   6.828   5.867  0.5324  0.7224  1.6452
 5034SOL     OW16000   6.946   3.861   0.373  0.3186 -0.2082  0.3131
 5034SOL    HW116001   7.026   3.856   0.432  1.1648 -0.6722 -0.8405
 5034SOL    HW216002   6.866   3.884   0.428  0.6205 -2.8959  2.0772
 5035SOL     OW16003   4.839   6.301   3.360 -0.2137  0.2528  0.0337
 5035SOL    HW116004   4.844   6.368   3.434  0.7389 -2.0325  2.1957
 5035SOL    HW216005   4.932   6.277   3.331 -0.2916 -2.3976  1.6285
 5036SOL     OW16006   3.717   2.193   1.297 -0.4189  0.2068  0.6800
 5036SOL    HW116007   3.761   2.109   1.329  0.5858  0.4430 -0.0229
 5036SOL    HW216008   3.754   2.271   1.347 -2.8009  0.1106  2.7904
 5037SOL     OW16009   1.423   0.064   4.679  0.9232  0.6422  0.4446
 5037SOL    HW116010   1.439   0.041   4.583 -1.5386  0.2109  0.0731
 5037SOL    HW216011   1.447   0.159   4.695 -0.7097  1.3838 -1.1866
 5038SOL     OW16012   0.421   6.821   1.337  0.7882 -0.8386 -0.8905
 5038SOL    HW116013   0.465   6.809   1.426  1.7534  1.8966 -0.9307
 5038SOL    HW216014   0.484   6.796   1.264  1.4362  0.6816 -0.8776
 5039SOL     OW16015   1.017   2.521   5.805  0.1050 -0.1847 -0.1734
 5039SOL    HW116016   0.976   2.609   5.780 -1.5754 -0.2626  2.0337
 5039SOL    HW216017   1.097   2.537   5.862  0.0723 -0.1044 -0.1506
 5040SOL     OW16018   1.759   3.118   4.817 -0.6168 -0.0332  0.3887
 5040SOL    HW116019   1.691   3.068   4.871  0.2692 -0.0096  1.5745
 5040SOL    HW216020   1.716   3.153   4.733 -2.1677  0.3748  1.3080
 5041SOL     OW16021   5.107   3.137   1.622 -0.2439  0.1796 -0.3785
 5041SOL    HW116022   5.009   3.155   1.623 -0.3023 -0.0651  0.8221
 5041SOL    HW216023   5.157   3.224   1.619 -0.4859  0.2937 -1.3594
 5042SOL     OW16024   2.048   3.903   2.468 -0.2750  0.1121  0.1534
 5042SOL    HW116025   2.085   3.996   2.475 -0.2875  0.3814 -2.2861
 5042SOL    HW216026   1.967   3.904   2.409 -0.1518 -1.4629 -0.0867
 5043SOL     OW16027   5.641   0.148   1.723  1.2279  0.3370  0.2781
 5043SOL    HW116028   5.695   0.081   1.672  0.9798  0.3826 -0.0503
 5043SOL    HW216029   5.584   0.200   1.660 -0.3638 -0.7595  0.7384
 5044SOL     OW16030   6.401   3.675   2.218 -0.1599 -0.2401  0.3591
 5044SOL    HW116031   6.364   3.717   2.301 -0.7859  0.0906 -0.0785
 5044SOL    HW216032   6.340   3.601   2.189 -1.2433  1.1570 -1.1121
 5045SOL     OW16033   5.787   3.000   5.934  0.2946  0.1491 -0.0491
 5045SOL    HW116034   5.761   2.905   5.918 -0.7228  0.4703 -0.3743
 5045SOL    HW216035   5.871   3.003   5.989  0.5250 -0.9295 -0.3211
 5046SOL     OW16036   6.815   0.990   3.848  0.0725 -0.1590 -0.3977
 5046SOL    HW116037   6.833   1.056   3.921  0.2105  0.4817 -1.0017
 5046SOL    HW216038   6.866   1.016   3.767  1.3247 -1.8570 -0.2034
 5047SOL     OW16039   0.428   0.214   6.842  0.5289  0.1924 -0.1606
 5047SOL    HW116040   0.520   0.224   6.802 -0.6112  0.8837 -2.8567
 5047SOL    HW216041   0.436   0.187   6.938  3.5173 -1.6657 -0.7941
 5048SOL     OW16042   3.538   2.373   6.682  0.3757 -0.2159 -0.7914
 5048SOL    HW116043   3.555   2.374   6.780 -0.6229 -0.4761 -0.6065
 5048SOL    HW216044   3.523   2.467   6.650  3.6033  0.2426 -1.2603
 5049SOL     OW16045   3.024   6.057   5.241 -0.8634 -0.2933 -0.8351
 5049SOL    HW116046   3.113   6.012   5.248 -0.2134  1.0981  0.4598
 5049SOL    HW216047   2.951   5.989   5.253 -0.0397 -1.5324 -2.3856
 5050SOL     OW16048   6.681   6.779   6.842  0.2962  0.7989 -0.7125
 5050SOL    HW116049   6.745   6.721   6.892  0.2580  1.5844  0.2727
 5050SOL    HW216050   6.716   6.795   6.749  1.1780  0.6538 -0.4119
 5051SOL     OW16051   4.376   5.900   0.719  0.0870 -0.2647 -0.0696
 5051SOL    HW116052   4.310   5.950   0.775 -0.1882 -1.5421  0.7755
 5051SOL    HW216053   4.361   5.802   0.729  1.0188 -0.5409 -1.2158
 5052SOL     OW16054   3.272   4.090   3.055  0.3363  0.0153  0.5033
 5052SOL    HW116055   3.327   4.127   3.130 -0.7192 -0.9473  1.7899
 5052SOL    HW216056   3.285   4.147   2.973  2.0923  0.6512  1.1674
 5053SOL     OW16057   4.603   6.321   4.528  0.3567  0.5698 -0.1999
 5053SOL    HW116058   4.534   6.275   4.584 -0.3696  1.5378 -0.2740
 5053SOL    HW216059   4.585   6.304   4.431  0.3854  0.6088 -0.2123
 5054SOL     OW16060   1.104   4.602   2.287 -0.9283 -0.1409  0.4806
 5054SOL    HW116061   1.127   4.586   2.191  2.1739  0.0174  1.0915
 5054SOL    HW216062   1.126   4.697   2.311 -1.9102 -0.1058  1.3085
 5055SOL     OW16063   3.413   4.172   4.286  1.1930 -0.2823  0.1260
 5055SOL    HW116064   3.496   4.211   4.324 -0.4101  3.2366  0.3872
 5055SOL    HW216065   3.344   4.164   4.357 -0.0003  0.8973 -0.8471
 5056SOL     OW16066   3.802   5.829   3.050 -0.4015  0.0174 -0.4211
 5056SOL    HW116067   3.845   5.758   3.106 -0.8402 -0.1073 -0.2354
 5056SOL    HW216068   3.749   5.786   2.977  0.6996  0.1911 -1.3519
 5057SOL     OW16069   4.636   1.503   2.465  0.5220  1.2310  0.2082
 5057SOL    HW116070   4.719   1.511   2.520  0.4083 -1.8367  1.0130
 5057SOL    HW216071   4.557   1.496   2.525  0.2739 -0.9475 -0.2944
 5058SOL     OW16072   1.886   1.870   4.636  0.2199  0.3108 -0.1678
 5058SOL    HW116073   1.908   1.952   4.688  1.6801 -0.5840  0.6839
 5058SOL    HW216074   1.793   1.840   4.658 -0.4612  1.8874 -0.7502
 5059SOL     OW16075   5.156   0.197   3.712  0.1242 -0.1638  0.2149
 5059SOL    HW116076   5.244   0.238   3.737  0.8611 -0.9095 -1.0582
 5059SOL    HW216077   5.093   0.202   3.790  0.3967  2.7091  0.3355
 5060SOL     OW16078   2.733   1.707   4.487 -0.4752 -0.0405 -0.6334
 5060SOL    HW116079   2.713   1.789   4.539 -1.2958 -0.2833 -0.5619
 5060SOL    HW216080   2.788   1.731   4.407 -1.2855  0.6726 -0.9864
 5061SOL     OW16081   0.771   0.390   6.574  0.2685 -0.1595  0.6073
 5061SOL    HW116082   0.752   0.487   6.555  2.5794  0.1640 -0.4645
 5061SOL    HW216083   0.862   0.367   6.539 -0.9147 -3.2230 -0.8650
 5062SOL     OW16084   5.740   6.014   2.233  0.5300 -0.4567 -0.0325
 5062SOL    HW116085   5.661   6.037   2.177  0.5286 -1.4473 -0.4587
 5062SOL    HW216086   5.807   6.089   2.230  0.6535 -0.6083 -1.5814
 5063SOL     OW16087   0.796   4.857   3.123 -0.5252 -0.2129  0.3370
 5063SOL    HW116088   0.802   4.772   3.071 -1.4480  0.3001 -0.6505
 5063SOL    HW216089   0.889   4.889   3.145 -0.1259 -0.6581 -0.6416
 5064SOL     OW16090   5.992   1.965   2.620  0.4604 -0.0970  0.1244
 5064SOL    HW116091   6.072   1.997   2.569  0.2748 -1.0437 -0.7910
 5064SOL    HW216092   6.022   1.909   2.697  0.6981 -2.3278 -1.4861
 5065SOL     OW16093   2.893   0.397   0.898  0.2229 -0.8033  0.0080
 5065SOL    HW116094   2.873   0.378   0.802 -0.4758  1.5740 -0.3950
 5065SOL    HW216095   2.807   0.420   0.946  0.7869 -0.0843  0.7086
 5066SOL     OW16096   3.733   0.963   1.984 -0.5015 -0.4358  0.1401
 5066SOL    HW116097   3.774   1.053   1.995  0.1680 -0.9923  3.1207
 5066SOL    HW216098   3.660   0.950   2.051 -1.3259 -1.7584 -0.9347
 5067SOL     OW16099   6.200   5.452   1.504 -0.4430 -0.8901  0.6001
 5067SOL    HW116100   6.204   5.524   1.435 -0.1691 -1.3950  0.0849
 5067SOL    HW216101   6.248   5.482   1.587  0.0184 -0.6436  0.2438
 5068SOL     OW16102   3.894   3.947   5.421  0.2313  0.8252 -0.4636
 5068SOL    HW116103   3.964   3.972   5.353 -0.8162  1.0328 -1.5024
 5068SOL    HW216104   3.860   3.856   5.402 -0.4494  1.0924 -0.5440
 5069SOL     OW16105   4.435   4.873   1.988 -0.9219 -0.3882 -0.4500
 5069SOL    HW116106   4.406   4.786   2.028  0.4890 -0.3498  0.7883
 5069SOL    HW216107   4.528   4.863   1.951  0.3714  1.1403  2.0443
 5070SOL     OW16108   0.688   6.315   6.698 -0.2751  0.1090  0.3290
 5070SOL    HW116109   0.764   6.376   6.679 -1.2376  1.0593 -0.6470
 5070SOL    HW216110   0.659   6.326   6.793 -1.6685  2.7179 -0.2798
 5071SOL     OW16111   4.688   4.670   2.088  0.1363 -0.0391 -0.1976
 5071SOL    HW116112   4.674   4.767   2.104  0.2816  0.0994 -0.8786
 5071SOL    HW216113   4.644   4.617   2.161  2.3787  0.5909  1.7195
 5072SOL     OW16114   3.680   0.273   0.670 -0.1071  0.6918  0.4511
 5072SOL    HW116115   3.727   0.227   0.595 -0.3497 -2.2939  1.9584
 5072SOL    HW216116   3.582   0.275   0.652 -0.1352  0.2301  0.5286
 5073SOL     OW16117   5.406   3.754   5.653  0.3685 -0.1740  0.0678
 5073SOL    HW116118   5.316   3.791   5.633  0.6459 -0.5927 -2.2582
 5073SOL    HW216119   5.434   3.692   5.579  3.1947  1.1494 -0.1172
 5074SOL     OW16120   6.006   4.908   6.829 -0.3991  0.3699 -0.0219
 5074SOL    HW116121   6.007   4.840   6.901 -0.4097  0.4818  0.0844
 5074SOL    HW216122   5.915   4.913   6.787 -0.4712  0.5061  0.1496
 5075SOL     OW16123   1.424   3.817   2.115  0.3204 -0.2199  0.0177
 5075SOL    HW116124   1.411   3.857   2.024 -0.3524 -1.7680 -0.6021
 5075SOL    HW216125   1.376   3.873   2.183 -0.5728  0.0453 -0.8146
 5076SOL     OW16126   2.772   0.017   0.111  0.1927 -0.2866 -0.2274
 5076SOL    HW116127   2.745   0.113   0.100 -1.4186 -0.6578  0.1633
 5076SOL    HW216128   2.804   0.002   0.204 -0.9071 -0.4067  0.1455
 5077SOL     OW16129   2.475   5.804   3.408 -0.1672 -0.5063 -0.0113
 5077SOL    HW116130   2.548   5.853   3.360 -1.3479 -0.3473 -1.7567
 5077SOL    HW216131   2.437   5.863   3.480 -0.6514  0.6662 -1.1811
 5078SOL     OW16132   5.299   3.544   0.285 -0.4541  0.2480 -0.1184
 5078SOL    HW116133   5.313   3.494   0.371 -0.7434  1.6106  0.7419
 5078SOL    HW216134   5.334   3.489   0.209  0.3223 -0.7476  0.9202
 5079SOL     OW16135   5.813   6.381   4.165 -0.0742  0.9762  0.9764
 5079SOL    HW116136   5.871   6.303   4.139 -0.5617  0.4527  1.4347
 5079SOL    HW216137   5.847   6.464   4.120 -2.0520 -0.1558 -3.1161
 5080SOL     OW16138   2.414   1.776   1.715 -0.1824  0.0939 -0.1070
 5080SOL    HW116139   2.393   1.706   1.646  0.6254  0.1334 -0.4072
 5080SOL    HW216140   2.334   1.792   1.772 -0.5538 -0.6654 -0.4049
 5081SOL     OW16141   3.593   5.438   5.618 -0.1826 -0.0064 -0.2441
 5081SOL    HW116142   3.588   5.451   5.519 -0.2584  3.3076  0.0729
 5081SOL    HW216143   3.505   5.406   5.652 -0.8500  0.8946 -1.0665
 5082SOL     OW16144   3.622   2.859   2.245 -0.4177 -0.6001 -0.4448
 5082SOL    HW116145   3.624   2.765   2.278  2.3094 -1.0614 -1.6811
 5082SOL    HW216146   3.691   2.913   2.293 -0.4485  0.2170 -1.2829
 5083SOL     OW16147   1.879   3.638   1.485  0.1546 -0.0964 -0.0214
 5083SOL    HW116148   1.862   3.639   1.583 -0.0693 -0.5234 -0.0554
 5083SOL    HW216149   1.978   3.641   1.468  0.1834  0.2929  0.2093
 5084SOL     OW16150   0.433   2.666   5.584 -0.1170  0.1641  0.5366
 5084SOL    HW116151   0.472   2.602   5.518  0.5384  1.0175  0.0762
 5084SOL    HW216152   0.334   2.653   5.589 -0.3294  0.7702 -1.4118
 5085SOL     OW16153   2.539   6.776   5.736  0.0009 -0.5435  0.3150
 5085SOL    HW116154   2.558   6.810   5.644 -3.0474  0.7423  0.0238
 5085SOL    HW216155   2.531   6.677   5.735 -1.7016 -0.4519 -1.2715
 5086SOL     OW16156   3.206   0.143   4.629  0.8957  0.5970  0.5904
 5086SOL    HW116157   3.176   0.214   4.566  1.0476  1.5910  1.5999
 5086SOL    HW216158   3.133   0.077   4.642 -0.2261  1.9897  1.6168
 5087SOL     OW16159   6.207   1.739   5.721  0.1692 -0.2150  0.1924
 5087SOL    HW116160   6.142   1.713   5.793 -0.6353  0.1334 -0.3906
 5087SOL    HW216161   6.288   1.780   5.762  0.5831 -1.8035  1.0117
 5088SOL     OW16162   2.634   2.784   6.177 -0.3772  0.7987 -0.4322
 5088SOL    HW116163   2.733   2.786   6.195 -0.1860 -0.9716 -1.0961
 5088SOL    HW216164   2.591   2.863   6.222  1.1933  1.0783  0.6948
 5089SOL     OW16165   5.036   4.320   3.824 -0.7052 -0.4844 -0.0328
 5089SOL    HW116166   4.992   4.231   3.812  0.5557 -0.8123 -3.0539
 5089SOL    HW216167   5.134   4.311   3.810 -0.3195  1.1267  1.3475
 5090SOL     OW16168   3.174   4.946   0.598 -0.2323  0.1484 -0.2932
 5090SOL    HW116169   3.109   5.021   0.590  1.6800  1.7978 -1.1957
 5090SOL    HW216170   3.241   4.968   0.669  0.1567 -0.8814 -0.3235
 5091SOL     OW16171   4.265   6.804   2.549  0.3216 -0.2258 -0.3323
 5091SOL    HW116172   4.269   6.735   2.477  1.5965  0.1592 -0.6535
 5091SOL    HW216173   4.313   6.770   2.630  0.9362  0.2624 -0.4847
 5092SOL     OW16174   2.711   2.240   4.058 -0.1440 -0.0231  0.4015
 5092SOL    HW116175   2.754   2.171   4.000  0.7881 -1.3795  2.6043
 5092SOL    HW216176   2.639   2.287   4.006  2.2792  0.6517 -2.6382
 5093SOL     OW16177   2.774   5.874   3.612 -0.2776  0.0089 -0.0404
 5093SOL    HW116178   2.791   5.876   3.514 -0.5436  1.0217 -0.0812
 5093SOL    HW216179   2.846   5.821   3.658  2.2039  2.7967 -0.3690
 5094SOL     OW16180   0.417   0.434   1.393  0.1431  0.7791 -0.0125
 5094SOL    HW116181   0.326   0.398   1.370  0.2620 -0.2384  0.9799
 5094SOL    HW216182   0.412   0.480   1.482  0.5512  0.9246 -0.0668
 5095SOL     OW16183   3.575   3.252   5.906  0.0495 -0.7776  0.7679
 5095SOL    HW116184   3.619   3.260   5.817  0.0819 -0.5341  0.8044
 5095SOL    HW216185   3.490   3.200   5.897 -0.6884  0.4488  0.3295
 5096SOL     OW16186   5.603   6.023   6.825  0.4226  0.4438  0.2400
 5096SOL    HW116187   5.656   6.100   6.861 -2.1038  2.0633  0.7309
 5096SOL    HW216188   5.516   6.056   6.789 -0.0605 -2.0171 -1.0895
 5097SOL     OW16189   0.179   0.669   6.347  0.7197 -0.9059  0.1077
 5097SOL    HW116190   0.180   0.768   6.335 -1.8556 -1.0555 -2.7371
 5097SOL    HW216191   0.260   0.629   6.305  1.0877 -0.0828  0.0181
 5098SOL     OW16192   6.643   2.364   6.024 -0.8228  0.5009  0.1120
 5098SOL    HW116193   6.605   2.275   6.047  0.5566 -0.1637 -0.0252
 5098SOL    HW216194   6.652   2.420   6.107 -2.2241  0.7478  0.1133
 5099SOL     OW16195   6.022   0.959   4.064 -0.6892  0.2315 -0.3443
 5099SOL    HW116196   5.925   0.958   4.038 -0.7714  0.9791 -0.0945
 5099SOL    HW216197   6.078   0.979   3.984 -0.8130  0.7607 -0.3006
 5100SOL     OW16198   2.928   5.868   1.118  0.1584 -0.4464 -0.6550
 5100SOL    HW116199   2.883   5.779   1.116 -3.2173  0.7160  4.3299
 5100SOL    HW216200   3.014   5.861   1.168 -0.3738 -0.8561  0.2170
 5101SOL     OW16201   4.758   5.057   5.587 -0.1882  0.3932  0.2406
 5101SOL    HW116202   4.792   5.127   5.524 -2.1994  1.9162  0.7210
 5101SOL    HW216203   4.808   5.061   5.673  0.7119  0.2079 -0.2692
 5102SOL     OW16204   1.373   2.751   4.767 -0.2862 -0.2271  0.0212
 5102SOL    HW116205   1.427   2.803   4.833  0.5504 -1.1338  0.0743
 5102SOL    HW216206   1.339   2.668   4.810  0.7592 -1.1285 -0.8166
 5103SOL     OW16207   2.038   6.252   0.578  0.0862  0.3725 -0.6612
 5103SOL    HW116208   2.110   6.248   0.647 -0.1893  0.7815 -0.3459
 5103SOL    HW216209   2.046   6.173   0.516  1.2001  0.7512 -1.0247
 5104SOL     OW16210   0.054   5.097   6.130 -0.9159 -0.8335 -0.2711
 5104SOL    HW116211  -0.044   5.120   6.131 -0.9759 -1.0618 -0.6126
 5104SOL    HW216212   0.083   5.083   6.036 -0.7492 -1.5916 -0.1117
 5105SOL     OW16213   2.103   5.367   5.868  0.0870 -0.1961 -0.1895
 5105SOL    HW116214   2.089   5.466   5.866 -3.2331 -0.5436  0.1129
 5105SOL    HW216215   2.078   5.328   5.779 -1.4993 -0.9873  0.5503
 5106SOL     OW16216   6.790   1.702   6.784  0.6930  0.1986 -0.3038
 5106SOL    HW116217   6.776   1.800   6.769  0.5774 -0.1204 -2.5917
 5106SOL    HW216218   6.701   1.658   6.800  0.7788  0.4933  1.0681
 5107SOL     OW16219   1.108   3.731   2.227  0.5815 -0.2542 -0.5066
 5107SOL    HW116220   1.166   3.810   2.207 -1.2183  1.5904  1.1005
 5107SOL    HW216221   1.118   3.706   2.323 -1.1754  0.0709 -0.2059
 5108SOL     OW16222   6.683   2.641   2.652  0.6673 -0.3821  0.1647
 5108SOL    HW116223   6.672   2.728   2.700 -1.6679 -0.3816 -0.2856
 5108SOL    HW216224   6.607   2.580   2.673  1.8841 -2.0907 -0.0899
 5109SOL     OW16225   6.974   5.294   0.692 -0.4047  0.0849 -0.1712
 5109SOL    HW116226   6.879   5.323   0.685 -0.5000 -0.4651 -5.0399
 5109SOL    HW216227   6.978   5.194   0.693  0.0488  0.0711 -1.2881
 5110SOL     OW16228   1.281   6.195   1.650 -0.4331 -0.4463 -0.0612
 5110SOL    HW116229   1.257   6.270   1.712 -1.0047 -0.9119  0.2887
 5110SOL    HW216230   1.200   6.170   1.595  0.0674 -0.0259 -1.0192
 5111SOL     OW16231   2.139   2.935   1.665  0.4569  0.4104 -0.3739
 5111SOL    HW116232   2.237   2.954   1.674  0.6968  0.6177 -2.7474
 5111SOL    HW216233   2.110   2.955   1.571 -2.2487  2.0040  0.6828
 5112SOL     OW16234   4.475   2.219   0.253 -0.2006  0.0747 -0.3706
 5112SOL    HW116235   4.568   2.217   0.217  0.5027  2.2730  1.1096
 5112SOL    HW216236   4.450   2.129   0.288  0.8503 -0.8700 -1.9578
 5113SOL     OW16237   1.616   2.526   1.451 -0.5011 -0.0482  0.1101
 5113SOL    HW116238   1.542   2.495   1.392 -1.1931  1.9499 -0.1803
 5113SOL    HW216239   1.650   2.450   1.506 -2.0060 -1.2562 -0.5618
 5114SOL     OW16240   0.843   2.389   2.025 -0.2681  0.0849 -0.1398
 5114SOL    HW116241   0.905   2.323   1.983  0.8733  1.1811 -0.2322
 5114SOL    HW216242   0.840   2.374   2.124 -0.4539 -0.4468 -0.2212
 5115SOL     OW16243   2.880   0.597   5.768 -0.1521  0.0227 -0.1794
 5115SOL    HW116244   2.879   0.691   5.735  0.0652  1.6035  3.7782
 5115SOL    HW216245   2.789   0.571   5.800  0.0148 -0.7771 -0.3102
 5116SOL     OW16246   5.752   6.696   5.353  0.0259  0.5753  0.0341
 5116SOL    HW116247   5.837   6.687   5.301 -0.2653 -1.5188 -0.1672
 5116SOL    HW216248   5.747   6.622   5.420 -1.8703  0.3387 -0.3196
 5117SOL     OW16249   5.036   0.076   5.925 -0.3861 -0.0816  0.2139
 5117SOL    HW116250   5.115   0.016   5.933  1.0994  2.0134  2.4957
 5117SOL    HW216251   4.966   0.031   5.868  1.9863 -2.4012 -1.0901
 5118SOL     OW16252   6.217   1.910   6.057 -0.0414 -0.0079  0.0873
 5118SOL    HW116253   6.243   1.950   6.145  0.0319  0.6225 -0.2142
 5118SOL    HW216254   6.282   1.938   5.987 -0.5676  0.1817 -0.3314
 5119SOL     OW16255   1.847   6.721   4.990 -0.4795  0.8086 -0.2335
 5119SOL    HW116256   1.932   6.769   5.008 -0.1511 -0.6154  2.4545
 5119SOL    HW216257   1.856   6.667   4.906  1.4841  0.2517  0.2885
 5120SOL     OW16258   0.279   4.826   0.817  0.7279 -0.0417  0.5736
 5120SOL    HW116259   0.263   4.908   0.872 -0.9875  0.3960 -0.5088
 5120SOL    HW216260   0.350   4.846   0.749 -0.8373  1.1531 -0.7902
 5121SOL     OW16261   6.431   1.728   0.870  0.0637  0.0525  0.3787
 5121SOL    HW116262   6.503   1.785   0.910  0.8442  0.7771 -1.8799
 5121SOL    HW216263   6.349   1.733   0.927  0.0156  3.6751  0.2178
 5122SOL     OW16264   2.509   2.025   6.672  0.4384  0.2102  0.4198
 5122SOL    HW116265   2.481   1.955   6.606 -0.8217  0.9207  0.1754
 5122SOL    HW216266   2.460   2.012   6.758 -0.2917  1.1463  0.1652
 5123SOL     OW16267   5.904   6.745   6.906 -0.4910  0.2841 -0.8355
 5123SOL    HW116268   5.858   6.727   6.993 -2.2359 -0.3412 -1.8367
 5123SOL    HW216269   5.996   6.706   6.907 -0.5854  0.0658  0.6170
 5124SOL     OW16270   6.195   5.733   6.203  0.2660 -0.5203  0.2350
 5124SOL    HW116271   6.239   5.823   6.204 -0.6308 -0.0623 -0.0569
 5124SOL    HW216272   6.264   5.662   6.186  0.6154  0.3507 -2.6057
 5125SOL     OW16273   2.618   0.829   0.215 -0.0739 -0.4946  0.2045
 5125SOL    HW116274   2.671   0.781   0.284 -0.0774 -2.4497 -1.0572
 5125SOL    HW216275   2.638   0.791   0.125 -0.7349  1.3564 -0.7893
 5126SOL     OW16276   6.617   4.465   6.315  0.7820  0.0452  0.4174
 5126SOL    HW116277   6.634   4.422   6.227  0.0453  1.0176 -0.2263
 5126SOL    HW216278   6.689   4.531   6.335  1.0055 -0.2520  0.5985
 5127SOL     OW16279   5.882   3.431   0.649 -0.1801  0.4203  0.3998
 5127SOL    HW116280   5.887   3.507   0.585  2.8723  0.2604  0.2813
 5127SOL    HW216281   5.922   3.349   0.607 -0.9775 -0.5460  1.4464
 5128SOL     OW16282   5.087   4.074   1.996  0.2764 -0.0377 -0.2309
 5128SOL    HW116283   5.016   4.003   1.990  0.4874 -0.3077  0.3827
 5128SOL    HW216284   5.101   4.099   2.092 -0.4035  1.4618 -0.4960
 5129SOL     OW16285   4.603   2.781   6.722 -0.2479  0.0680  0.2911
 5129SOL    HW116286   4.691   2.737   6.705 -0.0942  0.4286  0.1436
 5129SOL    HW216287   4.588   2.852   6.654 -1.4223 -1.1062 -0.7134
 5130SOL     OW16288   0.022   0.501   6.529  0.0373 -0.2732  0.3108
 5130SOL    HW116289   0.061   0.534   6.443 -0.4241 -0.1854  0.1312
 5130SOL    HW216290   0.081   0.528   6.605  1.3028 -1.7355 -0.1132
 5131SOL     OW16291   0.159   3.093   6.148  0.2072 -0.5221  0.0616
 5131SOL    HW116292   0.086   3.044   6.101  0.4414 -0.0822 -0.7798
 5131SOL    HW216293   0.187   3.172   6.094  1.4336 -0.7845  0.2801
 5132SOL     OW16294   5.438   2.942   0.656 -0.0990  0.1046 -0.0489
 5132SOL    HW116295   5.455   2.972   0.562  1.4528  0.9959  0.4795
 5132SOL    HW216296   5.339   2.943   0.673 -0.4346 -0.3231 -1.7298
 5133SOL     OW16297   4.849   1.843   6.823  0.0307 -0.2982  0.0755
 5133SOL    HW116298   4.872   1.939   6.803 -0.3231 -0.3151 -0.4568
 5133SOL    HW216299   4.929   1.786   6.810 -0.3804 -0.4436 -2.3399
 5134SOL     OW16300   0.123   0.286   1.671 -0.4003  0.0420  0.0513
 5134SOL    HW116301   0.185   0.266   1.747 -1.4782 -0.5302  0.8184
 5134SOL    HW216302   0.063   0.362   1.697 -1.2229 -0.5978  0.0470
 5135SOL     OW16303   5.418   4.291   0.387  0.2008  0.1473  0.3453
 5135SOL    HW116304   5.350   4.356   0.423  1.4006  0.9773  1.2300
 5135SOL    HW216305   5.372   4.221   0.333 -1.2512  1.2201  0.1093
 5136SOL     OW16306   3.931   2.600   0.092 -0.7646 -0.7270 -0.1370
 5136SOL    HW116307   3.887   2.569   0.177  1.5684 -1.1259  1.0042
 5136SOL    HW216308   3.919   2.530   0.021  0.2070 -2.0315  0.9289
 5137SOL     OW16309   3.136   3.485   1.328  0.7928 -0.3072  0.7345
 5137SOL    HW116310   3.165   3.394   1.299 -0.0901 -0.4242  0.1716
 5137SOL    HW216311   3.216   3.543   1.341  1.3028 -0.0994 -2.4990
 5138SOL     OW16312   0.329   4.229   0.579 -0.0114  0.2605 -0.0057
 5138SOL    HW116313   0.314   4.131   0.564 -1.1471  0.2612  0.9975
 5138SOL    HW216314   0.379   4.267   0.501  1.2441 -1.2802 -0.0185
 5139SOL     OW16315   1.001   4.760   6.844 -0.0978  0.1304 -0.4067
 5139SOL    HW116316   1.000   4.860   6.844 -0.1120  0.1306 -0.2035
 5139SOL    HW216317   0.911   4.726   6.872  0.5291  0.0759  1.7150
 5140SOL     OW16318   1.174   0.755   6.722 -0.4075 -0.2401  0.0841
 5140SOL    HW116319   1.185   0.821   6.647 -1.4282  1.2230  1.1648
 5140SOL    HW216320   1.122   0.798   6.796 -1.4259 -2.3913  0.6837
 5141SOL     OW16321   4.743   0.018   5.215  0.0105  0.8179  0.6867
 5141SOL    HW116322   4.808  -0.028   5.275  1.0738 -0.4302 -1.3211
 5141SOL    HW216323   4.655  -0.029   5.220  0.1394  0.6097  1.1135
 5142SOL     OW16324   4.342   1.850   3.619  0.8113  0.9328  0.2129
 5142SOL    HW116325   4.348   1.950   3.617  0.8066  0.9480 -2.4604
 5142SOL    HW216326   4.426   1.811   3.580  0.2666 -0.0508 -0.0089
 5143SOL     OW16327   3.556   7.011   0.008 -0.2844  0.1004 -0.0167
 5143SOL    HW116328   3.622   7.017  -0.067  0.7024  1.1302  0.8944
 5143SOL    HW216329   3.595   6.957   0.083 -1.0903 -0.5582 -0.0596
 5144SOL     OW16330   6.202   6.887   6.251 -0.0416 -0.2816 -0.2014
 5144SOL    HW116331   6.274   6.818   6.242  1.9746  1.8564 -1.8495
 5144SOL    HW216332   6.130   6.869   6.184  1.7955  0.5755 -2.5617
 5145SOL     OW16333   6.905   4.565   3.329  0.0494  0.1994 -0.2787
 5145SOL    HW116334   6.930   4.557   3.425 -0.9969 -1.4393 -0.1002
 5145SOL    HW216335   6.974   4.619   3.281  2.2216 -1.4665  0.7949
 5146SOL     OW16336   5.189   1.416   5.698  0.0658 -0.5358  0.3512
 5146SOL    HW116337   5.227   1.323   5.698  0.5319 -0.3677 -1.3504
 5146SOL    HW216338   5.215   1.462   5.783 -1.2095 -2.3455  1.8022
 5147SOL     OW16339   1.890   6.030   1.939  0.3435  0.0505 -0.4589
 5147SOL    HW116340   1.899   5.934   1.967 -1.3612 -0.2485 -0.8469
 5147SOL    HW216341   1.893   6.036   1.840  1.6725  0.5735 -0.4122
 5148SOL     OW16342   2.714   3.349   5.732 -0.4058 -0.1249 -0.0803
 5148SOL    HW116343   2.708   3.425   5.668  2.1826  1.1209  1.0075
 5148SOL    HW216344   2.725   3.263   5.682  1.3028  0.7822 -1.3406
 5149SOL     OW16345   6.745   6.549   0.747 -0.2693 -0.1017 -0.0164
 5149SOL    HW116346   6.657   6.532   0.791 -0.5838  2.3560  0.4659
 5149SOL    HW216347   6.786   6.632   0.785  1.0582  0.2370 -2.0068
 5150SOL     OW16348   6.127   3.364   6.652  0.2900 -0.4686 -0.0372
 5150SOL    HW116349   6.082   3.410   6.576  0.2472 -2.1236 -1.0606
 5150SOL    HW216350   6.226   3.362   6.637  0.4168  0.3570  0.6235
 5151SOL     OW16351   0.206   5.957   5.627  0.2741  0.3148 -0.0917
 5151SOL    HW116352   0.167   6.046   5.649 -1.3129 -0.1283 -1.0041
 5151SOL    HW216353   0.304   5.968   5.608  0.0268  1.9269 -0.6119
 5152SOL     OW16354   6.893   3.790   4.577  0.1974 -0.2721  0.1813
 5152SOL    HW116355   6.910   3.749   4.667  0.9537  0.8084  0.5503
 5152SOL    HW216356   6.905   3.889   4.583  1.8548 -0.3155 -1.4529
 5153SOL     OW16357   1.516   6.206   3.667 -0.3267  0.2601  0.6791
 5153SOL    HW116358   1.517   6.233   3.764  0.6023  1.3418  0.3839
 5153SOL    HW216359   1.548   6.111   3.659 -2.2390 -0.5087  1.5933
 5154SOL     OW16360   0.463   0.821   5.158 -0.8785  0.2877 -0.4977
 5154SOL    HW116361   0.371   0.824   5.197 -1.2473 -0.7252 -1.2580
 5154SOL    HW216362   0.473   0.892   5.089 -1.0119  0.5558 -0.2403
 5155SOL     OW16363   3.676   4.175   6.822  0.2658 -0.0252  0.0648
 5155SOL    HW116364   3.595   4.204   6.771  1.6090  1.7660 -1.1711
 5155SOL    HW216365   3.738   4.252   6.834  3.3582 -1.9016 -2.0475
 5156SOL     OW16366   1.498   0.321   0.315  0.0565  0.7797  0.3173
 5156SOL    HW116367   1.466   0.319   0.410  1.7286  1.5119  0.9544
 5156SOL    HW216368   1.503   0.416   0.284  1.0094  0.6691  0.0746
 5157SOL     OW16369   0.467   6.918   5.562 -0.1326  0.2215 -0.1027
 5157SOL    HW116370   0.549   6.872   5.595 -0.5371 -1.1687 -0.9569
 5157SOL    HW216371   0.446   6.996   5.621  1.9238  0.7422 -0.0142
 5158SOL     OW16372   1.746   4.182   6.104  0.7328 -0.2334 -0.2629
 5158SOL    HW116373   1.818   4.148   6.043  0.7726  0.0922 -0.3973
 5158SOL    HW216374   1.775   4.171   6.199  2.9274  3.8620 -0.2247
 5159SOL     OW16375   1.179   6.752   7.006 -0.3411  0.4559 -0.0294
 5159SOL    HW116376   1.161   6.700   7.089 -0.7253  0.6016 -0.0176
 5159SOL    HW216377   1.275   6.744   6.981 -0.1537  0.6760  0.6108
 5160SOL     OW16378   6.310   0.773   5.864  0.2469  0.1536 -0.1022
 5160SOL    HW116379   6.280   0.744   5.773 -0.8017 -0.6755  0.4791
 5160SOL    HW216380   6.306   0.873   5.870 -1.1656  0.1438 -0.4858
 5161SOL     OW16381   6.832   4.203   1.822 -0.0593 -0.1872  0.8189
 5161SOL    HW116382   6.823   4.104   1.820 -0.4483 -0.1465  0.5085
 5161SOL    HW216383   6.748   4.245   1.789 -0.3483  0.2584  2.0618
 5162SOL     OW16384   2.256   3.719   0.229  0.3449  0.4132  0.1072
 5162SOL    HW116385   2.212   3.633   0.256 -0.2986  1.0550  1.2073
 5162SOL    HW216386   2.201   3.795   0.261  0.1084  1.2716 -2.1875
 5163SOL     OW16387   6.817   4.164   4.645  0.4328 -0.0810  0.1914
 5163SOL    HW116388   6.750   4.123   4.707 -0.4854 -1.2314 -1.4679
 5163SOL    HW216389   6.769   4.213   4.572  1.4651  0.9199  0.1637
 5164SOL     OW16390   5.068   0.662   1.105 -0.1389 -0.2812  0.2599
 5164SOL    HW116391   5.037   0.569   1.121 -0.1207 -0.2030  0.7436
 5164SOL    HW216392   5.100   0.671   1.010 -2.6069 -0.1088 -0.6412
 5165SOL     OW16393   5.484   6.561   0.406 -0.1133  0.2892  0.3387
 5165SOL    HW116394   5.434   6.585   0.490  3.1017  1.2782  2.1397
 5165SOL    HW216395   5.497   6.643   0.351  0.7074  0.3539  0.6129
 5166SOL     OW16396   4.535   4.943   2.650 -0.3136  0.2043 -0.2964
 5166SOL    HW116397   4.504   4.895   2.732 -1.4812  0.2078 -0.7233
 5166SOL    HW216398   4.492   4.903   2.569  1.7667 -0.6139 -1.0661
 5167SOL     OW16399   2.356   6.524   2.137 -0.3141  0.1570  0.7710
 5167SOL    HW116400   2.395   6.459   2.072 -0.4967 -0.4997  1.3030
 5167SOL    HW216401   2.327   6.475   2.219 -2.4436  0.5717  0.3386
 5168SOL     OW16402   3.185   2.006   5.025 -0.3022  0.3263  0.0009
 5168SOL    HW116403   3.106   1.953   4.995  0.5129  0.0088 -1.7342
 5168SOL    HW216404   3.165   2.104   5.016 -0.6596  0.2512 -0.0225
 5169SOL     OW16405   1.078   1.956   1.104  0.2122  0.0292  0.0644
 5169SOL    HW116406   1.049   2.031   1.045 -0.0981  1.3337  1.7986
 5169SOL    HW216407   1.134   1.892   1.051  0.8771  1.7030 -1.3609
 5170SOL     OW16408   5.824   0.732   4.417 -0.0597 -0.4523 -0.6576
 5170SOL    HW116409   5.739   0.777   4.444 -0.3376 -0.2455 -1.8033
 5170SOL    HW216410   5.897   0.759   4.479 -1.0624 -1.5928  1.0932
 5171SOL     OW16411   1.543   0.331   4.382 -0.0109  0.6259 -0.4196
 5171SOL    HW116412   1.492   0.377   4.309 -0.0645  2.4479  0.7049
 5171SOL    HW216413   1.638   0.364   4.383  0.9815 -1.9134 -1.7816
 5172SOL     OW16414   1.616   4.295   3.111  0.2526  0.7417  0.2216
 5172SOL    HW116415   1.532   4.335   3.147 -0.4685  0.4079 -1.0394
 5172SOL    HW216416   1.621   4.310   3.012 -0.2056 -2.4288 -0.3922
 5173SOL     OW16417   4.384   6.565   5.345 -0.4990 -0.1681 -0.3379
 5173SOL    HW116418   4.358   6.662   5.344 -0.6437 -0.2106 -1.7754
 5173SOL    HW216419   4.303   6.509   5.359 -0.6416 -0.1414 -1.0435
 5174SOL     OW16420   1.971   2.022   0.290  0.2496 -0.0509  0.2100
 5174SOL    HW116421   1.925   2.085   0.353  0.2238 -1.7442  1.9932
 5174SOL    HW216422   1.905   1.987   0.224  0.0285  0.9850 -0.1241
 5175SOL     OW16423   1.313   1.141   1.393 -0.4598  0.0772  0.1183
 5175SOL    HW116424   1.234   1.107   1.444  0.8836  1.1645  3.2435
 5175SOL    HW216425   1.308   1.240   1.386  0.2669  0.0938 -0.2747
 5176SOL     OW16426   5.743   6.384   0.716  0.2456 -0.6799  1.3958
 5176SOL    HW116427   5.667   6.415   0.773 -1.2386  0.4902 -1.0273
 5176SOL    HW216428   5.820   6.447   0.726  0.0941 -0.6192  2.2423
 5177SOL     OW16429   5.893   0.730   3.846  0.0969  0.0538  0.2995
 5177SOL    HW116430   5.854   0.719   3.937 -1.2890 -0.0979 -0.2803
 5177SOL    HW216431   5.971   0.669   3.835 -2.1732 -3.0495  0.0437
 5178SOL     OW16432   3.209   2.914   2.045  0.3259  1.6002  0.5028
 5178SOL    HW116433   3.292   2.946   1.999  2.0786 -1.1155  1.4910
 5178SOL    HW216434   3.229   2.898   2.142 -0.2887 -2.0558  0.1909
 5179SOL     OW16435   6.904   5.596   1.919 -0.2168  0.0489  0.4097
 5179SOL    HW116436   6.896   5.550   1.831 -1.3780  1.3508 -0.1967
 5179SOL    HW216437   6.815   5.635   1.945  0.6010  1.5450  1.1045
 5180SOL     OW16438   2.032   6.697   6.251 -0.4131 -0.8587 -0.6399
 5180SOL    HW116439   2.059   6.604   6.273 -1.2181 -1.3067 -1.4728
 5180SOL    HW216440   2.081   6.761   6.310 -1.4785 -1.9015  1.5123
 5181SOL     OW16441   5.591   3.161   3.068  0.2003  0.2545  0.1643
 5181SOL    HW116442   5.501   3.153   3.026  0.5177 -1.8528 -0.2436
 5181SOL    HW216443   5.622   3.070   3.098  2.2122  0.9155  0.2516
 5182SOL     OW16444   2.345   4.468   1.507 -0.0477  0.0063 -0.4800
 5182SOL    HW116445   2.432   4.466   1.557 -0.6171  0.3329  0.5629
 5182SOL    HW216446   2.315   4.563   1.497 -1.2111 -0.1848  0.8794
 5183SOL     OW16447   4.482   0.640   4.140 -0.0744  0.0568 -0.3650
 5183SOL    HW116448   4.426   0.563   4.108 -0.5699  0.4192 -0.3717
 5183SOL    HW216449   4.574   0.633   4.099  1.6733 -3.3730  3.4250
 5184SOL     OW16450   6.525   6.675   2.837  0.1992  0.2592 -0.0258
 5184SOL    HW116451   6.614   6.643   2.869  0.3313  0.8950  0.2531
 5184SOL    HW216452   6.454   6.611   2.867  0.4388  0.3273  0.7040
 5185SOL     OW16453   3.866   6.202   1.458  0.1929  0.3221 -0.0945
 5185SOL    HW116454   3.771   6.219   1.435 -0.1902 -1.9782 -0.4230
 5185SOL    HW216455   3.917   6.288   1.455 -1.2716  1.2002 -2.6744
 5186SOL     OW16456   5.491   3.232   0.077 -0.4992  0.4614 -0.1006
 5186SOL    HW116457   5.494   3.132   0.077  0.0352  0.4499  1.3610
 5186SOL    HW216458   5.580   3.268   0.052 -0.1314  0.5284  1.2112
 5187SOL     OW16459   3.308   5.558   0.275 -0.1789 -0.7504 -0.7573
 5187SOL    HW116460   3.231   5.495   0.277  0.1160 -1.1557 -1.6821
 5187SOL    HW216461   3.381   5.520   0.218  1.2928 -1.0377  1.1924
 5188SOL     OW16462   4.450   5.778   4.433  0.9360 -0.3366 -0.6559
 5188SOL    HW116463   4.431   5.684   4.406  1.2787 -0.2029 -1.3839
 5188SOL    HW216464   4.485   5.779   4.527  1.1688 -0.9592 -0.7287
 5189SOL     OW16465   0.305   6.429   1.277 -0.2720  0.0411  0.4440
 5189SOL    HW116466   0.389   6.483   1.290 -0.0669  0.0050 -0.6336
 5189SOL    HW216467   0.249   6.471   1.205 -1.3984  0.3053  1.4537
 5190SOL     OW16468   0.153   0.731   1.297  0.0930  0.1985 -0.1237
 5190SOL    HW116469   0.237   0.723   1.242  1.0497  0.4661  1.2388
 5190SOL    HW216470   0.127   0.827   1.305 -0.6356  0.0731 -0.9565
 5191SOL     OW16471   4.930   2.348   3.445  0.2893  0.0408  0.2912
 5191SOL    HW116472   4.884   2.378   3.361  0.2680  0.8226  0.5793
 5191SOL    HW216473   5.016   2.398   3.456  0.5613 -0.4491  0.4612
 5192SOL     OW16474   2.317   4.802   4.883  0.2064  0.0782  0.8281
 5192SOL    HW116475   2.390   4.866   4.859 -1.7462  1.9220 -0.6478
 5192SOL    HW216476   2.350   4.738   4.952  2.1952  2.9492  2.7708
 5193SOL     OW16477   3.292   0.602   5.046 -0.0889 -0.6173 -0.7258
 5193SOL    HW116478   3.243   0.527   5.002  1.1741 -2.8805  1.5126
 5193SOL    HW216479   3.238   0.636   5.124  0.0863 -0.3299 -0.7276
 5194SOL     OW16480   1.052   1.022   2.502 -0.3630  0.2472  0.0791
 5194SOL    HW116481   1.134   1.078   2.491  0.0960 -0.1597  1.2409
 5194SOL    HW216482   1.025   0.984   2.414 -1.2403  3.0211 -0.9502
 5195SOL     OW16483   1.718   0.943   4.454 -0.8105  0.1355 -0.3480
 5195SOL    HW116484   1.770   0.874   4.504 -1.2441  0.7328  0.9540
 5195SOL    HW216485   1.781   1.013   4.419 -0.8129  1.9224  2.8902
 5196SOL     OW16486   2.550   5.079   2.840 -0.5383 -0.4164  0.0780
 5196SOL    HW116487   2.536   5.165   2.889  0.5315 -0.5637  0.6839
 5196SOL    HW216488   2.544   5.095   2.742 -1.6451  0.0969  0.2191
 5197SOL     OW16489   4.109   1.725   6.781  0.4370  0.1589  0.2122
 5197SOL    HW116490   4.170   1.648   6.762  1.2009  0.4345  1.4468
 5197SOL    HW216491   4.148   1.809   6.743 -0.3446 -0.0074 -1.0397
 5198SOL     OW16492   6.651   1.684   2.188 -0.5478 -0.3166 -0.1712
 5198SOL    HW116493   6.676   1.705   2.283  0.9142 -0.0559 -0.5850
 5198SOL    HW216494   6.555   1.706   2.173 -0.1740  2.1284  0.5694
 5199SOL     OW16495   3.587   3.832   0.654 -0.5642  0.5452  0.3939
 5199SOL    HW116496   3.618   3.909   0.599  0.9866 -0.5178 -0.2985
 5199SOL    HW216497   3.609   3.848   0.750 -1.0704  1.3373  0.3861
 5200SOL     OW16498   2.828   0.707   0.668  0.0697  0.3424  0.3236
 5200SOL    HW116499   2.758   0.636   0.676  0.7258 -0.4932 -0.9557
 5200SOL    HW216500   2.805   0.783   0.729 -2.1354  0.2563 -0.2904
 5201SOL     OW16501   4.251   0.004   6.720  0.0892  0.7988  0.0936
 5201SOL    HW116502   4.286  -0.071   6.776  1.6942  1.7184  0.3751
 5201SOL    HW216503   4.161   0.032   6.755  0.7456  0.8921  1.7983
 5202SOL     OW16504   5.367   2.542   2.722  0.3305 -0.5194 -0.2683
 5202SOL    HW116505   5.431   2.468   2.743  0.7907 -0.4188 -1.2915
 5202SOL    HW216506   5.373   2.566   2.625 -0.1669  0.5270 -0.0587
 5203SOL     OW16507   4.248   0.273   0.018  0.7808 -1.1622 -0.2833
 5203SOL    HW116508   4.169   0.213   0.005  0.0829  0.1737 -2.6915
 5203SOL    HW216509   4.219   0.368   0.013  2.2161 -0.6021  1.2046
 5204SOL     OW16510   4.221   1.538   0.564  0.8178 -0.4866  0.3233
 5204SOL    HW116511   4.254   1.487   0.484  2.2931 -1.2801  1.3800
 5204SOL    HW216512   4.298   1.586   0.607 -0.1592  0.8615  0.6317
 5205SOL     OW16513   5.189   5.744   1.210  0.3972 -0.0592  0.2396
 5205SOL    HW116514   5.165   5.816   1.274 -0.3163  0.6404 -0.7825
 5205SOL    HW216515   5.132   5.664   1.227  1.4521 -0.5550  1.6219
 5206SOL     OW16516   3.564   3.626   2.657 -0.2863 -0.2180  0.3323
 5206SOL    HW116517   3.542   3.539   2.614  0.6164 -0.5798  0.5717
 5206SOL    HW216518   3.486   3.658   2.710 -0.2781 -1.4229  1.1174
 5207SOL     OW16519   6.788   4.346   0.603  0.3320 -0.7923  0.3299
 5207SOL    HW116520   6.738   4.423   0.641  0.4739  0.3433 -1.6028
 5207SOL    HW216521   6.727   4.291   0.545  0.2983 -1.9999  1.4735
 5208SOL     OW16522   1.365   3.701   2.919  0.1731  0.3412  0.2186
 5208SOL    HW116523   1.431   3.626   2.910  0.2460  0.3760  0.4616
 5208SOL    HW216524   1.393   3.762   2.992 -0.2978  0.1806  0.5410
 5209SOL     OW16525   1.615   5.717   3.274 -0.2564 -0.5536  0.3693
 5209SOL    HW116526   1.614   5.618   3.263 -2.6688 -0.6022  0.4314
 5209SOL    HW216527   1.535   5.746   3.327 -0.1718  1.5062 -0.5192
 5210SOL     OW16528   4.914   3.651   1.341  0.3347 -0.3701 -0.1892
 5210SOL    HW116529   4.950   3.721   1.402 -1.0103  1.9676 -1.9156
 5210SOL    HW216530   4.984   3.581   1.325  1.8314  0.6871  1.3591
 5211SOL     OW16531   0.096   2.997   2.342 -0.4296  0.5500 -0.5615
 5211SOL    HW116532   0.127   2.982   2.436 -0.7582 -0.3545 -0.5837
 5211SOL    HW216533  -0.002   2.981   2.337 -0.4005  0.5280 -1.0741
 5212SOL     OW16534   2.847   5.523   6.707 -0.4888 -0.2153  0.0695
 5212SOL    HW116535   2.920   5.587   6.732 -1.2985  0.9429 -0.4243
 5212SOL    HW216536   2.825   5.534   6.610 -0.2934 -1.6398 -0.1586
 5213SOL     OW16537   3.781   6.810   5.930 -0.6751 -0.2273  0.4197
 5213SOL    HW116538   3.823   6.720   5.941  0.5968  0.4953  1.7828
 5213SOL    HW216539   3.816   6.853   5.847  0.2804 -0.1703  0.8462
 5214SOL     OW16540   0.882   1.752   2.107 -0.7048  0.0156 -0.3758
 5214SOL    HW116541   0.839   1.835   2.144 -0.5031 -0.3506  0.7272
 5214SOL    HW216542   0.825   1.715   2.033 -0.3997  1.5566 -1.4232
 5215SOL     OW16543   2.629   4.213   5.332 -0.1445 -1.3910  0.0338
 5215SOL    HW116544   2.541   4.171   5.355 -0.2866 -0.6541  0.9063
 5215SOL    HW216545   2.616   4.312   5.324  0.5008 -1.3405 -0.3804
 5216SOL     OW16546   2.456   5.885   0.366 -0.1033 -0.0459  0.1054
 5216SOL    HW116547   2.491   5.799   0.403 -1.2129 -0.9292 -0.7953
 5216SOL    HW216548   2.357   5.877   0.352 -0.3023  1.5457  0.4170
 5217SOL     OW16549   0.251   5.135   1.188 -0.2028 -0.2805  0.2381
 5217SOL    HW116550   0.262   5.234   1.199  0.6993 -0.4334  0.7882
 5217SOL    HW216551   0.211   5.096   1.271 -2.4156 -0.1381 -0.6828
 5218SOL     OW16552   5.990   5.043   1.235  0.1271  0.4605  0.2289
 5218SOL    HW116553   6.018   4.997   1.319  1.7110  0.5991 -0.1869
 5218SOL    HW216554   6.031   4.996   1.156  1.0304  2.0044 -0.2587
 5219SOL     OW16555   6.181   2.706   1.715 -0.2699  0.1043  0.1074
 5219SOL    HW116556   6.156   2.775   1.783 -1.0003  0.0355 -0.0887
 5219SOL    HW216557   6.152   2.616   1.746 -1.0641  0.1311 -0.5075
 5220SOL     OW16558   3.199   4.099   5.912 -0.0489 -0.3846  0.1822
 5220SOL    HW116559   3.145   4.181   5.893 -0.9361 -0.9766  0.0903
 5220SOL    HW216560   3.280   4.098   5.852 -0.1066  0.3360  0.0810
 5221SOL     OW16561   5.543   0.284   1.215  0.4078  0.0175 -0.4858
 5221SOL    HW116562   5.600   0.345   1.160  0.7687  1.3622  1.2925
 5221SOL    HW216563   5.554   0.190   1.182  0.7009  0.7318 -2.5870
 5222SOL     OW16564   1.757   5.597   0.965  0.9039  0.5517  0.0663
 5222SOL    HW116565   1.777   5.550   0.879 -0.2661  0.7971 -0.3604
 5222SOL    HW216566   1.776   5.694   0.956 -2.4424  1.2420 -1.1427
 5223SOL     OW16567   1.707   5.414   3.267 -0.5298  0.2649 -0.0257
 5223SOL    HW116568   1.794   5.461   3.284  0.3078 -1.4100  0.5152
 5223SOL    HW216569   1.724   5.331   3.214 -1.4709 -1.2326  1.8772
 5224SOL     OW16570   2.478   1.414   4.855  0.2566 -0.5019  0.3013
 5224SOL    HW116571   2.417   1.449   4.926 -0.9037 -1.0256 -0.4121
 5224SOL    HW216572   2.469   1.470   4.773  1.2042 -0.2218  0.3707
 5225SOL     OW16573   3.720   6.943   5.230  0.1950  0.0063 -0.3779
 5225SOL    HW116574   3.685   6.908   5.317  1.1884 -1.2265 -0.4552
 5225SOL    HW216575   3.645   6.948   5.163 -0.2827 -0.4476  0.1160
 5226SOL     OW16576   3.417   1.476   4.554 -0.2289 -0.2619 -0.2777
 5226SOL    HW116577   3.475   1.398   4.579 -1.0786 -0.8450 -0.0686
 5226SOL    HW216578   3.437   1.554   4.613 -0.0907 -0.6556  0.2004
 5227SOL     OW16579   6.725   1.222   5.439  0.5783 -0.0038  0.4346
 5227SOL    HW116580   6.633   1.256   5.421 -0.2525 -2.7099 -0.9218
 5227SOL    HW216581   6.788   1.257   5.370  0.3963  0.9854  0.7411
 5228SOL     OW16582   4.767   2.920   1.701 -0.0372 -0.1014  0.3314
 5228SOL    HW116583   4.775   2.975   1.618  1.1907 -1.0824 -0.2246
 5228SOL    HW216584   4.725   2.975   1.773 -0.2516  1.0624 -0.6520
 5229SOL     OW16585   3.806   3.206   0.262 -0.1165 -0.2783  0.0885
 5229SOL    HW116586   3.716   3.189   0.222  0.3103 -2.6415 -0.0227
 5229SOL    HW216587   3.796   3.240   0.355 -1.0976  2.0255 -0.8029
 5230SOL     OW16588   0.258   1.162   0.637 -0.3182 -0.6124  0.1219
 5230SOL    HW116589   0.302   1.233   0.691  1.0918 -2.5719  1.6716
 5230SOL    HW216590   0.326   1.116   0.579 -0.6783 -2.2138  0.8963
 5231SOL     OW16591   3.600   4.208   1.942 -0.2206  0.4867  0.3477
 5231SOL    HW116592   3.657   4.288   1.959 -1.9094  2.0870 -1.1117
 5231SOL    HW216593   3.550   4.185   2.025  0.7255  0.5613  0.9487
 5232SOL     OW16594   3.151   5.759   5.735 -0.1231  0.0574 -0.1174
 5232SOL    HW116595   3.077   5.693   5.747  0.1345 -0.2621 -0.2547
 5232SOL    HW216596   3.210   5.759   5.816  0.7505 -1.0000 -0.7252
 5233SOL     OW16597   6.494   4.182   4.150 -0.0131 -0.1080 -0.0129
 5233SOL    HW116598   6.423   4.213   4.214  1.0923  0.7048  0.8663
 5233SOL    HW216599   6.565   4.252   4.144 -0.3102  0.0588 -2.5446
 5234SOL     OW16600   3.779   1.914   0.447  0.2624  0.0703  0.4828
 5234SOL    HW116601   3.866   1.961   0.429  1.0810 -1.5427  0.0104
 5234SOL    HW216602   3.725   1.968   0.511  0.9307  1.8733 -0.3968
 5235SOL     OW16603   1.861   5.646   0.370  0.2386 -0.0543  0.3748
 5235SOL    HW116604   1.818   5.570   0.320  2.0536 -0.0632 -1.2786
 5235SOL    HW216605   1.827   5.647   0.464  0.1960 -2.9402  0.4755
 5236SOL     OW16606   1.623   0.910   3.038 -0.0732  0.2298 -0.1026
 5236SOL    HW116607   1.710   0.862   3.030 -0.0414  0.3005 -0.1801
 5236SOL    HW216608   1.630   0.999   2.994  0.1715  0.7143  0.8751
 5237SOL     OW16609   6.593   6.574   5.389 -0.4230 -0.0719 -0.0302
 5237SOL    HW116610   6.573   6.613   5.478 -0.4750  1.2162 -0.5809
 5237SOL    HW216611   6.508   6.546   5.344 -0.5043  0.3808 -0.1597
 5238SOL     OW16612   4.492   1.304   2.740  0.5541  0.6234  0.3099
 5238SOL    HW116613   4.461   1.379   2.681  1.1722 -0.0001 -0.8574
 5238SOL    HW216614   4.548   1.341   2.814  0.7817  1.3325 -0.1989
 5239SOL     OW16615   1.580   5.965   2.316  0.1046 -0.7432  0.0978
 5239SOL    HW116616   1.562   6.058   2.349  3.5071  0.3169 -0.6498
 5239SOL    HW216617   1.528   5.948   2.232 -3.3440 -0.9743  2.0977
 5240SOL     OW16618   6.903   5.864   3.557 -0.0847 -0.0024  0.1845
 5240SOL    HW116619   6.820   5.808   3.562  0.0800 -0.1549  2.2124
 5240SOL    HW216620   6.879   5.959   3.538 -0.7260 -0.0806  0.5753
 5241SOL     OW16621   1.055   4.477   5.994 -0.4187 -0.0605 -0.9489
 5241SOL    HW116622   1.130   4.497   5.931  1.3030 -0.3013  0.9167
 5241SOL    HW216623   1.077   4.395   6.047 -0.9317  1.0996  1.1816
 5242SOL     OW16624   5.397   5.677   1.058  0.1316  0.3063  1.0171
 5242SOL    HW116625   5.318   5.705   1.113 -0.8011 -0.8777  0.3216
 5242SOL    HW216626   5.404   5.735   0.977 -1.2863 -0.8437  0.0218
 5243SOL     OW16627   5.522   5.348   4.317  0.0351 -0.4699 -0.6256
 5243SOL    HW116628   5.508   5.303   4.229  0.8452  0.5036 -1.2791
 5243SOL    HW216629   5.583   5.427   4.305  0.2942 -0.4140  0.8376
 5244SOL     OW16630   2.138   5.035   5.404 -0.1158 -0.1620 -0.2075
 5244SOL    HW116631   2.090   5.010   5.320  1.2462 -0.0394 -1.0444
 5244SOL    HW216632   2.152   5.134   5.407  0.6282 -0.2625 -0.2706
 5245SOL     OW16633   0.321   6.552   3.618  0.2664  0.0160 -0.0752
 5245SOL    HW116634   0.379   6.605   3.556  1.7768 -1.3890  0.0767
 5245SOL    HW216635   0.341   6.576   3.712 -0.7200  0.8176 -0.0482
 5246SOL     OW16636   4.537   0.793   6.222 -0.4604 -0.0306 -0.7060
 5246SOL    HW116637   4.522   0.707   6.272  4.5047 -1.8709 -1.8439
 5246SOL    HW216638   4.555   0.866   6.288 -0.8346 -0.7781  0.2626
 5247SOL     OW16639   1.606   3.239   5.168 -0.4271  0.1937 -0.4314
 5247SOL    HW116640   1.670   3.288   5.228 -0.1712 -1.4004  0.6607
 5247SOL    HW216641   1.529   3.205   5.221 -0.1559 -1.3264 -0.9580
 5248SOL     OW16642   0.976   0.062   3.714 -0.5308  0.2584  0.4885
 5248SOL    HW116643   0.981   0.131   3.786  2.4203 -1.0087  1.6620
 5248SOL    HW216644   1.026   0.094   3.633 -0.9905  0.3254  0.2242
 5249SOL     OW16645   5.792   3.419   2.276 -0.5363  0.1917  0.2085
 5249SOL    HW116646   5.711   3.437   2.333 -0.2226 -1.2223  1.1379
 5249SOL    HW216647   5.829   3.329   2.298  0.1065 -0.0378 -1.6665
 5250SOL     OW16648   0.304   1.372   2.106  0.2135 -0.0819  0.2332
 5250SOL    HW116649   0.392   1.326   2.115  0.3505  0.4509  1.9974
 5250SOL    HW216650   0.233   1.305   2.082  0.9353 -0.6548 -0.3401
 5251SOL     OW16651   6.532   5.284   2.175 -0.1463  0.2380  0.5330
 5251SOL    HW116652   6.611   5.254   2.228 -0.1211  0.8286  0.8495
 5251SOL    HW216653   6.453   5.293   2.235 -0.8377 -1.7056 -0.0363
 5252SOL     OW16654   4.141   1.214   5.732 -0.4183 -0.0443 -0.2326
 5252SOL    HW116655   4.132   1.215   5.831 -3.2270  0.1764 -0.4130
 5252SOL    HW216656   4.170   1.122   5.702 -0.7891 -0.4764  0.7061
 5253SOL     OW16657   3.961   5.802   4.939 -0.5877 -0.6874  0.3604
 5253SOL    HW116658   4.060   5.783   4.935 -0.7948 -2.5056  2.1326
 5253SOL    HW216659   3.943   5.872   5.008 -0.5267 -0.1031 -0.2081
 5254SOL     OW16660   2.348   0.560   5.295 -0.4845 -0.1704 -0.4478
 5254SOL    HW116661   2.366   0.462   5.301  0.9410  0.1302  0.7639
 5254SOL    HW216662   2.429   0.611   5.325 -0.4179  1.4351 -3.0699
 5255SOL     OW16663   5.040   1.211   4.852 -0.1460  0.2619 -0.1124
 5255SOL    HW116664   4.964   1.252   4.903 -0.5818 -0.7189  0.0412
 5255SOL    HW216665   5.075   1.132   4.901  0.6384  0.3915 -0.4491
 5256SOL     OW16666   2.020   6.141   1.290 -0.2432  0.3032  0.4341
 5256SOL    HW116667   2.035   6.066   1.354 -2.3160  0.9218  1.7284
 5256SOL    HW216668   2.042   6.228   1.335  1.5495  0.5679 -0.8497
 5257SOL     OW16669   2.583   4.107   6.755  0.0858  0.7428 -0.0715
 5257SOL    HW116670   2.669   4.153   6.732 -0.0550  0.9390 -0.2159
 5257SOL    HW216671   2.548   4.059   6.674  0.9011 -0.7352  0.4130
 5258SOL     OW16672   6.340   5.212   4.519  0.4864  0.0267  0.1050
 5258SOL    HW116673   6.436   5.189   4.534  0.5986  0.6608  0.3699
 5258SOL    HW216674   6.293   5.221   4.607  0.3152  0.2645 -0.0101
 5259SOL     OW16675   4.380   3.311   6.423  0.1792  0.3596 -0.3056
 5259SOL    HW116676   4.392   3.283   6.518  1.6629 -2.0139 -1.0868
 5259SOL    HW216677   4.327   3.395   6.419 -0.5405  0.1434  2.5625
 5260SOL     OW16678   2.613   1.192   3.448  0.0110 -0.1029  0.3048
 5260SOL    HW116679   2.567   1.129   3.385 -2.0010  0.1848  1.3819
 5260SOL    HW216680   2.547   1.260   3.481  1.2900  0.4939  1.7687
 5261SOL     OW16681   6.646   3.851   5.389  0.1875 -0.2568  0.3217
 5261SOL    HW116682   6.546   3.862   5.384  0.1743 -0.5412 -0.1237
 5261SOL    HW216683   6.673   3.770   5.337  0.6469 -0.2088  0.4847
 5262SOL     OW16684   1.611   3.927   4.343  0.2912  0.0450  0.3683
 5262SOL    HW116685   1.521   3.902   4.307 -0.9096  1.4888  2.1822
 5262SOL    HW216686   1.644   3.856   4.404  0.1939 -0.2871  0.0394
 5263SOL     OW16687   6.331   1.665   6.361 -0.8839 -0.1680 -0.4881
 5263SOL    HW116688   6.304   1.761   6.349  1.8321  0.8677  0.9902
 5263SOL    HW216689   6.391   1.638   6.285 -0.0565 -0.0450  0.1108
 5264SOL     OW16690   4.668   1.441   1.985  0.7470  0.5188 -0.0327
 5264SOL    HW116691   4.661   1.530   1.940 -2.6015 -0.0981 -1.0202
 5264SOL    HW216692   4.731   1.383   1.935  0.7799  1.4218 -1.0749
 5265SOL     OW16693   3.886   6.045   6.121 -0.0771  0.2497  0.8874
 5265SOL    HW116694   3.939   6.108   6.178  1.2070 -1.1473  1.3187
 5265SOL    HW216695   3.814   6.003   6.176 -0.0692  0.3460  0.9709
 5266SOL     OW16696   1.353   0.559   0.278  0.2369  0.1920  0.3450
 5266SOL    HW116697   1.262   0.523   0.262  0.2376  0.7159 -0.9144
 5266SOL    HW216698   1.377   0.624   0.206  1.6619 -0.0329  0.5845
 5267SOL     OW16699   4.480   0.352   2.318  0.0269  0.1809 -0.9148
 5267SOL    HW116700   4.531   0.408   2.384 -0.5502 -0.6381  0.2658
 5267SOL    HW216701   4.451   0.409   2.241  1.4433  0.9741 -0.8884
 5268SOL     OW16702   3.132   4.003   2.437  0.3495  0.4094 -0.6972
 5268SOL    HW116703   3.174   3.980   2.525  1.4941  0.1526 -1.2788
 5268SOL    HW216704   3.044   3.957   2.428 -0.2803  1.2818  0.7410
 5269SOL     OW16705   0.896   5.613   6.641  0.0208 -0.0858 -0.0833
 5269SOL    HW116706   0.919   5.692   6.697 -0.9153 -0.1464  0.4121
 5269SOL    HW216707   0.797   5.609   6.628  0.1213 -0.7416 -0.7561
 5270SOL     OW16708   0.457   2.443   0.322  0.4196  0.3699 -0.2157
 5270SOL    HW116709   0.390   2.487   0.382 -1.0132 -1.6546 -0.2233
 5270SOL    HW216710   0.501   2.511   0.264 -1.3470  1.8258  0.0887
 5271SOL     OW16711   2.294   2.012   3.127 -0.0222 -0.7119 -0.3623
 5271SOL    HW116712   2.210   2.048   3.167  0.0539 -0.5039 -0.3903
 5271SOL    HW216713   2.341   2.084   3.077  0.5466 -0.6368  0.2692
 5272SOL     OW16714   3.687   6.743   5.426 -0.1500 -0.2154 -0.4391
 5272SOL    HW116715   3.669   6.682   5.348  0.5237 -2.8662  1.3225
 5272SOL    HW216716   3.785   6.764   5.428 -0.3144  0.5978 -0.8016
 5273SOL     OW16717   0.466   3.872   4.439  0.5015  0.0756 -0.1076
 5273SOL    HW116718   0.503   3.781   4.418 -1.2802 -0.0378 -3.5949
 5273SOL    HW216719   0.368   3.863   4.459  0.6520  1.0883  1.1386
 5274SOL     OW16720   4.907   2.615   3.649 -0.0159  0.0268  0.8096
 5274SOL    HW116721   4.919   2.561   3.732  1.6333 -1.3453 -0.2505
 5274SOL    HW216722   4.969   2.582   3.578 -0.5420  1.9124 -0.6230
 5275SOL     OW16723   6.700   2.730   4.421 -0.3235 -0.1158 -0.1516
 5275SOL    HW116724   6.614   2.764   4.459 -0.2038  1.2632 -1.0638
 5275SOL    HW216725   6.700   2.630   4.423 -0.3515 -0.1494  3.3119
 5276SOL     OW16726   4.631   1.400   6.378 -0.6284 -0.0116  0.2065
 5276SOL    HW116727   4.609   1.413   6.474 -0.2604  0.1332  0.2719
 5276SOL    HW216728   4.592   1.475   6.324  1.2861  1.2803  0.5535
 5277SOL     OW16729   4.298   4.975   0.684  0.5179  0.3145  0.5963
 5277SOL    HW116730   4.245   4.900   0.722  0.4460  0.3539  0.5751
 5277SOL    HW216731   4.320   5.040   0.756 -1.5890  1.5736  0.1960
 5278SOL     OW16732   5.499   0.059   5.226  0.2720  0.0990 -0.0591
 5278SOL    HW116733   5.580   0.001   5.222 -0.5227 -1.0027 -1.9557
 5278SOL    HW216734   5.486   0.104   5.138 -0.7937  0.8051  0.4321
 5279SOL     OW16735   2.958   1.148   3.045 -0.4697 -0.1142 -0.1545
 5279SOL    HW116736   2.956   1.242   3.013 -0.6748 -0.2649 -0.5988
 5279SOL    HW216737   2.942   1.145   3.143 -1.1939  0.2653 -0.2513
 5280SOL     OW16738   2.778   6.077   1.523 -0.0154 -0.2358  0.7036
 5280SOL    HW116739   2.775   5.978   1.509 -1.4323 -0.1460  0.2044
 5280SOL    HW216740   2.686   6.111   1.541  0.3697  1.0788  0.3111
 5281SOL     OW16741   1.210   1.534   3.112 -0.4010 -0.0758 -0.0170
 5281SOL    HW116742   1.130   1.594   3.111 -0.2178  0.2694  1.7947
 5281SOL    HW216743   1.292   1.587   3.090 -0.3410  0.1772  0.7949
 5282SOL     OW16744   3.918   6.545   0.814 -0.2657  0.3650 -0.2141
 5282SOL    HW116745   3.877   6.585   0.896 -0.2163 -0.3231  0.1505
 5282SOL    HW216746   3.968   6.462   0.838  1.1991  1.0860 -0.6764
 5283SOL     OW16747   5.928   5.863   5.884  0.1415 -0.4079  0.8541
 5283SOL    HW116748   5.906   5.955   5.916  0.4025 -0.0281 -0.0307
 5283SOL    HW216749   5.894   5.795   5.950 -0.4084  0.2995  1.3072
 5284SOL     OW16750   2.737   0.896   5.445 -0.0287  0.3453  0.5518
 5284SOL    HW116751   2.814   0.912   5.382  0.5392 -1.0358  0.8668
 5284SOL    HW216752   2.766   0.915   5.539  0.1369 -0.7518  0.7390
 5285SOL     OW16753   4.920   1.799   0.192  0.7221 -0.5659 -0.4259
 5285SOL    HW116754   4.898   1.705   0.219  3.7757 -1.9326 -2.1952
 5285SOL    HW216755   4.880   1.818   0.102 -1.0297  0.4083  0.4992
 5286SOL     OW16756   2.119   3.381   0.609  0.1331 -0.2443 -0.0838
 5286SOL    HW116757   2.040   3.392   0.669  0.4824 -1.5402  0.6618
 5286SOL    HW216758   2.151   3.286   0.614  1.0825  0.0016 -1.1911
 5287SOL     OW16759   5.636   2.673   1.511  0.5533 -0.2537  0.4022
 5287SOL    HW116760   5.624   2.699   1.607  0.3326 -1.8336  0.8131
 5287SOL    HW216761   5.731   2.644   1.497  0.6426  0.1799  0.0747
 5288SOL     OW16762   6.840   0.569   5.037 -0.3098  0.2136  0.3444
 5288SOL    HW116763   6.791   0.612   5.113 -0.0708  1.0988  0.0027
 5288SOL    HW216764   6.939   0.581   5.050 -0.2932  1.2563 -0.6046
 5289SOL     OW16765   5.031   6.819   2.760 -0.1443  0.1696  0.0212
 5289SOL    HW116766   4.992   6.783   2.676  0.5262  0.7099 -0.5387
 5289SOL    HW216767   4.962   6.819   2.832 -0.5929 -0.7294 -0.3994
 5290SOL     OW16768   4.916   0.615   0.547 -0.4305  0.2119  0.0024
 5290SOL    HW116769   4.893   0.569   0.461  0.1612 -0.5422  0.2393
 5290SOL    HW216770   4.836   0.616   0.607 -0.3941 -0.7165  0.0775
 5291SOL     OW16771   5.075   0.503   2.542 -0.3768  0.7590  0.1505
 5291SOL    HW116772   5.048   0.489   2.637 -0.5742 -1.6818 -0.1987
 5291SOL    HW216773   4.994   0.496   2.483  0.2176 -1.8081 -0.4829
 5292SOL     OW16774   4.599   2.333   5.211  0.9549 -0.2131 -0.1847
 5292SOL    HW116775   4.521   2.354   5.269  0.8394 -1.1194  0.0043
 5292SOL    HW216776   4.572   2.344   5.115  0.6052 -0.4764 -0.1198
 5293SOL     OW16777   6.290   3.471   0.621  0.8508 -0.8573  0.3168
 5293SOL    HW116778   6.253   3.524   0.697 -0.4576 -0.5393 -0.5028
 5293SOL    HW216779   6.231   3.392   0.603  0.8697 -0.6601 -0.6673
 5294SOL     OW16780   5.442   1.485   2.537  0.4909 -0.0110  0.3714
 5294SOL    HW116781   5.407   1.528   2.454 -0.1313 -1.9782 -0.4673
 5294SOL    HW216782   5.369   1.432   2.580  1.3837 -0.8453  0.8998
 5295SOL     OW16783   1.009   5.603   2.422 -0.1963 -0.2874 -0.6171
 5295SOL    HW116784   1.041   5.644   2.337  1.6720 -0.2693  0.0384
 5295SOL    HW216785   1.024   5.666   2.498  0.3572 -1.1735  0.0432
 5296SOL     OW16786   1.182   6.610   0.230 -0.2153  0.6744  0.2866
 5296SOL    HW116787   1.117   6.604   0.305  1.8895 -0.6762  2.1306
 5296SOL    HW216788   1.221   6.519   0.212  1.0353  1.3922 -0.8489
 5297SOL     OW16789   4.308   2.129   0.624 -0.4193  0.1513 -0.5785
 5297SOL    HW116790   4.235   2.188   0.588 -1.5284 -0.0198  1.2521
 5297SOL    HW216791   4.386   2.185   0.650  0.3397  0.2971 -2.9440
 5298SOL     OW16792   4.205   6.024   0.904  0.2755 -0.2819  0.5284
 5298SOL    HW116793   4.169   6.040   0.813  0.8403 -0.4456  0.2737
 5298SOL    HW216794   4.220   6.111   0.950  0.4823 -0.1811  0.2698
 5299SOL     OW16795   0.128   1.583   2.722  0.2895 -0.3601 -0.0324
 5299SOL    HW116796   0.167   1.493   2.742  0.3342 -0.8027 -1.8779
 5299SOL    HW216797   0.186   1.630   2.655 -0.0513  0.8049  0.4661
 5300SOL     OW16798   2.265   0.779   2.089  0.2333  0.8042  0.0341
 5300SOL    HW116799   2.278   0.852   2.022 -2.2720  0.0780 -1.3646
 5300SOL    HW216800   2.210   0.812   2.165  0.3465  0.7421  0.1451
 5301SOL     OW16801   4.135   1.945   6.628  0.8856  0.3838 -0.1496
 5301SOL    HW116802   4.038   1.967   6.617  0.5858 -0.0878  1.3791
 5301SOL    HW216803   4.188   2.002   6.565 -0.3885  0.3598 -1.3206
 5302SOL     OW16804   2.234   2.911   6.185  0.0811 -0.1610  0.0111
 5302SOL    HW116805   2.317   2.949   6.227 -0.4963  1.3107 -0.1031
 5302SOL    HW216806   2.215   2.960   6.100 -0.1740 -1.4017 -0.6610
 5303SOL     OW16807   4.856   4.445   3.216  0.0797  0.0370 -0.5323
 5303SOL    HW116808   4.841   4.422   3.312  0.5572 -1.2305 -0.7496
 5303SOL    HW216809   4.912   4.528   3.210  1.2960 -0.7001  0.2969
 5304SOL     OW16810   2.623   0.465   5.588 -0.3410  0.2317 -0.4324
 5304SOL    HW116811   2.576   0.542   5.545  0.0113  0.5182 -0.3082
 5304SOL    HW216812   2.623   0.477   5.688 -1.6889 -0.7256 -0.2830
 5305SOL     OW16813   5.545   6.304   2.396  0.2450  0.2345  0.4144
 5305SOL    HW116814   5.493   6.219   2.403  0.9556 -0.4632 -1.8294
 5305SOL    HW216815   5.594   6.320   2.482 -1.7791 -0.3060  1.7280
 5306SOL     OW16816   0.906   4.211   0.518 -0.3872 -0.5550  0.3730
 5306SOL    HW116817   0.835   4.236   0.584 -0.2147 -1.1052  0.7753
 5306SOL    HW216818   0.899   4.114   0.497 -0.1272 -0.4841 -0.0443
 5307SOL     OW16819   4.345   0.388   0.819  0.1568 -0.1411 -0.0859
 5307SOL    HW116820   4.271   0.326   0.794 -0.1014  0.7267 -1.5850
 5307SOL    HW216821   4.318   0.442   0.899  0.9567 -2.8906  2.2294
 5308SOL     OW16822   4.544   2.622   6.216  0.9530  0.0962  0.4229
 5308SOL    HW116823   4.478   2.639   6.290  1.2377  0.3229  0.6284
 5308SOL    HW216824   4.495   2.593   6.134  0.7663 -2.5501  1.3608
 5309SOL     OW16825   2.630   4.020   6.154  0.5760 -0.6532  0.4642
 5309SOL    HW116826   2.679   4.067   6.080  0.5836  1.3344  1.6563
 5309SOL    HW216827   2.649   3.922   6.149  4.8871 -0.0441  0.9553
 5310SOL     OW16828   2.626   1.126   4.240 -0.4788 -0.0202 -0.3771
 5310SOL    HW116829   2.589   1.088   4.325 -0.7762  0.8223 -0.1203
 5310SOL    HW216830   2.716   1.165   4.259 -0.7116  0.5099 -0.3653
 5311SOL     OW16831   5.282   6.310   4.264  0.1213  0.0265  0.1356
 5311SOL    HW116832   5.321   6.316   4.172 -1.5983  2.1986 -0.5437
 5311SOL    HW216833   5.191   6.353   4.265 -0.5688 -1.2680  2.5269
 5312SOL     OW16834   1.228   1.570   2.785 -0.5786  0.0181 -0.0009
 5312SOL    HW116835   1.209   1.661   2.823 -0.9078 -0.3561  0.7667
 5312SOL    HW216836   1.326   1.552   2.789 -0.5044  0.3657 -0.2171
 5313SOL     OW16837   3.895   6.717   3.242 -0.4730 -0.0365  0.2484
 5313SOL    HW116838   3.974   6.761   3.285  0.8560  0.1690 -2.1739
 5313SOL    HW216839   3.927   6.660   3.166 -2.5639 -1.3001  0.2438
 5314SOL     OW16840   3.464   2.102   4.683  0.0576 -0.5201 -0.1433
 5314SOL    HW116841   3.489   2.041   4.757  1.9211  0.5781  0.2025
 5314SOL    HW216842   3.401   2.172   4.717 -0.4089 -0.9880 -0.0299
 5315SOL     OW16843   0.108   1.201   5.337  0.1012  0.1173 -0.5554
 5315SOL    HW116844   0.069   1.290   5.360  0.2052  0.0766 -0.2233
 5315SOL    HW216845   0.184   1.214   5.272 -0.6817  0.1688 -1.4864
 5316SOL     OW16846   3.406   1.863   2.365  0.2108 -0.1481 -0.2954
 5316SOL    HW116847   3.307   1.850   2.379  0.1180 -1.6963 -2.0797
 5316SOL    HW216848   3.432   1.953   2.399 -1.6966  0.0751  0.7527
 5317SOL     OW16849   4.438   2.959   5.915 -0.0519  0.3964  0.1280
 5317SOL    HW116850   4.343   2.963   5.884  0.1468 -0.0901 -0.5803
 5317SOL    HW216851   4.499   2.955   5.836  0.4878 -0.5730  0.5723
 5318SOL     OW16852   2.870   6.599   6.998  0.1320  0.0672 -0.1818
 5318SOL    HW116853   2.817   6.683   6.983 -0.6520  0.0487  2.1211
 5318SOL    HW216854   2.851   6.535   6.923 -1.6597  0.7844 -0.4046
 5319SOL     OW16855   0.801   2.968   1.241  0.5207 -0.0953  0.2767
 5319SOL    HW116856   0.713   2.920   1.250  0.3788  0.4809  2.6310
 5319SOL    HW216857   0.850   2.963   1.328  1.4393  2.2151 -0.0545
 5320SOL     OW16858   1.978   1.399   3.706  0.5219  0.2196 -0.1079
 5320SOL    HW116859   1.971   1.484   3.757  0.7425 -0.3797  0.9436
 5320SOL    HW216860   1.943   1.323   3.762  0.8978 -0.4697 -0.7885
 5321SOL     OW16861   1.614   4.929   1.069  0.1532 -0.3222  0.6327
 5321SOL    HW116862   1.689   4.899   1.126  0.5776  0.3402  0.4364
 5321SOL    HW216863   1.528   4.891   1.103  0.6079 -1.3255  0.6799
 5322SOL     OW16864   6.684   3.999   4.022 -0.0571 -0.3262  0.0961
 5322SOL    HW116865   6.631   4.069   4.070 -1.7142 -0.8668 -0.8809
 5322SOL    HW216866   6.698   4.027   3.927 -0.7344 -1.2764 -0.3065
 5323SOL     OW16867   5.073   6.872   1.055 -0.3152 -0.2445  0.6690
 5323SOL    HW116868   5.102   6.937   1.125 -0.4745  1.3987 -0.7199
 5323SOL    HW216869   5.028   6.793   1.098  0.9674 -0.0470  2.4760
 5324SOL     OW16870   5.637   6.910   5.613 -0.1060  0.1527 -0.3871
 5324SOL    HW116871   5.708   6.842   5.632  0.3945  0.3819 -1.3954
 5324SOL    HW216872   5.664   6.967   5.535 -1.6075 -0.0572 -1.0972
 5325SOL     OW16873   1.310   6.376   0.070 -0.0737  0.5727 -0.3132
 5325SOL    HW116874   1.241   6.316   0.029  0.0202  0.4557 -0.3007
 5325SOL    HW216875   1.343   6.441   0.002  0.0454  0.4122 -0.4089
 5326SOL     OW16876   3.381   5.804   5.547 -0.1763  0.7343  0.0209
 5326SOL    HW116877   3.308   5.758   5.597 -1.1260  2.3093  0.1576
 5326SOL    HW216878   3.467   5.794   5.596 -0.6182  0.1907  0.6965
 5327SOL     OW16879   0.173   3.713   1.700 -1.1834  0.0538  0.1488
 5327SOL    HW116880   0.146   3.783   1.634  0.2718  1.0879  0.6005
 5327SOL    HW216881   0.188   3.626   1.652 -1.0112  0.5660 -0.7502
 5328SOL     OW16882   1.328   4.777   0.318  0.1488 -0.5897 -0.5982
 5328SOL    HW116883   1.350   4.685   0.285 -1.1288 -0.7860 -0.9618
 5328SOL    HW216884   1.402   4.810   0.376  0.8400 -1.6558 -0.8407
 5329SOL     OW16885   6.684   1.705   3.078  0.3302  0.2633 -0.1423
 5329SOL    HW116886   6.668   1.675   2.984 -3.0276 -0.3141  0.5057
 5329SOL    HW216887   6.696   1.625   3.137 -0.2395  0.5194  0.3262
 5330SOL     OW16888   5.474   0.869   0.053 -0.4875  0.3366 -0.3268
 5330SOL    HW116889   5.374   0.877   0.058 -0.8528 -2.2137 -1.8204
 5330SOL    HW216890   5.509   0.839   0.142 -1.1012  0.7013  0.0509
 5331SOL     OW16891   6.663   2.601   1.078  0.4528 -0.3813 -0.6224
 5331SOL    HW116892   6.670   2.502   1.063  2.8963 -0.4988  0.8812
 5331SOL    HW216893   6.628   2.619   1.170 -0.4528  0.1855 -1.0624
 5332SOL     OW16894   1.466   4.535   2.898  0.2447  0.0939  0.5168
 5332SOL    HW116895   1.405   4.602   2.940  0.3656 -0.9753  2.5201
 5332SOL    HW216896   1.414   4.479   2.832 -0.1396  1.2821 -0.2181
 5333SOL     OW16897   0.318   2.056   1.278  0.4991  0.4009 -0.5897
 5333SOL    HW116898   0.237   1.997   1.275  1.3476 -0.9827  1.2727
 5333SOL    HW216899   0.399   2.000   1.296  1.5809  1.9743 -0.4022
 5334SOL     OW16900   4.235   2.403   1.020  0.5414 -0.0876  0.1298
 5334SOL    HW116901   4.242   2.436   0.926 -0.3871 -0.6104 -0.1425
 5334SOL    HW216902   4.139   2.407   1.049  0.4851 -1.8863  0.3123
 5335SOL     OW16903   6.444   2.872   1.071  0.0463  0.1484  0.5643
 5335SOL    HW116904   6.527   2.882   1.126 -0.7027 -0.7303  1.8688
 5335SOL    HW216905   6.453   2.792   1.012 -0.2646 -0.5006  1.3992
 5336SOL     OW16906   5.056   6.414   4.655 -0.3005  0.1208 -0.4491
 5336SOL    HW116907   5.070   6.446   4.749 -3.4898 -0.1236  0.2004
 5336SOL    HW216908   5.073   6.489   4.592 -0.3875  0.9542  0.4852
 5337SOL     OW16909   4.643   4.477   4.442  0.0583  0.0158 -0.1010
 5337SOL    HW116910   4.627   4.383   4.471  1.1924  0.2780  1.4953
 5337SOL    HW216911   4.740   4.491   4.425 -0.1172  0.8779 -0.4674
 5338SOL     OW16912   5.991   2.016   6.999 -0.3685  0.1977  0.1872
 5338SOL    HW116913   5.927   2.093   6.997 -0.3438  0.2431  0.7892
 5338SOL    HW216914   6.000   1.977   6.908 -3.6304 -1.7660  0.5597
 5339SOL     OW16915   2.452   6.290   3.025 -0.1479 -0.3320  0.1996
 5339SOL    HW116916   2.422   6.356   2.957  0.0454  1.0799  1.4333
 5339SOL    HW216917   2.539   6.319   3.064 -1.9061  0.9638  3.6103
 5340SOL     OW16918   6.811   3.008   4.267  0.4592 -0.9899  0.1011
 5340SOL    HW116919   6.822   3.057   4.353  1.0944  0.3086 -0.7015
 5340SOL    HW216920   6.738   3.051   4.213  0.5115 -1.3809 -0.2903
 5341SOL     OW16921   4.213   4.756   3.342  0.0008 -0.4860  0.3518
 5341SOL    HW116922   4.200   4.694   3.419 -0.7895  0.1464  0.7466
 5341SOL    HW216923   4.136   4.820   3.337  1.0253  0.7962  0.2606
 5342SOL     OW16924   1.478   0.204   3.895  0.5249  1.2150 -0.0128
 5342SOL    HW116925   1.457   0.107   3.905  2.2604  0.8200  0.1060
 5342SOL    HW216926   1.488   0.226   3.798 -3.3617  2.1374 -0.3804
 5343SOL     OW16927   3.412   7.002   3.611  0.5874 -0.8019  0.0119
 5343SOL    HW116928   3.408   6.935   3.537  1.4078 -0.0053 -0.7828
 5343SOL    HW216929   3.430   7.093   3.573 -1.7403  0.1395  0.9146
 5344SOL     OW16930   1.140   1.338   2.578 -0.3662 -0.2388 -0.5988
 5344SOL    HW116931   1.096   1.405   2.519  0.5006  1.1490  0.2498
 5344SOL    HW216932   1.175   1.262   2.523 -2.4324 -0.6319 -1.4433
 5345SOL     OW16933   1.329   4.877   4.396  0.0381 -0.1297  0.0765
 5345SOL    HW116934   1.352   4.954   4.336 -0.6207 -0.4948 -0.6492
 5345SOL    HW216935   1.283   4.806   4.344  1.2152 -1.3276  0.5958
 5346SOL     OW16936   6.183   5.797   5.862 -0.2301  0.0067  0.0914
 5346SOL    HW116937   6.198   5.701   5.886  0.3905 -0.4184 -1.7963
 5346SOL    HW216938   6.085   5.814   5.855 -0.3393 -0.9007 -0.9192
 5347SOL     OW16939   4.054   0.099   5.228 -0.0991 -0.2051  0.3612
 5347SOL    HW116940   4.080   0.164   5.300  1.7182  0.2986 -0.6757
 5347SOL    HW216941   3.972   0.132   5.182 -0.0468  0.5874  0.8075
 5348SOL     OW16942   2.633   0.002   6.140  0.0407  0.1780 -0.4055
 5348SOL    HW116943   2.658   0.094   6.170 -0.2316 -0.3105  1.4756
 5348SOL    HW216944   2.709  -0.037   6.087  1.0508  0.7154  0.5942
 5349SOL     OW16945   6.060   4.901   5.932  0.3364  0.3733 -0.1617
 5349SOL    HW116946   6.137   4.926   5.873  0.1724  0.8913 -0.1642
 5349SOL    HW216947   6.058   4.802   5.944  0.6426  0.3008 -0.6593
 5350SOL     OW16948   6.696   5.027   5.950  0.3930  0.5210  0.0176
 5350SOL    HW116949   6.691   4.952   6.015 -1.2026  2.0937  1.8490
 5350SOL    HW216950   6.766   5.008   5.881  1.7153 -1.4855  1.8170
 5351SOL     OW16951   3.919   0.878   0.461  0.0221  0.0854 -0.1699
 5351SOL    HW116952   3.946   0.841   0.550 -2.2513 -0.7553  0.2344
 5351SOL    HW216953   3.952   0.818   0.389  1.0788  0.2722  0.1361
 5352SOL     OW16954   6.901   2.006   5.002 -0.6144 -0.1965 -0.3982
 5352SOL    HW116955   6.955   2.077   5.049  0.1387 -1.1270  0.1761
 5352SOL    HW216956   6.867   2.043   4.915  0.7694  0.5061 -0.6816
 5353SOL     OW16957   0.159   2.471   0.813  0.1257 -0.1153  0.3073
 5353SOL    HW116958   0.214   2.482   0.896 -1.2411 -1.4461  1.4357
 5353SOL    HW216959   0.216   2.432   0.740  1.3949  1.2694  0.4994
 5354SOL     OW16960   2.743   0.327   2.067 -0.2360 -0.2107  0.5206
 5354SOL    HW116961   2.771   0.333   2.163 -0.1895  2.6764  0.4123
 5354SOL    HW216962   2.704   0.415   2.038 -3.0498 -1.9215 -1.2935
 5355SOL     OW16963   5.967   0.894   5.272  0.6053  0.0915 -0.0940
 5355SOL    HW116964   5.952   0.911   5.175  3.1330  1.7612 -0.2794
 5355SOL    HW216965   6.048   0.835   5.283  1.6457  1.6592  0.9984
 5356SOL     OW16966   1.027   2.259   4.031  0.1841  0.1962 -0.4369
 5356SOL    HW116967   1.022   2.352   4.067 -1.0258  0.4859 -1.3260
 5356SOL    HW216968   0.971   2.198   4.088  0.0376  0.2330 -0.5421
 5357SOL     OW16969   4.706   4.263   4.782  0.1946  0.5921 -0.0013
 5357SOL    HW116970   4.620   4.306   4.810 -0.4154 -0.3849 -0.3285
 5357SOL    HW216971   4.775   4.281   4.852 -0.9746 -0.7692  1.5798
 5358SOL     OW16972   5.230   2.889   1.178 -0.1763 -0.4734  0.0117
 5358SOL    HW116973   5.206   2.907   1.274  2.6306  3.0213  0.3226
 5358SOL    HW216974   5.329   2.872   1.172  0.2158  1.9326 -2.3770
 5359SOL     OW16975   4.806   2.983   4.843  0.2035  0.4277 -0.1506
 5359SOL    HW116976   4.745   2.952   4.916  1.8336 -1.7953  0.3997
 5359SOL    HW216977   4.791   2.926   4.762  0.1944  1.1680 -0.6726
 5360SOL     OW16978   2.833   5.122   3.888  0.1095  0.1388 -0.1049
 5360SOL    HW116979   2.887   5.116   3.804  0.3894 -0.4521  0.1111
 5360SOL    HW216980   2.742   5.083   3.872  0.4517 -0.7623  0.0957
 5361SOL     OW16981   1.970   1.741   2.315  0.0689 -0.4216 -0.1729
 5361SOL    HW116982   2.011   1.739   2.406 -0.1940 -2.4472 -0.0540
 5361SOL    HW216983   1.891   1.679   2.313  1.0498 -1.6992 -2.2128
 5362SOL     OW16984   1.143   5.761   6.821 -0.4088 -0.2420 -0.2480
 5362SOL    HW116985   1.145   5.692   6.894 -0.9485 -0.7734 -0.7312
 5362SOL    HW216986   1.065   5.821   6.835  0.8470  1.1845  0.9809
 5363SOL     OW16987   4.359   1.852   1.659  0.1026 -0.0915  0.7221
 5363SOL    HW116988   4.439   1.911   1.643 -0.7254  0.9373  0.1974
 5363SOL    HW216989   4.307   1.844   1.574 -0.6321 -0.3066  1.1826
 5364SOL     OW16990   0.241   3.598   5.565  0.3124 -0.4962  0.1123
 5364SOL    HW116991   0.272   3.643   5.481  0.8694 -1.5192 -0.2436
 5364SOL    HW216992   0.232   3.666   5.637  0.5591  0.2797 -0.5719
 5365SOL     OW16993   0.546   1.434   4.679 -0.0984 -0.2849 -0.3712
 5365SOL    HW116994   0.481   1.359   4.692  0.2566 -0.6311 -0.5693
 5365SOL    HW216995   0.640   1.399   4.688  0.0979 -0.0714 -1.4426
 5366SOL     OW16996   2.837   0.439   5.346  0.0701 -0.6560  0.3558
 5366SOL    HW116997   2.771   0.494   5.396 -0.7767 -1.7517  0.4803
 5366SOL    HW216998   2.917   0.422   5.404  1.0373  1.6116 -0.1760
 5367SOL     OW16999   5.454   3.959   5.841  0.2344 -0.4501 -0.4772
 5367SOL    HW117000   5.459   3.884   5.775 -0.6713 -0.0059 -1.0749
 5367SOL    HW217001   5.358   3.983   5.857  0.5171  0.9030 -0.6941
 5368SOL     OW17002   0.606   4.464   1.093 -0.4087  0.0415 -0.2018
 5368SOL    HW117003   0.655   4.390   1.046 -1.6890 -1.0803  0.1647
 5368SOL    HW217004   0.529   4.494   1.037 -0.9084 -0.0870  0.4072
 5369SOL     OW17005   3.101   2.810   5.931 -0.3858  0.4094 -0.0784
 5369SOL    HW117006   3.095   2.712   5.948  0.1368  0.5740  1.1936
 5369SOL    HW217007   3.178   2.828   5.869  1.0797  0.1719  1.5788
 5370SOL     OW17008   1.021   1.287   5.019  0.0631  0.0083  0.1593
 5370SOL    HW117009   1.095   1.286   5.087 -1.5547 -1.4083  2.0342
 5370SOL    HW217010   1.020   1.200   4.970 -0.1164  0.1677 -0.1165
 5371SOL     OW17011   6.708   3.283   3.282  0.6192  0.0018 -0.1202
 5371SOL    HW117012   6.633   3.314   3.341  1.2092 -0.0019  0.6514
 5371SOL    HW217013   6.768   3.360   3.261  1.1893 -0.2787  0.4565
 5372SOL     OW17014   2.592   0.524   5.845 -0.4706  0.8402 -0.1968
 5372SOL    HW117015   2.655   0.503   5.920  0.5465  0.3439 -1.1536
 5372SOL    HW217016   2.498   0.505   5.874  0.1161 -2.2656  0.0282
 5373SOL     OW17017   4.587   1.736   5.173 -0.0950 -0.0810 -0.4120
 5373SOL    HW117018   4.564   1.734   5.270  2.0019 -1.1375  0.1206
 5373SOL    HW217019   4.587   1.831   5.141 -1.3331  0.2332  0.4606
 5374SOL     OW17020   3.208   5.338   6.898  0.4019  0.2662  0.2519
 5374SOL    HW117021   3.182   5.307   6.807 -0.5110 -0.6067  0.7995
 5374SOL    HW217022   3.150   5.415   6.925  1.4965  1.3711 -0.3775
 5375SOL     OW17023   3.337   0.964   4.213 -0.1513 -1.0300 -0.2948
 5375SOL    HW117024   3.357   0.948   4.117 -2.3596  1.8731 -1.3810
 5375SOL    HW217025   3.254   0.916   4.240 -0.9032  0.0544 -0.5946
 5376SOL     OW17026   3.059   2.516   6.896 -0.3827 -0.3643  0.3735
 5376SOL    HW117027   3.003   2.521   6.813  0.1842 -1.9655 -0.1497
 5376SOL    HW217028   3.055   2.603   6.945 -1.8120  0.1592 -0.6243
 5377SOL     OW17029   0.642   5.775   5.252 -0.0990 -0.0654  0.0977
 5377SOL    HW117030   0.649   5.722   5.336 -0.4358  0.7931  0.6730
 5377SOL    HW217031   0.732   5.812   5.229 -0.1372  0.2494  0.4462
 5378SOL     OW17032   5.686   0.786   3.142  0.1937  0.4862 -0.0197
 5378SOL    HW117033   5.608   0.782   3.204  1.1683  0.6691  1.2609
 5378SOL    HW217034   5.769   0.805   3.194  1.2926 -0.9139 -1.1746
 5379SOL     OW17035   0.744   2.667   1.418  0.3516  0.2085 -0.1916
 5379SOL    HW117036   0.780   2.618   1.497 -0.0161  1.9348  1.1251
 5379SOL    HW217037   0.819   2.708   1.366  0.5579 -0.3633 -0.3432
 5380SOL     OW17038   2.367   6.404   6.576 -0.1587 -0.0517 -0.0902
 5380SOL    HW117039   2.301   6.472   6.545 -1.5502 -1.9449 -1.5465
 5380SOL    HW217040   2.391   6.421   6.671 -3.9829 -0.1387  1.0332
 5381SOL     OW17041   5.828   5.327   4.820  0.3069 -0.5949 -0.1111
 5381SOL    HW117042   5.858   5.236   4.850  0.5580 -0.2518  0.6932
 5381SOL    HW217043   5.864   5.345   4.728 -0.2086 -1.5303 -0.5084
 5382SOL     OW17044   3.546   3.465   3.091 -0.3228 -0.0893 -0.5599
 5382SOL    HW117045   3.584   3.430   3.176 -1.7113  0.9781  0.5721
 5382SOL    HW217046   3.579   3.411   3.014  1.5007 -0.6731  0.5742
 5383SOL     OW17047   5.371   3.284   4.384  0.0537  0.4194 -0.4857
 5383SOL    HW117048   5.315   3.367   4.379 -0.2156  0.2390 -0.5295
 5383SOL    HW217049   5.330   3.214   4.326 -0.5766 -0.2386  0.7239
 5384SOL     OW17050   4.436   5.511   5.433  0.2136 -0.1681  0.3680
 5384SOL    HW117051   4.464   5.539   5.525  1.9639 -1.4082  0.2592
 5384SOL    HW217052   4.484   5.566   5.365 -0.8828  0.5709  0.1645
 5385SOL     OW17053   6.818   5.504   1.666  0.9477  0.2953  0.0515
 5385SOL    HW117054   6.798   5.454   1.581 -1.3543  0.2448  0.5476
 5385SOL    HW217055   6.765   5.589   1.667 -0.9551 -0.7975  2.3961
 5386SOL     OW17056   4.477   5.066   0.023 -0.2873 -0.3082  0.3193
 5386SOL    HW117057   4.398   5.025  -0.022 -0.5747  1.8069 -1.2598
 5386SOL    HW217058   4.547   5.087  -0.045  0.3571  0.5907  1.2339
 5387SOL     OW17059   6.260   5.228   5.831  0.5254  0.1978 -0.3344
 5387SOL    HW117060   6.235   5.274   5.915 -1.5362 -1.2712 -0.0673
 5387SOL    HW217061   6.227   5.280   5.752 -4.3694 -1.8345 -0.0128
 5388SOL     OW17062   0.578   4.477   4.743 -0.0364  0.0550  0.6055
 5388SOL    HW117063   0.567   4.382   4.769 -2.8415  0.5179  1.4056
 5388SOL    HW217064   0.675   4.501   4.744  0.8693 -3.0739 -0.8576
 5389SOL     OW17065   6.782   5.424   2.316 -0.5792 -0.1131 -0.0645
 5389SOL    HW117066   6.832   5.349   2.358  1.1870  0.2332 -1.4428
 5389SOL    HW217067   6.696   5.439   2.365  0.2133 -1.3486  1.7836
 5390SOL     OW17068   0.759   6.530   5.876 -0.7492 -0.0010 -0.8849
 5390SOL    HW117069   0.825   6.456   5.890 -0.0241  0.5317 -1.4073
 5390SOL    HW217070   0.724   6.561   5.964 -0.4280 -0.3999 -0.6113
 5391SOL     OW17071   1.202   1.876   6.063  0.3578 -0.0608  0.0991
 5391SOL    HW117072   1.275   1.944   6.073 -0.0110  0.1846  1.2383
 5391SOL    HW217073   1.152   1.894   5.978  0.0764  1.2987  0.5233
 5392SOL     OW17074   3.631   4.948   4.740 -0.4613  0.6136 -0.6429
 5392SOL    HW117075   3.682   4.876   4.788  0.4962  0.8012 -1.3430
 5392SOL    HW217076   3.588   5.009   4.807  0.9470  0.9389  0.0143
 5393SOL     OW17077   6.929   3.297   2.957  0.2390  0.2570 -0.0720
 5393SOL    HW117078   6.909   3.387   2.918 -0.1630  0.9294  1.5827
 5393SOL    HW217079   6.949   3.232   2.883 -0.9475  1.3250 -1.3962
 5394SOL     OW17080   1.163   6.875   1.596  0.3364 -0.3314  0.4304
 5394SOL    HW117081   1.254   6.876   1.554  1.1969 -0.3423  2.1813
 5394SOL    HW217082   1.098   6.828   1.536  1.4758 -0.3040 -0.8615
 5395SOL     OW17083   2.379   4.340   4.216  0.6186  0.3201 -0.4385
 5395SOL    HW117084   2.398   4.282   4.295  2.8369  0.4507 -0.7999
 5395SOL    HW217085   2.375   4.435   4.246  0.0164  0.2514 -0.2879
 5396SOL     OW17086   3.906   2.198   4.142  0.0920  0.7225 -0.1890
 5396SOL    HW117087   3.989   2.165   4.187  0.1087  2.5954  1.2454
 5396SOL    HW217088   3.923   2.289   4.103 -0.4237 -0.1388 -2.6400
 5397SOL     OW17089   2.828   6.090   6.556  0.0382 -0.0091  0.4527
 5397SOL    HW117090   2.768   6.010   6.554  1.5283 -1.2014 -2.0410
 5397SOL    HW217091   2.803   6.152   6.482 -0.3894  1.3168  1.6761
 5398SOL     OW17092   0.803   3.551   5.554 -0.2654  0.3455  0.1415
 5398SOL    HW117093   0.757   3.636   5.579 -1.4504  0.1322 -1.1848
 5398SOL    HW217094   0.788   3.532   5.457  1.1001 -0.7006  0.1001
 5399SOL     OW17095   0.344   1.792   6.856 -0.1607  0.0958  0.2906
 5399SOL    HW117096   0.338   1.889   6.877 -2.1873  0.4216 -1.4908
 5399SOL    HW217097   0.257   1.760   6.818  0.5790 -2.3383  0.4410
 5400SOL     OW17098   1.184   6.446   1.769  0.2734  0.0329  0.1208
 5400SOL    HW117099   1.139   6.393   1.698  1.6738 -1.4371  0.2664
 5400SOL    HW217100   1.121   6.462   1.845 -1.1826  1.4677 -1.3214
 5401SOL     OW17101   1.910   6.408   4.507 -0.0642  0.3992 -0.3574
 5401SOL    HW117102   1.823   6.425   4.553 -0.6340 -1.1786 -0.7781
 5401SOL    HW217103   1.912   6.458   4.420 -1.3493 -0.8947 -1.1867
 5402SOL     OW17104   5.439   2.795   3.346 -0.3860  0.7021  0.2835
 5402SOL    HW117105   5.397   2.856   3.278 -0.4270  0.9273  0.5104
 5402SOL    HW217106   5.531   2.827   3.367 -0.5456  0.9067  0.6832
 5403SOL     OW17107   5.422   1.932   6.563 -0.2230 -0.1764  0.6125
 5403SOL    HW117108   5.445   1.986   6.643 -2.6131  0.6272  0.8490
 5403SOL    HW217109   5.359   1.859   6.589 -1.6454  0.5640 -0.5952
 5404SOL     OW17110   0.083   5.921   3.752  0.0261  0.3621 -0.2665
 5404SOL    HW117111   0.003   5.938   3.695 -0.6083  1.1531  0.8245
 5404SOL    HW217112   0.110   5.825   3.743 -1.7415 -0.2194  0.1963
 5405SOL     OW17113   5.842   1.018   1.940  0.2339  0.5065 -0.6940
 5405SOL    HW117114   5.854   0.922   1.917  1.8078  0.3410  0.6721
 5405SOL    HW217115   5.929   1.057   1.968 -1.1221  1.0352  3.5109
 5406SOL     OW17116   1.218   4.418   2.476  0.1606  0.9082 -0.2274
 5406SOL    HW117117   1.175   4.497   2.433 -1.1312  0.8499  0.9087
 5406SOL    HW217118   1.270   4.367   2.407 -0.6417  1.6224 -1.3989
 5407SOL     OW17119   2.015   2.614   0.806 -0.2092  0.2041  0.0616
 5407SOL    HW117120   2.083   2.554   0.762  1.1361  1.2530  0.6297
 5407SOL    HW217121   1.927   2.567   0.810  0.2691 -0.9122 -1.4117
 5408SOL     OW17122   2.899   3.302   5.929 -0.1143 -0.0864 -0.0158
 5408SOL    HW117123   2.928   3.206   5.918 -0.5128 -0.2557  0.4034
 5408SOL    HW217124   2.847   3.330   5.848 -1.2112 -0.6681  0.4671
 5409SOL     OW17125   3.182   2.976   0.197  0.3055 -0.1673  0.4527
 5409SOL    HW117126   3.112   2.927   0.250 -2.3694 -1.4142 -3.7429
 5409SOL    HW217127   3.262   2.917   0.185  0.1892 -0.5660  1.5571
 5410SOL     OW17128   2.676   1.296   4.606  0.0487 -0.1031 -0.0417
 5410SOL    HW117129   2.696   1.210   4.560  0.2727 -0.0140 -0.1112
 5410SOL    HW217130   2.652   1.277   4.702  1.2025 -0.1558  0.2515
 5411SOL     OW17131   1.509   3.927   1.596  0.0468  0.2109 -0.1002
 5411SOL    HW117132   1.554   3.838   1.589 -1.4169 -0.4974 -1.0307
 5411SOL    HW217133   1.481   3.958   1.505 -0.7402  0.9362  0.3653
 5412SOL     OW17134   5.295   0.209   5.649 -0.9471  0.6011  0.2699
 5412SOL    HW117135   5.310   0.202   5.748  1.7584 -1.0520 -0.1496
 5412SOL    HW217136   5.293   0.117   5.609 -2.4616  1.2267 -1.1811
 5413SOL     OW17137   0.262   3.412   0.428 -0.1393  0.1051 -0.2874
 5413SOL    HW117138   0.204   3.333   0.447  1.8157 -1.1135  0.8813
 5413SOL    HW217139   0.311   3.438   0.511 -0.4526  2.3608 -0.7402
 5414SOL     OW17140   6.600   3.625   1.503 -0.5595  0.1979  0.5082
 5414SOL    HW117141   6.504   3.636   1.532  0.0681  1.3650  2.3435
 5414SOL    HW217142   6.642   3.551   1.556 -0.4356 -0.3031 -0.2857
 5415SOL     OW17143   6.398   3.581   6.786 -0.6791  0.0734  0.6645
 5415SOL    HW117144   6.454   3.649   6.832 -2.2226  2.2564 -0.4756
 5415SOL    HW217145   6.324   3.551   6.847 -1.2766  1.1194  0.4902
 5416SOL     OW17146   2.819   0.395   3.008 -0.1869  0.5804 -0.3594
 5416SOL    HW117147   2.859   0.486   2.994  1.2288  0.1549  0.7507
 5416SOL    HW217148   2.846   0.335   2.932  1.3148  0.3067  0.3596
 5417SOL     OW17149   4.562   1.502   5.980 -0.1484  0.0398 -0.0064
 5417SOL    HW117150   4.659   1.501   6.007 -0.0059  1.1907 -0.4103
 5417SOL    HW217151   4.554   1.485   5.882 -0.3854 -0.4384  0.0952
 5418SOL     OW17152   0.135   2.507   3.920  0.1449 -0.6004  0.2127
 5418SOL    HW117153   0.123   2.532   3.824  2.7880  2.8394  0.5820
 5418SOL    HW217154   0.052   2.531   3.971  0.2902  1.8995 -0.5722
 5419SOL     OW17155   2.640   5.701   5.886 -0.2371  0.0711  0.0217
 5419SOL    HW117156   2.546   5.672   5.866 -0.5816  0.5011  0.9738
 5419SOL    HW217157   2.681   5.638   5.952 -0.2717  0.5711  0.5227
 5420SOL     OW17158   0.285   2.212   1.603 -0.0417  0.1122  0.0114
 5420SOL    HW117159   0.369   2.162   1.583  0.3901 -0.9115  3.6448
 5420SOL    HW217160   0.212   2.147   1.624 -1.6021  1.0007 -2.3019
 5421SOL     OW17161   1.919   4.267   0.616 -0.0483  0.3496 -0.0877
 5421SOL    HW117162   1.849   4.199   0.592 -1.2537  0.6470  2.2315
 5421SOL    HW217163   1.976   4.231   0.690  2.8321 -0.1586 -2.3672
 5422SOL     OW17164   4.513   6.169   4.311  0.0340  0.0455 -0.3044
 5422SOL    HW117165   4.462   6.083   4.311 -2.7522  1.5752 -0.4978
 5422SOL    HW217166   4.514   6.208   4.219 -0.8028  1.2847  0.1724
 5423SOL     OW17167   4.429   2.138   1.629 -0.4253 -0.2330 -0.5766
 5423SOL    HW117168   4.505   2.079   1.602 -1.1169 -1.6462  0.4897
 5423SOL    HW217169   4.356   2.132   1.561 -0.8001 -1.2105 -0.1013
 5424SOL     OW17170   5.520   4.950   4.201 -0.2853 -0.5948  0.3689
 5424SOL    HW117171   5.437   4.935   4.148  1.4484 -0.5728 -2.5756
 5424SOL    HW217172   5.579   4.869   4.195 -0.4755 -1.0830  3.3774
 5425SOL     OW17173   1.809   0.120   4.511 -0.1895  0.2447  0.3543
 5425SOL    HW117174   1.909   0.115   4.513 -0.2418 -0.9149  0.7651
 5425SOL    HW217175   1.780   0.214   4.526  0.8460  0.6616 -0.1672
 5426SOL     OW17176   2.184   6.774   4.287  0.5205  0.6808  0.2186
 5426SOL    HW117177   2.111   6.706   4.294 -1.4303  2.6335 -0.1034
 5426SOL    HW217178   2.191   6.824   4.374  0.3555  1.5847 -0.2807
 5427SOL     OW17179   6.521   5.993   4.980 -0.0339  0.1402 -0.5721
 5427SOL    HW117180   6.514   6.073   5.039  1.5495 -0.4527  0.4999
 5427SOL    HW217181   6.446   5.930   5.000  0.4423 -0.0244  0.8194
 5428SOL     OW17182   2.143   0.837   6.087  0.4130  0.2138 -0.2897
 5428SOL    HW117183   2.059   0.877   6.049 -0.0072 -1.6835 -1.4463
 5428SOL    HW217184   2.170   0.889   6.169 -1.1174  1.6818 -0.6567
 5429SOL     OW17185   1.395   5.399   4.241 -0.4017 -0.1630  0.5414
 5429SOL    HW117186   1.428   5.486   4.203  0.3549  0.0995  1.7125
 5429SOL    HW217187   1.314   5.369   4.192  0.8791 -0.2059 -1.6928
 5430SOL     OW17188   3.503   1.364   5.169  0.1199  0.1700  0.0915
 5430SOL    HW117189   3.586   1.394   5.123 -0.1890  0.0318 -0.5570
 5430SOL    HW217190   3.476   1.274   5.134 -0.7093  0.5333 -0.2125
 5431SOL     OW17191   5.906   5.247   3.157 -0.7983 -0.2192 -0.1029
 5431SOL    HW117192   5.972   5.212   3.223 -0.7224 -1.0136 -0.5931
 5431SOL    HW217193   5.889   5.344   3.176  0.8467  0.1401 -0.2326
 5432SOL     OW17194   6.753   4.433   5.270 -0.0488  0.0865  0.4177
 5432SOL    HW117195   6.795   4.521   5.246  2.2775 -0.5880  1.7397
 5432SOL    HW217196   6.769   4.414   5.366  3.8745 -3.8957 -0.7129
 5433SOL     OW17197   6.997   6.660   3.216  0.1220  0.4808  0.9299
 5433SOL    HW117198   6.980   6.569   3.254 -0.5092  0.0302 -0.3823
 5433SOL    HW217199   7.053   6.713   3.280  3.1572 -1.8708  0.4409
 5434SOL     OW17200   0.309   6.309   3.145  0.2557  0.1066 -0.1378
 5434SOL    HW117201   0.351   6.220   3.167 -0.3871 -0.0649  0.4449
 5434SOL    HW217202   0.360   6.382   3.190 -1.2347 -0.2622  2.3761
 5435SOL     OW17203   3.075   1.449   1.014  0.5410  0.6472  0.1719
 5435SOL    HW117204   3.146   1.495   0.960  0.6714  0.5957  0.2967
 5435SOL    HW217205   3.116   1.411   1.097  0.5618 -0.2508 -0.2337
 5436SOL     OW17206   3.073   5.020   0.315 -0.8761 -0.3951 -0.6731
 5436SOL    HW117207   3.154   4.987   0.362 -0.0301  1.1918 -0.9161
 5436SOL    HW217208   3.002   5.042   0.381 -0.3407  0.1494 -0.2660
 5437SOL     OW17209   1.765   5.366   5.888  0.1390  0.3399 -0.5037
 5437SOL    HW117210   1.839   5.433   5.895  0.4084 -0.0277  0.4497
 5437SOL    HW217211   1.749   5.326   5.979 -1.7720  0.9771 -0.5292
 5438SOL     OW17212   3.578   3.609   5.443  0.0074 -0.0224 -0.4633
 5438SOL    HW117213   3.503   3.583   5.381 -0.3216 -0.2867  0.0422
 5438SOL    HW217214   3.606   3.530   5.496 -0.1075  0.3392  0.1421
 5439SOL     OW17215   1.705   6.656   6.323 -0.3731 -0.2568 -0.4023
 5439SOL    HW117216   1.786   6.703   6.359 -1.6238  0.6007  1.4233
 5439SOL    HW217217   1.682   6.580   6.384  0.7456 -2.4491 -2.5159
 5440SOL     OW17218   3.130   2.650   5.567  0.1198 -0.5256 -0.0567
 5440SOL    HW117219   3.185   2.631   5.485 -0.3035 -0.8618 -0.2716
 5440SOL    HW217220   3.163   2.734   5.611  0.6213 -0.5714 -0.3350
 5441SOL     OW17221   3.559   4.123   5.811 -0.3050  0.4801  0.1809
 5441SOL    HW117222   3.574   4.042   5.755  0.3612 -0.5565  1.7597
 5441SOL    HW217223   3.601   4.202   5.768 -1.2147  0.0856 -1.5406
 5442SOL     OW17224   2.663   2.601   1.650 -0.2090  0.1523 -0.2574
 5442SOL    HW117225   2.761   2.609   1.668 -0.2629  0.1358  0.0351
 5442SOL    HW217226   2.615   2.580   1.734 -0.6643  1.8584 -0.0441
 5443SOL     OW17227   4.623   3.784   5.562 -0.3240  0.7529 -0.0484
 5443SOL    HW117228   4.549   3.725   5.531  0.2482  0.0730 -0.1286
 5443SOL    HW217229   4.680   3.811   5.485  0.8221 -0.5588  0.2965
 5444SOL     OW17230   5.182   4.389   5.017  0.0260  0.0903 -0.1513
 5444SOL    HW117231   5.144   4.301   4.989 -1.2554  0.6431 -0.2069
 5444SOL    HW217232   5.175   4.398   5.116 -0.7073  0.5189 -0.2411
 5445SOL     OW17233   5.645   2.316   2.433  0.1539  0.5217  0.3462
 5445SOL    HW117234   5.609   2.357   2.349  0.9991  2.1324  0.7200
 5445SOL    HW217235   5.690   2.229   2.410 -1.3654 -0.0784 -0.5338
 5446SOL     OW17236   4.415   6.867   3.419  0.5038  0.5293  0.1177
 5446SOL    HW117237   4.405   6.779   3.371  0.9121  0.3270  0.3986
 5446SOL    HW217238   4.509   6.899   3.410  0.3457  0.9585 -0.0132
 5447SOL     OW17239   4.591   4.601   3.950 -0.6250  0.1334 -0.3740
 5447SOL    HW117240   4.524   4.611   4.024 -0.5467  0.6427 -0.3641
 5447SOL    HW217241   4.613   4.692   3.913  0.3688  0.0123 -0.1086
 5448SOL     OW17242   4.909   6.232   4.070  1.0633 -0.3853 -0.6383
 5448SOL    HW117243   4.973   6.295   4.114  0.1825 -0.7739  1.3149
 5448SOL    HW217244   4.947   6.139   4.072  0.5695 -0.5750  0.2924
 5449SOL     OW17245   3.530   1.028   1.303 -0.1815  0.2233  0.2677
 5449SOL    HW117246   3.530   1.046   1.401  1.3802  0.3615  0.2652
 5449SOL    HW217247   3.497   0.935   1.286  1.2508 -0.4743  1.0945
 5450SOL     OW17248   0.597   0.210   2.401  0.4450  0.4568  0.2111
 5450SOL    HW117249   0.554   0.229   2.489  2.1414 -0.9595  1.4141
 5450SOL    HW217250   0.584   0.114   2.377 -1.0859  1.0872 -1.7696
 5451SOL     OW17251   6.961   5.378   3.425  0.0989 -0.7801 -0.1387
 5451SOL    HW117252   6.903   5.405   3.501  1.1602  1.5008 -0.0502
 5451SOL    HW217253   6.909   5.383   3.340  0.2261  1.9668 -0.1598
 5452SOL     OW17254   5.490   6.993   2.721  0.3544 -0.0061  0.1015
 5452SOL    HW117255   5.405   6.998   2.774 -0.8601 -0.4952 -1.6998
 5452SOL    HW217256   5.468   6.990   2.623  2.4818  0.2789 -0.4356
 5453SOL     OW17257   4.798   3.140   6.291 -0.0793  0.2479  0.6573
 5453SOL    HW117258   4.878   3.155   6.347  0.5838  1.2175 -0.5144
 5453SOL    HW217259   4.790   3.042   6.270  0.6704  0.1149  0.9686
 5454SOL     OW17260   4.948   5.622   1.316 -0.0800 -0.4928  0.1464
 5454SOL    HW117261   4.907   5.664   1.396 -0.2959  0.2324 -0.3335
 5454SOL    HW217262   4.965   5.525   1.334 -0.7690 -0.4990  0.8135
 5455SOL     OW17263   3.840   0.234   0.415 -0.2968 -0.6003 -0.0832
 5455SOL    HW117264   3.901   0.280   0.479 -0.0631  0.2807 -0.9116
 5455SOL    HW217265   3.866   0.258   0.321 -0.9723 -1.4252 -0.4991
 5456SOL     OW17266   4.462   0.741   2.304 -0.0268  0.5756  0.0562
 5456SOL    HW117267   4.435   0.668   2.242 -1.7699  1.3080 -0.1061
 5456SOL    HW217268   4.536   0.794   2.263 -0.4289  0.3920 -0.9334
 5457SOL     OW17269   3.669   0.305   2.672 -0.1283 -0.4101  0.1284
 5457SOL    HW117270   3.641   0.252   2.752 -2.9610  0.1513 -0.3866
 5457SOL    HW217271   3.699   0.396   2.702 -1.5276 -0.0703  0.5551
 5458SOL     OW17272   0.235   5.462   5.748  0.2372  0.2745  0.1272
 5458SOL    HW117273   0.294   5.382   5.746 -0.6841 -0.4254 -0.1182
 5458SOL    HW217274   0.262   5.523   5.823  0.5275 -0.6087  0.7505
 5459SOL     OW17275   1.843   6.485   0.559 -0.3169 -0.2296 -0.8814
 5459SOL    HW117276   1.921   6.423   0.549 -0.3949 -0.3040 -1.0253
 5459SOL    HW217277   1.805   6.506   0.469 -0.6318 -0.4089 -0.7887
 5460SOL     OW17278   1.717   6.656   1.743  0.1271 -0.6089  0.3298
 5460SOL    HW117279   1.622   6.663   1.712  0.2947 -0.4190 -0.1387
 5460SOL    HW217280   1.728   6.573   1.798 -0.3207 -0.6076  0.4255
 5461SOL     OW17281   3.906   3.865   3.856 -0.0262  0.3334 -0.5534
 5461SOL    HW117282   3.876   3.770   3.865  1.1052  0.0858  1.0817
 5461SOL    HW217283   3.986   3.869   3.796  0.2404  0.1700 -0.2129
 5462SOL     OW17284   4.417   3.800   6.899  0.2452  0.0892 -0.4790
 5462SOL    HW117285   4.451   3.708   6.917  2.2543  0.4944 -1.8451
 5462SOL    HW217286   4.327   3.794   6.855 -0.0149 -1.1567  0.1572
 5463SOL     OW17287   3.725   4.629   6.482 -0.5750 -0.5338  0.4507
 5463SOL    HW117288   3.816   4.635   6.442 -0.5381  0.8370  0.6958
 5463SOL    HW217289   3.675   4.553   6.441  0.4000 -0.7992 -0.2614
 5464SOL     OW17290   5.315   1.758   1.401 -0.0069  0.0552 -0.2908
 5464SOL    HW117291   5.218   1.744   1.423  0.2883 -0.2540  0.8865
 5464SOL    HW217292   5.326   1.764   1.302 -0.9559 -2.1037 -0.5723
 5465SOL     OW17293   2.076   5.362   1.914  0.4941  0.2180 -0.7629
 5465SOL    HW117294   1.994   5.410   1.944  0.1621 -0.9726  0.3295
 5465SOL    HW217295   2.135   5.424   1.862 -1.0763  1.1028 -1.5368
 5466SOL     OW17296   3.650   0.032   4.194  0.1035 -0.1411 -0.1451
 5466SOL    HW117297   3.598   0.096   4.137  2.0305  0.7397 -0.9977
 5466SOL    HW217298   3.621  -0.061   4.173  0.1751  0.2050 -2.0017
 5467SOL     OW17299   4.967   6.631   1.154  0.0312 -0.2956  0.3041
 5467SOL    HW117300   4.974   6.625   1.254 -2.4347  1.1166  0.6359
 5467SOL    HW217301   5.037   6.572   1.113  1.8975 -0.0391  2.8198
 5468SOL     OW17302   6.023   4.475   4.609 -0.3296  0.4708 -0.2968
 5468SOL    HW117303   6.038   4.449   4.514 -0.4729 -0.9491  0.0364
 5468SOL    HW217304   5.983   4.398   4.658  1.7222  0.3895  1.4076
 5469SOL     OW17305   0.628   2.350   3.796  0.4362 -0.3714  0.0753
 5469SOL    HW117306   0.694   2.399   3.853  0.9941 -2.3023  1.1881
 5469SOL    HW217307   0.611   2.402   3.712  1.7254  1.1960  0.7298
 5470SOL     OW17308   4.933   2.443   3.865  0.7020 -0.0610  0.4681
 5470SOL    HW117309   4.950   2.363   3.922  0.2392 -0.4663  0.0354
 5470SOL    HW217310   4.985   2.521   3.902  1.4957 -0.6584  0.6339
 5471SOL     OW17311   0.993   0.990   4.942 -0.0958  0.0189  0.3359
 5471SOL    HW117312   1.030   0.921   4.880 -0.1805  0.4061 -0.1487
 5471SOL    HW217313   1.063   1.017   5.008 -0.0167 -0.4188  0.4332
 5472SOL     OW17314   5.828   4.554   5.865 -0.0843  0.1929 -0.6980
 5472SOL    HW117315   5.910   4.591   5.910 -1.1143  1.1488  0.4477
 5472SOL    HW217316   5.856   4.502   5.784  1.6960 -0.0252  0.0044
 5473SOL     OW17317   4.146   1.863   0.498  0.2895  0.2562  0.4317
 5473SOL    HW117318   4.106   1.954   0.489 -0.6653 -0.0862  1.0792
 5473SOL    HW217319   4.195   1.857   0.586  2.3511  0.8669 -0.5971
 5474SOL     OW17320   5.457   5.760   2.103  0.0056  0.7342  0.0101
 5474SOL    HW117321   5.547   5.761   2.146 -0.6007  0.4665  1.3537
 5474SOL    HW217322   5.423   5.666   2.099  0.5075  0.5848 -2.1572
 5475SOL     OW17323   3.643   5.756   4.261  0.2195  0.0490  0.2226
 5475SOL    HW117324   3.697   5.700   4.198 -0.3691  0.6464 -0.8416
 5475SOL    HW217325   3.548   5.725   4.260 -0.0206  0.7702 -0.0507
 5476SOL     OW17326   6.178   1.679   4.698  0.0277  0.1662  0.0996
 5476SOL    HW117327   6.129   1.761   4.667 -0.3788  1.1758  3.0622
 5476SOL    HW217328   6.276   1.691   4.683  0.2060  2.1712  2.1976
 5477SOL     OW17329   3.452   3.679   2.980  0.2874  0.0659  0.4282
 5477SOL    HW117330   3.480   3.605   3.041 -1.1314  0.2500  1.3587
 5477SOL    HW217331   3.361   3.659   2.943 -0.1551  1.3483  0.7498
 5478SOL     OW17332   4.462   5.171   1.897 -0.3561  0.4903  0.0738
 5478SOL    HW117333   4.487   5.154   1.802 -0.3387 -2.1997  0.5039
 5478SOL    HW217334   4.464   5.086   1.949 -1.2008  1.7402  2.3225
 5479SOL     OW17335   5.754   2.127   1.871 -0.0127 -0.6280  0.0332
 5479SOL    HW117336   5.842   2.174   1.876 -0.5070  0.4068 -0.6793
 5479SOL    HW217337   5.758   2.054   1.803  0.0045  0.0931 -0.7532
 5480SOL     OW17338   5.482   0.878   4.906  0.1405  0.5144  0.0115
 5480SOL    HW117339   5.513   0.974   4.910  0.6818  0.3352  0.2491
 5480SOL    HW217340   5.533   0.824   4.973 -0.5630  0.1645  0.2744
 5481SOL     OW17341   2.605   0.936   5.898  0.5579 -0.2069  0.0468
 5481SOL    HW117342   2.615   0.954   5.996  2.2286 -0.9307  0.0464
 5481SOL    HW217343   2.654   1.006   5.847  2.8201 -1.7994 -0.1068
 5482SOL     OW17344   0.140   2.934   0.399  0.2362  0.0251  0.5515
 5482SOL    HW117345   0.186   2.858   0.354 -0.5031 -0.8029  1.1427
 5482SOL    HW217346   0.056   2.901   0.442 -0.0374  1.1578  0.9300
 5483SOL     OW17347   2.118   4.123   5.348 -0.1055  0.2932  0.4552
 5483SOL    HW117348   2.216   4.101   5.350 -0.1886 -0.4054 -1.4596
 5483SOL    HW217349   2.065   4.040   5.338 -0.9432  0.6537  1.6667
 5484SOL     OW17350   0.983   0.573   2.680  0.2449 -0.2340 -0.4267
 5484SOL    HW117351   0.890   0.591   2.712  0.6283 -0.2910  0.7508
 5484SOL    HW217352   0.982   0.563   2.580 -1.0134 -0.2909 -0.4260
 5485SOL     OW17353   6.034   0.100   5.751 -0.3087 -0.2559 -0.4270
 5485SOL    HW117354   5.935   0.103   5.766 -0.3895  0.7204 -1.0933
 5485SOL    HW217355   6.062   0.178   5.696  1.0472  0.2533  0.9198
 5486SOL     OW17356   2.113   4.642   1.850 -1.1840 -0.2217  0.0604
 5486SOL    HW117357   2.033   4.583   1.836 -0.7683 -0.4471 -1.5051
 5486SOL    HW217358   2.093   4.734   1.816  0.4250 -1.2050 -4.0929
 5487SOL     OW17359   6.329   4.154   4.402 -0.5770 -0.2543  0.0020
 5487SOL    HW117360   6.321   4.164   4.502 -0.7720  0.3234 -0.0663
 5487SOL    HW217361   6.327   4.057   4.378 -1.7299 -0.3728  0.4690
 5488SOL     OW17362   4.643   2.201   5.835 -0.0949  0.1404 -0.1082
 5488SOL    HW117363   4.612   2.257   5.912 -1.5237  0.0820 -0.6096
 5488SOL    HW217364   4.694   2.258   5.771  0.7644  0.2731  0.6674
 5489SOL     OW17365   4.332   5.293   4.599 -0.6858  0.1753  0.3265
 5489SOL    HW117366   4.331   5.208   4.652  0.0819  0.4759  0.8392
 5489SOL    HW217367   4.425   5.329   4.595 -0.5781 -0.1861 -1.8087
 5490SOL     OW17368   3.137   1.176   0.069  0.3502 -0.4739  0.1885
 5490SOL    HW117369   3.059   1.227   0.105  1.4424  1.0679  0.4724
 5490SOL    HW217370   3.173   1.116   0.140 -0.2445 -0.8012  0.2210
 5491SOL     OW17371   5.540   4.967   0.915 -0.2832 -0.4489  0.1871
 5491SOL    HW117372   5.502   4.905   0.846  0.5516  0.7936 -1.4773
 5491SOL    HW217373   5.630   4.934   0.944 -0.5490 -0.8724  0.5220
 5492SOL     OW17374   2.792   2.604   0.321 -0.1475  0.1609 -0.1548
 5492SOL    HW117375   2.807   2.564   0.412  0.8584 -0.2138 -0.4706
 5492SOL    HW217376   2.798   2.704   0.327  3.7143  0.0844 -0.3627
 5493SOL     OW17377   1.432   1.105   5.642 -0.5597 -0.0865 -0.0905
 5493SOL    HW117378   1.439   1.056   5.728 -0.4467 -2.6990 -1.4957
 5493SOL    HW217379   1.521   1.106   5.596 -0.9719 -0.1355 -0.9110
 5494SOL     OW17380   4.376   5.292   2.904 -0.0672 -0.4220  0.1679
 5494SOL    HW117381   4.408   5.226   2.836 -2.0042  0.6462 -1.9170
 5494SOL    HW217382   4.430   5.376   2.898  0.1159 -0.5270  0.3411
 5495SOL     OW17383   3.454   4.534   0.103  0.2299 -0.4698  0.3473
 5495SOL    HW117384   3.422   4.488   0.020  1.3354  0.4745 -0.6429
 5495SOL    HW217385   3.376   4.564   0.157 -0.5094 -1.3820 -0.1777
 5496SOL     OW17386   2.445   5.235   6.065 -0.2489 -0.6162  0.5163
 5496SOL    HW117387   2.529   5.220   6.012 -0.2901 -1.3758  0.6586
 5496SOL    HW217388   2.400   5.147   6.083 -0.3595 -0.3523  1.6175
 5497SOL     OW17389   6.871   6.712   4.396 -0.0525 -0.2034 -0.0278
 5497SOL    HW117390   6.812   6.743   4.471  1.5103 -0.9661  1.5949
 5497SOL    HW217391   6.917   6.627   4.422  0.4138 -0.5815 -1.9393
 5498SOL     OW17392   4.532   1.222   3.345 -0.2854 -0.3704  0.1439
 5498SOL    HW117393   4.582   1.151   3.393  0.0912 -0.2853 -0.1207
 5498SOL    HW217394   4.537   1.308   3.396 -0.6440 -0.5047  0.4056
 5499SOL     OW17395   6.991   6.402   2.554 -0.2205 -0.4595  0.3649
 5499SOL    HW117396   7.044   6.443   2.628  1.4624  2.1593 -2.1195
 5499SOL    HW217397   7.044   6.328   2.513 -1.3252 -2.1940  1.8942
 5500SOL     OW17398   2.502   1.911   4.086 -0.3010  0.0299  0.2219
 5500SOL    HW117399   2.576   1.929   4.151  0.3037  1.0856 -0.7171
 5500SOL    HW217400   2.534   1.932   3.994 -1.4022 -0.6665 -0.3324
 5501SOL     OW17401   0.754   1.071   6.576 -0.5104  0.1176 -0.2712
 5501SOL    HW117402   0.784   1.062   6.671  0.4126  0.9357 -0.4766
 5501SOL    HW217403   0.704   1.157   6.564 -0.1005  0.3040 -0.6584
 5502SOL     OW17404   2.787   0.581   6.084 -0.1509  0.5885 -0.2932
 5502SOL    HW117405   2.700   0.625   6.106 -0.0866  0.5131  0.1150
 5502SOL    HW217406   2.786   0.486   6.114 -0.5055  0.1230 -1.7039
 5503SOL     OW17407   4.593   2.891   5.623  0.2765  0.3435  0.4025
 5503SOL    HW117408   4.504   2.901   5.580  0.6076  1.8701  0.0400
 5503SOL    HW217409   4.647   2.824   5.573 -0.7124 -0.7412  0.7378
 5504SOL     OW17410   3.239   1.938   4.671 -0.3998 -0.2670  0.5741
 5504SOL    HW117411   3.289   1.906   4.590 -1.8613 -1.0323 -0.0725
 5504SOL    HW217412   3.287   1.908   4.753  0.8828  0.1360  0.0002
 5505SOL     OW17413   0.683   0.451   0.595  0.5191  0.4315  0.3820
 5505SOL    HW117414   0.690   0.470   0.692 -0.2068 -2.2104  1.0481
 5505SOL    HW217415   0.597   0.402   0.577  0.5737  0.9824 -1.6120
 5506SOL     OW17416   3.829   5.433   0.276  0.7492 -0.5854 -0.0032
 5506SOL    HW117417   3.875   5.515   0.241  0.1192 -1.5071 -3.3272
 5506SOL    HW217418   3.873   5.352   0.238 -1.6558 -1.5884 -0.8694
 5507SOL     OW17419   1.457   6.858   3.388 -0.2061  0.0415 -0.1896
 5507SOL    HW117420   1.488   6.940   3.436  1.3403 -1.5512  1.6980
 5507SOL    HW217421   1.506   6.778   3.423 -2.3820 -1.8684 -1.2262
 5508SOL     OW17422   1.092   6.882   5.660 -0.5488  0.2526 -0.2953
 5508SOL    HW117423   1.143   6.831   5.590 -0.8631 -1.5756  0.7592
 5508SOL    HW217424   1.027   6.943   5.615  0.4083  0.3696 -1.6126
 5509SOL     OW17425   5.359   6.884   0.543  0.0223  0.0023  0.8336
 5509SOL    HW117426   5.420   6.888   0.622  0.2527  0.8812  0.6148
 5509SOL    HW217427   5.357   6.791   0.507 -0.5600 -0.5587  2.2368
 5510SOL     OW17428   3.326   5.886   2.518 -0.3565 -0.3094  0.6741
 5510SOL    HW117429   3.352   5.959   2.582 -0.0230 -0.5239  0.7853
 5510SOL    HW217430   3.361   5.799   2.551 -2.1320 -0.7878  1.3718
 5511SOL     OW17431   6.078   4.280   6.750 -0.0085  0.0420  0.2888
 5511SOL    HW117432   6.171   4.269   6.784  0.4930  0.3764 -0.9252
 5511SOL    HW217433   6.021   4.206   6.785  0.2002  0.9026  2.6663
 5512SOL     OW17434   1.821   0.558   6.607 -0.0850  0.1709  0.1386
 5512SOL    HW117435   1.905   0.516   6.641  1.0629 -0.4780 -3.1793
 5512SOL    HW217436   1.824   0.656   6.621  0.8782  0.0707  0.7184
 5513SOL     OW17437   1.518   4.613   0.143 -0.0735 -0.1726 -0.0977
 5513SOL    HW117438   1.534   4.615   0.044 -2.7419  1.5057 -0.5926
 5513SOL    HW217439   1.599   4.648   0.190  1.2754 -1.0827 -1.6379
 5514SOL     OW17440   4.792   3.269   1.269  0.3914 -0.1526 -0.5105
 5514SOL    HW117441   4.848   3.323   1.332 -1.6326  1.8384 -0.2976
 5514SOL    HW217442   4.833   3.273   1.177  0.5640  1.3988 -0.3958
 5515SOL     OW17443   5.843   3.691   4.270 -0.8868  0.1464 -0.1080
 5515SOL    HW117444   5.870   3.741   4.188 -2.0296 -0.0266 -0.6149
 5515SOL    HW217445   5.843   3.592   4.251  0.6891 -0.0418  0.6839
 5516SOL     OW17446   5.114   1.289   1.613 -0.0398  0.6221  0.1581
 5516SOL    HW117447   5.017   1.296   1.591 -0.0224  0.0383 -0.1400
 5516SOL    HW217448   5.126   1.228   1.692 -0.0586  2.2757  1.4893
 5517SOL     OW17449   2.539   6.900   1.882 -0.3100 -0.2789  0.3505
 5517SOL    HW117450   2.511   6.845   1.961 -0.3632 -0.1284  0.4372
 5517SOL    HW217451   2.508   6.994   1.895 -4.4268 -1.0725 -1.8665
 5518SOL     OW17452   0.501   2.651   4.679 -0.2179  0.4938  0.2791
 5518SOL    HW117453   0.464   2.738   4.646 -2.1443 -0.2859  0.2479
 5518SOL    HW217454   0.596   2.664   4.709 -0.1985  2.4020 -0.4880
 5519SOL     OW17455   5.825   4.492   2.120  0.2787 -0.4875 -0.2223
 5519SOL    HW117456   5.893   4.524   2.054  0.6600 -0.8780 -0.0260
 5519SOL    HW217457   5.757   4.435   2.073  0.1843 -0.2346 -0.3907
 5520SOL     OW17458   2.168   3.137   0.661 -0.0412  0.3986 -0.7682
 5520SOL    HW117459   2.165   3.080   0.743 -1.4704  1.2598 -0.1719
 5520SOL    HW217460   2.166   3.079   0.579  1.3452 -0.4663 -0.2273
 5521SOL     OW17461   0.615   6.793   4.353  0.2381 -0.2635  0.0624
 5521SOL    HW117462   0.519   6.784   4.327 -0.3962  2.0619  1.2948
 5521SOL    HW217463   0.662   6.854   4.289  0.3965  0.0861  0.5028
 5522SOL     OW17464   1.968   4.744   0.870  0.1871 -0.3240  0.4617
 5522SOL    HW117465   1.874   4.742   0.904  0.6355 -0.5769  1.7020
 5522SOL    HW217466   1.987   4.659   0.820  0.0588 -0.6816  1.0228
 5523SOL     OW17467   1.885   1.286   6.438 -0.6072 -0.0799  0.2412
 5523SOL    HW117468   1.823   1.216   6.473  1.2466 -2.1380 -0.3733
 5523SOL    HW217469   1.963   1.295   6.500 -0.5774  1.1210  0.0549
 5524SOL     OW17470   3.201   1.237   5.973 -0.0983  0.4616  0.2480
 5524SOL    HW117471   3.272   1.289   5.926 -0.3308  0.3965 -0.1739
 5524SOL    HW217472   3.215   1.244   6.072 -1.2702  3.0186  0.3250
 5525SOL     OW17473   6.368   4.238   3.482 -0.3664 -0.1962  0.4568
 5525SOL    HW117474   6.388   4.249   3.579 -1.2922  0.3335  0.5978
 5525SOL    HW217475   6.273   4.263   3.464 -0.4287 -1.0201 -0.4662
 5526SOL     OW17476   5.414   6.033   3.878 -0.0011 -0.0905  0.2784
 5526SOL    HW117477   5.327   6.074   3.907 -0.5651 -0.1526 -1.2259
 5526SOL    HW217478   5.425   6.044   3.779  0.5421 -2.2353  0.0425
 5527SOL     OW17479   4.278   2.125   0.894  0.2670 -0.1009  0.0176
 5527SOL    HW117480   4.320   2.129   0.803  0.6777 -1.6025  0.1183
 5527SOL    HW217481   4.344   2.087   0.959 -0.7849 -1.1916  0.4687
 5528SOL     OW17482   4.159   6.610   1.145 -0.2025  0.0139 -0.3777
 5528SOL    HW117483   4.109   6.529   1.177 -1.0515  0.3098 -0.9317
 5528SOL    HW217484   4.113   6.693   1.177  0.7371  0.2896  0.2946
 5529SOL     OW17485   4.248   2.985   0.532 -0.3759  0.2934 -0.8391
 5529SOL    HW117486   4.269   3.066   0.587 -2.0565  1.2873 -1.5844
 5529SOL    HW217487   4.269   3.003   0.436 -3.7306  1.1664 -1.5576
 5530SOL     OW17488   5.337   4.814   1.622 -0.1210  0.6836 -0.2555
 5530SOL    HW117489   5.395   4.798   1.542  0.6736  1.8448  0.0685
 5530SOL    HW217490   5.242   4.795   1.598  0.2894 -0.5376 -1.0041
 5531SOL     OW17491   6.869   4.975   5.737 -0.4671  0.0597 -0.2430
 5531SOL    HW117492   6.822   4.902   5.686  0.5367 -0.2888 -0.6916
 5531SOL    HW217493   6.920   5.033   5.673  0.3987 -0.0780  0.3078
 5532SOL     OW17494   0.252   4.699   3.819  0.3479 -0.0695  0.4919
 5532SOL    HW117495   0.231   4.619   3.762 -0.4735  1.8914 -2.1757
 5532SOL    HW217496   0.332   4.680   3.876  0.4675 -2.6062 -0.4216
 5533SOL     OW17497   6.035   2.941   1.439 -0.2553  0.5466 -0.1780
 5533SOL    HW117498   6.078   2.851   1.434  0.9249  1.1217 -1.0098
 5533SOL    HW217499   6.030   2.981   1.347  0.3642  1.8167  0.3182
 5534SOL     OW17500   1.792   3.932   5.762 -0.3061 -0.2598 -0.3767
 5534SOL    HW117501   1.714   3.963   5.708  0.2711  0.3214 -0.8981
 5534SOL    HW217502   1.773   3.840   5.798 -0.9597 -0.4041 -1.0545
 5535SOL     OW17503   5.414   1.492   1.421 -0.0734 -0.3775  0.2224
 5535SOL    HW117504   5.397   1.414   1.360  0.5177  0.0909 -0.5712
 5535SOL    HW217505   5.438   1.572   1.366 -1.5563  0.6279  0.9760
 5536SOL     OW17506   1.265   2.286   0.594 -0.4534 -0.0030  0.2344
 5536SOL    HW117507   1.359   2.316   0.576 -0.3732 -0.7152 -0.5551
 5536SOL    HW217508   1.230   2.335   0.674  0.0829  1.3236 -0.3157
 5537SOL     OW17509   2.160   1.785   3.220  0.3672  0.0530 -0.0572
 5537SOL    HW117510   2.164   1.739   3.309  1.0547 -0.6546 -0.4463
 5537SOL    HW217511   2.204   1.875   3.227 -0.0293  0.2127  0.4375
 5538SOL     OW17512   3.332   0.718   2.443 -0.1639  0.2259  0.2728
 5538SOL    HW117513   3.342   0.673   2.532 -1.2186  0.7253  0.6608
 5538SOL    HW217514   3.370   0.811   2.449  0.9948 -0.1925 -0.2081
 5539SOL     OW17515   3.993   3.036   1.816 -0.0175 -0.2986  0.2188
 5539SOL    HW117516   3.980   3.008   1.912 -0.6639 -0.7174  0.0198
 5539SOL    HW217517   3.972   2.959   1.756 -4.2798  1.1385 -0.4813
 5540SOL     OW17518   3.074   6.241   4.146 -0.4219 -0.1409 -0.0554
 5540SOL    HW117519   3.089   6.323   4.090 -1.3210 -0.4544 -0.7751
 5540SOL    HW217520   3.072   6.267   4.243 -1.1651  0.7733 -0.2981
 5541SOL     OW17521   1.312   5.403   5.848 -0.2804 -0.4395 -0.6591
 5541SOL    HW117522   1.236   5.405   5.783 -0.7585  2.4392 -0.1644
 5541SOL    HW217523   1.374   5.480   5.829  0.2741 -0.2959  1.4585
 5542SOL     OW17524   5.048   2.419   0.506 -0.0321  0.5069  0.2350
 5542SOL    HW117525   5.022   2.324   0.524  0.0785  0.2988 -0.6748
 5542SOL    HW217526   4.968   2.470   0.475  0.5758 -0.2062 -2.8590
 5543SOL     OW17527   5.071   2.074   5.683 -0.5135 -0.0262 -0.4724
 5543SOL    HW117528   5.065   2.128   5.599  0.0282 -2.7277 -2.3813
 5543SOL    HW217529   4.980   2.037   5.706  0.0064 -2.8545 -2.5068
 5544SOL     OW17530   3.380   3.121   4.926 -0.1904  0.2071  0.3425
 5544SOL    HW117531   3.351   3.217   4.933 -0.7401  0.0897 -0.2545
 5544SOL    HW217532   3.461   3.115   4.869 -0.4237  0.2682  0.0028
 5545SOL     OW17533   4.019   3.108   0.114 -0.8639  0.4415 -0.3350
 5545SOL    HW117534   4.031   3.010   0.126 -2.1787  0.0957 -1.6023
 5545SOL    HW217535   3.942   3.140   0.169  0.3844  1.0643  1.1456
 5546SOL     OW17536   3.445   4.383   5.687 -0.2655  0.1730  0.5536
 5546SOL    HW117537   3.384   4.309   5.658 -0.9122  0.5312  0.9655
 5546SOL    HW217538   3.538   4.364   5.656 -0.9081  0.5348 -1.7838
 5547SOL     OW17539   2.057   0.614   3.067 -0.4466 -0.8541 -0.0974
 5547SOL    HW117540   2.002   0.697   3.056 -1.1023 -1.3953 -0.9303
 5547SOL    HW217541   2.104   0.594   2.981  1.4292 -0.1638  0.7044
 5548SOL     OW17542   5.136   6.507   1.770  0.7693  0.6619  0.3226
 5548SOL    HW117543   5.059   6.570   1.777 -1.2787 -1.6177 -0.5006
 5548SOL    HW217544   5.164   6.499   1.674 -0.9948 -1.7881 -0.0955
 5549SOL     OW17545   3.981   1.690   5.600 -0.2695 -0.0906  0.3198
 5549SOL    HW117546   4.028   1.649   5.679 -1.2159  0.4186  1.1783
 5549SOL    HW217547   3.894   1.730   5.631 -1.4477 -1.3263 -1.2808
 5550SOL     OW17548   1.725   5.296   3.564 -0.1577 -0.1436 -0.2045
 5550SOL    HW117549   1.742   5.291   3.466  1.7525 -1.5426  0.1403
 5550SOL    HW217550   1.700   5.206   3.599 -0.8841  0.3478  0.5976
 5551SOL     OW17551   1.210   6.500   4.740 -0.1126  0.3870  0.0842
 5551SOL    HW117552   1.274   6.479   4.814 -0.8036  0.6733  0.7806
 5551SOL    HW217553   1.223   6.595   4.711  0.0298  0.3333 -0.0267
 5552SOL     OW17554   2.405   2.668   6.272 -0.0897  0.5230 -0.1442
 5552SOL    HW117555   2.381   2.726   6.350 -0.2037 -0.5147  0.6000
 5552SOL    HW217556   2.486   2.705   6.227 -0.4677  1.5604 -0.0136
 5553SOL     OW17557   5.767   5.011   1.475 -0.4570  0.2269  0.1165
 5553SOL    HW117558   5.734   4.991   1.383 -2.5100  0.9242  0.6606
 5553SOL    HW217559   5.719   5.090   1.512  0.3853  0.0199  1.7789
 5554SOL     OW17560   6.156   6.166   4.192 -0.1627 -0.0563  0.4673
 5554SOL    HW117561   6.199   6.247   4.153 -1.3637  0.7925  0.8680
 5554SOL    HW217562   6.073   6.192   4.241 -2.1467 -1.8303 -1.7097
 5555SOL     OW17563   1.117   4.291   0.688  0.0493  0.7188  0.3095
 5555SOL    HW117564   1.072   4.364   0.738 -0.2616 -0.4385  1.7845
 5555SOL    HW217565   1.053   4.251   0.623 -0.4384  0.3983  0.9774
 5556SOL     OW17566   4.710   0.556   1.519 -0.7612 -0.1009 -0.2999
 5556SOL    HW117567   4.627   0.559   1.463 -3.7298  0.1607  3.6955
 5556SOL    HW217568   4.740   0.461   1.530 -1.3426 -0.3300 -0.7028
 5557SOL     OW17569   1.873   1.475   4.953  0.4630 -0.8918 -0.3562
 5557SOL    HW117570   1.821   1.391   4.941 -0.2684 -0.5831  0.5129
 5557SOL    HW217571   1.854   1.537   4.876  0.1440 -1.0933 -0.4421
 5558SOL     OW17572   5.219   0.859   2.776  0.2090 -0.0876 -0.4076
 5558SOL    HW117573   5.317   0.852   2.759  0.1554 -0.5427 -0.5321
 5558SOL    HW217574   5.185   0.775   2.818  0.6565  1.6127  3.8095
 5559SOL     OW17575   1.992   0.188   0.690  0.1981  0.2196  1.3550
 5559SOL    HW117576   1.939   0.245   0.754  1.3685  0.7407  1.8860
 5559SOL    HW217577   2.011   0.099   0.732  0.2522  0.2487  1.3911
 5560SOL     OW17578   3.981   1.588   4.984 -0.1101  0.4742  0.6650
 5560SOL    HW117579   3.950   1.671   5.031  2.6536  1.3127  1.1517
 5560SOL    HW217580   4.020   1.613   4.895  2.8878  0.1334  1.7640
 5561SOL     OW17581   4.877   0.002   2.511 -0.1607 -0.6302  0.3659
 5561SOL    HW117582   4.933   0.026   2.590 -1.4140  0.6064  0.9048
 5561SOL    HW217583   4.925  -0.068   2.457  0.4857 -1.8707  2.4475
 5562SOL     OW17584   1.818   3.514   4.206  0.1937  0.3332 -0.0643
 5562SOL    HW117585   1.802   3.423   4.243 -0.2855 -0.7775 -2.8063
 5562SOL    HW217586   1.913   3.522   4.177  0.4518  1.0239  0.9483
 5563SOL     OW17587   5.700   1.902   1.744  0.1628  0.8265  0.0784
 5563SOL    HW117588   5.700   1.804   1.763  1.6258 -0.0690 -3.6631
 5563SOL    HW217589   5.633   1.922   1.672 -0.6406  2.7675  1.2792
 5564SOL     OW17590   4.174   2.649   0.281  0.0859 -0.1449 -0.3408
 5564SOL    HW117591   4.142   2.555   0.292  0.2224 -0.0254  1.1626
 5564SOL    HW217592   4.257   2.663   0.334  0.7105  0.5231 -1.4558
 5565SOL     OW17593   2.684   6.200   2.565 -0.3465  0.6380  0.2555
 5565SOL    HW117594   2.604   6.194   2.506  0.4232 -0.4447 -0.7300
 5565SOL    HW217595   2.686   6.121   2.627 -0.2535  0.8748  0.5570
 5566SOL     OW17596   1.289   1.166   1.771  0.1441  0.1902  0.7149
 5566SOL    HW117597   1.317   1.080   1.729 -1.0600  0.7528 -1.4121
 5566SOL    HW217598   1.193   1.159   1.800  0.4835  0.3494  1.9018
 5567SOL     OW17599   4.083   5.504   5.936  0.1833  0.2813 -0.3143
 5567SOL    HW117600   4.178   5.533   5.950  0.2011 -0.0302  0.2201
 5567SOL    HW217601   4.072   5.409   5.964 -0.2990  0.3330 -0.3154
 5568SOL     OW17602   6.740   1.408   5.816  0.2475 -0.1072 -0.1793
 5568SOL    HW117603   6.661   1.432   5.760  0.1023 -0.5652 -0.1708
 5568SOL    HW217604   6.744   1.468   5.896  0.4159  0.5104 -0.6324
 5569SOL     OW17605   5.742   5.589   6.698 -0.0382 -0.5248  0.2401
 5569SOL    HW117606   5.668   5.655   6.698  0.4630  0.0487  0.6063
 5569SOL    HW217607   5.778   5.580   6.791  1.2422  0.2293 -0.1597
 5570SOL     OW17608   6.322   4.224   2.007  0.3842  0.1732 -0.0188
 5570SOL    HW117609   6.327   4.263   1.915 -0.3777  1.0633  0.3027
 5570SOL    HW217610   6.414   4.221   2.046  0.5693  0.9387 -0.3570
 5571SOL     OW17611   2.853   1.286   3.878 -0.0317 -1.0575 -0.7893
 5571SOL    HW117612   2.826   1.272   3.973 -1.7103 -1.4678 -1.2921
 5571SOL    HW217613   2.942   1.330   3.875 -0.8768  0.9593  1.0311
 5572SOL     OW17614   2.513   2.120   3.591  0.2460 -0.4142  0.4497
 5572SOL    HW117615   2.552   2.049   3.532  1.8818 -0.1705  1.1773
 5572SOL    HW217616   2.413   2.120   3.581  0.3169 -1.7766 -0.7065
 5573SOL     OW17617   4.596   6.528   5.696  0.0106  0.1304 -0.0545
 5573SOL    HW117618   4.579   6.434   5.666  1.3605 -0.0461 -0.3187
 5573SOL    HW217619   4.574   6.591   5.622 -0.6030  0.0127  0.0185
 5574SOL     OW17620   4.118   3.618   4.416  0.0126 -0.0447  0.0901
 5574SOL    HW117621   4.134   3.532   4.367 -0.0374  0.5927 -1.0692
 5574SOL    HW217622   4.136   3.604   4.514  1.1471 -1.0655 -0.2374
 5575SOL     OW17623   2.314   0.491   6.670 -0.1584  0.2926 -0.4083
 5575SOL    HW117624   2.414   0.500   6.667 -0.1020  0.6141  1.2061
 5575SOL    HW217625   2.274   0.536   6.590  0.9335  1.5425 -0.2945
 5576SOL     OW17626   2.425   4.465   5.180 -0.3347  0.1035 -0.0968
 5576SOL    HW117627   2.422   4.529   5.103 -1.3104  0.7644  0.4666
 5576SOL    HW217628   2.388   4.377   5.151  1.0471 -0.2461 -0.8878
 5577SOL     OW17629   4.200   5.685   3.821  0.0840  0.2011 -0.1509
 5577SOL    HW117630   4.249   5.718   3.741 -0.1532 -0.1652 -0.4488
 5577SOL    HW217631   4.113   5.644   3.793  0.4100 -0.7543  0.1967
 5578SOL     OW17632   3.760   5.104   6.059  1.1191  0.0174 -0.1679
 5578SOL    HW117633   3.749   5.191   6.011  1.2909  0.0512 -0.1471
 5578SOL    HW217634   3.671   5.073   6.092  1.0929  0.3115  0.0436
 5579SOL     OW17635   4.139   3.628   1.369  0.3658 -0.1934 -0.4814
 5579SOL    HW117636   4.096   3.712   1.401  1.7161  0.8315 -1.2208
 5579SOL    HW217637   4.183   3.581   1.446  0.3635  0.2518 -0.2067
 5580SOL     OW17638   0.888   5.788   1.599 -0.0916  0.6886 -0.6112
 5580SOL    HW117639   0.932   5.774   1.510  0.3244 -0.1108 -0.2950
 5580SOL    HW217640   0.803   5.736   1.602  0.8372 -0.8737  0.1190
 5581SOL     OW17641   3.194   3.800   1.639  0.4765  0.1677 -0.0303
 5581SOL    HW117642   3.169   3.704   1.624 -0.1819  0.3983 -0.4025
 5581SOL    HW217643   3.290   3.813   1.615  0.0679  0.0191 -1.8791
 5582SOL     OW17644   3.647   6.299   1.872  0.8463  0.1009 -0.2556
 5582SOL    HW117645   3.610   6.219   1.920  1.9966  1.0062  2.2999
 5582SOL    HW217646   3.597   6.313   1.787 -1.8537 -1.1408  1.0260
 5583SOL     OW17647   0.700   5.876   0.987 -0.1442 -0.4510  0.2465
 5583SOL    HW117648   0.770   5.851   0.920 -0.0475 -1.8859  0.8435
 5583SOL    HW217649   0.660   5.964   0.962 -0.0958 -0.9175 -1.6732
 5584SOL     OW17650   6.158   1.972   1.074 -0.0314 -0.0112  0.1270
 5584SOL    HW117651   6.060   1.990   1.062 -0.2349  0.1930  1.8685
 5584SOL    HW217652   6.179   1.878   1.046 -1.0408 -0.5760  1.1813
 5585SOL     OW17653   2.951   3.858   1.526  0.4942  0.0376  0.7427
 5585SOL    HW117654   3.046   3.878   1.553  0.7841 -0.8584  0.4247
 5585SOL    HW217655   2.938   3.882   1.430  0.4890 -0.1351  0.7001
 5586SOL     OW17656   6.179   0.702   5.225  0.1634  0.2856  0.4035
 5586SOL    HW117657   6.194   0.756   5.143  1.6653  0.6245  0.8606
 5586SOL    HW217658   6.123   0.622   5.203  0.7039  0.2612 -0.9779
 5587SOL     OW17659   5.649   4.723   6.975 -0.3109  0.3318  0.3643
 5587SOL    HW117660   5.695   4.641   7.009 -0.0610  0.0170 -0.6799
 5587SOL    HW217661   5.592   4.698   6.896 -0.7402  1.0547  0.4404
 5588SOL     OW17662   2.500   0.718   1.857 -0.3827 -0.0031 -0.4650
 5588SOL    HW117663   2.541   0.777   1.927  1.4240 -2.0124  0.2856
 5588SOL    HW217664   2.569   0.692   1.790 -0.4902 -2.7827  0.3407
 5589SOL     OW17665   0.240   1.408   6.665  0.0568 -0.1553 -0.0658
 5589SOL    HW117666   0.152   1.422   6.710  0.7111  0.9193  0.9164
 5589SOL    HW217667   0.251   1.311   6.643 -0.8164 -0.4988  0.9461
 5590SOL     OW17668   0.675   6.680   6.165  0.1671 -0.4974  0.3587
 5590SOL    HW117669   0.666   6.598   6.221  0.0425 -1.0892 -0.5061
 5590SOL    HW217670   0.738   6.744   6.209  1.4760 -1.7096  0.3113
 5591SOL     OW17671   4.931   2.259   6.164 -0.1034 -0.1022  0.4562
 5591SOL    HW117672   4.891   2.338   6.118 -1.5512 -0.6868  0.6682
 5591SOL    HW217673   4.952   2.188   6.096  1.9137  0.7054  0.1591
 5592SOL     OW17674   4.209   5.423   1.141 -0.0532  0.2899  0.1072
 5592SOL    HW117675   4.162   5.439   1.055  2.3469 -0.1363 -1.3845
 5592SOL    HW217676   4.144   5.428   1.216 -2.2124  0.7915 -1.6929
 5593SOL     OW17677   1.748   0.498   6.157  0.3929  0.4134  0.1848
 5593SOL    HW117678   1.745   0.572   6.089  2.4765 -1.5219 -2.1825
 5593SOL    HW217679   1.667   0.440   6.145  0.1368  0.7589  0.2052
 5594SOL     OW17680   5.677   2.153   4.387 -0.0289 -0.5493  0.0990
 5594SOL    HW117681   5.580   2.141   4.409 -0.0885 -0.5543 -0.1682
 5594SOL    HW217682   5.723   2.065   4.393 -0.3665 -0.8487 -1.3678
 5595SOL     OW17683   5.095   3.905   1.286  0.2120 -0.2182  0.9888
 5595SOL    HW117684   5.039   3.954   1.353 -1.1936  2.1250 -1.6801
 5595SOL    HW217685   5.041   3.832   1.244  1.1777 -1.8696  2.4289
 5596SOL     OW17686   6.491   3.714   2.808 -0.6063  0.1104  0.2769
 5596SOL    HW117687   6.512   3.733   2.904 -1.1240  0.5486  0.3081
 5596SOL    HW217688   6.447   3.794   2.767  0.3717  0.2387 -0.5565
 5597SOL     OW17689   3.856   4.500   0.310 -0.5482  0.3175 -0.0786
 5597SOL    HW117690   3.834   4.436   0.237  1.1381 -1.0058  0.5085
 5597SOL    HW217691   3.953   4.522   0.307 -0.5696  0.7503  1.3501
 5598SOL     OW17692   2.898   2.463   6.659  0.3028 -0.3565  0.1027
 5598SOL    HW117693   2.906   2.465   6.559  1.5063 -1.7741  0.1232
 5598SOL    HW217694   2.807   2.493   6.687  0.1799  0.7099 -1.3787
 5599SOL     OW17695   5.635   4.558   0.479  0.1828  0.1756  0.2609
 5599SOL    HW117696   5.536   4.542   0.475  0.4578 -1.5292 -0.5290
 5599SOL    HW217697   5.660   4.630   0.415 -0.5096  0.3834  0.2228
 5600SOL     OW17698   4.882   1.101   5.200 -0.0808  0.1973 -0.0446
 5600SOL    HW117699   4.967   1.064   5.163 -0.7720 -1.4167 -0.1393
 5600SOL    HW217700   4.869   1.067   5.293 -1.0341 -0.3224 -0.3536
 5601SOL     OW17701   6.177   3.144   2.534 -0.3749 -0.0992 -0.2092
 5601SOL    HW117702   6.123   3.208   2.588 -2.0143 -1.0865 -0.5844
 5601SOL    HW217703   6.249   3.105   2.591 -0.4260  0.8174  0.4977
 5602SOL     OW17704   4.915   2.642   4.316 -0.0700  0.4426  0.0778
 5602SOL    HW117705   4.997   2.691   4.288  0.3677 -0.0401  0.4847
 5602SOL    HW217706   4.925   2.545   4.293 -0.4913  0.3705  0.1968
 5603SOL     OW17707   2.469   0.986   5.276  0.4784 -0.0172 -0.2866
 5603SOL    HW117708   2.411   0.960   5.354  2.0227 -0.3279  0.7984
 5603SOL    HW217709   2.526   1.064   5.301  0.8780 -0.0243 -1.1586
 5604SOL     OW17710   2.054   4.168   6.625 -0.1143  0.0233 -0.4541
 5604SOL    HW117711   2.057   4.074   6.659 -3.4415  0.4583  1.4387
 5604SOL    HW217712   2.147   4.205   6.621  1.0876 -2.6102  0.8156
 5605SOL     OW17713   5.482   1.378   5.820 -0.3997 -0.1734 -0.4572
 5605SOL    HW117714   5.472   1.389   5.919  0.2780  0.6628 -0.4688
 5605SOL    HW217715   5.524   1.289   5.801 -0.1821 -0.1802  0.0302
 5606SOL     OW17716   3.751   1.376   2.762 -0.3981 -0.2487  0.0700
 5606SOL    HW117717   3.692   1.452   2.791  0.2662 -0.3960  1.9451
 5606SOL    HW217718   3.783   1.392   2.668 -0.5664  1.6105  0.2943
 5607SOL     OW17719   6.797   6.606   3.022 -0.0089  0.4053 -0.0245
 5607SOL    HW117720   6.816   6.613   3.120  0.1263 -0.0886 -0.0119
 5607SOL    HW217721   6.726   6.537   3.006 -1.5780  1.9649 -0.1052
 5608SOL     OW17722   4.599   5.557   1.414  0.5788  0.3892  0.0435
 5608SOL    HW117723   4.604   5.580   1.317  0.8908  0.6581  0.1222
 5608SOL    HW217724   4.619   5.638   1.469 -2.1212  0.9051  0.3772
 5609SOL     OW17725   3.711   0.298   2.408 -0.2646 -0.1117  0.1229
 5609SOL    HW117726   3.682   0.269   2.499  0.0321 -1.2341 -0.1285
 5609SOL    HW217727   3.645   0.364   2.371  0.4421  1.6449  1.7904
 5610SOL     OW17728   2.940   1.970   4.741 -0.5805  0.1964  0.5235
 5610SOL    HW117729   2.939   2.050   4.801 -0.8136 -0.6054  1.6340
 5610SOL    HW217730   3.021   1.973   4.682  1.7003 -0.6750  3.3354
 5611SOL     OW17731   5.148   6.133   4.574  0.0416 -0.2253 -0.1214
 5611SOL    HW117732   5.050   6.148   4.591  0.0462  0.2811 -0.5329
 5611SOL    HW217733   5.177   6.187   4.495 -0.5475 -4.2164 -3.4376
 5612SOL     OW17734   4.662   3.752   1.653 -0.5682  0.1407 -0.7165
 5612SOL    HW117735   4.756   3.724   1.676 -0.2641  1.3666 -0.4169
 5612SOL    HW217736   4.607   3.670   1.636  0.7678 -0.5885 -1.7853
 5613SOL     OW17737   5.988   3.735   5.480  0.1167 -0.2752  0.4292
 5613SOL    HW117738   5.954   3.821   5.517  1.7098 -0.4825  2.5930
 5613SOL    HW217739   6.080   3.749   5.442  0.4804 -1.0289  0.9923
 5614SOL     OW17740   4.920   3.302   4.419 -0.3107  0.0998  0.2489
 5614SOL    HW117741   5.014   3.277   4.440 -0.8526 -2.1413  0.1942
 5614SOL    HW217742   4.879   3.348   4.499  0.4208 -0.0926  0.7406
 5615SOL     OW17743   3.287   1.355   2.947 -0.9285 -0.0439  0.5207
 5615SOL    HW117744   3.215   1.424   2.958 -1.0674 -0.0981 -0.0446
 5615SOL    HW217745   3.313   1.348   2.851  0.8824  1.0149  0.8933
 5616SOL     OW17746   0.175   1.514   4.242  0.5890  0.0555 -0.1418
 5616SOL    HW117747   0.179   1.423   4.284 -0.8335  0.4897  1.0129
 5616SOL    HW217748   0.140   1.506   4.149 -1.4574 -0.4445  0.6103
 5617SOL     OW17749   1.095   2.935   1.661 -0.0451 -0.0277  0.6105
 5617SOL    HW117750   1.133   2.910   1.750 -0.9550  0.0436  1.0280
 5617SOL    HW217751   1.168   2.937   1.593  0.6576 -0.1016  1.3493
 5618SOL     OW17752   0.410   5.638   0.353  0.3496  0.1372 -0.1870
 5618SOL    HW117753   0.383   5.702   0.281  0.8246  0.7525  0.1796
 5618SOL    HW217754   0.337   5.571   0.366 -0.3444  0.8597 -0.2733
 5619SOL     OW17755   6.490   2.722   0.497 -0.1846  1.1524 -0.1297
 5619SOL    HW117756   6.436   2.659   0.441 -0.2225  1.0586  0.0112
 5619SOL    HW217757   6.547   2.670   0.560  0.2548  1.2488 -0.4482
 5620SOL     OW17758   1.841   5.918   2.623 -0.0297  0.0665 -0.7204
 5620SOL    HW117759   1.815   5.912   2.526 -1.5587  1.0711 -0.4097
 5620SOL    HW217760   1.773   5.972   2.672  1.7792  1.2757  0.5450
 5621SOL     OW17761   1.989   3.854   0.893  0.3542 -0.1315 -0.4960
 5621SOL    HW117762   1.990   3.777   0.957  0.1646  0.0266 -0.3002
 5621SOL    HW217763   2.067   3.847   0.831  0.1027 -0.7134 -0.7573
 5622SOL     OW17764   6.453   4.891   6.149 -0.6431  0.0267 -0.1919
 5622SOL    HW117765   6.539   4.843   6.130 -1.5181 -1.3013 -1.0206
 5622SOL    HW217766   6.417   4.860   6.237 -0.8492 -0.3191 -0.3940
 5623SOL     OW17767   1.010   6.278   0.670  0.5105  0.3754 -0.3870
 5623SOL    HW117768   1.056   6.243   0.589  1.9205 -0.8447  0.8829
 5623SOL    HW217769   1.077   6.320   0.731 -0.3440  0.2789  0.6446
 5624SOL     OW17770   4.735   1.710   0.981 -0.3335 -0.0262  0.2754
 5624SOL    HW117771   4.746   1.755   1.070  1.1337  0.0801  0.0709
 5624SOL    HW217772   4.725   1.611   0.995  0.0579 -0.0301  0.5676
 5625SOL     OW17773   6.737   0.089   2.944  0.4570 -0.6727  0.2396
 5625SOL    HW117774   6.732   0.021   3.018  2.5140 -1.8828 -0.6490
 5625SOL    HW217775   6.832   0.113   2.927 -0.1505  1.6938 -0.2181
 5626SOL     OW17776   1.384   0.869   2.394 -0.0501  0.0870  0.0526
 5626SOL    HW117777   1.306   0.854   2.334  2.4057 -0.9545 -3.1831
 5626SOL    HW217778   1.412   0.781   2.433 -0.1679  0.3735  0.7933
 5627SOL     OW17779   1.036   5.316   1.989 -0.1886 -0.2091 -0.0657
 5627SOL    HW117780   0.991   5.397   1.951  2.2288  0.8839 -0.7935
 5627SOL    HW217781   1.110   5.287   1.928  0.9719 -1.1095  1.6849
 5628SOL     OW17782   2.223   3.088   3.753 -0.6226 -0.4606 -0.0873
 5628SOL    HW117783   2.204   3.028   3.831 -0.9436 -2.3618 -1.5477
 5628SOL    HW217784   2.247   3.179   3.786 -1.4832 -0.9864  2.1925
 5629SOL     OW17785   4.128   3.236   1.994 -0.3140 -0.3874  0.3236
 5629SOL    HW117786   4.129   3.332   2.021  1.2059  0.0594 -1.1321
 5629SOL    HW217787   4.106   3.179   2.074 -1.9025  1.1691  1.0552
 5630SOL     OW17788   2.630   6.131   3.885  0.3788 -0.5237 -0.1963
 5630SOL    HW117789   2.655   6.228   3.883 -3.7590  0.7602  0.9703
 5630SOL    HW217790   2.576   6.108   3.803  2.1425 -2.2243 -0.9764
 5631SOL     OW17791   1.820   1.294   2.754 -0.4113 -0.1694 -0.0052
 5631SOL    HW117792   1.786   1.326   2.665 -0.4794 -0.2180  0.0031
 5631SOL    HW217793   1.880   1.215   2.740  1.2883  1.1237 -0.1840
 5632SOL     OW17794   2.536   4.883   3.610  0.1084  0.1221  0.2251
 5632SOL    HW117795   2.599   4.863   3.535  1.4595 -0.3282  1.4254
 5632SOL    HW217796   2.460   4.818   3.608 -1.0564  1.4447 -1.9783
 5633SOL     OW17797   0.875   4.705   5.998 -0.4201  0.5844  0.7763
 5633SOL    HW117798   0.932   4.775   6.040  0.2187 -0.3616  1.5279
 5633SOL    HW217799   0.931   4.625   5.975 -1.1010  0.3618 -0.2014
 5634SOL     OW17800   1.288   5.829   0.198 -0.1293 -0.3171 -0.3798
 5634SOL    HW117801   1.335   5.916   0.206 -0.9573  0.3257 -2.1803
 5634SOL    HW217802   1.221   5.821   0.272  0.0961  0.4537 -0.0790
 5635SOL     OW17803   5.256   5.378   4.062  0.2325 -0.6465  0.1766
 5635SOL    HW117804   5.344   5.357   4.019 -0.3059 -0.4636 -1.0833
 5635SOL    HW217805   5.244   5.477   4.067 -0.8032 -0.6152 -1.7243
 5636SOL     OW17806   4.697   2.365   5.606 -0.1095 -0.0458 -0.2877
 5636SOL    HW117807   4.783   2.380   5.557 -0.1479  1.7153  0.1095
 5636SOL    HW217808   4.652   2.284   5.570  0.0010  0.9905 -3.0063
 5637SOL     OW17809   6.669   5.378   4.943  0.5774  0.6378  0.1309
 5637SOL    HW117810   6.609   5.440   4.992 -0.6416 -0.1673 -0.2809
 5637SOL    HW217811   6.614   5.308   4.897  1.8587 -0.3406  0.0221
 5638SOL     OW17812   5.345   6.630   0.623  0.7455 -0.3990  0.0464
 5638SOL    HW117813   5.254   6.611   0.659  0.2054  2.7209  0.6060
 5638SOL    HW217814   5.412   6.623   0.697  0.6301 -0.4900  0.1418
 5639SOL     OW17815   4.371   0.273   2.724  0.1680 -0.2690 -0.0464
 5639SOL    HW117816   4.469   0.261   2.740  0.3172  1.7615  0.9452
 5639SOL    HW217817   4.349   0.371   2.721 -1.8821 -0.6673  0.0303
 5640SOL     OW17818   4.715   3.919   0.345  0.3741  0.1087 -0.3938
 5640SOL    HW117819   4.787   3.962   0.291  1.6691 -0.2835  0.9431
 5640SOL    HW217820   4.639   3.894   0.285  0.4516  2.3352 -1.5349
 5641SOL     OW17821   4.154   5.641   4.608 -0.8208  0.4241 -0.1115
 5641SOL    HW117822   4.222   5.707   4.575 -1.8914  1.1862 -0.8825
 5641SOL    HW217823   4.064   5.666   4.573 -1.5145 -0.5577  0.8963
 5642SOL     OW17824   1.374   2.760   5.387  0.6603  0.0666  0.5331
 5642SOL    HW117825   1.324   2.831   5.437 -0.8927 -0.5069 -0.1361
 5642SOL    HW217826   1.471   2.784   5.382  0.4616  1.2385  1.8491
 5643SOL     OW17827   3.387   2.038   2.102 -0.3959 -0.1513  0.5704
 5643SOL    HW117828   3.418   1.951   2.140 -0.0679 -0.4278 -0.3119
 5643SOL    HW217829   3.464   2.084   2.057 -0.9533 -0.2048 -0.4610
 5644SOL     OW17830   0.539   6.438   3.290  0.2632  0.3555 -0.2056
 5644SOL    HW117831   0.547   6.512   3.358  3.2602 -0.7007  0.7554
 5644SOL    HW217832   0.628   6.423   3.247 -0.6169 -1.7292 -1.4362
 5645SOL     OW17833   0.840   5.348   3.258  0.2012  0.2517 -0.4080
 5645SOL    HW117834   0.922   5.342   3.201  0.6523  1.4343  0.0872
 5645SOL    HW217835   0.854   5.294   3.341  0.1755 -0.1526 -0.6618
 5646SOL     OW17836   4.022   4.557   6.011  0.2901 -0.0752 -0.7597
 5646SOL    HW117837   4.004   4.485   5.943 -0.2224  1.2273 -2.0605
 5646SOL    HW217838   4.113   4.544   6.050 -0.1725 -1.9993 -0.2133
 5647SOL     OW17839   4.121   4.938   2.486 -0.1314  0.2312 -0.3598
 5647SOL    HW117840   4.026   4.967   2.495  0.2183  0.8649  1.8801
 5647SOL    HW217841   4.152   4.955   2.392 -2.1303  0.1961 -1.0916
 5648SOL     OW17842   0.859   2.927   4.117 -0.3293  0.2182 -0.6401
 5648SOL    HW117843   0.800   2.853   4.148 -0.6502  0.8789  0.3905
 5648SOL    HW217844   0.884   2.912   4.021 -0.2588 -1.2813 -0.4048
 5649SOL     OW17845   1.437   4.410   5.918  0.4692  0.1897  0.0541
 5649SOL    HW117846   1.501   4.482   5.945 -1.0592  1.1043  1.3964
 5649SOL    HW217847   1.357   4.450   5.875 -0.6812 -0.6233  1.3516
 5650SOL     OW17848   3.362   0.118   5.874 -0.2770 -0.0847  0.0397
 5650SOL    HW117849   3.396   0.122   5.968  0.0834 -0.1829 -0.0820
 5650SOL    HW217850   3.367   0.024   5.841  1.0853  0.1878 -0.5995
 5651SOL     OW17851   4.551   3.416   5.314  0.3771 -0.5660  0.1589
 5651SOL    HW117852   4.598   3.490   5.266 -0.6487 -0.3732 -0.5928
 5651SOL    HW217853   4.618   3.351   5.350  1.2780  0.5604  0.5637
 5652SOL     OW17854   2.413   5.779   5.382 -0.0777  0.1543 -0.3897
 5652SOL    HW117855   2.389   5.863   5.334 -1.5178 -0.7530 -1.3193
 5652SOL    HW217856   2.347   5.761   5.455  1.1846  0.6780  0.9315
 5653SOL     OW17857   4.826   0.755   4.983  0.5070 -0.1113 -0.4905
 5653SOL    HW117858   4.785   0.664   4.974  0.2919 -0.0443 -0.1725
 5653SOL    HW217859   4.755   0.825   4.978  0.3303 -0.0614  1.8950
 5654SOL     OW17860   6.578   1.582   6.865 -0.3255  0.3484  0.2821
 5654SOL    HW117861   6.542   1.545   6.951 -0.3095  0.1306  0.1944
 5654SOL    HW217862   6.507   1.637   6.821 -0.3516  0.4183  0.4085
 5655SOL     OW17863   5.026   4.637   2.383  0.1743 -0.1114  0.0537
 5655SOL    HW117864   5.088   4.638   2.462  0.3536  0.1662 -0.0906
 5655SOL    HW217865   4.932   4.627   2.416  0.2648 -0.1969  0.2926
 5656SOL     OW17866   6.757   1.884   0.509 -0.4180 -0.2329 -0.0275
 5656SOL    HW117867   6.801   1.812   0.563  0.6607  0.5543  0.1716
 5656SOL    HW217868   6.742   1.965   0.565 -0.5611  0.1146 -0.5519
 5657SOL     OW17869   3.526   3.194   6.927 -0.0623  0.1659 -0.3440
 5657SOL    HW117870   3.430   3.197   6.956  0.0880  1.9610  0.0568
 5657SOL    HW217871   3.540   3.255   6.849  0.6345 -0.6117 -0.8523
 5658SOL     OW17872   3.802   5.772   3.854 -0.5331 -0.0996 -0.0100
 5658SOL    HW117873   3.780   5.797   3.760  0.6738  0.1767 -0.2330
 5658SOL    HW217874   3.843   5.851   3.900  1.9069 -1.1578 -0.2476
 5659SOL     OW17875   0.110   3.429   6.229  0.3312 -0.2708 -0.2296
 5659SOL    HW117876   0.160   3.397   6.149  1.0870 -0.4040  0.2835
 5659SOL    HW217877   0.063   3.352   6.272 -0.8356 -0.0400 -1.0614
 5660SOL     OW17878   5.508   3.177   1.751  0.3414  0.2808  0.9313
 5660SOL    HW117879   5.415   3.211   1.739  0.6293  0.6956 -0.2241
 5660SOL    HW217880   5.505   3.084   1.786 -0.5267 -0.1594 -0.2754
 5661SOL     OW17881   5.698   4.368   3.590  0.2812  0.1926 -0.0132
 5661SOL    HW117882   5.786   4.414   3.596  1.2209 -1.0838 -2.4743
 5661SOL    HW217883   5.713   4.270   3.575 -1.5155  0.0490 -1.2061
 5662SOL     OW17884   0.073   0.220   5.820  0.1080  0.3068 -0.0733
 5662SOL    HW117885   0.047   0.128   5.792  0.4573 -0.5368  2.1056
 5662SOL    HW217886   0.089   0.221   5.919 -0.4974  2.8658  0.0665
 5663SOL     OW17887   4.217   6.406   6.308  0.4886  0.5598  0.3602
 5663SOL    HW117888   4.237   6.468   6.232 -1.8461  0.0758 -0.7409
 5663SOL    HW217889   4.228   6.455   6.395  1.2289  1.7131 -0.3507
 5664SOL     OW17890   4.942   2.915   1.974  0.6612  0.1450 -0.4983
 5664SOL    HW117891   4.871   2.983   1.957  0.2501 -0.3319 -0.7300
 5664SOL    HW217892   5.023   2.936   1.920  0.6688  0.6529 -0.2897
 5665SOL     OW17893   3.234   4.428   1.463  0.0850 -0.0936 -0.2511
 5665SOL    HW117894   3.310   4.490   1.485  0.5954 -0.5637 -0.6492
 5665SOL    HW217895   3.208   4.377   1.545  1.5596 -1.3874 -0.5417
 5666SOL     OW17896   0.825   0.070   1.700 -0.4514  0.3128 -0.0003
 5666SOL    HW117897   0.811   0.167   1.677  0.9197  0.6424  0.4541
 5666SOL    HW217898   0.829   0.060   1.799  0.1177 -0.1062 -0.0664
 5667SOL     OW17899   2.451   2.756   1.468  0.2789 -0.2075 -0.0981
 5667SOL    HW117900   2.544   2.754   1.507  1.2881  0.0658 -2.3651
 5667SOL    HW217901   2.392   2.812   1.527  0.8047 -2.4832  2.8072
 5668SOL     OW17902   5.665   0.163   2.391 -0.1382  0.3365  0.2474
 5668SOL    HW117903   5.566   0.156   2.403 -0.2450  0.0883 -0.6740
 5668SOL    HW217904   5.693   0.259   2.398 -0.1687  0.2273  2.3471
 5669SOL     OW17905   0.719   2.755   3.635 -0.5936 -0.0521 -0.7601
 5669SOL    HW117906   0.741   2.831   3.574  0.7666 -0.9565 -1.4254
 5669SOL    HW217907   0.662   2.689   3.586 -1.7467  0.4815 -0.1909
 5670SOL     OW17908   1.637   5.226   1.024 -0.6153  0.5821 -0.1160
 5670SOL    HW117909   1.619   5.129   1.044 -0.8370  0.7641  0.6088
 5670SOL    HW217910   1.626   5.242   0.926  0.6900 -0.3905 -0.4474
 5671SOL     OW17911   6.413   2.041   5.585 -0.2842  0.6361  0.1655
 5671SOL    HW117912   6.480   1.970   5.565 -0.0109  1.0525 -0.4507
 5671SOL    HW217913   6.424   2.072   5.679 -0.2349  0.0507  0.3580
 5672SOL     OW17914   3.044   3.108   6.354  0.2071  0.6759 -0.0185
 5672SOL    HW117915   3.001   3.132   6.442  2.0743 -1.4510  1.5969
 5672SOL    HW217916   3.139   3.141   6.354 -0.0447  1.4665 -1.6775
 5673SOL     OW17917   4.281   6.814   6.510 -0.0017 -0.0086  0.1447
 5673SOL    HW117918   4.250   6.835   6.418 -2.1180  0.1455  0.8372
 5673SOL    HW217919   4.261   6.891   6.571  0.2670 -0.5694  0.9676
 5674SOL     OW17920   6.342   5.881   0.125 -0.2845  0.2935  0.0459
 5674SOL    HW117921   6.391   5.843   0.203 -0.7474 -2.6456 -0.9689
 5674SOL    HW217922   6.248   5.846   0.124  0.1827 -1.1529 -2.6565
 5675SOL     OW17923   6.386   4.591   2.687 -0.8310  0.7292  0.3190
 5675SOL    HW117924   6.313   4.608   2.621  0.4023  2.0790 -0.7791
 5675SOL    HW217925   6.368   4.642   2.771 -1.0700  1.2055 -0.0197
 5676SOL     OW17926   3.015   5.439   0.716  0.3374  0.2851  0.2039
 5676SOL    HW117927   2.970   5.430   0.627 -0.5325  0.5126  0.6148
 5676SOL    HW217928   3.091   5.375   0.721  0.3564  0.2216 -0.6791
 5677SOL     OW17929   5.916   1.194   4.848 -0.0146 -0.2057 -0.0599
 5677SOL    HW117930   5.972   1.274   4.828  1.5685 -1.5134 -1.0976
 5677SOL    HW217931   5.820   1.221   4.853  0.2075  1.4158 -2.6855
 5678SOL     OW17932   1.409   3.488   0.189  0.0834  0.3431  0.1643
 5678SOL    HW117933   1.327   3.509   0.136  0.6073 -0.5257 -1.0298
 5678SOL    HW217934   1.383   3.465   0.282 -0.9661  0.7549 -0.0073
 5679SOL     OW17935   6.193   4.446   0.821  0.1766  0.2295  0.4995
 5679SOL    HW117936   6.262   4.374   0.822 -0.6119 -0.5375  0.7558
 5679SOL    HW217937   6.107   4.411   0.857 -0.4723  1.0481 -0.1913
 5680SOL     OW17938   0.606   0.936   4.078 -0.0327  0.1750  1.0227
 5680SOL    HW117939   0.553   0.853   4.095  1.3305 -0.4824  2.2529
 5680SOL    HW217940   0.691   0.933   4.131  0.2875  2.1273  0.6967
 5681SOL     OW17941   6.386   5.828   2.286  0.7617 -0.0596  0.1309
 5681SOL    HW117942   6.442   5.908   2.307  0.9638  0.2759 -1.5671
 5681SOL    HW217943   6.330   5.846   2.206 -0.3768 -1.0748  0.6619
 5682SOL     OW17944   5.733   2.584   4.132  0.2138  0.2574 -0.2587
 5682SOL    HW117945   5.669   2.613   4.061  0.0289 -1.2507 -0.7327
 5682SOL    HW217946   5.801   2.657   4.146 -1.6884  2.0008  0.4307
 5683SOL     OW17947   1.826   6.110   6.496  0.2151  0.2830  0.1622
 5683SOL    HW117948   1.890   6.084   6.569  0.4104 -0.8248 -0.3853
 5683SOL    HW217949   1.739   6.063   6.509  0.5332 -0.5874 -0.7796
 5684SOL     OW17950   2.569   4.777   5.484 -0.5018  0.0123  0.0428
 5684SOL    HW117951   2.592   4.704   5.549 -0.5501  0.4927  0.6085
 5684SOL    HW217952   2.635   4.777   5.409  0.6230  0.5654  0.9943
 5685SOL     OW17953   4.809   6.779   3.872  0.2633 -0.1937  0.6533
 5685SOL    HW117954   4.901   6.811   3.893  0.0318  0.5389  0.5732
 5685SOL    HW217955   4.792   6.788   3.773 -0.1233  0.2859  0.7621
 5686SOL     OW17956   0.411   3.712   1.824  0.2213 -0.7519 -0.0630
 5686SOL    HW117957   0.323   3.714   1.778  0.8662  0.9366 -1.3266
 5686SOL    HW217958   0.483   3.736   1.759  1.4698 -0.8222  1.2392
 5687SOL     OW17959   3.624   6.545   5.727  0.3474  0.5585 -0.0730
 5687SOL    HW117960   3.571   6.531   5.811  0.9343  1.1538  0.4121
 5687SOL    HW217961   3.562   6.563   5.651 -0.1734  0.5511  0.3434
 5688SOL     OW17962   4.406   0.432   3.746 -0.8072  0.6165  0.1233
 5688SOL    HW117963   4.425   0.506   3.681  0.1033 -0.0189 -0.3586
 5688SOL    HW217964   4.403   0.345   3.697 -0.7749  0.2031  0.8390
 5689SOL     OW17965   0.383   1.093   2.592 -0.1736  0.3607  0.2644
 5689SOL    HW117966   0.329   1.044   2.523  3.2500 -1.8313 -1.1000
 5689SOL    HW217967   0.386   1.039   2.676  0.2736  0.2153  0.1581
 5690SOL     OW17968   5.042   2.813   2.206  0.0225 -0.5292  0.2258
 5690SOL    HW117969   5.000   2.856   2.127 -0.2034 -1.0306  0.0667
 5690SOL    HW217970   5.137   2.843   2.215  0.0094 -0.3734 -0.1540
 5691SOL     OW17971   0.787   0.671   6.460 -0.9657 -0.2529  0.0481
 5691SOL    HW117972   0.859   0.737   6.438 -0.5796 -0.6124  0.2148
 5691SOL    HW217973   0.730   0.655   6.379  0.7130 -1.9163 -0.8689
 5692SOL     OW17974   6.084   4.912   3.048 -0.0729 -0.0002  0.1461
 5692SOL    HW117975   6.012   4.922   3.116 -0.6727 -0.6590 -0.3723
 5692SOL    HW217976   6.096   4.998   2.998 -0.5341  0.0975  0.2017
 5693SOL     OW17977   1.427   4.631   5.033  0.3504 -0.0309 -0.3941
 5693SOL    HW117978   1.445   4.634   4.935  0.8051 -1.5058 -0.3858
 5693SOL    HW217979   1.464   4.546   5.071 -0.1793  0.3238  0.9835
 5694SOL     OW17980   3.623   0.595   3.956  0.7812  0.0555 -0.8033
 5694SOL    HW117981   3.721   0.581   3.939  0.7422  1.6620 -2.7102
 5694SOL    HW217982   3.603   0.693   3.958 -0.9998 -0.2481 -1.8505
 5695SOL     OW17983   6.758   2.697   1.923 -0.1043 -0.2570 -0.3651
 5695SOL    HW117984   6.779   2.742   2.010  0.5818  0.6178 -0.9650
 5695SOL    HW217985   6.842   2.691   1.868  0.5330 -4.5965  0.6777
 5696SOL     OW17986   5.572   6.990   1.214  0.0612 -0.0965 -0.6118
 5696SOL    HW117987   5.494   6.981   1.277  0.3784  1.3621  0.0504
 5696SOL    HW217988   5.653   6.950   1.256  0.0271 -0.1178 -0.5663
 5697SOL     OW17989   3.933   5.222   0.143 -0.2075 -0.1730  0.1459
 5697SOL    HW117990   3.989   5.217   0.060 -1.0853  1.2555 -0.5685
 5697SOL    HW217991   3.864   5.150   0.141 -0.1239 -0.2459 -0.2870
 5698SOL     OW17992   1.708   0.414   2.515 -0.0151 -0.2114  0.1378
 5698SOL    HW117993   1.754   0.443   2.599 -0.6464 -0.7367  0.6808
 5698SOL    HW217994   1.636   0.348   2.538 -0.4730 -0.0432 -0.7743
 5699SOL     OW17995   2.765   1.092   3.658  0.1508 -0.2473 -0.2037
 5699SOL    HW117996   2.707   1.134   3.588 -0.0854  0.6730  0.5420
 5699SOL    HW217997   2.793   1.160   3.725 -0.6989 -1.3739  1.3514
 5700SOL     OW17998   4.691   1.443   0.080 -0.0329  0.4443 -0.0433
 5700SOL    HW117999   4.733   1.480   0.162 -1.9845  2.3304  0.2009
 5700SOL    HW218000   4.661   1.349   0.098  1.2188  0.1741  0.7531
 5701SOL     OW18001   0.604   3.372   4.396 -0.1900 -0.5712 -0.1930
 5701SOL    HW118002   0.622   3.277   4.368 -0.6978 -1.6048  2.6417
 5701SOL    HW218003   0.627   3.383   4.492 -1.1802  1.9307 -0.1702
 5702SOL     OW18004   5.644   4.856   5.273 -0.2066  0.0899 -0.5601
 5702SOL    HW118005   5.578   4.918   5.230  1.0853  2.0419  0.1225
 5702SOL    HW218006   5.596   4.798   5.340 -1.4888  0.2126 -1.3345
 5703SOL     OW18007   1.316   4.163   0.531  0.3913  0.4362 -0.4436
 5703SOL    HW118008   1.244   4.200   0.591  1.0280  2.0006 -0.5991
 5703SOL    HW218009   1.312   4.209   0.443 -0.4685 -1.7825 -1.6376
 5704SOL     OW18010   1.241   6.000   6.428  0.0495 -0.0790 -0.5565
 5704SOL    HW118011   1.194   5.930   6.374 -0.8171  0.5848 -0.6709
 5704SOL    HW218012   1.311   6.044   6.372  0.3684 -0.6049 -0.5852
 5705SOL     OW18013   0.051   2.392   0.062 -0.0967  0.5360  0.0025
 5705SOL    HW118014   0.091   2.360  -0.024 -0.4878 -0.1128  0.0561
 5705SOL    HW218015   0.096   2.347   0.138 -0.0614  0.7698  0.1207
 5706SOL     OW18016   0.363   3.428   3.706  0.4956  0.1780 -0.4643
 5706SOL    HW118017   0.306   3.437   3.787  0.6773  0.8230 -0.4019
 5706SOL    HW218018   0.333   3.349   3.652 -0.6793  0.6996 -0.6123
 5707SOL     OW18019   3.702   6.300   6.028 -0.1411  0.5063  0.4309
 5707SOL    HW118020   3.782   6.319   5.971  0.6080  0.1901  1.3511
 5707SOL    HW218021   3.690   6.201   6.037  0.5414  0.5358  1.8708
 5708SOL     OW18022   1.269   2.304   1.774  0.0120  0.1334 -0.0502
 5708SOL    HW118023   1.357   2.258   1.786 -0.0625  0.1928  0.8156
 5708SOL    HW218024   1.274   2.368   1.698 -0.1022 -1.8354 -1.8137
 5709SOL     OW18025   2.470   5.624   4.600 -0.3162 -0.0809 -0.2001
 5709SOL    HW118026   2.521   5.618   4.686  1.7269 -1.5398 -1.4361
 5709SOL    HW218027   2.397   5.555   4.601 -0.1744 -0.2344  0.2678
 5710SOL     OW18028   6.372   3.039   1.347 -0.0299  0.2606  0.2339
 5710SOL    HW118029   6.279   3.037   1.309 -0.7399 -1.0086  1.9147
 5710SOL    HW218030   6.368   3.030   1.446  1.8608  1.4109  0.4721
 5711SOL     OW18031   6.380   2.602   4.764  0.1375  0.8430  0.1828
 5711SOL    HW118032   6.295   2.577   4.810 -0.1779  1.3912 -0.0871
 5711SOL    HW218033   6.404   2.531   4.698  1.1156 -0.4417  1.8378
 5712SOL     OW18034   6.520   5.720   6.889 -0.1945 -0.3295  0.4251
 5712SOL    HW118035   6.456   5.690   6.959 -0.3062  0.1583  0.5342
 5712SOL    HW218036   6.611   5.734   6.929 -0.1334 -0.5527  0.3670
 5713SOL     OW18037   6.082   0.447   1.679 -0.1004 -0.2278  0.2141
 5713SOL    HW118038   6.116   0.462   1.772  1.8254 -1.0962 -0.3076
 5713SOL    HW218039   6.130   0.370   1.638 -3.4094 -2.2198 -0.2837
 5714SOL     OW18040   2.897   1.113   1.326 -0.2518 -0.8501  0.6452
 5714SOL    HW118041   2.854   1.203   1.319  2.1888  0.5546  2.1823
 5714SOL    HW218042   2.912   1.076   1.234 -1.8170  0.0032  0.0053
 5715SOL     OW18043   3.872   0.392   3.596 -0.4062 -0.2522  0.2011
 5715SOL    HW118044   3.796   0.442   3.556 -1.3560 -2.3069 -0.7122
 5715SOL    HW218045   3.952   0.399   3.536 -0.9340 -0.8832 -0.5984
 5716SOL     OW18046   2.123   5.828   1.295  0.4179  0.5187  0.3781
 5716SOL    HW118047   2.168   5.828   1.205 -0.9543  1.6133 -0.3574
 5716SOL    HW218048   2.027   5.853   1.283  0.5481  2.1613  2.3137
 5717SOL     OW18049   2.041   3.058   6.417 -0.3243  0.4199  0.0275
 5717SOL    HW118050   2.064   3.150   6.386 -0.9886  0.0689 -1.5914
 5717SOL    HW218051   2.077   2.991   6.352  1.3945 -0.5870  1.9000
 5718SOL     OW18052   2.329   4.425   1.819  0.4396 -0.3672  0.1884
 5718SOL    HW118053   2.412   4.466   1.857  0.8456 -0.8014 -0.2159
 5718SOL    HW218054   2.254   4.491   1.823  0.7196 -0.0830  0.8625
 5719SOL     OW18055   6.370   3.105   2.316  0.2554  0.0656  0.2265
 5719SOL    HW118056   6.430   3.185   2.305 -1.0402  1.0196 -0.1918
 5719SOL    HW218057   6.302   3.125   2.386 -0.2162 -0.5968 -0.0430
 5720SOL     OW18058   6.928   6.125   6.170  0.2342 -0.6837 -0.0397
 5720SOL    HW118059   7.007   6.187   6.180  1.5997 -2.3833  0.1726
 5720SOL    HW218060   6.902   6.089   6.260  0.9300 -2.1320 -0.3887
 5721SOL     OW18061   2.563   0.452   2.905 -0.1536  0.1264 -0.2256
 5721SOL    HW118062   2.563   0.534   2.849 -0.0881 -0.0285 -0.4535
 5721SOL    HW218063   2.646   0.450   2.961 -0.1977  0.2587 -0.1571
 5722SOL     OW18064   3.146   1.841   2.451 -0.3152 -0.6009  0.8654
 5722SOL    HW118065   3.117   1.937   2.447 -0.0425 -0.5522 -0.3829
 5722SOL    HW218066   3.090   1.792   2.518 -1.2262  0.1757  0.6992
 5723SOL     OW18067   2.116   2.523   2.766 -0.3918 -0.0027  0.0022
 5723SOL    HW118068   2.175   2.589   2.719 -0.4671 -0.4895 -0.8023
 5723SOL    HW218069   2.020   2.547   2.749 -0.4780 -1.8085 -2.5890
 5724SOL     OW18070   0.213   2.203   4.234 -0.1811  0.3698  0.2968
 5724SOL    HW118071   0.267   2.216   4.151  0.4898 -1.8774  0.3140
 5724SOL    HW218072   0.137   2.141   4.216 -0.7324  0.7903  1.0936
 5725SOL     OW18073   6.215   3.247   4.398  0.0312 -0.3654  0.3810
 5725SOL    HW118074   6.162   3.195   4.331  0.7229 -1.0033  0.3207
 5725SOL    HW218075   6.156   3.272   4.475 -0.3141 -1.2257  0.4012
 5726SOL     OW18076   5.425   1.744   0.856 -0.2007  0.7984 -0.3161
 5726SOL    HW118077   5.409   1.826   0.802 -0.5252  1.9113  1.3981
 5726SOL    HW218078   5.349   1.680   0.842 -0.8267  1.5363 -0.3564
 5727SOL     OW18079   1.372   2.463   2.871 -0.2549  0.9586  0.3364
 5727SOL    HW118080   1.341   2.551   2.835 -1.9861  0.7818  1.2799
 5727SOL    HW218081   1.417   2.478   2.959  0.3601  0.9880  0.0215
 5728SOL     OW18082   3.853   6.487   5.605  0.2455 -0.4083  0.2355
 5728SOL    HW118083   3.770   6.517   5.652 -1.5517  0.3281 -3.0662
 5728SOL    HW218084   3.925   6.555   5.615 -1.1515  1.2570 -0.6527
 5729SOL     OW18085   5.187   6.161   5.135 -0.5678 -0.0206  0.1043
 5729SOL    HW118086   5.232   6.240   5.093 -2.1711  0.0933 -1.5628
 5729SOL    HW218087   5.130   6.192   5.211 -1.9489  0.6547 -1.1399
 5730SOL     OW18088   4.315   1.139   2.463 -0.1403  0.0989  0.0473
 5730SOL    HW118089   4.215   1.145   2.464 -0.3286 -1.6240 -1.6728
 5730SOL    HW218090   4.352   1.176   2.549 -2.2430  0.5710  0.8097
 5731SOL     OW18091   6.532   1.509   0.134 -0.0484 -0.1087  0.3257
 5731SOL    HW118092   6.433   1.518   0.127 -0.2886  0.7342  3.5600
 5731SOL    HW218093   6.555   1.425   0.183  0.7260  0.7069  1.3962
 5732SOL     OW18094   5.124   1.704   4.706 -0.2940 -0.3969  0.4626
 5732SOL    HW118095   5.176   1.772   4.759 -1.7969  0.3541  1.0471
 5732SOL    HW218096   5.148   1.612   4.737  0.9042 -0.0882  0.4923
 5733SOL     OW18097   4.421   1.955   4.285 -0.8064 -0.0308  0.0181
 5733SOL    HW118098   4.427   2.054   4.301 -0.8353 -0.2695  1.6897
 5733SOL    HW218099   4.398   1.938   4.189  0.5628  1.5389 -0.6467
 5734SOL     OW18100   4.225   0.823   4.983 -0.7059  0.0659  0.0485
 5734SOL    HW118101   4.225   0.923   4.980  0.3629  0.1056 -3.0637
 5734SOL    HW218102   4.141   0.788   4.940 -0.1006 -0.2854 -0.8969
 5735SOL     OW18103   2.102   3.229   4.637 -0.2006  0.1821 -0.0871
 5735SOL    HW118104   2.128   3.326   4.643 -1.1274  0.4309  0.0009
 5735SOL    HW218105   2.112   3.198   4.543 -1.5553  0.8437 -0.4661
 5736SOL     OW18106   2.999   5.452   4.069  0.2605 -0.1425 -0.0004
 5736SOL    HW118107   3.048   5.457   3.982 -2.1726 -1.9862 -1.6048
 5736SOL    HW218108   2.930   5.524   4.072 -0.1912 -0.5720  0.0291
 5737SOL     OW18109   3.922   2.968   2.053 -0.4640 -0.1827  0.2809
 5737SOL    HW118110   3.863   2.908   2.108 -0.0140 -0.9307 -0.0382
 5737SOL    HW218111   3.961   3.038   2.112 -0.9709 -0.2191  0.6709
 5738SOL     OW18112   0.015   2.144   5.820  0.2245  0.0589  0.7872
 5738SOL    HW118113  -0.063   2.205   5.800 -0.0069  0.3252  2.3927
 5738SOL    HW218114   0.068   2.181   5.896  0.4744 -1.4003  1.3569
 5739SOL     OW18115   2.502   5.354   2.893 -0.4509 -0.5595 -0.0316
 5739SOL    HW118116   2.581   5.410   2.866 -1.3068  0.7185  0.0136
 5739SOL    HW218117   2.485   5.367   2.991 -1.1015 -0.3169 -0.1738
 5740SOL     OW18118   3.554   1.434   2.395  0.3972 -0.5784 -0.7013
 5740SOL    HW118119   3.623   1.495   2.357 -0.0567  0.1244 -0.4073
 5740SOL    HW218120   3.598   1.372   2.461  0.5535  0.6972  0.4302
 5741SOL     OW18121   3.844   1.463   5.885 -0.0061  0.1945 -0.0094
 5741SOL    HW118122   3.825   1.551   5.928  0.2874  1.2676 -1.9388
 5741SOL    HW218123   3.943   1.447   5.883 -0.0744 -0.2929  0.5595
 5742SOL     OW18124   5.298   2.444   6.138 -0.0442 -0.2925  0.3113
 5742SOL    HW118125   5.395   2.431   6.121 -0.1323 -0.5908  0.0365
 5742SOL    HW218126   5.261   2.364   6.185 -0.2978 -0.4706 -0.1825
 5743SOL     OW18127   1.245   3.001   6.057  0.6078 -0.3011  0.2155
 5743SOL    HW118128   1.189   2.917   6.052  1.0924 -0.6427  0.4691
 5743SOL    HW218129   1.185   3.081   6.047  0.3985 -0.6914 -2.4726
 5744SOL     OW18130   4.677   6.312   0.146  0.1386 -0.2446 -0.2617
 5744SOL    HW118131   4.682   6.226   0.096  1.9544 -0.5234  0.3141
 5744SOL    HW218132   4.728   6.383   0.097  1.4927 -0.3860  0.8782
 5745SOL     OW18133   2.380   2.258   6.655 -0.0696  0.2368  0.1893
 5745SOL    HW118134   2.437   2.177   6.642 -0.4236 -0.1409  0.9675
 5745SOL    HW218135   2.296   2.248   6.602  0.7493  0.9994 -1.3419
 5746SOL     OW18136   0.207   6.762   5.989 -0.7116 -0.2709  0.3358
 5746SOL    HW118137   0.306   6.776   5.991 -0.9072  1.6692 -1.0906
 5746SOL    HW218138   0.182   6.711   5.907 -1.0092  0.3222  0.0553
 5747SOL     OW18139   3.501   4.253   1.274  0.4865  0.2128  0.2235
 5747SOL    HW118140   3.595   4.283   1.287 -0.2996  2.8734  0.4275
 5747SOL    HW218141   3.485   4.232   1.178  0.9826  0.9727 -0.0314
 5748SOL     OW18142   3.952   2.211   1.777 -0.6600  0.2553  0.8262
 5748SOL    HW118143   3.974   2.113   1.771  1.6651  0.6948  1.1273
 5748SOL    HW218144   3.866   2.222   1.827 -0.6024 -1.6232  1.4493
 5749SOL     OW18145   0.370   6.514   5.915  0.5615  0.2405  0.0093
 5749SOL    HW118146   0.302   6.534   5.844 -0.4472 -0.2990  0.7920
 5749SOL    HW218147   0.402   6.599   5.956 -1.2427  0.4686  1.0620
 5750SOL     OW18148   3.910   6.804   6.980  0.7880 -0.4080 -0.7539
 5750SOL    HW118149   3.886   6.894   7.017 -0.7194 -0.6401 -1.1035
 5750SOL    HW218150   3.852   6.734   7.023  4.1760 -1.7847  2.1037
 5751SOL     OW18151   4.695   3.292   0.883 -0.0659 -0.0410  0.1457
 5751SOL    HW118152   4.626   3.351   0.923 -1.0385 -0.5632 -0.7161
 5751SOL    HW218153   4.665   3.197   0.887  1.8251 -0.6638  2.2625
 5752SOL     OW18154   0.804   6.382   4.320 -0.1650 -0.5090 -0.4512
 5752SOL    HW118155   0.706   6.400   4.316 -0.0926 -0.2867 -2.0898
 5752SOL    HW218156   0.845   6.437   4.393 -1.2908 -0.8436  0.4595
 5753SOL     OW18157   0.283   2.865   2.536  0.2595 -0.8974 -0.1618
 5753SOL    HW118158   0.248   2.792   2.594 -0.7411 -1.5178 -1.4818
 5753SOL    HW218159   0.322   2.826   2.452  2.2324 -0.0688  0.2962
 5754SOL     OW18160   4.148   5.995   0.269  0.3042  0.2455 -0.5148
 5754SOL    HW118161   4.211   6.065   0.301 -0.4771  1.1147 -0.8523
 5754SOL    HW218162   4.184   5.905   0.294  0.5317  0.8026  1.3746
 5755SOL     OW18163   2.612   6.875   0.364 -0.2923 -0.0996  0.7059
 5755SOL    HW118164   2.635   6.967   0.334  2.4719 -0.7447  0.5591
 5755SOL    HW218165   2.628   6.867   0.463 -2.1250 -0.0144  1.0418
 5756SOL     OW18166   4.593   4.273   1.633 -0.1576  0.0445 -0.3637
 5756SOL    HW118167   4.518   4.280   1.698 -0.1164  1.4100 -0.4501
 5756SOL    HW218168   4.662   4.210   1.670 -0.1219  0.8107  0.9444
 5757SOL     OW18169   1.041   3.572   5.714 -0.8699  0.2768  0.1809
 5757SOL    HW118170   0.956   3.567   5.660 -0.7992  0.3614  0.0621
 5757SOL    HW218171   1.112   3.520   5.667 -0.6947  0.6897 -0.0171
 5758SOL     OW18172   4.378   2.134   3.608 -0.0600  0.1637  0.0222
 5758SOL    HW118173   4.442   2.108   3.536  1.0056 -0.5110  1.1572
 5758SOL    HW218174   4.429   2.163   3.689 -1.2247  1.1866  0.4222
 5759SOL     OW18175   6.325   2.329   0.673 -0.0176  0.0632 -0.2999
 5759SOL    HW118176   6.300   2.271   0.595 -2.0850 -1.3462  1.3062
 5759SOL    HW218177   6.283   2.419   0.662  0.6163  0.2569 -1.3014
 5760SOL     OW18178   6.340   3.385   3.785  0.8335 -0.1770 -0.0249
 5760SOL    HW118179   6.287   3.370   3.702 -0.2645 -1.3701  0.8462
 5760SOL    HW218180   6.428   3.426   3.762  0.4875 -0.3414 -1.7507
 5761SOL     OW18181   0.817   1.298   3.031 -0.4478  0.0670 -0.0588
 5761SOL    HW118182   0.869   1.341   2.957 -0.4105  0.3926  0.1543
 5761SOL    HW218183   0.740   1.248   2.992  0.7868 -1.5826 -0.5034
 5762SOL     OW18184   0.451   3.055   5.256 -0.0909 -0.2734 -0.2946
 5762SOL    HW118185   0.409   3.145   5.273  0.2122 -0.2275  0.2405
 5762SOL    HW218186   0.490   3.021   5.342  1.0222 -0.2845 -0.7915
 5763SOL     OW18187   3.081   0.748   3.433  0.0317 -0.3907  0.1967
 5763SOL    HW118188   3.040   0.836   3.410 -1.7470 -1.4223 -0.8957
 5763SOL    HW218189   3.011   0.677   3.428  1.5918 -2.0049  0.2053
 5764SOL     OW18190   3.401   2.790   0.662  0.7095  0.2984 -0.1236
 5764SOL    HW118191   3.472   2.763   0.596  1.4141  0.4422  0.5615
 5764SOL    HW218192   3.337   2.853   0.618  0.8292 -0.0564 -0.8357
 5765SOL     OW18193   3.186   3.597   3.985 -0.0058  0.1118  0.5432
 5765SOL    HW118194   3.258   3.571   3.921 -1.5457  0.8906 -1.6210
 5765SOL    HW218195   3.191   3.696   4.002 -0.8296  0.2655 -0.0322
 5766SOL     OW18196   2.261   0.826   1.743  0.5877  0.0799 -0.5364
 5766SOL    HW118197   2.240   0.917   1.778 -3.0247 -1.4515  1.8997
 5766SOL    HW218198   2.332   0.784   1.799  0.4472  0.5128 -0.0304
 5767SOL     OW18199   6.969   2.982   6.873 -0.0728 -0.1358 -0.1775
 5767SOL    HW118200   6.879   2.942   6.854  0.2660 -0.7348 -0.5645
 5767SOL    HW218201   7.029   2.968   6.794  0.1551  0.8753 -0.1943
 5768SOL     OW18202   2.709   6.032   2.085  0.4859 -0.5994 -0.6850
 5768SOL    HW118203   2.648   6.109   2.064  1.5322  0.3167 -0.4096
 5768SOL    HW218204   2.778   6.060   2.152  2.0220 -1.2258 -1.9440
 5769SOL     OW18205   6.246   4.827   3.244  0.1720  0.5701 -0.1075
 5769SOL    HW118206   6.163   4.848   3.193 -1.2082  0.4859  1.9885
 5769SOL    HW218207   6.308   4.906   3.241 -0.6050  1.1710 -0.5146
 5770SOL     OW18208   0.545   4.159   6.165  0.3600 -0.2895 -0.1205
 5770SOL    HW118209   0.448   4.143   6.180  0.3073  0.2822  0.1810
 5770SOL    HW218210   0.569   4.252   6.195  1.0435 -0.5066  0.0302
 5771SOL     OW18211   4.609   1.939   6.969 -0.0731 -0.1072 -0.5574
 5771SOL    HW118212   4.605   1.870   7.041 -3.3560  0.4288 -0.0872
 5771SOL    HW218213   4.689   1.922   6.911  1.6815 -1.6241  2.0726
 5772SOL     OW18214   1.083   1.602   4.612  0.4389 -0.0614 -0.3607
 5772SOL    HW118215   1.103   1.542   4.690 -0.8258 -0.5047 -0.3598
 5772SOL    HW218216   1.080   1.697   4.642  1.6551 -0.0523 -0.2085
 5773SOL     OW18217   2.346   2.706   2.939 -0.1226  0.4984  0.4646
 5773SOL    HW118218   2.347   2.765   3.020  0.7481 -0.1964  0.9781
 5773SOL    HW218219   2.405   2.627   2.955 -2.0923 -1.1121  0.2361
 5774SOL     OW18220   0.972   4.085   5.379  0.2698  0.4375 -0.0217
 5774SOL    HW118221   0.911   4.078   5.300 -0.3861 -0.5336  0.5522
 5774SOL    HW218222   1.043   4.015   5.372  2.1464  2.3157 -1.3139
 5775SOL     OW18223   2.585   5.219   6.850  0.2121 -0.1167  0.5315
 5775SOL    HW118224   2.554   5.171   6.768  0.6225 -1.7210  1.2690
 5775SOL    HW218225   2.571   5.317   6.839  0.4643 -0.2737 -1.5323
 5776SOL     OW18226   3.473   0.713   5.746 -0.1854 -0.0137 -0.3434
 5776SOL    HW118227   3.462   0.670   5.656 -1.1637 -0.5017 -0.0060
 5776SOL    HW218228   3.447   0.648   5.817 -0.8145  0.8439  0.2257
 5777SOL     OW18229   6.894   3.389   0.179 -0.2193 -0.0232  0.2444
 5777SOL    HW118230   6.828   3.334   0.231 -0.7756  0.3670 -0.0451
 5777SOL    HW218231   6.948   3.444   0.243 -0.8812  0.4329  0.4251
 5778SOL     OW18232   3.598   0.241   3.913 -0.0758  0.4574  0.0522
 5778SOL    HW118233   3.641   0.296   3.984  0.6014  2.0498 -1.5068
 5778SOL    HW218234   3.541   0.300   3.855 -1.6848 -1.0178  0.0228
 5779SOL     OW18235   5.590   1.497   0.819 -0.0735  0.6698  0.5987
 5779SOL    HW118236   5.532   1.579   0.814  1.0500  1.4552 -0.4107
 5779SOL    HW218237   5.536   1.416   0.796 -1.4760  0.9433  2.7062
 5780SOL     OW18238   1.183   5.288   2.235  0.0510  0.2668 -0.1570
 5780SOL    HW118239   1.142   5.282   2.144 -0.1065  0.9574 -0.1346
 5780SOL    HW218240   1.231   5.374   2.245  0.4197  0.0184  0.2744
 5781SOL     OW18241   4.643   1.473   5.233 -0.1725  0.2945 -0.0628
 5781SOL    HW118242   4.626   1.569   5.211  0.7174  1.0217  2.1023
 5781SOL    HW218243   4.626   1.458   5.331 -0.3997 -1.7978 -0.3778
 5782SOL     OW18244   6.270   5.676   1.371  0.3389 -0.1892 -0.6544
 5782SOL    HW118245   6.279   5.749   1.439  0.9520 -1.3236  0.5466
 5782SOL    HW218246   6.358   5.664   1.324  0.9320 -1.4984  0.6607
 5783SOL     OW18247   1.776   3.665   5.301 -0.4884  0.0803  0.3264
 5783SOL    HW118248   1.687   3.697   5.331 -0.5442  0.0474  0.1993
 5783SOL    HW218249   1.774   3.649   5.202 -0.5081 -0.4655  0.4094
 5784SOL     OW18250   3.059   1.880   0.825  0.6749  0.2873 -0.4661
 5784SOL    HW118251   3.080   1.791   0.866  1.2029  0.3310 -0.6237
 5784SOL    HW218252   2.990   1.927   0.880  1.3444  0.3307  0.3677
 5785SOL     OW18253   4.701   4.369   6.127 -0.4972  0.9174  0.7132
 5785SOL    HW118254   4.652   4.290   6.166  1.2157 -0.0294  1.0715
 5785SOL    HW218255   4.785   4.384   6.179  0.4100  1.4664 -0.8619
 5786SOL     OW18256   1.703   1.125   6.584 -0.6589  0.0415 -0.0450
 5786SOL    HW118257   1.735   1.192   6.650  0.4197 -0.7977  0.3143
 5786SOL    HW218258   1.606   1.104   6.600 -0.5512  0.2627  0.9013
 5787SOL     OW18259   5.531   3.285   5.150 -0.1313 -0.1977 -0.7532
 5787SOL    HW118260   5.598   3.336   5.096 -0.2803 -0.0875 -0.8345
 5787SOL    HW218261   5.530   3.321   5.244  1.1541 -1.3190 -0.2661
 5788SOL     OW18262   6.440   4.196   1.405 -0.3302  0.4243 -0.5670
 5788SOL    HW118263   6.467   4.222   1.312 -0.9756  3.5884  0.0180
 5788SOL    HW218264   6.371   4.261   1.439  0.4942 -0.1283  2.4158
 5789SOL     OW18265   0.459   4.006   5.748  0.2724  0.1469  0.3724
 5789SOL    HW118266   0.391   4.055   5.803 -1.6692  1.2298 -2.7217
 5789SOL    HW218267   0.530   4.070   5.719 -0.7382  0.5811 -1.3238
 5790SOL     OW18268   2.350   4.251   5.616  0.6452 -0.1751 -0.0724
 5790SOL    HW118269   2.319   4.215   5.704  0.0114  0.3208 -0.0865
 5790SOL    HW218270   2.317   4.192   5.542 -0.0152  0.1831 -0.0673
 5791SOL     OW18271   3.395   0.224   0.594 -0.1805  0.0145 -0.4192
 5791SOL    HW118272   3.384   0.130   0.624  2.4932  0.5696  2.8526
 5791SOL    HW218273   3.309   0.274   0.608 -1.4191 -1.7066 -1.5814
 5792SOL     OW18274   4.035   4.385   6.419  0.5077  0.2703 -0.3134
 5792SOL    HW118275   4.022   4.305   6.478  0.2730  0.5707  0.0487
 5792SOL    HW218276   4.105   4.365   6.351  1.9012  0.4232  1.0093
 5793SOL     OW18277   2.967   3.030   5.887  0.4777  0.0669  0.9655
 5793SOL    HW118278   2.919   3.016   5.800  2.0659  3.6944 -0.7234
 5793SOL    HW218279   3.009   2.944   5.916  0.4422 -1.1730 -2.2295
 5794SOL     OW18280   2.472   4.497   3.839 -0.6715 -0.3080 -0.2006
 5794SOL    HW118281   2.442   4.578   3.788  4.1046  0.9830 -1.3927
 5794SOL    HW218282   2.499   4.525   3.931 -1.2349 -1.0352  0.1893
 5795SOL     OW18283   0.836   5.049   0.102  0.1017  0.2041 -0.2795
 5795SOL    HW118284   0.782   4.990   0.162  0.1615 -0.1117 -0.5332
 5795SOL    HW218285   0.924   5.069   0.145  0.9552 -1.6221 -1.0795
 5796SOL     OW18286   3.950   6.154   0.392 -0.2285  0.5200 -0.2650
 5796SOL    HW118287   3.915   6.210   0.316  0.3015  0.4093 -0.5954
 5796SOL    HW218288   3.990   6.070   0.355 -0.1309  0.3818  0.1551
 5797SOL     OW18289   3.001   4.621   0.477  0.4847 -0.4653  0.1368
 5797SOL    HW118290   2.995   4.526   0.508  0.7352 -0.9794 -1.3096
 5797SOL    HW218291   3.096   4.651   0.480  0.8511 -1.2379 -2.0611
 5798SOL     OW18292   3.747   5.087   1.241 -0.0809 -0.3638  0.3041
 5798SOL    HW118293   3.676   5.078   1.171 -0.3461  0.6803  0.4282
 5798SOL    HW218294   3.779   4.996   1.268 -1.2832 -0.8483  0.1560
 5799SOL     OW18295   1.275   2.730   6.619 -0.0610 -0.4498  0.2681
 5799SOL    HW118296   1.345   2.700   6.684 -0.3383 -0.7876  0.4123
 5799SOL    HW218297   1.310   2.808   6.567  1.2439 -1.9345 -1.1817
 5800SOL     OW18298   6.467   2.798   1.984 -0.0216 -0.3462 -0.5108
 5800SOL    HW118299   6.532   2.863   2.023 -1.1997  0.1586  0.7284
 5800SOL    HW218300   6.514   2.713   1.961  0.7958 -0.7744  2.2979
 5801SOL     OW18301   1.433   1.540   6.027 -0.2142 -0.5569  0.1113
 5801SOL    HW118302   1.341   1.569   6.056  0.1019 -0.1702  0.7530
 5801SOL    HW218303   1.425   1.475   5.952 -0.9471  0.8938 -1.1044
 5802SOL     OW18304   0.066   6.641   0.514  0.0111  0.5998 -0.0982
 5802SOL    HW118305   0.097   6.654   0.419  0.4096  0.1098 -0.0366
 5802SOL    HW218306   0.097   6.552   0.547 -0.3180  0.6782  0.4222
 5803SOL     OW18307   3.472   6.609   3.020  0.5374  0.0679  0.2386
 5803SOL    HW118308   3.374   6.600   3.036  0.3534 -4.2184 -2.0772
 5803SOL    HW218309   3.522   6.573   3.099  0.1761 -0.2006  0.3473
 5804SOL     OW18310   2.698   6.169   5.174 -0.4145  0.1538 -0.0730
 5804SOL    HW118311   2.771   6.222   5.131 -1.8068  1.8641 -0.4610
 5804SOL    HW218312   2.670   6.213   5.259  1.2516 -2.3644  1.9384
 5805SOL     OW18313   4.518   2.304   0.782 -0.3539 -0.0978  0.4024
 5805SOL    HW118314   4.607   2.286   0.740 -1.0655 -0.3706 -1.0323
 5805SOL    HW218315   4.503   2.403   0.787  0.6567  0.0211  2.0824
 5806SOL     OW18316   5.983   0.012   5.152 -0.4990  0.1222 -0.4496
 5806SOL    HW118317   5.986  -0.050   5.073  0.8480 -2.5429  1.5418
 5806SOL    HW218318   6.035   0.095   5.130 -1.7445  0.3548 -2.9552
 5807SOL     OW18319   3.942   1.102   4.814  0.8299  0.3511  0.0540
 5807SOL    HW118320   3.972   1.151   4.732 -0.7354 -0.6526 -1.1698
 5807SOL    HW218321   3.888   1.163   4.871 -0.4359  0.3395 -1.0688
 5808SOL     OW18322   2.296   1.797   3.932  0.2988  0.6304 -0.2815
 5808SOL    HW118323   2.317   1.788   3.834  0.0158 -0.9522 -0.2231
 5808SOL    HW218324   2.348   1.873   3.970  0.5367  1.1712 -1.6296
 5809SOL     OW18325   5.304   3.183   0.283  0.3690  0.3036 -0.1981
 5809SOL    HW118326   5.288   3.086   0.263 -0.2525  0.5080 -0.7381
 5809SOL    HW218327   5.348   3.226   0.203 -0.9967  0.8563 -0.6844
 5810SOL     OW18328   0.424   5.602   4.351  0.5029 -0.0027 -0.4264
 5810SOL    HW118329   0.403   5.558   4.264  1.9220 -0.5928 -0.4918
 5810SOL    HW218330   0.461   5.535   4.415  0.3311  0.6081  0.3310
 5811SOL     OW18331   4.825   2.504   3.244  0.1630  0.2885  0.6306
 5811SOL    HW118332   4.903   2.563   3.229  0.0069  0.3000 -0.1839
 5811SOL    HW218333   4.744   2.559   3.264 -0.8404  0.6862 -3.6837
 5812SOL     OW18334   2.562   2.456   2.289 -0.1690  0.1193  0.1723
 5812SOL    HW118335   2.580   2.481   2.194 -0.4931 -0.9850 -0.1933
 5812SOL    HW218336   2.641   2.407   2.326 -0.4094 -0.2627  0.1784
 5813SOL     OW18337   2.201   5.092   5.882  0.2775 -0.0107 -0.2554
 5813SOL    HW118338   2.213   5.027   5.957 -1.5179  0.4663  0.5086
 5813SOL    HW218339   2.176   5.181   5.919 -1.0298  0.1401 -1.4267
 5814SOL     OW18340   0.662   5.987   1.693 -0.2729  0.1565  0.1515
 5814SOL    HW118341   0.603   5.909   1.671  1.3179 -1.0106 -0.2763
 5814SOL    HW218342   0.714   5.967   1.776  1.0691  0.1816 -0.6495
 5815SOL     OW18343   2.206   4.948   6.718  0.1114 -0.3595  0.0510
 5815SOL    HW118344   2.116   4.957   6.760  0.2606 -0.8971  0.4901
 5815SOL    HW218345   2.274   4.922   6.787  0.3552 -1.2496 -0.5029
 5816SOL     OW18346   1.448   0.761   6.449  0.2350 -0.5772  0.0769
 5816SOL    HW118347   1.481   0.688   6.508  0.5992 -0.2302  0.3045
 5816SOL    HW218348   1.348   0.765   6.454  0.2756 -0.3751  0.8786
 5817SOL     OW18349   0.043   1.163   3.637 -0.7407  0.3404 -0.4346
 5817SOL    HW118350   0.100   1.134   3.714 -1.8082  1.4602  0.8250
 5817SOL    HW218351   0.009   1.256   3.653 -2.6303 -0.1479 -1.2897
 5818SOL     OW18352   2.271   2.646   4.972  0.2116 -0.0542  0.5452
 5818SOL    HW118353   2.339   2.651   5.044 -0.0858 -0.4590  0.8599
 5818SOL    HW218354   2.281   2.724   4.910 -0.3289  0.9772  1.7305
 5819SOL     OW18355   6.333   0.841   0.028 -0.2081 -0.1096 -0.4503
 5819SOL    HW118356   6.423   0.884   0.029 -0.1430 -0.1937 -1.3809
 5819SOL    HW218357   6.274   0.890  -0.037 -0.3867 -0.9225 -0.9155
 5820SOL     OW18358   3.506   5.983   5.929  0.2895 -0.1706  0.5618
 5820SOL    HW118359   3.450   6.045   5.874  0.6433  0.5343  0.9903
 5820SOL    HW218360   3.603   5.999   5.910  0.3847 -0.6715  0.5950
 5821SOL     OW18361   2.852   6.614   3.085  0.4867 -0.0263  0.1343
 5821SOL    HW118362   2.904   6.699   3.076  0.2937 -0.0371 -1.4339
 5821SOL    HW218363   2.906   6.539   3.046 -0.0257 -0.3180 -0.0225
 5822SOL     OW18364   2.876   1.500   4.611  0.4128  0.6212  0.5422
 5822SOL    HW118365   2.828   1.413   4.599  3.0632 -0.7645 -0.8090
 5822SOL    HW218366   2.820   1.574   4.575 -0.8021 -0.8647 -0.7632
 5823SOL     OW18367   0.375   0.371   6.062 -0.3415  0.2669  0.0225
 5823SOL    HW118368   0.357   0.467   6.042  0.2463  0.4616  0.3966
 5823SOL    HW218369   0.332   0.347   6.150 -0.6166  0.1458 -0.1445
 5824SOL     OW18370   3.638   5.197   3.196 -0.1234 -0.3274 -0.0028
 5824SOL    HW118371   3.720   5.227   3.245  0.5241 -0.2039 -1.1128
 5824SOL    HW218372   3.556   5.221   3.248  0.5307 -0.0306  0.9019
 5825SOL     OW18373   0.916   6.731   6.459 -0.1429  0.7471 -0.1543
 5825SOL    HW118374   0.930   6.763   6.365  0.7938 -0.7247 -0.5409
 5825SOL    HW218375   1.004   6.716   6.503 -0.5458 -0.3663  0.3239
 5826SOL     OW18376   3.658   3.720   0.282 -0.3228  0.9407 -0.7533
 5826SOL    HW118377   3.679   3.678   0.371  3.6477 -0.5557 -2.1588
 5826SOL    HW218378   3.585   3.670   0.237  2.3431 -3.0501 -1.1513
 5827SOL     OW18379   5.458   6.588   5.642  0.1955  0.2086 -0.7511
 5827SOL    HW118380   5.374   6.640   5.653 -1.1773 -1.7606 -1.3169
 5827SOL    HW218381   5.513   6.595   5.725 -1.5470 -0.1830  0.4783
 5828SOL     OW18382   6.710   4.138   5.476  0.0961  0.5344  0.3767
 5828SOL    HW118383   6.638   4.207   5.482 -2.1950 -1.7680  0.9791
 5828SOL    HW218384   6.722   4.110   5.381  1.3403  1.9702  0.0684
 5829SOL     OW18385   3.429   1.222   1.094  0.0781  0.2654 -0.3216
 5829SOL    HW118386   3.487   1.181   1.164  0.6631  1.7898  0.1293
 5829SOL    HW218387   3.367   1.153   1.058 -0.5622 -0.4835  2.0106
 5830SOL     OW18388   2.432   4.887   4.442  0.2742 -0.3517 -0.4820
 5830SOL    HW118389   2.411   4.979   4.475  0.2410 -0.6045  0.2165
 5830SOL    HW218390   2.495   4.842   4.505  0.6146 -0.6657 -1.0339
 5831SOL     OW18391   0.822   5.639   3.818  0.1917  0.1648  0.0284
 5831SOL    HW118392   0.772   5.638   3.732  0.3582  0.9095 -0.0845
 5831SOL    HW218393   0.837   5.546   3.849  0.4916 -0.1282 -0.9630
 5832SOL     OW18394   3.613   6.959   1.492 -0.1978 -0.3501  0.2703
 5832SOL    HW118395   3.535   7.005   1.535  0.4784  0.6025  0.5230
 5832SOL    HW218396   3.650   6.891   1.555  0.3354  0.5256  0.9191
 5833SOL     OW18397   0.927   3.217   0.213  0.1869  0.1674  0.0730
 5833SOL    HW118398   0.839   3.246   0.175  0.4173 -0.7109 -1.1895
 5833SOL    HW218399   0.919   3.124   0.249  1.3763 -1.4139 -3.2973
 5834SOL     OW18400   6.003   2.896   6.349  0.1296  0.1784  0.9792
 5834SOL    HW118401   6.021   2.905   6.251  0.4792 -0.9498  0.9248
 5834SOL    HW218402   5.986   2.986   6.388 -0.7325  0.5710 -0.2472
 5835SOL     OW18403   4.020   0.073   3.085  0.2087  0.2846  0.0996
 5835SOL    HW118404   3.923   0.096   3.091  0.4105  1.1253  0.2326
 5835SOL    HW218405   4.055   0.049   3.175  0.0525 -0.3503 -0.0023
 5836SOL     OW18406   6.004   5.401   6.278  0.1577 -0.0391 -0.0481
 5836SOL    HW118407   6.037   5.346   6.355  0.4047  1.9836  1.3550
 5836SOL    HW218408   5.997   5.497   6.306 -1.2148  0.5167 -2.1154
 5837SOL     OW18409   2.934   1.761   4.937 -0.2740  0.1323  0.4337
 5837SOL    HW118410   2.919   1.827   4.864 -0.9507  1.4857  1.7401
 5837SOL    HW218411   2.845   1.729   4.971  0.0405 -1.2601  0.0134
 5838SOL     OW18412   0.744   2.474   4.005  0.0475  0.1857  0.3940
 5838SOL    HW118413   0.681   2.544   4.040  1.1535  1.4291 -0.0216
 5838SOL    HW218414   0.802   2.441   4.080 -1.4022 -1.3622  0.8986
 5839SOL     OW18415   2.098   6.561   1.132  0.2413  0.1950  0.1056
 5839SOL    HW118416   2.004   6.530   1.116 -0.0163  1.7778 -1.8850
 5839SOL    HW218417   2.162   6.491   1.101 -0.3151  0.1983 -1.1054
 5840SOL     OW18418   5.440   5.873   4.116 -0.1883 -0.0618 -0.1499
 5840SOL    HW118419   5.445   5.926   4.031  1.0607 -0.1111 -0.1302
 5840SOL    HW218420   5.532   5.858   4.151 -0.4673 -2.5250 -0.3006
 5841SOL     OW18421   0.826   5.661   5.858  0.2150  0.2252 -0.2254
 5841SOL    HW118422   0.845   5.759   5.860  0.8841  0.1380 -1.4251
 5841SOL    HW218423   0.731   5.646   5.828 -0.5672  0.5398  1.9514
 5842SOL     OW18424   3.921   0.752   0.214 -0.1198 -0.3057 -0.0017
 5842SOL    HW118425   3.850   0.704   0.265 -0.6355  1.2062  0.7589
 5842SOL    HW218426   3.880   0.818   0.152  0.5950  0.1801  0.0247
 5843SOL     OW18427   4.747   6.000   2.613  0.0097 -0.2521  0.5639
 5843SOL    HW118428   4.827   5.952   2.576 -0.5734 -1.0645  0.3196
 5843SOL    HW218429   4.726   5.965   2.704 -0.9381 -1.0946  0.0344
 5844SOL     OW18430   5.167   4.114   3.225  0.3420 -0.0263 -0.5037
 5844SOL    HW118431   5.084   4.105   3.171  0.7236  0.4635 -1.1957
 5844SOL    HW218432   5.155   4.071   3.314 -0.0385 -1.5185 -1.2580
 5845SOL     OW18433   2.708   3.232   5.335 -0.3572 -0.1737  1.2391
 5845SOL    HW118434   2.703   3.197   5.429  1.0679  2.0397  2.2193
 5845SOL    HW218435   2.663   3.168   5.273  0.4713 -2.7253  3.1294
 5846SOL     OW18436   5.579   2.366   6.018 -0.3718 -0.6846  0.1830
 5846SOL    HW118437   5.613   2.366   6.112 -0.7945  0.4344  0.3444
 5846SOL    HW218438   5.547   2.274   5.995  2.3417 -1.7114  0.1362
 5847SOL     OW18439   5.256   5.406   4.493  0.3239 -0.7004 -0.3407
 5847SOL    HW118440   5.192   5.439   4.423  2.1583  1.1988 -1.2127
 5847SOL    HW218441   5.338   5.370   4.449  1.2397 -0.0736  0.7975
 5848SOL     OW18442   0.201   4.816   6.763  0.4684 -0.0508  0.3529
 5848SOL    HW118443   0.271   4.835   6.695 -0.4296 -2.5574 -1.4449
 5848SOL    HW218444   0.204   4.719   6.787 -1.9019 -0.0893  0.7131
 5849SOL     OW18445   0.193   0.887   5.118 -0.2302 -0.0101  0.0176
 5849SOL    HW118446   0.180   0.905   5.020 -1.5772  1.1895  0.3841
 5849SOL    HW218447   0.165   0.967   5.171 -0.7416 -1.0819  1.4542
 5850SOL     OW18448   1.869   6.838   6.506  0.1422 -0.7289 -0.0104
 5850SOL    HW118449   1.957   6.864   6.467  0.4737 -1.1093  0.4666
 5850SOL    HW218450   1.881   6.758   6.565 -0.3859 -0.3312  0.6505
 5851SOL     OW18451   5.501   2.771   6.447 -0.3140  0.2485 -0.4478
 5851SOL    HW118452   5.561   2.843   6.412  0.5197  0.0923  0.6196
 5851SOL    HW218453   5.425   2.812   6.497 -0.5986  0.4127 -0.9994
 5852SOL     OW18454   4.365   2.249   1.203 -0.2143 -0.3433  0.2176
 5852SOL    HW118455   4.319   2.315   1.143 -0.0831  0.0389  0.5359
 5852SOL    HW218456   4.434   2.200   1.151 -0.2974 -0.2136 -0.0183
 5853SOL     OW18457   4.724   1.773   2.282  0.3094  0.1184 -0.4671
 5853SOL    HW118458   4.634   1.738   2.254 -0.9947  1.8797  1.2002
 5853SOL    HW218459   4.753   1.844   2.218  0.0117  0.2718 -0.4353
 5854SOL     OW18460   3.913   0.993   1.629  0.3999 -0.2289  0.2121
 5854SOL    HW118461   3.854   0.915   1.652 -0.2314  0.1051 -0.2585
 5854SOL    HW218462   3.857   1.071   1.602  1.0860 -0.3833 -1.7898
 5855SOL     OW18463   2.742   5.162   6.255 -0.8144 -0.0888  0.0838
 5855SOL    HW118464   2.835   5.125   6.257 -0.4143  0.8989  0.1940
 5855SOL    HW218465   2.692   5.125   6.177  0.5440  1.4179 -1.5672
 5856SOL     OW18466   0.951   5.347   0.574  0.0147  0.0912  0.0012
 5856SOL    HW118467   0.980   5.365   0.668 -2.0066 -1.2323  0.9516
 5856SOL    HW218468   0.903   5.427   0.538  2.0630  1.1663 -0.5160
 5857SOL     OW18469   3.696   1.340   4.423  1.1722  0.2342  0.0284
 5857SOL    HW118470   3.696   1.240   4.435  0.2960 -0.3610 -3.5510
 5857SOL    HW218471   3.787   1.376   4.444  2.1996 -1.6946 -0.8039
 5858SOL     OW18472   2.051   4.772   6.546  0.0176  0.7213  0.4093
 5858SOL    HW118473   2.098   4.817   6.622  0.5330  0.4648  0.2436
 5858SOL    HW218474   2.114   4.758   6.470  0.5860 -2.3696  1.2770
 5859SOL     OW18475   4.493   6.116   2.498 -0.4375  0.7603 -0.1980
 5859SOL    HW118476   4.546   6.039   2.534  0.5178  0.3064 -2.4018
 5859SOL    HW218477   4.535   6.148   2.413 -2.0214  2.3795 -0.4241
 5860SOL     OW18478   6.850   0.951   5.168 -0.1274 -0.0114 -0.1890
 5860SOL    HW118479   6.886   0.920   5.080 -2.2994  0.5002 -1.3073
 5860SOL    HW218480   6.838   1.050   5.166  2.1090  0.3924  1.6254
 5861SOL     OW18481   3.052   4.649   5.978  0.1873 -0.2823 -0.8510
 5861SOL    HW118482   3.108   4.720   5.937  0.2970  0.3360  0.3218
 5861SOL    HW218483   3.110   4.571   6.003  0.1575 -0.5581 -1.6164
 5862SOL     OW18484   0.850   1.334   6.918 -0.7477 -0.1512  0.2650
 5862SOL    HW118485   0.824   1.429   6.903  0.0444 -0.2397 -2.1728
 5862SOL    HW218486   0.940   1.317   6.877 -0.0673 -1.5626  2.1652
 5863SOL     OW18487   2.679   0.850   3.518 -0.2624  0.0765  0.0920
 5863SOL    HW118488   2.623   0.861   3.436 -0.4365 -0.8018  0.0824
 5863SOL    HW218489   2.702   0.940   3.555  2.3149  0.6516 -2.5859
 5864SOL     OW18490   6.369   1.582   1.489  0.4538  0.0799 -1.6220
 5864SOL    HW118491   6.334   1.642   1.561  1.2569 -1.6072  0.2647
 5864SOL    HW218492   6.294   1.559   1.426 -0.8620 -0.2612  0.0119
 5865SOL     OW18493   3.580   1.290   4.714 -0.1039 -0.0267  0.6267
 5865SOL    HW118494   3.619   1.236   4.639 -0.6072 -0.6024  0.7750
 5865SOL    HW218495   3.630   1.272   4.798 -0.5199 -0.5804  0.7636
 5866SOL     OW18496   6.123   6.582   6.879  0.0490  0.3896 -0.0464
 5866SOL    HW118497   6.222   6.588   6.868  0.3458 -1.1056  1.4276
 5866SOL    HW218498   6.082   6.553   6.793  0.7699  1.8126 -0.9057
 5867SOL     OW18499   0.533   4.980   0.194 -0.4788  0.2198  0.0953
 5867SOL    HW118500   0.482   4.947   0.115 -0.7281  0.4172  0.1739
 5867SOL    HW218501   0.602   4.912   0.219 -1.3702 -0.5123  0.6272
 5868SOL     OW18502   1.317   3.859   0.429 -0.5651 -0.5562 -0.3981
 5868SOL    HW118503   1.323   3.952   0.465  0.1280 -0.6925 -0.1516
 5868SOL    HW218504   1.305   3.863   0.330  0.1440 -0.2100 -0.4748
 5869SOL     OW18505   6.917   6.306   2.933 -0.1936  0.0278 -0.4062
 5869SOL    HW118506   6.902   6.402   2.907  1.3802  0.2802 -0.4800
 5869SOL    HW218507   7.012   6.282   2.917 -0.7370 -1.8069 -1.1349
 5870SOL     OW18508   4.508   3.355   5.690 -0.3627 -0.1170 -0.7011
 5870SOL    HW118509   4.552   3.267   5.672 -3.7400 -2.6223  1.9648
 5870SOL    HW218510   4.443   3.375   5.617 -0.0252 -0.1119 -1.0049
 5871SOL     OW18511   6.022   3.648   6.148  0.3646 -0.2722 -0.3253
 5871SOL    HW118512   6.037   3.566   6.204  0.4643  0.6264  1.0053
 5871SOL    HW218513   5.927   3.650   6.117  0.7132 -1.6112 -1.6046
 5872SOL     OW18514   0.246   4.134   6.204 -0.7177  0.0506 -0.3572
 5872SOL    HW118515   0.172   4.195   6.177 -0.0420  0.5737 -1.0932
 5872SOL    HW218516   0.218   4.080   6.283 -0.7096  2.6516  1.5697
 5873SOL     OW18517   2.126   1.453   0.801 -0.2506 -0.5523  0.4463
 5873SOL    HW118518   2.139   1.483   0.706  1.5251  1.7673  1.3166
 5873SOL    HW218519   2.140   1.354   0.807  1.7885 -0.4630 -1.4104
 5874SOL     OW18520   3.860   1.845   4.779 -0.3643 -0.3340 -0.2636
 5874SOL    HW118521   3.937   1.785   4.801 -0.2238 -0.3156 -0.7002
 5874SOL    HW218522   3.810   1.808   4.701 -0.7774 -0.3217 -0.0113
 5875SOL     OW18523   5.472   4.104   2.106 -0.1337  0.5750 -0.6383
 5875SOL    HW118524   5.444   4.009   2.089 -0.5247  0.5287  0.1682
 5875SOL    HW218525   5.443   4.162   2.031 -1.8809  0.4129 -0.1286
 5876SOL     OW18526   4.023   5.903   2.387 -0.1271 -0.1837 -0.3904
 5876SOL    HW118527   3.931   5.936   2.408 -0.3123 -1.8608  1.6451
 5876SOL    HW218528   4.088   5.979   2.396 -1.1494  0.7991 -0.9521
 5877SOL     OW18529   2.702   1.145   6.566 -0.5416  0.1974 -0.2641
 5877SOL    HW118530   2.667   1.061   6.608  0.9933  0.2786  1.2900
 5877SOL    HW218531   2.721   1.212   6.638  3.6482 -0.1758 -0.8008
 5878SOL     OW18532   1.078   5.100   5.340 -0.0186  0.1542  0.4000
 5878SOL    HW118533   1.151   5.156   5.300 -0.8183  0.1546 -1.1588
 5878SOL    HW218534   1.083   5.007   5.303 -1.9976  0.6764 -1.3798
 5879SOL     OW18535   0.947   2.861   3.868  0.0931 -0.1957 -0.2494
 5879SOL    HW118536   0.885   2.834   3.795 -2.7283  1.6897  1.2822
 5879SOL    HW218537   0.994   2.945   3.841  1.3294 -1.0882 -1.0027
 5880SOL     OW18538   5.063   2.945   5.674 -0.0100 -0.2022  0.0543
 5880SOL    HW118539   5.045   3.037   5.637 -0.6518 -0.1541  0.4757
 5880SOL    HW218540   5.127   2.952   5.750  1.0528 -0.2656 -0.8122
 5881SOL     OW18541   5.976   2.371   1.552  0.1190 -0.0445  0.5006
 5881SOL    HW118542   6.070   2.366   1.587  0.4136 -1.5521 -0.4134
 5881SOL    HW218543   5.961   2.461   1.510  1.2118  0.1453  0.4777
 5882SOL     OW18544   3.629   5.803   4.560 -0.3084  0.7338 -0.3557
 5882SOL    HW118545   3.600   5.843   4.646 -0.1714 -0.0552  0.0712
 5882SOL    HW218546   3.638   5.874   4.490 -1.7248  1.1955 -0.0779
 5883SOL     OW18547   4.555   0.105   6.551 -0.4471 -0.0147  0.3344
 5883SOL    HW118548   4.605   0.057   6.623 -0.2289  0.5662  0.5827
 5883SOL    HW218549   4.576   0.066   6.462 -1.4296 -1.3553  0.6585
 5884SOL     OW18550   5.174   3.921   3.987 -0.6099  0.0115 -0.2783
 5884SOL    HW118551   5.182   3.827   4.020 -1.2801  0.4733  1.3006
 5884SOL    HW218552   5.171   3.984   4.065  4.2887  1.8222 -1.1661
 5885SOL     OW18553   3.478   6.170   5.142 -0.2610  0.1931  0.1977
 5885SOL    HW118554   3.559   6.119   5.114 -1.6280 -2.5764  0.8368
 5885SOL    HW218555   3.468   6.166   5.242  0.1938  2.8389  0.4118
 5886SOL     OW18556   2.555   3.730   5.969 -0.2224 -0.2283 -0.2494
 5886SOL    HW118557   2.476   3.769   6.016 -0.4692 -0.2706 -0.6249
 5886SOL    HW218558   2.572   3.780   5.884 -0.2827 -0.6658 -0.5233
 5887SOL     OW18559   3.189   0.395   3.567  0.0833 -0.2526  0.4121
 5887SOL    HW118560   3.203   0.366   3.662 -1.5851  2.7498  1.7484
 5887SOL    HW218561   3.091   0.390   3.546  0.1972  0.9483 -0.4559
 5888SOL     OW18562   3.660   4.885   2.383 -0.8931  0.1181 -0.1687
 5888SOL    HW118563   3.617   4.909   2.296 -0.8751 -2.0896 -0.8667
 5888SOL    HW218564   3.715   4.801   2.370  0.1299  0.4489  1.6898
 5889SOL     OW18565   4.846   3.929   3.630 -0.0256 -0.3920 -0.2554
 5889SOL    HW118566   4.793   3.999   3.583  0.7979 -0.8000 -1.8835
 5889SOL    HW218567   4.833   3.841   3.584  2.9166 -0.2923 -1.5520
 5890SOL     OW18568   0.862   2.470   0.642 -0.6790  0.1968 -0.5816
 5890SOL    HW118569   0.803   2.392   0.621 -1.7384  0.6006  0.7540
 5890SOL    HW218570   0.806   2.544   0.681  0.4837  1.1838 -0.7368
 5891SOL     OW18571   2.678   4.821   6.950 -0.3320 -0.2962 -0.1905
 5891SOL    HW118572   2.747   4.884   6.916 -0.1017 -0.3917  0.0897
 5891SOL    HW218573   2.717   4.766   7.024 -1.1968  0.8753  1.2153
 5892SOL     OW18574   2.255   0.721   5.086 -0.6324 -0.2215 -0.0929
 5892SOL    HW118575   2.285   0.652   5.151 -1.5627 -0.8745 -0.3482
 5892SOL    HW218576   2.336   0.763   5.044 -0.0465 -0.6346  0.5911
 5893SOL     OW18577   4.200   4.897   2.878  0.4934  0.0182  0.3670
 5893SOL    HW118578   4.156   4.916   2.965  1.4338 -0.8853  1.0598
 5893SOL    HW218579   4.296   4.874   2.894  0.2709 -1.8134 -0.7562
 5894SOL     OW18580   4.459   2.788   0.878  0.0494  0.1435 -0.4582
 5894SOL    HW118581   4.488   2.741   0.961 -1.4403 -1.9641 -1.0455
 5894SOL    HW218582   4.359   2.796   0.877  0.1616  2.0932 -1.0810
 5895SOL     OW18583   3.125   5.368   0.318 -0.2535 -0.1802  0.2639
 5895SOL    HW118584   3.067   5.369   0.399 -1.7061 -0.6309 -0.7519
 5895SOL    HW218585   3.084   5.312   0.247  1.6331 -0.8703 -0.3643
 5896SOL     OW18586   4.787   0.198   4.451 -0.5547  0.1706 -0.1621
 5896SOL    HW118587   4.873   0.147   4.456 -1.6304 -1.7696 -0.2007
 5896SOL    HW218588   4.736   0.187   4.537 -0.2613  2.2976  0.3207
 5897SOL     OW18589   5.169   1.689   2.179 -0.3507 -0.2844  0.3741
 5897SOL    HW118590   5.109   1.737   2.243 -2.6911 -0.3698 -1.6064
 5897SOL    HW218591   5.216   1.755   2.121  0.5973 -0.2619  1.1436
 5898SOL     OW18592   3.097   6.037   3.957 -1.0596  0.5865  0.4961
 5898SOL    HW118593   3.085   6.113   4.021 -2.3126  1.2765 -0.4950
 5898SOL    HW218594   3.010   5.990   3.945 -1.8715  2.6313 -3.2494
 5899SOL     OW18595   5.253   3.706   6.095 -0.4875  0.4141 -0.1382
 5899SOL    HW118596   5.202   3.685   6.178  0.8230 -0.4411  0.4975
 5899SOL    HW218597   5.223   3.645   6.021 -0.7081  0.2354  0.0949
 5900SOL     OW18598   6.848   1.644   0.608  0.1231  0.2507 -0.0412
 5900SOL    HW118599   6.875   1.616   0.700 -1.2190  0.8099  0.5342
 5900SOL    HW218600   6.915   1.610   0.542 -0.3842 -2.6059  0.8195
 5901SOL     OW18601   2.457   6.057   1.896 -0.4585  0.2371  0.4784
 5901SOL    HW118602   2.492   5.967   1.923 -0.8786  0.3862  1.5820
 5901SOL    HW218603   2.454   6.117   1.976  0.6969  1.5518 -0.4156
 5902SOL     OW18604   4.393   5.627   3.407  0.2715  0.2351 -0.1807
 5902SOL    HW118605   4.493   5.628   3.405  0.3994 -2.8009  0.2164
 5902SOL    HW218606   4.360   5.537   3.377 -2.3722  1.2340 -0.5179
 5903SOL     OW18607   1.651   4.283   1.605 -0.3642  0.1445 -0.0399
 5903SOL    HW118608   1.661   4.382   1.596 -0.6092  0.1998  0.2731
 5903SOL    HW218609   1.712   4.237   1.541  0.7735  0.4802  0.7630
 5904SOL     OW18610   4.632   6.739   1.422  0.2094 -0.2801 -0.2564
 5904SOL    HW118611   4.656   6.797   1.345 -1.7056  0.6632 -0.2026
 5904SOL    HW218612   4.566   6.670   1.393  0.1950 -0.5253  0.3326
 5905SOL     OW18613   4.518   1.370   5.006 -0.1854 -0.1624  0.0680
 5905SOL    HW118614   4.488   1.276   5.018 -0.4854 -0.2488 -1.1837
 5905SOL    HW218615   4.563   1.402   5.089 -0.1442 -1.3812  0.5321
 5906SOL     OW18616   3.822   3.964   6.929  0.5958 -0.6202 -0.1995
 5906SOL    HW118617   3.776   4.036   6.878 -2.4663 -1.6791  0.8511
 5906SOL    HW218618   3.799   3.971   7.026  0.4906 -2.7672 -0.0102
 5907SOL     OW18619   2.399   0.431   0.352  0.2897  0.4772  0.2984
 5907SOL    HW118620   2.452   0.392   0.277  2.7181  2.2591  0.9646
 5907SOL    HW218621   2.393   0.365   0.427  0.6690 -0.1354 -0.2058
 5908SOL     OW18622   3.650   5.555   2.418  0.0950 -0.2178  0.6544
 5908SOL    HW118623   3.732   5.588   2.465  1.7640  0.1705 -2.2897
 5908SOL    HW218624   3.647   5.455   2.424 -0.3539 -0.1149  2.4857
 5909SOL     OW18625   3.659   0.688   1.404 -0.5730  0.0359 -0.6197
 5909SOL    HW118626   3.587   0.716   1.341 -1.2208  1.2339  0.6111
 5909SOL    HW218627   3.747   0.694   1.358 -0.8172  2.7262 -0.9085
 5910SOL     OW18628   6.956   5.960   4.094  0.2363  0.1337  0.3007
 5910SOL    HW118629   6.955   6.046   4.144 -1.1444  0.4479 -0.2362
 5910SOL    HW218630   6.862   5.930   4.076  0.6643 -1.8899  1.1650
 5911SOL     OW18631   3.495   0.575   5.473 -0.1910  0.0070 -0.0790
 5911SOL    HW118632   3.523   0.509   5.543 -0.0155  3.1409  3.0756
 5911SOL    HW218633   3.572   0.634   5.450 -0.9633  0.7090 -0.9409
 5912SOL     OW18634   0.160   3.914   2.097  0.4370  0.2126  0.0340
 5912SOL    HW118635   0.169   3.984   2.026 -0.4428  0.3412  0.0357
 5912SOL    HW218636   0.250   3.884   2.127  0.8354 -0.3840 -1.6710
 5913SOL     OW18637   3.920   6.078   2.052  0.3029  0.0108  0.9727
 5913SOL    HW118638   3.971   5.993   2.061  0.1616 -0.1890  0.0248
 5913SOL    HW218639   3.827   6.058   2.021  0.2289  0.4945  0.8673
 5914SOL     OW18640   1.681   3.412   0.215  0.2333  0.3423 -0.6349
 5914SOL    HW118641   1.700   3.327   0.166 -0.6276  0.6365 -1.5406
 5914SOL    HW218642   1.592   3.448   0.185  0.4016  1.3542  0.0171
 5915SOL     OW18643   1.833   2.854   4.058  0.4620 -0.0913 -0.1077
 5915SOL    HW118644   1.816   2.755   4.063  0.2099 -0.1000 -0.9760
 5915SOL    HW218645   1.875   2.876   3.970  0.3124  0.6048 -0.0099
 5916SOL     OW18646   1.227   1.448   1.951 -0.1595  0.0001  0.4956
 5916SOL    HW118647   1.317   1.491   1.940 -0.1085 -0.6194 -2.0434
 5916SOL    HW218648   1.231   1.354   1.919 -2.2039  0.6192 -1.8621
 5917SOL     OW18649   4.523   1.127   1.833  0.1839 -0.1851  0.2038
 5917SOL    HW118650   4.442   1.084   1.872 -0.4905  2.5353  2.0815
 5917SOL    HW218651   4.603   1.106   1.890  0.3115 -0.7185 -0.1599
 5918SOL     OW18652   5.065   4.536   1.700 -0.1776  0.4748 -0.9318
 5918SOL    HW118653   5.029   4.600   1.768  2.4366 -0.1190  1.1717
 5918SOL    HW218654   5.060   4.443   1.736  1.7838  0.2069 -1.2781
 5919SOL     OW18655   2.067   1.844   1.510 -0.2715 -0.3353 -0.3096
 5919SOL    HW118656   2.057   1.917   1.577 -0.2179 -0.7278  0.1294
 5919SOL    HW218657   2.019   1.870   1.426 -0.2302  0.2134 -0.1692
 5920SOL     OW18658   1.805   5.214   3.098 -0.1077 -0.1599  0.2316
 5920SOL    HW118659   1.748   5.193   3.019 -0.4155 -0.0372  0.4200
 5920SOL    HW218660   1.797   5.141   3.166 -0.8945  0.3812  0.7296
 5921SOL     OW18661   4.179   4.886   0.186 -0.6206  0.1338 -0.4026
 5921SOL    HW118662   4.277   4.870   0.177 -0.5691  1.4105 -3.1918
 5921SOL    HW218663   4.163   4.981   0.211 -1.1729 -0.3145  1.0411
 5922SOL     OW18664   0.249   5.667   4.540  0.5126 -0.2644  0.5937
 5922SOL    HW118665   0.212   5.577   4.565  0.0629 -0.2117  0.1256
 5922SOL    HW218666   0.311   5.656   4.462  1.5926 -0.3676  1.4374
 5923SOL     OW18667   6.478   2.427   5.293  0.3075 -0.7584  0.5271
 5923SOL    HW118668   6.471   2.331   5.322 -1.1023 -0.7764  0.2253
 5923SOL    HW218669   6.396   2.451   5.240  0.8306  0.5042  0.2701
 5924SOL     OW18670   3.621   1.254   0.346 -0.0073 -0.8118 -0.2765
 5924SOL    HW118671   3.624   1.314   0.266  0.0979 -0.4956 -0.0365
 5924SOL    HW218672   3.705   1.267   0.400  0.7257 -2.2642 -1.0136
 5925SOL     OW18673   6.363   3.456   4.220 -0.2471  0.2131  0.2701
 5925SOL    HW118674   6.315   3.388   4.276 -0.0488  0.3285  0.5823
 5925SOL    HW218675   6.304   3.535   4.206 -0.6426 -0.1938 -0.4526
 5926SOL     OW18676   2.716   0.270   0.176  1.1664 -0.0627 -0.4392
 5926SOL    HW118677   2.692   0.333   0.101  0.1512  0.4760  0.3156
 5926SOL    HW218678   2.757   0.321   0.251  0.9839 -0.4063 -0.1033
 5927SOL     OW18679   1.882   2.100   4.304 -0.4073  0.3467  0.5180
 5927SOL    HW118680   1.861   2.196   4.326  0.1868  0.8242 -0.9157
 5927SOL    HW218681   1.981   2.090   4.292 -0.3001 -0.7667  2.0057
 5928SOL     OW18682   4.603   4.014   1.364  0.1545  0.2226 -0.4431
 5928SOL    HW118683   4.537   3.994   1.436 -0.5120 -2.2099 -1.6262
 5928SOL    HW218684   4.696   3.995   1.398 -0.3081 -3.6015 -0.8826
 5929SOL     OW18685   6.768   4.594   4.274  0.3079  0.6090  0.2711
 5929SOL    HW118686   6.746   4.684   4.236  0.0308  0.5776  0.3513
 5929SOL    HW218687   6.829   4.604   4.352  0.7829  0.6839 -0.1054
 5930SOL     OW18688   1.749   4.049   6.679 -0.7035 -0.4575 -0.0365
 5930SOL    HW118689   1.834   4.099   6.666 -0.6906 -0.3765  0.3484
 5930SOL    HW218690   1.672   4.112   6.676 -0.7111 -0.4584  0.1258
 5931SOL     OW18691   0.913   5.472   0.805 -0.4158 -0.1839  0.4955
 5931SOL    HW118692   0.878   5.506   0.892  1.2527 -0.1470  1.1818
 5931SOL    HW218693   1.000   5.516   0.785  0.0398 -1.4331 -0.3586
 5932SOL     OW18694   4.888   4.537   3.693 -0.0543  0.4856  0.1527
 5932SOL    HW118695   4.944   4.620   3.698  1.4062 -0.3443 -1.5560
 5932SOL    HW218696   4.932   4.464   3.744 -0.4320  0.2812  0.1864
 5933SOL     OW18697   1.212   2.910   1.363  0.0460 -0.1541  0.0072
 5933SOL    HW118698   1.169   2.979   1.305 -0.8420  0.0318  0.8480
 5933SOL    HW218699   1.281   2.954   1.422 -0.6628  0.0707  0.6862
 5934SOL     OW18700   2.080   2.303   6.745  0.0898  0.1487  0.0543
 5934SOL    HW118701   2.114   2.388   6.785  0.8087  0.5581 -1.3496
 5934SOL    HW218702   2.137   2.227   6.776 -0.7820  0.0796  1.6151
 5935SOL     OW18703   4.602   6.418   1.637  0.4083 -0.4326 -0.0661
 5935SOL    HW118704   4.694   6.402   1.601  0.9921 -0.3227  1.3025
 5935SOL    HW218705   4.602   6.403   1.736 -0.6102  1.4201  0.2633
 5936SOL     OW18706   3.275   1.055   4.949  0.4931  0.3329  0.1087
 5936SOL    HW118707   3.278   0.965   4.907  0.3843 -0.3954  1.5973
 5936SOL    HW218708   3.259   1.125   4.879  1.8125 -0.6669 -1.2251
 5937SOL     OW18709   3.572   3.115   0.165  0.0081 -0.6145  0.1572
 5937SOL    HW118710   3.509   3.174   0.216 -1.1668 -2.6577  1.2190
 5937SOL    HW218711   3.563   3.134   0.067 -0.4877  0.7803  0.4446
 5938SOL     OW18712   4.722   4.237   3.906 -0.1631  0.7320  0.1313
 5938SOL    HW118713   4.766   4.258   3.994  0.3638 -0.6867  0.2254
 5938SOL    HW218714   4.764   4.156   3.866 -0.5061  1.2819 -1.3766
 5939SOL     OW18715   1.250   2.606   1.951 -0.3817  0.0969  0.3656
 5939SOL    HW118716   1.201   2.544   1.890 -1.7783  2.0096 -0.5406
 5939SOL    HW218717   1.207   2.605   2.041  0.7285 -1.5556  0.9278
 5940SOL     OW18718   3.606   0.860   3.903 -0.4143  0.3327  0.5897
 5940SOL    HW118719   3.656   0.877   3.818 -0.7994  2.3389  0.7203
 5940SOL    HW218720   3.516   0.904   3.899 -1.8771 -2.4104  0.7339
 5941SOL     OW18721   3.728   0.136   1.104  0.1814 -0.1767  0.0427
 5941SOL    HW118722   3.738   0.200   1.028  0.1890  0.4626  0.5716
 5941SOL    HW218723   3.791   0.162   1.178  0.4761 -1.0353  0.1097
 5942SOL     OW18724   5.627   1.221   3.650 -0.2756  0.1581 -0.8675
 5942SOL    HW118725   5.637   1.222   3.550 -1.9602  0.2295 -1.0749
 5942SOL    HW218726   5.562   1.293   3.677 -1.0115 -0.8421  0.1098
 5943SOL     OW18727   3.695   1.828   2.292 -0.0662 -0.1006  0.3889
 5943SOL    HW118728   3.647   1.904   2.335 -0.4666  0.4456 -0.9647
 5943SOL    HW218729   3.755   1.864   2.220  0.8890 -0.9479  0.7452
 5944SOL     OW18730   6.706   4.060   6.691 -0.4129  0.1308 -0.7352
 5944SOL    HW118731   6.705   3.964   6.662 -0.2086 -0.2159  0.3513
 5944SOL    HW218732   6.716   4.064   6.791  0.1307  1.2937 -0.8288
 5945SOL     OW18733   3.018   0.991   2.492  0.0220  0.0362 -0.4832
 5945SOL    HW118734   3.103   1.044   2.484 -1.1347  1.7628 -2.2913
 5945SOL    HW218735   3.013   0.924   2.417 -0.0386 -0.3565 -0.1329
 5946SOL     OW18736   3.832   1.783   4.240  0.3122 -0.2667 -0.7567
 5946SOL    HW118737   3.831   1.874   4.282  1.0352 -0.4337 -0.3641
 5946SOL    HW218738   3.778   1.720   4.296 -1.6451  0.2787 -1.9188
 5947SOL     OW18739   0.340   2.467   3.518  0.0024  0.4662 -0.3687
 5947SOL    HW118740   0.408   2.426   3.579 -0.6993  1.1243  0.8946
 5947SOL    HW218741   0.385   2.505   3.438  0.7712 -2.1540 -1.2993
 5948SOL     OW18742   4.036   6.477   2.495 -0.8341 -0.3917  0.4542
 5948SOL    HW118743   3.979   6.399   2.521 -1.7007  0.2012  0.3530
 5948SOL    HW218744   4.058   6.472   2.398  0.2528 -1.2237  0.7209
 5949SOL     OW18745   1.282   6.712   1.336  0.0341 -0.0865  0.4509
 5949SOL    HW118746   1.295   6.615   1.355 -0.9599 -0.2038  0.5535
 5949SOL    HW218747   1.298   6.729   1.238 -0.2764 -0.4398  0.3366
 5950SOL     OW18748   0.012   2.963   4.733  0.1965  0.8674 -0.1526
 5950SOL    HW118749  -0.005   2.888   4.670 -2.5616  1.9399 -0.8512
 5950SOL    HW218750   0.074   3.030   4.691  1.5850 -0.3148 -0.0491
 5951SOL     OW18751   3.938   6.914   0.718  0.4418 -0.1202 -0.6393
 5951SOL    HW118752   3.983   6.924   0.807  0.6049  0.1761 -0.7581
 5951SOL    HW218753   3.971   6.983   0.655 -0.0566 -0.0041 -0.7785
 5952SOL     OW18754   3.395   0.978   1.860  0.1166  0.8439  0.3080
 5952SOL    HW118755   3.456   1.056   1.873  0.7192  0.0720  2.5068
 5952SOL    HW218756   3.446   0.893   1.873 -1.2283  0.1523  1.3028
 5953SOL     OW18757   4.078   0.363   3.376 -0.4971 -0.4533 -0.0243
 5953SOL    HW118758   4.055   0.266   3.364 -0.3682 -0.4399 -0.3854
 5953SOL    HW218759   4.128   0.396   3.296 -1.3565  0.1621 -0.3148
 5954SOL     OW18760   5.818   6.335   3.240  0.0711  0.0872 -0.3294
 5954SOL    HW118761   5.798   6.272   3.314  1.5976  0.0695  0.1116
 5954SOL    HW218762   5.877   6.290   3.172 -0.1694  0.5312 -0.8412
 5955SOL     OW18763   3.898   6.141   3.895  0.9222 -0.2549  0.5767
 5955SOL    HW118764   3.979   6.112   3.844 -0.1168  0.8786 -1.9216
 5955SOL    HW218765   3.922   6.157   3.991  3.2376 -1.5253  0.2710
 5956SOL     OW18766   6.984   1.033   6.095 -0.7104  0.2684  0.2800
 5956SOL    HW118767   7.077   1.046   6.060 -0.3680 -0.0610  1.0313
 5956SOL    HW218768   6.919   1.077   6.034 -0.0841  0.2476 -0.4188
 5957SOL     OW18769   0.389   0.541   1.644 -0.2470  0.6536  0.3863
 5957SOL    HW118770   0.406   0.462   1.703  2.2748 -0.5394 -1.6986
 5957SOL    HW218771   0.440   0.620   1.677  2.0958 -0.3245 -0.7036
 5958SOL     OW18772   3.278   5.432   4.693 -0.2909 -0.1557  0.0185
 5958SOL    HW118773   3.351   5.487   4.650 -0.5076 -1.4117 -2.1175
 5958SOL    HW218774   3.269   5.345   4.644 -1.8468 -0.9053  1.5521
 5959SOL     OW18775   5.057   6.405   2.669  0.3212  0.0411  0.6055
 5959SOL    HW118776   5.007   6.492   2.663 -2.2446 -1.2379  2.0342
 5959SOL    HW218777   5.040   6.351   2.586 -1.7132 -0.8510  1.5470
 5960SOL     OW18778   2.260   4.247   2.777  0.0914  0.1369  0.0907
 5960SOL    HW118779   2.324   4.320   2.754  0.8684 -0.2743  0.8982
 5960SOL    HW218780   2.279   4.214   2.870 -1.2632 -0.0224  0.3257
 5961SOL     OW18781   2.350   2.263   2.060 -0.7985 -0.4609  0.4132
 5961SOL    HW118782   2.310   2.271   2.152  0.2969 -0.6840  0.9378
 5961SOL    HW218783   2.447   2.239   2.069  0.3461  3.0954 -0.6657
 5962SOL     OW18784   0.043   1.460   0.533 -0.3176  0.3609  0.2442
 5962SOL    HW118785  -0.036   1.419   0.578  0.7833 -0.6334  1.3553
 5962SOL    HW218786   0.125   1.441   0.587  0.6670  1.5077 -0.7904
 5963SOL     OW18787   1.325   3.182   3.925 -0.6323  0.0075 -0.3382
 5963SOL    HW118788   1.343   3.240   4.005 -0.9058 -1.2466  0.6723
 5963SOL    HW218789   1.402   3.120   3.910 -1.3596 -1.0530  0.1348
 5964SOL     OW18790   6.831   4.660   4.890  0.3877 -0.1274 -0.5926
 5964SOL    HW118791   6.733   4.678   4.905  0.3996 -0.0625 -0.5935
 5964SOL    HW218792   6.863   4.712   4.811  0.1194 -1.1392 -1.3958
 5965SOL     OW18793   2.837   1.254   0.455  0.0413  0.5177 -0.0067
 5965SOL    HW118794   2.769   1.314   0.498 -2.5945 -1.5399 -0.9850
 5965SOL    HW218795   2.864   1.292   0.366 -1.0626  0.6505 -0.2996
 5966SOL     OW18796   2.936   2.358   1.635 -0.2225  0.1640  0.2717
 5966SOL    HW118797   2.905   2.412   1.713  0.4338  1.6121 -0.4284
 5966SOL    HW218798   3.014   2.403   1.592 -0.8572 -0.3220 -1.4952
 5967SOL     OW18799   5.677   2.697   2.602  0.6023  0.4518  0.1719
 5967SOL    HW118800   5.742   2.660   2.668  2.8328 -0.4214 -2.3043
 5967SOL    HW218801   5.639   2.623   2.548  0.8420  1.2922 -1.2073
 5968SOL     OW18802   4.672   6.331   6.098  0.0499 -0.2910  0.4198
 5968SOL    HW118803   4.729   6.257   6.132  0.0991 -0.9963 -1.1068
 5968SOL    HW218804   4.622   6.300   6.017 -1.9726  0.5228  1.2894
 5969SOL     OW18805   3.336   0.856   3.927 -0.0752 -0.1790 -0.1175
 5969SOL    HW118806   3.313   0.759   3.916  1.4488 -0.6247  0.3228
 5969SOL    HW218807   3.288   0.910   3.859 -1.9824 -1.0705  0.4586
 5970SOL     OW18808   5.819   0.586   0.046 -0.1875 -0.3095 -0.1377
 5970SOL    HW118809   5.816   0.564  -0.052 -0.3010 -0.3748 -0.1196
 5970SOL    HW218810   5.833   0.684   0.058  3.4805 -0.6666 -0.2588
 5971SOL     OW18811   2.927   1.406   2.985 -0.3997 -0.4636  0.1800
 5971SOL    HW118812   2.995   1.480   2.988  1.0126 -1.7497  0.9467
 5971SOL    HW218813   2.876   1.412   2.899  2.0747 -0.6585 -1.3952
 5972SOL     OW18814   0.494   1.563   6.695  0.0236  0.7272 -0.6243
 5972SOL    HW118815   0.410   1.513   6.672 -0.1526  0.5970  0.2634
 5972SOL    HW218816   0.473   1.634   6.763  0.7941  0.0026  0.4106
 5973SOL     OW18817   0.776   5.218   1.625 -0.0225 -0.0410 -0.2122
 5973SOL    HW118818   0.859   5.260   1.590  0.1063  0.5540  0.7559
 5973SOL    HW218819   0.710   5.207   1.551  0.0076  1.7327 -0.5452
 5974SOL     OW18820   1.667   4.932   4.484  0.0679  0.2193  0.0096
 5974SOL    HW118821   1.624   4.850   4.448 -0.2006  0.5473 -0.4311
 5974SOL    HW218822   1.751   4.951   4.433 -1.5057  2.0012 -2.1286
 5975SOL     OW18823   2.155   3.124   3.007  0.2565  0.6384 -0.6629
 5975SOL    HW118824   2.122   3.058   2.940 -2.1151  1.1461 -0.0961
 5975SOL    HW218825   2.126   3.216   2.980 -1.8729  0.7399  1.5644
 5976SOL     OW18826   1.957   6.279   3.396 -0.4070 -0.0522  0.4463
 5976SOL    HW118827   1.984   6.188   3.427  1.3673  0.2857  0.0020
 5976SOL    HW218828   1.859   6.280   3.377 -0.5197 -1.7693  0.7882
 5977SOL     OW18829   0.348   0.057   5.865  0.2162  0.2237  0.1091
 5977SOL    HW118830   0.264   0.067   5.919 -1.5117 -2.0459 -1.9201
 5977SOL    HW218831   0.330   0.085   5.771  1.3749 -1.4351 -0.6446
 5978SOL     OW18832   4.377   2.431   5.345 -0.0572 -0.0628  0.2437
 5978SOL    HW118833   4.318   2.383   5.410 -0.2502 -1.3820 -0.8511
 5978SOL    HW218834   4.321   2.472   5.273  0.3100 -2.9389 -1.8792
 5979SOL     OW18835   2.144   3.162   4.379 -0.1368 -0.2467  0.1302
 5979SOL    HW118836   2.201   3.083   4.356  0.0237  0.0190 -0.3777
 5979SOL    HW218837   2.134   3.221   4.300 -1.8663 -0.7442 -0.0819
 5980SOL     OW18838   6.067   3.059   6.630  0.3133 -0.1050 -0.3309
 5980SOL    HW118839   6.129   3.135   6.652 -0.4269  0.8163 -1.3316
 5980SOL    HW218840   6.103   2.974   6.669  1.2328  0.7247  0.6953
 5981SOL     OW18841   3.483   5.132   2.975 -0.1489 -0.4657 -0.3265
 5981SOL    HW118842   3.422   5.206   2.945  0.6196  0.0965 -0.5439
 5981SOL    HW218843   3.540   5.165   3.051  1.9761  0.0374 -2.0470
 5982SOL     OW18844   1.450   6.879   0.473  0.2829 -0.1475  0.2315
 5982SOL    HW118845   1.547   6.901   0.483  0.5377 -1.2837  0.3833
 5982SOL    HW218846   1.432   6.852   0.378  0.2222 -0.4110  0.3167
 5983SOL     OW18847   0.622   0.535   3.520 -0.1107  0.5948  0.5700
 5983SOL    HW118848   0.546   0.563   3.462 -1.0555 -1.4594  0.7265
 5983SOL    HW218849   0.613   0.438   3.544  3.9908 -0.6063 -1.6529
 5984SOL     OW18850   3.944   2.110   5.116 -0.0895  0.2281  0.7985
 5984SOL    HW118851   3.993   2.186   5.158  0.3222  0.4247 -0.0315
 5984SOL    HW218852   3.847   2.133   5.106  0.5990  2.2544 -2.9464
 5985SOL     OW18853   3.462   3.881   6.358  0.0220 -0.2617 -0.2093
 5985SOL    HW118854   3.363   3.873   6.374  0.1046  0.6756  0.8963
 5985SOL    HW218855   3.492   3.973   6.382  1.2412 -0.6657 -0.1392
 5986SOL     OW18856   6.603   4.895   3.401 -0.1586 -0.4871  0.2995
 5986SOL    HW118857   6.630   4.818   3.345 -0.4309 -0.6287  0.3616
 5986SOL    HW218858   6.678   4.961   3.406 -0.9580  0.7505 -2.2909
 5987SOL     OW18859   4.313   2.498   1.392 -0.0224  0.1134 -0.4342
 5987SOL    HW118860   4.255   2.429   1.436 -0.1143  0.3452 -0.1823
 5987SOL    HW218861   4.397   2.455   1.359  0.0528 -0.0708 -0.0192
 5988SOL     OW18862   0.862   2.926   4.649  0.0108 -0.1625 -0.0369
 5988SOL    HW118863   0.891   2.867   4.574  1.7106  1.2299 -0.5603
 5988SOL    HW218864   0.849   3.019   4.614 -0.5370  0.2203  1.1417
 5989SOL     OW18865   3.863   4.409   6.208 -0.3764 -0.6757  0.7480
 5989SOL    HW118866   3.913   4.398   6.294  1.6986 -0.1449 -0.3146
 5989SOL    HW218867   3.915   4.469   6.147 -2.4382  0.0344 -0.4099
 5990SOL     OW18868   3.533   3.385   6.725 -0.1487 -0.2312 -0.3799
 5990SOL    HW118869   3.518   3.478   6.755  0.7979  0.1961 -1.1558
 5990SOL    HW218870   3.613   3.382   6.664  0.0086 -1.5841 -0.1455
 5991SOL     OW18871   4.803   5.286   5.370 -0.3488  0.2573 -0.1387
 5991SOL    HW118872   4.816   5.343   5.289  1.7409 -0.1201 -0.1314
 5991SOL    HW218873   4.781   5.344   5.448 -0.2398  0.8489 -0.5375
 5992SOL     OW18874   6.535   3.142   6.658  0.3696  0.2736  0.1565
 5992SOL    HW118875   6.463   3.206   6.633 -1.1639 -1.5017 -0.1696
 5992SOL    HW218876   6.542   3.137   6.758 -2.2500 -1.8548  0.3341
 5993SOL     OW18877   4.050   5.226   4.438  0.6595 -0.3085 -0.1315
 5993SOL    HW118878   3.978   5.175   4.484  1.2562 -1.2343 -0.1872
 5993SOL    HW218879   4.046   5.209   4.340  1.2283 -0.7355 -0.0870
 5994SOL     OW18880   0.154   2.818   4.195  0.2553  0.7793  0.2488
 5994SOL    HW118881   0.184   2.763   4.273  2.0698  0.1710 -0.8449
 5994SOL    HW218882   0.233   2.858   4.150 -0.6792  0.3374 -1.8728
 5995SOL     OW18883   2.886   0.933   6.975 -0.2223  0.1522 -0.1346
 5995SOL    HW118884   2.823   0.917   6.899  0.9800  1.6092 -1.4964
 5995SOL    HW218885   2.977   0.899   6.951  0.2796  1.0233  0.4640
 5996SOL     OW18886   2.890   1.265   5.447 -0.4349 -0.1502 -0.2829
 5996SOL    HW118887   2.939   1.351   5.435  2.6359 -1.5095  1.4151
 5996SOL    HW218888   2.929   1.195   5.387 -3.3496 -0.3291 -2.1706
 5997SOL     OW18889   0.595   5.147   2.131  0.6816 -0.5176  0.2889
 5997SOL    HW118890   0.684   5.186   2.153  0.3013  0.3758  0.2641
 5997SOL    HW218891   0.544   5.130   2.215  0.6477 -0.4876  0.2744
 5998SOL     OW18892   6.638   4.291   6.111 -0.8358  0.0114  0.7401
 5998SOL    HW118893   6.708   4.223   6.090  0.1285  1.0240  0.5968
 5998SOL    HW218894   6.554   4.267   6.063  0.2618  0.3070 -1.4733
 5999SOL     OW18895   2.140   1.585   2.656 -0.2247 -0.6297 -0.0504
 5999SOL    HW118896   2.106   1.491   2.648  1.1173 -1.2316  0.9657
 5999SOL    HW218897   2.156   1.622   2.565 -1.5847 -1.0557 -0.4912
 6000SOL     OW18898   0.362   3.525   5.052 -0.0517 -0.0397  0.0363
 6000SOL    HW118899   0.310   3.597   5.098 -2.3908 -1.1923 -0.6447
 6000SOL    HW218900   0.398   3.560   4.966 -1.9817  0.1228 -0.7544
 6001SOL     OW18901   0.969   4.465   4.038  0.1230  0.3217 -0.3088
 6001SOL    HW118902   0.986   4.459   3.940 -1.9689  0.4404 -0.7236
 6001SOL    HW218903   1.054   4.446   4.088  1.1551 -0.0249 -2.1074
 6002SOL     OW18904   6.708   1.747   6.419  0.4396  0.2684  0.2975
 6002SOL    HW118905   6.646   1.798   6.479 -0.1285  1.8289 -1.5129
 6002SOL    HW218906   6.799   1.789   6.421  0.8881 -0.7104  1.3146
 6003SOL     OW18907   3.131   6.736   6.981  0.4768 -0.3425  0.4060
 6003SOL    HW118908   3.058   6.669   6.990  0.2301 -0.1798 -0.2775
 6003SOL    HW218909   3.098   6.813   6.925  1.1683 -0.2714  0.0908
 6004SOL     OW18910   3.309   1.261   4.732  0.1656  0.2139 -0.4568
 6004SOL    HW118911   3.407   1.249   4.747 -0.0066 -0.0985  0.5288
 6004SOL    HW218912   3.284   1.356   4.747  0.0232 -0.0567  1.3105
 6005SOL     OW18913   1.362   6.539   2.085  0.3971  0.1848 -0.0743
 6005SOL    HW118914   1.308   6.623   2.085 -1.7031 -1.0446  2.0253
 6005SOL    HW218915   1.302   6.461   2.064  1.9758 -0.9769 -0.4344
 6006SOL     OW18916   6.334   1.957   3.408 -0.3755 -0.6067  0.5795
 6006SOL    HW118917   6.363   1.880   3.350  0.4885 -0.8775  1.3456
 6006SOL    HW218918   6.379   2.041   3.377  0.6434 -0.8808  1.2719
 6007SOL     OW18919   4.218   0.099   6.247 -0.1539 -0.8580  0.3031
 6007SOL    HW118920   4.272   0.110   6.330 -1.1804  1.0922  0.7666
 6007SOL    HW218921   4.140   0.162   6.249  0.2856 -0.0788 -2.4992
 6008SOL     OW18922   6.150   1.442   4.454  0.2023  0.5874  0.0697
 6008SOL    HW118923   6.214   1.429   4.529  1.2851  0.8945 -0.7734
 6008SOL    HW218924   6.105   1.355   4.432  0.7034  0.2601  0.3356
 6009SOL     OW18925   5.878   5.408   3.796  0.7355  0.6134  0.3105
 6009SOL    HW118926   5.947   5.341   3.824 -0.1062 -0.9126 -1.1001
 6009SOL    HW218927   5.853   5.393   3.700 -1.6189  1.0510  0.7812
 6010SOL     OW18928   6.192   6.157   4.914  0.0118  0.2054  0.6079
 6010SOL    HW118929   6.209   6.127   4.820  1.1601  1.0110  0.5293
 6010SOL    HW218930   6.271   6.209   4.947 -0.3848 -0.0413  2.0184
 6011SOL     OW18931   1.987   2.478   2.394 -0.0330  0.2909 -0.3050
 6011SOL    HW118932   2.048   2.556   2.409 -0.5087  0.5298  0.4794
 6011SOL    HW218933   1.999   2.411   2.467  2.3127 -1.7133 -2.3641
 6012SOL     OW18934   1.078   1.533   0.163  0.1047  0.3828 -0.6948
 6012SOL    HW118935   1.089   1.617   0.109 -3.6482  1.3827 -0.2226
 6012SOL    HW218936   1.065   1.455   0.102 -0.3382  0.8410 -1.1966
 6013SOL     OW18937   5.558   0.308   2.714 -0.3943  0.0166  0.3638
 6013SOL    HW118938   5.513   0.225   2.680  0.4062  0.2178 -1.3400
 6013SOL    HW218939   5.495   0.385   2.709 -0.1916  0.1247 -1.1736
 6014SOL     OW18940   4.107   5.485   1.686  0.1223  0.2517  0.4500
 6014SOL    HW118941   4.148   5.395   1.703  2.0688  0.9573 -0.2656
 6014SOL    HW218942   4.083   5.526   1.774  2.1876  0.3144  1.0619
 6015SOL     OW18943   2.638   3.926   1.684 -0.6754 -0.2782  0.2974
 6015SOL    HW118944   2.715   3.953   1.626 -1.6065  0.3746 -0.6837
 6015SOL    HW218945   2.583   4.007   1.705 -0.7074 -0.6165  1.5942
 6016SOL     OW18946   2.087   3.759   4.748  0.0135  0.5444  0.3401
 6016SOL    HW118947   1.992   3.730   4.733 -0.8512  2.9583  0.5600
 6016SOL    HW218948   2.087   3.854   4.782  2.6078  2.4785 -4.1733
 6017SOL     OW18949   2.657   6.206   0.028  0.1529 -0.4669  0.4583
 6017SOL    HW118950   2.609   6.127   0.066  2.2419 -0.3547  3.6434
 6017SOL    HW218951   2.606   6.289   0.047 -0.9362 -0.7613 -0.9488
 6018SOL     OW18952   2.219   1.188   5.829  0.0036 -0.3400 -0.3238
 6018SOL    HW118953   2.227   1.090   5.846  0.1810 -0.5108 -1.3404
 6018SOL    HW218954   2.285   1.216   5.759 -0.6694  0.3326 -0.7108
 6019SOL     OW18955   1.319   1.280   5.125 -0.2716 -0.3026  0.3062
 6019SOL    HW118956   1.353   1.315   5.038  0.6259  0.3301  0.8944
 6019SOL    HW218957   1.396   1.256   5.184 -0.8657 -1.8638  0.4892
 6020SOL     OW18958   0.219   4.138   4.770 -0.3746 -0.2752 -0.2990
 6020SOL    HW118959   0.133   4.115   4.815 -1.1968 -1.6091 -2.4352
 6020SOL    HW218960   0.221   4.236   4.749 -2.4016 -0.5709 -2.1971
 6021SOL     OW18961   0.002   6.560   4.791 -0.5164 -0.0415  0.5496
 6021SOL    HW118962   0.013   6.487   4.858  1.8127 -0.7132 -0.4525
 6021SOL    HW218963   0.005   6.522   4.698 -0.6485  1.1775  0.0235
 6022SOL     OW18964   4.142   3.574   3.762  0.0779  0.0231 -0.2196
 6022SOL    HW118965   4.133   3.608   3.856 -0.8659  1.5100 -0.7967
 6022SOL    HW218966   4.104   3.642   3.699  0.4557 -1.0605 -1.6665
 6023SOL     OW18967   6.216   1.122   4.781  0.0295 -0.0147  0.1626
 6023SOL    HW118968   6.209   1.045   4.846 -0.4379 -0.6948 -0.6791
 6023SOL    HW218969   6.139   1.120   4.718  0.5157  0.5939 -0.4657
 6024SOL     OW18970   0.393   5.256   6.989 -0.2642  0.4186  0.0586
 6024SOL    HW118971   0.383   5.158   6.971  0.3953  0.1234  1.1913
 6024SOL    HW218972   0.371   5.275   7.084  2.2009  0.9144  0.6082
 6025SOL     OW18973   3.148   0.675   4.508 -1.1553 -0.4194 -0.3858
 6025SOL    HW118974   3.245   0.688   4.489 -1.5632  0.0314 -2.3060
 6025SOL    HW218975   3.111   0.757   4.553 -0.3219 -1.2603  2.0158
 6026SOL     OW18976   0.850   2.210   4.513 -0.3088  0.3593 -0.2064
 6026SOL    HW118977   0.790   2.289   4.515  0.1648  0.8367 -2.4117
 6026SOL    HW218978   0.813   2.138   4.571 -3.5130  0.2862 -2.1537
 6027SOL     OW18979   2.524   2.174   0.418  0.2203 -0.5545 -0.2949
 6027SOL    HW118980   2.539   2.258   0.365  1.1756  0.0938  0.9452
 6027SOL    HW218981   2.508   2.098   0.356 -0.2469  0.4600 -1.4655
 6028SOL     OW18982   3.190   1.104   1.719 -0.3978  0.4451 -0.2612
 6028SOL    HW118983   3.252   1.050   1.777 -0.4120 -0.0535 -0.7014
 6028SOL    HW218984   3.096   1.092   1.752 -0.4469 -0.1159 -0.5863
 6029SOL     OW18985   4.310   1.697   5.586 -0.2389 -0.6397  0.0261
 6029SOL    HW118986   4.315   1.741   5.675 -1.1030  2.0072 -1.1228
 6029SOL    HW218987   4.239   1.626   5.587  0.1999 -1.0797  1.5778
 6030SOL     OW18988   5.050   6.290   1.319 -0.1712 -0.4145 -0.1193
 6030SOL    HW118989   5.027   6.193   1.317 -1.5224 -0.1012 -0.8837
 6030SOL    HW218990   4.967   6.344   1.307  0.7271  0.8173 -1.0035
 6031SOL     OW18991   3.177   2.006   6.957  0.0302 -0.1886 -0.0222
 6031SOL    HW118992   3.115   2.060   6.900  0.2354 -0.3832 -0.4364
 6031SOL    HW218993   3.229   1.943   6.899  1.4447  0.7554  0.1638
 6032SOL     OW18994   5.518   2.100   5.660  0.0956 -0.0952 -0.1702
 6032SOL    HW118995   5.481   2.192   5.651 -0.8350 -0.5775 -1.6228
 6032SOL    HW218996   5.457   2.045   5.718  0.0174 -0.1207 -0.2766
 6033SOL     OW18997   3.599   2.035   2.761  0.6408  0.3514  0.1624
 6033SOL    HW118998   3.647   2.068   2.679 -0.0269  1.5271  0.2174
 6033SOL    HW218999   3.500   2.042   2.747  0.5166  0.3708  0.9969
 6034SOL     OW19000   5.359   6.941   5.553 -0.2875  0.3443 -0.5879
 6034SOL    HW119001   5.452   6.930   5.589 -0.2201  0.7503 -0.6347
 6034SOL    HW219002   5.356   6.908   5.459 -0.2922 -0.0514 -0.4535
 6035SOL     OW19003   5.733   0.026   4.147 -0.2850  0.3584 -0.7581
 6035SOL    HW119004   5.809   0.026   4.083  1.5048  0.2513  1.2716
 6035SOL    HW219005   5.735   0.110   4.201 -0.2442 -0.6315  0.8338
 6036SOL     OW19006   1.866   4.554   6.153  0.0796 -0.0406  0.2913
 6036SOL    HW119007   1.831   4.474   6.102 -1.3043  0.9182 -0.3221
 6036SOL    HW219008   1.966   4.557   6.144  0.0651 -1.0955 -0.5891
 6037SOL     OW19009   2.077   1.654   4.242  0.0593  0.0907 -0.6527
 6037SOL    HW119010   2.035   1.730   4.290 -0.1359 -0.6533  0.3918
 6037SOL    HW219011   2.163   1.684   4.201 -0.0778  0.9014 -0.3698
 6038SOL     OW19012   5.481   0.911   2.229 -0.3164  0.2045 -0.2402
 6038SOL    HW119013   5.546   0.984   2.211 -0.0807 -0.2272 -1.1997
 6038SOL    HW219014   5.399   0.924   2.173 -0.2124 -0.3308 -0.5296
 6039SOL     OW19015   4.383   4.410   0.235 -0.1791 -0.0676 -0.5296
 6039SOL    HW119016   4.403   4.313   0.249 -0.0431 -0.1898 -1.4918
 6039SOL    HW219017   4.370   4.454   0.324 -0.0125 -0.9131 -0.0684
 6040SOL     OW19018   2.257   6.778   6.077  0.0426  0.1490  0.5325
 6040SOL    HW119019   2.239   6.824   5.990  0.2197 -0.3818  0.2110
 6040SOL    HW219020   2.184   6.713   6.096  0.6755 -0.7008  0.1158
 6041SOL     OW19021   1.789   4.728   5.369  0.2546 -0.1680 -0.1818
 6041SOL    HW119022   1.865   4.719   5.432 -1.8633  0.4353  2.6685
 6041SOL    HW219023   1.756   4.637   5.344  0.6097 -0.4180  0.2494
 6042SOL     OW19024   1.592   0.560   3.701 -0.2514 -0.3826 -0.7631
 6042SOL    HW119025   1.637   0.580   3.788 -1.1310  0.0988 -0.4081
 6042SOL    HW219026   1.576   0.461   3.694 -1.2732 -0.3034  0.1872
 6043SOL     OW19027   6.376   0.503   5.436 -0.5083 -0.0836  0.4925
 6043SOL    HW119028   6.319   0.450   5.499  0.5891 -0.2592  1.3644
 6043SOL    HW219029   6.329   0.513   5.348 -1.8316 -0.2925  1.1615
 6044SOL     OW19030   3.995   2.394   0.289 -0.0482 -0.2101  0.1615
 6044SOL    HW119031   3.932   2.356   0.222 -1.4713  1.1898  0.6379
 6044SOL    HW219032   4.089   2.378   0.260 -0.6080 -1.7625 -0.9060
 6045SOL     OW19033   5.937   6.343   5.362 -0.0019 -0.2881 -0.1960
 6045SOL    HW119034   5.841   6.371   5.349  0.4281  1.3841  0.0659
 6045SOL    HW219035   5.963   6.279   5.289 -1.6861 -1.8373  0.4742
 6046SOL     OW19036   6.272   1.715   2.938  0.0902 -0.3698 -0.4589
 6046SOL    HW119037   6.204   1.695   3.009 -0.8713  0.7446 -1.0236
 6046SOL    HW219038   6.341   1.777   2.974 -0.2892  0.0386 -0.4205
 6047SOL     OW19039   5.051   0.872   3.800  0.7261 -0.2510 -0.2930
 6047SOL    HW119040   4.987   0.932   3.848  1.6589  0.5249  0.0064
 6047SOL    HW219041   5.139   0.873   3.847  0.8546 -1.6335 -0.4569
 6048SOL     OW19042   3.829   4.973   3.788  0.6476 -0.1826  0.0129
 6048SOL    HW119043   3.753   5.012   3.840 -1.0640 -2.4817 -0.5874
 6048SOL    HW219044   3.916   5.008   3.824 -0.6085  1.7188  1.4215
 6049SOL     OW19045   4.232   0.914   2.219  0.2574 -0.0120  0.1260
 6049SOL    HW119046   4.149   0.874   2.258 -0.4445  1.3205  0.0678
 6049SOL    HW219047   4.312   0.880   2.269 -0.2816 -1.5478 -0.0169
 6050SOL     OW19048   6.948   5.652   5.688 -0.2766 -0.7107  0.0197
 6050SOL    HW119049   7.003   5.636   5.606  0.7157  0.6821  0.3753
 6050SOL    HW219050   7.007   5.657   5.768 -0.7813  1.4780  0.3277
 6051SOL     OW19051   5.613   1.091   2.930 -0.0167  0.0538  0.3372
 6051SOL    HW119052   5.601   0.992   2.930  0.4982 -0.0108  0.9177
 6051SOL    HW219053   5.538   1.133   2.879  0.2121 -0.6818 -0.6537
 6052SOL     OW19054   2.399   3.037   1.652 -0.2575 -0.8937  0.3119
 6052SOL    HW119055   2.418   3.126   1.611  0.3114 -0.8701  0.6130
 6052SOL    HW219056   2.485   2.990   1.670 -0.5854 -2.2185 -1.3686
 6053SOL     OW19057   0.327   2.361   5.434  0.1865 -0.1656  0.2377
 6053SOL    HW119058   0.364   2.435   5.377  0.2845 -0.4204 -0.0287
 6053SOL    HW219059   0.227   2.365   5.431  0.1903 -0.0261  0.2484
 6054SOL     OW19060   1.476   3.725   6.495  0.4332  0.0562  0.0357
 6054SOL    HW119061   1.545   3.787   6.458  0.6707 -0.0723  0.2638
 6054SOL    HW219062   1.473   3.641   6.440  0.8026 -0.1447  0.3166
 6055SOL     OW19063   6.370   1.068   4.452  0.5123  0.3463 -0.5368
 6055SOL    HW119064   6.415   0.999   4.396  0.1452  0.5149 -1.0420
 6055SOL    HW219065   6.271   1.067   4.435 -0.5301 -3.1883  3.8416
 6056SOL     OW19066   1.664   3.514   1.916  0.1707 -0.4708  0.4891
 6056SOL    HW119067   1.711   3.426   1.926 -0.5094 -0.5911  3.4619
 6056SOL    HW219068   1.605   3.530   1.995 -2.7566  0.9344 -1.7902
 6057SOL     OW19069   5.580   2.928   5.407 -0.3959  0.0200 -0.0028
 6057SOL    HW119070   5.537   2.847   5.367 -0.7821 -0.4217  1.2309
 6057SOL    HW219071   5.537   2.947   5.496 -0.5233  1.7662 -0.4077
 6058SOL     OW19072   5.144   0.589   6.996  0.1511 -0.4862 -0.2743
 6058SOL    HW119073   5.084   0.515   6.966 -0.7269 -0.0682  0.4187
 6058SOL    HW219074   5.200   0.558   7.073  0.2829 -0.6382 -0.4301
 6059SOL     OW19075   6.296   4.957   0.231 -0.0208 -0.1900 -0.7626
 6059SOL    HW119076   6.235   4.967   0.309 -0.1852  0.6209 -0.9861
 6059SOL    HW219077   6.242   4.949   0.147  0.1731  0.2175 -0.9276
 6060SOL     OW19078   4.429   4.847   5.834  0.0913 -0.1106  1.1839
 6060SOL    HW119079   4.451   4.881   5.743  1.1787  0.3338  1.5931
 6060SOL    HW219080   4.418   4.748   5.831  0.5698 -0.1526  0.6458
 6061SOL     OW19081   1.473   5.346   3.424 -0.0088  0.1506 -0.2864
 6061SOL    HW119082   1.545   5.364   3.357  0.2685 -0.9577 -0.2964
 6061SOL    HW219083   1.512   5.308   3.507 -0.6217 -0.9615 -0.4883
 6062SOL     OW19084   0.387   4.283   4.991  1.2998 -0.0250  0.2784
 6062SOL    HW119085   0.352   4.376   5.003  1.9930  0.1819  0.7274
 6062SOL    HW219086   0.358   4.226   5.068 -0.0271 -0.4795 -0.5121
 6063SOL     OW19087   0.426   2.482   0.743  0.1715 -0.6317  0.7509
 6063SOL    HW119088   0.393   2.563   0.791  1.1655  0.4561 -0.3503
 6063SOL    HW219089   0.484   2.428   0.804  1.4840  0.7675  0.7812
 6064SOL     OW19090   4.963   0.668   3.977 -0.0505 -0.2161 -0.0042
 6064SOL    HW119091   4.950   0.700   4.071 -1.8015 -0.4106 -0.1533
 6064SOL    HW219092   5.032   0.724   3.932  1.9825 -1.0827  1.8411
 6065SOL     OW19093   4.935   5.947   4.949 -0.4576 -0.4934 -0.2622
 6065SOL    HW119094   5.003   5.878   4.925  0.6646  0.2027  0.8026
 6065SOL    HW219095   4.870   5.909   5.015 -0.2295 -0.7225 -0.1682
 6066SOL     OW19096   5.209   0.609   4.539  0.3658 -0.1015 -0.3972
 6066SOL    HW119097   5.110   0.615   4.551  0.2454 -3.9167  2.6408
 6066SOL    HW219098   5.255   0.643   4.621  1.3543 -0.9927 -0.5511
 6067SOL     OW19099   1.267   0.141   1.771  0.3757  0.8684 -0.1129
 6067SOL    HW119100   1.332   0.075   1.733  0.6419  2.8376 -3.5572
 6067SOL    HW219101   1.176   0.098   1.777  1.0892 -0.6257  0.5515
 6068SOL     OW19102   6.176   3.885   6.162 -0.0973 -0.8022  0.5686
 6068SOL    HW119103   6.133   3.795   6.169 -0.6703 -0.4757  1.3335
 6068SOL    HW219104   6.110   3.956   6.185  0.3039 -0.1597 -0.1804
 6069SOL     OW19105   0.633   1.824   3.942 -0.0393 -0.1392 -0.2455
 6069SOL    HW119106   0.723   1.804   3.981  0.8943  1.5981 -1.3661
 6069SOL    HW219107   0.638   1.817   3.842 -0.5381  1.9296 -0.4678
 6070SOL     OW19108   6.905   6.091   5.875  0.3721  0.7224  0.1625
 6070SOL    HW119109   6.908   6.081   5.975  3.3243  2.4720  0.3554
 6070SOL    HW219110   6.927   6.185   5.850 -0.3580  0.3326 -2.1846
 6071SOL     OW19111   5.195   2.210   1.960 -0.5311  0.3376 -0.1025
 6071SOL    HW119112   5.247   2.154   1.896  0.4212  2.3782 -1.2367
 6071SOL    HW219113   5.102   2.221   1.926 -0.3627  0.4471 -0.5374
 6072SOL     OW19114   1.876   0.624   2.767 -0.4014 -0.5807 -0.8081
 6072SOL    HW119115   1.829   0.617   2.855  0.2813  1.8897 -0.1730
 6072SOL    HW219116   1.939   0.548   2.756  1.3226  0.3226  2.0080
 6073SOL     OW19117   3.839   5.129   4.565 -0.2950  0.2052 -0.6573
 6073SOL    HW119118   3.819   5.068   4.488  1.7113 -0.0746 -1.0218
 6073SOL    HW219119   3.764   5.194   4.577 -1.8719 -1.4395 -1.1234
 6074SOL     OW19120   3.783   3.397   0.066 -0.0394 -0.2108 -0.3734
 6074SOL    HW119121   3.808   3.338   0.143 -0.5200  0.1446  0.0577
 6074SOL    HW219122   3.695   3.369   0.028 -0.3351  0.3032 -0.0824
 6075SOL     OW19123   5.565   1.121   1.348 -0.0316  0.0772  0.2775
 6075SOL    HW119124   5.627   1.048   1.323  0.6535  0.2824  1.3006
 6075SOL    HW219125   5.551   1.120   1.447 -0.4517  0.9835  0.2401
 6076SOL     OW19126   1.123   5.908   4.789  0.4333 -0.0918 -0.3845
 6076SOL    HW119127   1.047   5.871   4.736 -0.4863  1.7054 -0.4118
 6076SOL    HW219128   1.088   5.944   4.876  1.1213  1.3165 -0.6632
 6077SOL     OW19129   5.984   4.304   1.401 -0.4263  0.0530 -0.0226
 6077SOL    HW119130   5.908   4.299   1.466  1.1939 -2.0735  1.9046
 6077SOL    HW219131   5.968   4.241   1.326 -0.0902 -1.3171  1.0132
 6078SOL     OW19132   2.282   2.142   4.486  0.3819  0.2017 -0.5414
 6078SOL    HW119133   2.268   2.201   4.407 -3.5241  0.6470  0.2792
 6078SOL    HW219134   2.276   2.196   4.570 -1.3999 -0.9956  0.1729
 6079SOL     OW19135   1.077   0.763   6.167 -0.0261 -0.7707 -0.7337
 6079SOL    HW119136   1.007   0.784   6.236 -0.2159 -0.7248 -0.9370
 6079SOL    HW219137   1.034   0.757   6.077  0.4294  0.6719 -1.0821
 6080SOL     OW19138   6.630   4.620   0.011  0.3939  0.4318  0.2015
 6080SOL    HW119139   6.542   4.663   0.033  1.0683  1.8087  0.3051
 6080SOL    HW219140   6.704   4.669   0.058  1.2587 -0.4767 -0.1760
 6081SOL     OW19141   2.034   2.747   3.812  0.7736  0.4012  0.0785
 6081SOL    HW119142   2.094   2.736   3.891  0.3457 -0.3159  0.3186
 6081SOL    HW219143   1.989   2.660   3.792 -0.4770  0.9985  0.1548
 6082SOL     OW19144   2.865   4.861   3.663  0.3106  0.0978 -0.1655
 6082SOL    HW119145   2.865   4.918   3.581 -1.3227  0.3304 -0.0289
 6082SOL    HW219146   2.952   4.813   3.670  0.8285  0.7902 -1.5276
 6083SOL     OW19147   6.688   4.354   2.990 -0.6236  0.0413  0.1864
 6083SOL    HW119148   6.781   4.376   3.020 -0.6525  2.0187 -0.9754
 6083SOL    HW219149   6.624   4.422   3.026 -1.5810 -1.1330  0.7288
 6084SOL     OW19150   2.979   0.508   6.702  0.0174  0.7455 -0.0049
 6084SOL    HW119151   2.944   0.415   6.701 -0.6181  0.9799 -0.2686
 6084SOL    HW219152   3.004   0.536   6.609  0.6400  0.6820  0.1399
 6085SOL     OW19153   3.220   3.598   0.317  0.4741 -0.3693  0.4218
 6085SOL    HW119154   3.247   3.574   0.410  1.8918 -1.1330 -0.1511
 6085SOL    HW219155   3.208   3.515   0.263  1.6605  0.0716 -0.5886
 6086SOL     OW19156   2.118   3.794   6.625 -0.1884 -0.1725  0.3632
 6086SOL    HW119157   2.079   3.848   6.699 -1.6746  0.9823 -1.1829
 6086SOL    HW219158   2.066   3.709   6.614 -0.5887  0.1086  0.0449
 6087SOL     OW19159   5.421   2.127   4.113  0.0961 -0.1030  0.0420
 6087SOL    HW119160   5.464   2.213   4.088  2.6529 -0.8699  1.4572
 6087SOL    HW219161   5.482   2.051   4.093 -0.5145 -1.2567  2.1906
 6088SOL     OW19162   4.548   1.276   1.588 -0.0635  0.0951 -0.1570
 6088SOL    HW119163   4.527   1.215   1.665  0.5603  1.5398  1.2040
 6088SOL    HW219164   4.574   1.366   1.623  1.0613  0.5495 -2.0459
 6089SOL     OW19165   5.010   3.036   3.526  0.4685 -0.4126 -0.3160
 6089SOL    HW119166   5.102   3.073   3.520  0.5451 -0.6597 -0.7313
 6089SOL    HW219167   4.999   2.987   3.612  1.2861 -1.8315 -0.9730
 6090SOL     OW19168   6.558   1.316   6.733 -0.5326  0.1663  0.0068
 6090SOL    HW119169   6.609   1.288   6.652  1.5342  1.4163  0.7828
 6090SOL    HW219170   6.556   1.416   6.738 -1.3185  0.1119  1.0648
 6091SOL     OW19171   3.035   2.204   1.253  0.4462  0.4088 -0.0426
 6091SOL    HW119172   3.001   2.111   1.241 -0.7824  1.1039 -2.5519
 6091SOL    HW219173   3.072   2.214   1.346  0.2872 -2.4337  0.4166
 6092SOL     OW19174   0.438   2.933   6.664 -0.0488  0.0713 -0.2524
 6092SOL    HW119175   0.448   2.988   6.580 -0.7786  0.0822 -0.3361
 6092SOL    HW219176   0.524   2.937   6.716  0.2913  0.3591 -0.8193
 6093SOL     OW19177   4.521   6.053   6.563  1.1804 -0.6839  0.1645
 6093SOL    HW119178   4.531   6.152   6.568  0.6160 -0.6212  0.0743
 6093SOL    HW219179   4.529   6.024   6.467  0.1254 -0.5870  0.0373
 6094SOL     OW19180   6.473   0.699   4.493  0.9742 -0.4492 -0.3858
 6094SOL    HW119181   6.555   0.651   4.523  0.0465 -0.2379  2.8072
 6094SOL    HW219182   6.495   0.753   4.411  3.0701 -2.9765 -1.6334
 6095SOL     OW19183   6.041   0.313   6.690 -0.2993 -0.0708  0.4152
 6095SOL    HW119184   5.967   0.317   6.624 -1.5560  1.6989  1.8137
 6095SOL    HW219185   6.109   0.384   6.669 -0.1290 -0.2440  0.3794
 6096SOL     OW19186   5.016   3.070   7.000 -0.1921  0.2789 -0.1639
 6096SOL    HW119187   5.034   3.140   7.069 -0.8463 -0.0847  0.3891
 6096SOL    HW219188   5.076   3.084   6.922  1.1118  0.2425  0.7942
 6097SOL     OW19189   2.533   6.410   1.922  0.4223 -0.0708  0.0644
 6097SOL    HW119190   2.605   6.478   1.928  0.6898 -0.3458 -0.0095
 6097SOL    HW219191   2.488   6.416   1.833 -0.1841  0.6347  0.4076
 6098SOL     OW19192   5.445   2.046   2.201  0.2029  0.0817 -0.3318
 6098SOL    HW119193   5.540   2.075   2.188  0.6081 -1.3000 -0.6245
 6098SOL    HW219194   5.425   1.971   2.139  0.4955 -3.0630  3.0082
 6099SOL     OW19195   2.897   3.444   4.753 -0.6571  0.3291  0.2407
 6099SOL    HW119196   2.908   3.351   4.788 -0.9994  0.0945 -0.2538
 6099SOL    HW219197   2.822   3.489   4.802  0.3888  0.8394  1.4356
 6100SOL     OW19198   2.948   5.843   0.046 -0.6449 -0.3809 -0.7265
 6100SOL    HW119199   3.023   5.885  -0.004 -0.6316  1.8369  0.9737
 6100SOL    HW219200   2.867   5.901   0.040 -0.5052  0.2618  2.0915
 6101SOL     OW19201   3.435   0.973   2.481  0.4793 -0.4250  0.2397
 6101SOL    HW119202   3.381   1.052   2.454  1.2066 -0.7092 -2.2680
 6101SOL    HW219203   3.526   1.003   2.509  0.3093 -0.2731  0.6354
 6102SOL     OW19204   2.897   6.321   4.752 -0.8025 -0.2909 -0.1961
 6102SOL    HW119205   2.915   6.230   4.715 -1.4748 -0.7264  0.4934
 6102SOL    HW219206   2.906   6.318   4.852 -2.5125 -0.0370 -0.0107
 6103SOL     OW19207   2.454   5.061   6.643  0.3114  0.4048 -0.2496
 6103SOL    HW119208   2.449   5.120   6.563 -1.2341  0.5694 -0.0462
 6103SOL    HW219209   2.362   5.043   6.678  0.9750  0.6305  1.7157
 6104SOL     OW19210   5.552   1.994   4.784 -0.4033 -0.1451 -0.3271
 6104SOL    HW119211   5.506   2.082   4.795  0.3016 -0.0234  2.5859
 6104SOL    HW219212   5.511   1.944   4.707 -3.3379  1.1954  0.2177
 6105SOL     OW19213   5.917   3.494   3.722 -0.5883  0.1265  0.2024
 6105SOL    HW119214   5.855   3.495   3.800 -0.8255 -1.0014  0.0382
 6105SOL    HW219215   6.011   3.478   3.754 -0.3935  1.5201  0.4180
 6106SOL     OW19216   6.476   6.279   1.733 -0.4475 -0.4033  0.5808
 6106SOL    HW119217   6.427   6.333   1.802 -0.1314 -1.9278  2.0626
 6106SOL    HW219218   6.572   6.307   1.732 -0.3969 -0.5522  0.9621
 6107SOL     OW19219   5.387   4.103   6.269  0.0556 -0.3135 -0.3136
 6107SOL    HW119220   5.462   4.148   6.317 -0.1032 -0.3001 -0.0742
 6107SOL    HW219221   5.421   4.060   6.185  0.2207  0.1993 -0.5125
 6108SOL     OW19222   6.770   3.689   1.948  0.4415 -0.2089 -0.2167
 6108SOL    HW119223   6.869   3.688   1.938  0.2883 -0.0908 -2.3350
 6108SOL    HW219224   6.735   3.596   1.954  0.5796 -0.3275 -1.1224
 6109SOL     OW19225   3.489   0.474   2.936  0.3875 -0.1729  0.0484
 6109SOL    HW119226   3.538   0.530   3.003 -0.6122 -0.0925  0.7250
 6109SOL    HW219227   3.434   0.406   2.983 -0.7422  0.2217 -0.6578
 6110SOL     OW19228   0.468   6.502   0.216 -0.5151 -0.3140  0.9765
 6110SOL    HW119229   0.464   6.402   0.212 -0.7240 -0.2571 -1.2195
 6110SOL    HW219230   0.422   6.541   0.136  1.3691  1.5078  0.6985
 6111SOL     OW19231   1.087   3.520   0.811  0.1105 -0.1138 -0.7084
 6111SOL    HW119232   1.051   3.471   0.731 -0.4579  0.8579 -1.0578
 6111SOL    HW219233   1.022   3.513   0.887 -0.6698  1.2905 -1.2107
 6112SOL     OW19234   1.778   2.877   1.995  0.9069  0.0433 -0.6971
 6112SOL    HW119235   1.841   2.800   1.987 -0.2735 -0.9716 -0.4773
 6112SOL    HW219236   1.822   2.960   1.960  1.4884 -1.1169 -2.8729
 6113SOL     OW19237   4.887   4.368   3.479  0.0856 -0.0281  0.2063
 6113SOL    HW119238   4.974   4.332   3.514  0.0970 -1.3470 -1.1042
 6113SOL    HW219239   4.864   4.451   3.529  0.5719 -1.2757  2.6587
 6114SOL     OW19240   3.895   6.291   3.298 -0.3851 -0.6064  0.0589
 6114SOL    HW119241   3.982   6.281   3.346 -0.1700  0.5979 -0.0655
 6114SOL    HW219242   3.853   6.378   3.322 -1.3065 -0.9420 -0.2987
 6115SOL     OW19243   4.235   0.702   2.435  0.0665  0.0029  0.4109
 6115SOL    HW119244   4.178   0.674   2.358  0.1837 -0.0658  0.3496
 6115SOL    HW219245   4.328   0.719   2.403  0.1793 -0.2832  0.5832
 6116SOL     OW19246   4.222   0.768   5.973 -0.0018 -0.3880 -0.0314
 6116SOL    HW119247   4.225   0.867   5.981 -0.0080 -0.5001  1.5853
 6116SOL    HW219248   4.291   0.738   5.907  0.5306  0.6276  0.0457
 6117SOL     OW19249   2.047   6.712   0.054  0.3885 -0.4287 -0.6220
 6117SOL    HW119250   2.008   6.787   0.107  0.8321 -2.3196  2.6454
 6117SOL    HW219251   2.138   6.738   0.022  1.1442  0.0340  1.6977
 6118SOL     OW19252   3.684   1.726   5.457 -0.5760  0.0407 -0.1307
 6118SOL    HW119253   3.739   1.650   5.423  0.5475 -0.1661  1.9707
 6118SOL    HW219254   3.708   1.745   5.552 -3.0814  0.9840  0.4001
 6119SOL     OW19255   0.533   6.706   2.099 -0.2452 -0.0879  0.2697
 6119SOL    HW119256   0.517   6.696   2.197 -0.0372  2.1712  0.5964
 6119SOL    HW219257   0.446   6.722   2.052 -0.1211  1.4547  0.5047
 6120SOL     OW19258   6.503   5.137   0.244 -0.3833 -0.5147 -0.1014
 6120SOL    HW119259   6.449   5.216   0.274 -1.1263  0.1574 -2.9307
 6120SOL    HW219260   6.442   5.058   0.232  0.3208 -1.5810  2.5104
 6121SOL     OW19261   3.143   4.527   1.183 -0.5460 -0.5598  0.0796
 6121SOL    HW119262   3.242   4.537   1.197 -0.7150  1.1434  0.2917
 6121SOL    HW219263   3.096   4.607   1.220 -2.0466 -1.4787  0.2423
 6122SOL     OW19264   6.626   1.288   1.275 -0.2476 -0.1426  0.0019
 6122SOL    HW119265   6.596   1.323   1.186 -0.2418  1.5345  0.6232
 6122SOL    HW219266   6.545   1.261   1.328 -0.3711  0.3693  0.0813
 6123SOL     OW19267   1.524   4.284   3.640 -0.1928  0.2584 -0.0314
 6123SOL    HW119268   1.571   4.197   3.626  0.5102  0.4450  1.0200
 6123SOL    HW219269   1.452   4.273   3.708  0.4164  0.6515  0.6949
 6124SOL     OW19270   4.688   2.007   0.418  0.0235 -0.0810 -0.8206
 6124SOL    HW119271   4.590   1.994   0.402  0.0778  0.9989 -2.2362
 6124SOL    HW219272   4.734   2.019   0.330  1.2620  0.5774 -0.1076
 6125SOL     OW19273   6.469   6.095   3.238  0.1651  0.0450 -0.5006
 6125SOL    HW119274   6.468   6.074   3.140 -1.0973  0.4529 -0.6020
 6125SOL    HW219275   6.378   6.076   3.277  0.8735 -0.8856  0.7716
 6126SOL     OW19276   1.623   0.675   1.044  0.0119 -0.2737 -0.5164
 6126SOL    HW119277   1.538   0.631   1.071 -0.1399 -0.1299 -0.7587
 6126SOL    HW219278   1.652   0.739   1.116  1.0558 -1.8857  0.5764
 6127SOL     OW19279   3.964   5.892   4.159  0.4072 -0.3453  0.7567
 6127SOL    HW119280   3.972   5.890   4.259 -1.4628 -0.6961  0.9318
 6127SOL    HW219281   3.965   5.986   4.127  0.0834 -0.1877  1.2006
 6128SOL     OW19282   0.819   4.197   5.153  0.7184  0.3042 -0.2409
 6128SOL    HW119283   0.723   4.220   5.170  0.3486 -1.1439 -0.2115
 6128SOL    HW219284   0.877   4.274   5.180 -0.3062  0.5508  1.4177
 6129SOL     OW19285   4.919   3.997   0.230  0.1947 -0.2383 -0.8286
 6129SOL    HW119286   4.992   3.929   0.223  0.5463  0.0247  0.0967
 6129SOL    HW219287   4.912   4.048   0.144 -0.2445 -1.5996 -1.6238
 6130SOL     OW19288   4.668   5.986   0.652 -0.0690 -0.4331 -0.3574
 6130SOL    HW119289   4.716   5.934   0.582 -0.4275  0.1084 -1.0248
 6130SOL    HW219290   4.573   6.001   0.623  0.3149  1.5434 -0.7267
 6131SOL     OW19291   4.983   3.374   3.228  0.5525  0.2591  0.4122
 6131SOL    HW119292   4.936   3.379   3.316 -1.2409  0.0124 -0.4898
 6131SOL    HW219293   5.075   3.411   3.238  0.9048 -1.0062  2.7020
 6132SOL     OW19294   5.658   6.526   6.478  0.2126  0.3719 -0.4112
 6132SOL    HW119295   5.724   6.562   6.544 -0.0063 -0.3831  0.2456
 6132SOL    HW219296   5.591   6.597   6.455 -0.3915  0.3465  1.0845
 6133SOL     OW19297   2.538   4.974   4.780  0.2381  0.3377  0.3179
 6133SOL    HW119298   2.570   5.019   4.697  0.2248 -1.8571 -0.9455
 6133SOL    HW219299   2.608   4.909   4.811 -0.6184 -0.3519  0.8286
 6134SOL     OW19300   2.859   0.249   6.688  0.2199  0.3467  0.0986
 6134SOL    HW119301   2.909   0.226   6.605  1.3375 -0.4902  0.9772
 6134SOL    HW219302   2.761   0.243   6.670  0.3773  1.9083 -1.6283
 6135SOL     OW19303   4.873   1.036   3.630  0.3112 -0.8365 -0.0839
 6135SOL    HW119304   4.950   1.078   3.679  0.5408 -0.9365 -0.3606
 6135SOL    HW219305   4.882   1.052   3.532  0.3490 -1.4439 -0.1835
 6136SOL     OW19306   3.685   4.835   6.940 -0.0709 -0.3582 -0.3100
 6136SOL    HW119307   3.686   4.764   7.011  0.7149 -0.3387 -0.2931
 6136SOL    HW219308   3.775   4.841   6.898 -0.1985  0.4822 -0.4737
 6137SOL     OW19309   1.461   2.979   2.116 -0.6682 -0.4334  0.4394
 6137SOL    HW119310   1.527   3.051   2.138 -1.3665  0.2660  0.3110
 6137SOL    HW219311   1.498   2.920   2.045 -0.1486 -0.1089  0.4342
 6138SOL     OW19312   3.259   3.873   0.363 -0.3879 -0.2331 -0.0194
 6138SOL    HW119313   3.251   3.773   0.360 -1.2547 -0.1365 -1.4251
 6138SOL    HW219314   3.301   3.900   0.450  4.3308 -2.1179 -1.3937
 6139SOL     OW19315   2.076   4.190   0.401 -0.2273 -0.2652 -0.0846
 6139SOL    HW119316   2.011   4.226   0.468  0.0186  0.0363 -0.0088
 6139SOL    HW219317   2.105   4.264   0.340  2.4537  0.3482  1.8033
 6140SOL     OW19318   4.546   1.946   3.862  0.4458 -0.5807  0.3741
 6140SOL    HW119319   4.588   2.011   3.799 -0.4104 -1.1051 -0.7596
 6140SOL    HW219320   4.571   1.853   3.837 -1.6668 -0.9459 -0.6087
 6141SOL     OW19321   1.969   0.113   0.085 -0.2483  0.5186 -0.4465
 6141SOL    HW119322   1.971   0.186   0.153  0.6977 -0.5931  0.7520
 6141SOL    HW219323   1.919   0.035   0.121 -0.7567  0.3426 -1.4974
 6142SOL     OW19324   0.417   6.997   6.141  0.5368  0.0154 -0.1833
 6142SOL    HW119325   0.320   6.985   6.162  0.4083  0.7529 -0.3351
 6142SOL    HW219326   0.430   7.005   6.043  0.6462  0.8232 -0.1054
 6143SOL     OW19327   3.873   0.269   6.004 -0.6929  0.7425 -0.5959
 6143SOL    HW119328   3.792   0.322   5.979  0.5581  2.3227 -1.4654
 6143SOL    HW219329   3.890   0.200   5.934 -0.7855  0.9819 -0.8554
 6144SOL     OW19330   1.279   1.639   4.027  0.1050  0.3599  0.1304
 6144SOL    HW119331   1.369   1.613   3.994 -0.0158  0.5259 -0.3322
 6144SOL    HW219332   1.248   1.574   4.096  1.7872  1.8112  2.4116
 6145SOL     OW19333   3.767   0.326   4.120  0.4097 -0.3593 -0.0233
 6145SOL    HW119334   3.859   0.290   4.130  1.0465  0.8990 -1.0045
 6145SOL    HW219335   3.729   0.347   4.210  2.0425  1.3577  0.3150
 6146SOL     OW19336   4.408   2.008   2.647  0.0393 -0.4080 -0.1077
 6146SOL    HW119337   4.341   2.003   2.573 -0.3708 -0.1814  0.2459
 6146SOL    HW219338   4.417   2.102   2.679 -1.8989 -0.8718  2.0312
 6147SOL     OW19339   4.820   6.823   2.931 -0.0310  0.3257 -0.2608
 6147SOL    HW119340   4.738   6.766   2.933  1.5352 -2.1344 -0.5917
 6147SOL    HW219341   4.844   6.851   3.023 -0.1794 -0.6569  0.0921
 6148SOL     OW19342   3.909   6.276   5.009 -0.0391  0.0279  0.7666
 6148SOL    HW119343   3.892   6.332   4.928 -1.0526  1.6938  2.0566
 6148SOL    HW219344   4.007   6.269   5.026  0.1795 -0.3549 -0.5895
 6149SOL     OW19345   4.444   4.898   0.219 -0.5263  0.2913 -0.5211
 6149SOL    HW119346   4.467   4.962   0.146  1.8304  0.0623 -0.0566
 6149SOL    HW219347   4.431   4.948   0.305  1.5492  0.2119 -0.1065
 6150SOL     OW19348   5.305   4.915   4.029  0.1159 -0.5898 -0.6084
 6150SOL    HW119349   5.262   4.853   3.964  0.7469  0.7642 -2.3926
 6150SOL    HW219350   5.356   4.985   3.980  0.7999  0.3808  1.3686
 6151SOL     OW19351   3.147   0.860   5.714  0.6279 -0.0218 -0.0079
 6151SOL    HW119352   3.179   0.781   5.661  0.3994 -1.0942  1.3912
 6151SOL    HW219353   3.219   0.930   5.716  0.7585 -0.0756 -1.4326
 6152SOL     OW19354   3.949   0.439   0.827  0.1271  0.8987 -0.2984
 6152SOL    HW119355   3.988   0.355   0.790  0.3029  1.5000 -1.5105
 6152SOL    HW219356   3.975   0.517   0.770  0.5227  1.8949  1.1696
 6153SOL     OW19357   0.276   1.627   4.802 -0.2898  0.4234  0.0465
 6153SOL    HW119358   0.312   1.537   4.779 -2.0348 -0.3549  0.1919
 6153SOL    HW219359   0.310   1.694   4.736  0.5693 -0.4264 -0.4106
 6154SOL     OW19360   2.504   6.743   3.433 -0.6734  0.4603 -0.5790
 6154SOL    HW119361   2.452   6.700   3.507  0.2735  1.7603  0.8841
 6154SOL    HW219362   2.562   6.674   3.389  1.4133  0.2583  2.2238
 6155SOL     OW19363   3.612   3.593   3.399 -0.1345 -0.0711 -0.4041
 6155SOL    HW119364   3.672   3.620   3.475 -1.4275 -0.1069  0.6806
 6155SOL    HW219365   3.610   3.494   3.392  0.1005 -0.0638 -0.5884
 6156SOL     OW19366   1.046   5.164   4.677  0.3209 -0.2047  0.4787
 6156SOL    HW119367   1.079   5.253   4.647  0.0875 -0.2024  0.2315
 6156SOL    HW219368   0.947   5.168   4.691  0.0965 -0.8003 -0.8642
 6157SOL     OW19369   0.505   6.427   1.699 -0.7683  0.4616 -0.0645
 6157SOL    HW119370   0.520   6.424   1.798  1.5459 -0.7041 -0.3720
 6157SOL    HW219371   0.562   6.499   1.659 -1.5862  0.8346 -0.5725
 6158SOL     OW19372   1.629   0.086   0.210  0.5836  0.2145 -0.2975
 6158SOL    HW119373   1.656   0.028   0.287 -0.6503  0.7044  0.5315
 6158SOL    HW219374   1.550   0.142   0.236  0.5062  0.8192 -1.7336
 6159SOL     OW19375   2.434   1.374   3.251  0.5575 -0.0204 -0.4335
 6159SOL    HW119376   2.443   1.460   3.302  2.9451 -0.2301 -0.4203
 6159SOL    HW219377   2.346   1.332   3.274 -1.0077  2.6896 -0.9343
 6160SOL     OW19378   2.246   6.218   3.858 -0.7861  0.3418  0.6522
 6160SOL    HW119379   2.320   6.223   3.791 -1.1414  1.7280  0.3358
 6160SOL    HW219380   2.284   6.222   3.950 -0.4785  1.6616  0.4894
 6161SOL     OW19381   3.736   4.516   0.586 -0.7309  0.0067  0.5820
 6161SOL    HW119382   3.771   4.459   0.660 -2.5220 -1.4457  0.3823
 6161SOL    HW219383   3.776   4.487   0.499 -0.6981 -0.1095  0.6361
 6162SOL     OW19384   4.446   4.785   2.891 -0.1349  0.1065  0.6937
 6162SOL    HW119385   4.469   4.836   2.974 -1.0149  1.5099  0.1096
 6162SOL    HW219386   4.449   4.687   2.911  1.8878  0.3240  1.7724
 6163SOL     OW19387   3.105   3.927   3.248  0.5601  0.2912 -0.2322
 6163SOL    HW119388   3.125   3.967   3.337 -0.7855  0.5397 -0.0237
 6163SOL    HW219389   3.151   3.980   3.177  1.6820  0.0646  0.2995
 6164SOL     OW19390   3.670   4.798   0.516  0.5784  0.2120  0.2998
 6164SOL    HW119391   3.655   4.787   0.418 -1.7668 -1.4729  0.7735
 6164SOL    HW219392   3.683   4.708   0.558 -1.0518  0.6529  1.8722
 6165SOL     OW19393   0.815   3.648   6.167 -0.1041 -0.5010  0.6246
 6165SOL    HW119394   0.731   3.701   6.181 -0.4176  0.3846 -3.2915
 6165SOL    HW219395   0.894   3.709   6.174  0.0407 -0.7986  1.7757
 6166SOL     OW19396   6.716   1.177   6.544  0.2456  0.0597  0.1724
 6166SOL    HW119397   6.790   1.116   6.515  0.2507 -0.4810  1.2653
 6166SOL    HW219398   6.630   1.147   6.505  0.5785  0.6421 -1.0423
 6167SOL     OW19399   3.988   3.870   1.442  0.5396 -0.1707  0.0751
 6167SOL    HW119400   4.029   3.942   1.386 -0.2744  1.5850  1.6507
 6167SOL    HW219401   3.993   3.895   1.538 -0.6871 -1.7519  0.5936
 6168SOL     OW19402   0.663   1.274   5.226 -0.9120  0.5103 -0.0830
 6168SOL    HW119403   0.733   1.204   5.241 -0.4047  0.0848 -3.5683
 6168SOL    HW219404   0.706   1.359   5.196 -1.7775  0.8616 -0.3733
 6169SOL     OW19405   3.550   1.980   5.652  0.0240  0.3712 -0.7237
 6169SOL    HW119406   3.452   1.968   5.639  0.1761 -2.9810  0.1793
 6169SOL    HW219407   3.591   2.013   5.567 -1.4407 -1.8470 -2.4303
 6170SOL     OW19408   3.897   4.234   0.590 -0.4135 -0.0386 -0.2528
 6170SOL    HW119409   3.887   4.290   0.673  0.7493  1.7109 -1.2440
 6170SOL    HW219410   3.992   4.208   0.579 -0.5040  0.0267 -1.2222
 6171SOL     OW19411   4.014   3.880   5.952  0.1116  0.1023  0.9333
 6171SOL    HW119412   4.044   3.865   5.858  0.5752 -1.1732  1.2633
 6171SOL    HW219413   4.029   3.797   6.006 -1.0152  0.5048  1.9148
 6172SOL     OW19414   2.625   1.922   5.772  0.7448 -0.0974  0.6629
 6172SOL    HW119415   2.657   1.858   5.843  1.2355 -0.9116 -0.2661
 6172SOL    HW219416   2.702   1.976   5.739  1.1537 -1.7485 -1.2654
 6173SOL     OW19417   3.429   6.859   3.342 -0.3568 -0.5366 -0.6134
 6173SOL    HW119418   3.399   6.769   3.310 -1.6161  0.1066 -1.2890
 6173SOL    HW219419   3.522   6.876   3.310 -0.6136 -1.0272 -1.6547
 6174SOL     OW19420   1.431   2.208   5.349 -0.3416 -0.0502  0.5000
 6174SOL    HW119421   1.441   2.115   5.386  1.2973  1.0063  3.0160
 6174SOL    HW219422   1.335   2.227   5.332 -0.7061 -2.2409 -0.2846
 6175SOL     OW19423   2.149   4.168   4.643 -0.4889 -0.1678 -0.1585
 6175SOL    HW119424   2.196   4.159   4.555 -1.5902  2.2813 -1.0763
 6175SOL    HW219425   2.104   4.257   4.649  0.9329  0.5273  3.5867
 6176SOL     OW19426   1.870   2.106   5.426 -0.0747  0.1539  0.6688
 6176SOL    HW119427   1.928   2.025   5.434 -0.7188 -0.2960  0.8672
 6176SOL    HW219428   1.801   2.091   5.355  0.4101  0.9118  0.0246
 6177SOL     OW19429   3.101   6.167   0.838  0.6159  0.0639  0.5782
 6177SOL    HW119430   3.136   6.248   0.886  0.3783  1.3745 -1.3560
 6177SOL    HW219431   3.002   6.164   0.847  0.6274 -0.0438  0.6756
 6178SOL     OW19432   5.791   0.127   0.378  0.0247  0.1596 -0.6207
 6178SOL    HW119433   5.833   0.061   0.316  0.7673 -0.6541  0.7077
 6178SOL    HW219434   5.703   0.157   0.339  0.4498 -0.3394 -2.0322
 6179SOL     OW19435   3.043   3.801   1.855 -0.0376  0.3576  0.2147
 6179SOL    HW119436   3.076   3.809   1.761 -2.0396  2.2904 -0.4134
 6179SOL    HW219437   2.951   3.761   1.855 -0.2941  0.9142  1.2806
 6180SOL     OW19438   0.667   6.759   3.952 -0.2555 -0.0875 -0.0204
 6180SOL    HW119439   0.687   6.822   3.877 -2.3419 -0.5131 -1.0135
 6180SOL    HW219440   0.696   6.667   3.927 -2.5823 -0.5819 -1.1835
 6181SOL     OW19441   1.586   1.149   5.290 -0.4992  0.0546  0.4655
 6181SOL    HW119442   1.618   1.242   5.270 -0.5789 -0.2658 -1.3473
 6181SOL    HW219443   1.590   1.133   5.389 -1.4727  2.3200  0.9280
 6182SOL     OW19444   2.572   1.657   3.280 -0.1671 -0.0754  0.1544
 6182SOL    HW119445   2.664   1.621   3.268  0.1729  0.6795  0.4168
 6182SOL    HW219446   2.537   1.689   3.192 -0.8191 -1.8021 -0.2540
 6183SOL     OW19447   0.544   2.711   5.831 -0.4889 -0.2288  0.1882
 6183SOL    HW119448   0.478   2.696   5.758 -0.9085  1.4101  0.2088
 6183SOL    HW219449   0.553   2.809   5.849 -0.3678 -0.5844  2.3078
 6184SOL     OW19450   3.694   4.958   6.461  0.1220 -0.3066 -0.1169
 6184SOL    HW119451   3.748   4.912   6.391  0.9166 -0.4612  0.5879
 6184SOL    HW219452   3.644   4.889   6.515 -2.0154 -0.1026 -1.7129
 6185SOL     OW19453   2.864   4.396   5.995 -0.0246 -0.0951 -0.3093
 6185SOL    HW119454   2.957   4.384   5.959  0.8681  0.1767  1.7345
 6185SOL    HW219455   2.823   4.477   5.954  0.0594 -0.9981 -2.2931
 6186SOL     OW19456   6.276   2.320   3.557 -0.0691 -0.4945 -0.3561
 6186SOL    HW119457   6.276   2.226   3.592  0.8220 -0.0581  0.8895
 6186SOL    HW219458   6.287   2.384   3.633  0.8846  0.5538 -1.3326
 6187SOL     OW19459   4.483   0.272   6.234 -0.0393  0.5145  0.3936
 6187SOL    HW119460   4.403   0.229   6.191 -0.9328  0.4762  2.0334
 6187SOL    HW219461   4.565   0.249   6.182 -0.9047 -0.6269 -0.5113
 6188SOL     OW19462   1.173   0.484   5.908 -0.2076 -0.1394 -0.2725
 6188SOL    HW119463   1.237   0.497   5.983  2.6903  1.4253 -2.8104
 6188SOL    HW219464   1.132   0.572   5.882 -0.2909 -0.4392 -1.2205
 6189SOL     OW19465   4.342   5.740   1.253  0.1270  0.1056  0.0930
 6189SOL    HW119466   4.277   5.814   1.267 -2.5921 -2.0318 -0.3839
 6189SOL    HW219467   4.339   5.677   1.330 -0.4670 -1.4351 -1.1163
 6190SOL     OW19468   1.442   6.157   4.197  0.1775  0.0144  0.5536
 6190SOL    HW119469   1.506   6.179   4.271  0.6845  0.2436  0.0636
 6190SOL    HW219470   1.382   6.083   4.225  0.7572 -0.3008  0.9781
 6191SOL     OW19471   6.485   4.135   0.230 -0.4207 -0.4150  0.3259
 6191SOL    HW119472   6.478   4.203   0.158 -1.7900  0.0023  0.8359
 6191SOL    HW219473   6.477   4.043   0.191  0.2067 -0.2549 -0.2006
 6192SOL     OW19474   0.820   1.483   5.134 -0.1336  0.5497 -0.3974
 6192SOL    HW119475   0.876   1.424   5.076  0.8360 -1.5187  2.4043
 6192SOL    HW219476   0.879   1.547   5.184 -0.4774 -0.1837  0.9864
 6193SOL     OW19477   6.880   6.034   4.614 -0.5124 -0.2152 -0.3801
 6193SOL    HW119478   6.870   6.070   4.707  0.9386  0.4187 -0.4491
 6193SOL    HW219479   6.793   6.045   4.565 -0.5747  1.8276  0.0986
 6194SOL     OW19480   4.184   6.340   5.642 -0.4895  0.1049  0.4436
 6194SOL    HW119481   4.134   6.421   5.612  2.2593  1.9291  0.3811
 6194SOL    HW219482   4.175   6.268   5.573  0.0385  1.7465 -1.4590
 6195SOL     OW19483   0.471   2.839   1.844  0.3522  0.8547 -0.2225
 6195SOL    HW119484   0.512   2.798   1.762  0.8025  1.8627 -0.5130
 6195SOL    HW219485   0.462   2.937   1.831  1.2906  1.1667  1.3055
 6196SOL     OW19486   3.486   5.330   6.502 -0.6760 -0.4180 -0.0358
 6196SOL    HW119487   3.456   5.306   6.594 -0.6893  0.2170  0.1254
 6196SOL    HW219488   3.407   5.355   6.446 -0.4056  2.1179  0.6374
 6197SOL     OW19489   4.084   1.151   4.563 -0.1616  0.6142 -0.0146
 6197SOL    HW119490   4.123   1.135   4.472  1.3419  0.2229  0.6710
 6197SOL    HW219491   4.097   1.246   4.589 -0.2159  0.6248 -0.0244
 6198SOL     OW19492   1.874   1.950   2.610  0.0602 -0.6313 -0.3613
 6198SOL    HW119493   1.868   2.004   2.526  1.0814 -0.4032 -0.3024
 6198SOL    HW219494   1.808   1.985   2.676  2.3248  2.3082  0.6074
 6199SOL     OW19495   5.993   1.035   2.767 -0.0032 -0.5604 -0.7206
 6199SOL    HW119496   5.949   0.992   2.688  1.2030 -1.7913 -0.7553
 6199SOL    HW219497   6.012   0.966   2.836  0.7948  0.1576 -0.2087
 6200SOL     OW19498   4.722   6.367   2.489 -0.1131 -0.3120  0.3330
 6200SOL    HW119499   4.638   6.392   2.442  0.6114 -1.4817 -1.7378
 6200SOL    HW219500   4.730   6.268   2.493  1.8123 -0.2493 -0.8219
 6201SOL     OW19501   4.391   6.201   1.711  0.1703 -0.0458 -0.2300
 6201SOL    HW119502   4.462   6.231   1.647  0.8442  0.6469  0.8190
 6201SOL    HW219503   4.420   6.220   1.805  0.3312 -3.3758  0.5233
 6202SOL     OW19504   2.096   2.020   1.748 -0.2363  0.3368  0.0346
 6202SOL    HW119505   2.162   2.090   1.720  1.6546 -2.3292 -2.7804
 6202SOL    HW219506   2.143   1.951   1.804 -0.7549 -1.2027 -1.3579
 6203SOL     OW19507   4.864   5.067   4.110 -0.0565 -0.4156 -0.1160
 6203SOL    HW119508   4.946   5.113   4.142 -0.1391 -0.4587  0.1625
 6203SOL    HW219509   4.888   4.980   4.067  0.2544  0.5957 -2.0974
 6204SOL     OW19510   4.289   4.172   0.538  0.3394  0.0778 -0.0412
 6204SOL    HW119511   4.288   4.104   0.465 -0.5766 -0.8796  0.8282
 6204SOL    HW219512   4.380   4.212   0.545  1.5190 -2.4756  0.6574
 6205SOL     OW19513   5.493   2.347   2.205 -0.0138  0.1191  0.0578
 6205SOL    HW119514   5.399   2.314   2.216 -0.0518  0.7949  2.1235
 6205SOL    HW219515   5.506   2.377   2.111 -1.5541 -0.8932 -0.5294
 6206SOL     OW19516   3.584   1.412   1.377 -0.3494  0.5597  0.2625
 6206SOL    HW119517   3.674   1.440   1.346  0.2302 -1.4854 -0.0446
 6206SOL    HW219518   3.515   1.436   1.308  0.0545  1.5012  0.1849
 6207SOL     OW19519   0.179   1.880   4.880  0.1899 -0.0103 -0.0376
 6207SOL    HW119520   0.219   1.793   4.851  0.7279 -0.0068  0.6671
 6207SOL    HW219521   0.236   1.955   4.847 -1.0452  0.1763 -1.8977
 6208SOL     OW19522   4.982   4.684   5.592 -0.0528 -0.0431 -0.2203
 6208SOL    HW119523   5.064   4.654   5.543  1.6909  1.2670  1.7572
 6208SOL    HW219524   4.997   4.677   5.690 -1.6874  1.8508  0.2222
 6209SOL     OW19525   6.898   4.721   1.594 -0.8844 -0.7614  0.7502
 6209SOL    HW119526   6.891   4.809   1.640  1.4649 -0.2367  0.2052
 6209SOL    HW219527   6.811   4.701   1.547 -2.0826  0.3511  2.3901
 6210SOL     OW19528   3.917   6.666   0.558 -0.1867 -0.0121  0.2837
 6210SOL    HW119529   3.940   6.758   0.589  1.6306 -0.0399 -0.8213
 6210SOL    HW219530   3.881   6.613   0.634  0.9346  0.9290  1.5167
 6211SOL     OW19531   6.983   5.008   1.132 -0.0878 -0.0646  0.3010
 6211SOL    HW119532   7.008   4.956   1.214 -1.0060 -1.4838 -0.3009
 6211SOL    HW219533   7.063   5.060   1.101  1.4259 -2.4914 -0.1144
 6212SOL     OW19534   6.858   1.488   4.774  0.0678  0.5360 -0.4504
 6212SOL    HW119535   6.771   1.449   4.804  0.9531 -0.4891  0.9139
 6212SOL    HW219536   6.889   1.441   4.692  0.7342 -1.1769  0.7279
 6213SOL     OW19537   0.349   3.317   1.410  0.2464 -0.1475 -0.0674
 6213SOL    HW119538   0.278   3.249   1.428 -1.5594  1.2546 -1.4977
 6213SOL    HW219539   0.435   3.271   1.386 -0.4389 -1.8875  0.7070
 6214SOL     OW19540   1.699   0.934   4.841  0.0679  0.7479  0.3652
 6214SOL    HW119541   1.779   0.895   4.796  0.1240 -1.0808  1.8811
 6214SOL    HW219542   1.662   1.009   4.787  1.3016 -0.0200 -1.6341
 6215SOL     OW19543   4.986   4.288   2.171 -0.0981  0.2543  0.3818
 6215SOL    HW119544   5.019   4.210   2.225  0.7757 -1.0311 -1.8785
 6215SOL    HW219545   4.889   4.276   2.153 -0.6226  1.1730  2.3692
 6216SOL     OW19546   2.013   4.446   1.549  0.0132  0.2248  0.2641
 6216SOL    HW119547   1.990   4.428   1.453 -1.7311  0.2898  0.6393
 6216SOL    HW219548   2.112   4.438   1.561  0.4424  1.5527 -1.8159
 6217SOL     OW19549   0.803   6.936   3.142  0.3609  0.0385  0.0015
 6217SOL    HW119550   0.837   6.946   3.236  1.1657 -0.6126 -0.2002
 6217SOL    HW219551   0.881   6.930   3.080 -0.1222 -1.1531 -0.5282
 6218SOL     OW19552   5.134   5.181   4.150 -0.0179 -0.4343  0.2626
 6218SOL    HW119553   5.188   5.261   4.124 -0.3733  0.6003  2.4958
 6218SOL    HW219554   5.194   5.109   4.184  0.0891  0.0205  1.0403
 6219SOL     OW19555   3.259   0.834   1.013 -0.9401 -0.1183 -0.5039
 6219SOL    HW119556   3.256   0.934   1.002  0.8794 -0.1946 -2.3299
 6219SOL    HW219557   3.181   0.793   0.967 -1.3908  0.4294 -0.2405
 6220SOL     OW19558   6.594   5.380   2.817 -0.1918  0.1988 -0.4618
 6220SOL    HW119559   6.495   5.370   2.827 -0.3276  1.6182 -0.2613
 6220SOL    HW219560   6.617   5.387   2.720 -0.2455 -0.3785 -0.5231
 6221SOL     OW19561   1.923   2.568   4.094 -0.3627 -0.5646  0.2498
 6221SOL    HW119562   1.882   2.486   4.054 -0.5478 -0.6968  0.7034
 6221SOL    HW219563   1.911   2.567   4.194 -1.7238  0.7499  0.1398
 6222SOL     OW19564   1.924   2.629   6.814  0.2767 -0.3563  0.4652
 6222SOL    HW119565   2.014   2.610   6.774  0.1168 -0.2843  0.0770
 6222SOL    HW219566   1.863   2.665   6.744  0.0867  0.0505  0.8379
 6223SOL     OW19567   1.272   6.130   6.684 -0.0641 -0.2175 -0.0007
 6223SOL    HW119568   1.309   6.217   6.654 -0.0776 -0.2063  0.0154
 6223SOL    HW219569   1.248   6.074   6.605 -1.8545  0.5480 -0.0401
 6224SOL     OW19570   5.617   5.698   2.771 -0.1749  0.1183  0.3658
 6224SOL    HW119571   5.657   5.668   2.685 -0.4001  0.1257  0.2608
 6224SOL    HW219572   5.571   5.621   2.816 -0.0481  0.1114  0.4869
 6225SOL     OW19573   0.870   5.914   5.219  0.2885  0.0703  0.0154
 6225SOL    HW119574   0.911   5.860   5.145  0.7009 -0.5566  0.6931
 6225SOL    HW219575   0.940   5.973   5.260 -0.1513  1.1330 -0.7010
 6226SOL     OW19576   6.029   5.185   5.427  0.2421  0.8400  0.6000
 6226SOL    HW119577   5.972   5.103   5.425 -0.4974  1.2756  2.1563
 6226SOL    HW219578   6.125   5.159   5.435  0.0357  0.1160  0.8144
 6227SOL     OW19579   1.401   3.191   6.741  0.0938  0.2668 -0.1409
 6227SOL    HW119580   1.487   3.205   6.691  1.4079  0.1926  1.9821
 6227SOL    HW219581   1.391   3.094   6.761  0.8200  0.5509  1.7549
 6228SOL     OW19582   0.052   0.996   1.622  0.5282 -0.5237  0.3226
 6228SOL    HW119583   0.014   1.088   1.634 -0.2509 -0.6962 -0.7008
 6228SOL    HW219584   0.057   0.950   1.710  0.8899  0.4785  0.8423
 6229SOL     OW19585   0.704   2.940   6.793  0.0460 -0.2213  0.5134
 6229SOL    HW119586   0.786   2.995   6.776 -1.0990  1.1606 -0.7837
 6229SOL    HW219587   0.715   2.851   6.749  1.2840 -0.4963  1.3129
 6230SOL     OW19588   4.795   5.829   0.430  0.3008 -0.4087  0.0654
 6230SOL    HW119589   4.750   5.760   0.373  0.1510 -0.2698  0.0146
 6230SOL    HW219590   4.889   5.843   0.398  0.1463 -0.1722 -0.2821
 6231SOL     OW19591   6.937   6.732   2.730  0.2153  0.0548  0.3198
 6231SOL    HW119592   6.861   6.675   2.699 -1.4566  2.1379  0.3080
 6231SOL    HW219593   6.968   6.702   2.821 -0.3561 -1.0649  0.1512
 6232SOL     OW19594   4.139   5.183   3.077 -0.4515  0.0316  0.4249
 6232SOL    HW119595   4.203   5.230   3.016 -1.1102 -0.5168 -0.7208
 6232SOL    HW219596   4.110   5.246   3.149  0.7378  0.5331  0.4936
 6233SOL     OW19597   1.550   6.222   5.833  0.3641 -0.2932  0.1419
 6233SOL    HW119598   1.570   6.164   5.912 -0.3485 -0.2627  0.3563
 6233SOL    HW219599   1.451   6.230   5.823  0.3052 -2.7447 -2.5167
 6234SOL     OW19600   1.833   4.027   0.781 -0.3424 -0.4605 -0.5009
 6234SOL    HW119601   1.827   4.108   0.839 -1.5388 -1.4289  0.7954
 6234SOL    HW219602   1.889   3.957   0.826 -0.6098 -0.9317 -0.8816
 6235SOL     OW19603   5.667   2.951   3.377 -0.7032 -0.5058 -0.2048
 6235SOL    HW119604   5.756   2.960   3.423 -1.4926 -0.0608  1.2740
 6235SOL    HW219605   5.608   3.027   3.403 -2.4895 -2.2194  1.0819
 6236SOL     OW19606   0.283   6.614   2.495  0.0804 -0.2079 -0.7122
 6236SOL    HW119607   0.272   6.583   2.589 -0.8818 -0.3997 -0.8758
 6236SOL    HW219608   0.205   6.584   2.441  0.8935 -0.5936 -1.7126
 6237SOL     OW19609   0.580   4.281   5.230  0.1876  0.2249  0.2998
 6237SOL    HW119610   0.503   4.259   5.290 -0.5734 -1.5384 -1.2268
 6237SOL    HW219611   0.566   4.371   5.190 -0.7051  0.2538  0.6467
 6238SOL     OW19612   6.497   4.846   0.501  0.1731 -0.4161  0.1225
 6238SOL    HW119613   6.442   4.899   0.437  0.2076 -0.5222  0.0051
 6238SOL    HW219614   6.438   4.813   0.575  0.3560  0.7188  0.8002
 6239SOL     OW19615   2.065   1.102   5.083  0.2871 -0.6082  0.6438
 6239SOL    HW119616   2.160   1.104   5.053 -0.3762 -0.7108 -1.6289
 6239SOL    HW219617   2.036   1.193   5.111  0.7181 -0.3383  0.2098
 6240SOL     OW19618   2.781   3.076   0.259  0.4789  0.0246 -0.7632
 6240SOL    HW119619   2.784   3.035   0.168  2.3092  2.6399 -1.9973
 6240SOL    HW219620   2.825   3.166   0.257 -0.3212  0.6225  2.5122
 6241SOL     OW19621   3.930   0.696   6.859  0.2670  0.6453  0.0627
 6241SOL    HW119622   3.880   0.767   6.909  0.5831  1.6532 -1.0045
 6241SOL    HW219623   3.877   0.669   6.778 -0.0853 -0.7251  0.7218
 6242SOL     OW19624   7.008   2.109   3.234  0.6422 -0.1038  0.7855
 6242SOL    HW119625   6.967   2.166   3.163 -0.3161  1.3330  2.4107
 6242SOL    HW219626   6.988   2.013   3.215  1.1831  0.1402 -1.3223
 6243SOL     OW19627   0.814   4.551   2.298  0.5777 -0.1056  0.1771
 6243SOL    HW119628   0.782   4.488   2.368  0.9958 -2.4272 -1.5955
 6243SOL    HW219629   0.910   4.573   2.314 -0.1390  2.0535  2.0939
 6244SOL     OW19630   6.493   3.050   3.219  0.4104 -0.5722  0.3889
 6244SOL    HW119631   6.564   3.098   3.166  0.1416  0.4866  0.9484
 6244SOL    HW219632   6.405   3.095   3.204  0.0060 -1.3608  0.3656
 6245SOL     OW19633   6.641   3.925   4.723  0.5823  0.4286  0.1767
 6245SOL    HW119634   6.634   3.920   4.624  0.3358  0.2788  0.1999
 6245SOL    HW219635   6.692   3.847   4.758  1.0650  0.7184  0.1325
 6246SOL     OW19636   1.332   6.658   1.039 -0.2019 -0.2776 -0.2430
 6246SOL    HW119637   1.244   6.679   0.998  0.2166  0.6180 -0.6970
 6246SOL    HW219638   1.388   6.741   1.045  1.2610 -1.1097 -1.5192
 6247SOL     OW19639   0.144   5.641   3.757 -0.3033  0.4755 -0.7104
 6247SOL    HW119640   0.083   5.580   3.807 -0.6659  1.5910  0.2456
 6247SOL    HW219641   0.189   5.590   3.683 -1.6363 -0.5993 -0.8199
 6248SOL     OW19642   1.857   5.571   2.382  0.0908  1.0273  0.2948
 6248SOL    HW119643   1.778   5.517   2.354 -0.6674  1.9648  0.5754
 6248SOL    HW219644   1.838   5.668   2.367  1.0160  1.2942  0.7766
 6249SOL     OW19645   6.987   1.027   6.938  0.3276 -0.0624 -0.2122
 6249SOL    HW119646   6.931   0.946   6.956  0.2471  0.1185  0.3786
 6249SOL    HW219647   6.929   1.101   6.904  0.5950 -0.6405 -1.9930
 6250SOL     OW19648   1.072   2.263   4.692  0.2363 -0.3760  0.1295
 6250SOL    HW119649   1.123   2.253   4.607 -1.0829 -1.9878 -0.5354
 6250SOL    HW219650   0.981   2.221   4.682 -0.2113 -0.0101  2.1135
 6251SOL     OW19651   2.647   1.477   4.366  0.0239  0.1346 -0.4485
 6251SOL    HW119652   2.646   1.564   4.417 -1.3145 -0.1058 -0.0194
 6251SOL    HW219653   2.664   1.402   4.429 -0.7221 -0.0807 -0.4935
 6252SOL     OW19654   5.614   1.033   6.280  0.0098  0.3447  0.4964
 6252SOL    HW119655   5.595   0.958   6.344  0.5159  0.4776  0.8121
 6252SOL    HW219656   5.624   1.118   6.332  2.0517  0.1789  0.4307
 6253SOL     OW19657   5.916   1.106   5.790 -0.7793  0.1028  0.0458
 6253SOL    HW119658   5.888   1.068   5.878 -2.1545 -1.6332 -1.0768
 6253SOL    HW219659   6.005   1.151   5.799 -0.6900 -0.4394  2.1932
 6254SOL     OW19660   5.616   5.570   1.790 -0.2855  0.2535 -0.3768
 6254SOL    HW119661   5.634   5.495   1.854 -2.0991 -0.8058 -0.9980
 6254SOL    HW219662   5.573   5.533   1.708  0.7118  1.7570 -1.6274
 6255SOL     OW19663   5.039   0.795   1.632 -0.3143  0.2192 -0.0529
 6255SOL    HW119664   5.137   0.811   1.617  0.3332 -2.7199  0.3881
 6255SOL    HW219665   5.001   0.746   1.554 -0.9041 -0.5008  0.6662
 6256SOL     OW19666   0.495   2.068   1.562 -0.5994 -0.2606 -0.4191
 6256SOL    HW119667   0.573   2.125   1.540 -1.1316  2.4401  3.6203
 6256SOL    HW219668   0.520   1.972   1.552  1.9598  0.5129 -2.6876
 6257SOL     OW19669   4.436   4.568   0.440 -0.5422  0.9635 -0.0148
 6257SOL    HW119670   4.383   4.597   0.519  0.3408  0.8281  0.6477
 6257SOL    HW219671   4.476   4.478   0.458 -1.0506  0.5258 -0.9716
 6258SOL     OW19672   1.911   1.841   4.363  0.1440  0.2479  0.2721
 6258SOL    HW119673   1.900   1.931   4.321  2.8906 -0.0502 -1.3077
 6258SOL    HW219674   1.886   1.846   4.459 -0.8821  2.3875 -0.0469
 6259SOL     OW19675   2.313   1.549   6.403  0.1757 -0.3942 -0.2325
 6259SOL    HW119676   2.327   1.451   6.391  1.3738 -0.2912  0.2121
 6259SOL    HW219677   2.385   1.599   6.357 -1.7603  0.4094 -2.6069
 6260SOL     OW19678   4.218   4.275   6.237 -0.4516 -0.2496  0.4180
 6260SOL    HW119679   4.147   4.206   6.225 -0.7671  0.3519 -1.5834
 6260SOL    HW219680   4.281   4.272   6.159  1.1735 -0.1147  1.6741
 6261SOL     OW19681   2.958   1.473   6.901  0.1740  0.7987 -0.0464
 6261SOL    HW119682   2.996   1.422   6.978  1.5475 -1.4572 -2.0668
 6261SOL    HW219683   3.007   1.561   6.892  0.2575  0.9119  1.3833
 6262SOL     OW19684   4.188   5.430   6.753 -0.0474  0.2125 -0.0405
 6262SOL    HW119685   4.182   5.523   6.789  0.7102 -0.3848  1.7157
 6262SOL    HW219686   4.133   5.423   6.669  1.3398  2.7248 -1.2793
 6263SOL     OW19687   0.153   3.677   5.158  0.1627  0.2304  0.0169
 6263SOL    HW119688   0.102   3.739   5.098  0.8536  2.2955  1.4459
 6263SOL    HW219689   0.089   3.618   5.207 -0.6078  0.5568 -0.5614
 6264SOL     OW19690   0.329   0.193   0.755 -0.1027 -0.5738  0.8205
 6264SOL    HW119691   0.230   0.200   0.770 -0.2518  1.0211 -0.6081
 6264SOL    HW219692   0.376   0.258   0.815  0.0242 -0.7493  0.9116
 6265SOL     OW19693   6.410   5.905   4.580 -0.5375 -0.0394 -0.1822
 6265SOL    HW119694   6.460   5.878   4.663  1.7880  0.4319 -1.3472
 6265SOL    HW219695   6.366   5.824   4.541 -1.6480 -0.2809  1.4446
 6266SOL     OW19696   3.749   4.450   1.664 -0.4998  0.0758  0.0256
 6266SOL    HW119697   3.660   4.408   1.677 -1.0385  0.8381 -1.0610
 6266SOL    HW219698   3.739   4.534   1.610  0.5907  1.3542  1.7025
 6267SOL     OW19699   4.226   6.648   2.298  0.2340 -0.4635 -0.0943
 6267SOL    HW119700   4.286   6.619   2.224  1.0405  1.3072 -0.1759
 6267SOL    HW219701   4.173   6.728   2.269 -1.5437 -1.4438  0.2903
 6268SOL     OW19702   5.572   5.259   5.647  0.1443 -0.3023  0.4500
 6268SOL    HW119703   5.668   5.234   5.665  0.1121  0.2336  1.4489
 6268SOL    HW219704   5.569   5.335   5.582  0.2983 -1.7617 -1.3380
 6269SOL     OW19705   4.186   6.562   3.813  0.3022  0.2520 -0.0229
 6269SOL    HW119706   4.196   6.522   3.722 -0.1131 -1.5202  0.6795
 6269SOL    HW219707   4.113   6.515   3.862 -0.0033  1.7058  0.9649
 6270SOL     OW19708   5.382   3.140   1.101  0.1062  0.9622 -0.3981
 6270SOL    HW119709   5.350   3.145   1.007 -3.4732 -0.5460  0.6031
 6270SOL    HW219710   5.453   3.070   1.108 -0.8851 -0.2180 -1.6650
 6271SOL     OW19711   5.387   1.765   1.155  0.3137  0.6589 -0.2845
 6271SOL    HW119712   5.444   1.686   1.177 -1.1605 -0.0987  0.9475
 6271SOL    HW219713   5.349   1.755   1.063  1.5258  0.8218 -0.8266
 6272SOL     OW19714   1.903   6.365   5.214  0.0210  0.0429 -0.1262
 6272SOL    HW119715   1.854   6.278   5.216  0.4462 -0.1936  0.1647
 6272SOL    HW219716   1.940   6.380   5.123  1.0305 -0.6989  0.1463
 6273SOL     OW19717   1.132   6.255   6.911 -0.0897 -0.1486  0.1491
 6273SOL    HW119718   1.049   6.204   6.935 -0.7822  0.4579 -0.9059
 6273SOL    HW219719   1.192   6.197   6.857 -2.2402  0.9120 -3.7780
 6274SOL     OW19720   0.619   3.843   1.663 -0.1056  0.0104 -0.4939
 6274SOL    HW119721   0.706   3.818   1.707 -0.1221  2.0608  0.8442
 6274SOL    HW219722   0.609   3.943   1.663 -1.6144 -0.0747 -2.3666
 6275SOL     OW19723   1.516   5.655   1.579 -0.3250 -0.4527 -0.5173
 6275SOL    HW119724   1.602   5.607   1.596 -0.7290 -2.1361 -2.8313
 6275SOL    HW219725   1.536   5.746   1.543  0.5988 -1.6313 -3.1990
 6276SOL     OW19726   3.756   6.655   1.355  0.3648  0.7741  0.0437
 6276SOL    HW119727   3.749   6.590   1.280  0.4375 -0.2135  0.8707
 6276SOL    HW219728   3.780   6.745   1.319  0.8262  0.2255 -1.0705
 6277SOL     OW19729   4.545   6.557   0.154  0.0221 -0.5160  0.0082
 6277SOL    HW119730   4.530   6.607   0.240  1.5955 -0.7583  0.4611
 6277SOL    HW219731   4.527   6.460   0.168 -0.2575 -0.4774 -0.0843
 6278SOL     OW19732   1.856   0.720   4.072 -0.3942  0.4836  0.6579
 6278SOL    HW119733   1.780   0.666   4.109 -0.5286  0.1741 -0.0560
 6278SOL    HW219734   1.929   0.726   4.139 -0.2385 -0.8599  0.6327
 6279SOL     OW19735   0.846   1.250   2.497 -0.0004 -0.1208 -0.5349
 6279SOL    HW119736   0.907   1.212   2.566 -0.5846 -1.4645 -0.7271
 6279SOL    HW219737   0.857   1.349   2.494  1.4003 -0.2319  0.1529
 6280SOL     OW19738   2.743   6.429   2.380  0.2604 -0.2683 -0.1116
 6280SOL    HW119739   2.663   6.460   2.432  1.3658  0.2852  1.3412
 6280SOL    HW219740   2.761   6.333   2.402  0.3497 -0.2215  0.0165
 6281SOL     OW19741   3.257   4.694   0.529  0.0653  0.5607  0.1143
 6281SOL    HW119742   3.329   4.641   0.573 -1.1130 -1.4704 -0.3231
 6281SOL    HW219743   3.235   4.773   0.586  0.9760 -0.0955  1.4254
 6282SOL     OW19744   4.838   5.746   4.142  0.2713  0.7675  0.4682
 6282SOL    HW119745   4.830   5.699   4.230  1.7722  0.3759  0.4279
 6282SOL    HW219746   4.750   5.743   4.095  0.2989 -2.1115  0.4274
 6283SOL     OW19747   5.058   0.930   4.265  0.6132 -0.3629 -0.2837
 6283SOL    HW119748   4.989   0.861   4.242 -0.2480  0.7556 -1.1940
 6283SOL    HW219749   5.021   0.991   4.336  2.2280 -2.1502  2.2486
 6284SOL     OW19750   5.629   1.830   1.031 -0.2446 -0.0175  0.4056
 6284SOL    HW119751   5.671   1.749   1.072 -0.1203  0.3274  0.9828
 6284SOL    HW219752   5.531   1.829   1.049 -0.4330 -0.6455 -0.6362
 6285SOL     OW19753   1.027   6.044   1.075 -0.1605  0.4805 -0.1638
 6285SOL    HW119754   0.949   6.103   1.098 -0.9043  0.1742 -1.7668
 6285SOL    HW219755   1.106   6.070   1.131 -0.2248  3.4956 -1.2837
 6286SOL     OW19756   0.856   3.719   1.382 -0.1965  0.0076  0.7518
 6286SOL    HW119757   0.858   3.663   1.465 -0.9552 -0.9074  0.1785
 6286SOL    HW219758   0.938   3.776   1.378  0.8508 -1.4095  1.1385
 6287SOL     OW19759   5.080   2.195   0.654 -0.9059  0.3213  0.2498
 6287SOL    HW119760   5.127   2.212   0.741  0.5554  1.5848 -0.7108
 6287SOL    HW219761   4.988   2.160   0.672 -0.7042  0.6711  2.2927
 6288SOL     OW19762   1.464   6.800   6.954 -0.1494 -0.0154  0.2426
 6288SOL    HW119763   1.534   6.871   6.961 -0.2464  0.1613 -0.4957
 6288SOL    HW219764   1.468   6.759   6.863 -2.7722  1.8687 -0.8318
 6289SOL     OW19765   2.297   2.708   2.679  0.2868  0.0350  0.3120
 6289SOL    HW119766   2.357   2.641   2.635 -0.3049 -1.5272  1.7629
 6289SOL    HW219767   2.331   2.727   2.771 -0.2282  0.8076  0.3486
 6290SOL     OW19768   6.853   5.432   2.937 -0.4783  0.6524 -0.0641
 6290SOL    HW119769   6.766   5.421   2.890  0.2032 -0.6736 -1.0818
 6290SOL    HW219770   6.927   5.398   2.879  0.5357  0.1461  1.4500
 6291SOL     OW19771   1.339   1.404   2.226  0.5304  0.0086  0.3378
 6291SOL    HW119772   1.344   1.476   2.157 -0.9063 -0.3729 -0.2059
 6291SOL    HW219773   1.300   1.321   2.185  1.4922 -0.8581  1.1301
 6292SOL     OW19774   2.357   0.137   4.878 -0.0115 -0.3154 -0.3749
 6292SOL    HW119775   2.268   0.110   4.915  0.3701  1.0027  1.6929
 6292SOL    HW219776   2.409   0.056   4.852 -0.6358 -1.3082  1.3163
 6293SOL     OW19777   1.467   6.590   3.801 -0.5182 -0.2561 -0.1773
 6293SOL    HW119778   1.508   6.557   3.715 -0.4129 -0.6700  0.0277
 6293SOL    HW219779   1.384   6.642   3.780  1.3043  2.6441 -0.7801
 6294SOL     OW19780   4.052   5.377   4.734  0.0070  0.0025  0.1389
 6294SOL    HW119781   4.050   5.285   4.774  2.4133 -0.4583 -0.6373
 6294SOL    HW219782   3.998   5.439   4.791 -2.1045 -1.9506  0.4123
 6295SOL     OW19783   3.426   1.877   6.206  0.0430  0.0390  0.3179
 6295SOL    HW119784   3.327   1.879   6.193 -0.0306 -0.9137  0.6821
 6295SOL    HW219785   3.471   1.853   6.120  0.2217  3.8576 -0.8453
 6296SOL     OW19786   0.356   0.185   5.620 -0.3102  0.2556  0.1252
 6296SOL    HW119787   0.379   0.283   5.625  1.1543  0.1590 -2.7002
 6296SOL    HW219788   0.270   0.174   5.570 -0.4011  0.0952  0.3169
 6297SOL     OW19789   0.026   5.684   6.050 -0.5357 -0.2211  0.0335
 6297SOL    HW119790   0.068   5.770   6.020  1.9086 -1.4597 -0.3889
 6297SOL    HW219791   0.086   5.608   6.026 -2.3154 -2.0198  0.9819
 6298SOL     OW19792   0.920   1.118   5.884 -0.0425 -0.2462  0.0462
 6298SOL    HW119793   0.905   1.199   5.827  1.1635  0.9911  1.3931
 6298SOL    HW219794   0.936   1.039   5.826  1.2243  0.9762 -1.3504
 6299SOL     OW19795   6.635   1.076   6.233  0.4151  0.1607 -0.6983
 6299SOL    HW119796   6.580   1.009   6.182 -1.1717  1.3014 -0.5780
 6299SOL    HW219797   6.707   1.029   6.282 -0.8271 -1.5143 -0.3705
 6300SOL     OW19798   4.522   0.114   1.452  0.2184  0.1190  0.1560
 6300SOL    HW119799   4.422   0.118   1.464 -0.2327  0.6290 -2.8795
 6300SOL    HW219800   4.548   0.022   1.422  0.5986  0.1246  0.4649
 6301SOL     OW19801   0.959   1.625   3.140  0.1796 -0.0974  0.3489
 6301SOL    HW119802   0.870   1.581   3.154 -0.3599  0.1609 -1.8009
 6301SOL    HW219803   0.947   1.724   3.144  0.2946 -0.0564 -0.2856
 6302SOL     OW19804   2.868   1.541   5.246 -0.2327 -0.1260  0.0024
 6302SOL    HW119805   2.931   1.524   5.171  0.1421 -0.7377  0.4497
 6302SOL    HW219806   2.917   1.539   5.333 -0.4676  1.6434  0.2032
 6303SOL     OW19807   1.894   0.771   4.604 -0.5513 -0.0763 -0.2706
 6303SOL    HW119808   1.976   0.729   4.641 -2.2573 -1.7933  1.8240
 6303SOL    HW219809   1.849   0.708   4.540 -2.3240 -0.9676  1.7304
 6304SOL     OW19810   6.618   0.335   5.706 -0.0902 -0.2800 -0.0965
 6304SOL    HW119811   6.637   0.264   5.638  0.4895 -0.3114  0.0888
 6304SOL    HW219812   6.635   0.425   5.666  2.0903 -0.3498  0.5215
 6305SOL     OW19813   3.874   1.851   2.635  0.2274  0.1236 -0.6697
 6305SOL    HW119814   3.808   1.800   2.690  0.5284  0.5652  0.1142
 6305SOL    HW219815   3.839   1.943   2.618  1.2197  0.8334  0.9298
 6306SOL     OW19816   1.044   5.388   6.215 -0.4104 -0.2760  0.1795
 6306SOL    HW119817   1.011   5.294   6.207  0.0931 -0.5365  1.0227
 6306SOL    HW219818   0.980   5.442   6.270  0.4399 -0.7453  1.6971
 6307SOL     OW19819   5.009   5.821   0.772 -0.4556 -0.2658 -0.2139
 6307SOL    HW119820   5.079   5.813   0.702  1.5869 -0.0232  1.6840
 6307SOL    HW219821   5.044   5.875   0.849 -2.9405  0.3286  0.5921
 6308SOL     OW19822   6.786   0.864   0.640 -0.4521  0.4089  0.4446
 6308SOL    HW119823   6.859   0.929   0.617  0.3357  0.5615  3.0546
 6308SOL    HW219824   6.701   0.914   0.657 -0.3883  0.5472  0.3551
 6309SOL     OW19825   1.671   6.152   2.030 -0.5733  0.2435  0.1103
 6309SOL    HW119826   1.756   6.101   2.013 -1.5503 -0.7286 -2.4273
 6309SOL    HW219827   1.594   6.088   2.027 -1.4966  1.2631  1.3847
 6310SOL     OW19828   3.750   3.693   3.006  0.3181 -0.3861 -0.5411
 6310SOL    HW119829   3.667   3.744   3.031  2.5434  3.6991 -0.5966
 6310SOL    HW219830   3.774   3.713   2.911  1.4960 -1.2634 -0.4484
 6311SOL     OW19831   1.644   0.384   3.241  0.7362 -0.1479  0.2585
 6311SOL    HW119832   1.581   0.456   3.270 -0.4592 -0.7382 -0.7365
 6311SOL    HW219833   1.715   0.370   3.310 -0.3833  0.3641  1.5465
 6312SOL     OW19834   3.389   0.055   1.582  0.1508  0.0890 -0.4440
 6312SOL    HW119835   3.355   0.147   1.563 -0.0524  0.4174  1.3905
 6312SOL    HW219836   3.341   0.017   1.660 -0.8489 -2.2273 -2.0788
 6313SOL     OW19837   6.023   3.367   6.299  0.0355 -0.0697  0.6826
 6313SOL    HW119838   5.967   3.285   6.313 -2.7096  1.6030  0.2228
 6313SOL    HW219839   5.977   3.446   6.340  1.4729  1.6273 -0.8048
 6314SOL     OW19840   1.847   2.618   5.982 -0.3775  0.0806  0.0824
 6314SOL    HW119841   1.911   2.546   5.956 -0.2901  0.2702 -0.2357
 6314SOL    HW219842   1.765   2.612   5.925  0.0294  0.8127 -0.6150
 6315SOL     OW19843   4.323   0.138   5.624  0.1346  0.4827  0.1446
 6315SOL    HW119844   4.229   0.170   5.610 -0.4200 -0.7611  0.9388
 6315SOL    HW219845   4.380   0.171   5.548 -1.0684  0.7101 -0.6957
 6316SOL     OW19846   4.563   4.451   6.774 -0.0133  0.4023 -0.4557
 6316SOL    HW119847   4.653   4.483   6.747  0.0052  1.2600  0.5459
 6316SOL    HW219848   4.547   4.474   6.870 -1.4584  0.6612 -0.7320
 6317SOL     OW19849   3.165   1.165   1.422  0.8313 -0.1865  0.4679
 6317SOL    HW119850   3.188   1.129   1.513  1.7414 -0.2291  0.2284
 6317SOL    HW219851   3.066   1.161   1.409  0.7470 -0.7807  1.2131
 6318SOL     OW19852   1.403   0.238   6.885  0.2728 -0.0060  0.3760
 6318SOL    HW119853   1.500   0.260   6.885  0.4063 -0.5920  0.7774
 6318SOL    HW219854   1.354   0.307   6.832  0.7912  0.7791  0.8952
 6319SOL     OW19855   3.945   3.453   5.625  0.0671 -0.1987  0.2032
 6319SOL    HW119856   3.913   3.539   5.664 -0.3498 -1.0480  1.8061
 6319SOL    HW219857   4.039   3.465   5.591  0.9434  0.3229  2.5975
 6320SOL     OW19858   0.654   2.550   6.466  0.1697  0.4584 -0.5171
 6320SOL    HW119859   0.664   2.524   6.370 -2.0795  0.7210 -0.8769
 6320SOL    HW219860   0.559   2.574   6.484 -0.2671 -2.8710  2.5960
 6321SOL     OW19861   2.783   0.339   0.672 -0.1361 -0.4266 -0.2261
 6321SOL    HW119862   2.798   0.349   0.573  0.6244  0.5619 -0.0271
 6321SOL    HW219863   2.709   0.400   0.700 -1.5033 -1.9135 -0.4306
 6322SOL     OW19864   3.416   6.535   5.524  0.3406  0.2544 -0.5028
 6322SOL    HW119865   3.468   6.511   5.442 -0.8893  1.2340 -1.6074
 6322SOL    HW219866   3.318   6.531   5.504 -0.0281 -0.8489  1.3266
 6323SOL     OW19867   5.064   6.217   1.709  0.1103 -0.1531  0.6294
 6323SOL    HW119868   5.054   6.313   1.684  0.2195 -0.7585 -1.9398
 6323SOL    HW219869   5.157   6.201   1.743 -0.4390  0.9487  2.8615
 6324SOL     OW19870   3.869   5.123   5.069 -0.0932 -0.0532  0.2150
 6324SOL    HW119871   3.923   5.111   5.153  0.1922  0.0956  0.0562
 6324SOL    HW219872   3.817   5.208   5.075 -1.0599 -0.6772  0.7720
 6325SOL     OW19873   3.082   1.402   6.658 -0.2829 -0.4456  0.2642
 6325SOL    HW119874   3.054   1.433   6.748  0.2014  1.0336 -0.0684
 6325SOL    HW219875   3.083   1.302   6.656  0.1615 -0.5144  2.0356
 6326SOL     OW19876   3.326   0.004   6.800  0.2132  0.5786  0.2490
 6326SOL    HW119877   3.403  -0.002   6.863  1.8248 -0.4437 -1.6923
 6326SOL    HW219878   3.360   0.014   6.707 -2.0568  1.2310 -0.5845
 6327SOL     OW19879   5.015   3.405   1.372 -0.2178 -0.7185 -0.2656
 6327SOL    HW119880   5.034   3.404   1.471 -0.5649 -1.4819 -0.1970
 6327SOL    HW219881   5.080   3.345   1.325 -0.4217 -0.8102 -0.4304
 6328SOL     OW19882   4.802   5.786   0.075  0.6054  0.2451  0.6749
 6328SOL    HW119883   4.764   5.879   0.080 -0.5255 -0.2436  1.7632
 6328SOL    HW219884   4.901   5.791   0.062  0.4255  1.5828 -0.3927
 6329SOL     OW19885   6.942   2.580   2.465 -0.1804 -0.7756 -0.1835
 6329SOL    HW119886   6.965   2.580   2.563  0.0456  0.4566 -0.2195
 6329SOL    HW219887   6.857   2.632   2.451 -0.7323 -1.7476 -0.5459
 6330SOL     OW19888   0.694   4.424   2.521  0.0479 -0.4814 -0.2546
 6330SOL    HW119889   0.619   4.379   2.570 -1.7067  2.1194 -0.3595
 6330SOL    HW219890   0.659   4.505   2.474  3.1725  1.7214  0.8834
 6331SOL     OW19891   3.616   3.703   4.682  0.3042 -0.0785 -0.2436
 6331SOL    HW119892   3.640   3.607   4.695 -2.1737 -0.5619  1.6215
 6331SOL    HW219893   3.537   3.710   4.621  0.8121  0.8329 -0.8166
 6332SOL     OW19894   6.742   0.269   3.782 -0.3040 -0.0842  0.1331
 6332SOL    HW119895   6.679   0.274   3.704 -0.3157  0.8904  0.1982
 6332SOL    HW219896   6.825   0.321   3.761 -0.2456  0.0640  0.7205
 6333SOL     OW19897   3.028   6.745   3.350  0.2490 -0.4604 -0.0644
 6333SOL    HW119898   2.989   6.782   3.266  1.4633 -1.1502 -0.9711
 6333SOL    HW219899   2.975   6.666   3.379  0.7028 -1.1745 -1.0898
 6334SOL     OW19900   5.102   4.479   0.268  0.2241 -0.6594 -0.1923
 6334SOL    HW119901   5.073   4.434   0.352  0.4792  0.5717  0.5815
 6334SOL    HW219902   5.156   4.561   0.290 -0.6110  0.3037 -1.5366
 6335SOL     OW19903   2.905   5.771   4.223 -0.2331 -0.0280 -0.6246
 6335SOL    HW119904   2.823   5.796   4.172 -1.2218 -2.6822 -0.4994
 6335SOL    HW219905   2.892   5.790   4.320  0.4334  2.0972 -0.8988
 6336SOL     OW19906   6.197   1.136   0.128  0.3541 -0.5618 -0.5893
 6336SOL    HW119907   6.246   1.163   0.046 -0.6347 -0.2262 -1.0877
 6336SOL    HW219908   6.109   1.184   0.132 -0.9765 -2.8205 -0.9450
 6337SOL     OW19909   4.933   4.037   3.849 -0.9476  0.2228  0.1656
 6337SOL    HW119910   4.913   3.992   3.761 -1.0338 -0.6073  0.6027
 6337SOL    HW219911   5.020   4.002   3.885 -0.6137  1.0009  0.1293
 6338SOL     OW19912   6.690   0.945   6.823 -0.0821  0.1665 -0.0314
 6338SOL    HW119913   6.698   0.869   6.758  1.4191  0.2715  0.0179
 6338SOL    HW219914   6.761   1.012   6.805 -0.8496  1.1516  0.5035
 6339SOL     OW19915   4.310   5.021   4.701 -0.2890 -0.7517  0.6422
 6339SOL    HW119916   4.383   4.997   4.765  0.1977 -0.8982  0.0401
 6339SOL    HW219917   4.240   4.950   4.703 -0.8023 -0.2302  1.7879
 6340SOL     OW19918   6.427   6.157   3.881 -0.2992  0.2721  0.0703
 6340SOL    HW119919   6.375   6.224   3.828  0.1862 -1.3141 -2.5987
 6340SOL    HW219920   6.524   6.164   3.858 -0.2027 -1.1055 -0.0283
 6341SOL     OW19921   0.545   1.594   5.095 -0.0830  0.3403 -0.1135
 6341SOL    HW119922   0.642   1.578   5.116  0.3308  0.5461 -1.7122
 6341SOL    HW219923   0.538   1.659   5.018 -1.5210  1.2402  0.7315
 6342SOL     OW19924   5.086   4.748   0.866  0.3644  0.2067  0.0809
 6342SOL    HW119925   5.110   4.839   0.833  0.0471  0.0605 -0.5534
 6342SOL    HW219926   4.989   4.745   0.889  0.2299 -0.1450 -0.5014
 6343SOL     OW19927   3.371   0.173   4.194 -0.4258 -0.0101  0.2153
 6343SOL    HW119928   3.369   0.081   4.156 -1.8129  0.0974 -0.0338
 6343SOL    HW219929   3.345   0.239   4.123 -0.7153  0.4358  0.7250
 6344SOL     OW19930   4.993   1.554   6.906  0.0044 -0.2086 -0.0977
 6344SOL    HW119931   4.917   1.506   6.949  0.3009 -0.8273 -0.2416
 6344SOL    HW219932   5.003   1.523   6.811  0.3723 -0.0724 -0.1068
 6345SOL     OW19933   3.130   0.154   5.372 -0.0896  0.3869  0.1718
 6345SOL    HW119934   3.140   0.118   5.465  1.9829  0.9188  0.2050
 6345SOL    HW219935   3.170   0.245   5.367  0.3750  0.1287 -1.3704
 6346SOL     OW19936   1.297   4.690   0.803  0.0500 -0.6885  0.7364
 6346SOL    HW119937   1.352   4.748   0.864  2.3776 -0.0243 -1.7786
 6346SOL    HW219938   1.336   4.598   0.800  1.1978 -0.2144 -1.0632
 6347SOL     OW19939   6.154   5.936   2.079 -0.1583 -0.0070  0.2885
 6347SOL    HW119940   6.101   5.886   2.011  1.1944 -0.4129 -0.5035
 6347SOL    HW219941   6.177   6.027   2.044 -1.2758  0.6089  1.0931
 6348SOL     OW19942   4.945   6.878   1.547  0.0104 -0.2634  0.5502
 6348SOL    HW119943   4.900   6.843   1.628 -0.6086  1.3710  0.9477
 6348SOL    HW219944   5.006   6.953   1.572  0.4338 -0.2702 -0.3999
 6349SOL     OW19945   1.981   4.405   2.900 -0.4366 -0.3748  0.1210
 6349SOL    HW119946   2.019   4.365   2.816  0.7128  2.0504 -0.6157
 6349SOL    HW219947   1.911   4.472   2.876  1.0847  1.5963  0.9239
 6350SOL     OW19948   1.004   3.070   2.356 -0.2750  0.5328 -0.0461
 6350SOL    HW119949   1.069   2.998   2.380 -1.1970  0.3486  2.1635
 6350SOL    HW219950   0.914   3.046   2.392 -0.8867  2.2034 -0.3777
 6351SOL     OW19951   1.849   6.819   4.670 -0.5455 -0.3452  0.2935
 6351SOL    HW119952   1.823   6.758   4.595 -0.3797  0.7655 -0.6953
 6351SOL    HW219953   1.770   6.873   4.698 -0.7944 -1.2536  1.4397
 6352SOL     OW19954   5.766   5.660   3.633  0.0147 -0.4473  0.1541
 6352SOL    HW119955   5.681   5.608   3.630  0.0036 -0.5434  1.5834
 6352SOL    HW219956   5.835   5.608   3.683  0.5896  0.0860 -0.0695
 6353SOL     OW19957   1.664   2.765   0.481  0.2489 -0.7524 -0.2157
 6353SOL    HW119958   1.666   2.857   0.443  1.3713 -1.5816 -2.3391
 6353SOL    HW219959   1.745   2.714   0.450  0.0892 -2.2163  1.5794
 6354SOL     OW19960   3.614   6.774   6.818 -0.8437 -0.1862  0.3056
 6354SOL    HW119961   3.547   6.742   6.884  0.1613 -0.6389  1.1292
 6354SOL    HW219962   3.599   6.729   6.730 -0.5717 -1.5995  0.9526
 6355SOL     OW19963   4.654   6.881   2.673 -0.0555 -0.7808 -0.4418
 6355SOL    HW119964   4.652   6.944   2.595 -1.4724  0.0163  0.2126
 6355SOL    HW219965   4.675   6.932   2.757 -1.4418 -1.0973  0.1311
 6356SOL     OW19966   6.074   1.334   3.395 -0.5310  0.1737  0.0116
 6356SOL    HW119967   6.057   1.237   3.416 -1.5378  0.4090  0.3544
 6356SOL    HW219968   6.058   1.349   3.297 -0.1827 -0.0419 -0.0810
 6357SOL     OW19969   6.078   6.182   5.195 -0.3233 -0.4267 -0.5550
 6357SOL    HW119970   6.037   6.092   5.207 -2.6732  0.4854 -1.1526
 6357SOL    HW219971   6.151   6.176   5.127 -0.7326 -1.7999 -0.9190
 6358SOL     OW19972   6.423   0.272   3.513  0.1107 -0.1451 -0.3312
 6358SOL    HW119973   6.449   0.355   3.562  0.3732  0.0595 -0.8085
 6358SOL    HW219974   6.331   0.244   3.542 -1.0278  1.7024 -1.9269
 6359SOL     OW19975   6.116   2.706   3.064  0.2223 -0.2760  0.2365
 6359SOL    HW119976   6.179   2.650   3.117 -0.1479  0.4533  1.4871
 6359SOL    HW219977   6.153   2.798   3.053 -0.4348  0.0470  0.6523
 6360SOL     OW19978   0.230   5.443   5.396 -0.5310 -0.1619 -0.0115
 6360SOL    HW119979   0.166   5.518   5.411  0.4860  0.6775  0.2910
 6360SOL    HW219980   0.302   5.446   5.466 -0.5534 -1.5270  0.1076
 6361SOL     OW19981   0.355   6.443   4.845 -0.7422 -0.5509  0.2905
 6361SOL    HW119982   0.419   6.520   4.846 -1.8885  0.4386 -0.5544
 6361SOL    HW219983   0.405   6.359   4.866  1.0907 -0.0099 -1.5432
 6362SOL     OW19984   2.084   0.290   6.486  0.1308  0.2759 -0.5646
 6362SOL    HW119985   2.005   0.316   6.432 -1.9850 -2.7772  0.7923
 6362SOL    HW219986   2.101   0.360   6.556 -0.8596  1.3360 -1.3366
 6363SOL     OW19987   5.820   5.177   5.161  0.4015 -0.2149 -0.3921
 6363SOL    HW119988   5.766   5.259   5.177  0.6488  0.1179 -1.2329
 6363SOL    HW219989   5.826   5.124   5.246  0.9325  1.0441  0.3884
 6364SOL     OW19990   4.054   2.299   5.896  0.0469 -0.3804  0.5681
 6364SOL    HW119991   4.115   2.255   5.961 -0.6314 -1.5254  0.4475
 6364SOL    HW219992   4.107   2.357   5.834  0.6772  0.9880  2.2967
 6365SOL     OW19993   1.650   0.414   0.038 -0.0016  0.3851  0.2712
 6365SOL    HW119994   1.736   0.369   0.016  0.7397  0.5432  2.6171
 6365SOL    HW219995   1.601   0.361   0.107 -0.4897  1.6782  0.9607
 6366SOL     OW19996   0.904   5.257   5.529  0.4880  0.3426  0.6203
 6366SOL    HW119997   0.949   5.172   5.501  1.2752  0.2316  2.1456
 6366SOL    HW219998   0.806   5.240   5.543  1.0893 -1.2028  4.0012
 6367SOL     OW19999   4.244   0.862   3.560  0.1812  0.0842  0.2161
 6367SOL    HW120000   4.153   0.823   3.546  0.8205 -1.4675  0.2125
 6367SOL    HW220001   4.287   0.819   3.639  0.6793  1.2615  0.6072
 6368SOL     OW20002   0.441   6.071   0.502  0.2247 -0.2877 -0.3464
 6368SOL    HW120003   0.371   6.001   0.514  1.4331 -1.1721  2.0133
 6368SOL    HW220004   0.440   6.134   0.580  0.3597  1.2911 -1.5534
 6369SOL     OW20005   5.886   3.262   4.437 -0.3078 -0.2557 -0.4707
 6369SOL    HW120006   5.791   3.293   4.441 -0.0441  1.0968 -2.6552
 6369SOL    HW220007   5.900   3.187   4.501 -3.3665 -1.8907 -1.5338
 6370SOL     OW20008   5.393   6.077   2.272  0.1217 -0.0192  0.1146
 6370SOL    HW120009   5.455   6.132   2.217  0.3371 -0.6893 -0.3306
 6370SOL    HW220010   5.382   5.987   2.230  0.8106 -0.7961  1.5216
 6371SOL     OW20011   4.225   0.930   4.418 -0.0229 -0.2566  0.3661
 6371SOL    HW120012   4.219   0.939   4.518  1.0171 -0.1759  0.4388
 6371SOL    HW220013   4.145   0.880   4.384 -0.0293 -0.9397  1.3311
 6372SOL     OW20014   0.652   1.908   5.816  0.5729  0.2176  0.6985
 6372SOL    HW120015   0.749   1.927   5.833  0.5393  1.6803 -0.5310
 6372SOL    HW220016   0.611   1.867   5.897  1.9475  0.6607  1.6476
 6373SOL     OW20017   1.554   3.630   1.548  0.0420 -0.0900 -0.2055
 6373SOL    HW120018   1.518   3.638   1.641  0.1228  2.2486 -0.3349
 6373SOL    HW220019   1.562   3.533   1.524 -0.7544 -0.7288  1.9043
 6374SOL     OW20020   4.845   5.548   4.620 -0.1534  0.2605  0.0213
 6374SOL    HW120021   4.861   5.581   4.527 -0.6938 -0.2597 -0.2644
 6374SOL    HW220022   4.906   5.471   4.638  1.5484  1.7422  0.9044
 6375SOL     OW20023   4.061   3.149   3.148 -0.4377 -0.2703  0.4371
 6375SOL    HW120024   4.137   3.209   3.173 -2.5773  3.0264 -0.3317
 6375SOL    HW220025   4.018   3.114   3.231  0.1594  0.2358  0.9751
 6376SOL     OW20026   4.305   5.252   2.512 -0.2624 -0.3316  0.4325
 6376SOL    HW120027   4.261   5.268   2.423 -0.0732 -0.9459  0.2249
 6376SOL    HW220028   4.385   5.194   2.500  0.6378  0.7781  0.8125
 6377SOL     OW20029   5.807   6.881   2.562  0.2793 -0.3934 -0.4154
 6377SOL    HW120030   5.766   6.930   2.485 -0.9505 -3.1703 -1.6227
 6377SOL    HW220031   5.779   6.925   2.648 -0.5072  1.1570 -1.4118
 6378SOL     OW20032   0.919   3.313   2.551 -0.0206  0.2511  0.6319
 6378SOL    HW120033   0.937   3.225   2.509 -0.1636  1.0075 -1.1255
 6378SOL    HW220034   0.888   3.300   2.645 -1.1512 -1.6394  0.0507
 6379SOL     OW20035   1.305   1.114   3.207 -0.2196 -0.0614  0.4586
 6379SOL    HW120036   1.329   1.192   3.150 -0.5904  0.8249  1.4756
 6379SOL    HW220037   1.227   1.137   3.265 -1.8118 -1.9560 -0.8143
 6380SOL     OW20038   6.172   2.061   2.440  0.0428  0.0512  0.0010
 6380SOL    HW120039   6.204   1.991   2.377 -0.6164 -0.6667  0.4549
 6380SOL    HW220040   6.090   2.105   2.404 -0.7417 -0.8356  0.6466
 6381SOL     OW20041   0.504   4.037   1.964  0.3396 -0.4489  0.0654
 6381SOL    HW120042   0.424   3.977   1.954  0.5538 -0.8174  0.4979
 6381SOL    HW220043   0.549   4.018   2.052  1.5230 -1.0064 -0.6292
 6382SOL     OW20044   2.231   2.074   0.842  0.5905 -0.6399  0.0536
 6382SOL    HW120045   2.272   2.158   0.805 -0.9004 -0.7479 -1.9929
 6382SOL    HW220046   2.303   2.005   0.855  1.5515  0.3208 -0.0538
 6383SOL     OW20047   5.598   5.770   4.525  0.5305 -0.4839 -0.0074
 6383SOL    HW120048   5.509   5.812   4.504  0.3055 -1.7089 -1.6684
 6383SOL    HW220049   5.583   5.689   4.581  0.4404 -1.4555 -1.3919
 6384SOL     OW20050   3.442   2.136   6.933  0.2116  0.1992 -0.4313
 6384SOL    HW120051   3.390   2.220   6.950  1.2461  0.3032  3.0287
 6384SOL    HW220052   3.379   2.061   6.912 -1.3015  0.6636  2.0315
 6385SOL     OW20053   2.681   1.340   1.578  0.1201 -0.6750 -0.5445
 6385SOL    HW120054   2.634   1.263   1.535 -1.5149 -0.2457  0.3720
 6385SOL    HW220055   2.663   1.338   1.677  0.2647  0.7376 -0.4792
 6386SOL     OW20056   6.349   5.562   2.243  0.0313  0.4224 -0.6522
 6386SOL    HW120057   6.366   5.654   2.276  0.4098  0.7820 -1.7947
 6386SOL    HW220058   6.369   5.557   2.145 -1.4213 -0.4908 -0.9442
 6387SOL     OW20059   2.643   4.111   6.394  0.3019 -0.2054 -0.1840
 6387SOL    HW120060   2.633   4.089   6.297  3.0598  0.2290 -0.6661
 6387SOL    HW220061   2.717   4.055   6.433 -1.3350 -1.0180  1.9526
 6388SOL     OW20062   5.113   1.908   0.369  0.2642  0.1552  0.2183
 6388SOL    HW120063   5.050   1.864   0.305  0.4433  0.4937 -0.1990
 6388SOL    HW220064   5.097   1.873   0.461 -0.6734  0.3900  0.1571
 6389SOL     OW20065   4.963   0.422   6.924 -0.0860  0.6684  0.1295
 6389SOL    HW120066   4.984   0.341   6.869 -0.0727  0.8860 -0.1902
 6389SOL    HW220067   4.944   0.395   7.018  0.3252  0.3336  0.1185
 6390SOL     OW20068   2.778   4.830   1.809 -0.1595  0.4283 -0.7621
 6390SOL    HW120069   2.690   4.868   1.839 -0.7419  0.1050 -1.9979
 6390SOL    HW220070   2.801   4.751   1.866 -2.2602 -1.4463 -2.3450
 6391SOL     OW20071   1.970   5.249   1.577 -0.3103  0.2989 -0.0090
 6391SOL    HW120072   2.047   5.229   1.638 -0.8896 -1.4353  0.1998
 6391SOL    HW220073   1.997   5.321   1.513  1.6987 -0.6497 -0.3195
 6392SOL     OW20074   6.256   4.622   1.034  0.5911  0.0159  0.2278
 6392SOL    HW120075   6.241   4.575   1.120 -2.4366  0.1659 -0.1242
 6392SOL    HW220076   6.249   4.557   0.958 -2.0744  0.6437 -0.1593
 6393SOL     OW20077   6.011   0.094   4.701 -0.6113  0.2729  0.6611
 6393SOL    HW120078   5.956   0.018   4.734 -1.4961  0.9401  0.7477
 6393SOL    HW220079   6.094   0.102   4.757 -0.6589 -0.4357  0.8370
 6394SOL     OW20080   6.999   0.066   4.240 -0.4584 -0.3399 -0.7855
 6394SOL    HW120081   6.962   0.114   4.160 -1.1124  1.8438  0.7285
 6394SOL    HW220082   7.083   0.111   4.270  0.1710 -1.5755 -0.6148
 6395SOL     OW20083   3.155   5.384   5.994 -0.2111 -0.3052  0.0201
 6395SOL    HW120084   3.057   5.401   5.986  0.1778  3.2308  0.8555
 6395SOL    HW220085   3.192   5.437   6.071  2.4736 -0.8507 -0.7824
 6396SOL     OW20086   3.505   4.475   6.486 -0.2932  0.1586 -0.1963
 6396SOL    HW120087   3.436   4.438   6.549 -1.1728 -0.3234 -1.4008
 6396SOL    HW220088   3.460   4.519   6.409  0.7650  0.5701 -0.5984
 6397SOL     OW20089   5.125   3.761   2.104  0.3473  0.7951 -0.0964
 6397SOL    HW120090   5.051   3.795   2.162  1.1219  1.7373  0.3726
 6397SOL    HW220091   5.165   3.679   2.146  1.0379  1.5846  0.8388
 6398SOL     OW20092   5.108   2.041   6.033  0.4338 -0.0431 -0.1956
 6398SOL    HW120093   5.140   1.994   6.115  1.0595  0.8257  0.0690
 6398SOL    HW220094   5.055   1.977   5.976  3.1778 -1.7685 -0.9889
 6399SOL     OW20095   6.815   1.216   5.038  0.2881 -0.2117 -0.1637
 6399SOL    HW120096   6.834   1.304   5.080  0.3706 -0.3395  0.0694
 6399SOL    HW220097   6.880   1.198   4.965 -0.5072  0.4926 -1.0699
 6400SOL     OW20098   6.827   1.535   1.982  0.3526  0.2320 -0.1839
 6400SOL    HW120099   6.791   1.613   2.032  0.4518 -0.3393  0.7972
 6400SOL    HW220100   6.755   1.467   1.970  0.7084 -0.2768  0.5033
 6401SOL     OW20101   2.588   2.440   0.308 -0.0693 -0.0970  0.0774
 6401SOL    HW120102   2.561   2.464   0.401 -1.8176  0.2095 -0.4699
 6401SOL    HW220103   2.674   2.487   0.285 -0.5056  1.1962  0.9445
 6402SOL     OW20104   2.960   0.624   3.724 -0.7421  0.0309  0.3555
 6402SOL    HW120105   2.979   0.720   3.747  0.3039 -0.3817  1.3235
 6402SOL    HW220106   2.999   0.603   3.634 -1.6672  0.7079 -0.2181
 6403SOL     OW20107   4.004   3.316   4.071  0.3922  0.1046  0.1073
 6403SOL    HW120108   4.046   3.368   4.146 -2.7452  0.2323  1.9227
 6403SOL    HW220109   3.986   3.223   4.102  1.1327 -0.5411 -1.3328
 6404SOL     OW20110   0.919   0.152   3.300 -0.0659  0.3497 -0.4648
 6404SOL    HW120111   0.979   0.139   3.379 -0.6434 -2.0242 -0.3634
 6404SOL    HW220112   0.970   0.197   3.227  1.2380  0.2270  0.3386
 6405SOL     OW20113   2.240   0.910   5.437 -0.4391  0.1543  0.4432
 6405SOL    HW120114   2.245   0.843   5.511  1.1775 -0.8243 -0.5058
 6405SOL    HW220115   2.153   0.900   5.388 -1.4784  0.7407  2.0941
 6406SOL     OW20116   6.561   1.566   1.829  0.0386  0.6453 -0.3670
 6406SOL    HW120117   6.547   1.476   1.871  1.8014 -0.2306 -1.4948
 6406SOL    HW220118   6.558   1.557   1.729 -1.2823  2.1493 -0.4947
 6407SOL     OW20119   3.199   3.384   5.118 -0.4448  1.1499 -0.4740
 6407SOL    HW120120   3.100   3.375   5.128 -0.1966 -0.3886  1.1527
 6407SOL    HW220121   3.221   3.412   5.024 -2.4462  2.8129 -0.5236
 6408SOL     OW20122   1.791   2.722   1.665 -0.3256 -0.1083 -0.0235
 6408SOL    HW120123   1.701   2.682   1.673 -0.5809  0.1758 -1.2546
 6408SOL    HW220124   1.853   2.680   1.731 -0.8254 -1.7922 -0.5992
 6409SOL     OW20125   3.459   4.165   1.009 -0.3496  0.0218 -0.0240
 6409SOL    HW120126   3.360   4.170   0.997 -0.3461 -0.3202 -0.2026
 6409SOL    HW220127   3.502   4.141   0.922 -0.2111 -1.0097  0.3201
 6410SOL     OW20128   1.145   0.401   3.255  0.4167 -0.7047  0.0256
 6410SOL    HW120129   1.076   0.452   3.204  1.3978 -0.1180 -0.7544
 6410SOL    HW220130   1.224   0.383   3.196  1.8207  0.4800  1.4308
 6411SOL     OW20131   1.923   3.009   3.820 -0.1580  0.3668  0.5363
 6411SOL    HW120132   1.978   3.092   3.815  1.3774 -0.4878  2.1775
 6411SOL    HW220133   1.978   2.931   3.791 -0.1696 -0.6291  2.9881
 6412SOL     OW20134   4.075   2.228   3.114 -0.6909  0.1167 -0.1711
 6412SOL    HW120135   4.085   2.167   3.193 -0.3465 -1.2546 -1.2197
 6412SOL    HW220136   3.994   2.201   3.061  0.0814 -0.1839 -1.2501
 6413SOL     OW20137   4.494   2.505   0.110  0.0387 -0.4361 -0.1451
 6413SOL    HW120138   4.511   2.461   0.199 -1.1388 -1.1719 -0.2603
 6413SOL    HW220139   4.528   2.446   0.037 -1.6326 -1.2617 -0.3049
 6414SOL     OW20140   6.934   5.071   5.016  0.3329  0.3712  0.1203
 6414SOL    HW120141   6.991   5.027   4.947  1.4626 -0.4867  1.5329
 6414SOL    HW220142   6.957   5.168   5.021  1.2777  0.1527  0.2609
 6415SOL     OW20143   2.687   0.824   3.860  0.2560  0.3926 -0.6169
 6415SOL    HW120144   2.717   0.844   3.953 -0.6518  1.2506 -0.5058
 6415SOL    HW220145   2.746   0.873   3.795  1.4510 -0.8935 -0.5576
 6416SOL     OW20146   1.629   3.810   0.703 -0.2554  0.0516  0.5657
 6416SOL    HW120147   1.643   3.768   0.613 -0.5291  1.4802 -0.1773
 6416SOL    HW220148   1.698   3.882   0.716 -0.2287 -0.1417  1.4984
 6417SOL     OW20149   3.227   6.118   1.629 -0.0792 -0.1987  0.4364
 6417SOL    HW120150   3.130   6.125   1.655 -1.1633 -1.2025 -2.8023
 6417SOL    HW220151   3.261   6.027   1.652 -1.2660 -1.3703 -2.1206
 6418SOL     OW20152   0.552   0.714   2.923 -0.3067 -0.4207  0.6835
 6418SOL    HW120153   0.499   0.630   2.928 -0.1699 -0.5183  0.5058
 6418SOL    HW220154   0.593   0.734   3.012 -1.2406  0.0484  1.0214
 6419SOL     OW20155   4.947   2.735   1.368 -0.2910 -0.2682 -0.1719
 6419SOL    HW120156   4.889   2.683   1.431  1.8769  0.2161  2.4352
 6419SOL    HW220157   5.032   2.684   1.353  0.3586  0.8797 -0.5055
 6420SOL     OW20158   5.801   0.860   7.008 -0.1232 -0.5617  0.4511
 6420SOL    HW120159   5.750   0.858   6.922 -0.7218  0.3501  0.7697
 6420SOL    HW220160   5.769   0.936   7.064  2.3467  0.7812  0.2122
 6421SOL     OW20161   5.495   2.945   1.895  0.0062 -0.1889  0.4691
 6421SOL    HW120162   5.451   3.024   1.936  1.1616 -0.0449  1.5012
 6421SOL    HW220163   5.458   2.861   1.936 -1.7085 -0.2532 -1.1140
 6422SOL     OW20164   6.663   6.225   6.138 -0.3731 -0.1627 -0.8185
 6422SOL    HW120165   6.649   6.263   6.229 -1.9288 -0.7328 -0.7778
 6422SOL    HW220166   6.760   6.216   6.119 -0.0124 -1.2698  1.3032
 6423SOL     OW20167   3.440   0.266   5.066 -0.5056 -0.1183  0.3151
 6423SOL    HW120168   3.504   0.340   5.088 -0.4073  0.6846 -2.2604
 6423SOL    HW220169   3.447   0.245   4.968 -0.1622 -3.9331  1.0156
 6424SOL     OW20170   5.277   6.910   2.898  1.1867 -0.3944 -0.1665
 6424SOL    HW120171   5.198   6.851   2.880 -0.4172  1.2992  0.8713
 6424SOL    HW220172   5.343   6.862   2.955 -0.2019 -1.1150  0.9027
 6425SOL     OW20173   4.564   7.008   4.679  0.4607  0.1344  0.0872
 6425SOL    HW120174   4.553   7.063   4.762  1.0974 -0.3510  0.5042
 6425SOL    HW220175   4.621   6.929   4.699  0.9622  0.2284 -0.9245
 6426SOL     OW20176   4.599   0.860   0.247 -0.5270  0.8392  0.1461
 6426SOL    HW120177   4.616   0.784   0.310 -0.9510  2.7043  2.6911
 6426SOL    HW220178   4.525   0.835   0.184  1.7437 -2.1084 -1.5911
 6427SOL     OW20179   2.734   6.132   2.981  0.3811 -0.0513 -0.0314
 6427SOL    HW120180   2.687   6.153   2.895 -0.2486  0.1536  0.3543
 6427SOL    HW220181   2.812   6.193   2.993  2.3262 -1.9936 -1.8904
 6428SOL     OW20182   2.875   5.674   3.086 -0.2027  0.2370 -0.4028
 6428SOL    HW120183   2.858   5.577   3.067  1.1586 -0.0201 -0.3721
 6428SOL    HW220184   2.831   5.729   3.015  0.0135 -0.4602 -1.0906
 6429SOL     OW20185   5.359   1.152   4.684  0.6442 -0.5397 -0.0059
 6429SOL    HW120186   5.365   1.141   4.783  0.8819  0.7268  0.1342
 6429SOL    HW220187   5.427   1.218   4.653  0.3239 -0.6458 -0.9699
 6430SOL     OW20188   5.042   5.355   4.665  0.6106 -0.3136 -0.0371
 6430SOL    HW120189   5.060   5.388   4.758  0.6478  0.0779 -0.1793
 6430SOL    HW220190   5.127   5.360   4.611  0.5395 -0.3338 -0.1521
 6431SOL     OW20191   0.626   6.646   0.013  0.4118 -0.6705  0.2828
 6431SOL    HW120192   0.599   6.612   0.103  0.4149 -0.5500  0.3296
 6431SOL    HW220193   0.660   6.740   0.021  1.7861 -1.1526  0.3715
 6432SOL     OW20194   0.236   0.827   2.164  0.2841  0.7581 -0.1598
 6432SOL    HW120195   0.326   0.851   2.200  0.7997  0.4409 -1.1854
 6432SOL    HW220196   0.211   0.735   2.194  0.6762  0.5250 -0.5313
 6433SOL     OW20197   6.647   5.926   2.450  0.1666 -0.2606 -0.7103
 6433SOL    HW120198   6.717   5.999   2.449 -0.0001 -0.0967 -1.8116
 6433SOL    HW220199   6.644   5.882   2.360 -3.5468  2.0860 -1.9935
 6434SOL     OW20200   6.832   6.164   2.660 -0.5523 -0.0297  1.0821
 6434SOL    HW120201   6.765   6.213   2.716 -1.6847 -0.3991  0.0898
 6434SOL    HW220202   6.922   6.205   2.673 -1.2405  1.4882  1.2584
 6435SOL     OW20203   6.596   4.013   4.456  0.0032 -0.0953 -0.2696
 6435SOL    HW120204   6.563   4.104   4.429  1.0709  0.5354  0.5032
 6435SOL    HW220205   6.534   3.943   4.418 -2.7263  1.0426  1.7333
 6436SOL     OW20206   4.058   5.843   6.513  0.5902  0.6387 -0.2319
 6436SOL    HW120207   4.036   5.867   6.419  2.3786 -0.7234 -1.0700
 6436SOL    HW220208   4.155   5.862   6.530  0.6495 -0.5337  0.8626
 6437SOL     OW20209   4.725   5.544   3.173 -0.7187  0.1913  0.2432
 6437SOL    HW120210   4.820   5.541   3.145 -1.1918  2.3715 -1.9516
 6437SOL    HW220211   4.719   5.572   3.269  0.8701  2.1925 -0.1765
 6438SOL     OW20212   5.311   2.008   5.789  0.1499  1.1180  0.2210
 6438SOL    HW120213   5.222   2.039   5.755 -0.0835  0.6494  0.4073
 6438SOL    HW220214   5.306   1.912   5.816  1.0043  0.7664 -0.8022
 6439SOL     OW20215   4.693   4.092   5.290  0.2638  0.5462 -0.7027
 6439SOL    HW120216   4.704   4.092   5.390  1.9964  1.1350 -0.8509
 6439SOL    HW220217   4.606   4.135   5.266 -0.1786  0.3991  0.5574
 6440SOL     OW20218   3.394   2.660   1.866  0.3848 -0.6617 -0.5335
 6440SOL    HW120219   3.446   2.735   1.826 -1.2902  1.0929  0.3530
 6440SOL    HW220220   3.436   2.632   1.952 -0.6677  1.5816  0.8090
 6441SOL     OW20221   0.720   2.698   5.256  0.3031 -0.1249 -0.1627
 6441SOL    HW120222   0.730   2.771   5.323  2.9390 -0.9466  0.4641
 6441SOL    HW220223   0.804   2.643   5.254 -0.3402 -1.1818 -2.9142
 6442SOL     OW20224   5.465   4.568   6.804 -0.3284 -0.1207 -0.0910
 6442SOL    HW120225   5.450   4.469   6.811  0.4015 -0.2828 -0.7591
 6442SOL    HW220226   5.451   4.597   6.709 -1.0303  0.5089  0.1949
 6443SOL     OW20227   4.775   3.468   0.306 -0.3326  0.0540  0.4272
 6443SOL    HW120228   4.854   3.487   0.249  1.5683 -2.1426  2.1119
 6443SOL    HW220229   4.787   3.512   0.396 -0.9789 -0.3522  0.7221
 6444SOL     OW20230   4.400   0.825   1.707 -0.1071  0.0398 -0.0594
 6444SOL    HW120231   4.341   0.745   1.714 -0.9231  0.4968 -1.3574
 6444SOL    HW220232   4.376   0.891   1.779 -0.9247  0.0527 -0.3349
 6445SOL     OW20233   2.168   2.725   1.286 -0.1927 -0.3992 -0.0369
 6445SOL    HW120234   2.099   2.688   1.224 -0.1321 -0.1584 -0.2520
 6445SOL    HW220235   2.163   2.825   1.285 -1.9302 -0.4049  2.3256
 6446SOL     OW20236   1.365   4.436   0.725  0.6123 -0.6235  0.3502
 6446SOL    HW120237   1.422   4.441   0.642  0.5672 -1.2919  0.2676
 6446SOL    HW220238   1.295   4.366   0.712 -1.5223  1.5006 -0.3180
 6447SOL     OW20239   4.795   4.068   2.406 -0.2139  0.2199 -0.2139
 6447SOL    HW120240   4.756   4.093   2.494 -0.5343  0.6958 -0.4906
 6447SOL    HW220241   4.762   4.130   2.335  0.2934  0.0415 -0.6176
 6448SOL     OW20242   4.216   5.208   4.984  0.0175  0.0739 -0.1060
 6448SOL    HW120243   4.169   5.293   5.007  0.9959  0.9838 -1.3440
 6448SOL    HW220244   4.162   5.158   4.916 -0.5730 -0.3206  0.6447
 6449SOL     OW20245   5.013   1.503   4.452 -0.0140  0.0513  0.0500
 6449SOL    HW120246   5.037   1.592   4.492 -1.3357  1.9327 -2.8966
 6449SOL    HW220247   4.996   1.437   4.524  1.5639  2.0175  2.3915
 6450SOL     OW20248   4.878   6.258   5.192 -0.0886 -0.2827 -0.0892
 6450SOL    HW120249   4.892   6.210   5.105 -2.4122  0.6938 -1.1018
 6450SOL    HW220250   4.944   6.332   5.200 -0.4004  0.1946 -1.5290
 6451SOL     OW20251   3.934   2.933   1.342  0.5466  0.4277  0.2626
 6451SOL    HW120252   3.850   2.881   1.327  0.4807  0.5758  0.0978
 6451SOL    HW220253   3.926   3.022   1.296  0.0478  1.2076  1.7775
 6452SOL     OW20254   6.984   0.694   1.086 -0.6089  0.2879  0.0883
 6452SOL    HW120255   7.009   0.770   1.025 -0.8039  0.0566 -0.2867
 6452SOL    HW220256   7.038   0.699   1.169 -0.0668  0.4026 -0.2644
 6453SOL     OW20257   3.687   4.074   0.560  0.1905 -0.1333  0.6088
 6453SOL    HW120258   3.653   4.131   0.485  1.3537 -0.6986 -0.3896
 6453SOL    HW220259   3.771   4.115   0.597  0.8669 -1.0251  0.0851
 6454SOL     OW20260   2.456   5.541   1.971 -0.0682  0.0086 -0.2903
 6454SOL    HW120261   2.480   5.444   1.965  0.6593  0.1917 -0.4419
 6454SOL    HW220262   2.365   5.551   2.011 -0.4883 -0.7747 -1.0208
 6455SOL     OW20263   2.082   5.339   2.767 -0.1548 -0.2515 -0.1894
 6455SOL    HW120264   2.179   5.356   2.748 -0.1937  1.1164  0.7046
 6455SOL    HW220265   2.072   5.301   2.858 -0.2756 -3.2755 -1.3380
 6456SOL     OW20266   1.979   0.291   0.270  0.1696 -0.1693 -1.0550
 6456SOL    HW120267   2.057   0.285   0.331 -1.4598 -3.6735  0.9882
 6456SOL    HW220268   1.954   0.387   0.257  2.0027  0.8470  1.9614
 6457SOL     OW20269   3.130   1.391   2.375  0.2598 -0.3096 -0.3347
 6457SOL    HW120270   3.031   1.398   2.388  0.4563 -0.2586  1.3381
 6457SOL    HW220271   3.153   1.414   2.281 -1.3958 -1.1540 -0.9814
 6458SOL     OW20272   6.675   4.414   3.387  0.1151  0.3026  0.2685
 6458SOL    HW120273   6.750   4.476   3.362  1.1980 -1.0150  0.1140
 6458SOL    HW220274   6.598   4.467   3.421  1.7855  1.6651  2.2281
 6459SOL     OW20275   0.698   0.396   5.053 -0.5065 -0.0122  0.1156
 6459SOL    HW120276   0.787   0.359   5.026 -0.4366  0.3671 -0.2009
 6459SOL    HW220277   0.656   0.337   5.121  0.4476  0.3500  1.0474
 6460SOL     OW20278   2.219   0.617   0.177  0.0764 -0.0149 -0.1949
 6460SOL    HW120279   2.308   0.597   0.218  0.2313 -0.7332 -0.8601
 6460SOL    HW220280   2.161   0.663   0.244  1.2686  1.3418 -0.0206
 6461SOL     OW20281   4.379   5.509   2.711 -0.1912  0.1184 -0.3511
 6461SOL    HW120282   4.376   5.462   2.623  2.5508 -2.6738  0.8202
 6461SOL    HW220283   4.457   5.571   2.713  0.2848 -0.4759  0.3150
 6462SOL     OW20284   0.902   2.019   1.746  0.1050  0.7580 -0.1525
 6462SOL    HW120285   0.980   1.959   1.761 -0.3812 -0.2679 -1.5034
 6462SOL    HW220286   0.821   1.980   1.790 -0.1765  0.4951 -0.8919
 6463SOL     OW20287   6.198   4.679   4.216 -0.4718  0.1370 -0.4712
 6463SOL    HW120288   6.112   4.705   4.173  0.1453  0.7648 -1.3768
 6463SOL    HW220289   6.254   4.628   4.151  0.0976  0.2817 -0.1101
 6464SOL     OW20290   3.832   1.459   3.997  0.0862  0.0067  0.0801
 6464SOL    HW120291   3.797   1.368   4.019  2.4319 -0.9654  0.1120
 6464SOL    HW220292   3.870   1.458   3.904 -1.3481  1.4631 -0.5753
 6465SOL     OW20293   0.031   3.076   3.763  0.5138 -0.1679  0.1979
 6465SOL    HW120294  -0.025   3.146   3.807  0.9227 -1.3227  2.6795
 6465SOL    HW220295  -0.002   2.985   3.789  1.8580 -0.8907 -0.5202
 6466SOL     OW20296   2.459   1.766   3.052 -0.1370 -0.0007  0.3909
 6466SOL    HW120297   2.391   1.693   3.049  0.1860 -0.3133 -2.8324
 6466SOL    HW220298   2.414   1.853   3.070 -1.4315 -0.2345 -1.4576
 6467SOL     OW20299   1.531   0.949   5.080  0.1694 -0.0008 -0.4157
 6467SOL    HW120300   1.569   1.013   5.147  1.3821 -2.1129  1.0698
 6467SOL    HW220301   1.602   0.923   5.014 -0.0298 -0.4632 -0.4543
 6468SOL     OW20302   3.351   4.978   0.204 -0.2616  0.3240  0.0035
 6468SOL    HW120303   3.420   4.978   0.277  0.0639 -1.8132 -0.2232
 6468SOL    HW220304   3.327   5.072   0.180  0.1694  1.1020  2.3327
 6469SOL     OW20305   1.078   0.721   1.853  0.6686  0.3467 -0.0483
 6469SOL    HW120306   1.037   0.740   1.942 -0.9992  0.2369 -0.7571
 6469SOL    HW220307   1.178   0.727   1.860  0.5251  1.4372  1.5525
 6470SOL     OW20308   4.845   0.753   5.500 -0.1095 -0.0554 -0.1390
 6470SOL    HW120309   4.900   0.689   5.555  0.0871  0.5437  0.3821
 6470SOL    HW220310   4.749   0.724   5.501  0.2693 -1.4568 -1.5587
 6471SOL     OW20311   4.357   6.406   3.310  0.8748  1.1821 -0.1912
 6471SOL    HW120312   4.432   6.344   3.285 -1.3299 -0.7525 -2.5438
 6471SOL    HW220313   4.360   6.487   3.252  0.9448  0.9339 -0.5405
 6472SOL     OW20314   2.220   6.464   5.935 -0.3344  0.5443  0.0543
 6472SOL    HW120315   2.275   6.526   5.879 -0.3639  1.5571  1.0991
 6472SOL    HW220316   2.245   6.476   6.031 -0.5217 -0.9033  0.2978
 6473SOL     OW20317   4.666   6.015   0.081  0.2205  0.1251  0.1401
 6473SOL    HW120318   4.587   5.977   0.033 -0.2206  0.2496  0.7474
 6473SOL    HW220319   4.645   6.021   0.179  0.7273  0.8057  0.2126
 6474SOL     OW20320   3.794   1.043   3.238  0.4651  0.1252 -0.3503
 6474SOL    HW120321   3.835   1.133   3.253 -1.4429  0.8959  0.4645
 6474SOL    HW220322   3.715   1.032   3.297  1.1640 -2.4737  0.2145
 6475SOL     OW20323   3.965   2.200   2.049 -0.2600 -0.4912 -0.1089
 6475SOL    HW120324   3.990   2.179   1.954 -1.5356  0.7668 -0.7489
 6475SOL    HW220325   3.866   2.204   2.058 -0.2009 -1.3670  1.4870
 6476SOL     OW20326   3.167   2.084   0.522  0.0078  0.1193 -0.3737
 6476SOL    HW120327   3.104   2.159   0.542  0.6759  1.3173 -2.3557
 6476SOL    HW220328   3.240   2.118   0.462  1.3917 -1.7092  0.1721
 6477SOL     OW20329   0.780   6.884   2.606  0.0048 -0.0565 -0.0375
 6477SOL    HW120330   0.733   6.903   2.520 -0.4306  0.2363  0.2641
 6477SOL    HW220331   0.850   6.954   2.623 -0.7867  0.6286  0.4804
 6478SOL     OW20332   3.791   1.282   3.610 -0.6945 -0.2511 -0.1651
 6478SOL    HW120333   3.822   1.189   3.591  0.9861  0.3194 -0.4234
 6478SOL    HW220334   3.850   1.322   3.680 -0.9186  0.8683 -0.6046
 6479SOL     OW20335   5.749   5.984   0.813 -0.0429  0.2693  0.0672
 6479SOL    HW120336   5.751   5.886   0.794 -1.0235  0.4450 -1.0279
 6479SOL    HW220337   5.716   6.033   0.733 -3.6499  1.1216  1.8472
 6480SOL     OW20338   6.382   2.602   3.210  0.0285  0.1858  0.0515
 6480SOL    HW120339   6.394   2.523   3.270 -2.4298 -0.7393 -0.5185
 6480SOL    HW220340   6.366   2.684   3.265 -0.5484 -0.3413  0.6899
 6481SOL     OW20341   5.053   1.141   1.834 -0.6225 -0.3198 -0.3463
 6481SOL    HW120342   5.131   1.080   1.841  0.1847  0.6229 -0.8714
 6481SOL    HW220343   4.973   1.090   1.800 -0.9329 -1.8444  2.3837
 6482SOL     OW20344   1.755   4.577   1.565 -0.2614  0.8502 -0.4325
 6482SOL    HW120345   1.837   4.525   1.587 -0.6264  1.2394  2.1837
 6482SOL    HW220346   1.764   4.670   1.599 -2.0541  0.6823  0.6312
 6483SOL     OW20347   0.149   5.114   6.626  0.2452 -0.1313  0.2416
 6483SOL    HW120348   0.053   5.113   6.655 -0.0450 -1.1484 -0.7049
 6483SOL    HW220349   0.193   5.198   6.660 -0.3143 -0.7703  2.7216
 6484SOL     OW20350   0.167   0.157   4.883  0.0161  0.2805 -0.1948
 6484SOL    HW120351   0.166   0.065   4.923  0.6222  1.1093  1.8238
 6484SOL    HW220352   0.256   0.199   4.898 -0.8443  1.9068  0.6051
 6485SOL     OW20353   0.919   1.979   5.880  0.1996 -0.0424 -0.5407
 6485SOL    HW120354   0.938   1.885   5.851  0.6757 -0.4028  0.8222
 6485SOL    HW220355   0.964   2.043   5.818  0.5565 -0.7492 -1.0238
 6486SOL     OW20356   6.621   0.456   6.450 -0.1407 -0.0320  0.3900
 6486SOL    HW120357   6.542   0.457   6.389 -0.2881  0.4999  0.5901
 6486SOL    HW220358   6.592   0.479   6.543  0.1063 -0.7034  0.6388
 6487SOL     OW20359   1.871   1.575   0.830 -0.5249 -0.1264  0.4483
 6487SOL    HW120360   1.949   1.514   0.832 -1.1413 -0.9235  0.6486
 6487SOL    HW220361   1.901   1.666   0.802  0.0450 -1.0614 -2.2693
 6488SOL     OW20362   2.455   6.182   6.406  0.2617 -0.2435  0.0749
 6488SOL    HW120363   2.387   6.117   6.439  1.2231 -1.2519  0.1457
 6488SOL    HW220364   2.442   6.270   6.450 -1.8326 -0.0114 -0.9156
 6489SOL     OW20365   4.879   6.542   2.085 -0.3402 -0.0570 -0.7745
 6489SOL    HW120366   4.931   6.463   2.118 -1.4682 -0.3379  0.4215
 6489SOL    HW220367   4.837   6.589   2.163  0.4930  1.8814 -1.4359
 6490SOL     OW20368   6.406   3.123   0.953  0.1871 -0.3155 -0.1060
 6490SOL    HW120369   6.428   3.071   1.035 -2.6735  0.4786  1.2678
 6490SOL    HW220370   6.482   3.185   0.932  1.6887 -1.7423  0.9066
 6491SOL     OW20371   6.164   0.926   3.567  0.0480 -0.8896  0.4643
 6491SOL    HW120372   6.121   0.968   3.647 -0.4789  0.1555 -0.3455
 6491SOL    HW220373   6.263   0.925   3.580 -0.0384 -0.8299  1.1782
 6492SOL     OW20374   0.436   6.988   2.618  0.0426 -0.7481 -0.3996
 6492SOL    HW120375   0.465   6.943   2.703  0.2677 -0.8446 -0.5249
 6492SOL    HW220376   0.411   6.918   2.551  1.9163 -0.7775 -1.1415
 6493SOL     OW20377   6.257   6.950   6.711  0.0578 -0.5103  0.0651
 6493SOL    HW120378   6.304   6.920   6.794 -0.4264  0.5422  0.7363
 6493SOL    HW220379   6.314   7.017   6.663 -0.7369  0.7841  0.8916
 6494SOL     OW20380   5.895   2.960   1.791 -0.9282  0.0023  0.0627
 6494SOL    HW120381   5.883   3.057   1.812  0.2968 -0.0287  1.0370
 6494SOL    HW220382   5.954   2.950   1.711  0.2872  0.0712  0.9242
 6495SOL     OW20383   4.278   0.175   2.980 -0.1175 -0.4677  0.6849
 6495SOL    HW120384   4.282   0.136   2.888  1.9184  0.0416  0.5211
 6495SOL    HW220385   4.198   0.138   3.028  0.1226 -2.6106 -0.4459
 6496SOL     OW20386   4.460   6.493   0.950  0.0459  0.0724  0.0071
 6496SOL    HW120387   4.556   6.515   0.967 -0.1383  0.3779  0.6705
 6496SOL    HW220388   4.453   6.435   0.868  0.9379 -1.2886  0.8563
 6497SOL     OW20389   1.346   1.621   4.481 -0.1407  0.1647 -0.7250
 6497SOL    HW120390   1.284   1.646   4.556  0.4917  1.2167 -0.5408
 6497SOL    HW220391   1.336   1.523   4.462 -0.0921 -0.2070  0.9519
 6498SOL     OW20392   6.294   2.457   5.099  0.2872  0.1203 -0.3901
 6498SOL    HW120393   6.326   2.546   5.068  0.3259  0.0590 -0.5261
 6498SOL    HW220394   6.194   2.454   5.097  0.2872  0.1408 -0.4421
 6499SOL     OW20395   6.615   3.452   1.910  0.0377  0.0724  0.5380
 6499SOL    HW120396   6.516   3.469   1.912 -0.3027 -1.4983 -1.0210
 6499SOL    HW220397   6.642   3.405   1.994 -0.3881  1.0547  1.2586
 6500SOL     OW20398   6.756   4.724   0.284 -0.2283 -0.3483 -0.3548
 6500SOL    HW120399   6.684   4.746   0.349 -2.5075 -0.1880 -2.7682
 6500SOL    HW220400   6.784   4.808   0.237 -1.1550 -0.9193 -1.9943
 6501SOL     OW20401   1.523   5.278   7.008  0.9862 -0.5327 -0.0457
 6501SOL    HW120402   1.478   5.359   7.047  2.4964  0.8925 -1.1167
 6501SOL    HW220403   1.515   5.202   7.073 -1.2267  0.1845  0.6203
 6502SOL     OW20404   2.337   5.141   4.912 -0.0472  0.0824  0.2041
 6502SOL    HW120405   2.388   5.079   4.852  0.1111 -0.4482  0.8709
 6502SOL    HW220406   2.239   5.129   4.899 -0.0135  0.5949 -0.5705
 6503SOL     OW20407   5.114   1.670   5.306 -0.4214 -0.0645 -0.2815
 6503SOL    HW120408   5.111   1.735   5.383  0.1496  2.6959 -2.4310
 6503SOL    HW220409   5.078   1.582   5.336  2.1899  0.0162  3.8547
 6504SOL     OW20410   6.022   0.731   0.415  0.0196  0.3618  0.6370
 6504SOL    HW120411   6.047   0.762   0.324  0.8256 -1.0906  0.3320
 6504SOL    HW220412   6.006   0.810   0.475 -0.6757  1.3372 -0.7774
 6505SOL     OW20413   5.601   2.517   5.773 -0.0395 -0.4732 -0.4342
 6505SOL    HW120414   5.580   2.439   5.833 -0.7480  0.1895  0.2077
 6505SOL    HW220415   5.637   2.484   5.686  0.1058 -1.4982  0.0036
 6506SOL     OW20416   6.632   0.521   5.481  0.1278  0.3943 -0.5126
 6506SOL    HW120417   6.533   0.531   5.468 -0.0693  1.1560  1.4035
 6506SOL    HW220418   6.674   0.611   5.492  0.5721 -0.0308  1.6350
 6507SOL     OW20419   3.502   5.429   1.277 -0.0584 -0.0526 -0.0689
 6507SOL    HW120420   3.599   5.431   1.299 -0.2324  0.9844  0.6823
 6507SOL    HW220421   3.456   5.361   1.334  0.0581  0.2132  0.3466
 6508SOL     OW20422   4.959   3.201   0.294 -0.4060 -0.8307  0.0913
 6508SOL    HW120423   4.932   3.275   0.231 -0.6414 -0.8920  0.1169
 6508SOL    HW220424   5.020   3.238   0.364 -0.5511 -0.6487  0.1253
 6509SOL     OW20425   5.451   2.272   0.790  0.4148 -0.0838 -0.8733
 6509SOL    HW120426   5.406   2.331   0.724 -0.8644 -1.0115 -0.8557
 6509SOL    HW220427   5.386   2.248   0.863  1.5627  0.2853  0.3157
 6510SOL     OW20428   1.576   0.496   1.310 -0.6012  0.4223 -0.2080
 6510SOL    HW120429   1.530   0.428   1.366 -3.5636  1.6913 -0.9092
 6510SOL    HW220430   1.637   0.450   1.245 -0.4931 -1.3123  1.0393
 6511SOL     OW20431   2.776   5.477   4.618 -0.0662  0.6198 -0.2425
 6511SOL    HW120432   2.757   5.465   4.715 -0.8283 -3.5541 -0.7467
 6511SOL    HW220433   2.853   5.419   4.592  0.8795  2.5209 -2.0123
 6512SOL     OW20434   0.537   3.102   3.567 -0.4359  0.4653 -0.1227
 6512SOL    HW120435   0.584   3.178   3.612 -0.2130  0.8999 -1.0762
 6512SOL    HW220436   0.593   3.068   3.492  0.3500 -1.8946  1.4173
 6513SOL     OW20437   2.676   1.948   4.666 -0.2806 -0.2202  0.4020
 6513SOL    HW120438   2.769   1.975   4.688 -0.4665  1.2494 -0.4442
 6513SOL    HW220439   2.652   1.865   4.716  1.1901 -0.1653  1.2525
 6514SOL     OW20440   6.328   1.384   2.490  0.4495 -0.3722 -0.4404
 6514SOL    HW120441   6.424   1.390   2.463  0.7948  2.2628  1.0270
 6514SOL    HW220442   6.321   1.342   2.580  0.3670  0.3713 -0.0886
 6515SOL     OW20443   5.331   1.832   2.465 -0.0488 -0.3363 -0.1155
 6515SOL    HW120444   5.395   1.774   2.414  0.6837  0.3912 -0.0556
 6515SOL    HW220445   5.269   1.775   2.519 -1.3279 -1.1706 -2.3448
 6516SOL     OW20446   4.394   0.861   0.715  0.0842  0.4171  0.5911
 6516SOL    HW120447   4.422   0.925   0.644 -0.5973 -0.6621 -0.6948
 6516SOL    HW220448   4.341   0.910   0.784 -1.0435  1.1528 -0.7318
 6517SOL     OW20449   1.739   1.640   0.073  0.1691 -0.0568 -0.3204
 6517SOL    HW120450   1.747   1.590   0.159 -1.2944 -0.0088 -0.1243
 6517SOL    HW220451   1.755   1.738   0.091 -0.9107  0.0642  0.0731
 6518SOL     OW20452   1.460   0.123   2.291 -0.2961 -0.3025  0.0119
 6518SOL    HW120453   1.538   0.166   2.245  0.9015  0.0632  2.2557
 6518SOL    HW220454   1.487   0.031   2.322 -1.0076 -0.4579  0.1818
 6519SOL     OW20455   5.652   4.176   0.459 -0.7647  0.0338 -0.1855
 6519SOL    HW120456   5.558   4.208   0.457 -0.4824  1.1006  1.5713
 6519SOL    HW220457   5.713   4.251   0.484  0.4924 -0.7989 -0.6110
 6520SOL     OW20458   2.329   1.517   3.703  0.4212  0.6507  0.7732
 6520SOL    HW120459   2.241   1.553   3.732 -0.5462 -1.0505  0.0990
 6520SOL    HW220460   2.380   1.587   3.654 -1.1802  1.2454 -0.0896
 6521SOL     OW20461   4.888   5.373   2.514 -0.1564 -0.0324 -0.1426
 6521SOL    HW120462   4.836   5.352   2.431  0.5673  1.9534 -1.1582
 6521SOL    HW220463   4.825   5.409   2.584 -0.5651 -0.3995 -0.3152
 6522SOL     OW20464   6.203   4.379   0.208 -0.5915  0.7057 -0.1810
 6522SOL    HW120465   6.160   4.416   0.125 -0.5982 -0.3995 -0.6775
 6522SOL    HW220466   6.300   4.406   0.210 -0.5965  0.7545 -0.5356
 6523SOL     OW20467   3.225   4.394   6.060  0.3667 -0.0882 -0.3893
 6523SOL    HW120468   3.200   4.354   5.972 -1.0394  0.1452 -0.1223
 6523SOL    HW220469   3.260   4.323   6.120  0.8936 -0.3335 -0.9760
 6524SOL     OW20470   5.942   5.649   4.566  0.5998  0.3436  0.3272
 6524SOL    HW120471   5.955   5.706   4.647  0.8270 -0.3152  0.7645
 6524SOL    HW220472   5.850   5.610   4.568  0.4152  0.7509 -0.0144
 6525SOL     OW20473   6.234   1.558   2.303  0.2553  0.3202  0.2172
 6525SOL    HW120474   6.264   1.493   2.373 -0.7098  0.3256  0.6560
 6525SOL    HW220475   6.139   1.584   2.320 -0.0830  0.1473 -1.2388
 6526SOL     OW20476   3.411   0.211   4.794 -0.4818  0.1808 -0.3739
 6526SOL    HW120477   3.353   0.189   4.716  1.8529 -0.4375 -2.0292
 6526SOL    HW220478   3.504   0.232   4.763 -0.2662  3.4438  1.9432
 6527SOL     OW20479   2.968   1.979   1.726 -0.1312 -0.0623  0.0035
 6527SOL    HW120480   2.925   2.016   1.644 -0.1288 -0.0513  0.0072
 6527SOL    HW220481   3.005   2.054   1.781 -1.7561  0.1006  0.9422
 6528SOL     OW20482   2.478   2.185   0.968 -0.4176 -0.3194 -0.5132
 6528SOL    HW120483   2.530   2.185   0.883  2.6474  1.7233  1.1975
 6528SOL    HW220484   2.516   2.117   1.031 -1.7854 -0.8533 -0.2097
 6529SOL     OW20485   6.785   5.420   3.210 -0.6947  0.1043 -0.4064
 6529SOL    HW120486   6.798   5.434   3.111 -1.9640  0.4844 -0.5322
 6529SOL    HW220487   6.768   5.508   3.254 -0.6466 -0.1304  0.0829
 6530SOL     OW20488   3.290   0.201   3.400 -0.0350 -0.0569  0.0908
 6530SOL    HW120489   3.246   0.111   3.399  0.3628 -0.2548 -1.1055
 6530SOL    HW220490   3.237   0.263   3.458 -1.4840 -0.4827 -0.7359
 6531SOL     OW20491   4.017   2.239   0.688  0.2097  0.0216  0.1390
 6531SOL    HW120492   4.010   2.333   0.720 -0.1498  0.1861 -0.4013
 6531SOL    HW220493   3.997   2.176   0.763 -2.1292  0.4083 -0.0854
 6532SOL     OW20494   6.393   2.951   2.740  0.0697  0.2475 -0.0653
 6532SOL    HW120495   6.328   2.946   2.815 -0.1136 -2.1264 -0.2811
 6532SOL    HW220496   6.432   3.043   2.734 -1.8660  1.2065  1.2266
 6533SOL     OW20497   6.169   5.576   2.959 -0.5518  0.1577  0.5120
 6533SOL    HW120498   6.210   5.516   2.890  0.2294  0.9462  0.2804
 6533SOL    HW220499   6.235   5.590   3.033  0.0780  2.3514 -0.4002
 6534SOL     OW20500   2.908   3.448   1.818  0.0792 -0.4053 -0.7337
 6534SOL    HW120501   2.831   3.393   1.785 -0.4995  0.6220 -1.1360
 6534SOL    HW220502   2.899   3.541   1.785  0.3565  0.2697  0.9765
 6535SOL     OW20503   6.732   1.164   1.853  0.5656 -0.3948  0.3769
 6535SOL    HW120504   6.761   1.155   1.949  0.9962 -0.8844  0.2073
 6535SOL    HW220505   6.638   1.131   1.844  0.3297  0.1697  0.7309
 6536SOL     OW20506   4.451   5.885   6.948 -0.1293 -0.6435  0.1216
 6536SOL    HW120507   4.464   5.794   6.987 -0.1814 -1.0141 -0.6997
 6536SOL    HW220508   4.353   5.901   6.932 -0.0690 -0.6752 -0.2771
 6537SOL     OW20509   5.751   4.776   4.925 -0.2206  0.1826  0.2897
 6537SOL    HW120510   5.702   4.697   4.960 -1.1488  1.2730  1.5216
 6537SOL    HW220511   5.793   4.753   4.837 -2.7896 -0.8473 -0.7456
 6538SOL     OW20512   0.396   4.629   5.873 -1.0077  0.1512  0.1438
 6538SOL    HW120513   0.491   4.656   5.889 -1.5592  1.1873  1.9450
 6538SOL    HW220514   0.370   4.654   5.780 -0.0322  1.4599  0.1917
 6539SOL     OW20515   0.600   5.706   3.045  0.1999  0.0876 -0.4331
 6539SOL    HW120516   0.692   5.743   3.031  0.3427  0.5933  1.4815
 6539SOL    HW220517   0.589   5.679   3.141 -0.9104 -2.1231 -1.1152
 6540SOL     OW20518   2.604   0.901   2.052 -0.5625 -0.1638  0.1474
 6540SOL    HW120519   2.657   0.911   2.136  1.3783  0.9035 -1.1154
 6540SOL    HW220520   2.535   0.974   2.048 -0.5238 -0.0901  0.7162
 6541SOL     OW20521   5.159   6.677   5.826 -0.6358 -0.2217  0.5502
 6541SOL    HW120522   5.178   6.601   5.765 -0.3228 -1.9468  2.6935
 6541SOL    HW220523   5.074   6.722   5.797 -0.7859 -1.3106 -0.8042
 6542SOL     OW20524   6.171   6.889   5.299 -0.2520  0.1581  0.6292
 6542SOL    HW120525   6.103   6.954   5.264  0.7672  0.5516 -0.7110
 6542SOL    HW220526   6.213   6.927   5.382 -0.5751  0.6314  0.5809
 6543SOL     OW20527   4.306   1.703   6.073  0.4709  0.2731 -0.0535
 6543SOL    HW120528   4.285   1.800   6.089  1.1896  0.4679 -0.2707
 6543SOL    HW220529   4.309   1.655   6.161  1.2471  0.6882  0.1582
 6544SOL     OW20530   1.144   4.016   1.295  0.2358  0.0162 -0.3197
 6544SOL    HW120531   1.102   4.052   1.378  0.9309  0.5841 -0.2012
 6544SOL    HW220532   1.074   4.006   1.224 -0.9874 -3.3023  1.1681
 6545SOL     OW20533   4.246   0.993   6.775 -0.7169  0.4355  0.0087
 6545SOL    HW120534   4.163   1.048   6.765 -1.6007 -1.1046 -1.7848
 6545SOL    HW220535   4.232   0.904   6.732  2.2177  0.4821 -1.2734
 6546SOL     OW20536   4.026   2.256   4.831  0.3346  0.2168 -0.3820
 6546SOL    HW120537   4.063   2.166   4.853 -0.9819 -0.1664  0.3414
 6546SOL    HW220538   4.010   2.307   4.915 -0.7459  0.3786 -0.6723
 6547SOL     OW20539   5.610   1.814   6.394  0.2920 -0.1190  0.4773
 6547SOL    HW120540   5.621   1.720   6.428 -1.6317 -1.0642 -1.2971
 6547SOL    HW220541   5.534   1.857   6.443 -0.8144 -0.6032 -0.7372
 6548SOL     OW20542   1.992   5.607   6.099 -0.0958 -0.0728 -0.0236
 6548SOL    HW120543   2.012   5.688   6.153  0.4486 -0.3931  0.2678
 6548SOL    HW220544   2.059   5.535   6.120  0.2489 -0.1411 -1.2733
 6549SOL     OW20545   2.078   5.217   3.014 -0.4823  0.5852 -0.1855
 6549SOL    HW120546   2.005   5.224   3.082  0.5788 -0.7728  1.1563
 6549SOL    HW220547   2.068   5.131   2.963  0.0470  0.5020 -0.1549
 6550SOL     OW20548   0.845   6.916   4.165  0.1737  0.3142  0.2443
 6550SOL    HW120549   0.941   6.922   4.192  0.0533  1.5076  0.4952
 6550SOL    HW220550   0.830   6.833   4.111  0.6938 -1.4511  2.6791
 6551SOL     OW20551   2.809   2.301   6.985  0.2549 -0.6738  0.1457
 6551SOL    HW120552   2.774   2.360   6.913 -0.3286 -1.2305 -0.0303
 6551SOL    HW220553   2.886   2.248   6.950  1.6136  0.8660  0.6547
 6552SOL     OW20554   0.208   0.195   4.275 -0.3628  0.0429 -0.0070
 6552SOL    HW120555   0.254   0.226   4.358 -0.5680 -1.9053  0.8910
 6552SOL    HW220556   0.271   0.139   4.221 -1.4638 -2.3924  1.0828
 6553SOL     OW20557   4.755   2.344   3.015  0.5211  0.2839  0.0640
 6553SOL    HW120558   4.804   2.285   2.950  0.8438  1.4491 -0.7989
 6553SOL    HW220559   4.808   2.352   3.099  0.6731 -0.3175  0.0310
 6554SOL     OW20560   5.664   4.072   5.978 -0.0597 -0.1397  0.5858
 6554SOL    HW120561   5.646   4.023   6.064 -0.8523  0.6251  0.8629
 6554SOL    HW220562   5.627   4.019   5.901  0.2121 -0.5840  0.7540
 6555SOL     OW20563   2.648   1.440   2.274  0.3240  0.1899 -0.4695
 6555SOL    HW120564   2.623   1.525   2.321  0.9999  1.3456 -2.1383
 6555SOL    HW220565   2.564   1.389   2.251 -0.0987  0.5390  0.2410
 6556SOL     OW20566   4.024   4.687   1.851  0.3692  0.1877  0.2029
 6556SOL    HW120567   4.111   4.733   1.831  0.7628 -0.8551 -0.5849
 6556SOL    HW220568   3.948   4.749   1.832  0.8443  0.2227 -1.8054
 6557SOL     OW20569   6.977   3.687   3.230 -0.1079 -0.6233 -0.4324
 6557SOL    HW120570   7.017   3.770   3.190  1.1883  0.1879  2.2767
 6557SOL    HW220571   7.051   3.627   3.262 -1.0561 -1.7305 -0.2460
 6558SOL     OW20572   6.918   6.016   6.437 -0.2229  0.2621 -0.2397
 6558SOL    HW120573   7.009   5.984   6.412  1.0870  3.0028  0.5939
 6558SOL    HW220574   6.868   5.942   6.482  1.7229 -1.1955 -0.3183
 6559SOL     OW20575   4.596   2.010   5.111  0.6049 -0.0798  0.3029
 6559SOL    HW120576   4.608   2.049   5.020  0.8932  0.0603  0.3996
 6559SOL    HW220577   4.515   2.050   5.154  0.4557 -0.1628  0.1002
 6560SOL     OW20578   5.734   5.267   3.541 -0.4869 -0.1150  0.4091
 6560SOL    HW120579   5.665   5.323   3.587 -1.5382 -1.1875  0.1570
 6560SOL    HW220580   5.788   5.325   3.480 -1.1812  0.7366  0.5860
 6561SOL     OW20581   2.068   4.038   0.071 -0.0545 -0.3145 -0.3698
 6561SOL    HW120582   2.070   3.968   0.143  0.2106 -1.4298 -1.4169
 6561SOL    HW220583   2.140   4.105   0.087  0.5281 -1.0095 -0.0229
 6562SOL     OW20584   0.546   5.684   6.362 -0.2166  0.4224  0.2122
 6562SOL    HW120585   0.455   5.663   6.400  0.1222  1.8300  1.9493
 6562SOL    HW220586   0.605   5.717   6.435  0.8880  2.0949 -1.3534
 6563SOL     OW20587   6.986   1.511   6.794  0.2219  0.0474  0.2776
 6563SOL    HW120588   6.971   1.470   6.884 -1.3352  0.1854  0.1033
 6563SOL    HW220589   6.912   1.576   6.774  0.4071 -0.1682 -1.2090
 6564SOL     OW20590   3.441   1.071   3.620  0.8214 -0.1421  0.0288
 6564SOL    HW120591   3.504   1.087   3.544  1.4980  0.1706  0.6396
 6564SOL    HW220592   3.481   1.108   3.704  1.4035 -2.9502  1.0870
 6565SOL     OW20593   5.169   2.870   4.905 -0.1531 -0.1582 -0.2591
 6565SOL    HW120594   5.079   2.837   4.935 -0.1152 -0.2466 -0.2435
 6565SOL    HW220595   5.232   2.870   4.983 -0.2044  0.1248 -0.2190
 6566SOL     OW20596   3.125   4.658   1.779 -0.3435  0.1824 -0.5547
 6566SOL    HW120597   3.053   4.592   1.756  0.9528 -1.6769  0.3980
 6566SOL    HW220598   3.120   4.682   1.875  0.7475 -0.6217 -0.2660
 6567SOL     OW20599   5.975   5.475   3.501  0.3814 -0.0349 -0.4838
 6567SOL    HW120600   5.907   5.486   3.428 -0.1564  1.3496  0.1771
 6567SOL    HW220601   6.041   5.551   3.496  1.7150 -1.1780 -0.9089
 6568SOL     OW20602   2.167   0.610   3.941  0.1407  0.6770 -0.0218
 6568SOL    HW120603   2.233   0.685   3.943 -0.8815  1.6173 -0.4568
 6568SOL    HW220604   2.115   0.614   3.856  0.3850 -0.8278 -0.2699
 6569SOL     OW20605   4.653   0.005   3.371  0.5887  0.2552 -1.0380
 6569SOL    HW120606   4.726  -0.014   3.306  0.1327 -0.6569 -1.2971
 6569SOL    HW220607   4.686   0.070   3.439  0.5495  2.6750 -3.1605
 6570SOL     OW20608   2.415   4.883   2.407 -0.4313 -0.0638 -0.2503
 6570SOL    HW120609   2.492   4.888   2.344 -0.5930 -1.3234 -0.5756
 6570SOL    HW220610   2.357   4.964   2.397  0.2309  0.3432 -0.8131
 6571SOL     OW20611   1.051   5.666   5.544 -0.1991 -0.3919 -0.1435
 6571SOL    HW120612   0.972   5.714   5.584 -1.2064 -0.4087 -2.0077
 6571SOL    HW220613   1.103   5.730   5.487 -1.8252 -1.4793 -3.0442
 6572SOL     OW20614   0.913   3.790   6.945  0.4634  0.2986  0.3821
 6572SOL    HW120615   0.896   3.787   7.044  2.4009 -1.4915  0.7264
 6572SOL    HW220616   0.844   3.735   6.898 -0.2149  0.8083  0.7643
 6573SOL     OW20617   0.888   5.665   4.136 -0.0054 -0.2589 -0.2207
 6573SOL    HW120618   0.827   5.696   4.208 -0.2487  0.7067 -0.8162
 6573SOL    HW220619   0.853   5.697   4.047  0.8026 -0.5890 -0.6665
 6574SOL     OW20620   4.582   5.170   3.076  0.4323 -0.4420 -0.0927
 6574SOL    HW120621   4.529   5.243   3.032 -1.0244 -1.9883 -1.0539
 6574SOL    HW220622   4.668   5.158   3.027  1.2463  1.3627  0.7985
 6575SOL     OW20623   4.604   0.305   2.859 -0.5163 -0.2814 -0.3619
 6575SOL    HW120624   4.672   0.234   2.839  0.9254  0.6131  1.0918
 6575SOL    HW220625   4.588   0.309   2.958 -1.2061  0.8579 -0.5020
 6576SOL     OW20626   6.838   0.266   2.145  0.3864 -0.6052  0.3453
 6576SOL    HW120627   6.756   0.266   2.202  0.4339 -1.2978  0.4172
 6576SOL    HW220628   6.897   0.341   2.173 -0.4391  0.2033 -0.0250
 6577SOL     OW20629   1.284   5.400   6.432  0.2195  0.3026 -0.0829
 6577SOL    HW120630   1.204   5.431   6.483  0.7123 -1.2509  1.7736
 6577SOL    HW220631   1.289   5.448   6.345 -1.5722  1.9174  0.6337
 6578SOL     OW20632   3.439   0.004   6.158  0.6769  0.4780  0.9666
 6578SOL    HW120633   3.530  -0.026   6.187  0.1015 -0.9958  1.3524
 6578SOL    HW220634   3.420  -0.033   6.067  0.3897  0.6428  0.9610
 6579SOL     OW20635   2.131   0.371   4.624  0.2740 -0.2633  0.8540
 6579SOL    HW120636   2.230   0.371   4.633  0.3354  1.9567  0.6008
 6579SOL    HW220637   2.103   0.432   4.549 -1.2590 -1.3816  0.4531
 6580SOL     OW20638   1.071   6.488   3.539  0.4875 -0.4611 -0.1843
 6580SOL    HW120639   0.976   6.458   3.555  0.2420  0.8163  0.8780
 6580SOL    HW220640   1.102   6.452   3.451  0.6142 -4.7572  1.3554
 6581SOL     OW20641   4.027   3.634   2.798 -0.0906 -0.6501 -0.5639
 6581SOL    HW120642   3.953   3.698   2.779 -0.0057 -0.2685  0.3417
 6581SOL    HW220643   4.034   3.619   2.896  0.1307 -1.7749 -0.7370
 6582SOL     OW20644   5.971   1.641   6.721  0.3013  0.2095 -0.5160
 6582SOL    HW120645   5.959   1.595   6.809  0.1318 -0.5592 -0.9389
 6582SOL    HW220646   5.958   1.740   6.733 -1.4978 -0.0663 -0.0055
 6583SOL     OW20647   5.196   5.474   4.920  0.0368  0.5105 -0.8060
 6583SOL    HW120648   5.285   5.443   4.887  0.0877 -0.6470  0.3488
 6583SOL    HW220649   5.157   5.404   4.980 -0.3733  2.2410  1.0162
 6584SOL     OW20650   6.791   4.152   1.269  0.1116 -0.6452  0.4757
 6584SOL    HW120651   6.708   4.115   1.311  1.8774 -1.9095  3.1720
 6584SOL    HW220652   6.849   4.076   1.238  0.8061  0.1460 -0.1959
 6585SOL     OW20653   2.509   3.290   6.387 -0.2293  0.7670  0.4392
 6585SOL    HW120654   2.588   3.238   6.419 -1.4290 -0.2766  1.8489
 6585SOL    HW220655   2.475   3.348   6.460 -2.0412 -0.4177  0.5999
 6586SOL     OW20656   2.008   1.023   6.262 -0.3185  0.1956  0.1198
 6586SOL    HW120657   1.947   0.992   6.190 -0.4946  2.3616 -0.7289
 6586SOL    HW220658   2.029   1.120   6.249  2.4045 -0.1837  1.0265
 6587SOL     OW20659   2.987   0.953   3.253 -0.0187 -0.0548  0.1378
 6587SOL    HW120660   2.942   0.902   3.180  0.5857  1.0705 -1.0887
 6587SOL    HW220661   2.924   1.020   3.291 -0.2250 -0.3839  0.3687
 6588SOL     OW20662   0.254   2.469   1.723 -0.7360 -0.1513 -0.0633
 6588SOL    HW120663   0.162   2.470   1.763 -0.8521 -0.4503 -0.3194
 6588SOL    HW220664   0.273   2.378   1.686  0.2066 -0.5229  1.2306
 6589SOL     OW20665   6.885   5.645   2.205  0.5493  0.0798 -0.4527
 6589SOL    HW120666   6.851   5.559   2.244  1.8940  0.4341  1.6917
 6589SOL    HW220667   6.946   5.625   2.129 -0.1460 -0.7920 -0.8046
 6590SOL     OW20668   1.788   2.025   0.819 -0.1040 -0.2686 -0.2256
 6590SOL    HW120669   1.845   1.944   0.813  0.6680  0.3809 -2.3244
 6590SOL    HW220670   1.701   2.009   0.772 -0.7406 -0.4512  0.9451
 6591SOL     OW20671   5.813   2.307   1.331  0.3300  0.1362  0.2420
 6591SOL    HW120672   5.792   2.391   1.281  1.3939 -0.2135 -0.8511
 6591SOL    HW220673   5.886   2.324   1.398 -0.9486  0.5552  1.5765
 6592SOL     OW20674   3.795   6.209   4.565 -0.2722 -0.2100  0.4169
 6592SOL    HW120675   3.736   6.136   4.531  0.8205 -1.3227  0.8256
 6592SOL    HW220676   3.811   6.276   4.493 -3.3329  1.0556  0.7439
 6593SOL     OW20677   3.453   4.535   5.923 -0.4051 -0.4942  0.7780
 6593SOL    HW120678   3.434   4.491   5.835 -1.8220  0.2971  0.6618
 6593SOL    HW220679   3.367   4.554   5.970  0.0322  2.8966  0.4387
 6594SOL     OW20680   6.112   4.865   2.113  0.2203  0.5544 -0.1891
 6594SOL    HW120681   6.037   4.816   2.068  1.1485  0.4872 -1.7470
 6594SOL    HW220682   6.118   4.958   2.076  1.9956 -0.0057 -1.4424
 6595SOL     OW20683   1.946   2.966   5.084  0.2254  0.0469  0.1889
 6595SOL    HW120684   2.004   2.959   5.165  0.0992 -0.8033  0.2140
 6595SOL    HW220685   2.004   2.974   5.003  0.3858 -0.5303  0.2387
 6596SOL     OW20686   4.302   6.759   4.627  0.0577 -0.0159 -0.4405
 6596SOL    HW120687   4.294   6.768   4.527 -0.5634 -0.0338 -0.3956
 6596SOL    HW220688   4.300   6.850   4.669  3.2166  0.2456 -0.6186
 6597SOL     OW20689   6.334   5.208   4.211 -0.5488  0.2932 -0.2768
 6597SOL    HW120690   6.355   5.110   4.213 -1.0513  0.1983  0.6942
 6597SOL    HW220691   6.326   5.243   4.304 -1.1574  1.0924 -0.6137
 6598SOL     OW20692   3.266   0.607   6.249  0.6884  0.5226  0.2352
 6598SOL    HW120693   3.254   0.509   6.238 -0.2598  0.6582 -0.0228
 6598SOL    HW220694   3.179   0.650   6.270  1.1697  1.2589  0.7986
 6599SOL     OW20695   2.447   1.522   4.596 -0.2467  0.1173 -0.5978
 6599SOL    HW120696   2.375   1.589   4.579 -2.2150 -1.5321  0.7244
 6599SOL    HW220697   2.433   1.442   4.537  0.1832 -0.4182 -0.0002
 6600SOL     OW20698   6.383   2.718   5.130 -0.0138  0.0228 -0.4589
 6600SOL    HW120699   6.417   2.795   5.076  0.4831  0.1569  0.0404
 6600SOL    HW220700   6.459   2.660   5.158  0.0540  1.1286  1.9294
 6601SOL     OW20701   1.497   2.118   0.446  0.4648 -0.3697 -0.3807
 6601SOL    HW120702   1.476   2.197   0.503 -0.5749 -1.7859  1.3013
 6601SOL    HW220703   1.500   2.145   0.350 -1.2876  1.4294  0.0228
 6602SOL     OW20704   1.756   3.827   4.945 -0.0445  0.0487  0.3141
 6602SOL    HW120705   1.698   3.898   4.904 -0.3099  0.0512  0.6830
 6602SOL    HW220706   1.822   3.870   5.006 -0.2089 -0.0175  0.5417
 6603SOL     OW20707   4.541   1.891   0.849 -0.1257  0.3697 -0.2936
 6603SOL    HW120708   4.569   1.936   0.764 -1.3792 -0.4619 -1.1877
 6603SOL    HW220709   4.601   1.815   0.869  0.0622  0.4523 -0.5428
 6604SOL     OW20710   0.143   0.874   0.134 -0.8335 -0.2451  0.1253
 6604SOL    HW120711   0.143   0.969   0.166 -1.1810 -0.3805  0.5316
 6604SOL    HW220712   0.082   0.866   0.055  2.4402  0.8116 -2.8398
 6605SOL     OW20713   3.882   4.811   1.287  0.4059  0.1740  0.3486
 6605SOL    HW120714   3.849   4.717   1.282 -0.2557  0.4248 -0.3051
 6605SOL    HW220715   3.968   4.820   1.237  0.4978 -0.1034  0.4619
 6606SOL     OW20716   4.722   1.124   5.486  0.2547 -0.0058 -0.0191
 6606SOL    HW120717   4.664   1.155   5.561  1.2528  1.5752  0.1473
 6606SOL    HW220718   4.806   1.085   5.523  1.2637  1.8256 -0.2778
 6607SOL     OW20719   4.983   6.118   0.151  0.7775  0.0294 -0.2087
 6607SOL    HW120720   5.025   6.053   0.088  1.5683  1.1570 -0.8680
 6607SOL    HW220721   4.919   6.177   0.102  1.1170  0.6737  0.1040
 6608SOL     OW20722   3.962   6.840   5.712  0.1509 -0.5150  0.8903
 6608SOL    HW120723   4.013   6.914   5.756  0.0493 -0.6137  1.1772
 6608SOL    HW220724   3.949   6.861   5.615  0.1619 -0.1797  0.9613
 6609SOL     OW20725   1.086   2.663   2.186  0.1084 -0.5051  0.9431
 6609SOL    HW120726   1.000   2.691   2.143  0.3000  0.2387  1.0260
 6609SOL    HW220727   1.133   2.744   2.222  1.0193 -0.8545  0.5728
 6610SOL     OW20728   5.645   4.798   0.282 -0.0695 -0.0205 -0.0184
 6610SOL    HW120729   5.577   4.761   0.218 -0.0148  3.0759 -2.0723
 6610SOL    HW220730   5.599   4.843   0.358 -0.3646  1.2455 -0.9153
 6611SOL     OW20731   1.804   2.242   5.962 -0.7446 -0.6678 -0.6192
 6611SOL    HW120732   1.809   2.204   5.870 -1.9398 -0.1263 -0.9202
 6611SOL    HW220733   1.781   2.168   6.026 -0.4928 -0.9292 -0.8215
 6612SOL     OW20734   5.375   0.049   1.403 -0.4417  0.3476 -0.1214
 6612SOL    HW120735   5.318   0.015   1.477 -0.3858 -1.2265 -0.7516
 6612SOL    HW220736   5.413   0.138   1.427 -1.9976  0.7583  0.8979
 6613SOL     OW20737   3.162   3.593   2.526  0.2116  0.1855 -0.4110
 6613SOL    HW120738   3.206   3.515   2.481  1.0686 -0.6825  1.8020
 6613SOL    HW220739   3.062   3.583   2.519  0.2692 -1.8478  0.9305
 6614SOL     OW20740   5.055   3.243   5.583  0.6413  0.0486 -0.0419
 6614SOL    HW120741   4.971   3.229   5.635 -1.0492 -1.4235 -2.9077
 6614SOL    HW220742   5.078   3.340   5.581 -0.5769  0.3929  1.3342
 6615SOL     OW20743   0.144   6.264   6.084  0.0106  0.1956 -0.2626
 6615SOL    HW120744   0.181   6.172   6.091 -0.0170  0.0950 -1.3074
 6615SOL    HW220745   0.206   6.329   6.128  0.1083 -0.2954  0.3358
 6616SOL     OW20746   4.804   2.027   2.849  0.2119 -0.6402 -0.1301
 6616SOL    HW120747   4.823   2.110   2.798  0.5066 -1.2303 -1.0029
 6616SOL    HW220748   4.705   2.012   2.854  0.1692 -0.3778 -0.2016
 6617SOL     OW20749   5.823   1.181   3.109  0.0110  0.1870 -0.1127
 6617SOL    HW120750   5.779   1.206   3.196 -0.9219  1.0455 -0.8099
 6617SOL    HW220751   5.753   1.173   3.038  0.7955 -0.2857 -0.8470
 6618SOL     OW20752   6.463   1.032   6.609 -0.0343  0.0325 -0.0792
 6618SOL    HW120753   6.425   0.963   6.547  1.7266  1.4061 -2.9159
 6618SOL    HW220754   6.510   0.987   6.685 -1.4532 -1.7723 -0.2128
 6619SOL     OW20755   5.826   5.648   3.927 -0.0588  0.3090  0.0094
 6619SOL    HW120756   5.828   5.562   3.876 -0.4520  0.0589  0.4105
 6619SOL    HW220757   5.752   5.706   3.894  0.6293  0.7947 -0.7289
 6620SOL     OW20758   5.431   5.187   5.259  0.3696 -0.3455  0.0730
 6620SOL    HW120759   5.436   5.209   5.162 -0.0346 -0.4847  0.0180
 6620SOL    HW220760   5.405   5.268   5.311 -0.9222 -0.6248 -0.1066
 6621SOL     OW20761   1.408   0.804   4.695  0.0362  0.0347 -0.2994
 6621SOL    HW120762   1.475   0.838   4.762 -0.0306 -0.0534 -0.1878
 6621SOL    HW220763   1.432   0.711   4.668 -1.2216 -0.8121  1.3461
 6622SOL     OW20764   1.725   6.712   0.053  0.0517  0.2744 -0.1400
 6622SOL    HW120765   1.707   6.810   0.046 -0.5725  0.1937  0.1948
 6622SOL    HW220766   1.790   6.684  -0.018  0.8023  1.0573  0.2185
 6623SOL     OW20767   2.395   3.418   6.605  0.0181  0.5255  0.0365
 6623SOL    HW120768   2.300   3.447   6.610 -0.1303 -0.0872  1.0401
 6623SOL    HW220769   2.435   3.416   6.696 -0.0054 -2.3680  0.0923
 6624SOL     OW20770   5.358   3.863   3.460 -0.1099  0.3109  0.0874
 6624SOL    HW120771   5.421   3.834   3.532 -0.6921  1.1618  0.9841
 6624SOL    HW220772   5.405   3.924   3.396  0.4156 -0.4580 -0.2587
 6625SOL     OW20773   1.309   1.251   0.719 -0.2409 -0.0909  0.9711
 6625SOL    HW120774   1.387   1.251   0.782 -0.2977 -0.0713  1.0422
 6625SOL    HW220775   1.231   1.207   0.764  0.2468 -1.7400  0.2658
 6626SOL     OW20776   1.325   4.884   6.453  0.4906 -0.3742  0.1119
 6626SOL    HW120777   1.283   4.957   6.400 -0.3167 -0.2419  0.8994
 6626SOL    HW220778   1.419   4.908   6.475  0.3710  0.2287 -0.0138
 6627SOL     OW20779   3.283   6.900   4.162  0.0106 -0.1573 -0.4410
 6627SOL    HW120780   3.254   6.806   4.175 -1.2457 -0.1413 -2.6046
 6627SOL    HW220781   3.218   6.947   4.103  1.5598  1.5444 -0.8991
 6628SOL     OW20782   3.092   0.483   5.938  0.1008  0.0310  0.6748
 6628SOL    HW120783   3.047   0.411   5.991  0.1137 -0.2274  0.3426
 6628SOL    HW220784   3.023   0.544   5.898 -0.0493 -1.0508 -0.8103
 6629SOL     OW20785   2.253   4.325   3.936  0.4924  0.3127  0.5799
 6629SOL    HW120786   2.277   4.266   4.013  0.1949 -0.1073  0.3592
 6629SOL    HW220787   2.334   4.372   3.903  0.7919 -0.1837  0.5936
 6630SOL     OW20788   5.655   0.682   1.792  0.0595  0.1817 -0.4249
 6630SOL    HW120789   5.727   0.618   1.817  0.0403  0.3724  0.1534
 6630SOL    HW220790   5.598   0.643   1.721  0.3547 -0.2321 -0.4341
 6631SOL     OW20791   0.429   5.087   1.910  0.0792 -0.0503  0.6495
 6631SOL    HW120792   0.496   5.095   1.985  0.3753 -1.7542  0.6115
 6631SOL    HW220793   0.405   4.990   1.898 -1.6642  0.4366  0.0066
 6632SOL     OW20794   2.161   1.608   5.521 -0.4678  0.1886  0.1060
 6632SOL    HW120795   2.196   1.519   5.492 -0.7438  0.1250 -0.0372
 6632SOL    HW220796   2.159   1.612   5.621 -0.8139 -0.1087  0.1134
 6633SOL     OW20797   5.767   2.064   5.389 -0.4934  0.1331  0.1079
 6633SOL    HW120798   5.852   2.082   5.339 -1.1266  0.6429 -0.8197
 6633SOL    HW220799   5.751   1.966   5.392 -0.2586  0.0761 -0.3806
 6634SOL     OW20800   1.067   5.971   3.194  0.0157  0.0786 -0.5491
 6634SOL    HW120801   1.073   5.886   3.247  0.2851 -0.0168 -0.7282
 6634SOL    HW220802   1.135   6.035   3.229  1.0490 -0.4283 -1.5672
 6635SOL     OW20803   4.843   4.785   1.782  0.0188  0.3604  0.0251
 6635SOL    HW120804   4.920   4.806   1.841 -0.1431  1.6547 -0.1902
 6635SOL    HW220805   4.764   4.840   1.810 -1.2410 -1.8612  1.0531
 6636SOL     OW20806   5.453   6.496   4.409 -0.4214 -0.0767 -0.4572
 6636SOL    HW120807   5.372   6.448   4.377 -0.3195 -1.3270  1.0479
 6636SOL    HW220808   5.440   6.595   4.399 -1.3466 -0.3256 -1.9638
 6637SOL     OW20809   0.561   2.748   1.611  0.1265 -0.0571 -0.5396
 6637SOL    HW120810   0.475   2.707   1.579 -0.3994  0.1132  0.6147
 6637SOL    HW220811   0.628   2.744   1.537 -0.9976  0.1943 -1.6143
 6638SOL     OW20812   5.090   6.867   3.929  0.2975 -0.6620  0.1325
 6638SOL    HW120813   5.177   6.907   3.959  1.7872 -2.7910 -1.0469
 6638SOL    HW220814   5.081   6.775   3.968 -2.7795  0.4100  2.3761
 6639SOL     OW20815   3.731   4.940   3.258  0.2015  0.1263  0.2787
 6639SOL    HW120816   3.695   5.023   3.215 -0.1977  0.0675  0.5031
 6639SOL    HW220817   3.735   4.952   3.357  0.5761  0.0428  0.2777
 6640SOL     OW20818   6.174   4.237   6.393 -0.5873 -0.0330 -0.3712
 6640SOL    HW120819   6.219   4.156   6.431  0.4348  0.7039  0.0273
 6640SOL    HW220820   6.219   4.263   6.308 -0.8471  0.1770 -0.4459
 6641SOL     OW20821   4.780   2.765   1.153  0.2772  0.5352  0.3087
 6641SOL    HW120822   4.828   2.758   1.241  2.4177  0.7602 -0.7871
 6641SOL    HW220823   4.839   2.811   1.086  0.5324 -3.3356 -2.4616
 6642SOL     OW20824   5.389   4.282   6.718 -0.8009 -0.2290  0.2585
 6642SOL    HW120825   5.479   4.298   6.677 -2.1057  2.2591 -1.9836
 6642SOL    HW220826   5.330   4.236   6.651 -2.4750  2.3509 -0.2066
 6643SOL     OW20827   3.460   5.028   4.198  0.3969  0.0829 -0.1495
 6643SOL    HW120828   3.387   4.979   4.150  0.2363 -1.7488  1.7826
 6643SOL    HW220829   3.471   4.989   4.290  3.0455  1.0742  0.0464
 6644SOL     OW20830   1.147   0.488   2.217 -0.3613  0.4863 -0.0096
 6644SOL    HW120831   1.240   0.452   2.216 -0.5768 -0.0716 -0.6123
 6644SOL    HW220832   1.086   0.425   2.169 -1.1569  0.5776  0.8615
 6645SOL     OW20833   2.622   2.406   2.022  0.1437  0.2269 -0.2297
 6645SOL    HW120834   2.591   2.483   1.966 -0.4433 -1.1779 -1.9322
 6645SOL    HW220835   2.717   2.386   2.001 -0.6383 -1.6295 -2.4631
 6646SOL     OW20836   5.830   6.337   5.664  0.1112  0.0417 -0.0807
 6646SOL    HW120837   5.791   6.327   5.755  0.7185 -1.0066  0.0807
 6646SOL    HW220838   5.911   6.278   5.655 -1.0153 -1.3412 -1.8923
 6647SOL     OW20839   1.836   5.591   3.967 -0.5743  0.4617 -0.5556
 6647SOL    HW120840   1.795   5.650   4.037  1.6122  1.6442 -0.1575
 6647SOL    HW220841   1.880   5.513   4.012 -0.4125  0.4498 -0.7339
 6648SOL     OW20842   1.044   0.064   6.428 -0.1610  1.1574 -0.4067
 6648SOL    HW120843   1.054   0.162   6.448  2.0659  1.2906 -1.8950
 6648SOL    HW220844   1.117   0.013   6.472 -1.6851  0.0002  0.9157
 6649SOL     OW20845   6.803   4.693   0.625 -0.5532  0.4757  0.1796
 6649SOL    HW120846   6.784   4.766   0.691 -0.0721 -0.1172  0.9973
 6649SOL    HW220847   6.894   4.654   0.643 -1.0744 -0.7822  0.2186
 6650SOL     OW20848   4.070   4.866   4.723 -0.3285 -0.1404  0.3022
 6650SOL    HW120849   4.037   4.951   4.765  0.6653 -0.7822  2.5464
 6650SOL    HW220850   4.000   4.795   4.732 -1.5951  0.6217 -2.5251
 6651SOL     OW20851   6.093   5.284   3.881 -0.9818  0.1263 -0.6927
 6651SOL    HW120852   6.146   5.279   3.797  0.5467 -0.6943  0.2699
 6651SOL    HW220853   6.140   5.343   3.947 -2.5045  1.3120 -0.6349
 6652SOL     OW20854   1.042   1.080   4.247  0.0386  0.0710 -0.9915
 6652SOL    HW120855   1.141   1.070   4.260  0.0139  0.2686 -0.6666
 6652SOL    HW220856   1.025   1.142   4.171  0.1600  0.4660 -0.6986
 6653SOL     OW20857   1.953   4.168   3.025  0.2782 -0.1847  0.6975
 6653SOL    HW120858   1.969   4.253   2.974  3.0082 -0.3755  1.0761
 6653SOL    HW220859   1.939   4.190   3.122  0.7735 -0.1404  0.7618
 6654SOL     OW20860   5.365   2.325   1.225  0.1461  0.8024  0.0768
 6654SOL    HW120861   5.395   2.351   1.317 -1.4149 -0.3537  0.9652
 6654SOL    HW220862   5.368   2.225   1.216 -0.1493  0.8813 -0.9763
 6655SOL     OW20863   2.135   5.355   4.548  0.6645 -0.4585 -0.2330
 6655SOL    HW120864   2.118   5.380   4.643  0.0590  1.9677 -0.8920
 6655SOL    HW220865   2.052   5.374   4.494  1.6990  0.3893 -1.5943
 6656SOL     OW20866   3.870   4.788   6.695 -0.1052  0.5131 -0.6443
 6656SOL    HW120867   3.934   4.843   6.642  1.3222 -0.2159  0.2490
 6656SOL    HW220868   3.818   4.729   6.634  0.3869  0.8193 -1.3671
 6657SOL     OW20869   3.154   0.465   1.287 -0.2651  0.3098 -0.4027
 6657SOL    HW120870   3.203   0.424   1.211 -0.6888  0.1705 -0.6036
 6657SOL    HW220871   3.219   0.492   1.358 -0.0415 -1.5658  0.1554
 6658SOL     OW20872   0.044   1.107   4.900  0.2244 -0.1626  0.1360
 6658SOL    HW120873   0.075   1.102   4.805 -0.5186  0.9835 -0.1950
 6658SOL    HW220874   0.123   1.126   4.959  0.9877 -2.5866  0.0076
 6659SOL     OW20875   1.479   6.092   3.261 -0.4433 -0.2404 -0.1453
 6659SOL    HW120876   1.449   6.021   3.325  0.2163  0.6350  1.1947
 6659SOL    HW220877   1.579   6.095   3.258 -0.4427 -1.0513 -2.1712
 6660SOL     OW20878   4.807   0.577   3.626  0.4348 -0.4058  0.3465
 6660SOL    HW120879   4.903   0.598   3.606  0.0167  0.0031 -1.3939
 6660SOL    HW220880   4.800   0.533   3.715  2.2658 -0.6422  0.4039
 6661SOL     OW20881   0.402   5.270   0.229  0.2179 -0.3970 -0.0875
 6661SOL    HW120882   0.349   5.231   0.305  0.8698  0.0156  0.5939
 6661SOL    HW220883   0.460   5.199   0.189 -0.1842 -0.6359 -0.2521
 6662SOL     OW20884   0.212   5.901   0.641 -0.1318 -0.2577 -0.2454
 6662SOL    HW120885   0.190   5.972   0.709  0.2927  1.7302 -2.0580
 6662SOL    HW220886   0.248   5.820   0.688  1.1910  1.4160  1.8502
 6663SOL     OW20887   0.535   4.365   0.200 -0.4947  0.2047  0.5033
 6663SOL    HW120888   0.510   4.299   0.130 -1.4826  0.9232  0.1566
 6663SOL    HW220889   0.623   4.406   0.178  0.2406 -1.1266  0.8388
 6664SOL     OW20890   2.112   1.049   0.048  0.0264  0.6105  0.3532
 6664SOL    HW120891   2.070   1.119  -0.011 -0.4951  1.6075  1.8415
 6664SOL    HW220892   2.067   0.961   0.032  0.4662  0.6675 -1.3193
 6665SOL     OW20893   4.010   3.886   3.185 -0.3083 -0.5989 -0.3109
 6665SOL    HW120894   3.930   3.891   3.245 -0.3762  1.6866 -0.4976
 6665SOL    HW220895   3.987   3.927   3.096  1.1915  0.5549 -0.2043
 6666SOL     OW20896   3.055   3.795   5.962 -0.2380 -0.7356  0.3375
 6666SOL    HW120897   3.006   3.861   5.905 -0.0774  0.1845  1.2404
 6666SOL    HW220898   3.147   3.781   5.925  0.5556  1.3059  1.3598
 6667SOL     OW20899   1.736   3.383   6.352 -0.0154 -0.3554  0.5546
 6667SOL    HW120900   1.803   3.416   6.417 -1.4171  2.2123  0.8205
 6667SOL    HW220901   1.747   3.431   6.265 -1.2650 -0.1016  0.5091
 6668SOL     OW20902   3.480   6.007   3.601  0.2610  0.2308  0.0409
 6668SOL    HW120903   3.392   5.964   3.619  0.2071 -0.4774 -1.6944
 6668SOL    HW220904   3.467   6.106   3.589 -0.3747  0.0783 -0.6127
 6669SOL     OW20905   0.868   3.726   2.071 -0.2592  0.3100  0.0985
 6669SOL    HW120906   0.942   3.742   2.137 -1.6168 -0.6817  1.9467
 6669SOL    HW220907   0.840   3.630   2.075 -1.4403  0.5984 -0.7827
 6670SOL     OW20908   1.307   0.071   3.025 -0.0529  0.2666 -0.1356
 6670SOL    HW120909   1.302   0.109   2.932  0.5544  0.1705 -0.2076
 6670SOL    HW220910   1.361  -0.013   3.024  0.2301  0.4400  0.3613
 6671SOL     OW20911   0.624   4.853   2.310  0.1384  0.0627 -0.0376
 6671SOL    HW120912   0.530   4.870   2.342 -0.1133 -1.0213 -0.1634
 6671SOL    HW220913   0.683   4.832   2.389  0.2919  0.7995  0.0471
 6672SOL     OW20914   5.035   3.396   6.498 -0.1860  0.0555 -0.1369
 6672SOL    HW120915   4.962   3.462   6.515 -0.0624 -0.1137  1.2061
 6672SOL    HW220916   4.995   3.306   6.481 -0.3674  0.4775 -2.2575
 6673SOL     OW20917   1.248   5.694   1.611 -0.2837  0.2954  0.1328
 6673SOL    HW120918   1.342   5.660   1.604 -0.6978 -1.2043  1.3947
 6673SOL    HW220919   1.200   5.675   1.525 -0.0620 -0.9806  0.2735
 6674SOL     OW20920   0.021   4.691   0.269 -0.1821 -0.0174  0.2290
 6674SOL    HW120921   0.118   4.717   0.265 -0.4754  1.0621 -0.1579
 6674SOL    HW220922  -0.002   4.664   0.362  0.6222 -0.8553  0.2055
 6675SOL     OW20923   1.537   1.206   2.753  0.5483  0.3047 -0.4049
 6675SOL    HW120924   1.440   1.204   2.777  0.3270  1.7062 -1.0693
 6675SOL    HW220925   1.574   1.296   2.773  1.3734  0.2104 -1.4397
 6676SOL     OW20926   5.895   2.948   0.311 -0.0224  0.7487  0.5409
 6676SOL    HW120927   5.887   2.894   0.394 -0.3153 -0.3227 -0.1609
 6676SOL    HW220928   5.992   2.954   0.285 -0.1378 -1.8868 -0.8804
 6677SOL     OW20929   5.639   0.563   5.760  0.0279 -0.1142  0.6214
 6677SOL    HW120930   5.540   0.568   5.775  0.0329  2.3990  0.3130
 6677SOL    HW220931   5.684   0.540   5.847 -0.6889  1.5616  1.4822
 6678SOL     OW20932   5.370   0.235   3.257 -0.3883 -0.2776 -0.0631
 6678SOL    HW120933   5.336   0.208   3.167 -0.2386 -0.4422 -0.0712
 6678SOL    HW220934   5.438   0.307   3.246  2.0820 -2.5126 -0.3681
 6679SOL     OW20935   5.432   4.287   5.946  0.2706 -0.4978 -0.8438
 6679SOL    HW120936   5.455   4.376   5.906  1.3721  0.3171  1.4035
 6679SOL    HW220937   5.516   4.242   5.977 -0.4992 -1.0912  0.4581
 6680SOL     OW20938   1.441   2.580   5.159  0.3390 -0.3314  0.1180
 6680SOL    HW120939   1.504   2.526   5.103  1.2060  0.0713  0.6727
 6680SOL    HW220940   1.426   2.533   5.246  1.1738  0.3373  0.6429
 6681SOL     OW20941   0.242   5.908   3.021 -0.0503 -0.1621  0.6993
 6681SOL    HW120942   0.145   5.927   3.035 -0.3367 -0.4755 -0.7110
 6681SOL    HW220943   0.295   5.951   3.094 -1.1825  0.7035  1.0472
 6682SOL     OW20944   2.236   5.127   2.546  0.0742 -0.4791  0.4270
 6682SOL    HW120945   2.285   5.198   2.595 -0.3871 -0.0542  0.2772
 6682SOL    HW220946   2.197   5.165   2.462 -0.4583 -0.8205  0.5142
 6683SOL     OW20947   6.451   5.600   0.303 -0.1646  0.8181 -0.3571
 6683SOL    HW120948   6.430   5.678   0.363 -0.1860  0.7284 -0.2466
 6683SOL    HW220949   6.541   5.613   0.262  0.0342  0.6793  0.0234
 6684SOL     OW20950   1.446   2.580   4.586 -0.3449  0.5756  0.4052
 6684SOL    HW120951   1.502   2.613   4.510 -1.2547  0.8978 -0.1398
 6684SOL    HW220952   1.421   2.657   4.644 -2.0279  0.8187 -0.5736
 6685SOL     OW20953   1.616   3.738   5.901  0.2738 -0.1497 -0.1740
 6685SOL    HW120954   1.613   3.638   5.910  0.7735 -0.2276 -0.7613
 6685SOL    HW220955   1.641   3.779   5.988  0.5778 -0.5719 -0.0578
 6686SOL     OW20956   6.183   0.463   1.926  0.0925  0.0465 -0.3740
 6686SOL    HW120957   6.279   0.489   1.933  0.4146 -1.1936  0.0412
 6686SOL    HW220958   6.140   0.471   2.016  0.1797 -0.7609 -0.2537
 6687SOL     OW20959   6.179   3.565   4.624  0.4032 -0.1115 -0.0534
 6687SOL    HW120960   6.124   3.532   4.701  0.9456  0.3268  0.5303
 6687SOL    HW220961   6.255   3.502   4.608  0.9271  0.3594  0.4941
 6688SOL     OW20962   5.260   1.472   1.935  0.1542  0.1783  0.2082
 6688SOL    HW120963   5.287   1.467   1.838 -1.5649 -1.2826 -0.2538
 6688SOL    HW220964   5.166   1.507   1.942  0.3411  0.4878  1.3802
 6689SOL     OW20965   0.810   3.582   1.650 -0.1456  0.0840  0.4699
 6689SOL    HW120966   0.834   3.640   1.728 -1.7782  3.1037 -1.0688
 6689SOL    HW220967   0.712   3.562   1.653 -0.4049  0.9428 -1.1521
 6690SOL     OW20968   1.365   5.504   0.184 -0.0136  0.3384  0.1634
 6690SOL    HW120969   1.278   5.539   0.151 -0.2272  0.0860  0.4485
 6690SOL    HW220970   1.418   5.578   0.226  0.5777  0.8282 -1.3617
 6691SOL     OW20971   0.258   6.259   1.500 -0.1039  0.0667  0.3078
 6691SOL    HW120972   0.327   6.248   1.572 -0.1854 -0.0373  0.3705
 6691SOL    HW220973   0.299   6.307   1.422 -0.0864  0.4088  0.5262
 6692SOL     OW20974   3.149   5.933   6.889 -0.5314 -1.2945  0.0783
 6692SOL    HW120975   3.213   5.867   6.851  1.7670  1.4075 -1.0948
 6692SOL    HW220976   3.110   5.989   6.816 -1.0851 -0.2314  1.1416
 6693SOL     OW20977   6.644   1.742   0.091  0.0451 -0.4376 -0.0886
 6693SOL    HW120978   6.659   1.743  -0.008  0.7509 -0.8971  0.0072
 6693SOL    HW220979   6.619   1.650   0.120 -1.4246 -0.0419 -0.0015
 6694SOL     OW20980   0.345   2.870   3.719 -0.4164  0.5685 -0.2112
 6694SOL    HW120981   0.356   2.843   3.623 -0.0760 -1.7872  0.4100
 6694SOL    HW220982   0.436   2.885   3.759 -0.3212 -1.5871  0.4930
 6695SOL     OW20983   5.816   5.489   3.299  0.0909  0.1169 -0.3748
 6695SOL    HW120984   5.718   5.476   3.282  0.3968 -0.7384 -1.6129
 6695SOL    HW220985   5.855   5.547   3.227  0.6250 -0.1285 -0.2886
 6696SOL     OW20986   6.776   2.882   0.680  0.8842  0.4598 -0.1245
 6696SOL    HW120987   6.821   2.829   0.608  1.4309 -0.3910  0.8120
 6696SOL    HW220988   6.711   2.824   0.728  1.0091  0.8195  0.4866
 6697SOL     OW20989   5.918   3.691   2.878 -0.2933  0.1425 -0.0350
 6697SOL    HW120990   5.948   3.727   2.790 -0.8018 -0.3751 -0.4237
 6697SOL    HW220991   5.891   3.595   2.868  0.8966 -0.3281  0.9573
 6698SOL     OW20992   3.702   6.092   6.693 -0.7423 -0.2497 -0.2697
 6698SOL    HW120993   3.700   6.166   6.761  0.9036  0.0249 -0.4870
 6698SOL    HW220994   3.785   6.037   6.706 -1.4842 -1.5103 -0.7048
 6699SOL     OW20995   1.057   5.812   2.160 -0.1411  0.6818 -0.5416
 6699SOL    HW120996   1.054   5.790   2.062  0.6007  0.6957 -0.5790
 6699SOL    HW220997   0.971   5.854   2.188  0.6600  3.4816 -1.8939
 6700SOL     OW20998   6.070   5.234   3.384 -0.1070 -0.0303  0.7209
 6700SOL    HW120999   6.038   5.325   3.412 -0.4695 -0.0114  0.2628
 6700SOL    HW221000   6.052   5.168   3.458  1.2521  0.4825  1.5491
 6701SOL     OW21001   1.816   6.048   1.676 -0.6855 -0.0213 -0.8908
 6701SOL    HW121002   1.815   5.954   1.641  0.0575 -0.4989  0.3039
 6701SOL    HW221003   1.724   6.087   1.668 -1.1348 -1.0426 -0.9267
 6702SOL     OW21004   2.275   2.143   4.808 -0.1980 -0.6837  0.1063
 6702SOL    HW121005   2.186   2.165   4.767  0.3132 -0.6079 -0.9983
 6702SOL    HW221006   2.275   2.171   4.904 -1.7910 -1.8211  0.4751
 6703SOL     OW21007   0.236   0.039   4.039 -0.1296  0.1378 -0.3638
 6703SOL    HW121008   0.317  -0.008   4.074  1.4271  1.7080 -1.6731
 6703SOL    HW221009   0.203  -0.008   3.957 -0.0806 -0.0790 -0.2595
 6704SOL     OW21010   4.328   3.318   5.469  0.1834  0.5325 -0.4062
 6704SOL    HW121011   4.272   3.401   5.473  0.6412  0.8154  0.4579
 6704SOL    HW221012   4.410   3.336   5.415  0.8357  1.0020  0.7140
 6705SOL     OW21013   5.361   1.140   4.187 -0.3126 -0.6081 -0.4227
 6705SOL    HW121014   5.276   1.179   4.151 -0.8687  1.0576  2.4233
 6705SOL    HW221015   5.434   1.154   4.119 -1.0375  3.3215 -0.6682
 6706SOL     OW21016   3.812   5.760   0.857  0.2283  0.0763  0.5213
 6706SOL    HW121017   3.822   5.796   0.764  0.5123  0.2775  0.6276
 6706SOL    HW221018   3.831   5.662   0.857 -1.3438 -0.2510  0.0860
 6707SOL     OW21019   2.742   0.993   2.981 -0.6186 -0.4058  0.2870
 6707SOL    HW121020   2.672   1.056   3.015 -0.5042  0.6132 -1.2679
 6707SOL    HW221021   2.829   1.041   2.974 -1.1207  0.3319 -3.7567
 6708SOL     OW21022   2.363   1.071   6.556 -0.1765 -0.0563 -0.3806
 6708SOL    HW121023   2.439   1.007   6.570  1.0212  1.1973 -0.9090
 6708SOL    HW221024   2.281   1.021   6.530 -0.1316 -1.6566  2.2198
 6709SOL     OW21025   0.315   5.341   3.042  0.0619  0.3042  0.2078
 6709SOL    HW121026   0.312   5.388   3.131 -2.9081 -1.5720  1.2711
 6709SOL    HW221027   0.324   5.242   3.057 -0.8787 -0.0908 -1.5340
 6710SOL     OW21028   0.531   0.650   5.767  0.2584 -0.2514  0.2257
 6710SOL    HW121029   0.464   0.716   5.801  0.3529  0.2916 -0.6115
 6710SOL    HW221030   0.484   0.567   5.737  0.0352 -0.1527  0.2988
 6711SOL     OW21031   1.111   0.923   3.102 -0.0266 -0.0833 -0.6284
 6711SOL    HW121032   1.082   0.948   3.010 -1.3363  1.0773  0.0694
 6711SOL    HW221033   1.196   0.972   3.124 -0.6144  0.9740 -0.6263
 6712SOL     OW21034   6.390   4.646   5.929 -0.0143 -0.4112 -0.1798
 6712SOL    HW121035   6.394   4.729   5.985  0.0629 -0.0027 -0.7739
 6712SOL    HW221036   6.358   4.570   5.984  2.7528 -0.6932  1.1884
 6713SOL     OW21037   6.268   1.592   5.349  0.4488  0.1067  0.4462
 6713SOL    HW121038   6.269   1.536   5.432 -0.3338 -2.4530 -1.1656
 6713SOL    HW221039   6.352   1.574   5.297 -0.4868 -0.7924 -0.8089
 6714SOL     OW21040   6.444   2.043   2.232 -0.4812 -0.1380 -0.1717
 6714SOL    HW121041   6.389   2.037   2.148  0.0822 -1.3047 -0.4826
 6714SOL    HW221042   6.504   2.123   2.227 -1.8534  0.9556  0.0161
 6715SOL     OW21043   5.385   0.180   6.349 -0.7402 -0.2677  0.6847
 6715SOL    HW121044   5.294   0.207   6.384 -1.0184 -1.2409  0.7380
 6715SOL    HW221045   5.450   0.180   6.425 -1.2104 -1.7795  1.1283
 6716SOL     OW21046   6.827   4.299   6.581 -0.6278  0.2267 -0.1113
 6716SOL    HW121047   6.789   4.208   6.596 -1.0722  0.0828 -1.8470
 6716SOL    HW221048   6.883   4.299   6.498  1.6728  0.9031  1.3612
 6717SOL     OW21049   6.339   0.355   4.213  0.6345  0.2740  0.6317
 6717SOL    HW121050   6.333   0.383   4.309  0.0988 -0.3335  0.7824
 6717SOL    HW221051   6.363   0.435   4.157 -1.0712  1.1119  1.0226
 6718SOL     OW21052   5.739   6.971   5.264 -0.5127  0.3846  0.5707
 6718SOL    HW121053   5.746   6.878   5.301 -0.5566  0.4425  0.7257
 6718SOL    HW221054   5.813   6.986   5.198 -1.6002 -0.3788 -0.8522
 6719SOL     OW21055   0.833   0.171   0.534 -0.3544  0.1414  0.2066
 6719SOL    HW121056   0.876   0.116   0.462 -0.6050  0.5767 -0.2821
 6719SOL    HW221057   0.834   0.268   0.507 -1.7923  0.1522  0.0956
 6720SOL     OW21058   1.228   2.994   0.442 -0.1334  0.8609 -0.1300
 6720SOL    HW121059   1.140   3.005   0.395  0.5215  0.2623 -1.5881
 6720SOL    HW221060   1.239   2.898   0.469  0.1527  0.8929 -0.1297
 6721SOL     OW21061   0.028   1.501   3.054 -0.1177 -0.4839 -0.1344
 6721SOL    HW121062   0.122   1.479   3.028  0.4899 -0.2965  1.7614
 6721SOL    HW221063  -0.035   1.450   2.995  1.1752 -1.7242 -0.5116
 6722SOL     OW21064   5.711   6.963   3.361 -0.0517 -0.6744 -0.0981
 6722SOL    HW121065   5.794   6.987   3.412  0.2966  0.7311 -1.2784
 6722SOL    HW221066   5.631   6.991   3.414  0.0491 -3.5759  1.8691
 6723SOL     OW21067   2.243   6.650   5.574  0.3498  0.2545 -0.1541
 6723SOL    HW121068   2.174   6.592   5.531  0.1853  0.8978 -0.7722
 6723SOL    HW221069   2.201   6.702   5.648  0.6471 -0.9006  0.8722
 6724SOL     OW21070   2.624   5.751   3.831  0.1346  0.4264 -0.0664
 6724SOL    HW121071   2.643   5.814   3.755 -2.0829 -0.6288 -1.6059
 6724SOL    HW221072   2.607   5.659   3.795  1.6486 -0.7459  1.9939
 6725SOL     OW21073   6.190   3.556   6.969  0.0287  0.1301  0.0884
 6725SOL    HW121074   6.187   3.547   7.068  2.9633  1.3396  0.3733
 6725SOL    HW221075   6.110   3.606   6.937 -0.6235  0.3115  1.9178
 6726SOL     OW21076   4.119   4.800   1.174 -0.0809  0.6352 -0.5424
 6726SOL    HW121077   4.123   4.713   1.126 -0.6997 -0.5658  1.4431
 6726SOL    HW221078   4.196   4.858   1.147  0.8526 -0.8831 -1.2263
 6727SOL     OW21079   4.135   2.224   3.548  0.6648  0.2072  0.5274
 6727SOL    HW121080   4.227   2.193   3.570  0.2853 -1.8202 -0.4866
 6727SOL    HW221081   4.103   2.177   3.466 -0.0025  3.4266 -1.2050
 6728SOL     OW21082   2.219   1.973   5.960  0.5021 -0.1078 -0.7903
 6728SOL    HW121083   2.267   1.896   6.003 -0.6165 -0.5811 -0.3288
 6728SOL    HW221084   2.208   2.046   6.027  0.2501 -0.1617 -0.7701
 6729SOL     OW21085   6.230   4.105   1.048 -0.3009  0.1809 -0.1929
 6729SOL    HW121086   6.260   4.025   0.995 -2.4213 -0.7896 -0.0174
 6729SOL    HW221087   6.309   4.166   1.063  0.8244 -0.5100 -2.6534
 6730SOL     OW21088   2.314   2.227   6.237 -0.7956  0.3801 -0.0312
 6730SOL    HW121089   2.345   2.143   6.281 -0.0472  1.1115  0.8478
 6730SOL    HW221090   2.377   2.251   6.163 -0.9899  0.1907 -0.2592
 6731SOL     OW21091   5.881   3.223   0.153 -0.1846  0.2859  0.0247
 6731SOL    HW121092   5.897   3.304   0.209 -1.2416  0.5027  0.0377
 6731SOL    HW221093   5.884   3.141   0.210 -3.3258  0.6412  0.9007
 6732SOL     OW21094   4.602   0.104   0.440  0.0875  0.3679  0.4037
 6732SOL    HW121095   4.688   0.154   0.431  0.1597  0.0642 -0.7040
 6732SOL    HW221096   4.569   0.113   0.534  1.7302 -0.1821  1.0764
 6733SOL     OW21097   5.238   5.288   3.491 -0.1768  0.2350  0.2886
 6733SOL    HW121098   5.293   5.265   3.571  0.8909 -0.9189 -0.7387
 6733SOL    HW221099   5.141   5.279   3.513  0.1216 -2.7948  0.7143
 6734SOL     OW21100   0.219   1.934   2.413  0.0849  0.0740  0.3514
 6734SOL    HW121101   0.224   2.004   2.342  1.9911 -1.3225 -0.9739
 6734SOL    HW221102   0.139   1.876   2.396  0.3414 -0.0535 -0.4615
 6735SOL     OW21103   1.369   3.814   4.204  0.3932 -0.8528 -0.4623
 6735SOL    HW121104   1.284   3.865   4.209  0.2719 -1.0417 -0.5881
 6735SOL    HW221105   1.399   3.808   4.109  1.7522  1.1825 -0.2330
 6736SOL     OW21106   4.691   4.691   1.407 -0.3260  0.1611  0.1442
 6736SOL    HW121107   4.772   4.709   1.352 -1.4980  2.4759 -0.9920
 6736SOL    HW221108   4.681   4.764   1.476 -0.0561 -1.5302  2.0584
 6737SOL     OW21109   1.460   3.816   3.144  0.4553 -0.5107 -0.2340
 6737SOL    HW121110   1.545   3.815   3.198 -0.7931  0.0665  1.8603
 6737SOL    HW221111   1.416   3.906   3.153  0.5719 -0.1031 -2.9482
 6738SOL     OW21112   4.936   2.073   3.473 -0.5882  0.3827 -0.4907
 6738SOL    HW121113   4.920   2.048   3.569 -2.5743  2.0886 -0.3175
 6738SOL    HW221114   4.917   2.170   3.460  0.2851  0.3253 -2.5099
 6739SOL     OW21115   6.970   3.940   2.270  0.1932 -0.1023  0.3397
 6739SOL    HW121116   6.984   4.021   2.327 -1.5471  1.5871 -1.4868
 6739SOL    HW221117   7.049   3.927   2.210  0.5844  0.0710  0.8127
 6740SOL     OW21118   2.205   5.432   6.109 -0.0832  0.4082  0.1494
 6740SOL    HW121119   2.215   5.360   6.178  1.8043  2.1948  1.8863
 6740SOL    HW221120   2.226   5.395   6.019  1.5462 -1.0911  1.0808
 6741SOL     OW21121   1.436   5.056   5.566 -0.1403  0.3510  0.3471
 6741SOL    HW121122   1.437   4.958   5.585  2.7469 -0.1233 -1.6950
 6741SOL    HW221123   1.506   5.102   5.621 -1.2790  1.2855  1.0809
 6742SOL     OW21124   5.469   2.962   5.669 -0.6054 -0.4248 -0.2554
 6742SOL    HW121125   5.419   2.881   5.697 -0.7775  0.2912  1.7336
 6742SOL    HW221126   5.406   3.040   5.662 -0.0081  0.2137  1.0545
 6743SOL     OW21127   0.485   3.496   0.608  0.3483 -0.0759  0.0550
 6743SOL    HW121128   0.570   3.518   0.559  0.4655  2.9167  1.3972
 6743SOL    HW221129   0.507   3.439   0.687  1.3943  1.7266  1.1366
 6744SOL     OW21130   0.394   6.668   3.877 -0.1121  0.1578 -0.2045
 6744SOL    HW121131   0.456   6.744   3.895 -0.4726  0.6023 -0.7876
 6744SOL    HW221132   0.300   6.701   3.877 -0.1761  0.1753 -2.5497
 6745SOL     OW21133   4.958   3.639   5.421 -0.4036 -0.2793 -0.1092
 6745SOL    HW121134   4.944   3.550   5.379 -0.8867 -1.0164  1.5190
 6745SOL    HW221135   4.885   3.701   5.392 -0.8021 -0.8077 -0.2600
 6746SOL     OW21136   1.801   6.350   0.827  0.1026  0.3696 -0.5075
 6746SOL    HW121137   1.858   6.270   0.809 -0.2849 -0.3013  1.0955
 6746SOL    HW221138   1.811   6.416   0.752  1.8168 -0.3759 -0.9778
 6747SOL     OW21139   6.338   5.254   7.008  0.7662 -0.1475  0.3013
 6747SOL    HW121140   6.354   5.351   6.990 -2.1112  0.1059 -1.5185
 6747SOL    HW221141   6.281   5.244   7.090 -2.6790  0.1891 -1.8373
 6748SOL     OW21142   4.884   1.062   5.713 -0.4493  0.6000  0.1393
 6748SOL    HW121143   4.837   0.974   5.704 -0.0494  0.4553 -0.5893
 6748SOL    HW221144   4.884   1.090   5.809 -2.3419  0.7830  0.1259
 6749SOL     OW21145   3.219   2.994   3.019  0.1685 -1.1761 -0.8610
 6749SOL    HW121146   3.245   3.088   3.041 -0.0699 -1.0244 -1.2143
 6749SOL    HW221147   3.268   2.931   3.079 -1.3385 -0.7367  0.9239
 6750SOL     OW21148   2.753   2.827   0.971 -0.1476 -0.2676 -0.0690
 6750SOL    HW121149   2.743   2.759   0.898 -0.5020  0.5943 -0.8415
 6750SOL    HW221150   2.748   2.919   0.932  4.3261  0.3547  0.3188
 6751SOL     OW21151   5.033   3.287   3.836 -0.1193  0.4970 -0.3076
 6751SOL    HW121152   5.047   3.189   3.818 -0.3736  0.8433 -2.8670
 6751SOL    HW221153   5.108   3.339   3.796  0.6873  1.3268  2.1572
 6752SOL     OW21154   2.626   1.378   5.870  0.4354 -0.2773  0.6062
 6752SOL    HW121155   2.710   1.381   5.815 -0.0288  0.9749 -0.0598
 6752SOL    HW221156   2.596   1.283   5.879  0.3145 -0.4918 -1.6479
 6753SOL     OW21157   6.241   5.444   4.364 -0.2411  0.3493 -0.9091
 6753SOL    HW121158   6.142   5.438   4.357 -0.9440  4.6353  1.4438
 6753SOL    HW221159   6.273   5.389   4.441 -1.7412  2.8515  1.7051
 6754SOL     OW21160   1.692   1.812   1.714 -0.2180 -0.3299  0.0464
 6754SOL    HW121161   1.655   1.829   1.622 -1.5353 -1.1253  0.4053
 6754SOL    HW221162   1.730   1.897   1.751  0.0573  0.0692 -1.1095
 6755SOL     OW21163   6.491   6.221   5.304  0.1293  0.3375 -0.1779
 6755SOL    HW121164   6.554   6.253   5.374 -1.7352  1.1026  1.2158
 6755SOL    HW221165   6.440   6.142   5.338  0.0593 -0.0689 -1.1646
 6756SOL     OW21166   0.139   4.867   4.886  0.2345  0.7585 -0.3839
 6756SOL    HW121167   0.155   4.769   4.891 -0.0915  0.7646  1.4187
 6756SOL    HW221168   0.165   4.901   4.795 -2.1334 -1.3875 -1.9839
 6757SOL     OW21169   2.223   5.669   6.560  1.1409  0.2954 -0.5409
 6757SOL    HW121170   2.279   5.591   6.532 -0.0123 -1.1385  0.9717
 6757SOL    HW221171   2.243   5.693   6.655  1.6297  2.0317 -1.0318
 6758SOL     OW21172   1.687   5.011   3.548 -0.3692  0.4562 -0.1166
 6758SOL    HW121173   1.595   4.977   3.528  0.0740 -1.0444  0.2051
 6758SOL    HW221174   1.750   4.933   3.552  1.3699  1.6364 -2.6492
 6759SOL     OW21175   0.148   4.879   5.488 -0.2779  0.1726  0.1097
 6759SOL    HW121176   0.114   4.866   5.395  2.1882  0.2591 -0.8664
 6759SOL    HW221177   0.126   4.972   5.519 -0.9148  0.2175 -0.4433
 6760SOL     OW21178   2.369   3.756   6.768 -0.2342 -0.2959  0.4843
 6760SOL    HW121179   2.390   3.793   6.677 -1.2810  1.3455  0.8694
 6760SOL    HW221180   2.280   3.711   6.767 -1.1303  1.3652  1.0724
 6761SOL     OW21181   6.955   1.176   4.004 -0.5727 -0.0066 -0.4943
 6761SOL    HW121182   7.041   1.192   3.956 -0.7151  1.3535 -0.3264
 6761SOL    HW221183   6.974   1.131   4.092 -0.0809 -0.1487 -0.6710
 6762SOL     OW21184   2.122   1.281   2.639  0.0590 -0.7479 -0.2183
 6762SOL    HW121185   2.212   1.251   2.669 -0.1611 -1.9573 -0.7236
 6762SOL    HW221186   2.056   1.206   2.648 -0.3119 -0.7628 -2.3519
 6763SOL     OW21187   3.949   2.951   0.554  0.3921 -0.4604 -0.7261
 6763SOL    HW121188   3.916   3.044   0.565  0.4017 -0.4909 -0.4173
 6763SOL    HW221189   4.049   2.951   0.553  0.4749 -0.6692  1.4660
 6764SOL     OW21190   6.095   1.297   6.887 -0.2902  0.0568  0.1928
 6764SOL    HW121191   6.044   1.247   6.957 -0.4139 -1.0159 -0.6154
 6764SOL    HW221192   6.060   1.271   6.797 -0.6114  1.9334 -0.2615
 6765SOL     OW21193   2.789   0.748   3.154  0.0481 -0.0545 -0.0668
 6765SOL    HW121194   2.796   0.695   3.239 -1.0871  0.9354  0.6869
 6765SOL    HW221195   2.852   0.712   3.086  1.4880 -0.4484  1.4261
 6766SOL     OW21196   5.600   2.656   3.909  0.4705 -0.3311  0.6309
 6766SOL    HW121197   5.650   2.579   3.870  0.3765  0.5238 -1.3238
 6766SOL    HW221198   5.506   2.656   3.874  0.7292  1.1519 -0.1967
 6767SOL     OW21199   0.064   3.208   2.012  0.4417  0.1281 -0.0529
 6767SOL    HW121200   0.149   3.252   1.984  2.1274 -1.6928  1.9752
 6767SOL    HW221201   0.047   3.225   2.109 -1.3245  0.1158 -0.3214
 6768SOL     OW21202   3.334   1.771   3.472 -0.1914  0.4259  0.0937
 6768SOL    HW121203   3.330   1.703   3.399 -0.7611 -2.2406  2.4363
 6768SOL    HW221204   3.429   1.784   3.501  0.2158  2.5450 -1.9110
 6769SOL     OW21205   0.747   2.058   5.261 -0.0682 -0.1398 -0.3026
 6769SOL    HW121206   0.766   2.088   5.168  1.1606  0.6706  0.1886
 6769SOL    HW221207   0.649   2.067   5.280 -0.1008  1.1298 -1.0056
 6770SOL     OW21208   2.817   0.952   1.528 -0.0367 -0.4684  0.1565
 6770SOL    HW121209   2.826   0.989   1.435 -1.3093 -0.0917  0.1664
 6770SOL    HW221210   2.895   0.892   1.547  0.1733 -0.6755 -1.2179
 6771SOL     OW21211   6.156   5.977   1.213  0.3203  1.0653 -0.0107
 6771SOL    HW121212   6.213   5.947   1.289  2.3374  1.3372 -1.3397
 6771SOL    HW221213   6.152   6.077   1.211 -0.4736  1.0409  0.2582
 6772SOL     OW21214   3.291   6.609   3.592 -0.0002  0.0556 -0.0433
 6772SOL    HW121215   3.383   6.621   3.629  0.5008 -1.4435 -0.7027
 6772SOL    HW221216   3.296   6.593   3.493 -0.8713 -1.0004  0.0597
 6773SOL     OW21217   4.338   1.351   0.083 -0.4575  0.4753  0.0132
 6773SOL    HW121218   4.389   1.430   0.047 -1.7132  2.2602  1.8893
 6773SOL    HW221219   4.398   1.271   0.085  1.2464  1.6508 -0.8772
 6774SOL     OW21220   6.736   1.985   6.896  0.4692  0.1158 -0.5438
 6774SOL    HW121221   6.818   2.007   6.844  0.8485  0.3864  0.1577
 6774SOL    HW221222   6.753   1.999   6.994 -0.2251 -0.3996 -0.3386
 6775SOL     OW21223   3.042   5.281   1.502  0.0642 -0.2220 -0.5020
 6775SOL    HW121224   2.993   5.195   1.488 -0.6306  0.1447 -0.3858
 6775SOL    HW221225   3.097   5.275   1.585  0.3876 -0.7190 -0.7540
 6776SOL     OW21226   3.192   1.590   0.629 -0.0806 -0.1893  0.0467
 6776SOL    HW121227   3.095   1.594   0.609 -0.1031  1.9398  0.3376
 6776SOL    HW221228   3.207   1.609   0.726  0.5386 -2.3861  0.4276
 6777SOL     OW21229   5.825   3.281   2.599 -0.5651 -0.4583  0.2127
 6777SOL    HW121230   5.850   3.265   2.503 -1.0186  0.6641 -0.1090
 6777SOL    HW221231   5.859   3.206   2.655 -0.4436 -1.2223 -0.8518
 6778SOL     OW21232   6.588   4.534   0.721 -0.0750  0.4964  0.2522
 6778SOL    HW121233   6.516   4.524   0.653 -0.1977 -1.5561  0.6208
 6778SOL    HW221234   6.663   4.588   0.683 -0.0452 -0.7857 -1.5967
 6779SOL     OW21235   5.572   1.401   2.203  0.2481 -0.1177 -0.3172
 6779SOL    HW121236   5.657   1.367   2.162  0.3111 -0.3857  0.0267
 6779SOL    HW221237   5.496   1.346   2.170  0.1536  0.3616 -0.9193
 6780SOL     OW21238   4.928   2.350   0.178 -0.8357 -0.9095 -0.2568
 6780SOL    HW121239   5.002   2.304   0.228 -0.0950  0.2590 -0.2335
 6780SOL    HW221240   4.948   2.348   0.080 -0.4789 -0.1096 -0.2062
 6781SOL     OW21241   4.736   6.439   6.748 -0.3602  0.0184 -0.4720
 6781SOL    HW121242   4.658   6.501   6.750 -0.5957 -0.2966  0.3355
 6781SOL    HW221243   4.718   6.360   6.806  0.4350 -0.2146 -0.5257
 6782SOL     OW21244   4.917   3.535   0.579 -0.2290 -0.2960  0.3697
 6782SOL    HW121245   5.005   3.569   0.610 -0.3469  0.1113  0.2650
 6782SOL    HW221246   4.897   3.448   0.624  0.1129 -0.2686  0.5763
 6783SOL     OW21247   1.966   2.994   3.294  0.2316 -0.7743  0.5442
 6783SOL    HW121248   2.007   3.058   3.359  1.2716 -0.5214 -0.3314
 6783SOL    HW221249   1.928   2.915   3.343 -2.0589  0.9599  1.7671
 6784SOL     OW21250   4.527   2.745   1.660 -0.0676 -0.1092 -0.1449
 6784SOL    HW121251   4.556   2.813   1.728 -1.4695 -0.2357  0.6121
 6784SOL    HW221252   4.484   2.668   1.707  0.5066 -1.0264 -1.0761
 6785SOL     OW21253   1.413   2.519   2.159 -0.2003 -0.2006 -0.5991
 6785SOL    HW121254   1.370   2.554   2.076 -3.8145 -1.0946  0.6804
 6785SOL    HW221255   1.424   2.594   2.225 -0.6066 -0.0927 -0.6512
 6786SOL     OW21256   2.274   2.212   1.694  0.6382 -0.2416 -0.2311
 6786SOL    HW121257   2.342   2.140   1.710 -0.0184 -0.3860  2.2493
 6786SOL    HW221258   2.304   2.296   1.739 -0.5031 -0.1200  0.3280
 6787SOL     OW21259   0.968   5.397   5.147 -0.2033  0.6144  0.1236
 6787SOL    HW121260   1.029   5.332   5.191  1.1040  0.8806 -1.2439
 6787SOL    HW221261   0.915   5.446   5.217  0.7469 -0.0005  1.2944
 6788SOL     OW21262   1.298   2.524   4.878 -0.6928  0.0648 -0.1626
 6788SOL    HW121263   1.239   2.538   4.958  0.1198  1.3104  0.2539
 6788SOL    HW221264   1.350   2.440   4.889  1.6226  1.6527  2.1174
 6789SOL     OW21265   4.419   5.786   2.143  0.2202 -0.0520 -0.3601
 6789SOL    HW121266   4.454   5.710   2.087  0.3500 -0.0774 -0.2443
 6789SOL    HW221267   4.453   5.872   2.106  0.9686 -0.1188  0.1612
 6790SOL     OW21268   2.166   3.925   3.371 -0.2692  0.3973  0.1802
 6790SOL    HW121269   2.261   3.954   3.374 -0.9737  2.9729 -0.1780
 6790SOL    HW221270   2.140   3.904   3.276  0.4954 -2.6745  0.5333
 6791SOL     OW21271   1.370   0.306   1.119  0.7671  0.0340 -0.3493
 6791SOL    HW121272   1.442   0.246   1.152  0.6382 -0.2540 -0.5823
 6791SOL    HW221273   1.392   0.401   1.141  1.7162  0.0532 -1.3122
 6792SOL     OW21274   3.881   1.830   5.117 -0.5907 -0.2247  0.5790
 6792SOL    HW121275   3.872   1.928   5.104 -0.0681 -0.0584  1.4113
 6792SOL    HW221276   3.927   1.812   5.204 -1.0139 -1.2085  0.6108
 6793SOL     OW21277   2.863   0.050   0.386  0.1745  0.4979 -0.1888
 6793SOL    HW121278   2.939   0.035   0.450 -1.7631  0.9957  2.4160
 6793SOL    HW221279   2.839   0.147   0.385 -0.4023  0.3526 -0.9983
 6794SOL     OW21280   0.807   6.572   4.526 -0.1438 -0.4993  0.2612
 6794SOL    HW121281   0.843   6.659   4.559  2.1046 -1.0754 -0.5070
 6794SOL    HW221282   0.777   6.517   4.604 -0.1800  0.3624  0.8684
 6795SOL     OW21283   3.423   0.026   5.565 -0.0353  0.1902 -0.6030
 6795SOL    HW121284   3.324   0.018   5.579 -0.0448  1.9297  0.6422
 6795SOL    HW221285   3.441   0.052   5.470 -0.8365  0.7109 -0.6193
 6796SOL     OW21286   5.503   1.532   5.002 -0.6330 -0.5581  0.1944
 6796SOL    HW121287   5.433   1.474   5.042 -0.1767 -1.0790  0.2448
 6796SOL    HW221288   5.529   1.603   5.068  1.3609 -2.4351  1.5861
 6797SOL     OW21289   3.511   5.132   3.576  0.4326  0.4450  0.1761
 6797SOL    HW121290   3.481   5.113   3.670 -0.0783 -3.6293 -0.6399
 6797SOL    HW221291   3.433   5.127   3.514  1.1067  0.8347 -0.7309
 6798SOL     OW21292   0.420   2.588   4.267  0.3283 -0.6870 -0.3980
 6798SOL    HW121293   0.494   2.525   4.292  1.4142  0.2890 -1.0600
 6798SOL    HW221294   0.409   2.589   4.167  2.0830  2.0299 -0.6562
 6799SOL     OW21295   6.061   5.926   4.977 -0.0301  0.1771  0.3846
 6799SOL    HW121296   6.014   5.878   4.902 -1.0197  1.7897 -0.0659
 6799SOL    HW221297   6.106   6.008   4.941  0.5984  0.2762  1.3512
 6800SOL     OW21298   6.428   4.957   1.679 -0.4039  0.0532 -0.1491
 6800SOL    HW121299   6.440   4.936   1.776  0.7476  0.6888 -0.1344
 6800SOL    HW221300   6.477   4.890   1.623 -1.0957 -0.3343 -0.3005
 6801SOL     OW21301   4.971   3.116   4.232  0.9828 -0.6279  0.0640
 6801SOL    HW121302   4.903   3.046   4.212  1.5273 -1.0213 -0.4001
 6801SOL    HW221303   4.926   3.191   4.282 -0.1100 -0.2220 -1.4588
 6802SOL     OW21304   5.371   3.961   2.478 -1.1220 -0.6185 -0.5574
 6802SOL    HW121305   5.414   3.876   2.510 -1.0806 -0.6224 -0.6233
 6802SOL    HW221306   5.442   4.029   2.458 -1.2060  0.3938  2.1237
 6803SOL     OW21307   0.642   5.222   4.548  0.5131  0.1160 -0.2590
 6803SOL    HW121308   0.632   5.321   4.559  2.7425  0.4101 -0.3820
 6803SOL    HW221309   0.659   5.180   4.638 -0.4385 -0.1705 -0.2052
 6804SOL     OW21310   1.537   4.314   4.379  0.0340 -0.2547  0.2717
 6804SOL    HW121311   1.607   4.376   4.415 -0.6028 -0.1474  1.3810
 6804SOL    HW221312   1.515   4.245   4.447 -0.0779 -1.0296 -0.5313
 6805SOL     OW21313   5.255   3.562   2.251  0.2107  0.2648  0.0906
 6805SOL    HW121314   5.311   3.559   2.168 -0.9104 -0.0344 -0.6912
 6805SOL    HW221315   5.190   3.486   2.250  0.3953  0.0670  1.4203
 6806SOL     OW21316   1.683   0.202   6.807  0.3066 -0.0819 -0.5282
 6806SOL    HW121317   1.652   0.200   6.712  1.2136  0.8102 -0.8547
 6806SOL    HW221318   1.761   0.263   6.816 -0.2314  0.4546  0.9379
 6807SOL     OW21319   6.234   2.064   0.755 -0.1802  0.2176  0.4222
 6807SOL    HW121320   6.291   2.142   0.728 -2.4038  1.0839 -2.1837
 6807SOL    HW221321   6.269   1.981   0.711  1.0007  0.0492  1.5957
 6808SOL     OW21322   0.719   3.631   4.932 -0.6658 -1.1918 -0.0117
 6808SOL    HW121323   0.751   3.610   5.024  0.7103  0.5689 -0.0167
 6808SOL    HW221324   0.797   3.655   4.874 -1.7685  2.1427 -0.3602
 6809SOL     OW21325   2.956   0.856   0.214  0.5592  0.3859  0.2703
 6809SOL    HW121326   2.908   0.886   0.132 -2.0181 -0.8856  1.1807
 6809SOL    HW221327   3.026   0.789   0.190  0.7562  1.0236 -0.9847
 6810SOL     OW21328   5.442   6.357   5.191 -0.2978  0.1078  0.1692
 6810SOL    HW121329   5.502   6.438   5.187 -1.9285  1.3425 -0.6076
 6810SOL    HW221330   5.407   6.338   5.099 -1.2078 -0.4794  0.6298
 6811SOL     OW21331   6.814   5.466   6.088 -0.6397  0.4352  0.6224
 6811SOL    HW121332   6.755   5.447   6.010  0.9083 -0.5205 -0.3636
 6811SOL    HW221333   6.841   5.563   6.087 -2.6527  1.0516  1.4636
 6812SOL     OW21334   4.531   5.572   2.030  0.0464  0.3288  0.0411
 6812SOL    HW121335   4.619   5.584   1.984  0.6956 -0.7061  0.9622
 6812SOL    HW221336   4.461   5.548   1.963  0.7510 -0.1606 -0.5379
 6813SOL     OW21337   5.620   2.439   5.494  0.4180  0.0428 -0.0746
 6813SOL    HW121338   5.635   2.419   5.397 -1.4121  0.2150 -0.4259
 6813SOL    HW221339   5.546   2.383   5.529 -0.0809  1.1845  0.7692
 6814SOL     OW21340   6.790   5.760   0.315 -0.3896 -0.2303 -0.3068
 6814SOL    HW121341   6.876   5.738   0.360 -1.5259 -4.0615  0.2978
 6814SOL    HW221342   6.802   5.754   0.216  0.1019 -0.5653 -0.2299
 6815SOL     OW21343   0.990   1.434   2.794  0.0348  0.2617  0.2242
 6815SOL    HW121344   1.064   1.501   2.788 -1.7202  2.2715 -1.0572
 6815SOL    HW221345   1.009   1.358   2.732  1.6683 -0.0145  1.0202
 6816SOL     OW21346   0.116   2.939   6.658  0.1913 -0.0672  0.1607
 6816SOL    HW121347   0.127   2.841   6.668  0.6510 -0.0349  0.0111
 6816SOL    HW221348   0.140   2.966   6.564 -0.9784  0.0436 -0.1212
 6817SOL     OW21349   6.967   4.415   3.043 -0.4060 -0.0779 -0.4173
 6817SOL    HW121350   6.962   4.508   3.008  3.4461  0.8522  0.9987
 6817SOL    HW221351   7.047   4.369   3.005 -0.3789 -1.6308  1.3724
 6818SOL     OW21352   2.920   0.157   4.215 -0.4019  0.0148 -0.2320
 6818SOL    HW121353   2.943   0.253   4.200  0.4549 -0.1473 -0.0075
 6818SOL    HW221354   2.966   0.100   4.148 -1.1628 -0.2220 -0.5642
 6819SOL     OW21355   4.333   3.635   0.246 -0.1417  0.3441  0.4193
 6819SOL    HW121356   4.239   3.605   0.231 -0.6892  0.3594  3.3638
 6819SOL    HW221357   4.352   3.639   0.344  3.0948 -0.1064 -0.0873
 6820SOL     OW21358   6.239   4.386   1.480  0.3198 -0.2892  0.0241
 6820SOL    HW121359   6.145   4.361   1.456  0.9756 -2.4681 -0.5529
 6820SOL    HW221360   6.271   4.457   1.417  0.1742 -2.0278 -2.1561
 6821SOL     OW21361   4.823   5.418   5.133 -0.1146  0.2947 -0.3710
 6821SOL    HW121362   4.849   5.494   5.193  0.3813 -0.2378  0.1042
 6821SOL    HW221363   4.792   5.454   5.045  2.5928  0.9974 -1.1446
 6822SOL     OW21364   5.540   4.932   0.476 -1.0272 -0.0063 -0.2619
 6822SOL    HW121365   5.495   4.903   0.561 -3.9375  1.9552 -0.9962
 6822SOL    HW221366   5.609   5.002   0.498 -1.1427 -0.1334  0.5591
 6823SOL     OW21367   3.638   5.294   2.402  0.7142 -0.5674  0.3195
 6823SOL    HW121368   3.596   5.258   2.319  0.5582 -1.8533  0.9336
 6823SOL    HW221369   3.662   5.218   2.463  0.2262  0.3818  1.7361
 6824SOL     OW21370   3.146   5.701   0.993  0.1943 -0.2557 -0.3590
 6824SOL    HW121371   3.193   5.616   0.970 -0.2909  0.1872 -3.4574
 6824SOL    HW221372   3.053   5.700   0.956  0.2896  1.7201 -0.7869
 6825SOL     OW21373   3.238   6.109   1.345 -0.3435 -0.4162 -0.3696
 6825SOL    HW121374   3.164   6.147   1.289  0.6026  2.1479 -0.0279
 6825SOL    HW221375   3.223   6.134   1.441  1.4419  1.1252 -0.4304
 6826SOL     OW21376   3.759   0.255   3.051 -0.2057 -0.5904  0.0663
 6826SOL    HW121377   3.714   0.301   3.128  1.0056  0.1691  0.3429
 6826SOL    HW221378   3.691   0.232   2.982 -1.2432 -0.8318  1.1263
 6827SOL     OW21379   3.404   6.768   5.659  0.4647 -0.5330  0.1543
 6827SOL    HW121380   3.414   6.678   5.617 -1.6631 -0.3362 -0.8460
 6827SOL    HW221381   3.419   6.839   5.590  0.7703 -0.1209  0.6348
 6828SOL     OW21382   0.653   1.600   3.095 -0.8075  0.2461 -0.4133
 6828SOL    HW121383   0.625   1.543   3.018  0.7277  0.7866 -1.4109
 6828SOL    HW221384   0.645   1.547   3.180 -1.2191 -0.8079 -1.0924
 6829SOL     OW21385   3.695   4.391   0.104 -0.1309 -0.5496 -0.4943
 6829SOL    HW121386   3.753   4.398   0.022  0.7565  1.1178  0.2092
 6829SOL    HW221387   3.609   4.440   0.089 -1.0364 -2.3039 -1.2416
 6830SOL     OW21388   4.100   1.492   1.860  0.2040 -0.1480 -0.3701
 6830SOL    HW121389   4.190   1.451   1.880 -0.3423 -0.4298  1.7303
 6830SOL    HW221390   4.032   1.419   1.853 -0.1366  0.1659 -0.3314
 6831SOL     OW21391   3.197   3.124   2.296  0.0060 -0.1945 -0.1991
 6831SOL    HW121392   3.154   3.063   2.363 -1.0749  0.4313 -0.2942
 6831SOL    HW221393   3.126   3.169   2.242  0.5594  3.1140  1.5351
 6832SOL     OW21394   0.195   4.002   1.838  0.0150 -0.2866 -0.5371
 6832SOL    HW121395   0.139   3.969   1.762  1.4425 -1.8367 -0.9637
 6832SOL    HW221396   0.243   4.085   1.809  0.1239 -0.5524 -1.1279
 6833SOL     OW21397   2.837   6.711   3.637  0.1092 -0.4384 -0.6755
 6833SOL    HW121398   2.876   6.800   3.614  2.7479 -1.5366 -0.7960
 6833SOL    HW221399   2.837   6.653   3.556  0.3173 -1.1860 -0.1540
 6834SOL     OW21400   5.772   4.918   1.077 -0.1844  0.0950  0.3400
 6834SOL    HW121401   5.809   4.878   0.993  0.2066  0.0268  0.5422
 6834SOL    HW221402   5.845   4.925   1.145 -0.7320 -0.8331  1.0428
 6835SOL     OW21403   1.423   6.703   2.321 -0.7162 -0.6802  0.3419
 6835SOL    HW121404   1.495   6.751   2.272 -1.5364  0.6821  0.4192
 6835SOL    HW221405   1.385   6.631   2.261 -0.5239 -0.1996 -0.3725
 6836SOL     OW21406   1.714   3.843   6.158  0.6213  0.0214 -0.3201
 6836SOL    HW121407   1.795   3.893   6.128  1.2199  0.3960  1.7641
 6836SOL    HW221408   1.697   3.863   6.255 -1.6543 -0.4771 -0.5674
 6837SOL     OW21409   3.874   1.517   5.355  0.4197  0.2796 -0.1120
 6837SOL    HW121410   3.878   1.496   5.452 -0.4250  1.2208  0.1324
 6837SOL    HW221411   3.967   1.526   5.319  0.7895 -1.8132  0.1932
 6838SOL     OW21412   5.713   4.783   6.043  0.4184  0.2778  0.3336
 6838SOL    HW121413   5.746   4.766   6.136  1.1908  0.5179  0.1189
 6838SOL    HW221414   5.702   4.881   6.029 -1.3324  0.1610  0.6924
 6839SOL     OW21415   6.618   0.730   1.606  0.6204  0.7960 -0.4432
 6839SOL    HW121416   6.648   0.744   1.512  1.0819 -1.9198 -0.8044
 6839SOL    HW221417   6.596   0.633   1.619 -1.7178  1.4816  1.6227
 6840SOL     OW21418   2.091   2.308   5.453  1.0821  0.2723  0.1636
 6840SOL    HW121419   2.018   2.246   5.423  0.8395  1.1780 -1.2150
 6840SOL    HW221420   2.145   2.263   5.524  0.3892 -1.1732 -0.1682
 6841SOL     OW21421   0.215   2.610   6.282 -0.6104  0.4670 -0.3511
 6841SOL    HW121422   0.166   2.692   6.254 -0.8738  0.2258 -0.6031
 6841SOL    HW221423   0.173   2.530   6.239 -0.5923  0.1636  0.1792
 6842SOL     OW21424   6.837   6.557   5.989  0.0268 -0.1583 -0.1679
 6842SOL    HW121425   6.882   6.644   6.009  1.0661 -0.6979 -0.0396
 6842SOL    HW221426   6.793   6.522   6.071 -0.8975  0.5144 -0.3649
 6843SOL     OW21427   3.368   5.970   4.248 -0.6254 -0.0318 -0.6709
 6843SOL    HW121428   3.370   6.064   4.281  0.1417  0.6723 -2.6062
 6843SOL    HW221429   3.424   5.962   4.166  0.3291 -2.4624  0.1121
 6844SOL     OW21430   0.663   1.508   2.745  0.0844  0.5480 -0.1106
 6844SOL    HW121431   0.578   1.553   2.773 -1.2231 -1.4164 -0.7411
 6844SOL    HW221432   0.691   1.443   2.816  1.4694  1.6600  0.3991
 6845SOL     OW21433   3.420   6.754   4.866 -0.0532  0.3467 -0.2249
 6845SOL    HW121434   3.460   6.668   4.898 -2.0551 -1.5370 -2.3905
 6845SOL    HW221435   3.448   6.770   4.771  1.9082  3.2674  0.6885
 6846SOL     OW21436   2.101   0.594   5.385  0.0184  0.0626 -0.1032
 6846SOL    HW121437   2.183   0.625   5.337 -0.2249  0.7354 -0.0922
 6846SOL    HW221438   2.127   0.547   5.469  0.4060 -0.1415 -0.3351
 6847SOL     OW21439   5.736   2.065   1.297  0.8956  0.2106 -0.6465
 6847SOL    HW121440   5.778   2.005   1.229  2.8327 -0.2399  0.8712
 6847SOL    HW221441   5.776   2.156   1.291  1.1678  0.1365 -0.0580
 6848SOL     OW21442   3.472   1.548   0.195 -0.2913 -0.0200 -0.2979
 6848SOL    HW121443   3.425   1.504   0.272 -0.9007  2.4458  0.8582
 6848SOL    HW221444   3.534   1.619   0.229  0.4047  0.2699 -2.0356
 6849SOL     OW21445   3.516   5.675   0.042  0.2169  0.4182  0.0507
 6849SOL    HW121446   3.438   5.736   0.054 -0.3336  0.0248 -1.3833
 6849SOL    HW221447   3.587   5.722  -0.011  0.2854  0.2309 -0.0256
 6850SOL     OW21448   3.228   6.310   2.685  0.0024  0.6059  0.4835
 6850SOL    HW121449   3.139   6.269   2.667  0.0529  0.7841 -0.1879
 6850SOL    HW221450   3.282   6.312   2.601  0.7756  0.1905  0.9536
 6851SOL     OW21451   6.233   1.547   3.361 -0.4598  0.1093  0.8007
 6851SOL    HW121452   6.177   1.466   3.379  0.9181 -1.2309 -0.5921
 6851SOL    HW221453   6.296   1.562   3.437  0.3861 -1.1605  0.3975
 6852SOL     OW21454   2.069   1.869   2.789 -0.5427  0.0253 -0.1766
 6852SOL    HW121455   2.106   1.778   2.770  0.3034  0.0095  1.3796
 6852SOL    HW221456   2.002   1.893   2.719 -0.5055 -1.6364 -0.8269
 6853SOL     OW21457   3.322   0.327   0.091 -0.0396  0.6439  0.2118
 6853SOL    HW121458   3.352   0.357   0.000  0.2731 -0.1833  0.0281
 6853SOL    HW221459   3.223   0.334   0.097 -0.2563 -0.9579 -0.8495
 6854SOL     OW21460   0.104   1.808   0.728 -0.1513 -0.0719  0.3880
 6854SOL    HW121461   0.083   1.893   0.776  0.1653  0.2102  0.0342
 6854SOL    HW221462   0.052   1.733   0.769 -0.3843  0.2779  0.7439
 6855SOL     OW21463   0.592   2.736   3.103  0.1800 -0.2460 -0.5612
 6855SOL    HW121464   0.571   2.766   3.011 -0.1080 -0.1868 -0.4775
 6855SOL    HW221465   0.530   2.780   3.168  0.6307  0.0084 -0.2970
 6856SOL     OW21466   6.031   3.890   0.834  0.1762  0.1383 -0.2080
 6856SOL    HW121467   6.004   3.967   0.777 -2.1528 -0.4081  0.0681
 6856SOL    HW221468   5.961   3.819   0.831  0.4848 -0.4019  2.4428
 6857SOL     OW21469   1.206   3.574   2.011  0.3791  0.3140 -0.6115
 6857SOL    HW121470   1.176   3.635   2.084 -2.2293  1.3477 -2.4174
 6857SOL    HW221471   1.267   3.623   1.949  0.7537  0.1256 -0.3973
 6858SOL     OW21472   6.155   5.805   1.023  0.2838 -0.5108 -0.1205
 6858SOL    HW121473   6.155   5.873   1.096  0.7934 -0.3530 -0.2606
 6858SOL    HW221474   6.093   5.730   1.046 -0.1438 -0.0812  0.1154
 6859SOL     OW21475   6.704   3.432   6.742 -0.2262 -0.0408 -0.2224
 6859SOL    HW121476   6.663   3.523   6.739  1.6574  0.8724 -0.3282
 6859SOL    HW221477   6.702   3.398   6.836 -2.0750 -0.4890 -0.3861
 6860SOL     OW21478   0.083   0.027   0.336 -0.3457 -0.4072 -0.6515
 6860SOL    HW121479   0.004  -0.015   0.292 -0.6249  0.6262 -1.1903
 6860SOL    HW221480   0.058   0.058   0.428  0.2104 -2.4828  0.2434
 6861SOL     OW21481   5.330   1.616   6.478 -0.3065 -0.1809  0.0892
 6861SOL    HW121482   5.298   1.646   6.388 -6.1283 -0.5772  1.6120
 6861SOL    HW221483   5.344   1.517   6.477  0.1852 -0.1107 -0.5005
 6862SOL     OW21484   5.195   5.273   6.732 -0.5489 -1.0799  0.4756
 6862SOL    HW121485   5.246   5.188   6.720 -1.8181 -1.9995  1.2439
 6862SOL    HW221486   5.118   5.275   6.667 -1.1113 -1.0073  1.1337
 6863SOL     OW21487   1.117   6.531   6.840 -0.1149  0.2599 -0.0336
 6863SOL    HW121488   1.082   6.598   6.905 -0.5172  0.2456 -0.2268
 6863SOL    HW221489   1.109   6.439   6.878  0.5056  0.3266  0.2607
 6864SOL     OW21490   0.372   4.448   1.420 -0.3218 -0.0961  0.7331
 6864SOL    HW121491   0.338   4.510   1.349 -0.8306 -0.6052  0.5283
 6864SOL    HW221492   0.337   4.477   1.509  0.6625  0.7950  0.8362
 6865SOL     OW21493   1.159   5.157   0.491 -0.0930 -0.4915  0.6304
 6865SOL    HW121494   1.094   5.214   0.542  1.0814 -0.2062  1.8677
 6865SOL    HW221495   1.132   5.061   0.499 -1.0164 -0.2839  0.1318
 6866SOL     OW21496   5.881   5.969   6.250  0.1592 -0.3361 -0.0932
 6866SOL    HW121497   5.834   5.887   6.283  2.0360 -1.8120 -0.8803
 6866SOL    HW221498   5.901   6.030   6.327 -1.6562 -0.3654  0.4422
 6867SOL     OW21499   4.917   3.638   3.625 -0.0635  0.7441 -0.1117
 6867SOL    HW121500   5.012   3.616   3.606 -0.1839 -1.1437  1.1614
 6867SOL    HW221501   4.898   3.624   3.722 -2.5016 -2.8984 -0.8885
 6868SOL     OW21502   4.053   4.803   0.740 -0.1635 -0.8271 -0.0570
 6868SOL    HW121503   3.990   4.875   0.709  0.7276 -0.8061 -1.9650
 6868SOL    HW221504   4.002   4.735   0.793 -1.7700 -0.7185 -1.3903
 6869SOL     OW21505   1.278   4.182   4.238  0.3623 -1.0883 -0.2975
 6869SOL    HW121506   1.304   4.144   4.149  0.8785 -1.5875  0.0566
 6869SOL    HW221507   1.212   4.121   4.282  0.1232 -0.8535 -0.3325
 6870SOL     OW21508   1.843   2.099   3.722 -0.0126  0.1433  0.2686
 6870SOL    HW121509   1.845   2.087   3.822  0.5404  0.1946  0.2636
 6870SOL    HW221510   1.749   2.086   3.689  0.3341 -3.3487  0.3566
 6871SOL     OW21511   0.979   4.247   1.068 -0.5919  0.1630  0.0449
 6871SOL    HW121512   0.968   4.156   1.029 -0.5203  0.6506 -1.1453
 6871SOL    HW221513   0.923   4.255   1.151 -0.2847 -1.0777  0.3869
 6872SOL     OW21514   1.251   5.279   2.901  0.1975  0.0702 -0.3903
 6872SOL    HW121515   1.345   5.268   2.933  1.0740  2.0929 -1.9926
 6872SOL    HW221516   1.252   5.308   2.805 -1.8126  3.7603  0.4957
 6873SOL     OW21517   4.116   5.448   2.787 -0.6461  0.3898 -0.5765
 6873SOL    HW121518   4.113   5.349   2.802  0.3135  0.5098  0.6029
 6873SOL    HW221519   4.209   5.475   2.762 -0.5677  1.1558  0.4778
 6874SOL     OW21520   4.716   5.441   0.998  0.2896  0.1004 -0.3836
 6874SOL    HW121521   4.771   5.386   1.060  0.4425  0.2178 -0.4150
 6874SOL    HW221522   4.642   5.486   1.049  0.3004  0.0448 -0.3201
 6875SOL     OW21523   2.543   6.524   4.661  0.1544 -0.4921 -0.7358
 6875SOL    HW121524   2.630   6.569   4.641  0.3428 -1.4528 -2.1557
 6875SOL    HW221525   2.557   6.451   4.728 -0.1471  1.4292  1.5648
 6876SOL     OW21526   2.742   5.491   2.778 -0.5973  0.2367 -0.3718
 6876SOL    HW121527   2.768   5.431   2.702  1.4569  1.4350 -0.6927
 6876SOL    HW221528   2.821   5.504   2.838 -1.5421  1.1367  0.7079
 6877SOL     OW21529   0.966   3.314   2.850 -0.2030 -0.3692  0.5595
 6877SOL    HW121530   1.005   3.379   2.914  0.2692  1.1367 -1.1651
 6877SOL    HW221531   1.033   3.294   2.778 -1.0605 -1.2164 -0.0336
 6878SOL     OW21532   0.614   1.740   0.946  0.2579  0.2620  0.1081
 6878SOL    HW121533   0.596   1.800   0.868 -0.0303  2.2125  1.6021
 6878SOL    HW221534   0.569   1.776   1.028 -1.2034 -2.8217  0.8305
 6879SOL     OW21535   0.340   2.545   2.929  0.0159  0.2957 -0.7584
 6879SOL    HW121536   0.257   2.585   2.889  0.2897 -0.0274 -1.6878
 6879SOL    HW221537   0.414   2.612   2.926  0.9159 -0.6401 -3.7515
 6880SOL     OW21538   6.876   2.312   0.789 -0.5557  0.4041 -0.0395
 6880SOL    HW121539   6.891   2.391   0.730  0.8786  0.4031  0.2977
 6880SOL    HW221540   6.829   2.341   0.873  0.2273  0.9724  0.2170
 6881SOL     OW21541   0.571   4.265   2.284 -0.2052  0.0157  0.0920
 6881SOL    HW121542   0.554   4.355   2.325  0.8582  0.1029  0.3815
 6881SOL    HW221543   0.662   4.234   2.311 -1.2234 -1.9639  1.4912
 6882SOL     OW21544   0.189   5.864   4.088 -0.0146 -0.1650 -0.5370
 6882SOL    HW121545   0.099   5.905   4.073  0.4200  0.4367 -1.6031
 6882SOL    HW221546   0.228   5.837   4.000  2.2280  2.5745 -0.5249
 6883SOL     OW21547   5.481   2.805   1.184 -0.3562 -0.0809 -0.2707
 6883SOL    HW121548   5.528   2.836   1.266  0.9117 -0.8833 -0.6713
 6883SOL    HW221549   5.507   2.711   1.163 -1.9900 -0.4869 -0.6487
 6884SOL     OW21550   2.880   1.214   3.313  0.5736  0.9668  0.3101
 6884SOL    HW121551   2.802   1.203   3.374  1.2737  1.0156  1.2446
 6884SOL    HW221552   2.950   1.270   3.359  1.9526 -0.6270  0.2626
 6885SOL     OW21553   3.688   6.887   3.253 -0.3943 -0.0279 -0.2684
 6885SOL    HW121554   3.761   6.822   3.235  0.0223 -0.0467  1.3673
 6885SOL    HW221555   3.719   6.957   3.317 -1.4689  0.6164 -0.4107
 6886SOL     OW21556   1.826   6.230   2.504 -0.1301 -0.0097 -0.3654
 6886SOL    HW121557   1.740   6.240   2.554 -0.3953 -0.1004 -0.8027
 6886SOL    HW221558   1.811   6.245   2.407  0.4539  0.5155 -0.3852
 6887SOL     OW21559   2.314   1.136   1.613  0.1821  0.2484 -0.2738
 6887SOL    HW121560   2.409   1.107   1.600 -0.5107 -2.2285 -0.3089
 6887SOL    HW221561   2.274   1.163   1.525  0.1187 -1.2412 -0.7240
 6888SOL     OW21562   0.119   5.805   1.540 -0.3246 -0.5355  0.4075
 6888SOL    HW121563   0.200   5.769   1.494 -0.8316 -0.2481 -0.7677
 6888SOL    HW221564   0.091   5.891   1.495 -2.0107 -1.2873 -0.0647
 6889SOL     OW21565   2.123   3.484   4.656  0.6457  0.4686 -1.0767
 6889SOL    HW121566   2.154   3.488   4.561 -0.8594  0.9331 -1.5738
 6889SOL    HW221567   2.106   3.577   4.688 -1.7105  0.1907 -1.3642
 6890SOL     OW21568   4.646   2.403   3.938  0.3359  0.5408 -0.2451
 6890SOL    HW121569   4.729   2.459   3.935  0.0826  0.9029 -0.9487
 6890SOL    HW221570   4.566   2.462   3.931  0.0660  0.0868 -1.1878
 6891SOL     OW21571   2.693   5.808   5.396 -0.6670 -0.0129  0.0137
 6891SOL    HW121572   2.739   5.732   5.441  0.0249  0.9460  0.9942
 6891SOL    HW221573   2.594   5.797   5.403 -0.6027  0.3286  2.2549
 6892SOL     OW21574   5.853   4.164   3.445 -0.0583 -0.2734  0.2441
 6892SOL    HW121575   5.825   4.195   3.354  4.1483  1.7352 -0.6577
 6892SOL    HW221576   5.886   4.070   3.440 -2.3593 -1.1625  0.4398
 6893SOL     OW21577   0.315   4.368   6.670 -0.1250 -0.2643  1.0238
 6893SOL    HW121578   0.300   4.366   6.571  3.3605  1.8446  0.2893
 6893SOL    HW221579   0.363   4.284   6.697  1.2082  0.2514  0.3767
 6894SOL     OW21580   3.561   2.924   3.043 -0.6014  0.0297  0.6880
 6894SOL    HW121581   3.643   2.894   3.091 -0.7810 -0.8352  0.4617
 6894SOL    HW221582   3.568   2.899   2.946 -1.5120 -0.8206  0.8372
 6895SOL     OW21583   4.510   1.730   3.197  0.3789 -0.4558 -0.0831
 6895SOL    HW121584   4.491   1.827   3.213  0.7215 -0.1810 -1.2434
 6895SOL    HW221585   4.425   1.678   3.209  0.5989 -0.3073  2.5015
 6896SOL     OW21586   6.602   1.993   3.864  0.3150 -0.5349  0.2633
 6896SOL    HW121587   6.632   1.899   3.850 -0.8806 -0.8707 -0.1652
 6896SOL    HW221588   6.518   1.994   3.917 -0.4625  0.1919 -0.9273
 6897SOL     OW21589   4.925   4.827   4.005  0.0337 -0.1805  0.0294
 6897SOL    HW121590   4.928   4.742   4.059 -0.4559 -0.8637 -0.9912
 6897SOL    HW221591   4.994   4.822   3.932  0.7015  0.7438  0.5700
 6898SOL     OW21592   0.293   4.650   3.342 -0.1676 -0.5055 -0.0323
 6898SOL    HW121593   0.333   4.716   3.405 -1.0332 -0.8529  0.9052
 6898SOL    HW221594   0.300   4.558   3.382 -0.9766 -0.6959 -0.3024
 6899SOL     OW21595   6.866   6.705   6.635 -0.6234  0.6088 -0.2491
 6899SOL    HW121596   6.857   6.652   6.551  2.2379  0.6532 -0.6926
 6899SOL    HW221597   6.873   6.802   6.613 -0.0907  0.6403  0.0366
 6900SOL     OW21598   5.122   5.746   1.788  0.1447 -0.0318 -0.3491
 6900SOL    HW121599   5.208   5.700   1.808 -0.5186 -2.2822 -2.3506
 6900SOL    HW221600   5.047   5.680   1.786 -1.2618  1.4914 -1.0615
 6901SOL     OW21601   3.346   6.203   4.399 -0.5306  0.1124 -0.8553
 6901SOL    HW121602   3.376   6.169   4.489 -0.2567 -2.6967 -1.8990
 6901SOL    HW221603   3.250   6.230   4.404 -0.5449 -0.0850  0.2841
 6902SOL     OW21604   4.312   6.513   2.580  0.1227  0.1049  0.8086
 6902SOL    HW121605   4.292   6.434   2.638  1.6881 -0.8472  0.1236
 6902SOL    HW221606   4.236   6.528   2.517  0.0553 -1.2681  0.5270
 6903SOL     OW21607   1.163   3.153   4.753 -0.2131 -0.0970 -0.1761
 6903SOL    HW121608   1.169   3.247   4.719 -0.2825 -0.4588 -1.2573
 6903SOL    HW221609   1.182   3.151   4.851  1.4570  0.8399 -0.4409
 6904SOL     OW21610   6.231   3.021   5.164  0.3034  0.0887 -0.3508
 6904SOL    HW121611   6.148   2.978   5.202  1.5226 -1.7743  0.3204
 6904SOL    HW221612   6.312   2.980   5.206  1.6012  2.0088 -0.8534
 6905SOL     OW21613   6.342   3.473   2.645  0.3803  0.1563  0.1815
 6905SOL    HW121614   6.302   3.485   2.736 -0.0363 -0.5190  0.0970
 6905SOL    HW221615   6.401   3.551   2.624  0.1726  0.5108  0.8677
 6906SOL     OW21616   4.585   1.785   3.564 -0.1932  0.7937  0.0167
 6906SOL    HW121617   4.650   1.814   3.494 -0.5047 -1.9675 -1.5757
 6906SOL    HW221618   4.636   1.762   3.648  0.7518 -0.0306 -0.7544
 6907SOL     OW21619   5.442   5.628   1.492  0.3510  0.4510 -0.0830
 6907SOL    HW121620   5.450   5.727   1.482 -1.4286  0.5918 -0.5248
 6907SOL    HW221621   5.345   5.604   1.505  0.7242 -1.2542 -0.2171
 6908SOL     OW21622   2.944   3.786   3.006  0.0867  0.4064  0.1144
 6908SOL    HW121623   2.951   3.872   3.057 -1.2158  0.4210  0.3046
 6908SOL    HW221624   2.956   3.804   2.909 -1.6813  1.0829 -0.0177
 6909SOL     OW21625   2.138   2.591   5.456  0.0551 -0.2120 -0.3306
 6909SOL    HW121626   2.121   2.497   5.426  0.3116 -0.3668  0.0008
 6909SOL    HW221627   2.102   2.603   5.548 -1.9131  0.6345 -1.1590
 6910SOL     OW21628   6.202   2.053   6.549 -0.0377 -0.3610 -0.1271
 6910SOL    HW121629   6.223   2.140   6.593 -1.6654  0.0077  0.0053
 6910SOL    HW221630   6.145   2.070   6.469  0.4557 -1.2494 -0.6759
 6911SOL     OW21631   5.476   1.375   0.325  0.8394 -0.7107 -0.5789
 6911SOL    HW121632   5.476   1.395   0.227  0.1054  0.8541 -0.2842
 6911SOL    HW221633   5.488   1.460   0.376 -0.4222 -1.2821  0.7113
 6912SOL     OW21634   2.136   6.565   4.777  0.4465  0.0250  0.3694
 6912SOL    HW121635   2.148   6.522   4.687  1.5894 -1.5500  1.2357
 6912SOL    HW221636   2.151   6.664   4.768  1.4800 -0.2165 -1.0089
 6913SOL     OW21637   3.958   6.003   3.473 -0.1656  0.3313 -0.0741
 6913SOL    HW121638   3.989   5.993   3.379  2.1290 -0.2009  0.6620
 6913SOL    HW221639   3.977   6.096   3.504  0.3063  0.1287  0.2537
 6914SOL     OW21640   3.528   0.486   0.244  0.1558  0.1801  0.1343
 6914SOL    HW121641   3.434   0.520   0.239 -0.4468 -1.4898 -0.4748
 6914SOL    HW221642   3.530   0.400   0.295  1.7410  1.3513  2.2637
 6915SOL     OW21643   4.800   5.178   1.767 -0.3704 -0.1612  0.1391
 6915SOL    HW121644   4.766   5.237   1.841 -0.8856 -0.3127  0.0282
 6915SOL    HW221645   4.758   5.206   1.681  1.3791  1.0123 -0.3897
 6916SOL     OW21646   1.643   6.994   6.419  0.4606 -0.2042  0.2529
 6916SOL    HW121647   1.725   6.941   6.439 -0.3244 -1.5288  0.0729
 6916SOL    HW221648   1.661   7.091   6.435  2.7062 -0.1865 -1.8808
 6917SOL     OW21649   1.298   1.113   2.474 -0.1719  0.0689  0.4953
 6917SOL    HW121650   1.326   1.025   2.434  0.3975  0.1034  0.8010
 6917SOL    HW221651   1.377   1.174   2.478 -0.8829  1.1639 -1.1612
 6918SOL     OW21652   4.532   2.358   6.041  0.1101 -0.0069 -0.2749
 6918SOL    HW121653   4.598   2.423   6.077 -0.1634  0.7177 -1.0344
 6918SOL    HW221654   4.448   2.407   6.016 -1.2352 -1.0831  1.8841
 6919SOL     OW21655   3.890   5.104   0.461 -0.2562 -0.5013 -0.5589
 6919SOL    HW121656   3.879   5.051   0.378 -0.6293 -1.3616  0.0220
 6919SOL    HW221657   3.864   5.048   0.540 -1.5538  0.8394  0.0110
 6920SOL     OW21658   6.371   3.639   0.895  0.2420 -0.3533  0.0832
 6920SOL    HW121659   6.460   3.649   0.939  0.5606 -1.2593 -0.3432
 6920SOL    HW221660   6.323   3.561   0.934 -0.5219  0.3233  0.5428
 6921SOL     OW21661   2.559   4.458   6.695  0.4411  0.3239 -0.4864
 6921SOL    HW121662   2.470   4.503   6.699  0.0370 -0.3850 -1.3076
 6921SOL    HW221663   2.547   4.359   6.696  1.2889  0.2056  0.4869
 6922SOL     OW21664   2.837   5.782   2.022 -0.9563 -0.4285 -0.2379
 6922SOL    HW121665   2.915   5.828   1.979 -0.7634  0.0896  0.6351
 6922SOL    HW221666   2.763   5.848   2.035 -0.6781 -0.3350  1.0264
 6923SOL     OW21667   3.965   2.773   5.968 -0.5644  0.5574  0.2058
 6923SOL    HW121668   3.994   2.866   5.992 -2.4112  0.9598  1.0245
 6923SOL    HW221669   3.991   2.710   6.041  0.6644  0.4067 -0.3361
 6924SOL     OW21670   0.557   6.295   6.018 -0.1738  0.5078  0.3651
 6924SOL    HW121671   0.498   6.367   5.981  1.8175  2.3027  0.4783
 6924SOL    HW221672   0.507   6.246   6.090 -1.4971  2.0514  0.5805
 6925SOL     OW21673   4.696   1.923   6.444 -0.3502  0.6287  0.3258
 6925SOL    HW121674   4.746   2.006   6.418 -0.1995  0.2596 -0.6114
 6925SOL    HW221675   4.639   1.942   6.524 -0.9663  1.8839 -0.3770
 6926SOL     OW21676   0.428   3.435   2.682 -0.2088 -0.3696 -0.2468
 6926SOL    HW121677   0.446   3.501   2.609  1.1759  0.6214  0.9499
 6926SOL    HW221678   0.494   3.360   2.676  2.8189  1.8031  2.3783
 6927SOL     OW21679   2.673   0.075   3.485 -0.1951 -0.0721 -0.0633
 6927SOL    HW121680   2.633   0.065   3.394 -2.4073 -1.8213  1.0099
 6927SOL    HW221681   2.606   0.114   3.548  0.3734 -1.2873  1.3694
 6928SOL     OW21682   5.812   1.522   4.592 -0.0737  0.2114 -0.0786
 6928SOL    HW121683   5.748   1.566   4.530  0.6104  1.2658 -0.0725
 6928SOL    HW221684   5.813   1.571   4.679 -0.3657 -0.7092  0.4454
 6929SOL     OW21685   4.868   0.441   2.337 -0.1004  0.5823  0.1126
 6929SOL    HW121686   4.922   0.385   2.276 -0.5812 -0.2762  0.4596
 6929SOL    HW221687   4.825   0.515   2.285 -0.2780  0.0338 -0.5357
 6930SOL     OW21688   3.641   5.952   3.267 -0.1287 -0.1254 -0.5925
 6930SOL    HW121689   3.722   5.908   3.229  0.2231  1.7406 -2.1504
 6930SOL    HW221690   3.640   6.049   3.242 -1.8308  0.3648  1.0924
 6931SOL     OW21691   1.769   2.970   0.721  0.8596  0.1218  0.5339
 6931SOL    HW121692   1.833   2.929   0.786  3.6727  1.2760 -1.3678
 6931SOL    HW221693   1.742   2.901   0.653  1.1599 -0.0129  0.5511
 6932SOL     OW21694   3.881   3.330   1.444 -0.3877  0.2570  0.5204
 6932SOL    HW121695   3.894   3.426   1.422 -0.2827  0.3864  1.1427
 6932SOL    HW221696   3.786   3.315   1.472 -0.9261 -0.1779 -1.3655
 6933SOL     OW21697   2.587   5.193   1.539 -0.2393 -0.1374  0.4395
 6933SOL    HW121698   2.569   5.291   1.537  0.6469  0.0317 -1.9593
 6933SOL    HW221699   2.549   5.150   1.457 -0.3793 -1.7870  1.3134
 6934SOL     OW21700   2.231   6.439   2.625  0.6804 -0.0690 -0.4483
 6934SOL    HW121701   2.136   6.463   2.604  0.7449  0.4591 -0.1330
 6934SOL    HW221702   2.287   6.522   2.627  0.9117 -0.2449  0.5911
 6935SOL     OW21703   5.711   1.291   3.322 -0.7956  0.0178  0.0852
 6935SOL    HW121704   5.755   1.363   3.375 -4.5175  0.5738  2.9041
 6935SOL    HW221705   5.652   1.331   3.252  0.9788 -0.6108 -1.8764
 6936SOL     OW21706   0.183   6.692   5.221  0.4512 -0.0260  0.0304
 6936SOL    HW121707   0.173   6.602   5.179 -1.3567  0.5259 -0.7999
 6936SOL    HW221708   0.261   6.690   5.285  0.5100 -2.1310 -0.0289
 6937SOL     OW21709   3.499   0.793   0.390 -0.1734 -0.3852  0.1941
 6937SOL    HW121710   3.558   0.713   0.404  1.0166  0.2483 -1.1037
 6937SOL    HW221711   3.551   0.868   0.351 -1.3757  0.9222  0.9822
 6938SOL     OW21712   0.876   6.591   4.158  0.6356  0.2872  0.0054
 6938SOL    HW121713   0.863   6.522   4.230 -0.5090  1.4399  0.9633
 6938SOL    HW221714   0.818   6.569   4.080 -2.2012  1.7008  1.5269
 6939SOL     OW21715   1.115   4.296   6.435 -0.0672  0.0564  0.1694
 6939SOL    HW121716   1.104   4.331   6.342  1.0030  1.2972  0.4846
 6939SOL    HW221717   1.197   4.239   6.440 -0.9597 -1.3096  0.0283
 6940SOL     OW21718   2.123   2.212   1.045  0.0779  0.2110  0.0204
 6940SOL    HW121719   2.033   2.245   1.014 -0.7316 -1.3844  0.5898
 6940SOL    HW221720   2.161   2.150   0.978 -0.3598 -0.9918  0.8570
 6941SOL     OW21721   2.356   6.288   5.588  0.5077 -0.7156  0.5084
 6941SOL    HW121722   2.329   6.238   5.670  0.0840 -0.2061  0.6892
 6941SOL    HW221723   2.277   6.301   5.529  0.5544 -0.0651  0.5759
 6942SOL     OW21724   6.102   5.509   0.566  0.2494  0.4349  0.3830
 6942SOL    HW121725   6.164   5.557   0.627  0.6982  0.2161  0.1049
 6942SOL    HW221726   6.072   5.571   0.494  0.4362  0.4413  0.3096
 6943SOL     OW21727   0.687   5.311   6.233  0.1615  0.1091 -0.3685
 6943SOL    HW121728   0.733   5.342   6.317  0.4204  0.2214 -0.5508
 6943SOL    HW221729   0.676   5.389   6.171  0.2332 -0.0367 -0.5624
 6944SOL     OW21730   5.554   0.287   1.504  0.0290 -0.1754  0.4651
 6944SOL    HW121731   5.514   0.378   1.516  1.0022  0.2760  0.4234
 6944SOL    HW221732   5.603   0.283   1.417  1.3533 -0.1935  1.1774
 6945SOL     OW21733   5.148   0.859   5.776  1.1347 -0.6100  0.1378
 6945SOL    HW121734   5.194   0.886   5.691 -0.0969 -1.9019 -1.0161
 6945SOL    HW221735   5.079   0.789   5.755  2.0011 -2.2905  2.4713
 6946SOL     OW21736   1.614   1.108   1.584  0.1605  0.2222 -0.2092
 6946SOL    HW121737   1.694   1.050   1.571  1.5198  1.1712  3.0394
 6946SOL    HW221738   1.615   1.181   1.515  2.2487  0.3573 -0.1018
 6947SOL     OW21739   0.416   1.328   0.025 -0.3683 -0.0766 -0.0226
 6947SOL    HW121740   0.398   1.426   0.036  1.4427  0.2129  0.6931
 6947SOL    HW221741   0.388   1.279   0.108  0.0172  0.0533  0.1890
 6948SOL     OW21742   4.223   6.001   1.969  0.0265 -0.2885 -0.4055
 6948SOL    HW121743   4.172   5.931   2.019 -2.8946  0.9227 -1.5049
 6948SOL    HW221744   4.197   5.999   1.873  1.4046  1.0241 -0.8381
 6949SOL     OW21745   4.431   5.248   5.877  0.4786  0.4320 -0.2063
 6949SOL    HW121746   4.371   5.267   5.799 -1.1233 -0.3279  0.7923
 6949SOL    HW221747   4.401   5.164   5.922 -0.0566  1.9536  2.5186
 6950SOL     OW21748   2.982   0.216   4.941 -0.2859 -0.1919 -0.3383
 6950SOL    HW121749   3.017   0.141   4.885  2.9325 -1.0960  2.5107
 6950SOL    HW221750   3.044   0.294   4.934 -0.4191  0.0570  1.0575
 6951SOL     OW21751   6.163   4.523   2.893 -0.1043 -0.0167  0.2983
 6951SOL    HW121752   6.064   4.535   2.892 -0.1152 -0.0399  0.9118
 6951SOL    HW221753   6.206   4.610   2.919 -0.0722 -0.5689  2.2608
 6952SOL     OW21754   2.444   2.554   0.553  0.2360  0.1791 -0.1453
 6952SOL    HW121755   2.504   2.537   0.630  0.7143 -0.5969 -0.6755
 6952SOL    HW221756   2.379   2.478   0.544  1.9917 -1.2245 -2.1660
 6953SOL     OW21757   2.221   5.890   6.408  0.0669 -0.5770  0.0474
 6953SOL    HW121758   2.210   5.810   6.467 -1.3156 -0.4441  0.0023
 6953SOL    HW221759   2.246   5.969   6.464  3.3449 -1.3665 -0.1127
 6954SOL     OW21760   3.709   3.187   2.628 -0.1977 -0.5768  0.0204
 6954SOL    HW121761   3.783   3.244   2.666  0.6236 -2.3836  1.2788
 6954SOL    HW221762   3.621   3.226   2.654  0.2653  1.2851 -0.9819
 6955SOL     OW21763   5.626   3.132   0.808  0.5132  0.7911  0.2287
 6955SOL    HW121764   5.559   3.070   0.769 -2.1041  3.7083 -0.3769
 6955SOL    HW221765   5.639   3.111   0.905 -4.2595  2.1088  1.4618
 6956SOL     OW21766   0.351   6.699   4.283  0.0468  0.3520  0.1927
 6956SOL    HW121767   0.371   6.614   4.234  0.5232  0.1532  0.7198
 6956SOL    HW221768   0.281   6.751   4.234  0.6457  0.2479 -0.7962
 6957SOL     OW21769   0.696   0.446   5.506  0.0253  0.2091  0.0104
 6957SOL    HW121770   0.683   0.361   5.557 -1.4905  0.9241  0.8987
 6957SOL    HW221771   0.607   0.483   5.480  0.6956  1.0890 -1.1196
 6958SOL     OW21772   2.318   5.848   3.203  0.2883 -0.5690  0.5777
 6958SOL    HW121773   2.364   5.805   3.282 -0.0505 -1.2357  0.4220
 6958SOL    HW221774   2.346   5.800   3.119 -0.0344 -0.4267  0.3909
 6959SOL     OW21775   1.111   4.868   1.371  0.0033 -0.6812  0.1242
 6959SOL    HW121776   1.162   4.824   1.444  1.2086 -0.8537 -0.7744
 6959SOL    HW221777   1.080   4.799   1.305  1.4753 -0.3050 -1.0305
 6960SOL     OW21778   3.728   0.090   2.209  0.2097  0.0330  0.7463
 6960SOL    HW121779   3.739   0.169   2.269 -0.6350 -0.1229  1.1233
 6960SOL    HW221780   3.705   0.009   2.264  0.9262 -0.4490  0.3530
 6961SOL     OW21781   1.228   4.751   3.520  0.7512  0.6157  0.0733
 6961SOL    HW121782   1.264   4.659   3.507  1.8757  1.1865 -1.1357
 6961SOL    HW221783   1.147   4.763   3.462 -0.1794 -0.0018  1.2105
 6962SOL     OW21784   4.141   3.348   4.330 -0.4544  0.8812  0.0376
 6962SOL    HW121785   4.240   3.353   4.319 -0.3742  2.5378  1.2203
 6962SOL    HW221786   4.118   3.262   4.377  0.5236  0.9670  0.7192
 6963SOL     OW21787   6.103   5.650   6.719  0.9048 -0.6590  0.6311
 6963SOL    HW121788   6.192   5.621   6.684  2.4587  1.0381  2.8635
 6963SOL    HW221789   6.092   5.618   6.814 -0.0445  0.6710  0.9970
 6964SOL     OW21790   4.253   5.829   6.146 -0.5291  0.5568 -0.0823
 6964SOL    HW121791   4.246   5.929   6.153 -1.8608  0.5486 -0.9945
 6964SOL    HW221792   4.322   5.805   6.078  0.1224  0.8268  0.4623
 6965SOL     OW21793   0.287   6.716   0.756  0.1881 -0.6979  0.8291
 6965SOL    HW121794   0.275   6.774   0.676  0.2132  0.2877  1.5121
 6965SOL    HW221795   0.262   6.622   0.734 -0.4252 -0.3182 -0.1416
 6966SOL     OW21796   3.367   6.961   0.639  0.4111 -0.0258 -0.0521
 6966SOL    HW121797   3.383   6.918   0.550 -0.8848 -0.0315 -0.2973
 6966SOL    HW221798   3.406   6.903   0.711 -0.8160 -1.3643 -0.4211
 6967SOL     OW21799   4.872   4.753   4.334 -0.2492  0.3458  0.2688
 6967SOL    HW121800   4.972   4.745   4.336 -0.2454  0.2887 -0.1725
 6967SOL    HW221801   4.844   4.836   4.382  0.0621  0.7986 -0.3233
 6968SOL     OW21802   4.080   1.948   1.358 -0.3238 -1.0241  0.8543
 6968SOL    HW121803   4.178   1.971   1.357 -0.1826 -1.3584 -1.9898
 6968SOL    HW221804   4.060   1.895   1.440  2.3122 -2.4795  0.6989
 6969SOL     OW21805   5.012   2.648   0.667 -0.1496 -0.2054  0.3668
 6969SOL    HW121806   4.918   2.641   0.701 -0.3298  0.9955  0.1392
 6969SOL    HW221807   5.050   2.556   0.657 -1.8535 -0.8261 -1.0450
 6970SOL     OW21808   0.938   5.144   6.248  0.4836  0.3221 -0.0434
 6970SOL    HW121809   0.904   5.065   6.298  0.8197  0.3616  0.2406
 6970SOL    HW221810   0.877   5.162   6.170  1.1317 -0.9994 -0.8744
 6971SOL     OW21811   5.821   5.778   1.602 -0.0061 -0.1924 -0.1505
 6971SOL    HW121812   5.723   5.801   1.602 -1.0124 -3.5878  2.8595
 6971SOL    HW221813   5.874   5.862   1.594 -3.1629  2.0614  0.4150
 6972SOL     OW21814   6.959   4.019   3.563 -0.1665  0.3307 -0.0993
 6972SOL    HW121815   6.997   4.043   3.652  1.0057  1.2086 -0.8077
 6972SOL    HW221816   6.915   3.929   3.569 -0.2319  0.4336  1.3821
 6973SOL     OW21817   5.421   2.650   4.561  0.3083  0.5005  0.3810
 6973SOL    HW121818   5.507   2.632   4.513 -1.1602  0.0215 -2.2759
 6973SOL    HW221819   5.391   2.743   4.542 -1.1596 -0.2396 -1.2302
 6974SOL     OW21820   2.141   3.582   4.369 -0.1492  0.2330  0.3316
 6974SOL    HW121821   2.143   3.610   4.273  3.0326  1.6028  0.6647
 6974SOL    HW221822   2.140   3.663   4.427 -2.6839 -0.5734  1.5441
 6975SOL     OW21823   4.795   3.253   6.611  0.1270  0.3285 -0.0244
 6975SOL    HW121824   4.841   3.166   6.595 -0.2918 -0.5256  2.8077
 6975SOL    HW221825   4.722   3.265   6.544  1.0347 -0.8477 -1.2718
 6976SOL     OW21826   2.350   3.554   0.531  0.8678 -0.2472 -0.0977
 6976SOL    HW121827   2.351   3.544   0.630  0.2070  0.8520  0.0274
 6976SOL    HW221828   2.262   3.523   0.495  0.8638 -0.0288 -0.2759
 6977SOL     OW21829   1.598   2.072   4.329  0.2221  0.9516  0.5126
 6977SOL    HW121830   1.614   1.989   4.382 -1.2801  1.0419  1.1299
 6977SOL    HW221831   1.683   2.097   4.281  0.3666 -1.6950 -0.8206
 6978SOL     OW21832   5.633   0.254   4.277 -0.1512  0.1520 -0.3233
 6978SOL    HW121833   5.566   0.319   4.241 -1.7691 -1.2263  0.0392
 6978SOL    HW221834   5.617   0.240   4.374 -0.4590 -1.4632 -0.5823
 6979SOL     OW21835   5.704   0.980   3.855  0.6509 -0.0768  0.4126
 6979SOL    HW121836   5.648   1.005   3.776  2.2475 -0.8220 -1.0286
 6979SOL    HW221837   5.771   0.911   3.827  1.6556  0.0844  2.3034
 6980SOL     OW21838   1.578   5.990   2.702  0.2555  0.5437  0.0406
 6980SOL    HW121839   1.489   5.973   2.661 -0.2294 -1.2446  1.6881
 6980SOL    HW221840   1.578   6.080   2.746 -0.6957  0.6027 -0.0660
 6981SOL     OW21841   0.205   5.601   6.747 -0.0036 -0.1723  0.0427
 6981SOL    HW121842   0.160   5.526   6.795 -0.8180  0.1299 -0.2278
 6981SOL    HW221843   0.139   5.646   6.686  0.0863  1.5685  1.1498
 6982SOL     OW21844   4.592   4.857   4.182  0.3305  0.7598  0.5493
 6982SOL    HW121845   4.670   4.862   4.245 -0.1731  1.0718  1.1650
 6982SOL    HW221846   4.595   4.935   4.119  1.9135 -0.5738 -1.1445
 6983SOL     OW21847   1.704   0.860   0.102  0.5002  0.2418 -0.3472
 6983SOL    HW121848   1.723   0.928   0.030  0.6457  0.1558 -0.3912
 6983SOL    HW221849   1.683   0.907   0.187 -0.3275  0.3570 -0.6043
 6984SOL     OW21850   3.540   5.566   6.713 -0.0764  0.0320 -0.3207
 6984SOL    HW121851   3.616   5.607   6.764 -0.7880  0.5346  0.3552
 6984SOL    HW221852   3.527   5.472   6.743 -0.0979  0.1316 -0.0151
 6985SOL     OW21853   5.867   0.221   1.462 -0.3001 -0.2243  0.3671
 6985SOL    HW121854   5.952   0.263   1.431 -0.2217  0.2815  1.2485
 6985SOL    HW221855   5.816   0.285   1.520 -2.2710  0.2532 -1.6990
 6986SOL     OW21856   5.931   3.882   0.202  0.0135  0.0653 -0.0114
 6986SOL    HW121857   5.920   3.821   0.281 -0.1339 -1.4843 -1.1719
 6986SOL    HW221858   5.916   3.976   0.230 -0.0353 -0.4473  1.8042
 6987SOL     OW21859   6.175   1.209   5.605  0.0850  0.1429  0.1206
 6987SOL    HW121860   6.247   1.157   5.560  1.3707  0.1245  2.0955
 6987SOL    HW221861   6.212   1.293   5.644 -0.4367 -0.7791  2.8662
 6988SOL     OW21862   3.147   0.466   2.835  1.2294 -0.3396 -0.3942
 6988SOL    HW121863   3.159   0.563   2.813  3.7937 -0.8040 -1.4637
 6988SOL    HW221864   3.175   0.450   2.930 -0.4853  0.1313  0.2222
 6989SOL     OW21865   3.259   4.928   2.950  0.6315  0.3330 -0.1114
 6989SOL    HW121866   3.352   4.961   2.934  0.6190  0.5016  0.1624
 6989SOL    HW221867   3.241   4.924   3.048 -0.0273  1.3749 -0.1770
 6990SOL     OW21868   4.740   5.151   4.883 -0.0592 -0.1880 -0.3221
 6990SOL    HW121869   4.802   5.193   4.816 -0.0010 -0.0494 -0.1814
 6990SOL    HW221870   4.717   5.218   4.953 -0.3453 -0.2477 -0.3566
 6991SOL     OW21871   5.636   4.008   5.390  0.4416 -0.5035 -0.2400
 6991SOL    HW121872   5.692   4.083   5.355 -0.6416 -0.0812 -1.0915
 6991SOL    HW221873   5.597   4.034   5.478  1.7810 -0.9108  0.5084
 6992SOL     OW21874   5.219   1.830   4.401 -0.4216 -0.2592 -0.4438
 6992SOL    HW121875   5.228   1.930   4.399  1.2175 -0.2881  1.7015
 6992SOL    HW221876   5.124   1.806   4.418 -0.4078  1.0881  1.9777
 6993SOL     OW21877   1.825   4.810   1.698 -0.8270  0.0072 -0.2451
 6993SOL    HW121878   1.916   4.847   1.720  0.8465 -3.2149 -1.0577
 6993SOL    HW221879   1.766   4.819   1.778  1.3987 -1.0492  1.6630
 6994SOL     OW21880   2.312   6.314   0.814 -0.1109  0.2928 -0.9500
 6994SOL    HW121881   2.359   6.242   0.763 -0.0713 -0.0668 -0.4153
 6994SOL    HW221882   2.298   6.393   0.754 -1.5042 -0.7040 -1.9951
 6995SOL     OW21883   1.518   0.544   3.397 -0.3153 -0.3030  0.1739
 6995SOL    HW121884   1.585   0.570   3.468  0.0401  0.8831 -0.5572
 6995SOL    HW221885   1.426   0.567   3.429 -0.3999 -1.9216  1.1765
 6996SOL     OW21886   4.833   3.728   5.724 -0.1391  0.3182  0.1897
 6996SOL    HW121887   4.894   3.717   5.645  1.3538  1.0153  1.1977
 6996SOL    HW221888   4.747   3.769   5.693 -0.8058 -2.1337 -1.5187
 6997SOL     OW21889   4.123   1.914   6.144  0.0878 -0.0807 -0.5425
 6997SOL    HW121890   4.058   1.889   6.073 -0.0892 -0.1621 -0.3541
 6997SOL    HW221891   4.173   1.996   6.117  0.4741 -0.4736 -1.0420
 6998SOL     OW21892   0.351   1.170   2.960 -0.1481  0.2291 -0.5398
 6998SOL    HW121893   0.380   1.081   2.925  0.0713 -0.8974  2.2443
 6998SOL    HW221894   0.418   1.203   3.027 -2.0633  0.6252  1.2899
 6999SOL     OW21895   0.574   2.099   6.090 -0.6079 -0.1036  0.6043
 6999SOL    HW121896   0.525   2.185   6.072  0.8800  0.3053 -1.9377
 6999SOL    HW221897   0.672   2.116   6.090 -0.3232 -1.5580  1.8286
 7000SOL     OW21898   4.379   6.184   6.182  0.0775 -0.3488  0.1725
 7000SOL    HW121899   4.460   6.133   6.209  0.1551 -0.4034 -0.1509
 7000SOL    HW221900   4.387   6.279   6.211 -0.0882 -0.5278  0.8185
 7001SOL     OW21901   4.624   5.793   3.070 -0.4328 -0.5681  0.0181
 7001SOL    HW121902   4.531   5.773   3.040 -0.9698 -0.2864  1.4174
 7001SOL    HW221903   4.656   5.719   3.130  0.4135 -0.8768 -0.7999
 7002SOL     OW21904   6.134   3.288   5.011 -0.7901 -0.3330  0.3154
 7002SOL    HW121905   6.079   3.332   5.082  1.5416  1.7094  0.9671
 7002SOL    HW221906   6.176   3.205   5.049  0.3374  0.6727  1.3862
 7003SOL     OW21907   5.770   6.060   5.571  0.0931 -0.1344 -0.1787
 7003SOL    HW121908   5.711   6.097   5.499 -0.6286 -2.2452 -0.7492
 7003SOL    HW221909   5.733   6.086   5.660 -1.2171 -0.6415 -0.5399
 7004SOL     OW21910   3.983   0.073   5.823  0.5516 -0.3978  0.3167
 7004SOL    HW121911   3.939   0.109   5.740 -0.5093  0.4451  1.2241
 7004SOL    HW221912   4.067   0.125   5.840  1.7951 -1.7694 -1.2087
 7005SOL     OW21913   1.298   2.944   6.347 -0.1049 -0.1567  0.3029
 7005SOL    HW121914   1.219   2.919   6.402  0.1825 -2.7024 -0.3004
 7005SOL    HW221915   1.270   2.957   6.252  0.2023 -1.7125 -0.0450
 7006SOL     OW21916   1.316   1.060   4.253  0.6862 -0.8155 -0.1978
 7006SOL    HW121917   1.355   1.026   4.339 -1.1114 -0.2029  0.9141
 7006SOL    HW221918   1.303   0.983   4.191 -0.0423 -1.6623  0.9484
 7007SOL     OW21919   6.626   0.450   0.411 -0.2169 -0.9261  0.0371
 7007SOL    HW121920   6.529   0.473   0.410  0.1207  0.7727  1.2727
 7007SOL    HW221921   6.667   0.485   0.496  1.2727 -2.4847 -0.0017
 7008SOL     OW21922   5.353   2.842   5.130  0.0513 -0.2309 -0.0433
 7008SOL    HW121923   5.355   2.782   5.210 -1.1213  0.0915  0.2412
 7008SOL    HW221924   5.328   2.935   5.157  0.3451  0.0461 -0.6881
 7009SOL     OW21925   0.380   6.565   2.996  0.2308 -0.0666 -0.6343
 7009SOL    HW121926   0.422   6.655   3.007  0.5790 -0.2641 -0.3457
 7009SOL    HW221927   0.448   6.498   2.967  0.0315 -0.2978 -0.5796
 7010SOL     OW21928   2.585   3.343   1.222  0.5062 -0.3698  0.4150
 7010SOL    HW121929   2.527   3.313   1.298  1.7488  0.7389  1.8946
 7010SOL    HW221930   2.613   3.438   1.238  0.8753 -0.1336 -1.4278
 7011SOL     OW21931   2.237   2.192   3.522  0.1469 -0.0540  0.3116
 7011SOL    HW121932   2.188   2.137   3.590 -0.4684  0.6009  0.4108
 7011SOL    HW221933   2.257   2.282   3.561 -1.9976  1.0703 -1.0114
 7012SOL     OW21934   3.408   1.620   2.498 -0.1489  0.6794 -0.4747
 7012SOL    HW121935   3.428   1.545   2.436 -3.0373  1.3495 -2.4279
 7012SOL    HW221936   3.444   1.705   2.462 -1.2449  0.9642 -0.9464
 7013SOL     OW21937   0.393   4.566   0.952 -0.2390  0.3579  0.3361
 7013SOL    HW121938   0.321   4.522   1.005 -1.3482  0.1847 -1.2493
 7013SOL    HW221939   0.357   4.648   0.908  0.7976  0.7839  0.2476
 7014SOL     OW21940   4.168   0.749   6.699 -0.0215  0.0963 -0.3156
 7014SOL    HW121941   4.093   0.740   6.765  0.0439  0.2981 -0.2123
 7014SOL    HW221942   4.132   0.737   6.607 -0.0646 -0.4660 -0.2281
 7015SOL     OW21943   1.627   0.451   4.029  0.1111 -0.2678 -0.3536
 7015SOL    HW121944   1.558   0.383   4.007  0.3683 -1.2784  1.6772
 7015SOL    HW221945   1.718   0.411   4.019  0.2490 -0.7257  1.9981
 7016SOL     OW21946   2.634   5.486   6.088  0.4797 -0.3798  0.4475
 7016SOL    HW121947   2.567   5.505   6.161 -0.4681  1.1857 -0.7527
 7016SOL    HW221948   2.606   5.405   6.038  0.1340 -0.4205  0.6983
 7017SOL     OW21949   3.882   5.813   0.581 -0.7247 -0.0970  0.0689
 7017SOL    HW121950   3.868   5.864   0.496 -3.3280 -2.5816 -1.1673
 7017SOL    HW221951   3.943   5.736   0.564 -1.2358 -0.5918  0.4071
 7018SOL     OW21952   6.958   2.615   6.455  0.3677 -0.1546  0.1588
 7018SOL    HW121953   6.939   2.713   6.464  2.4895  0.3940 -0.7309
 7018SOL    HW221954   6.988   2.595   6.362  3.8451 -0.8330  1.2655
 7019SOL     OW21955   1.332   3.642   0.652 -0.3201 -0.4619 -0.7582
 7019SOL    HW121956   1.252   3.630   0.711 -0.9594 -1.3142 -1.7514
 7019SOL    HW221957   1.308   3.704   0.576 -0.0652 -0.7698 -1.0933
 7020SOL     OW21958   2.530   0.140   3.261 -0.5811  0.2222 -0.5884
 7020SOL    HW121959   2.497   0.142   3.167  1.4257  2.7917 -1.3408
 7020SOL    HW221960   2.457   0.171   3.322 -1.4932 -0.1796 -1.4446
 7021SOL     OW21961   1.090   5.034   4.925 -0.0558 -0.1928 -0.2672
 7021SOL    HW121962   1.016   4.968   4.937 -0.1931  0.3694  2.3563
 7021SOL    HW221963   1.076   5.085   4.840 -1.2225 -1.8682 -1.1371
 7022SOL     OW21964   4.129   2.966   6.418  0.2645  0.2397 -0.3438
 7022SOL    HW121965   4.059   2.912   6.371 -0.7908  0.6106  0.7607
 7022SOL    HW221966   4.185   3.014   6.350  1.9376 -2.9581 -1.4629
 7023SOL     OW21967   4.058   5.676   2.534  0.0404  0.1676  0.1496
 7023SOL    HW121968   4.053   5.743   2.460 -0.5775  1.0346  0.9572
 7023SOL    HW221969   4.153   5.662   2.560  0.2395  0.0783 -0.6055
 7024SOL     OW21970   1.626   1.406   5.149 -0.0988 -0.2405  0.2415
 7024SOL    HW121971   1.610   1.500   5.119  1.3129 -0.4554 -1.3760
 7024SOL    HW221972   1.680   1.358   5.080 -2.7174 -2.9668 -0.1443
 7025SOL     OW21973   2.557   0.537   6.487 -0.1450 -0.0540  0.2639
 7025SOL    HW121974   2.527   0.496   6.400 -0.6268  2.8805 -1.0624
 7025SOL    HW221975   2.644   0.585   6.472 -0.8727  1.5717  1.0489
 7026SOL     OW21976   6.486   2.616   0.065 -0.2675  0.1854 -0.4652
 7026SOL    HW121977   6.538   2.701   0.051  1.9062 -0.9808 -0.0193
 7026SOL    HW221978   6.509   2.552  -0.008 -0.5977 -0.5862  0.1022
 7027SOL     OW21979   3.376   5.931   3.268 -0.1236  0.1001  0.0918
 7027SOL    HW121980   3.465   5.896   3.299  0.4054  3.2189  2.6123
 7027SOL    HW221981   3.390   5.992   3.190  0.4161  2.4658  1.9297
 7028SOL     OW21982   3.190   4.109   0.996  0.7396  0.6291 -0.3776
 7028SOL    HW121983   3.186   4.009   0.993  0.1414  0.6583 -0.6579
 7028SOL    HW221984   3.163   4.141   1.087  0.9011  0.5373 -0.2976
 7029SOL     OW21985   1.890   6.212   4.742 -0.3967  0.5911  0.0182
 7029SOL    HW121986   1.838   6.244   4.663  0.4302 -0.1684 -0.8638
 7029SOL    HW221987   1.977   6.173   4.711 -0.4023 -0.4467  1.2340
 7030SOL     OW21988   4.902   4.422   1.475 -0.0292  0.4844 -0.1464
 7030SOL    HW121989   4.962   4.418   1.555 -1.7328 -2.6198  1.1460
 7030SOL    HW221990   4.941   4.367   1.401  0.7806  2.0816 -0.9545
 7031SOL     OW21991   1.466   4.420   5.222  0.1177 -0.1311  0.0072
 7031SOL    HW121992   1.443   4.425   5.319 -0.5714  0.6520 -0.1932
 7031SOL    HW221993   1.413   4.346   5.179  0.3559 -0.4177  0.1992
 7032SOL     OW21994   3.834   0.266   4.471  0.0641 -0.0316 -0.0600
 7032SOL    HW121995   3.761   0.198   4.471 -1.9704  2.0197  0.8562
 7032SOL    HW221996   3.797   0.356   4.445  2.1809  1.1580  0.7442
 7033SOL     OW21997   3.282   0.594   3.882 -0.0133  0.7273 -0.0662
 7033SOL    HW121998   3.210   0.530   3.853  0.9580 -0.1365 -0.6630
 7033SOL    HW221999   3.359   0.588   3.818  1.8919 -0.6577  2.2070
 7034SOL     OW22000   2.912   6.865   4.534  0.6065  0.1273  0.0840
 7034SOL    HW122001   2.903   6.768   4.555  1.4400 -0.0244 -0.2169
 7034SOL    HW222002   2.869   6.885   4.447 -1.4245  0.4457  1.1105
 7035SOL     OW22003   4.208   2.826   5.614 -0.2017 -0.1146 -0.3775
 7035SOL    HW122004   4.236   2.806   5.520 -0.2632  1.5266 -0.7707
 7035SOL    HW222005   4.162   2.746   5.653  0.5872 -1.1174 -1.4324
 7036SOL     OW22006   0.159   0.702   1.578  0.1354 -0.2803  0.2903
 7036SOL    HW122007   0.234   0.654   1.625 -0.9752 -1.5572  0.8220
 7036SOL    HW222008   0.188   0.727   1.485  1.9105  1.1109  1.1516
 7037SOL     OW22009   1.478   3.277   3.486  0.0359  0.5259  0.1743
 7037SOL    HW122010   1.425   3.330   3.552  1.1549  1.7091  0.1684
 7037SOL    HW222011   1.575   3.285   3.507  0.2455 -3.6482  1.7433
 7038SOL     OW22012   6.255   2.927   2.126 -0.1552 -0.4071 -0.1050
 7038SOL    HW122013   6.303   2.980   2.195 -1.8351  0.3654  0.5246
 7038SOL    HW222014   6.318   2.863   2.083  0.7549 -1.6556  2.8501
 7039SOL     OW22015   2.838   3.676   1.692 -0.0623 -0.3474 -0.4741
 7039SOL    HW122016   2.739   3.693   1.697  0.2614  1.8642 -0.4489
 7039SOL    HW222017   2.880   3.739   1.627  1.2798 -1.7062 -0.9950
 7040SOL     OW22018   4.290   2.409   3.717  0.4196 -0.2718 -0.4321
 7040SOL    HW122019   4.373   2.434   3.668  0.4577  1.6994  0.5514
 7040SOL    HW222020   4.222   2.377   3.651  1.6714 -1.1930 -1.3336
 7041SOL     OW22021   1.198   0.517   4.711  0.3020  0.3500  0.4632
 7041SOL    HW122022   1.106   0.536   4.677  0.5545 -1.0081 -1.0702
 7041SOL    HW222023   1.197   0.517   4.811 -1.4891 -0.1760  0.4792
 7042SOL     OW22024   3.471   3.084   2.229 -0.4505  0.4444 -0.8022
 7042SOL    HW122025   3.500   2.989   2.238  1.1597  1.0228  0.7065
 7042SOL    HW222026   3.391   3.101   2.287  1.5670  0.8473  2.0423
 7043SOL     OW22027   0.655   0.453   6.859 -0.1658 -0.3675 -0.9085
 7043SOL    HW122028   0.694   0.378   6.805  0.7764 -1.2242  0.8996
 7043SOL    HW222029   0.666   0.434   6.956 -2.1353  0.9854 -0.3672
 7044SOL     OW22030   2.537   1.707   6.314 -0.3679  0.0598  0.7113
 7044SOL    HW122031   2.570   1.623   6.270 -0.7610  0.4898 -0.4366
 7044SOL    HW222032   2.608   1.743   6.374  0.0113 -0.7899  0.7920
 7045SOL     OW22033   6.008   6.352   2.744  0.3782  0.1507 -0.3202
 7045SOL    HW122034   6.087   6.407   2.717  0.9809 -1.2117 -1.4135
 7045SOL    HW222035   5.950   6.335   2.664  0.7686 -1.6850 -0.2498
 7046SOL     OW22036   1.396   4.994   5.266 -0.0027  0.2735  0.0876
 7046SOL    HW122037   1.434   5.045   5.344  0.2454  1.5959 -0.8701
 7046SOL    HW222038   1.469   4.946   5.219  0.0260  0.4224 -0.0192
 7047SOL     OW22039   0.170   1.927   3.830  0.4976  0.4714 -0.2540
 7047SOL    HW122040   0.129   1.995   3.770 -0.1185  1.0014  0.7428
 7047SOL    HW222041   0.259   1.961   3.864 -0.0493  1.0416  0.6623
 7048SOL     OW22042   5.531   0.937   5.783  0.5721 -0.2737 -0.5679
 7048SOL    HW122043   5.480   0.907   5.702  0.5903  0.5340 -0.8876
 7048SOL    HW222044   5.557   1.033   5.772 -0.2715  0.1407  0.8164
 7049SOL     OW22045   5.345   3.642   6.467  0.0507 -0.8936  0.0790
 7049SOL    HW122046   5.382   3.726   6.508 -0.2668 -0.8401  0.2532
 7049SOL    HW222047   5.249   3.656   6.443  0.4031 -0.6776 -1.3334
 7050SOL     OW22048   5.542   0.536   4.512 -0.2687 -0.2778  0.3045
 7050SOL    HW122049   5.524   0.604   4.441  0.9664  1.1018  1.2509
 7050SOL    HW222050   5.628   0.489   4.492  0.4019  0.5488  1.1719
 7051SOL     OW22051   6.064   2.444   3.399  0.4707  0.1007 -0.1032
 7051SOL    HW122052   6.152   2.423   3.440 -0.7645 -0.9558  2.1705
 7051SOL    HW222053   6.038   2.371   3.335  0.3345 -0.6693  0.8105
 7052SOL     OW22054   3.225   6.464   5.135  0.2122 -0.6994  0.5942
 7052SOL    HW122055   3.181   6.554   5.130  1.1633 -0.2214  0.5194
 7052SOL    HW222056   3.162   6.399   5.176 -0.2780  0.1507  1.2390
 7053SOL     OW22057   3.738   2.467   6.255 -0.1152  0.3693  0.2913
 7053SOL    HW122058   3.752   2.436   6.161  2.6701 -0.4299  0.9001
 7053SOL    HW222059   3.732   2.566   6.257  1.7175  0.5368 -0.5869
 7054SOL     OW22060   3.060   4.842   2.768  0.3235 -0.4652 -0.0783
 7054SOL    HW122061   3.117   4.853   2.850 -0.7766  2.2595  0.4297
 7054SOL    HW222062   3.119   4.842   2.687  1.1610  1.2920  0.4856
 7055SOL     OW22063   2.444   1.620   5.612  0.4957 -0.0677 -0.3896
 7055SOL    HW122064   2.437   1.603   5.710 -0.2354 -0.5889 -0.5270
 7055SOL    HW222065   2.355   1.606   5.569  0.6996  0.6176 -1.0618
 7056SOL     OW22066   2.242   1.780   0.522  0.4803  0.2204  0.1774
 7056SOL    HW122067   2.215   1.828   0.438  1.5589  1.6206  0.5895
 7056SOL    HW222068   2.329   1.817   0.555  1.7007 -2.4479  0.2212
 7057SOL     OW22069   1.393   6.071   2.993 -0.4305 -0.1532 -0.1815
 7057SOL    HW122070   1.371   6.148   2.934 -0.1258  0.3995  0.4053
 7057SOL    HW222071   1.415   6.104   3.085 -0.1229 -0.9232  0.0386
 7058SOL     OW22072   1.482   4.717   4.549 -0.3607  0.2886  0.6586
 7058SOL    HW122073   1.470   4.714   4.648 -4.0453 -1.2471  0.3522
 7058SOL    HW222074   1.439   4.799   4.512 -0.8352 -0.1561  0.2035
 7059SOL     OW22075   4.414   1.095   5.091  0.0255 -0.0277 -0.1574
 7059SOL    HW122076   4.341   1.100   5.024  0.7385 -0.5649 -1.0028
 7059SOL    HW222077   4.375   1.091   5.183 -1.0050 -0.4901 -0.6005
 7060SOL     OW22078   2.249   4.299   6.110  0.2814 -0.1241 -0.2362
 7060SOL    HW122079   2.337   4.310   6.065  1.3524 -0.1236  1.7296
 7060SOL    HW222080   2.253   4.221   6.173 -1.1687 -0.2067 -0.2026
 7061SOL     OW22081   5.092   1.954   2.269 -0.2442  1.3409 -0.0619
 7061SOL    HW122082   5.033   2.007   2.208 -0.9476  0.1148 -0.4649
 7061SOL    HW222083   5.074   1.980   2.364 -1.8757  0.5627 -0.1381
 7062SOL     OW22084   0.641   1.715   6.521  0.2594  0.6113 -0.1768
 7062SOL    HW122085   0.726   1.663   6.512 -0.8008 -1.0574 -1.0386
 7062SOL    HW222086   0.579   1.667   6.583 -0.8766  0.6058 -1.2676
 7063SOL     OW22087   1.111   2.918   6.854  0.3233  0.0853  0.0803
 7063SOL    HW122088   1.203   2.944   6.827  0.0874  1.0993  0.1855
 7063SOL    HW222089   1.083   2.973   6.933  0.6996 -2.2446  1.9530
 7064SOL     OW22090   6.615   0.289   3.303  0.2690  0.1157 -0.1650
 7064SOL    HW122091   6.526   0.288   3.348  0.3148 -0.9576 -0.0559
 7064SOL    HW222092   6.608   0.337   3.216 -0.7921 -1.2068 -0.8499
 7065SOL     OW22093   1.094   0.621   3.067  0.2313 -0.3391 -0.0783
 7065SOL    HW122094   1.093   0.719   3.051 -0.8280 -0.1326  1.1444
 7065SOL    HW222095   1.189   0.591   3.082  0.3372  1.1694  3.1778
 7066SOL     OW22096   1.121   0.781   3.351  0.2675 -0.3448 -0.0183
 7066SOL    HW122097   1.095   0.818   3.261 -0.5338  1.0300  0.7363
 7066SOL    HW222098   1.045   0.729   3.389  1.0192 -1.9452 -0.6045
 7067SOL     OW22099   5.708   3.002   2.105  0.1643 -0.3296  0.3098
 7067SOL    HW122100   5.803   2.984   2.078 -0.2476 -2.2699 -0.0490
 7067SOL    HW222101   5.647   2.969   2.032 -0.7842  1.7116  0.1275
 7068SOL     OW22102   3.882   5.457   0.888 -0.0478  0.0216  0.3610
 7068SOL    HW122103   3.971   5.490   0.857  0.0373  0.8338  1.3891
 7068SOL    HW222104   3.817   5.462   0.813  0.7737 -0.6335 -0.4224
 7069SOL     OW22105   4.335   2.364   4.009 -0.6733  0.2603  0.3967
 7069SOL    HW122106   4.272   2.429   3.965 -0.6168 -0.2603 -0.4941
 7069SOL    HW222107   4.377   2.307   3.939  0.3580  0.2078  1.0440
 7070SOL     OW22108   2.835   6.874   5.083 -0.2292 -0.0952 -0.0081
 7070SOL    HW122109   2.901   6.877   5.007 -1.3766 -1.4437 -1.0990
 7070SOL    HW222110   2.843   6.959   5.136  1.1103  0.5711 -1.1827
 7071SOL     OW22111   6.519   2.489   3.947  0.2447  0.1489 -0.3766
 7071SOL    HW122112   6.604   2.457   3.906  0.4997 -1.1614  1.0608
 7071SOL    HW222113   6.503   2.439   4.032 -3.2072 -1.3694 -1.7824
 7072SOL     OW22114   0.044   4.878   4.455 -0.5506  0.5846  0.2327
 7072SOL    HW122115   0.106   4.874   4.533 -0.3159 -2.6259  0.0047
 7072SOL    HW222116   0.097   4.877   4.370 -0.8087 -1.1685  0.0491
 7073SOL     OW22117   5.346   3.854   1.987 -0.0039 -0.0890  0.0029
 7073SOL    HW122118   5.329   3.889   1.895  0.0632  0.2409  0.1121
 7073SOL    HW222119   5.258   3.833   2.031 -0.0998  0.7668  0.2446
 7074SOL     OW22120   5.873   0.680   4.920  0.3834 -0.4143 -0.2136
 7074SOL    HW122121   5.867   0.598   4.863  0.3692  0.5751 -1.6884
 7074SOL    HW222122   5.906   0.756   4.864  0.6352  0.5349  1.1921
 7075SOL     OW22123   6.649   0.266   2.336 -0.3068  0.3824  0.6572
 7075SOL    HW122124   6.584   0.205   2.291 -2.2047  1.4297  1.8702
 7075SOL    HW222125   6.655   0.243   2.433  1.2430  0.2545  0.5603
 7076SOL     OW22126   0.066   5.930   1.787 -0.7601 -0.4351  0.4402
 7076SOL    HW122127   0.106   5.866   1.722 -0.9777 -1.0236  0.8722
 7076SOL    HW222128  -0.017   5.971   1.747  0.4369  1.0824 -0.6053
 7077SOL     OW22129   0.276   1.455   0.691 -0.2702 -0.0925 -0.0307
 7077SOL    HW122130   0.293   1.429   0.596  0.0764  0.2916 -0.0754
 7077SOL    HW222131   0.350   1.513   0.724 -1.2713  1.2729 -0.1010
 7078SOL     OW22132   3.184   3.039   3.405 -0.1335 -0.0714  0.0703
 7078SOL    HW122133   3.240   2.957   3.391  1.6121  1.1588 -0.4776
 7078SOL    HW222134   3.233   3.102   3.465 -1.3361  0.6910  0.2666
 7079SOL     OW22135   3.162   3.403   2.859  0.3153 -0.5836  0.1054
 7079SOL    HW122136   3.156   3.497   2.825  2.8025  0.1915  1.5276
 7079SOL    HW222137   3.155   3.403   2.959  3.5262 -1.4030  0.4489
 7080SOL     OW22138   3.500   6.662   1.518 -0.0906 -0.1610 -0.5097
 7080SOL    HW122139   3.573   6.631   1.457  0.3433 -0.4263  0.1418
 7080SOL    HW222140   3.411   6.647   1.473  0.1885 -0.9365 -0.8257
 7081SOL     OW22141   2.595   6.800   1.349  0.3753  0.1293  0.2572
 7081SOL    HW122142   2.685   6.843   1.360  0.7587 -0.6065  0.0390
 7081SOL    HW222143   2.604   6.701   1.359  0.1232 -0.2841 -2.7849
 7082SOL     OW22144   1.546   1.494   2.789 -0.3413  0.2958 -0.3608
 7082SOL    HW122145   1.621   1.541   2.743  0.2344 -0.2908 -0.0428
 7082SOL    HW222146   1.513   1.551   2.865  1.3442 -0.3908  0.9710
 7083SOL     OW22147   6.656   6.273   6.419 -0.3883  0.3251  0.2573
 7083SOL    HW122148   6.615   6.183   6.401 -1.7728  0.9810 -0.0046
 7083SOL    HW222149   6.665   6.287   6.517 -1.9498  0.6337  0.3865
 7084SOL     OW22150   3.997   3.602   2.353  0.3118  0.3471 -0.2347
 7084SOL    HW122151   4.070   3.572   2.413  1.3269  0.9476 -1.1312
 7084SOL    HW222152   3.975   3.698   2.371 -0.3576  0.1271  0.1315
 7085SOL     OW22153   0.979   1.679   5.470 -0.4622 -0.0305 -0.1061
 7085SOL    HW122154   1.069   1.691   5.512 -0.2627 -0.7776 -0.2927
 7085SOL    HW222155   0.966   1.748   5.399 -1.4850  2.3449  2.2173
 7086SOL     OW22156   0.568   3.914   6.807 -0.0963  0.0272 -0.0760
 7086SOL    HW122157   0.642   3.980   6.805 -1.3660  1.6849  2.2372
 7086SOL    HW222158   0.604   3.822   6.795  2.1297  0.8870 -0.3403
 7087SOL     OW22159   3.965   1.607   0.419 -0.0287 -0.1225  0.4916
 7087SOL    HW122160   4.046   1.659   0.446  0.3429 -1.4734  2.1178
 7087SOL    HW222161   3.883   1.659   0.440  0.3663  1.3108 -1.2672
 7088SOL     OW22162   0.768   6.712   4.960 -1.6020  0.3273 -0.1544
 7088SOL    HW122163   0.826   6.631   4.971 -1.6663  0.2214 -0.5695
 7088SOL    HW222164   0.734   6.742   5.049 -2.7135 -0.9365 -0.1211
 7089SOL     OW22165   1.257   4.685   6.075 -0.1797  0.0166  0.3201
 7089SOL    HW122166   1.297   4.614   6.133 -1.7043 -0.8372  0.3986
 7089SOL    HW222167   1.245   4.649   5.982  0.7980  0.8447 -0.1439
 7090SOL     OW22168   6.204   3.317   0.321  0.1450  0.1537 -0.0986
 7090SOL    HW122169   6.272   3.298   0.392  1.3781 -0.7944 -1.4869
 7090SOL    HW222170   6.165   3.232   0.288  0.7763  0.4336 -1.6649
 7091SOL     OW22171   3.570   1.971   4.459 -0.2466 -0.1180 -0.1223
 7091SOL    HW122172   3.653   2.017   4.426 -1.6795  0.4168 -3.3514
 7091SOL    HW222173   3.521   2.032   4.521 -0.3902  1.4198 -1.6724
 7092SOL     OW22174   5.826   0.178   0.942 -0.0155 -0.0777  0.8423
 7092SOL    HW122175   5.842   0.129   1.028 -0.1389 -0.2303  0.7797
 7092SOL    HW222176   5.909   0.178   0.887 -0.4272 -1.5228  0.1838
 7093SOL     OW22177   6.901   6.968   1.791 -0.0651  0.3461 -0.3607
 7093SOL    HW122178   6.868   7.062   1.805  0.4132  0.5833 -0.8084
 7093SOL    HW222179   6.960   6.965   1.711  1.6183  0.0742  0.8467
 7094SOL     OW22180   5.094   5.821   6.325 -0.1110 -0.6180  0.2789
 7094SOL    HW122181   5.104   5.896   6.259  2.0096 -0.0872  1.0994
 7094SOL    HW222182   5.027   5.755   6.291 -0.2637  0.4378 -1.6186
 7095SOL     OW22183   0.655   2.421   4.294 -0.3546  0.5037  0.0932
 7095SOL    HW122184   0.647   2.336   4.243  0.7383  0.8771 -0.7506
 7095SOL    HW222185   0.646   2.403   4.392  1.7671 -0.8986  0.0948
 7096SOL     OW22186   2.130   2.492   0.424 -0.2947  0.2259  0.1300
 7096SOL    HW122187   2.162   2.502   0.519 -0.5162 -0.9302  0.3463
 7096SOL    HW222188   2.165   2.406   0.387 -0.4090  0.5638 -0.7667
 7097SOL     OW22189   4.341   5.646   1.748 -0.6342  0.0490 -0.2163
 7097SOL    HW122190   4.359   5.699   1.665 -0.6322 -0.4333 -0.5205
 7097SOL    HW222191   4.243   5.628   1.756 -0.7657  0.9650  0.4157
 7098SOL     OW22192   6.565   5.524   1.282 -1.1553 -0.4382  0.1690
 7098SOL    HW122193   6.611   5.497   1.367 -0.4961  0.3127  0.0711
 7098SOL    HW222194   6.634   5.542   1.212 -1.5536  1.1347  0.1385
 7099SOL     OW22195   0.601   2.077   4.550  0.0267 -0.6726  0.0261
 7099SOL    HW122196   0.547   2.032   4.621 -0.5941  2.0740  1.4345
 7099SOL    HW222197   0.538   2.116   4.481  0.2095  1.2995  0.9078
 7100SOL     OW22198   6.588   6.864   4.929  0.2703 -0.9034  0.5162
 7100SOL    HW122199   6.673   6.828   4.890  0.4786 -0.4327  0.5231
 7100SOL    HW222200   6.609   6.944   4.985 -0.3120  0.0121 -0.5400
 7101SOL     OW22201   3.782   2.322   0.066 -0.1898 -0.0513  0.6506
 7101SOL    HW122202   3.722   2.242   0.061 -2.3154  1.5383 -1.1785
 7101SOL    HW222203   3.827   2.335  -0.023 -0.6674  1.3144  0.5802
 7102SOL     OW22204   0.003   0.974   4.217 -1.0287 -0.4327 -0.1629
 7102SOL    HW122205   0.003   0.877   4.244 -0.1407 -0.2960  0.3426
 7102SOL    HW222206   0.096   1.004   4.200 -1.0478  0.9110  1.8008
 7103SOL     OW22207   3.873   6.506   6.870 -0.4205  0.0905  0.0615
 7103SOL    HW122208   3.958   6.556   6.851 -0.0346 -0.6982 -0.3474
 7103SOL    HW222209   3.827   6.547   6.948 -0.9076  2.0646 -1.1742
 7104SOL     OW22210   2.058   2.257   2.600  0.6539  0.2334  0.5425
 7104SOL    HW122211   1.970   2.256   2.647 -0.1041  2.4050 -0.7024
 7104SOL    HW222212   2.048   2.213   2.510  1.1013 -0.3414  0.7646
 7105SOL     OW22213   0.746   3.209   1.824  0.0981 -0.0613 -0.0206
 7105SOL    HW122214   0.700   3.298   1.817 -1.3504 -0.7681  0.2155
 7105SOL    HW222215   0.756   3.170   1.732 -1.2507 -0.6228  0.0607
 7106SOL     OW22216   1.084   4.076   4.885 -0.3758 -0.3635  0.3590
 7106SOL    HW122217   1.062   4.172   4.900 -0.3420 -0.1892 -0.6392
 7106SOL    HW222218   1.182   4.066   4.868 -0.6765 -0.2593 -1.7018
 7107SOL     OW22219   4.032   0.064   2.381 -0.1514 -0.6291 -0.2811
 7107SOL    HW122220   4.115   0.108   2.347  0.6201 -1.4183  0.5067
 7107SOL    HW222221   3.999   0.114   2.461 -0.8478  0.0924 -1.0092
 7108SOL     OW22222   4.856   6.008   4.320 -0.2448 -0.1148  0.1705
 7108SOL    HW122223   4.914   5.994   4.240 -0.7211 -1.8472  0.0832
 7108SOL    HW222224   4.833   6.105   4.329 -0.9458  0.0105 -2.3289
 7109SOL     OW22225   0.957   4.903   6.386 -0.5875  0.3020 -0.1129
 7109SOL    HW122226   0.899   4.828   6.420 -0.2461  0.1845  0.2204
 7109SOL    HW222227   0.983   4.885   6.291 -2.1876  1.0063 -0.7175
 7110SOL     OW22228   1.794   5.203   4.994  0.4157 -0.4315 -0.4258
 7110SOL    HW122229   1.779   5.111   4.957  1.3507  0.2288 -2.5464
 7110SOL    HW222230   1.734   5.268   4.948 -0.5882  0.0095  1.3950
 7111SOL     OW22231   3.272   2.911   4.283 -0.6609  0.1991  0.1773
 7111SOL    HW122232   3.249   2.971   4.207  0.9062  0.4064 -0.1827
 7111SOL    HW222233   3.223   2.824   4.273 -1.8988  0.9028 -0.0321
 7112SOL     OW22234   2.373   0.448   1.848 -0.5565 -0.1393  0.7428
 7112SOL    HW122235   2.458   0.413   1.888 -1.1157 -0.0472  2.0573
 7112SOL    HW222236   2.390   0.537   1.806  0.1694 -0.5033  0.2417
 7113SOL     OW22237   0.863   3.978   0.187  0.2381 -0.4771 -0.6911
 7113SOL    HW122238   0.882   3.968   0.284 -2.4646  0.5104  0.0244
 7113SOL    HW222239   0.912   4.058   0.151 -1.0161  0.9394  0.6189
 7114SOL     OW22240   2.462   2.714   5.176  0.6797 -0.4815  0.2946
 7114SOL    HW122241   2.562   2.707   5.179  0.8351  0.6989 -1.0025
 7114SOL    HW222242   2.436   2.802   5.136 -0.8892 -0.6894  0.8039
 7115SOL     OW22243   1.633   6.524   6.527 -0.1122 -0.0706  0.2428
 7115SOL    HW122244   1.587   6.605   6.490 -0.9606 -1.0752 -0.9900
 7115SOL    HW222245   1.699   6.552   6.596  0.4118  1.7650 -0.9395
 7116SOL     OW22246   0.925   3.719   4.778  0.0396 -0.1773 -0.7542
 7116SOL    HW122247   0.914   3.795   4.713 -1.2778 -1.8367 -2.6106
 7116SOL    HW222248   0.975   3.644   4.734  3.8953  0.5457  1.9693
 7117SOL     OW22249   2.601   2.785   1.189  0.0012  0.3277 -0.2773
 7117SOL    HW122250   2.670   2.798   1.118  1.1831 -1.6169  0.4399
 7117SOL    HW222251   2.644   2.797   1.279 -0.1673 -2.2616  0.2259
 7118SOL     OW22252   6.817   1.085   2.732 -0.2358 -0.3068 -0.0457
 7118SOL    HW122253   6.898   1.116   2.681 -0.2647 -0.2223 -0.0407
 7118SOL    HW222254   6.815   1.130   2.821 -0.7194  0.3076 -0.3621
 7119SOL     OW22255   5.322   3.087   5.287 -0.9194  0.2219  0.2200
 7119SOL    HW122256   5.422   3.097   5.278 -0.5888 -1.9333  1.0160
 7119SOL    HW222257   5.278   3.137   5.213  0.6979  1.9505  0.3416
 7120SOL     OW22258   5.992   3.684   1.635  0.3545 -0.1988 -0.0603
 7120SOL    HW122259   6.035   3.753   1.577  0.2420 -0.8894 -0.9843
 7120SOL    HW222260   5.995   3.595   1.590  1.3262 -1.0115  1.5141
 7121SOL     OW22261   0.095   0.464   0.224 -0.6846 -0.7234 -0.0451
 7121SOL    HW122262   0.114   0.477   0.321  0.7653  1.1999 -0.5331
 7121SOL    HW222263   0.000   0.490   0.205 -1.0378 -1.2921  0.8690
 7122SOL     OW22264   6.146   3.254   2.794 -0.4498 -0.0469  0.2988
 7122SOL    HW122265   6.062   3.201   2.797  0.6749 -1.9171  0.0781
 7122SOL    HW222266   6.127   3.348   2.824 -3.2988  0.5976 -2.7821
 7123SOL     OW22267   0.371   6.173   1.119 -0.5828 -0.7315  0.4944
 7123SOL    HW122268   0.320   6.251   1.154 -0.5849 -0.7522  0.5373
 7123SOL    HW222269   0.447   6.152   1.180  1.9753  1.8022 -1.5345
 7124SOL     OW22270   0.597   4.902   5.673  0.1625  0.1093  0.1311
 7124SOL    HW122271   0.648   4.964   5.612 -2.1609 -0.2515 -2.4114
 7124SOL    HW222272   0.501   4.929   5.674 -0.7909 -2.8596 -0.3917
 7125SOL     OW22273   1.124   4.323   4.988  0.0684  0.0502 -0.1476
 7125SOL    HW122274   1.142   4.413   4.949 -0.7477  0.3556  0.1472
 7125SOL    HW222275   1.048   4.330   5.053  0.4952 -0.7081  0.4482
 7126SOL     OW22276   6.335   6.752   1.042  0.0316 -0.5006 -0.6400
 7126SOL    HW122277   6.358   6.659   1.013  0.6440  0.2727 -2.8329
 7126SOL    HW222278   6.400   6.817   1.000  2.3154  0.6921  4.0855
 7127SOL     OW22279   1.145   4.283   1.901 -0.4775  0.0342 -0.0653
 7127SOL    HW122280   1.233   4.282   1.854  0.3245 -0.0372  1.3999
 7127SOL    HW222281   1.116   4.189   1.920 -0.0848  0.0918  0.8604
 7128SOL     OW22282   3.433   0.363   4.530  0.4534  0.1436 -0.3680
 7128SOL    HW122283   3.344   0.406   4.516 -0.2284 -1.2102 -0.3279
 7128SOL    HW222284   3.445   0.342   4.627  1.0712  0.8363 -0.2875
 7129SOL     OW22285   3.762   5.777   5.322 -0.2057  0.2450  0.4144
 7129SOL    HW122286   3.795   5.871   5.339 -0.3219  0.6823 -1.5674
 7129SOL    HW222287   3.662   5.777   5.320 -0.2037  0.0838  0.3587
 7130SOL     OW22288   2.745   5.956   0.902  0.3560 -0.6170 -0.3502
 7130SOL    HW122289   2.819   5.904   0.943  0.0581 -1.8045 -1.2957
 7130SOL    HW222290   2.667   5.896   0.884 -0.0094  0.1450 -1.4351
 7131SOL     OW22291   3.630   5.788   2.851 -0.3465  0.2242 -0.4698
 7131SOL    HW122292   3.531   5.786   2.864 -0.1754  0.3523  1.0159
 7131SOL    HW222293   3.663   5.696   2.832 -0.5724 -0.1145  0.6731
 7132SOL     OW22294   5.556   5.274   0.222  0.1984  0.0545  0.0360
 7132SOL    HW122295   5.595   5.182   0.218  1.4761  0.6310 -1.3163
 7132SOL    HW222296   5.579   5.316   0.310  1.5813 -0.0677 -0.2600
 7133SOL     OW22297   6.102   1.689   3.155 -0.3678 -0.2476 -0.0149
 7133SOL    HW122298   6.011   1.648   3.143 -0.4414  0.1830 -1.1473
 7133SOL    HW222299   6.153   1.639   3.224 -1.3279 -0.7354  0.3638
 7134SOL     OW22300   2.145   5.859   2.057 -0.1911 -0.1366  0.7878
 7134SOL    HW122301   2.228   5.850   2.113 -0.2274  1.4091  1.1201
 7134SOL    HW222302   2.073   5.902   2.110 -0.6005  0.2883 -0.1016
 7135SOL     OW22303   0.116   2.643   4.710 -0.2693 -0.2304 -0.2862
 7135SOL    HW122304   0.195   2.641   4.649  0.1935  0.1155  0.2867
 7135SOL    HW222305   0.036   2.677   4.661  0.6033  2.2363 -0.1678
 7136SOL     OW22306   3.596   2.043   0.650 -0.1662 -0.2520  0.4306
 7136SOL    HW122307   3.502   2.012   0.639 -0.1314  0.5487 -5.1048
 7136SOL    HW222308   3.598   2.143   0.657  0.1244  0.2109 -3.8612
 7137SOL     OW22309   6.295   2.861   6.208 -0.5438 -0.0293 -0.0718
 7137SOL    HW122310   6.206   2.825   6.181  0.0701 -0.3225 -1.8690
 7137SOL    HW222311   6.367   2.811   6.159  0.4880  1.7027 -0.3939
 7138SOL     OW22312   6.937   6.229   4.233  0.0099  0.2534  0.8500
 7138SOL    HW122313   6.866   6.281   4.280  0.6579  2.2520 -0.2632
 7138SOL    HW222314   7.017   6.219   4.292 -0.0449  0.7248  1.0073
 7139SOL     OW22315   1.893   5.515   2.675  0.5327 -0.3074 -0.2301
 7139SOL    HW122316   1.916   5.551   2.585  1.1778 -0.5294 -0.1599
 7139SOL    HW222317   1.965   5.452   2.706  0.3340 -0.2135  0.4502
 7140SOL     OW22318   2.935   4.140   6.248  0.1134  0.7199  0.1440
 7140SOL    HW122319   3.017   4.093   6.212 -0.5005  0.0340 -0.3955
 7140SOL    HW222320   2.854   4.084   6.228 -0.4602  1.2763  0.8941
 7141SOL     OW22321   0.893   2.679   3.023 -0.2180  0.9211  0.2799
 7141SOL    HW122322   0.953   2.689   3.103  1.1423  0.7619 -0.6866
 7141SOL    HW222323   0.839   2.596   3.033  1.3782 -0.1760  0.1585
 7142SOL     OW22324   3.589   4.494   6.795 -0.3566 -0.8338  0.1207
 7142SOL    HW122325   3.536   4.579   6.790  2.5082  1.2440  1.9575
 7142SOL    HW222326   3.565   4.436   6.717 -0.9163  2.6147 -2.5428
 7143SOL     OW22327   3.610   3.900   5.677 -0.4942 -0.7350  0.0888
 7143SOL    HW122328   3.614   3.840   5.757  2.8014  0.3632  0.9510
 7143SOL    HW222329   3.661   3.858   5.602  1.1368  0.4999  0.4395
 7144SOL     OW22330   6.650   4.598   2.577  0.4537 -0.0069  0.5575
 7144SOL    HW122331   6.615   4.573   2.487  1.7320 -0.1315  0.0670
 7144SOL    HW222332   6.574   4.610   2.641 -0.5500  1.0619 -0.7785
 7145SOL     OW22333   4.545   1.971   2.886  0.6320 -0.6713 -0.1313
 7145SOL    HW122334   4.487   1.995   2.809  2.1619  0.7635 -0.8964
 7145SOL    HW222335   4.513   2.018   2.968 -0.9364 -2.1197  0.1498
 7146SOL     OW22336   3.683   6.984   5.636 -0.1893 -0.1655 -0.8314
 7146SOL    HW122337   3.689   6.890   5.603  0.4110  0.1304 -1.5843
 7146SOL    HW222338   3.587   7.008   5.650 -0.3328 -2.1077  3.0339
 7147SOL     OW22339   6.461   0.489   2.943 -0.4940  0.3722  0.1537
 7147SOL    HW122340   6.476   0.502   2.845 -3.7791 -1.1591 -0.6980
 7147SOL    HW222341   6.540   0.442   2.983 -0.0693 -1.2029 -2.3011
 7148SOL     OW22342   3.199   0.391   4.888  0.3849  0.2920  0.6653
 7148SOL    HW122343   3.285   0.349   4.858  0.0789  0.1461 -0.0497
 7148SOL    HW222344   3.143   0.410   4.807 -0.7094 -0.6037  1.1827
 7149SOL     OW22345   2.422   6.769   3.130  0.1981 -0.2897  0.0619
 7149SOL    HW122346   2.472   6.688   3.159  0.9979  0.1284 -0.1072
 7149SOL    HW222347   2.405   6.828   3.209  0.7271 -0.0388 -0.0023
 7150SOL     OW22348   0.151   2.645   5.585  0.0122 -0.1521 -0.5648
 7150SOL    HW122349   0.164   2.681   5.493  0.5933  0.2160 -0.3420
 7150SOL    HW222350   0.057   2.663   5.614  0.5486  2.1437 -0.0726
 7151SOL     OW22351   3.461   6.745   1.764 -0.4303 -0.3070  0.0972
 7151SOL    HW122352   3.421   6.669   1.814  0.1349 -0.3335  0.5291
 7151SOL    HW222353   3.475   6.719   1.668  3.1836 -2.1837  0.9293
 7152SOL     OW22354   3.196   4.894   3.482 -0.6084  0.1054  0.0113
 7152SOL    HW122355   3.289   4.874   3.450 -0.4494  0.9434 -0.0711
 7152SOL    HW222356   3.141   4.924   3.404 -0.2572  2.0260  0.4742
 7153SOL     OW22357   4.075   6.366   1.265  0.3242 -0.0073  0.4804
 7153SOL    HW122358   4.109   6.345   1.356  1.4649 -1.1732 -0.1868
 7153SOL    HW222359   4.009   6.297   1.237 -0.8188  0.9171  0.8035
 7154SOL     OW22360   3.033   4.998   4.387  0.0897 -0.7569 -0.4238
 7154SOL    HW122361   3.021   4.964   4.294 -2.0381  0.7923 -0.7953
 7154SOL    HW222362   3.054   5.096   4.384 -2.0710 -0.1972  0.6901
 7155SOL     OW22363   6.545   5.288   4.044  0.7464 -0.0931 -0.3007
 7155SOL    HW122364   6.550   5.386   4.064  1.3166 -0.2391  0.3071
 7155SOL    HW222365   6.477   5.245   4.104  2.1121 -0.4469  1.0621
 7156SOL     OW22366   4.768   5.047   2.777  0.3969  0.7421  0.4252
 7156SOL    HW122367   4.693   4.997   2.734  1.9164  0.6493 -2.3388
 7156SOL    HW222368   4.851   5.037   2.722  1.9219  2.5525  2.2398
 7157SOL     OW22369   4.388   5.428   6.342  0.5416  0.3911  0.2787
 7157SOL    HW122370   4.314   5.493   6.324 -0.8691 -0.9845  0.8755
 7157SOL    HW222371   4.370   5.380   6.428  2.5361  0.5397  0.8208
 7158SOL     OW22372   6.374   5.195   1.953 -0.0122 -0.0005 -0.5418
 7158SOL    HW122373   6.443   5.151   1.896 -0.6381 -0.7123 -0.7681
 7158SOL    HW222374   6.414   5.219   2.042  0.7454  0.3746 -0.9757
 7159SOL     OW22375   2.250   0.251   0.800 -0.5488 -0.0398 -0.3446
 7159SOL    HW122376   2.255   0.286   0.706  1.2533  0.5080 -0.0869
 7159SOL    HW222377   2.220   0.156   0.799 -1.0196  0.1072 -1.4345
 7160SOL     OW22378   3.370   0.699   1.581  0.3942  0.3675  0.4203
 7160SOL    HW122379   3.398   0.628   1.516 -1.0965 -0.8586  1.0870
 7160SOL    HW222380   3.343   0.781   1.530  2.3762  0.6018 -0.3450
 7161SOL     OW22381   3.686   0.910   5.715  0.1764 -0.3294  0.0465
 7161SOL    HW122382   3.627   0.832   5.733  0.5638 -0.4183  0.9822
 7161SOL    HW222383   3.682   0.974   5.792  1.8664 -0.6961  0.4732
 7162SOL     OW22384   4.529   0.976   3.474  0.3219 -0.7457  0.1441
 7162SOL    HW122385   4.582   0.919   3.536  0.3900 -0.6639  0.1605
 7162SOL    HW222386   4.432   0.967   3.496  0.3689 -0.4908  0.4517
 7163SOL     OW22387   0.247   5.655   3.237  0.2482  0.1089 -0.5538
 7163SOL    HW122388   0.192   5.726   3.283  2.5813  1.6009  0.1488
 7163SOL    HW222389   0.207   5.633   3.149 -1.7134  0.7597  0.1289
 7164SOL     OW22390   4.039   2.303   5.268 -0.2772 -0.1033 -0.3717
 7164SOL    HW122391   4.100   2.304   5.347 -0.6226  0.1090 -0.1049
 7164SOL    HW222392   4.086   2.344   5.189 -0.4086  0.9229  0.0807
 7165SOL     OW22393   6.319   5.486   6.185 -0.3206 -0.1568 -0.8569
 7165SOL    HW122394   6.300   5.388   6.180  0.4461 -0.4178  0.4987
 7165SOL    HW222395   6.378   5.503   6.265 -0.8537  1.4718 -0.7888
 7166SOL     OW22396   2.080   2.045   2.102  0.6249  0.6111 -0.1551
 7166SOL    HW122397   2.169   2.050   2.057  1.0311  1.4057  0.6933
 7166SOL    HW222398   2.037   1.957   2.083  2.3386 -0.4837  0.7914
 7167SOL     OW22399   3.459   1.214   4.134 -0.9802 -0.0002  0.1247
 7167SOL    HW122400   3.392   1.155   4.179 -1.4766  0.4236 -0.0522
 7167SOL    HW222401   3.444   1.309   4.162 -0.4623  0.1005  0.0714
 7168SOL     OW22402   6.354   0.783   3.247  0.2015  0.7728  1.3166
 7168SOL    HW122403   6.288   0.748   3.314 -0.4088  1.4640  1.0998
 7168SOL    HW222404   6.376   0.878   3.269 -1.2832  1.5779 -0.3480
 7169SOL     OW22405   4.150   2.920   0.960  0.8680  0.3960 -0.4360
 7169SOL    HW122406   4.055   2.894   0.942 -0.3109  2.3140  2.1753
 7169SOL    HW222407   4.180   2.877   1.045  1.8402  0.8687 -0.5286
 7170SOL     OW22408   4.427   0.753   2.819 -0.3874 -0.3424 -0.3649
 7170SOL    HW122409   4.343   0.807   2.812 -1.0143 -1.3290 -0.5688
 7170SOL    HW222410   4.499   0.809   2.861 -1.4527  0.1747  0.8468
 7171SOL     OW22411   6.768   1.119   4.285  0.3473  0.7953  0.6019
 7171SOL    HW122412   6.853   1.069   4.267  1.2863  2.3902  0.3805
 7171SOL    HW222413   6.736   1.099   4.377 -0.6030 -1.9839 -0.2412
 7172SOL     OW22414   0.439   4.419   4.520  0.1974 -0.5022  0.1930
 7172SOL    HW122415   0.507   4.408   4.447  1.4979  3.7214  0.5041
 7172SOL    HW222416   0.485   4.446   4.605 -1.6989  2.6814  0.3713
 7173SOL     OW22417   3.650   6.427   3.519  0.7365  0.3040 -0.2340
 7173SOL    HW122418   3.648   6.519   3.558  1.6399  0.8599 -1.4331
 7173SOL    HW222419   3.715   6.371   3.570  2.7876  1.3611 -1.5846
 7174SOL     OW22420   1.989   6.823   3.283  0.5219  0.2987  0.2469
 7174SOL    HW122421   2.056   6.816   3.357  1.0491  0.0269 -0.2446
 7174SOL    HW222422   1.913   6.761   3.301  0.5088  0.4406  0.6977
 7175SOL     OW22423   2.139   3.643   3.799  0.0320  0.1091  0.1771
 7175SOL    HW122424   2.041   3.624   3.807 -0.5430  1.6075 -2.0979
 7175SOL    HW222425   2.152   3.729   3.749  2.5236 -0.4270 -0.2367
 7176SOL     OW22426   0.133   4.191   2.403 -0.1398 -0.2718 -0.0577
 7176SOL    HW122427   0.126   4.252   2.324 -1.1826 -0.3759 -0.0661
 7176SOL    HW222428   0.045   4.190   2.451  0.0455 -1.3121  0.2762
 7177SOL     OW22429   6.639   4.898   2.468 -0.1460 -0.4245 -0.2929
 7177SOL    HW122430   6.601   4.810   2.442 -0.0097 -0.4630 -0.3614
 7177SOL    HW222431   6.677   4.891   2.561  0.3716 -0.5927 -0.5139
 7178SOL     OW22432   1.005   3.373   3.283 -0.1742 -0.3229 -0.1192
 7178SOL    HW122433   1.041   3.400   3.194 -0.5148  0.9192  0.1057
 7178SOL    HW222434   0.927   3.431   3.307 -0.9548 -1.5275  0.3893
 7179SOL     OW22435   1.631   3.855   2.381 -0.6596 -0.7262 -0.0847
 7179SOL    HW122436   1.614   3.935   2.324 -2.0272 -0.2902  0.8788
 7179SOL    HW222437   1.575   3.861   2.464  0.1808 -2.0552  0.6136
 7180SOL     OW22438   5.568   3.865   4.902 -0.1655  0.2366  0.1408
 7180SOL    HW122439   5.521   3.797   4.847  0.6966 -1.7740  1.7782
 7180SOL    HW222440   5.527   3.869   4.993  0.6329  0.9566  0.4859
 7181SOL     OW22441   4.655   3.397   6.412  0.3160  0.2766 -0.1007
 7181SOL    HW122442   4.567   3.392   6.366  0.5378  0.2392 -0.5320
 7181SOL    HW222443   4.721   3.340   6.363  0.3356 -0.4788  0.7879
 7182SOL     OW22444   3.520   5.027   1.068  0.0801  0.0860  0.2587
 7182SOL    HW122445   3.480   5.118   1.059 -2.0236 -0.8926 -0.7541
 7182SOL    HW222446   3.461   4.959   1.026  1.5675 -1.8013  1.0339
 7183SOL     OW22447   6.782   6.442   1.063 -0.0994  0.0083  0.3939
 7183SOL    HW122448   6.764   6.344   1.059  0.2249 -0.0286 -0.5899
 7183SOL    HW222449   6.860   6.460   1.122  0.6225 -0.4545 -0.4047
 7184SOL     OW22450   2.899   2.413   5.282  0.2774  0.1914  0.0073
 7184SOL    HW122451   2.994   2.401   5.254 -0.0450 -1.1375 -0.5730
 7184SOL    HW222452   2.896   2.458   5.371  1.4327  0.4070 -0.0494
 7185SOL     OW22453   0.100   4.231   3.453 -0.3778  0.1224 -0.6399
 7185SOL    HW122454   0.068   4.235   3.358 -0.5888  0.2565 -0.5629
 7185SOL    HW222455   0.045   4.165   3.504 -0.9236  0.7855 -0.3583
 7186SOL     OW22456   6.362   5.601   6.674 -0.2854 -0.1050  0.1915
 7186SOL    HW122457   6.421   5.644   6.742 -0.3055  0.7045 -0.2926
 7186SOL    HW222458   6.399   5.618   6.583 -1.6547  1.0661 -0.1737
 7187SOL     OW22459   5.090   6.588   4.439  0.1087 -0.4309  0.5592
 7187SOL    HW122460   5.158   6.650   4.401 -1.4604  1.1786  0.2614
 7187SOL    HW222461   5.021   6.640   4.490 -0.9018 -1.9902  0.8591
 7188SOL     OW22462   4.580   2.498   6.674 -0.4372  0.2464 -0.0461
 7188SOL    HW122463   4.657   2.434   6.673 -1.1881 -0.7246  1.0125
 7188SOL    HW222464   4.610   2.585   6.711 -0.0600 -0.4593  1.3846
 7189SOL     OW22465   3.367   5.267   2.019 -0.3511  1.1428 -0.3299
 7189SOL    HW122466   3.278   5.256   2.063 -0.5353  1.4620 -0.6192
 7189SOL    HW222467   3.439   5.245   2.084 -0.6459  0.6544 -0.1601
 7190SOL     OW22468   3.224   1.686   1.182  0.1639  0.2037 -0.2816
 7190SOL    HW122469   3.245   1.591   1.203  2.4458  0.3481 -1.5649
 7190SOL    HW222470   3.256   1.744   1.257 -3.4946 -0.0756  1.7340
 7191SOL     OW22471   0.892   3.966   4.682 -0.5104 -0.2357  0.4538
 7191SOL    HW122472   0.822   3.990   4.615 -0.2230 -1.2619 -0.2360
 7191SOL    HW222473   0.902   4.041   4.748  0.6561  1.7762 -1.8371
 7192SOL     OW22474   1.367   1.596   6.405  0.4811  0.0880 -0.3970
 7192SOL    HW122475   1.292   1.653   6.371 -0.9865 -1.9834 -0.7896
 7192SOL    HW222476   1.348   1.567   6.498  0.8324 -0.4031 -0.4743
 7193SOL     OW22477   6.415   6.651   2.462  0.4801 -0.0454 -0.1024
 7193SOL    HW122478   6.456   6.681   2.377  0.5674  1.6774  0.5088
 7193SOL    HW222479   6.479   6.591   2.511  1.4516  0.9869 -0.0876
 7194SOL     OW22480   4.504   0.133   4.311 -0.1128 -0.2621  0.2584
 7194SOL    HW122481   4.598   0.127   4.345  0.0786  1.7098  0.1918
 7194SOL    HW222482   4.503   0.116   4.212  0.7148  2.8264 -0.3643
 7195SOL     OW22483   2.956   4.840   4.148  0.5171  0.2517  0.2858
 7195SOL    HW122484   2.919   4.804   4.062  2.9240 -1.0107 -0.3121
 7195SOL    HW222485   2.913   4.793   4.225  0.5282 -0.8394 -0.3601
 7196SOL     OW22486   5.288   0.777   2.023  0.1959 -0.0875  0.0472
 7196SOL    HW122487   5.287   0.759   2.121  1.5618  0.8653  0.2661
 7196SOL    HW222488   5.220   0.719   1.977  0.3221 -1.3414  1.4001
 7197SOL     OW22489   3.957   2.202   4.558 -0.6062  0.3225  0.3480
 7197SOL    HW122490   4.024   2.249   4.499  1.2260  0.0881  2.1211
 7197SOL    HW222491   3.953   2.248   4.647 -1.3163 -0.8842  0.9612
 7198SOL     OW22492   3.663   0.704   2.533 -0.3815  0.1405  0.0126
 7198SOL    HW122493   3.608   0.672   2.609 -0.0488 -0.7401 -0.0958
 7198SOL    HW222494   3.749   0.652   2.530 -0.8075 -0.5390 -1.5303
 7199SOL     OW22495   1.008   4.281   2.183  0.0486 -0.2161 -0.3761
 7199SOL    HW122496   0.942   4.267   2.109  0.1418 -1.6342 -0.2251
 7199SOL    HW222497   1.002   4.375   2.216 -1.5310 -0.1587 -0.7323
 7200SOL     OW22498   2.986   3.530   6.075 -0.0644  0.6718 -0.0489
 7200SOL    HW122499   3.012   3.599   6.007  0.0224 -0.1766 -0.9001
 7200SOL    HW222500   2.960   3.446   6.028 -1.0420  0.4058  0.9429
 7201SOL     OW22501   0.415   6.860   2.872 -0.0396 -0.3987  0.0084
 7201SOL    HW122502   0.504   6.896   2.901 -0.3529  0.3010  0.1260
 7201SOL    HW222503   0.348   6.934   2.871 -1.2611 -1.3655  2.3980
 7202SOL     OW22504   1.008   5.653   2.733  0.0143 -0.6103  0.1604
 7202SOL    HW122505   0.977   5.566   2.772  1.3807 -0.4790  1.6285
 7202SOL    HW222506   1.107   5.662   2.746 -0.0317  0.9643 -0.3982
 7203SOL     OW22507   4.395   4.549   3.545  0.1461  0.3232  0.2822
 7203SOL    HW122508   4.328   4.613   3.583 -1.5916 -0.9431 -0.4984
 7203SOL    HW222509   4.430   4.490   3.618  1.0208  1.4711  0.8270
 7204SOL     OW22510   2.992   0.429   4.185  0.2862  0.1943  0.1520
 7204SOL    HW122511   2.972   0.429   4.087  0.0166 -1.0602  0.1861
 7204SOL    HW222512   2.930   0.492   4.232 -1.1227 -0.8826 -0.2129
 7205SOL     OW22513   5.915   0.300   3.313 -0.1416 -0.4981  0.0315
 7205SOL    HW122514   5.942   0.311   3.217  1.6744  2.4582  0.7487
 7205SOL    HW222515   5.875   0.385   3.347  0.5665 -0.9899  2.2614
 7206SOL     OW22516   0.624   2.053   3.243 -0.1379  0.5533 -0.4829
 7206SOL    HW122517   0.696   2.114   3.209  0.8485  0.3839  1.2230
 7206SOL    HW222518   0.617   1.974   3.183  1.0121  0.6408 -0.7543
 7207SOL     OW22519   3.479   6.218   5.410  0.4189  0.0106 -0.5755
 7207SOL    HW122520   3.523   6.308   5.407 -0.5808  0.5073 -0.7683
 7207SOL    HW222521   3.388   6.226   5.452 -0.5274 -0.5181 -2.4100
 7208SOL     OW22522   3.450   6.521   6.963  0.0303 -0.6451  0.1115
 7208SOL    HW122523   3.394   6.445   6.998 -1.3245 -0.1587 -0.8870
 7208SOL    HW222524   3.418   6.607   7.002  1.3870 -0.5259  1.0261
 7209SOL     OW22525   3.642   3.114   3.621 -0.5156  0.3488  0.4393
 7209SOL    HW122526   3.649   3.083   3.527 -0.4775  0.7324  0.3155
 7209SOL    HW222527   3.647   3.214   3.624 -0.6513  0.3456  0.8328
 7210SOL     OW22528   1.607   3.147   5.585  0.2703 -0.0845  0.2283
 7210SOL    HW122529   1.616   3.059   5.632 -0.5671 -1.0083 -1.2436
 7210SOL    HW222530   1.694   3.197   5.590 -0.1690  0.5563  3.9296
 7211SOL     OW22531   2.906   0.335   3.517  0.2201 -0.0354 -0.4244
 7211SOL    HW122532   2.890   0.267   3.588  1.7853  0.1403  0.1541
 7211SOL    HW222533   2.875   0.300   3.429 -2.3288 -0.0106  0.3939
 7212SOL     OW22534   0.422   6.515   4.104  0.7685 -0.9741  0.2716
 7212SOL    HW122535   0.401   6.418   4.088  0.8618 -0.9845  0.2142
 7212SOL    HW222536   0.415   6.565   4.018 -1.2705 -0.5639  0.6187
 7213SOL     OW22537   2.525   0.841   6.558 -0.1388 -0.0975 -0.3900
 7213SOL    HW122538   2.488   0.749   6.565 -1.2674  0.3242 -0.6442
 7213SOL    HW222539   2.589   0.846   6.481 -0.1611 -0.6286 -0.4444
 7214SOL     OW22540   4.589   1.256   3.095 -0.5927  0.5308  0.0677
 7214SOL    HW122541   4.502   1.246   3.048 -0.4980 -1.8795  0.3127
 7214SOL    HW222542   4.579   1.231   3.191  0.1787  1.1729  0.3348
 7215SOL     OW22543   0.099   5.860   3.357  0.1402 -0.4142 -0.0113
 7215SOL    HW122544   0.021   5.847   3.418  0.3520  0.3364  0.4370
 7215SOL    HW222545   0.128   5.956   3.360 -0.2946 -0.1823 -1.8228
 7216SOL     OW22546   4.235   6.279   2.687 -0.2076  0.2247  0.5007
 7216SOL    HW122547   4.212   6.230   2.603 -0.5491  0.6084  0.3697
 7216SOL    HW222548   4.298   6.224   2.741 -1.1807 -0.7027  0.7214
 7217SOL     OW22549   3.587   6.516   2.372  0.5426  0.2527 -0.2192
 7217SOL    HW122550   3.565   6.521   2.469  1.7693  0.6625  0.0502
 7217SOL    HW222551   3.512   6.555   2.319 -0.5056 -0.7306  0.4954
 7218SOL     OW22552   1.363   5.593   5.251 -0.4096  0.6973 -0.6658
 7218SOL    HW122553   1.370   5.576   5.349  1.0728 -0.3013 -0.9237
 7218SOL    HW222554   1.410   5.678   5.228  1.2672 -0.2239 -0.7945
 7219SOL     OW22555   1.320   5.293   5.496  0.8038 -0.1894  0.4101
 7219SOL    HW122556   1.238   5.322   5.546  0.0664  1.4419 -1.6346
 7219SOL    HW222557   1.328   5.193   5.501  0.1014 -0.1839  2.6968
 7220SOL     OW22558   5.044   5.012   3.704  0.4590 -0.3384 -0.2940
 7220SOL    HW122559   5.041   5.088   3.770 -2.8130  0.1417 -0.8240
 7220SOL    HW222560   4.959   5.011   3.652  1.2751 -3.2025 -1.7180
 7221SOL     OW22561   6.786   3.930   2.973  0.2848 -0.0986 -0.1310
 7221SOL    HW122562   6.716   3.993   3.005  0.3786 -0.9216  1.8203
 7221SOL    HW222563   6.753   3.836   2.981  0.4717 -0.3899 -2.1741
 7222SOL     OW22564   4.146   1.165   3.642  0.1275 -0.0314  0.1210
 7222SOL    HW122565   4.065   1.106   3.651  0.1005 -0.2651 -1.4727
 7222SOL    HW222566   4.173   1.197   3.733 -1.0485 -0.8915  0.8096
 7223SOL     OW22567   6.052   2.636   4.181  0.0952  0.0929 -0.3473
 7223SOL    HW122568   6.049   2.721   4.129  1.2516  0.4775  0.1852
 7223SOL    HW222569   6.112   2.571   4.135 -0.2891 -0.2126 -0.4218
 7224SOL     OW22570   5.588   4.218   6.387 -0.2100  0.0831 -0.3303
 7224SOL    HW122571   5.661   4.152   6.375  1.9871  2.5320 -1.4514
 7224SOL    HW222572   5.608   4.277   6.465 -0.6830  1.0986 -0.9431
 7225SOL     OW22573   2.331   5.218   4.386  0.5850 -0.4158 -0.0118
 7225SOL    HW122574   2.278   5.286   4.437  1.9827  1.3065 -0.7478
 7225SOL    HW222575   2.272   5.142   4.359 -0.6661 -0.3436  2.2848
 7226SOL     OW22576   1.805   5.917   5.773  0.0131  0.3645  0.5610
 7226SOL    HW122577   1.889   5.930   5.828 -0.0032 -0.7241  0.8627
 7226SOL    HW222578   1.820   5.954   5.681  1.9586 -2.4940 -0.4130
 7227SOL     OW22579   1.111   3.560   5.136 -0.5032  0.4538 -0.5549
 7227SOL    HW122580   1.149   3.618   5.064 -1.0205 -1.3789 -2.3881
 7227SOL    HW222581   1.174   3.484   5.155 -0.2196  1.0747  1.2035
 7228SOL     OW22582   3.648   2.015   5.364  1.2368 -0.4518 -0.2237
 7228SOL    HW122583   3.618   1.925   5.395  0.7790 -0.1116  0.3601
 7228SOL    HW222584   3.660   2.014   5.265 -0.8220 -0.6004 -0.5216
 7229SOL     OW22585   6.871   4.787   4.626 -0.2443  0.4129 -0.2668
 7229SOL    HW122586   6.940   4.820   4.561 -0.2908  1.3568  0.1495
 7229SOL    HW222587   6.822   4.864   4.665 -0.0639 -0.1176  1.0718
 7230SOL     OW22588   2.759   5.076   0.262  0.3235 -0.5810 -0.2138
 7230SOL    HW122589   2.678   5.068   0.204  0.7744 -2.0169 -0.7152
 7230SOL    HW222590   2.831   5.124   0.212  0.7350 -1.8766 -0.9241
 7231SOL     OW22591   1.570   6.203   0.606  0.3745  0.0988 -0.2097
 7231SOL    HW122592   1.478   6.214   0.569  0.6890 -1.0440 -1.4204
 7231SOL    HW222593   1.617   6.291   0.606 -0.5130  0.5789 -0.1463
 7232SOL     OW22594   0.888   0.438   4.326 -0.3576  0.7073 -0.2917
 7232SOL    HW122595   0.959   0.368   4.319  0.1078  1.0356  0.8651
 7232SOL    HW222596   0.799   0.397   4.307 -0.1060 -0.2462  0.5040
 7233SOL     OW22597   2.094   5.187   0.218  0.7320  0.1092  0.0315
 7233SOL    HW122598   2.131   5.267   0.264  0.4554 -0.6623  1.6890
 7233SOL    HW222599   1.995   5.182   0.236  0.4431  0.2743 -1.4319
 7234SOL     OW22600   6.153   1.282   5.910  0.7225  0.0480 -0.7211
 7234SOL    HW122601   6.206   1.326   5.983  0.0518  0.3469 -0.3999
 7234SOL    HW222602   6.066   1.330   5.900  1.2021  0.6299 -2.3956
 7235SOL     OW22603   6.117   0.575   6.205 -0.0587  0.6831 -0.2471
 7235SOL    HW122604   6.214   0.600   6.209 -0.1398  1.2770 -1.5800
 7235SOL    HW222605   6.108   0.477   6.189  0.2891  0.4226  0.9809
 7236SOL     OW22606   1.811   4.150   4.584 -0.4183 -0.6622 -0.7242
 7236SOL    HW122607   1.882   4.220   4.594 -1.0734 -0.1100  0.2548
 7236SOL    HW222608   1.838   4.085   4.513  1.7103 -1.2545  0.5428
 7237SOL     OW22609   4.517   3.506   1.586 -0.5416 -0.2528  0.5683
 7237SOL    HW122610   4.425   3.496   1.547 -0.2734  0.9838 -0.4241
 7237SOL    HW222611   4.564   3.417   1.582 -0.6895 -0.2959 -1.5508
 7238SOL     OW22612   2.056   1.252   6.125  0.1791 -0.3736 -0.3112
 7238SOL    HW122613   2.066   1.343   6.164  1.2295 -0.0460 -1.3162
 7238SOL    HW222614   2.001   1.256   6.042  0.7562 -0.5434 -0.7116
 7239SOL     OW22615   0.043   3.703   6.313  0.7108  0.2876  0.0322
 7239SOL    HW122616   0.035   3.681   6.411  2.0950  1.4197  0.4402
 7239SOL    HW222617   0.053   3.618   6.261  0.7369 -0.3014  0.9677
 7240SOL     OW22618   6.520   1.478   4.606  0.3118 -0.0665 -0.6779
 7240SOL    HW122619   6.454   1.416   4.648 -0.4996  0.0535 -1.7541
 7240SOL    HW222620   6.480   1.520   4.525  0.9269  1.7036 -0.1032
 7241SOL     OW22621   3.724   5.336   5.903 -0.5635  0.0224 -0.1911
 7241SOL    HW122622   3.666   5.387   5.840  1.3927  0.6411 -1.6047
 7241SOL    HW222623   3.755   5.396   5.977 -0.2455  0.2027 -0.4699
 7242SOL     OW22624   4.616   5.065   4.006  0.0957 -0.4261 -0.2138
 7242SOL    HW122625   4.706   5.057   4.049 -0.1880 -0.5130  0.3737
 7242SOL    HW222626   4.627   5.073   3.907  0.8486  1.1705 -0.0481
 7243SOL     OW22627   4.234   6.372   4.882 -0.0040 -0.0877  0.0725
 7243SOL    HW122628   4.299   6.398   4.811  3.1063 -2.4063  1.8486
 7243SOL    HW222629   4.215   6.451   4.941  2.0520  0.4334  0.0980
 7244SOL     OW22630   1.949   5.115   2.662 -0.1435  0.1839  0.4924
 7244SOL    HW122631   2.018   5.187   2.668 -0.3659  0.2906  2.1447
 7244SOL    HW222632   1.874   5.136   2.724 -0.8656 -0.7896 -0.0315
 7245SOL     OW22633   6.488   1.688   1.232  0.5663 -0.7856  0.0841
 7245SOL    HW122634   6.420   1.757   1.260  0.7789  0.4201 -2.1187
 7245SOL    HW222635   6.540   1.658   1.312 -0.0634  1.0610  1.2579
 7246SOL     OW22636   2.408   6.527   3.592 -0.6655 -0.2057 -0.4429
 7246SOL    HW122637   2.341   6.547   3.664 -1.7649 -1.2144 -1.1491
 7246SOL    HW222638   2.367   6.465   3.525  0.9493 -0.7337 -0.9786
 7247SOL     OW22639   3.345   1.629   6.962  0.0989  0.0033  0.3004
 7247SOL    HW122640   3.407   1.575   6.905  0.1845  0.3703  0.0398
 7247SOL    HW222641   3.290   1.568   7.018  0.3708 -0.3454  0.1940
 7248SOL     OW22642   1.617   2.167   0.018 -0.2876  0.0974  0.0095
 7248SOL    HW122643   1.707   2.203  -0.008 -0.8204  0.9962 -0.6754
 7248SOL    HW222644   1.582   2.108  -0.056 -0.4548  0.1262  0.0642
 7249SOL     OW22645   4.917   2.148   2.191 -0.2568 -0.0396  0.2051
 7249SOL    HW122646   4.913   2.165   2.290  2.9674  3.2340 -0.0010
 7249SOL    HW222647   4.930   2.235   2.143  1.0169 -1.7911 -2.8833
 7250SOL     OW22648   3.867   2.680   1.698  0.2819 -0.1291  0.6483
 7250SOL    HW122649   3.896   2.667   1.793  0.3234 -0.6270  0.5738
 7250SOL    HW222650   3.933   2.737   1.650  0.9115 -0.8720  0.6037
 7251SOL     OW22651   2.145   6.614   6.669  0.6268  0.1776 -0.0143
 7251SOL    HW122652   2.135   6.608   6.769  1.5190  0.3616  0.0870
 7251SOL    HW222653   2.217   6.679   6.646  0.9556 -0.4347 -0.7671
 7252SOL     OW22654   4.685   2.391   0.298 -0.3037  0.1026  0.0284
 7252SOL    HW122655   4.745   2.368   0.221 -2.3566 -1.1881 -1.2743
 7252SOL    HW222656   4.691   2.490   0.315  0.3334  0.4084 -1.6929
 7253SOL     OW22657   0.799   4.884   3.498 -0.4872 -0.0280  0.3336
 7253SOL    HW122658   0.712   4.920   3.463 -0.3950  1.3290  1.4035
 7253SOL    HW222659   0.781   4.826   3.577 -0.4583 -0.3016  0.1411
 7254SOL     OW22660   3.336   2.995   1.542  0.0946 -0.4146  0.0949
 7254SOL    HW122661   3.336   3.090   1.575  1.3395  0.1237 -1.3579
 7254SOL    HW222662   3.246   2.972   1.506 -0.0423  0.4255 -0.1187
 7255SOL     OW22663   5.248   0.412   6.810  0.0884  0.0554  0.3782
 7255SOL    HW122664   5.220   0.496   6.856 -1.8732 -0.0550 -0.5038
 7255SOL    HW222665   5.347   0.403   6.814  0.2508  1.8785  1.3853
 7256SOL     OW22666   1.067   3.080   3.795  0.5449  0.2744  0.2072
 7256SOL    HW122667   1.105   3.063   3.704  2.1047 -0.7510  1.0084
 7256SOL    HW222668   1.137   3.121   3.854 -0.2229  0.2570  1.1665
 7257SOL     OW22669   3.682   5.707   6.458 -0.4175  0.5043  0.2016
 7257SOL    HW122670   3.603   5.737   6.404  0.3344  0.9023 -0.7010
 7257SOL    HW222671   3.672   5.741   6.552  0.4852  3.9121 -0.7950
 7258SOL     OW22672   1.511   6.665   5.910  0.9312  0.5407 -0.4256
 7258SOL    HW122673   1.539   6.587   5.855  1.3719 -0.1553  0.7398
 7258SOL    HW222674   1.466   6.733   5.852 -2.1725 -1.8292 -1.0717
 7259SOL     OW22675   3.339   4.256   5.221 -0.1796 -0.6144  0.1288
 7259SOL    HW122676   3.268   4.191   5.243  0.4488 -1.6301 -0.7570
 7259SOL    HW222677   3.427   4.225   5.258  0.1650 -0.4050 -0.4745
 7260SOL     OW22678   3.261   2.177   5.647  0.3107  0.0368 -0.2975
 7260SOL    HW122679   3.199   2.250   5.676 -0.0536  0.0051 -0.9777
 7260SOL    HW222680   3.256   2.101   5.712 -1.4986 -0.5981 -1.0975
 7261SOL     OW22681   3.977   5.900   4.427 -0.8467  0.2775 -0.5960
 7261SOL    HW122682   4.062   5.925   4.472 -0.7393 -0.8157 -0.1643
 7261SOL    HW222683   3.925   5.838   4.486 -2.2891  1.4805 -0.5338
 7262SOL     OW22684   0.775   3.457   0.560  0.1437 -0.1463 -0.9738
 7262SOL    HW122685   0.874   3.455   0.574  0.1101  0.4054 -0.6699
 7262SOL    HW222686   0.730   3.406   0.634 -0.0456  2.8983  1.1606
 7263SOL     OW22687   1.387   1.906   2.810  0.2034  0.5698  1.0643
 7263SOL    HW122688   1.398   1.907   2.710  1.1339  1.0447  1.1651
 7263SOL    HW222689   1.290   1.899   2.832  0.0776 -1.6778  0.1290
 7264SOL     OW22690   4.277   5.949   4.323  0.0565  0.4167  0.4157
 7264SOL    HW122691   4.235   5.890   4.255 -1.8100 -0.2809  2.0764
 7264SOL    HW222692   4.348   5.898   4.372 -0.7525 -0.1108  1.0633
 7265SOL     OW22693   6.135   6.106   0.370 -0.1194  0.3411 -0.7451
 7265SOL    HW122694   6.145   6.195   0.325 -0.9003  1.1125  0.5495
 7265SOL    HW222695   6.214   6.049   0.347  1.0655  1.8259 -0.5771
 7266SOL     OW22696   5.504   2.779   0.368 -0.2371 -0.0465 -0.0312
 7266SOL    HW122697   5.426   2.723   0.394 -0.1331  0.4705  1.5533
 7266SOL    HW222698   5.580   2.720   0.342 -0.6863 -0.5934 -0.1290
 7267SOL     OW22699   4.014   0.100   3.382  0.2939  0.3118  0.6747
 7267SOL    HW122700   4.053   0.017   3.424 -0.4949  1.9450  5.1344
 7267SOL    HW222701   3.917   0.105   3.402  0.2354  2.1046  0.0944
 7268SOL     OW22702   4.120   6.948   1.474 -0.1432 -0.2619  0.4543
 7268SOL    HW122703   4.062   6.970   1.553 -1.1490  1.1515 -0.6151
 7268SOL    HW222704   4.176   7.028   1.451 -0.4533 -0.3609 -0.7284
 7269SOL     OW22705   6.066   1.408   4.736  0.1126  0.1768 -0.2824
 7269SOL    HW122706   5.989   1.398   4.673 -0.0174 -0.2742 -0.0583
 7269SOL    HW222707   6.096   1.503   4.737 -0.5430  0.3863 -0.2520
 7270SOL     OW22708   3.579   4.970   5.013  0.1947 -0.0582  0.1836
 7270SOL    HW122709   3.488   4.998   5.045  0.2454 -0.9893  1.1868
 7270SOL    HW222710   3.648   5.004   5.076  0.5953  0.9206 -0.7480
 7271SOL     OW22711   5.446   5.493   2.073  0.2719  0.1096  0.3377
 7271SOL    HW122712   5.518   5.436   2.035  0.0799  0.6555 -0.8710
 7271SOL    HW222713   5.372   5.434   2.107  0.9735 -0.4231  0.9797
 7272SOL     OW22714   1.547   3.684   1.286  0.2350 -0.2155  0.7429
 7272SOL    HW122715   1.549   3.662   1.383  0.9557 -2.7114  0.2285
 7272SOL    HW222716   1.567   3.602   1.232 -2.7071  0.4133 -1.6200
 7273SOL     OW22717   0.103   1.469   3.984 -0.0569 -0.0330  0.0045
 7273SOL    HW122718   0.192   1.460   3.938 -0.8628 -3.4749 -1.1792
 7273SOL    HW222719   0.030   1.441   3.921 -1.6035 -1.0115  2.1214
 7274SOL     OW22720   6.647   5.627   5.648  0.2238 -0.0320 -0.2250
 7274SOL    HW122721   6.621   5.594   5.739  0.1859  0.8102  0.0751
 7274SOL    HW222722   6.746   5.619   5.636  0.4925  1.6799  0.6482
 7275SOL     OW22723   6.738   2.388   6.293  0.4668 -0.1189 -0.2111
 7275SOL    HW122724   6.669   2.413   6.361  0.7707 -0.0481  0.0756
 7275SOL    HW222725   6.763   2.292   6.304  0.5475 -0.0963 -0.1926
 7276SOL     OW22726   6.803   0.627   1.926 -0.2052 -0.4845  0.1301
 7276SOL    HW122727   6.812   0.653   2.022  0.6952 -0.2496 -0.0123
 7276SOL    HW222728   6.790   0.710   1.870 -0.1661 -0.5729 -0.0108
 7277SOL     OW22729   7.001   3.723   5.504  0.4895  0.4590  0.4762
 7277SOL    HW122730   6.926   3.742   5.567  1.5783 -0.4811  2.1165
 7277SOL    HW222731   7.072   3.792   5.514 -0.1558  1.4306 -1.1793
 7278SOL     OW22732   3.715   2.465   0.300  0.4118 -0.1622  0.4340
 7278SOL    HW122733   3.747   2.408   0.225  0.4762 -0.5810  0.7769
 7278SOL    HW222734   3.785   2.471   0.371  0.6408  0.8262  0.1449
 7279SOL     OW22735   4.855   2.077   0.733  0.1607 -0.4109  0.7626
 7279SOL    HW122736   4.815   2.071   0.824  0.2570 -0.6987  0.7871
 7279SOL    HW222737   4.865   1.985   0.695  0.7375 -0.3376  0.7295
 7280SOL     OW22738   2.539   4.543   3.253 -0.1922  0.2191 -0.2376
 7280SOL    HW122739   2.638   4.531   3.266 -0.1475 -0.3768 -1.0436
 7280SOL    HW222740   2.521   4.633   3.214  0.0207  0.3777  0.0270
 7281SOL     OW22741   0.654   3.801   5.568  0.4477  0.6793  0.5294
 7281SOL    HW122742   0.657   3.782   5.470 -1.7459 -1.6685  0.8167
 7281SOL    HW222743   0.629   3.896   5.582 -2.3959  0.3485 -1.3134
 7282SOL     OW22744   6.920   4.122   2.589 -0.0977 -0.6044  0.0455
 7282SOL    HW122745   6.943   4.053   2.659 -0.7874 -1.2642 -0.3528
 7282SOL    HW222746   6.829   4.159   2.608 -0.3444 -0.8820 -0.5689
 7283SOL     OW22747   3.289   2.061   1.033  0.2749  0.4711  0.2999
 7283SOL    HW122748   3.227   2.038   1.107 -1.6834  1.7299 -0.8609
 7283SOL    HW222749   3.345   1.981   1.010 -0.7832 -0.6548  1.4986
 7284SOL     OW22750   2.433   5.269   5.148  0.3382 -1.0121 -0.0959
 7284SOL    HW122751   2.398   5.221   5.068  0.1328 -1.7607  0.4230
 7284SOL    HW222752   2.482   5.204   5.206 -0.8057 -0.8332  1.1252
 7285SOL     OW22753   6.583   6.343   4.048 -0.3200  0.2015  0.0109
 7285SOL    HW122754   6.665   6.291   4.023 -1.1152 -1.2158  0.2066
 7285SOL    HW222755   6.559   6.404   3.973  1.0506  0.8376  0.0573
 7286SOL     OW22756   2.303   4.301   6.706  0.0147  0.1252 -0.4514
 7286SOL    HW122757   2.280   4.213   6.747 -3.2081  0.1047 -2.0224
 7286SOL    HW222758   2.302   4.293   6.606  3.3101  1.1819 -0.6884
 7287SOL     OW22759   4.810   1.333   4.556 -0.1518 -0.4722 -0.0093
 7287SOL    HW122760   4.827   1.237   4.532 -0.3224 -0.5524  0.1897
 7287SOL    HW222761   4.745   1.372   4.491  0.5521 -0.2507 -0.5937
 7288SOL     OW22762   0.061   0.448   2.184 -0.4090  0.6474 -0.3536
 7288SOL    HW122763   0.079   0.457   2.086 -1.5123 -1.0045 -0.7519
 7288SOL    HW222764   0.133   0.392   2.226 -0.6390  0.2587 -0.4784
 7289SOL     OW22765   0.635   4.458   1.369  0.9509 -0.5673  0.2063
 7289SOL    HW122766   0.644   4.465   1.269  2.2745  1.5967  0.4049
 7289SOL    HW222767   0.538   4.456   1.394  0.5743 -3.0945 -1.1630
 7290SOL     OW22768   2.003   1.838   0.850  0.1124 -0.4522 -0.5600
 7290SOL    HW122769   2.026   1.832   0.947 -1.5387 -0.0921 -0.1282
 7290SOL    HW222770   2.085   1.863   0.798  0.8700  0.0026  0.8116
 7291SOL     OW22771   2.289   0.307   4.074 -0.0308  0.5389 -0.0700
 7291SOL    HW122772   2.211   0.268   4.124  1.1936 -0.3094  1.2762
 7291SOL    HW222773   2.264   0.398   4.040 -1.0157  1.1029  1.9666
 7292SOL     OW22774   3.271   5.889   4.940 -0.0282 -0.4384  0.2050
 7292SOL    HW122775   3.239   5.821   4.875 -0.0830  0.1334 -0.3783
 7292SOL    HW222776   3.363   5.865   4.970 -0.5417 -1.4674  1.0152
 7293SOL     OW22777   0.619   5.337   1.427 -0.7086  0.2349  0.4426
 7293SOL    HW122778   0.616   5.269   1.354  0.1927  2.2376 -1.5378
 7293SOL    HW222779   0.525   5.361   1.453 -1.0361 -0.3481 -0.1578
 7294SOL     OW22780   0.009   6.938   4.570 -0.4045 -0.0997 -0.2219
 7294SOL    HW122781  -0.009   6.887   4.486  0.5667 -0.4766 -0.2174
 7294SOL    HW222782   0.095   6.907   4.610  1.0280  2.5347 -1.0122
 7295SOL     OW22783   1.025   1.092   6.634 -0.6191  0.7820 -0.0497
 7295SOL    HW122784   0.960   1.030   6.679 -0.8669 -0.1383 -1.5786
 7295SOL    HW222785   0.976   1.149   6.568 -0.5438  3.3342  1.9394
 7296SOL     OW22786   2.869   6.108   4.324 -0.0708  0.0635  0.3857
 7296SOL    HW122787   2.784   6.155   4.298 -0.1723  0.3418  1.1864
 7296SOL    HW222788   2.947   6.154   4.282 -0.0670  1.6607  1.9966
 7297SOL     OW22789   4.568   2.234   4.357 -0.1778 -0.0698 -0.5150
 7297SOL    HW122790   4.575   2.171   4.434 -1.3652  1.9489  1.3696
 7297SOL    HW222791   4.659   2.261   4.327  0.3892  0.7601  1.7156
 7298SOL     OW22792   2.873   5.072   2.241 -0.0461 -0.4294  0.0912
 7298SOL    HW122793   2.869   5.169   2.263  0.7012 -0.3159 -0.2116
 7298SOL    HW222794   2.911   5.021   2.318  0.8828 -0.2758 -0.2428
 7299SOL     OW22795   1.070   5.151   0.200  0.0671 -0.0224  0.1625
 7299SOL    HW122796   1.165   5.122   0.214 -0.6484 -2.1753  1.0192
 7299SOL    HW222797   1.036   5.194   0.283  0.5971  1.7892 -0.5236
 7300SOL     OW22798   0.048   1.878   1.163 -0.8798 -0.2901 -0.1746
 7300SOL    HW122799   0.091   1.797   1.123 -2.5984 -1.2010 -0.2537
 7300SOL    HW222800  -0.015   1.919   1.097 -1.2176  0.1846  0.4292
 7301SOL     OW22801   6.282   0.576   4.012 -0.5130 -0.3348 -0.0575
 7301SOL    HW122802   6.204   0.609   3.958  0.1028  1.6143  0.1393
 7301SOL    HW222803   6.325   0.499   3.966 -1.3430 -0.1547 -1.1836
 7302SOL     OW22804   4.193   5.290   0.738 -0.2337 -0.3416  0.5855
 7302SOL    HW122805   4.147   5.225   0.798 -1.0881 -1.1405 -0.8803
 7302SOL    HW222806   4.166   5.383   0.762 -0.3611 -0.6219  1.5780
 7303SOL     OW22807   2.116   1.668   3.463 -0.2281  0.0956 -0.3223
 7303SOL    HW122808   2.105   1.569   3.458  0.3108  0.0400 -0.4580
 7303SOL    HW222809   2.057   1.705   3.535 -0.5977 -0.2942 -0.4226
 7304SOL     OW22810   4.904   6.719   6.169 -0.4877 -0.6413 -0.1689
 7304SOL    HW122811   4.818   6.680   6.202 -1.5591  0.9709 -0.9446
 7304SOL    HW222812   4.900   6.732   6.070  1.4551 -2.4025 -0.5692
 7305SOL     OW22813   2.319   0.639   6.153  0.5193 -0.3005 -0.1360
 7305SOL    HW122814   2.273   0.711   6.101  2.2439  0.5146 -0.6102
 7305SOL    HW222815   2.271   0.552   6.140 -1.8515  0.8041  0.7957
 7306SOL     OW22816   3.816   2.692   5.604 -0.3109 -0.1830 -0.3961
 7306SOL    HW122817   3.838   2.664   5.511  0.0969  1.9339 -0.9878
 7306SOL    HW222818   3.721   2.668   5.625  0.1847 -2.5342 -0.5576
 7307SOL     OW22819   0.409   6.226   4.068  0.5527 -0.1474  0.0648
 7307SOL    HW122820   0.324   6.211   4.018 -0.6242  1.3736  1.4841
 7307SOL    HW222821   0.402   6.189   4.160  1.4562 -0.0479  0.1904
 7308SOL     OW22822   0.901   4.319   1.746  0.4875 -1.0285  0.0355
 7308SOL    HW122823   0.864   4.275   1.827  0.3479  0.1276  0.6241
 7308SOL    HW222824   1.001   4.311   1.746  0.4203 -2.0208 -0.2873
 7309SOL     OW22825   2.281   0.889   3.944  0.2569 -0.6831  0.4900
 7309SOL    HW122826   2.266   0.865   3.848 -0.6706  0.9474  0.1771
 7309SOL    HW222827   2.364   0.944   3.952 -0.7809  0.9954  0.2450
 7310SOL     OW22828   5.227   6.655   6.929  0.5585  0.4433  0.7198
 7310SOL    HW122829   5.310   6.707   6.950  0.0323  0.8788  1.7623
 7310SOL    HW222830   5.173   6.704   6.861  1.3286 -0.0345 -0.2698
 7311SOL     OW22831   4.499   1.732   2.139 -0.2209 -0.0525 -0.3290
 7311SOL    HW122832   4.457   1.781   2.063 -0.3510 -0.7326 -0.7114
 7311SOL    HW222833   4.433   1.668   2.178 -0.0360  0.0223  0.1044
 7312SOL     OW22834   1.631   4.229   5.031  0.0001  0.6141 -0.0729
 7312SOL    HW122835   1.689   4.182   5.098  1.7235  2.4538 -0.1558
 7312SOL    HW222836   1.540   4.243   5.069  0.1596 -0.6573  0.8458
 7313SOL     OW22837   0.509   3.987   0.563  0.4293  0.2540  0.0702
 7313SOL    HW122838   0.548   4.056   0.502  0.4911 -1.0427 -1.4391
 7313SOL    HW222839   0.540   4.003   0.657  0.4925  2.2002 -0.2442
 7314SOL     OW22840   2.214   2.651   0.217 -0.2531 -0.2431 -0.5572
 7314SOL    HW122841   2.179   2.743   0.202  1.0977  0.4663  0.4715
 7314SOL    HW222842   2.179   2.616   0.304 -0.1452 -0.3941 -0.5747
 7315SOL     OW22843   6.286   2.025   4.857 -0.1644 -0.1560 -0.1639
 7315SOL    HW122844   6.291   1.940   4.909  1.3596 -1.6312 -2.4921
 7315SOL    HW222845   6.241   2.095   4.911  0.9024 -1.6590  2.8915
 7316SOL     OW22846   0.003   0.459   5.739 -0.6026  0.2051 -0.1221
 7316SOL    HW122847   0.038   0.365   5.750 -0.7174  0.4766  3.9570
 7316SOL    HW222848   0.060   0.507   5.673  0.9034 -2.0718 -0.6116
 7317SOL     OW22849   3.008   5.738   1.490  0.1685  0.3069  0.8305
 7317SOL    HW122850   3.006   5.748   1.589  0.9680 -0.6955  0.9633
 7317SOL    HW222851   2.919   5.764   1.452  0.0192  1.1836  1.7477
 7318SOL     OW22852   0.681   1.388   6.186 -0.2242  0.6072  0.3246
 7318SOL    HW122853   0.599   1.420   6.138 -0.0834  1.1866  0.4622
 7318SOL    HW222854   0.663   1.379   6.283 -0.6930 -1.1682  0.1150
 7319SOL     OW22855   0.710   4.224   3.241 -0.1427 -0.7160  0.2535
 7319SOL    HW122856   0.641   4.271   3.186  1.2142  2.0797  0.7578
 7319SOL    HW222857   0.789   4.204   3.183  1.0970  1.8109  0.9346
 7320SOL     OW22858   3.369   2.449   5.904  0.1730  0.2039 -0.1783
 7320SOL    HW122859   3.395   2.398   5.987 -0.4679 -0.5742 -0.4441
 7320SOL    HW222860   3.431   2.425   5.829  1.4257  1.7054  0.3138
 7321SOL     OW22861   1.087   5.826   0.451  0.0945  0.5909 -0.3628
 7321SOL    HW122862   1.047   5.801   0.363 -0.0833  0.9513 -0.3819
 7321SOL    HW222863   1.023   5.881   0.504  0.7227  1.5488 -0.5755
 7322SOL     OW22864   3.118   6.703   5.108 -0.1145 -0.0600 -0.3842
 7322SOL    HW122865   3.116   6.767   5.185 -1.1761 -1.3109  0.6760
 7322SOL    HW222866   3.090   6.751   5.025 -3.4865  0.3922  0.8341
 7323SOL     OW22867   5.908   2.636   1.457  0.0371 -0.2023 -0.0324
 7323SOL    HW122868   5.857   2.629   1.371  0.2274  1.3029 -0.2879
 7323SOL    HW222869   6.002   2.665   1.438  0.8118 -2.1487  0.5085
 7324SOL     OW22870   3.285   1.496   4.008 -0.3558 -0.0052 -0.8568
 7324SOL    HW122871   3.338   1.495   4.093  0.2122 -3.3272 -1.1140
 7324SOL    HW222872   3.341   1.532   3.934 -0.0165  0.5799 -0.3309
 7325SOL     OW22873   3.569   2.094   6.351 -0.7036  0.2265 -0.0958
 7325SOL    HW122874   3.520   2.014   6.316 -1.0474  0.3264  0.1525
 7325SOL    HW222875   3.609   2.144   6.275  0.8957 -1.0610 -0.1550
 7326SOL     OW22876   4.169   6.341   1.549 -0.0097  0.5933 -0.4034
 7326SOL    HW122877   4.197   6.297   1.634  1.2042  0.4479 -0.8662
 7326SOL    HW222878   4.087   6.397   1.566  1.2073  1.9779  1.2591
 7327SOL     OW22879   6.001   1.730   0.134 -0.3313  0.5594  0.5627
 7327SOL    HW122880   6.084   1.697   0.179 -0.3701 -0.6657 -0.2253
 7327SOL    HW222881   6.019   1.820   0.093  1.4987 -0.8111 -1.9181
 7328SOL     OW22882   3.882   2.016   7.003  0.4911  0.4844  0.3734
 7328SOL    HW122883   3.804   2.027   7.065 -2.2697 -1.7597 -2.4207
 7328SOL    HW222884   3.933   1.934   7.029 -0.3795 -0.1922 -0.0233
 7329SOL     OW22885   1.314   4.728   5.425  0.1253  0.4551  0.5453
 7329SOL    HW122886   1.350   4.635   5.433  0.4533  0.4089 -1.1665
 7329SOL    HW222887   1.351   4.771   5.342  0.6075  2.4038  1.7031
 7330SOL     OW22888   6.629   2.765   3.971  0.2633 -0.2116 -0.0268
 7330SOL    HW122889   6.654   2.835   4.038  0.3076 -1.1474  0.9612
 7330SOL    HW222890   6.592   2.685   4.019 -0.2965 -0.6515 -1.1710
 7331SOL     OW22891   5.164   4.103   6.900  0.2010  0.1983 -0.2894
 7331SOL    HW122892   5.131   4.158   6.977  0.4233 -1.4337  1.0403
 7331SOL    HW222893   5.098   4.032   6.879  1.2549 -0.9483  0.1149
 7332SOL     OW22894   6.150   5.719   2.578 -0.7803 -0.3446 -0.5657
 7332SOL    HW122895   6.154   5.797   2.516 -0.3571  0.4385  0.4339
 7332SOL    HW222896   6.243   5.692   2.604 -0.9820  0.3772  0.9946
 7333SOL     OW22897   6.835   4.979   1.990 -0.2124 -0.3100  1.1104
 7333SOL    HW122898   6.934   4.965   1.995 -0.0840  0.1647  0.0922
 7333SOL    HW222899   6.816   5.077   1.976 -0.8034 -0.4671  0.7899
 7334SOL     OW22900   3.036   6.229   1.206 -0.1926 -0.1079  0.3657
 7334SOL    HW122901   3.006   6.279   1.287 -0.3019 -1.5717  1.2732
 7334SOL    HW222902   2.957   6.190   1.160 -0.2283  1.5822 -1.0763
 7335SOL     OW22903   4.384   4.659   4.153  0.0570  0.3088 -0.0791
 7335SOL    HW122904   4.356   4.627   4.243  0.7735 -0.3198 -0.0686
 7335SOL    HW222905   4.444   4.739   4.163  2.0520 -1.1285  0.1682
 7336SOL     OW22906   3.455   6.391   1.338 -0.4895  0.3047  0.1605
 7336SOL    HW122907   3.380   6.453   1.360  0.9064  2.4107 -0.6463
 7336SOL    HW222908   3.537   6.445   1.315  0.3211 -1.7901 -2.3922
 7337SOL     OW22909   3.296   3.235   3.585  0.0585 -1.0492 -0.7014
 7337SOL    HW122910   3.266   3.323   3.548  0.9043 -0.4335  0.0205
 7337SOL    HW222911   3.393   3.222   3.563  0.1277 -1.4593 -0.1663
 7338SOL     OW22912   5.611   2.430   6.310  0.4832  0.1692  0.0834
 7338SOL    HW122913   5.578   2.372   6.385  2.1529 -1.3347 -0.2578
 7338SOL    HW222914   5.699   2.471   6.336 -0.8255  2.9867  0.4712
 7339SOL     OW22915   2.939   3.577   4.284  0.2558  0.2927 -0.4115
 7339SOL    HW122916   2.908   3.492   4.325  0.9509  0.5766  0.7362
 7339SOL    HW222917   2.955   3.645   4.355  1.9259  0.6643 -1.0843
 7340SOL     OW22918   6.682   6.800   0.351 -0.6206  0.1909 -0.3039
 7340SOL    HW122919   6.721   6.710   0.333 -1.5254  0.2339 -2.9043
 7340SOL    HW222920   6.601   6.791   0.409 -1.6968 -0.9374 -1.9005
 7341SOL     OW22921   4.588   6.340   1.171  0.0285  0.0401 -0.4318
 7341SOL    HW122922   4.534   6.421   1.149  0.9438  0.6074 -0.6121
 7341SOL    HW222923   4.626   6.302   1.087 -0.8251 -0.9012 -0.4159
 7342SOL     OW22924   2.681   5.950   5.769  0.3950 -0.2699  0.2500
 7342SOL    HW122925   2.671   5.862   5.816  0.7873 -0.7700 -0.5847
 7342SOL    HW222926   2.632   6.020   5.820 -2.1961 -1.4622 -0.4241
 7343SOL     OW22927   3.118   5.278   5.223  0.0877  0.1532 -0.2556
 7343SOL    HW122928   3.130   5.251   5.319  1.3368 -2.9256 -1.1403
 7343SOL    HW222929   3.035   5.236   5.187 -0.4637  1.4314 -0.5167
 7344SOL     OW22930   0.643   6.480   2.562  0.0214  0.0747  0.0282
 7344SOL    HW122931   0.731   6.454   2.600 -0.4457  0.5453  1.4898
 7344SOL    HW222932   0.607   6.559   2.611 -2.0022 -1.1585  0.6564
 7345SOL     OW22933   4.126   0.189   0.785 -0.2266 -0.1265 -0.1041
 7345SOL    HW122934   4.101   0.124   0.857  0.1647 -0.1702 -0.0047
 7345SOL    HW222935   4.108   0.147   0.696 -0.5449 -0.1386 -0.0377
 7346SOL     OW22936   0.242   6.362   1.972  0.0337 -0.1898  0.1666
 7346SOL    HW122937   0.199   6.300   1.906  0.3659 -0.5168  0.2566
 7346SOL    HW222938   0.179   6.437   1.993  0.3184  0.5221 -1.3594
 7347SOL     OW22939   3.130   5.119   5.985 -0.0447  0.3250  0.1097
 7347SOL    HW122940   3.123   5.219   5.973 -0.1979  0.3887  0.7265
 7347SOL    HW222941   3.039   5.081   5.999  0.2350  0.4499  2.5832
 7348SOL     OW22942   2.375   1.823   4.837  0.0518 -0.6690 -0.0306
 7348SOL    HW122943   2.419   1.752   4.781 -0.1819 -0.5150 -0.4111
 7348SOL    HW222944   2.330   1.890   4.777 -0.1132 -0.4472  0.3390
 7349SOL     OW22945   1.436   5.125   1.503  0.4641  0.5212 -0.4642
 7349SOL    HW122946   1.523   5.166   1.531  0.3789  1.1695 -1.1093
 7349SOL    HW222947   1.400   5.174   1.424 -1.1942  1.1591  0.6385
 7350SOL     OW22948   6.250   5.214   4.811  0.4036 -0.1185 -0.7938
 7350SOL    HW122949   6.206   5.268   4.882  1.6090 -1.7949  1.3897
 7350SOL    HW222950   6.208   5.123   4.808  3.1037 -1.5645  0.9585
 7351SOL     OW22951   5.005   6.734   4.746 -0.3311 -0.5061 -0.2428
 7351SOL    HW122952   5.104   6.730   4.736 -0.2251 -1.5905  0.9419
 7351SOL    HW222953   4.981   6.771   4.835 -0.8253 -3.8180  1.1769
 7352SOL     OW22954   5.099   2.527   4.718  0.0775  0.4255 -0.0325
 7352SOL    HW122955   5.137   2.449   4.668 -0.0473  0.3091  0.0534
 7352SOL    HW222956   5.099   2.608   4.659 -0.8794  0.0886 -0.5195
 7353SOL     OW22957   5.370   1.989   2.946 -0.1391  0.5481 -0.2136
 7353SOL    HW122958   5.432   1.959   2.874  0.0489  0.1381  0.1173
 7353SOL    HW222959   5.280   2.008   2.907 -0.2501 -0.3981 -0.4399
 7354SOL     OW22960   5.323   4.189   4.411  0.4644  0.1482 -0.2089
 7354SOL    HW122961   5.290   4.268   4.462 -0.7862 -0.9223  0.7017
 7354SOL    HW222962   5.416   4.166   4.441 -0.5795 -1.0632  2.4393
 7355SOL     OW22963   6.718   2.454   4.339  0.6505  0.5541  0.3170
 7355SOL    HW122964   6.786   2.460   4.266 -0.9220 -0.9960 -1.3974
 7355SOL    HW222965   6.751   2.394   4.412  1.4097  0.4215 -0.1291
 7356SOL     OW22966   4.311   4.161   0.811  0.4669  0.4455  0.2684
 7356SOL    HW122967   4.226   4.178   0.862  0.3010  1.6538 -0.3686
 7356SOL    HW222968   4.291   4.159   0.713  0.9275 -0.9262  0.1925
 7357SOL     OW22969   6.177   4.488   4.989  0.2278 -0.0824  0.1380
 7357SOL    HW122970   6.152   4.477   4.892  1.4547  1.1789 -0.3423
 7357SOL    HW222971   6.239   4.565   4.999  1.8172 -1.4978  1.6551
 7358SOL     OW22972   2.146   3.848   4.484  0.0243  0.0421 -0.1955
 7358SOL    HW122973   2.153   3.811   4.577 -0.8855  0.8634  0.2165
 7358SOL    HW222974   2.070   3.914   4.480  0.3106  0.3161 -1.4206
 7359SOL     OW22975   6.092   5.816   0.121 -0.7265 -0.4462  0.8228
 7359SOL    HW122976   6.029   5.827   0.044 -0.1153 -1.7435  0.1163
 7359SOL    HW222977   6.039   5.815   0.206 -1.3876  1.2051  0.4744
 7360SOL     OW22978   5.860   1.441   2.385  0.3710 -0.4275 -0.2404
 7360SOL    HW122979   5.791   1.374   2.411 -2.2464  1.9911 -0.4027
 7360SOL    HW222980   5.859   1.517   2.451  1.5907  0.5223 -1.2572
 7361SOL     OW22981   2.590   0.327   6.670 -0.4446  0.1014  0.7569
 7361SOL    HW122982   2.525   0.263   6.630  0.9867 -0.5422 -0.6333
 7361SOL    HW222983   2.601   0.406   6.610  0.4416 -0.0515  0.7027
 7362SOL     OW22984   1.262   4.755   2.709  0.0918  0.0027 -0.2729
 7362SOL    HW122985   1.260   4.736   2.807  1.8986  1.5864  0.1298
 7362SOL    HW222986   1.348   4.721   2.671  0.5333  1.6359 -0.7765
 7363SOL     OW22987   5.411   2.169   2.562  0.2605 -0.5649  0.0014
 7363SOL    HW122988   5.489   2.223   2.530 -0.2907 -1.0405 -2.3052
 7363SOL    HW222989   5.375   2.210   2.646  1.6839  0.8806 -0.0359
 7364SOL     OW22990   0.548   2.923   0.003  0.2537  0.2272  0.1623
 7364SOL    HW122991   0.608   2.922  -0.077  0.7762  0.8099  0.5388
 7364SOL    HW222992   0.520   3.017   0.022  0.1692  0.0987  0.6893
 7365SOL     OW22993   6.138   2.210   4.237 -0.1860 -0.0464  0.5104
 7365SOL    HW122994   6.058   2.242   4.185 -0.5904  2.4602  2.4846
 7365SOL    HW222995   6.108   2.144   4.306 -0.1026 -1.1186 -0.4553
 7366SOL     OW22996   2.793   5.464   0.209 -0.5079 -0.4023  0.1290
 7366SOL    HW122997   2.820   5.378   0.166  0.0272 -0.7014  1.0256
 7366SOL    HW222998   2.697   5.482   0.189 -1.3454 -2.4434  1.8513
 7367SOL     OW22999   4.894   1.733   4.203  0.2919  0.2804 -0.3854
 7367SOL    HW123000   4.797   1.751   4.218  0.1484 -0.0756 -0.8604
 7367SOL    HW223001   4.932   1.684   4.281 -0.4451 -1.5805 -1.1477
 7368SOL     OW23002   5.486   5.004   5.764  0.6568 -0.1535 -0.5889
 7368SOL    HW123003   5.560   4.939   5.746 -0.4904 -0.9628 -2.8124
 7368SOL    HW223004   5.486   5.075   5.694 -0.9649 -0.4672 -0.9524
 7369SOL     OW23005   1.635   3.459   5.830 -0.0390 -0.0879  0.3311
 7369SOL    HW123006   1.672   3.495   5.744  1.2956  0.4481  1.1091
 7369SOL    HW223007   1.535   3.465   5.827  0.0110  0.6934 -0.8516
 7370SOL     OW23008   0.834   3.198   6.641  0.3389  0.3354  0.1177
 7370SOL    HW123009   0.847   3.204   6.542 -0.3278  0.4758  0.0342
 7370SOL    HW223010   0.913   3.237   6.687  0.2796  1.0606 -0.3697
 7371SOL     OW23011   0.026   0.085   0.600  0.2837  0.1394 -0.1521
 7371SOL    HW123012  -0.023   0.004   0.631  1.9721 -0.5789  0.7621
 7371SOL    HW223013   0.023   0.155   0.671 -0.1522  0.4315 -0.4538
 7372SOL     OW23014   2.944   3.198   2.228  0.5250  0.2732 -0.0838
 7372SOL    HW123015   2.913   3.285   2.190  0.6780 -0.1776 -1.2850
 7372SOL    HW223016   2.934   3.199   2.327 -2.9263  0.3693 -0.3062
 7373SOL     OW23017   2.543   3.766   5.361 -0.6163  0.4377  0.2994
 7373SOL    HW123018   2.466   3.715   5.399 -0.6844  0.2983 -0.0161
 7373SOL    HW223019   2.511   3.821   5.284 -0.2658 -0.2027 -0.3198
 7374SOL     OW23020   6.650   0.118   4.596  0.4414 -0.0842 -0.2526
 7374SOL    HW123021   6.690   0.054   4.661  1.9190  0.7010 -0.3456
 7374SOL    HW223022   6.722   0.155   4.538 -0.8382 -0.9359 -2.5379
 7375SOL     OW23023   3.304   0.325   1.112  0.0639 -0.1556 -0.0305
 7375SOL    HW123024   3.264   0.290   1.027  1.7768 -0.9072 -0.5739
 7375SOL    HW223025   3.378   0.388   1.090  0.5596 -0.4005  0.8961
 7376SOL     OW23026   0.847   1.914   6.593 -0.3316 -0.7750  0.4838
 7376SOL    HW123027   0.776   1.868   6.540  0.2717 -1.7369  0.5022
 7376SOL    HW223028   0.806   1.992   6.642 -0.7602  0.6469 -1.9618
 7377SOL     OW23029   4.903   4.036   3.084 -0.0676 -0.2445 -0.4500
 7377SOL    HW123030   4.840   4.042   3.006 -1.1437  1.4129  0.4799
 7377SOL    HW223031   4.853   4.057   3.169  1.5113  0.0305  0.4518
 7378SOL     OW23032   0.690   4.512   1.702 -0.3237 -0.3114  0.3163
 7378SOL    HW123033   0.700   4.413   1.686 -0.4485 -0.5051  1.3196
 7378SOL    HW223034   0.721   4.533   1.795  0.5551  0.7427 -0.1929
 7379SOL     OW23035   0.001   6.512   0.758 -0.3264 -0.4127  0.5142
 7379SOL    HW123036  -0.097   6.508   0.777 -0.3971 -0.6463  0.1211
 7379SOL    HW223037   0.020   6.587   0.694  0.0815  1.2294  2.4457
 7380SOL     OW23038   7.000   0.092   1.163 -0.2708  0.4401  1.0517
 7380SOL    HW123039   7.044   0.121   1.247 -0.3660  0.0350  1.2443
 7380SOL    HW223040   6.923   0.153   1.142 -0.3758  0.4139  1.3664
 7381SOL     OW23041   6.200   6.872   3.903 -0.0148 -0.0504  0.0557
 7381SOL    HW123042   6.216   6.794   3.963 -2.7384  0.0410  1.0335
 7381SOL    HW223043   6.287   6.916   3.881  1.1465  0.4185  4.6231
 7382SOL     OW23044   2.434   4.593   2.125 -0.1197 -0.3653  0.6318
 7382SOL    HW123045   2.460   4.588   2.028 -2.8824  0.2230 -0.2218
 7382SOL    HW223046   2.353   4.536   2.141 -1.5123  1.8096  1.8846
 7383SOL     OW23047   0.582   2.964   5.952  0.0647  0.1806  0.0439
 7383SOL    HW123048   0.496   2.969   6.004  0.6986 -0.1157  1.1474
 7383SOL    HW223049   0.634   3.048   5.965 -0.0151  0.3264 -0.5605
 7384SOL     OW23050   6.068   1.497   5.070 -0.5233 -0.1421 -0.1435
 7384SOL    HW123051   6.137   1.428   5.046  0.5276  0.6604  0.4758
 7384SOL    HW223052   6.044   1.487   5.167 -1.7853 -0.8281 -0.5050
 7385SOL     OW23053   0.496   6.451   1.964 -0.1642 -0.3796  0.6885
 7385SOL    HW123054   0.514   6.531   2.021  1.1289  0.7030 -1.1511
 7385SOL    HW223055   0.397   6.438   1.956 -0.4069  1.1142  0.9127
 7386SOL     OW23056   0.413   6.256   5.421  0.2794 -0.4986 -0.2419
 7386SOL    HW123057   0.420   6.296   5.512  0.1334 -1.2898  0.1219
 7386SOL    HW223058   0.425   6.157   5.426 -0.9057 -0.7055 -0.9227
 7387SOL     OW23059   4.578   2.761   6.985  0.0614 -0.3736  0.0235
 7387SOL    HW123060   4.528   2.681   7.018 -1.5098  0.8090  0.6427
 7387SOL    HW223061   4.601   2.749   6.888  0.5184 -1.8649  0.2952
 7388SOL     OW23062   5.461   0.901   6.478  0.0609  0.0449  0.2723
 7388SOL    HW123063   5.423   0.829   6.420  1.1854 -1.0481  0.8391
 7388SOL    HW223064   5.387   0.957   6.515 -0.8651 -1.0376  0.1063
 7389SOL     OW23065   2.939   5.338   1.046 -0.4334 -0.3369  0.8434
 7389SOL    HW123066   3.017   5.343   1.109 -1.2499  1.1301  1.8014
 7389SOL    HW223067   2.966   5.288   0.963  1.6118  0.3879  1.0103
 7390SOL     OW23068   5.112   4.768   2.861 -0.4815  0.1558  0.8580
 7390SOL    HW123069   5.062   4.698   2.912  1.0404 -1.3562  0.3315
 7390SOL    HW223070   5.097   4.857   2.904 -1.4154 -0.6619  2.2946
 7391SOL     OW23071   2.489   4.550   0.099 -0.0749  0.0386 -0.6098
 7391SOL    HW123072   2.470   4.469   0.042 -0.4460  1.3363 -2.4056
 7391SOL    HW223073   2.585   4.575   0.090  0.7903 -1.8112  2.2088
 7392SOL     OW23074   5.441   3.845   0.124 -0.0002 -0.8998  0.9872
 7392SOL    HW123075   5.526   3.798   0.099 -0.8267 -1.7175 -0.4255
 7392SOL    HW223076   5.372   3.828   0.054 -1.7515 -1.2923  2.7154
 7393SOL     OW23077   4.002   2.498   0.760 -0.5965 -0.5632  0.1388
 7393SOL    HW123078   3.965   2.586   0.790 -2.2796 -2.3212  3.8592
 7393SOL    HW223079   4.101   2.497   0.775 -0.6248  0.5411  0.4852
 7394SOL     OW23080   6.228   3.165   0.545  0.0069 -0.4479  0.0720
 7394SOL    HW123081   6.268   3.074   0.534  1.7043  0.2394  0.1602
 7394SOL    HW223082   6.135   3.166   0.509  0.7996 -1.5962 -2.1474
 7395SOL     OW23083   5.330   6.414   3.971 -0.0615  0.9841  0.0360
 7395SOL    HW123084   5.334   6.376   3.879 -0.1368 -1.7068  1.0547
 7395SOL    HW223085   5.244   6.464   3.983 -0.9459 -0.2739 -0.7844
 7396SOL     OW23086   1.684   6.858   5.521  0.7484 -0.0203  0.0453
 7396SOL    HW123087   1.595   6.902   5.532 -0.2129 -1.7679 -0.3079
 7396SOL    HW223088   1.723   6.838   5.611  1.7293  2.4475  0.2382
 7397SOL     OW23089   6.275   6.947   0.303 -0.1330 -0.2325  0.0716
 7397SOL    HW123090   6.351   6.922   0.243  0.0671 -0.6144  0.4765
 7397SOL    HW223091   6.214   7.010   0.256  0.2768 -0.1602 -0.3630
 7398SOL     OW23092   0.878   0.133   4.470 -0.0135  0.0260  0.1760
 7398SOL    HW123093   0.952   0.184   4.514  0.2581 -1.0263  0.9708
 7398SOL    HW223094   0.916   0.078   4.395 -0.1894  0.4161 -0.2024
 7399SOL     OW23095   5.363   3.605   6.848 -0.3658 -0.0223 -0.0764
 7399SOL    HW123096   5.333   3.531   6.909 -0.0686 -0.6896 -0.7255
 7399SOL    HW223097   5.304   3.685   6.862 -1.5929 -0.8447 -0.3601
 7400SOL     OW23098   2.262   3.367   5.203 -0.1861 -0.2089 -0.5194
 7400SOL    HW123099   2.198   3.433   5.163 -0.7823 -0.0885  0.5939
 7400SOL    HW223100   2.229   3.274   5.187 -1.2498 -0.1175  1.0075
 7401SOL     OW23101   3.258   6.563   1.368 -0.0877  0.3750 -0.3336
 7401SOL    HW123102   3.185   6.600   1.425  1.4911  1.9138  0.7720
 7401SOL    HW223103   3.246   6.594   1.274 -0.7858  0.6999 -0.1378
 7402SOL     OW23104   0.036   2.781   6.102  0.1310  0.1168 -0.0573
 7402SOL    HW123105   0.039   2.708   6.033 -0.7034 -0.4513  0.4951
 7402SOL    HW223106  -0.016   2.859   6.066 -2.1008 -0.9712  0.6272
 7403SOL     OW23107   0.601   0.349   4.208  0.7360 -0.5988  0.1704
 7403SOL    HW123108   0.582   0.327   4.304  0.6244 -2.1331 -0.1797
 7403SOL    HW223109   0.617   0.265   4.157 -1.5070 -0.0249 -1.6503
 7404SOL     OW23110   0.475   0.717   2.461  0.1985 -0.2266 -0.4801
 7404SOL    HW123111   0.395   0.776   2.461  1.0156  0.9175 -0.8907
 7404SOL    HW223112   0.474   0.659   2.543  0.6128  2.1082  1.2755
 7405SOL     OW23113   1.372   2.318   6.539 -0.5322  0.1598  0.0524
 7405SOL    HW123114   1.305   2.247   6.565 -0.0277  0.2121  1.5844
 7405SOL    HW223115   1.412   2.294   6.451 -0.7616 -1.2051  0.2845
 7406SOL     OW23116   1.601   2.337   3.379  0.0546  0.2505 -0.1578
 7406SOL    HW123117   1.607   2.437   3.384  4.3582  0.1058  2.0201
 7406SOL    HW223118   1.541   2.303   3.451  0.4515  1.1917  0.6283
 7407SOL     OW23119   1.055   0.786   4.787 -0.6108  0.0656  0.2889
 7407SOL    HW123120   1.146   0.745   4.797  0.0371  1.3684 -0.1018
 7407SOL    HW223121   1.047   0.827   4.696 -1.7271 -0.3322  0.1873
 7408SOL     OW23122   1.566   0.317   6.091 -0.1251  0.0352 -0.5670
 7408SOL    HW123123   1.611   0.229   6.073  0.5234  0.5267 -1.4763
 7408SOL    HW223124   1.511   0.343   6.012 -0.5653  0.2992 -0.1773
 7409SOL     OW23125   6.175   2.128   5.084  0.4261  1.0872 -0.2073
 7409SOL    HW123126   6.103   2.092   5.144  0.0822 -0.7128 -1.6215
 7409SOL    HW223127   6.237   2.186   5.137 -0.7498  0.8341  1.5250
 7410SOL     OW23128   5.817   3.799   5.113 -0.1752  0.2234 -0.0652
 7410SOL    HW123129   5.722   3.795   5.144 -0.1883 -0.9922 -0.2036
 7410SOL    HW223130   5.873   3.738   5.169 -0.0194 -1.2683 -1.7441
 7411SOL     OW23131   6.516   5.263   0.560  0.7259  0.3710 -0.4053
 7411SOL    HW123132   6.446   5.299   0.499 -0.3974 -1.5125 -0.3380
 7411SOL    HW223133   6.571   5.195   0.512  0.0713 -0.8618  0.5196
 7412SOL     OW23134   0.096   5.909   5.390 -0.0442  0.0949 -0.4325
 7412SOL    HW123135   0.128   5.913   5.485  0.8618  1.1887 -0.7535
 7412SOL    HW223136  -0.002   5.926   5.387  0.0953  1.1400  0.2440
 7413SOL     OW23137   3.999   5.110   4.794 -0.0203  0.2107  0.1867
 7413SOL    HW123138   3.944   5.118   4.877  0.9194 -0.9372  0.9484
 7413SOL    HW223139   3.939   5.107   4.715 -1.0560 -0.6801  0.9771
 7414SOL     OW23140   1.431   1.675   2.974  0.4772 -0.2410 -0.0152
 7414SOL    HW123141   1.418   1.759   2.921 -1.1253  0.6662  1.7040
 7414SOL    HW223142   1.522   1.677   3.017  0.8765  0.0733 -0.8420
 7415SOL     OW23143   5.203   5.614   2.328 -0.2121  0.2088 -0.0168
 7415SOL    HW123144   5.292   5.660   2.333 -0.3969  0.9814 -2.6876
 7415SOL    HW223145   5.206   5.532   2.385  2.7742 -0.6359 -1.1710
 7416SOL     OW23146   3.819   6.708   1.039  0.5670 -0.1492 -0.0152
 7416SOL    HW123147   3.879   6.748   1.108  0.6069 -1.9672  1.0547
 7416SOL    HW223148   3.733   6.760   1.035  2.2640  2.8586 -1.9701
 7417SOL     OW23149   5.216   2.244   2.779 -1.4874  0.3275  0.0380
 7417SOL    HW123150   5.172   2.334   2.768 -1.0264  0.6582  0.7850
 7417SOL    HW223151   5.212   2.217   2.875  0.3256  0.5887  0.2298
 7418SOL     OW23152   5.174   1.629   2.593  0.0077 -0.1379  0.2020
 7418SOL    HW123153   5.203   1.600   2.684  1.4948  0.2554 -0.1304
 7418SOL    HW223154   5.090   1.580   2.568 -1.4826  1.0498  2.5019
 7419SOL     OW23155   5.057   6.577   4.016 -0.2217  0.1605 -0.4356
 7419SOL    HW123156   4.989   6.568   3.944 -2.0405  1.8395  0.9551
 7419SOL    HW223157   5.019   6.544   4.103  0.9237  0.6588  0.2832
 7420SOL     OW23158   0.117   1.929   1.677  0.4287 -0.3519 -0.3944
 7420SOL    HW123159   0.135   1.929   1.579  1.0162 -2.0805 -0.3110
 7420SOL    HW223160   0.019   1.944   1.693  0.4957  1.1033 -1.1756
 7421SOL     OW23161   0.750   6.916   3.731  0.4646  0.3572 -0.4235
 7421SOL    HW123162   0.834   6.968   3.717 -0.0840  0.9574 -1.6546
 7421SOL    HW223163   0.673   6.980   3.743 -0.3260 -0.1085 -2.5704
 7422SOL     OW23164   4.672   2.072   5.486 -0.6371  0.1455  0.1241
 7422SOL    HW123165   4.740   2.075   5.413 -0.0631 -0.3627  0.6315
 7422SOL    HW223166   4.580   2.076   5.446 -0.3843 -1.7666 -0.7408
 7423SOL     OW23167   2.931   1.819   3.196  0.2783  0.5371 -0.0905
 7423SOL    HW123168   2.981   1.878   3.133  0.4131  0.3964 -0.1158
 7423SOL    HW223169   2.885   1.875   3.265  1.1281  0.6222  0.4165
 7424SOL     OW23170   5.205   3.231   1.283 -0.1467 -0.0120 -0.1042
 7424SOL    HW123171   5.226   3.152   1.341  2.0806  0.3978 -0.2637
 7424SOL    HW223172   5.258   3.225   1.198 -1.9974  0.3133 -1.3449
 7425SOL     OW23173   4.664   5.097   0.270 -0.1141 -0.3020  0.3350
 7425SOL    HW123174   4.632   5.129   0.359 -0.2615 -1.6493  0.7868
 7425SOL    HW223175   4.585   5.086   0.209  0.1418  2.5845 -0.6993
 7426SOL     OW23176   2.835   6.979   1.979  0.0184  0.6074  0.3002
 7426SOL    HW123177   2.750   6.973   1.926 -0.4316  0.2265  1.0404
 7426SOL    HW223178   2.828   7.054   2.045 -0.4876 -0.5314  1.6018
 7427SOL     OW23179   3.264   4.911   2.105  0.0322  0.0332 -0.8255
 7427SOL    HW123180   3.177   4.867   2.123 -0.5939  1.9952  1.4034
 7427SOL    HW223181   3.290   4.896   2.009 -2.9192 -0.2961 -1.6748
 7428SOL     OW23182   3.118   1.863   6.406 -0.4401 -0.4683  0.3260
 7428SOL    HW123183   3.022   1.888   6.421 -0.3738  1.0895 -1.4522
 7428SOL    HW223184   3.122   1.772   6.364 -1.1236 -0.6400  0.6110
 7429SOL     OW23185   2.447   5.429   5.365  0.2922  0.6084  0.5351
 7429SOL    HW123186   2.451   5.524   5.332 -3.4105  1.0159  0.8743
 7429SOL    HW223187   2.448   5.367   5.287 -2.0931  1.2493 -0.0823
 7430SOL     OW23188   5.695   4.917   2.769 -0.5018 -0.1631 -0.6016
 7430SOL    HW123189   5.730   4.994   2.823 -2.5838  1.0422 -0.8599
 7430SOL    HW223190   5.771   4.858   2.743  1.0927  1.4303  0.1792
 7431SOL     OW23191   6.083   2.701   2.710  0.1077 -0.3137 -0.1306
 7431SOL    HW123192   6.138   2.750   2.642  0.8200  3.0551  2.5999
 7431SOL    HW223193   6.143   2.645   2.768  0.3090  0.9418  0.9170
 7432SOL     OW23194   5.128   3.894   4.869  0.0677 -0.2797 -0.5677
 7432SOL    HW123195   5.105   3.987   4.898  0.1238 -0.5133  0.2521
 7432SOL    HW223196   5.053   3.855   4.816 -0.5003 -0.2285  0.1912
 7433SOL     OW23197   2.309   4.739   3.600  0.2699 -0.4595  0.6779
 7433SOL    HW123198   2.236   4.767   3.662  0.4013 -1.5985  1.3776
 7433SOL    HW223199   2.276   4.667   3.540  0.4587 -0.1080  0.1480
 7434SOL     OW23200   1.740   1.176   1.245  0.4018 -0.5830 -0.3869
 7434SOL    HW123201   1.735   1.233   1.327 -1.1615 -0.4958 -0.5182
 7434SOL    HW223202   1.652   1.177   1.197  0.3864 -2.8664 -0.5547
 7435SOL     OW23203   1.863   1.102   0.720 -0.0715 -0.2239  0.2885
 7435SOL    HW123204   1.937   1.149   0.767  0.3847 -1.9728  1.4222
 7435SOL    HW223205   1.894   1.012   0.691 -1.9051 -1.3134  1.4629
 7436SOL     OW23206   2.375   2.209   2.975  0.0906 -0.1595 -0.1294
 7436SOL    HW123207   2.316   2.152   2.918 -1.2782  1.0956 -0.0280
 7436SOL    HW223208   2.319   2.271   3.029  1.3644 -0.9064  2.2020
 7437SOL     OW23209   4.544   0.574   1.322  0.4231 -0.4904  0.3691
 7437SOL    HW123210   4.458   0.525   1.303  1.0787 -1.3852 -0.3618
 7437SOL    HW223211   4.530   0.672   1.306 -0.5460 -0.5905  0.5431
 7438SOL     OW23212   6.013   2.611   0.128 -0.0313 -0.1149 -0.0550
 7438SOL    HW123213   6.023   2.602   0.227  1.2028  1.0518 -0.0345
 7438SOL    HW223214   5.952   2.689   0.108  1.0014  0.6821 -0.1869
 7439SOL     OW23215   2.153   5.993   0.707 -0.2841  0.0569 -0.3596
 7439SOL    HW123216   2.248   5.962   0.716 -0.5502 -0.7872 -0.3305
 7439SOL    HW223217   2.128   5.997   0.610 -0.1126  0.6368 -0.3847
 7440SOL     OW23218   1.934   4.935   5.253 -1.3726  0.2329 -0.4342
 7440SOL    HW123219   1.851   4.886   5.281 -1.7330  1.5650  0.9753
 7440SOL    HW223220   1.977   4.887   5.176 -0.7615 -3.2228  1.8433
 7441SOL     OW23221   3.161   2.985   5.014 -0.7151 -0.2494 -0.3686
 7441SOL    HW123222   3.245   3.038   5.001 -1.8020  1.7519  0.3653
 7441SOL    HW223223   3.180   2.906   5.073  0.4246  0.8083  0.7372
 7442SOL     OW23224   4.877   5.042   5.831  0.3878 -0.3897 -0.4501
 7442SOL    HW123225   4.805   5.094   5.877  1.0572  0.9862 -0.8828
 7442SOL    HW223226   4.864   4.945   5.847 -1.5126 -0.1739 -0.4371
 7443SOL     OW23227   3.006   1.587   3.711  0.3624 -0.4795 -0.0988
 7443SOL    HW123228   2.954   1.534   3.643 -0.1377 -3.4586  2.3850
 7443SOL    HW223229   3.101   1.557   3.710  0.7218  0.6323 -0.5315
 7444SOL     OW23230   0.847   2.182   4.228  0.0775 -0.7240  0.1309
 7444SOL    HW123231   0.862   2.200   4.326  0.9365 -0.6912  0.0012
 7444SOL    HW223232   0.781   2.108   4.218 -0.8241 -0.0250  0.7162
 7445SOL     OW23233   4.846   2.102   5.286 -0.3188  0.2403 -0.4475
 7445SOL    HW123234   4.886   2.021   5.242  1.2554  1.4530 -1.3837
 7445SOL    HW223235   4.757   2.121   5.245 -0.0259 -0.1560 -1.2970
 7446SOL     OW23236   0.721   0.569   2.786 -0.2079 -0.8565  0.7890
 7446SOL    HW123237   0.698   0.650   2.840 -1.6355 -1.3920  1.0423
 7446SOL    HW223238   0.646   0.549   2.723  0.3358 -1.7076  0.3875
 7447SOL     OW23239   2.986   6.825   5.538  0.0109  0.2899 -0.4596
 7447SOL    HW123240   2.947   6.804   5.448 -0.0453 -1.0485 -0.1430
 7447SOL    HW223241   2.918   6.876   5.592  0.1159  1.2673 -1.2233
 7448SOL     OW23242   6.037   6.392   3.990  0.3342 -0.2604 -0.3913
 7448SOL    HW123243   5.978   6.339   3.930 -0.1222  0.8452 -0.9590
 7448SOL    HW223244   6.132   6.385   3.959  0.2292 -0.4497 -0.6719
 7449SOL     OW23245   3.144   2.148   3.301  0.2802  0.1364 -0.0225
 7449SOL    HW123246   3.178   2.116   3.389 -2.1790 -1.4692  0.4595
 7449SOL    HW223247   3.084   2.227   3.316  1.3108  1.0374 -0.5092
 7450SOL     OW23248   5.874   6.154   3.441 -0.2160 -0.1932  0.0801
 7450SOL    HW123249   5.875   6.063   3.482 -0.3324 -0.2359 -0.0101
 7450SOL    HW223250   5.968   6.187   3.429 -0.1716 -0.3324  0.0450
 7451SOL     OW23251   6.723   3.352   2.126  0.0933 -0.3649  0.5331
 7451SOL    HW123252   6.809   3.341   2.176  0.1577  0.0181  0.5063
 7451SOL    HW223253   6.646   3.336   2.188  0.1682 -2.7899  0.1080
 7452SOL     OW23254   6.914   5.542   3.964 -0.1612 -0.3503  0.4962
 7452SOL    HW123255   6.984   5.577   4.026 -1.0545  1.3033  0.6294
 7452SOL    HW223256   6.827   5.536   4.012 -0.9852  1.4342 -0.6807
 7453SOL     OW23257   1.132   2.231   6.090  0.0893  0.5734 -0.0892
 7453SOL    HW123258   1.139   2.311   6.150  1.2157 -0.4648  1.2297
 7453SOL    HW223259   1.042   2.189   6.101  0.0046  0.8492  0.2879
 7454SOL     OW23260   0.029   3.690   1.937 -0.4293 -0.2868  0.0650
 7454SOL    HW123261   0.088   3.688   1.856 -3.0671  0.7255 -2.0397
 7454SOL    HW223262   0.026   3.783   1.975 -1.2301 -0.1283 -0.3499
 7455SOL     OW23263   5.495   6.736   6.088 -0.2626  0.3402  0.2977
 7455SOL    HW123264   5.477   6.823   6.041 -1.4840 -0.1350 -0.1703
 7455SOL    HW223265   5.409   6.687   6.099  0.1461 -0.0282  2.1482
 7456SOL     OW23266   5.018   5.537   0.899 -0.1126 -0.1092 -0.6908
 7456SOL    HW123267   5.095   5.531   0.836 -0.2423 -0.6466 -0.8031
 7456SOL    HW223268   5.050   5.515   0.992 -0.1895 -0.6641 -0.7894
 7457SOL     OW23269   6.908   1.408   3.759 -0.8344 -0.0101  0.4067
 7457SOL    HW123270   6.939   1.494   3.721  1.3161 -0.8099  0.1999
 7457SOL    HW223271   6.826   1.423   3.815  0.0252  2.2968  1.1340
 7458SOL     OW23272   0.063   1.004   1.332 -0.3154  0.6393 -0.1680
 7458SOL    HW123273   0.050   0.982   1.429  0.6058  0.1648 -0.1515
 7458SOL    HW223274  -0.025   1.035   1.294 -0.8393  0.2078  0.6480
 7459SOL     OW23275   4.137   3.432   1.779 -0.2300 -0.1481 -0.2181
 7459SOL    HW123276   4.038   3.443   1.765 -0.3905 -0.1808  0.8159
 7459SOL    HW223277   4.165   3.481   1.861  0.3275 -1.4278  0.3858
 7460SOL     OW23278   4.420   5.458   3.917 -0.1738 -0.7199 -0.4064
 7460SOL    HW123279   4.473   5.379   3.888 -0.1131  0.1048 -2.8107
 7460SOL    HW223280   4.333   5.427   3.956  0.6325 -1.9816  0.4627
 7461SOL     OW23281   1.887   1.935   1.310  0.2193  0.0027  0.5659
 7461SOL    HW123282   1.812   1.878   1.343 -0.1446 -0.6898 -1.2939
 7461SOL    HW223283   1.865   2.032   1.325 -1.0784 -0.1895  0.0425
 7462SOL     OW23284   4.427   1.263   3.712  0.3549  0.0494  0.1226
 7462SOL    HW123285   4.505   1.217   3.754  0.1033 -0.6576 -0.1847
 7462SOL    HW223286   4.364   1.196   3.674 -0.8326  0.5549  1.0922
 7463SOL     OW23287   2.448   5.333   4.767 -0.5181  0.5694 -0.2769
 7463SOL    HW123288   2.411   5.292   4.851  1.4925 -0.1962  0.2763
 7463SOL    HW223289   2.488   5.263   4.709  2.6956  1.5745  0.5320
 7464SOL     OW23290   3.641   3.306   2.342  0.1779  0.4871 -0.1452
 7464SOL    HW123291   3.589   3.349   2.415 -0.9805 -0.0512 -0.6211
 7464SOL    HW223292   3.588   3.230   2.303  1.4458 -0.2767 -0.4594
 7465SOL     OW23293   1.894   6.033   6.219 -0.9176 -0.1389 -0.2111
 7465SOL    HW123294   1.862   6.091   6.294 -0.9782  1.1182 -1.1778
 7465SOL    HW223295   1.930   5.948   6.256 -2.1015 -0.0844  1.1536
 7466SOL     OW23296   2.774   0.202   1.506 -0.4571  0.0033  0.5022
 7466SOL    HW123297   2.768   0.215   1.605 -2.4879  0.4144  0.3587
 7466SOL    HW223298   2.748   0.287   1.459 -2.0722 -0.9226 -0.3775
 7467SOL     OW23299   3.290   3.607   5.851  0.2863  0.2137  0.3837
 7467SOL    HW123300   3.290   3.522   5.904  1.4431 -1.1854 -1.7427
 7467SOL    HW223301   3.351   3.673   5.895  1.0919 -0.8390  0.8965
 7468SOL     OW23302   6.834   2.163   1.851 -0.3305 -0.0899  0.1734
 7468SOL    HW123303   6.762   2.232   1.861 -1.0880 -0.7870 -0.2590
 7468SOL    HW223304   6.859   2.127   1.940 -1.9183 -1.2038  0.2140
 7469SOL     OW23305   3.134   2.531   6.022  0.2020 -0.0763 -0.3311
 7469SOL    HW123306   3.214   2.471   6.031  0.0268 -0.4844 -1.4067
 7469SOL    HW223307   3.055   2.477   5.991 -0.1159  0.5911 -0.6908
 7470SOL     OW23308   3.195   5.338   1.191 -0.0751 -0.4573 -0.3444
 7470SOL    HW123309   3.138   5.263   1.223 -0.9023 -1.3187 -3.5169
 7470SOL    HW223310   3.184   5.417   1.252 -1.8135 -1.7713  1.1457
 7471SOL     OW23311   3.720   4.982   3.524  0.2048  0.1518 -0.2847
 7471SOL    HW123312   3.764   4.951   3.608  0.2818 -1.0501 -0.7526
 7471SOL    HW223313   3.663   5.061   3.544  1.9684  1.2913  0.4763
 7472SOL     OW23314   5.312   0.846   1.568  0.2413  0.0430  0.0801
 7472SOL    HW123315   5.311   0.845   1.468  0.5641 -1.9481  0.0458
 7472SOL    HW223316   5.398   0.884   1.601  1.7110 -2.4990 -0.5371
 7473SOL     OW23317   5.385   6.030   6.100  0.2183  0.0375 -0.5121
 7473SOL    HW123318   5.462   6.089   6.124 -0.4795  0.4539  0.7988
 7473SOL    HW223319   5.400   5.938   6.136 -0.7470  0.6166  1.5265
 7474SOL     OW23320   3.947   3.920   4.119  0.0128  0.0436  0.1381
 7474SOL    HW123321   3.971   3.907   4.023  0.9458 -0.2555  0.4005
 7474SOL    HW223322   3.868   3.981   4.126  0.3146  0.5593 -0.7936
 7475SOL     OW23323   5.950   5.438   4.326  0.1470 -0.0658 -0.1791
 7475SOL    HW123324   5.931   5.528   4.286  1.6504  0.3641 -0.0061
 7475SOL    HW223325   5.926   5.367   4.260 -1.4327  0.4178 -0.1711
 7476SOL     OW23326   2.296   6.772   3.739  0.0290 -0.0604 -0.1764
 7476SOL    HW123327   2.270   6.681   3.771  0.4885 -0.8165 -1.8281
 7476SOL    HW223328   2.395   6.784   3.747 -0.0729  0.4503  0.3910
 7477SOL     OW23329   3.786   5.293   4.296 -0.2384 -0.2439 -0.6444
 7477SOL    HW123330   3.691   5.294   4.265 -0.2390  0.1134 -0.6408
 7477SOL    HW223331   3.846   5.303   4.217 -0.2671  1.9052 -0.4694
 7478SOL     OW23332   0.999   0.009   0.372  0.0484 -0.0647 -0.4688
 7478SOL    HW123333   1.052   0.020   0.288 -0.4876  0.1540 -0.7830
 7478SOL    HW223334   0.990  -0.088   0.393 -0.6232 -0.1692 -1.1946
 7479SOL     OW23335   5.313   4.281   3.792  0.2997  0.1748 -0.1939
 7479SOL    HW123336   5.340   4.320   3.880 -0.5322  1.9615 -0.6726
 7479SOL    HW223337   5.325   4.182   3.794 -1.7716 -0.1403  2.6960
 7480SOL     OW23338   2.998   1.026   0.419  0.9752  0.4570  0.3267
 7480SOL    HW123339   2.961   1.118   0.433  0.6129  0.6558 -1.6926
 7480SOL    HW223340   2.967   0.990   0.331  2.5047 -0.9148  0.2979
 7481SOL     OW23341   0.348   3.177   6.803 -0.7423 -0.1309 -0.5421
 7481SOL    HW123342   0.349   3.087   6.760 -2.4443 -0.1608 -0.6070
 7481SOL    HW223343   0.396   3.242   6.744 -0.4121 -0.7803 -1.0119
 7482SOL     OW23344   1.686   3.422   4.739  0.1012  0.1358 -0.6011
 7482SOL    HW123345   1.602   3.373   4.716 -0.3702  1.8193 -2.7784
 7482SOL    HW223346   1.759   3.395   4.677  0.8775 -0.4909  0.5606
 7483SOL     OW23347   3.042   4.144   0.739  0.2119  0.0634 -0.1591
 7483SOL    HW123348   3.082   4.113   0.825 -0.3931 -1.0940 -0.2604
 7483SOL    HW223349   3.113   4.152   0.670  0.8047  1.6725  0.6120
 7484SOL     OW23350   5.074   6.995   1.311 -0.3072  0.2138  0.3431
 7484SOL    HW123351   5.091   7.091   1.335 -1.5714  0.1643  1.5802
 7484SOL    HW223352   5.021   6.952   1.383 -1.2047 -0.9697 -0.9682
 7485SOL     OW23353   3.744   1.639   6.280  0.7285 -0.1827 -0.8388
 7485SOL    HW123354   3.661   1.671   6.327  0.2682 -0.4872 -1.4311
 7485SOL    HW223355   3.823   1.691   6.312  0.5768 -0.9656  0.9356
 7486SOL     OW23356   5.609   4.467   3.328 -0.0096  0.3001  0.3115
 7486SOL    HW123357   5.539   4.402   3.300  0.7695 -0.4645  0.0659
 7486SOL    HW223358   5.638   4.448   3.422 -0.4498  0.9062  0.5752
 7487SOL     OW23359   0.602   6.759   3.122 -0.1964  0.4556 -0.3772
 7487SOL    HW123360   0.625   6.677   3.069  0.0828 -1.5960  2.6927
 7487SOL    HW223361   0.676   6.825   3.115  0.4925 -0.3819 -1.3403
 7488SOL     OW23362   0.645   2.240   1.395 -0.3046 -0.1091  0.1704
 7488SOL    HW123363   0.733   2.287   1.399 -1.3882  2.1505 -1.1852
 7488SOL    HW223364   0.623   2.216   1.301 -2.1309  1.3993  0.1574
 7489SOL     OW23365   6.569   6.165   1.330  0.0226 -0.0858 -0.6883
 7489SOL    HW123366   6.545   6.238   1.394 -0.0103 -1.5184  0.9847
 7489SOL    HW223367   6.667   6.146   1.337 -0.3208 -1.5760  0.4156
 7490SOL     OW23368   0.915   6.258   1.328  0.4461 -0.0617  0.5878
 7490SOL    HW123369   0.850   6.320   1.283 -0.9095 -2.4269 -0.9575
 7490SOL    HW223370   0.867   6.205   1.398  0.7738 -1.4786 -0.2188
 7491SOL     OW23371   0.455   5.243   3.733  0.3058 -0.3150 -0.6433
 7491SOL    HW123372   0.498   5.154   3.744  1.7170  0.4665  0.4749
 7491SOL    HW223373   0.407   5.268   3.818 -1.4039 -0.6452 -1.4627
 7492SOL     OW23374   1.212   4.724   1.592 -0.1351 -0.5057  0.1532
 7492SOL    HW123375   1.275   4.695   1.520 -1.2410  0.5671 -1.3203
 7492SOL    HW223376   1.144   4.653   1.607  1.5755 -1.8656  2.0666
 7493SOL     OW23377   5.548   6.391   3.713  0.3203 -0.2650 -0.8624
 7493SOL    HW123378   5.469   6.452   3.704 -1.4683 -2.3661 -0.3754
 7493SOL    HW223379   5.545   6.345   3.802  0.1173 -2.9078 -2.1203
 7494SOL     OW23380   2.946   6.002   0.372 -0.0375  0.1823  0.4511
 7494SOL    HW123381   2.982   6.067   0.306 -0.7384  1.1005  0.9506
 7494SOL    HW223382   2.935   5.913   0.328  2.6029 -0.0998  0.2460
 7495SOL     OW23383   2.202   2.463   1.160  0.0191 -0.3809  0.2356
 7495SOL    HW123384   2.211   2.370   1.124  1.3165 -0.1775 -0.0475
 7495SOL    HW223385   2.124   2.508   1.117 -0.1087 -1.0633 -0.2694
 7496SOL     OW23386   2.455   4.902   1.638  0.0469 -0.4297  0.1823
 7496SOL    HW123387   2.357   4.903   1.618  0.0442  3.0697 -0.3151
 7496SOL    HW223388   2.470   4.938   1.730  0.8386 -2.9341  1.1096
 7497SOL     OW23389   0.971   5.193   6.553  0.1328 -0.5019 -0.5353
 7497SOL    HW123390   1.004   5.243   6.632 -2.2583 -0.4103  0.4819
 7497SOL    HW223391   0.980   5.095   6.569 -0.1445 -0.4785 -0.2214
 7498SOL     OW23392   5.735   4.140   6.968  0.0532 -0.5744 -0.2708
 7498SOL    HW123393   5.794   4.138   7.048 -0.5154 -1.8339  0.1521
 7498SOL    HW223394   5.649   4.184   6.991 -0.1635 -1.0576 -0.1305
 7499SOL     OW23395   3.730   3.242   1.788 -0.4071  0.3081 -0.4871
 7499SOL    HW123396   3.725   3.289   1.876 -0.4429 -0.6701  0.0517
 7499SOL    HW223397   3.825   3.213   1.771 -0.8795 -2.3052  0.7904
 7500SOL     OW23398   0.949   1.790   0.425  0.5457 -0.9611  0.5929
 7500SOL    HW123399   0.880   1.759   0.490  0.3537 -1.7604  0.0271
 7500SOL    HW223400   1.039   1.794   0.470 -0.1471  2.2829  1.9925
 7501SOL     OW23401   4.142   1.260   0.767 -0.2136 -0.5533 -0.3896
 7501SOL    HW123402   4.187   1.294   0.685  0.0003 -1.9547 -0.8795
 7501SOL    HW223403   4.050   1.300   0.773 -0.7271 -1.4344 -2.0290
 7502SOL     OW23404   5.145   3.517   5.922  0.0993  0.4559 -0.3168
 7502SOL    HW123405   5.200   3.438   5.896 -0.6289 -0.3704  0.5882
 7502SOL    HW223406   5.098   3.553   5.841  0.5475  0.0572 -0.7625
 7503SOL     OW23407   2.986   4.951   1.690 -0.3778  0.4665  0.0865
 7503SOL    HW123408   2.938   5.012   1.628  0.1743  1.0897  0.2603
 7503SOL    HW223409   2.921   4.890   1.735 -0.9718  1.1489  0.1509
 7504SOL     OW23410   6.963   5.257   2.423  0.1289  0.4837 -0.3305
 7504SOL    HW123411   6.969   5.163   2.456  0.3774  0.6788  0.1910
 7504SOL    HW223412   7.054   5.293   2.404  0.2241  1.3083  1.4856
 7505SOL     OW23413   5.445   1.174   1.103 -0.1106  0.6464 -0.4517
 7505SOL    HW123414   5.352   1.137   1.107  0.1600 -0.0327 -0.2957
 7505SOL    HW223415   5.491   1.158   1.191  0.7081 -0.5299 -1.0722
 7506SOL     OW23416   5.520   0.229   5.421  0.6396 -0.3384  0.1879
 7506SOL    HW123417   5.436   0.251   5.469 -1.7831 -1.8865 -2.9402
 7506SOL    HW223418   5.503   0.154   5.356  4.4134 -0.6184 -0.7437
 7507SOL     OW23419   5.524   3.760   2.379  0.2604  0.5492  0.3800
 7507SOL    HW123420   5.458   3.810   2.322  0.8139 -0.7711 -1.5182
 7507SOL    HW223421   5.497   3.665   2.387  2.4920 -0.3547 -1.5282
 7508SOL     OW23422   2.308   5.396   0.137 -0.1247  0.4572 -0.2968
 7508SOL    HW123423   2.255   5.358   0.062 -0.6605  1.0116 -0.1986
 7508SOL    HW223424   2.332   5.322   0.201  1.3984 -0.2527 -1.6192
 7509SOL     OW23425   3.653   0.652   3.122  0.5022 -0.3744 -0.1424
 7509SOL    HW123426   3.699   0.709   3.054 -1.5301  1.4731 -0.0677
 7509SOL    HW223427   3.697   0.665   3.211  0.6835  0.3074 -0.3233
 7510SOL     OW23428   3.274   6.553   0.258 -0.2135  0.5412  0.0865
 7510SOL    HW123429   3.195   6.496   0.235  1.3633 -0.6148 -3.0911
 7510SOL    HW223430   3.264   6.643   0.216  0.1546  0.3868 -0.3357
 7511SOL     OW23431   3.716   5.790   2.081 -0.4502  0.3480  0.0967
 7511SOL    HW123432   3.703   5.691   2.084  2.8431 -0.1717  0.8221
 7511SOL    HW223433   3.699   5.829   2.171  2.0156 -0.2433  0.8999
 7512SOL     OW23434   4.210   5.245   1.716 -0.2365  0.2995  0.2941
 7512SOL    HW123435   4.188   5.183   1.792  0.3541  0.9932  1.0471
 7512SOL    HW223436   4.194   5.197   1.629  2.2369 -1.7151  0.8139
 7513SOL     OW23437   5.860   3.182   5.135  0.4119 -0.1953  0.5348
 7513SOL    HW123438   5.817   3.268   5.165  0.6529 -0.1960  0.8821
 7513SOL    HW223439   5.872   3.185   5.036  0.8586  0.3763  0.5986
 7514SOL     OW23440   3.534   4.924   2.148  0.3413  0.0771 -0.1333
 7514SOL    HW123441   3.435   4.934   2.140  0.1971 -0.6861  0.5286
 7514SOL    HW223442   3.571   4.884   2.064 -0.0647 -0.6479  0.0284
 7515SOL     OW23443   1.159   2.158   6.819 -0.3863  0.0437 -0.4072
 7515SOL    HW123444   1.239   2.200   6.862 -0.5088 -0.4583  0.3324
 7515SOL    HW223445   1.083   2.222   6.820 -0.4910 -0.0862  0.4537
 7516SOL     OW23446   5.708   4.533   1.349  0.1932 -0.5972 -0.6993
 7516SOL    HW123447   5.648   4.454   1.361 -1.7366  0.8203 -0.4316
 7516SOL    HW223448   5.721   4.578   1.437  0.2837  0.0526 -1.0406
 7517SOL     OW23449   3.136   1.120   0.644  0.3784 -0.0992  0.2704
 7517SOL    HW123450   3.096   1.212   0.638  0.7826  0.1707  1.5064
 7517SOL    HW223451   3.085   1.058   0.585  0.7072  1.1217 -1.3944
 7518SOL     OW23452   5.017   3.683   6.800 -0.2659  0.2359  0.0014
 7518SOL    HW123453   4.926   3.694   6.760  0.3112  0.8439 -1.1999
 7518SOL    HW223454   5.065   3.771   6.799  0.0953  0.0742  1.2669
 7519SOL     OW23455   4.896   6.645   1.826 -0.0346  0.0295  0.5242
 7519SOL    HW123456   4.855   6.617   1.913 -0.6271  1.1684  0.6239
 7519SOL    HW223457   4.831   6.630   1.752  0.6920 -1.5220  0.1633
 7520SOL     OW23458   1.291   1.678   6.847 -0.5188 -0.8814 -0.3571
 7520SOL    HW123459   1.378   1.657   6.892 -0.0637 -0.9781 -1.2429
 7520SOL    HW223460   1.220   1.691   6.915  0.9408  2.9461  0.6889
 7521SOL     OW23461   0.190   2.401   2.104 -0.3420  0.4677  0.3498
 7521SOL    HW123462   0.231   2.329   2.048  0.3540 -0.0039  1.4389
 7521SOL    HW223463   0.096   2.376   2.127 -0.2881  0.1832  0.2604
 7522SOL     OW23464   0.767   5.561   0.516  0.1578 -0.0349 -0.6201
 7522SOL    HW123465   0.753   5.633   0.585 -0.1116 -0.8371  0.1789
 7522SOL    HW223466   0.713   5.582   0.435 -0.0872  0.5616 -0.3103
 7523SOL     OW23467   4.440   1.556   2.657  0.2012 -0.3939  0.6620
 7523SOL    HW123468   4.504   1.612   2.711  0.1208 -0.8034  1.1935
 7523SOL    HW223469   4.347   1.587   2.674  0.1029 -1.0725  1.4459
 7524SOL     OW23470   1.900   2.080   5.058  0.3786 -0.1168 -0.4076
 7524SOL    HW123471   1.828   2.120   5.114  1.2622  0.7049  0.1694
 7524SOL    HW223472   1.987   2.126   5.077  0.7073  0.2386 -2.4937
 7525SOL     OW23473   2.183   2.652   1.609  0.2042 -0.7496  0.0837
 7525SOL    HW123474   2.126   2.585   1.657 -0.9942  0.1838 -0.0013
 7525SOL    HW223475   2.151   2.744   1.629  0.2991 -0.2919 -1.7059
 7526SOL     OW23476   5.143   0.307   3.453 -0.2786  0.2808 -0.1442
 7526SOL    HW123477   5.210   0.280   3.383  0.2724  1.2698 -0.0180
 7526SOL    HW223478   5.160   0.256   3.537 -0.2399 -0.1064 -0.3845
 7527SOL     OW23479   5.831   1.906   4.510 -0.2987  0.2230 -0.0469
 7527SOL    HW123480   5.863   1.845   4.582 -0.3348 -0.9293 -0.9636
 7527SOL    HW223481   5.739   1.878   4.482  0.5036 -0.7437 -1.9621
 7528SOL     OW23482   2.654   5.545   4.192  0.3088 -0.2033 -0.2742
 7528SOL    HW123483   2.665   5.616   4.262  1.2163 -0.9627  0.3629
 7528SOL    HW223484   2.635   5.589   4.104 -1.9919  0.7468  0.6105
 7529SOL     OW23485   2.026   1.528   2.101 -0.0495  0.2359 -0.4896
 7529SOL    HW123486   1.994   1.604   2.045  1.3767  0.9514 -0.3885
 7529SOL    HW223487   2.123   1.539   2.120 -0.2848 -0.4401  1.3881
 7530SOL     OW23488   5.832   6.719   2.243  0.0738 -0.1719  0.1683
 7530SOL    HW123489   5.932   6.730   2.242  0.0043  0.7359  0.9506
 7530SOL    HW223490   5.789   6.809   2.248 -0.8599 -0.4374 -2.0427
 7531SOL     OW23491   2.164   2.873   0.755  0.3324  0.3798 -0.3376
 7531SOL    HW123492   2.235   2.873   0.685 -1.4812  1.7410 -2.3241
 7531SOL    HW223493   2.128   2.780   0.766  2.4774 -0.3678  0.8702
 7532SOL     OW23494   2.972   6.893   1.760 -0.0922 -0.0527  0.8299
 7532SOL    HW123495   2.923   6.902   1.847  0.0744 -0.2386  0.9439
 7532SOL    HW223496   3.070   6.902   1.776 -0.0303 -0.5441  0.7253
 7533SOL     OW23497   6.947   2.841   3.817  0.3589 -0.5643 -0.1069
 7533SOL    HW123498   6.875   2.787   3.775 -2.0274  1.2326  1.4295
 7533SOL    HW223499   6.943   2.831   3.917  0.5101  1.5670  0.1579
 7534SOL     OW23500   2.006   1.143   5.409 -1.0129 -0.5790 -0.3983
 7534SOL    HW123501   2.034   1.206   5.337 -0.6631 -1.1071 -0.7371
 7534SOL    HW223502   2.088   1.099   5.448 -1.2921 -1.3521 -0.6679
 7535SOL     OW23503   3.871   1.957   6.552  0.1912  0.0651 -0.1556
 7535SOL    HW123504   3.799   2.026   6.561 -0.5980 -0.6075 -1.0611
 7535SOL    HW223505   3.831   1.866   6.565  0.8841 -0.3054 -0.5800
 7536SOL     OW23506   1.328   1.502   5.683 -0.3018 -0.1386 -0.4202
 7536SOL    HW123507   1.319   1.403   5.672  0.1609 -0.9527  4.4679
 7536SOL    HW223508   1.423   1.524   5.703 -0.8124  0.9305  0.9298
 7537SOL     OW23509   5.972   6.210   6.946 -0.3279  0.3451 -0.6134
 7537SOL    HW123510   6.041   6.249   7.006 -1.1541 -0.1087  0.6833
 7537SOL    HW223511   5.991   6.113   6.933 -1.6859 -0.2390  1.2834
 7538SOL     OW23512   6.328   3.085   0.072  0.3442 -0.1372 -0.1202
 7538SOL    HW123513   6.403   3.025   0.044  1.6183  0.3296  1.9963
 7538SOL    HW223514   6.367   3.168   0.114 -1.3686  0.5312  0.2155
 7539SOL     OW23515   3.574   0.940   3.399  0.1326  0.4861 -0.2157
 7539SOL    HW123516   3.507   0.889   3.453  1.3371 -2.4828 -1.3109
 7539SOL    HW223517   3.534   0.965   3.311  0.0559 -0.2596 -0.4049
 7540SOL     OW23518   3.731   6.622   0.368  0.5501  0.2069 -0.7135
 7540SOL    HW123519   3.737   6.700   0.305  2.9087  0.8147  0.1802
 7540SOL    HW223520   3.796   6.634   0.442 -0.5835 -1.6048  0.6485
 7541SOL     OW23521   4.044   1.379   4.764 -0.4242 -0.8551  0.3373
 7541SOL    HW123522   4.129   1.397   4.713 -0.4444  0.7208  0.7986
 7541SOL    HW223523   4.043   1.436   4.846 -0.8077 -2.6775  1.6629
 7542SOL     OW23524   6.063   6.784   2.537 -0.2267 -0.6954  0.3942
 7542SOL    HW123525   6.079   6.703   2.481  0.0947 -2.0381  2.3187
 7542SOL    HW223526   5.964   6.798   2.547 -0.3552 -2.3534  1.9953
 7543SOL     OW23527   2.554   0.692   5.469  0.0933 -0.6092 -0.3938
 7543SOL    HW123528   2.509   0.756   5.531 -1.3323  0.1535 -2.1211
 7543SOL    HW223529   2.619   0.741   5.411 -2.0946 -0.3068 -2.7644
 7544SOL     OW23530   5.524   2.392   4.341 -0.4973 -0.4736  0.0805
 7544SOL    HW123531   5.561   2.300   4.355 -0.8754 -0.6218  0.1199
 7544SOL    HW223532   5.581   2.459   4.389  0.5823 -0.5295 -1.0727
 7545SOL     OW23533   4.419   6.185   4.689 -0.1477 -0.0799  0.8100
 7545SOL    HW123534   4.374   6.147   4.608  0.6444  1.1980 -0.2658
 7545SOL    HW223535   4.351   6.200   4.761 -1.4088  1.3966 -0.6149
 7546SOL     OW23536   6.601   6.766   3.988  0.2817 -0.2541  0.8840
 7546SOL    HW123537   6.630   6.820   4.067  0.4433  1.2167 -0.1397
 7546SOL    HW223538   6.566   6.827   3.917  2.2107 -1.2754 -1.0834
 7547SOL     OW23539   3.248   1.634   0.903 -0.3065  0.1159  0.7162
 7547SOL    HW123540   3.241   1.673   0.994 -0.4674 -0.6493  1.0339
 7547SOL    HW223541   3.340   1.650   0.867  0.2330 -0.8844  1.6133
 7548SOL     OW23542   0.148   1.957   6.450 -0.5803  0.2652  0.1256
 7548SOL    HW123543   0.220   1.902   6.493 -0.7962 -0.2135 -0.1159
 7548SOL    HW223544   0.149   2.049   6.489 -0.2069  0.0958  0.5308
 7549SOL     OW23545   3.470   3.540   3.911  0.1501  0.1287 -0.0676
 7549SOL    HW123546   3.504   3.473   3.976 -1.8066  0.1657  1.0601
 7549SOL    HW223547   3.514   3.628   3.928  0.0171  0.0203  0.8975
 7550SOL     OW23548   5.642   6.691   3.406 -0.0397 -0.2191  0.0633
 7550SOL    HW123549   5.552   6.688   3.364 -0.1614  0.2466  0.2842
 7550SOL    HW223550   5.692   6.771   3.372 -0.2142  0.2768  0.9427
 7551SOL     OW23551   6.617   5.744   6.050 -0.5552  0.0067 -0.0887
 7551SOL    HW123552   6.590   5.669   5.989  1.2105 -0.4114 -0.4236
 7551SOL    HW223553   6.640   5.824   5.995 -2.0353  0.6811  0.2469
 7552SOL     OW23554   4.361   4.911   1.113 -0.0300 -0.8782  0.0932
 7552SOL    HW123555   4.401   4.998   1.084  0.4839 -1.0343  0.3194
 7552SOL    HW223556   4.434   4.846   1.136 -0.4073 -0.7727  1.7286
 7553SOL     OW23557   5.872   1.028   6.040  0.2537  0.1463 -0.1597
 7553SOL    HW123558   5.921   1.053   6.124 -0.6399  0.2670  0.3376
 7553SOL    HW223559   5.811   0.952   6.059  0.6168 -0.3391 -0.9033
 7554SOL     OW23560   3.244   1.732   5.523 -0.4779  0.1140  0.0210
 7554SOL    HW123561   3.201   1.820   5.503 -1.3801 -0.3051  0.0502
 7554SOL    HW223562   3.281   1.692   5.439 -0.4050  0.3504 -0.0582
 7555SOL     OW23563   6.167   4.949   6.598  0.2792 -0.6733  0.4679
 7555SOL    HW123564   6.126   4.900   6.675  2.7105 -1.8980  1.0881
 7555SOL    HW223565   6.233   5.016   6.632  0.2171 -0.0885 -0.5121
 7556SOL     OW23566   4.625   4.511   0.795  0.0945 -0.8146 -0.1284
 7556SOL    HW123567   4.576   4.575   0.854 -0.1289  0.9173 -2.0649
 7556SOL    HW223568   4.560   4.461   0.738  0.2318 -3.2132  1.6623
 7557SOL     OW23569   3.779   5.222   6.808 -0.0339 -0.6277 -0.1441
 7557SOL    HW123570   3.783   5.215   6.708  0.9953 -0.1679 -0.1552
 7557SOL    HW223571   3.708   5.161   6.843 -0.7579 -0.4103 -1.1906
 7558SOL     OW23572   4.591   5.774   4.945 -0.1048  0.1354  0.5492
 7558SOL    HW123573   4.652   5.816   5.012  2.1500 -1.2111 -0.5426
 7558SOL    HW223574   4.602   5.820   4.856  1.1261 -1.5562 -0.2330
 7559SOL     OW23575   3.070   0.069   5.865  0.3043  0.2062  1.0238
 7559SOL    HW123576   3.082   0.165   5.892 -0.7809  0.6212  0.1176
 7559SOL    HW223577   3.086   0.010   5.944  0.5465  1.1637  1.7088
 7560SOL     OW23578   3.612   6.017   2.246 -0.2377  0.7233 -0.4049
 7560SOL    HW123579   3.639   6.105   2.286  2.0181  0.3769 -1.0024
 7560SOL    HW223580   3.550   5.969   2.308 -0.5433  2.1932  0.4808
 7561SOL     OW23581   6.548   4.472   3.934 -0.0528 -0.4854 -0.0583
 7561SOL    HW123582   6.460   4.513   3.957  0.3914  1.2761 -1.2918
 7561SOL    HW223583   6.583   4.421   4.012 -2.8429 -2.5398 -0.0144
 7562SOL     OW23584   6.191   4.032   0.424  0.1413 -0.4591  0.1315
 7562SOL    HW123585   6.241   4.061   0.505  1.2522 -0.9012 -0.3777
 7562SOL    HW223586   6.162   4.112   0.372 -0.7307 -0.1646  1.0301
 7563SOL     OW23587   4.831   5.662   1.971  0.2627 -0.0598  0.5465
 7563SOL    HW123588   4.785   5.749   1.955 -1.5757 -1.0351  0.2772
 7563SOL    HW223589   4.807   5.598   1.898  0.6253 -1.1550  1.3611
 7564SOL     OW23590   6.388   6.299   5.062  0.4926 -0.2341 -0.2770
 7564SOL    HW123591   6.424   6.268   5.150  0.6895 -0.0843 -0.3022
 7564SOL    HW223592   6.441   6.378   5.031 -0.4440  0.5653  0.1232
 7565SOL     OW23593   6.133   5.225   1.816  0.2442  0.0205  0.1931
 7565SOL    HW123594   6.106   5.169   1.738  0.1265  0.6841 -0.2441
 7565SOL    HW223595   6.232   5.217   1.829  0.3236  0.2252 -0.2710
 7566SOL     OW23596   6.504   1.887   6.563 -0.2472 -0.4313  0.0993
 7566SOL    HW123597   6.529   1.964   6.623  0.1537  0.2182 -0.8806
 7566SOL    HW223598   6.439   1.828   6.611  0.1039  0.0379  1.2008
 7567SOL     OW23599   0.859   2.152   3.832  0.5555 -0.1175  0.6505
 7567SOL    HW123600   0.768   2.173   3.866  0.9286  0.7079  1.1858
 7567SOL    HW223601   0.927   2.172   3.903  1.3431  1.4356 -0.4697
 7568SOL     OW23602   2.826   0.442   1.774 -0.0646  0.1773  0.3004
 7568SOL    HW123603   2.763   0.495   1.717 -0.2138 -0.8754 -0.5451
 7568SOL    HW223604   2.795   0.347   1.778  0.4034  0.0608  1.4890
 7569SOL     OW23605   0.781   5.077   4.810 -0.0613  0.5213  1.0282
 7569SOL    HW123606   0.766   5.127   4.896 -0.7445 -0.8785  1.7481
 7569SOL    HW223607   0.794   4.980   4.829  0.1163  0.2325 -0.4364
 7570SOL     OW23608   0.285   2.285   1.156  0.5106 -0.0908  0.2201
 7570SOL    HW123609   0.288   2.212   1.224 -0.3878  1.0172  1.4858
 7570SOL    HW223610   0.287   2.245   1.064  1.2319 -1.6346  0.8724
 7571SOL     OW23611   1.857   1.721   0.325  0.3322  0.3845 -0.4622
 7571SOL    HW123612   1.760   1.695   0.328  0.6736 -0.9442 -0.5447
 7571SOL    HW223613   1.866   1.817   0.353 -0.8630  0.1727  0.7467
 7572SOL     OW23614   4.550   4.387   3.750  0.1615 -0.0304 -0.1124
 7572SOL    HW123615   4.617   4.324   3.790  1.6505  1.2765 -0.4707
 7572SOL    HW223616   4.538   4.466   3.811 -1.5734 -0.5271  0.2568
 7573SOL     OW23617   6.998   0.115   3.633  0.6694  0.3086  0.4627
 7573SOL    HW123618   7.010   0.205   3.675  1.1052  0.4554  0.0387
 7573SOL    HW223619   6.922   0.118   3.569  0.0022  0.0836  1.2358
 7574SOL     OW23620   3.051   1.792   5.259  0.7983  0.2911 -0.3000
 7574SOL    HW123621   3.051   1.892   5.255  0.3337  0.3630  0.9688
 7574SOL    HW223622   3.138   1.758   5.223  1.1103  1.1680 -0.4202
 7575SOL     OW23623   1.880   1.274   5.626  0.0811 -0.0588  0.1096
 7575SOL    HW123624   1.921   1.225   5.549  0.3881  0.0754  0.1834
 7575SOL    HW223625   1.851   1.365   5.596  0.5296  0.1271  0.2370
 7576SOL     OW23626   1.555   3.564   4.131  0.0841 -0.2385  0.7533
 7576SOL    HW123627   1.530   3.626   4.057  1.1634  1.2610  1.5974
 7576SOL    HW223628   1.654   3.557   4.137  0.0851  0.9870  3.0668
 7577SOL     OW23629   2.554   5.490   6.787  0.6613 -0.1598 -0.4803
 7577SOL    HW123630   2.512   5.551   6.854 -0.5913  0.3419 -1.6703
 7577SOL    HW223631   2.643   5.526   6.760  1.0505 -0.2172  0.6804
 7578SOL     OW23632   4.348   5.291   6.577  0.3617  0.4196 -0.7412
 7578SOL    HW123633   4.425   5.256   6.631  0.9467  3.7864  0.8593
 7578SOL    HW223634   4.290   5.347   6.634 -1.7759  0.2471 -2.6088
 7579SOL     OW23635   1.738   1.670   2.539  0.2595  0.2654  0.3034
 7579SOL    HW123636   1.795   1.645   2.618 -1.0860  1.0532  1.5904
 7579SOL    HW223637   1.752   1.767   2.517 -1.3916  0.8088  1.4229
 7580SOL     OW23638   5.617   3.895   0.375  0.4478  0.2369  0.1687
 7580SOL    HW123639   5.535   3.846   0.402 -0.7257  0.2586 -2.9722
 7580SOL    HW223640   5.597   3.993   0.368  0.4626  0.1591 -1.3325
 7581SOL     OW23641   4.002   1.117   0.372 -0.1214  0.0255 -0.2233
 7581SOL    HW123642   3.950   1.192   0.412 -0.4310  0.0508 -0.6786
 7581SOL    HW223643   3.958   1.030   0.394 -2.0440  0.1688 -3.0175
 7582SOL     OW23644   1.163   4.328   1.577  0.2061  0.2352  0.0334
 7582SOL    HW123645   1.097   4.402   1.588  0.2272  0.0944  1.2405
 7582SOL    HW223646   1.218   4.343   1.494 -0.7512  0.7986 -0.5116
 7583SOL     OW23647   2.490   3.001   6.303 -0.2375 -0.1415  0.5791
 7583SOL    HW123648   2.521   3.096   6.304  2.6836 -0.9625 -0.8646
 7583SOL    HW223649   2.471   2.970   6.396 -0.7002  1.6520  1.1083
 7584SOL     OW23650   2.096   6.710   3.987  0.6675  0.1902 -0.1020
 7584SOL    HW123651   2.099   6.725   4.086 -0.7243 -0.6648  0.0906
 7584SOL    HW223652   2.187   6.725   3.949  1.4295 -0.2912  1.4326
 7585SOL     OW23653   6.665   1.064   4.570  0.0826 -0.0730  0.3445
 7585SOL    HW123654   6.579   1.040   4.524 -0.9465  0.2968  1.9712
 7585SOL    HW223655   6.706   0.981   4.609 -0.3998 -0.0361  0.9474
 7586SOL     OW23656   2.014   4.957   5.719  0.5099 -0.4319 -0.1206
 7586SOL    HW123657   1.949   4.963   5.794 -0.3619 -0.1855 -0.8850
 7586SOL    HW223658   2.099   5.004   5.745 -0.2363  0.7596  0.2353
 7587SOL     OW23659   2.338   1.846   3.648 -0.3601  0.4184  0.0775
 7587SOL    HW123660   2.281   1.888   3.577 -1.0383 -0.2467  0.2089
 7587SOL    HW223661   2.406   1.788   3.605  0.2939  1.2925 -0.0859
 7588SOL     OW23662   2.958   4.318   1.271  0.2088 -0.3850  0.1786
 7588SOL    HW123663   3.014   4.389   1.228 -0.6701  0.4592  0.3686
 7588SOL    HW223664   2.929   4.350   1.362 -0.6230 -0.7663  0.0580
 7589SOL     OW23665   2.565   4.560   1.893  0.0575  1.0990 -0.3930
 7589SOL    HW123666   2.581   4.577   1.796  2.3805  1.8692  0.0719
 7589SOL    HW223667   2.651   4.566   1.943 -0.9397 -0.1882  1.6135
 7590SOL     OW23668   1.612   2.816   5.316 -0.4057 -0.3356 -0.2401
 7590SOL    HW123669   1.616   2.876   5.237  2.2578  0.2228  0.2477
 7590SOL    HW223670   1.704   2.784   5.340 -0.9580  0.1793  3.1320
 7591SOL     OW23671   1.958   3.964   6.114 -0.0372 -0.2150 -0.0295
 7591SOL    HW123672   1.980   4.011   6.028 -0.1137 -2.2258 -1.2303
 7591SOL    HW223673   2.032   3.901   6.137 -0.6482 -0.7248  0.5934
 7592SOL     OW23674   2.415   1.753   6.656  0.3015 -0.4525 -0.2037
 7592SOL    HW123675   2.456   1.663   6.653  0.3210 -0.6998  3.1850
 7592SOL    HW223676   2.316   1.745   6.643  0.2457 -1.0472  0.5325
 7593SOL     OW23677   6.656   2.131   5.381 -0.2672 -0.1444  0.8035
 7593SOL    HW123678   6.734   2.071   5.395  1.5694  1.9570  0.0653
 7593SOL    HW223679   6.583   2.081   5.335  1.6554 -1.5098 -0.9265
 7594SOL     OW23680   0.216   6.268   6.393 -0.1421  0.1477 -0.3602
 7594SOL    HW123681   0.245   6.353   6.436  0.3704 -0.3425  0.2807
 7594SOL    HW223682   0.122   6.247   6.420  0.1832 -0.1688  0.5717
 7595SOL     OW23683   4.075   4.369   5.347  0.3676 -0.2026  0.6712
 7595SOL    HW123684   4.021   4.453   5.346 -0.7858 -0.9182  0.5451
 7595SOL    HW223685   4.165   4.387   5.308 -0.4892  0.5808 -1.0952
 7596SOL     OW23686   1.183   6.054   5.109  0.3674 -0.0980  0.3888
 7596SOL    HW123687   1.235   5.985   5.160  0.4638 -0.7185 -0.5264
 7596SOL    HW223688   1.245   6.109   5.054  0.1313 -0.4035 -0.1944
 7597SOL     OW23689   3.548   6.207   3.140  0.2739  0.2132  0.2774
 7597SOL    HW123690   3.571   6.201   3.043  1.1257 -0.4698  0.5040
 7597SOL    HW223691   3.587   6.291   3.179  2.8639 -1.0744  0.7304
 7598SOL     OW23692   5.548   5.268   2.274  0.1656  0.1490 -0.7909
 7598SOL    HW123693   5.592   5.352   2.243  0.1499  0.4258 -0.0575
 7598SOL    HW223694   5.587   5.239   2.361 -0.1075 -0.3880 -0.8396
 7599SOL     OW23695   6.743   4.753   5.571  0.3509 -0.6446 -0.1563
 7599SOL    HW123696   6.780   4.664   5.543  1.1951 -0.4561  0.3139
 7599SOL    HW223697   6.648   4.760   5.542  0.8523 -0.8873 -2.0077
 7600SOL     OW23698   6.324   6.269   0.986 -0.5571  0.3926  0.0174
 7600SOL    HW123699   6.255   6.261   1.058 -1.2388 -0.2671 -0.6850
 7600SOL    HW223700   6.338   6.180   0.943  0.7496  0.5191  0.1427
 7601SOL     OW23701   5.461   5.035   3.856  0.8026  0.1047 -0.0624
 7601SOL    HW123702   5.551   5.041   3.897  1.0031  0.3436 -0.5234
 7601SOL    HW223703   5.462   4.969   3.781  0.7375  0.5021 -0.4176
 7602SOL     OW23704   0.090   2.615   5.894 -0.2466  0.5986  0.2637
 7602SOL    HW123705   0.027   2.586   5.821 -1.1085  1.5443  0.6099
 7602SOL    HW223706   0.167   2.552   5.898 -0.0062  0.7130 -1.6845
 7603SOL     OW23707   5.280   5.284   6.065 -0.3451 -0.5057  0.4372
 7603SOL    HW123708   5.369   5.245   6.040 -0.2787 -1.8842  2.5679
 7603SOL    HW223709   5.210   5.247   6.004  0.4870  0.6786 -1.3418
 7604SOL     OW23710   3.112   0.045   6.160  0.4310 -0.8261 -0.9102
 7604SOL    HW123711   3.157   0.008   6.241 -1.2664 -2.1500 -0.5187
 7604SOL    HW223712   3.056  -0.026   6.117 -0.9479  0.6117 -1.6027
 7605SOL     OW23713   0.257   5.086   3.098  0.3379  0.2057 -0.3412
 7605SOL    HW123714   0.283   4.995   3.066  0.0278  0.3100 -0.9179
 7605SOL    HW223715   0.222   5.080   3.191  0.6541 -0.2130 -0.2466
 7606SOL     OW23716   6.917   2.332   2.377  0.6456  0.1705  0.3201
 7606SOL    HW123717   6.934   2.428   2.395  0.2743  0.3371 -0.2036
 7606SOL    HW223718   7.005   2.283   2.369  0.8589  0.6693 -0.4966
 7607SOL     OW23719   2.000   4.389   1.834  0.3927  0.1163 -0.3228
 7607SOL    HW123720   2.000   4.411   1.736  1.6804 -1.0157 -0.6012
 7607SOL    HW223721   2.057   4.309   1.850 -0.4264 -0.1728  1.2732
 7608SOL     OW23722   6.647   1.384   2.736 -0.1111 -0.4935 -0.2321
 7608SOL    HW123723   6.639   1.366   2.638  0.7602 -1.0491 -0.2205
 7608SOL    HW223724   6.577   1.332   2.785  2.0571 -3.7939 -0.2428
 7609SOL     OW23725   5.086   0.621   1.905  0.0883  0.4449  0.4984
 7609SOL    HW123726   5.040   0.642   1.819 -1.0985 -1.2594  0.6591
 7609SOL    HW223727   5.023   0.636   1.981  0.3497 -0.2955  0.8717
 7610SOL     OW23728   6.272   1.504   0.009  0.0922 -0.3486  0.6696
 7610SOL    HW123729   6.242   1.593  -0.024 -0.0820 -0.6850 -0.0983
 7610SOL    HW223730   6.239   1.433  -0.052  1.5031 -0.8219  0.4254
 7611SOL     OW23731   2.079   3.990   4.850 -0.2863 -0.3901  0.0979
 7611SOL    HW123732   2.103   4.039   4.766  1.2921 -3.5781 -1.5160
 7611SOL    HW223733   2.161   3.979   4.907 -0.6152 -1.0378  0.4603
 7612SOL     OW23734   4.323   4.921   1.444 -0.1289 -0.4337 -0.1465
 7612SOL    HW123735   4.279   4.835   1.417  0.9070 -0.9383 -0.2783
 7612SOL    HW223736   4.393   4.946   1.376 -0.3555  0.4734 -0.0662
 7613SOL     OW23737   4.291   1.317   1.004  0.5776 -0.2240 -0.4485
 7613SOL    HW123738   4.237   1.253   1.059  0.7211  0.4714  0.5147
 7613SOL    HW223739   4.282   1.293   0.907 -0.9477 -0.5029 -0.2640
 7614SOL     OW23740   6.100   3.940   2.672  0.2628 -0.0089 -0.1403
 7614SOL    HW123741   6.056   3.946   2.761  1.3616 -0.5652  0.4576
 7614SOL    HW223742   6.147   4.026   2.651  0.8372 -0.2203  0.2703
 7615SOL     OW23743   3.989   6.656   6.214  0.1227 -0.3511  0.1589
 7615SOL    HW123744   3.936   6.584   6.260  1.1779 -1.2833 -0.0595
 7615SOL    HW223745   3.998   6.635   6.117  3.0516 -1.6111  0.6016
 7616SOL     OW23746   4.977   6.447   4.242  0.3290 -0.4306 -0.3379
 7616SOL    HW123747   5.014   6.485   4.327  1.5292 -1.1384 -0.5230
 7616SOL    HW223748   4.880   6.469   4.235  0.5439  0.8775  0.5134
 7617SOL     OW23749   3.167   6.533   1.880 -0.0986 -1.2011 -0.4176
 7617SOL    HW123750   3.261   6.501   1.867  1.4198  3.1558 -2.1071
 7617SOL    HW223751   3.149   6.546   1.977  0.3983 -3.6061  0.0427
 7618SOL     OW23752   3.624   6.488   3.215  0.4123 -0.2049  0.2514
 7618SOL    HW123753   3.616   6.446   3.306 -0.1152 -1.3969 -0.3167
 7618SOL    HW223754   3.713   6.532   3.206 -0.6664  2.8009  2.4921
 7619SOL     OW23755   4.375   6.081   0.448  0.2791  0.5571 -0.8535
 7619SOL    HW123756   4.367   6.176   0.479  0.1503  0.5651 -0.9098
 7619SOL    HW223757   4.325   6.021   0.510  0.3773  0.5234 -0.8072
 7620SOL     OW23758   4.632   0.151   2.497 -0.1299  0.6905 -0.2845
 7620SOL    HW123759   4.607   0.236   2.450  0.9949  0.9400 -0.4502
 7620SOL    HW223760   4.728   0.130   2.480 -0.0354  0.1064  0.8758
 7621SOL     OW23761   3.816   5.911   0.141  0.7678  0.0086  0.1462
 7621SOL    HW123762   3.808   5.991   0.082  0.9416 -0.9479 -1.2217
 7621SOL    HW223763   3.753   5.920   0.218  0.5857  1.3214 -0.1354
 7622SOL     OW23764   6.025   6.866   4.929 -0.3004 -0.2631  0.1117
 7622SOL    HW123765   6.124   6.879   4.930 -0.2892 -0.3667  0.8982
 7622SOL    HW223766   6.001   6.796   4.861  0.2452 -0.7957  0.4611
 7623SOL     OW23767   1.312   6.241   0.549 -0.0187  0.6523  0.2326
 7623SOL    HW123768   1.234   6.201   0.502  0.8928 -0.0735 -0.7174
 7623SOL    HW223769   1.280   6.309   0.615 -1.4074  0.8029 -0.5539
 7624SOL     OW23770   5.323   3.235   2.342  0.0148  0.3717  0.1988
 7624SOL    HW123771   5.318   3.322   2.392  0.7405  0.1528  0.6613
 7624SOL    HW223772   5.418   3.218   2.314  0.0036 -0.5916  0.6955
 7625SOL     OW23773   1.142   3.795   5.264 -0.5854 -0.1739 -0.0014
 7625SOL    HW123774   1.119   3.702   5.237  0.1454 -0.4919  0.4336
 7625SOL    HW223775   1.112   3.859   5.192 -1.3126 -0.7121 -0.1828
 7626SOL     OW23776   5.400   2.146   1.742  0.0246 -0.2710 -0.4075
 7626SOL    HW123777   5.438   2.205   1.813 -1.1029 -0.1787  0.1539
 7626SOL    HW223778   5.454   2.154   1.658  1.2944 -0.2759  0.3911
 7627SOL     OW23779   4.373   3.641   6.323  0.1684  0.1473 -0.6285
 7627SOL    HW123780   4.321   3.671   6.404  0.3070  1.4946 -1.0198
 7627SOL    HW223781   4.471   3.652   6.340  0.3078 -1.4436 -0.2655
 7628SOL     OW23782   6.203   6.347   5.467  0.3316 -0.1784 -0.4526
 7628SOL    HW123783   6.107   6.343   5.439  0.3969  0.0156 -0.7137
 7628SOL    HW223784   6.256   6.394   5.396  0.3641  1.0454  0.3514
 7629SOL     OW23785   1.528   2.783   1.926 -0.1000  0.1002  0.8960
 7629SOL    HW123786   1.617   2.825   1.942 -0.6509  1.0803  1.5588
 7629SOL    HW223787   1.537   2.708   1.861  0.6726  2.4342 -1.9187
 7630SOL     OW23788   3.674   4.709   0.193  0.4597  0.1897 -0.1274
 7630SOL    HW123789   3.590   4.660   0.169 -0.3450  0.6493  1.6219
 7630SOL    HW223790   3.734   4.650   0.247  0.7411  0.2391 -0.3826
 7631SOL     OW23791   5.997   3.097   0.970  0.1733  0.1100 -0.3521
 7631SOL    HW123792   6.050   3.126   0.889 -0.1095 -2.4777 -1.5673
 7631SOL    HW223793   6.052   3.033   1.024 -0.1411  0.8010  0.8034
 7632SOL     OW23794   5.408   5.171   2.066 -0.1970 -0.4693  0.1293
 7632SOL    HW123795   5.330   5.219   2.107  0.4364  0.8171 -0.1452
 7632SOL    HW223796   5.487   5.178   2.126  0.4499  0.5423 -0.8046
 7633SOL     OW23797   2.619   6.073   4.707 -0.3468 -0.2397  0.1787
 7633SOL    HW123798   2.662   6.011   4.773 -2.9831 -1.3549  0.9667
 7633SOL    HW223799   2.663   6.063   4.618  0.6044 -1.7643  0.7900
 7634SOL     OW23800   2.155   5.731   5.856  1.0699  0.1625 -0.3855
 7634SOL    HW123801   2.227   5.792   5.825  1.8791 -0.5202  0.0788
 7634SOL    HW223802   2.080   5.784   5.896  0.0755  1.0470 -3.2294
 7635SOL     OW23803   2.212   2.579   3.221  0.4200 -0.3508 -0.0845
 7635SOL    HW123804   2.259   2.658   3.260 -0.0347 -0.5389  0.8647
 7635SOL    HW223805   2.141   2.548   3.284 -0.0102 -0.9606 -0.8558
 7636SOL     OW23806   0.801   5.158   4.326 -0.3245 -0.1809  0.6158
 7636SOL    HW123807   0.733   5.156   4.400  0.6995  1.0937  1.6452
 7636SOL    HW223808   0.811   5.066   4.288 -2.9810 -0.3322  0.0403
 7637SOL     OW23809   5.588   4.637   4.546  0.4146 -0.4637  0.3343
 7637SOL    HW123810   5.617   4.551   4.503 -0.3915 -0.0926 -0.9877
 7637SOL    HW223811   5.526   4.686   4.486  0.4523  0.8261  1.2904
 7638SOL     OW23812   4.710   4.223   2.635  0.1623  0.4725  0.1862
 7638SOL    HW123813   4.652   4.287   2.687 -2.4422 -1.4281 -0.1595
 7638SOL    HW223814   4.785   4.273   2.593 -1.5191  3.2409  0.2344
 7639SOL     OW23815   4.637   0.580   0.105 -0.4252 -0.1680  0.5187
 7639SOL    HW123816   4.700   0.612   0.035  0.2413  1.2585  1.6978
 7639SOL    HW223817   4.545   0.615   0.087 -0.4326 -0.4695 -0.0463
 7640SOL     OW23818   3.544   0.966   2.767  0.2160  1.1802  0.0883
 7640SOL    HW123819   3.474   0.934   2.703 -0.5843 -0.4364  1.6980
 7640SOL    HW223820   3.521   1.059   2.796 -0.7821  1.0027 -0.0773
 7641SOL     OW23821   4.101   1.445   6.031  0.4752 -0.1774  0.7883
 7641SOL    HW123822   4.165   1.468   6.105  1.4151 -0.2174  0.0091
 7641SOL    HW223823   4.102   1.518   5.962 -1.5129  0.5842  1.5027
 7642SOL     OW23824   3.307   5.518   1.694 -0.8083 -0.3147 -0.3868
 7642SOL    HW123825   3.306   5.541   1.597 -0.7467 -1.4864 -0.6850
 7642SOL    HW223826   3.282   5.422   1.706 -0.6952 -0.2233  0.7493
 7643SOL     OW23827   5.102   0.996   6.903  0.1059 -0.1665  0.7433
 7643SOL    HW123828   5.171   0.964   6.969 -0.1698 -0.0236  1.1014
 7643SOL    HW223829   5.012   0.965   6.932 -0.2598  1.4821  1.4613
 7644SOL     OW23830   4.881   2.811   6.990  0.2950 -0.6881 -0.3457
 7644SOL    HW123831   4.781   2.809   6.983  0.3511  0.1463 -1.7542
 7644SOL    HW223832   4.911   2.905   7.009  0.8842 -0.5253 -1.9183
 7645SOL     OW23833   0.662   1.038   3.569 -0.1225 -0.1120 -0.1059
 7645SOL    HW123834   0.735   1.024   3.503 -0.6681  0.3282 -0.8189
 7645SOL    HW223835   0.642   0.952   3.617  0.8949 -0.2160  0.1375
 7646SOL     OW23836   4.521   3.002   1.513 -0.3561  0.3761 -0.2227
 7646SOL    HW123837   4.477   3.004   1.423  0.5277  1.3847 -0.6543
 7646SOL    HW223838   4.563   2.912   1.527 -1.3659 -0.1404 -0.3628
 7647SOL     OW23839   0.921   2.076   2.193  0.0046 -0.3825  0.0341
 7647SOL    HW123840   0.966   2.122   2.117 -1.4466  1.1181  0.0208
 7647SOL    HW223841   0.830   2.046   2.165 -0.4066 -0.1480  1.0425
 7648SOL     OW23842   6.048   2.370   6.302  0.0013  0.0753 -0.4436
 7648SOL    HW123843   5.998   2.455   6.320  0.7738  0.3282  0.5961
 7648SOL    HW223844   6.005   2.295   6.351 -0.5879 -0.1141 -1.2359
 7649SOL     OW23845   2.303   6.500   6.210 -0.1663  0.0617 -0.4647
 7649SOL    HW123846   2.220   6.466   6.256  0.5813 -1.8069 -0.3937
 7649SOL    HW223847   2.336   6.581   6.258 -1.1849  0.0140  0.3666
 7650SOL     OW23848   1.347   3.945   5.124 -0.3112  0.2562 -0.1954
 7650SOL    HW123849   1.438   3.958   5.165 -0.4101  1.3140 -0.2758
 7650SOL    HW223850   1.299   3.872   5.173  0.7738 -0.6934 -0.5033
 7651SOL     OW23851   2.866   2.159   6.296  0.3298 -0.5683 -0.0020
 7651SOL    HW123852   2.769   2.156   6.322 -0.1691 -0.0424 -1.6988
 7651SOL    HW223853   2.885   2.245   6.249  1.4866 -0.9448 -0.2551
 7652SOL     OW23854   0.476   5.677   0.999  0.3795  0.4361 -0.2513
 7652SOL    HW123855   0.525   5.764   0.994  0.2475  0.5061 -0.3364
 7652SOL    HW223856   0.533   5.604   0.961  1.6461 -0.0315  2.3000
 7653SOL     OW23857   3.990   4.328   1.226 -0.1059 -0.1478 -0.2786
 7653SOL    HW123858   3.896   4.327   1.259 -0.9621  2.4419 -2.2871
 7653SOL    HW223859   4.051   4.292   1.296 -2.5176 -1.6128  1.1913
 7654SOL     OW23860   4.314   0.317   4.362  0.0195 -0.3509  0.3133
 7654SOL    HW123861   4.293   0.310   4.460  0.1950  1.5653  0.5452
 7654SOL    HW223862   4.380   0.246   4.337  0.4433 -0.5034  1.7394
 7655SOL     OW23863   2.615   4.285   5.677  0.0755  0.6961  0.3873
 7655SOL    HW123864   2.652   4.353   5.614 -0.2750 -0.0171 -0.6174
 7655SOL    HW223865   2.528   4.251   5.643  1.3782 -2.0573 -0.4984
 7656SOL     OW23866   5.058   6.555   0.610  0.3549 -0.2512  0.2958
 7656SOL    HW123867   5.021   6.516   0.525 -0.1628  0.8590 -0.0105
 7656SOL    HW223868   4.993   6.538   0.685  0.9153 -1.4267  0.5373
 7657SOL     OW23869   1.159   6.713   2.097 -0.3329 -0.1679  0.1321
 7657SOL    HW123870   1.159   6.764   2.011 -1.6604 -0.0569  0.1821
 7657SOL    HW223871   1.065   6.697   2.127  0.1025 -0.5881  1.3448
 7658SOL     OW23872   6.803   3.043   2.400  0.2891  0.3050  0.1821
 7658SOL    HW123873   6.769   2.954   2.430  0.7547 -0.0692 -0.3831
 7658SOL    HW223874   6.736   3.085   2.337  0.7792 -0.3611 -0.8051
 7659SOL     OW23875   1.299   4.745   2.970  0.9764  0.0843  0.2909
 7659SOL    HW123876   1.222   4.714   3.026 -0.0541  0.0379 -1.0751
 7659SOL    HW223877   1.316   4.842   2.987 -0.5120  0.5340 -0.5692
 7660SOL     OW23878   1.798   2.371   4.004 -0.4868  0.2706 -0.4962
 7660SOL    HW123879   1.721   2.382   4.066 -0.9109  1.6970 -1.2467
 7660SOL    HW223880   1.815   2.273   3.989  0.3364 -0.1821  2.6938
 7661SOL     OW23881   3.233   1.395   1.246  0.5236 -1.1403 -0.8225
 7661SOL    HW123882   3.223   1.316   1.307 -1.2309 -0.7510 -0.5523
 7661SOL    HW223883   3.309   1.380   1.184  0.7556 -2.6608 -0.2043
 7662SOL     OW23884   5.905   4.786   1.925  0.1195 -0.2596 -0.2383
 7662SOL    HW123885   5.857   4.819   1.844  2.9277 -0.1514 -2.0008
 7662SOL    HW223886   5.946   4.697   1.907  0.1672 -0.6058  1.3685
 7663SOL     OW23887   5.434   4.667   0.120 -0.1253 -0.5104 -0.0966
 7663SOL    HW123888   5.507   4.684   0.053  0.7267  0.7414  1.0950
 7663SOL    HW223889   5.370   4.600   0.082  1.6437 -1.7043 -1.1721
 7664SOL     OW23890   6.033   3.997   4.338 -0.1685  0.3483 -0.0472
 7664SOL    HW123891   5.964   4.067   4.321 -1.5050 -1.2249 -1.5142
 7664SOL    HW223892   5.996   3.928   4.400  1.1442  0.8968  1.4213
 7665SOL     OW23893   0.557   4.156   6.681  0.2921 -0.3456 -0.0665
 7665SOL    HW123894   0.621   4.127   6.611  1.9315  0.7002  0.9485
 7665SOL    HW223895   0.523   4.076   6.731  0.7086 -0.9091 -0.6781
 7666SOL     OW23896   1.370   3.504   5.837  0.5015  0.2569 -0.0424
 7666SOL    HW123897   1.324   3.593   5.838  0.6227  0.3163  0.7652
 7666SOL    HW223898   1.348   3.454   5.921 -1.3251 -1.3959 -1.3944
 7667SOL     OW23899   5.422   5.522   2.932 -0.7486 -0.1017 -0.0187
 7667SOL    HW123900   5.426   5.422   2.944  0.0397 -0.0250  0.5105
 7667SOL    HW223901   5.402   5.565   3.020 -0.7699  0.2226 -0.1805
 7668SOL     OW23902   5.446   5.635   6.363  0.1039 -0.1685  0.3102
 7668SOL    HW123903   5.415   5.629   6.268  0.3571  1.7721  0.0818
 7668SOL    HW223904   5.409   5.557   6.415 -0.4625 -0.9661 -1.2388
 7669SOL     OW23905   6.703   0.213   2.616 -0.2330 -0.4492 -0.0900
 7669SOL    HW123906   6.793   0.255   2.600 -0.9742  0.8576 -0.9316
 7669SOL    HW223907   6.696   0.187   2.712 -0.0360  2.1576  0.7079
 7670SOL     OW23908   6.621   2.807   2.871 -0.7379  0.5547  0.1297
 7670SOL    HW123909   6.533   2.851   2.853 -1.9846 -1.7052  0.3149
 7670SOL    HW223910   6.627   2.783   2.968  0.9220  2.2971  0.5209
 7671SOL     OW23911   4.830   0.101   1.746 -0.0444  0.2437  0.4269
 7671SOL    HW123912   4.895   0.059   1.809 -1.9474 -0.0888  2.2857
 7671SOL    HW223913   4.740   0.107   1.790 -1.0805  1.5069 -1.7013
 7672SOL     OW23914   6.985   3.459   5.680  0.2719  0.4227  0.1950
 7672SOL    HW123915   6.966   3.481   5.776 -0.0452 -0.0820  0.2532
 7672SOL    HW223916   7.073   3.498   5.654  0.8524 -0.2904  1.0029
 7673SOL     OW23917   2.575   2.009   3.840  0.1915 -0.0173  0.1309
 7673SOL    HW123918   2.675   2.002   3.846  0.1071 -1.7929  0.1113
 7673SOL    HW223919   2.549   2.032   3.746  0.6175  2.6462  0.5921
 7674SOL     OW23920   2.227   6.626   0.402 -0.8763 -0.0058  0.1124
 7674SOL    HW123921   2.303   6.654   0.343 -0.8537 -1.5146 -0.6048
 7674SOL    HW223922   2.155   6.695   0.398  0.7776  1.9376  1.5292
 7675SOL     OW23923   5.853   6.084   4.113 -0.3715  0.6668  0.4023
 7675SOL    HW123924   5.915   6.029   4.057  0.1613  0.6386  1.0108
 7675SOL    HW223925   5.791   6.135   4.054  0.3598  0.8486 -0.2204
 7676SOL     OW23926   2.214   5.149   1.048  0.2696  0.0571  0.0750
 7676SOL    HW123927   2.127   5.182   1.084  1.1599 -0.5103  3.0117
 7676SOL    HW223928   2.205   5.054   1.020 -0.5243  0.6097 -1.6960
 7677SOL     OW23929   4.358   6.052   3.524  0.5674  0.7437  1.1633
 7677SOL    HW123930   4.384   6.067   3.428 -3.5131  2.1931  0.0788
 7677SOL    HW223931   4.438   6.022   3.575  3.1610  0.7307 -2.4675
 7678SOL     OW23932   1.844   5.874   1.299 -0.3651 -0.0688 -0.4509
 7678SOL    HW123933   1.749   5.889   1.328 -0.5482  0.8081 -1.4381
 7678SOL    HW223934   1.862   5.927   1.216  1.2241  0.4036  0.1599
 7679SOL     OW23935   5.348   2.359   3.656  0.9296 -0.1090  0.0116
 7679SOL    HW123936   5.371   2.428   3.587 -0.3299  0.6400  0.3086
 7679SOL    HW223937   5.423   2.293   3.663  1.3029  0.0812 -1.7058
 7680SOL     OW23938   1.312   2.017   4.355  0.1275  0.2703 -0.1660
 7680SOL    HW123939   1.284   1.940   4.296 -0.4779  1.8138 -2.0186
 7680SOL    HW223940   1.412   2.021   4.358  0.2061  0.6400 -1.8567
 7681SOL     OW23941   6.936   2.148   2.966  0.4240  0.0154 -0.1882
 7681SOL    HW123942   6.909   2.236   2.927 -0.0393 -0.7374 -1.6425
 7681SOL    HW223943   7.033   2.131   2.946  0.1050 -0.5205 -1.3757
 7682SOL     OW23944   6.035   1.694   4.402 -0.3246 -0.1939 -0.3550
 7682SOL    HW123945   6.038   1.609   4.454  1.0419 -1.0175 -1.7392
 7682SOL    HW223946   6.128   1.725   4.382 -0.7649  1.9909  0.6463
 7683SOL     OW23947   4.460   1.927   6.597 -0.9459  0.2089  0.2597
 7683SOL    HW123948   4.478   1.964   6.688  0.2707 -0.1411  0.1812
 7683SOL    HW223949   4.429   1.832   6.605 -0.4950  0.0616  0.3068
 7684SOL     OW23950   5.311   4.513   1.200 -0.3596  0.1448 -0.7502
 7684SOL    HW123951   5.257   4.435   1.169 -0.0391 -0.4864  0.2539
 7684SOL    HW223952   5.301   4.588   1.135 -0.5728 -0.7676 -1.7978
 7685SOL     OW23953   4.229   1.470   4.575  0.5717  0.0731  0.6485
 7685SOL    HW123954   4.200   1.444   4.482 -0.7400  1.2565  0.6939
 7685SOL    HW223955   4.309   1.530   4.569 -1.8967  3.5372 -0.0598
 7686SOL     OW23956   6.309   4.926   4.567  0.5283 -0.1047  0.4108
 7686SOL    HW123957   6.335   4.994   4.499  1.2277  0.3489  1.1237
 7686SOL    HW223958   6.209   4.924   4.575  0.4006 -0.5310 -0.9859
 7687SOL     OW23959   2.548   4.669   4.047 -0.2419  0.0656  0.1297
 7687SOL    HW123960   2.508   4.673   4.139 -1.9231  1.1114 -0.5861
 7687SOL    HW223961   2.619   4.739   4.038  0.0089 -0.1157  0.6568
 7688SOL     OW23962   0.791   0.487   2.179 -0.0529  0.3446  0.2600
 7688SOL    HW123963   0.698   0.452   2.171 -0.3411  1.2507 -0.5741
 7688SOL    HW223964   0.793   0.583   2.151  1.1403  0.3159  0.2037
 7689SOL     OW23965   6.571   4.253   2.113 -0.3313  0.0140 -0.3385
 7689SOL    HW123966   6.643   4.292   2.056  0.3005  0.0657  0.4804
 7689SOL    HW223967   6.612   4.204   2.190 -1.1647  0.1115  0.1828
 7690SOL     OW23968   3.531   5.220   5.232  0.3383 -0.3500  0.2245
 7690SOL    HW123969   3.495   5.291   5.293 -0.6015 -0.3422 -0.3195
 7690SOL    HW223970   3.565   5.262   5.148 -0.2647 -0.5364 -0.1186
 7691SOL     OW23971   2.015   3.009   1.412 -0.6954 -0.5747  0.0296
 7691SOL    HW123972   1.953   2.939   1.376 -0.0871 -0.8768 -0.4487
 7691SOL    HW223973   1.980   3.100   1.390 -0.0734 -0.7477 -1.8349
 7692SOL     OW23974   5.412   5.627   2.554  0.5128  0.8794 -0.0966
 7692SOL    HW123975   5.503   5.633   2.513  0.1429  0.8430 -0.9358
 7692SOL    HW223976   5.413   5.672   2.644  1.6954 -0.3141  0.5289
 7693SOL     OW23977   6.272   5.647   4.553  0.0841 -0.0089  0.5269
 7693SOL    HW123978   6.232   5.599   4.475 -1.7859  0.4959  1.1401
 7693SOL    HW223979   6.328   5.583   4.606 -2.5873 -1.7032  1.5096
 7694SOL     OW23980   2.129   6.419   0.258 -0.0339  0.2502 -0.1312
 7694SOL    HW123981   2.180   6.468   0.329 -2.5607 -0.7751  2.5706
 7694SOL    HW223982   2.033   6.447   0.260 -0.2118  0.2187 -3.2894
 7695SOL     OW23983   0.068   5.383   1.119  0.2553  0.1366 -0.3471
 7695SOL    HW123984   0.096   5.338   1.204  1.4743  0.0664 -0.7564
 7695SOL    HW223985  -0.022   5.350   1.092  0.1955 -0.4399  0.4916
 7696SOL     OW23986   6.676   3.067   1.691  0.0732  0.1221 -0.8486
 7696SOL    HW123987   6.714   3.124   1.764 -0.7447 -0.5583  0.1273
 7696SOL    HW223988   6.586   3.102   1.666  1.2009  1.6898 -3.1056
 7697SOL     OW23989   2.034   0.219   3.754  0.0306  0.2619  0.5956
 7697SOL    HW123990   2.071   0.237   3.845  2.0817  0.8132 -0.2825
 7697SOL    HW223991   2.092   0.263   3.685 -0.4798 -1.5126 -1.0747
 7698SOL     OW23992   3.298   3.383   2.350 -0.3130  0.1319 -0.4143
 7698SOL    HW123993   3.260   3.292   2.331 -0.4130  0.0728  0.0419
 7698SOL    HW223994   3.280   3.444   2.273 -3.4491  0.7708  0.6650
 7699SOL     OW23995   2.799   3.758   6.932  0.1941  0.3750 -0.4940
 7699SOL    HW123996   2.740   3.831   6.967  1.1395  1.1871 -0.5417
 7699SOL    HW223997   2.892   3.793   6.922  0.8720 -1.1147  0.3511
 7700SOL     OW23998   0.212   6.774   4.799  0.2854  0.5536  0.4974
 7700SOL    HW123999   0.126   6.724   4.792  0.9330 -0.4852 -0.1913
 7700SOL    HW224000   0.264   6.764   4.714  0.6088  2.0940  0.4683
 7701SOL     OW24001   1.175   0.334   6.217  0.5525  0.4179 -0.2744
 7701SOL    HW124002   1.126   0.293   6.140 -0.9259  0.0075  0.8358
 7701SOL    HW224003   1.237   0.404   6.183 -0.5479  0.7179 -1.7848
 7702SOL     OW24004   2.333   5.294   0.852  0.1323  0.2521 -0.1340
 7702SOL    HW124005   2.283   5.226   0.907 -0.3040  0.4606 -0.2725
 7702SOL    HW224006   2.363   5.369   0.911  0.6003 -0.0494  0.0164
 7703SOL     OW24007   1.464   4.166   6.985  0.0787 -0.0650 -0.0012
 7703SOL    HW124008   1.552   4.213   6.994 -0.2131  0.4237  0.3821
 7703SOL    HW224009   1.398   4.228   6.944 -0.5498  0.1840  1.3256
 7704SOL     OW24010   0.461   5.546   6.944 -0.4243  0.0771  0.1183
 7704SOL    HW124011   0.437   5.456   6.909 -0.8473  0.2976 -0.1710
 7704SOL    HW224012   0.391   5.577   7.009  0.9054 -0.7980  2.0444
 7705SOL     OW24013   4.183   0.092   4.867 -0.3449 -0.4886 -0.0438
 7705SOL    HW124014   4.150   0.005   4.829 -1.4754  0.4928 -1.3933
 7705SOL    HW224015   4.106   0.154   4.880  0.4557  0.3585  0.8416
 7706SOL     OW24016   3.230   0.470   2.409 -0.0242  0.4537  0.1074
 7706SOL    HW124017   3.268   0.560   2.430  1.1659  0.1709 -0.7410
 7706SOL    HW224018   3.302   0.410   2.375 -0.2431 -1.6498  2.9822
 7707SOL     OW24019   1.592   2.619   4.379  0.0158  0.1738  0.2758
 7707SOL    HW124020   1.687   2.647   4.396 -0.5193  1.5758  1.1242
 7707SOL    HW224021   1.564   2.648   4.288  1.1888 -2.5903 -1.0819
 7708SOL     OW24022   1.691   1.659   3.091  0.6512  0.3177 -0.0779
 7708SOL    HW124023   1.657   1.567   3.113  1.8590 -0.0411  0.3776
 7708SOL    HW224024   1.745   1.694   3.167 -0.7440  1.9126  0.2268
 7709SOL     OW24025   1.650   4.072   1.846 -0.2267 -0.1654  0.1575
 7709SOL    HW124026   1.697   4.110   1.765  2.3960 -2.7725  0.3048
 7709SOL    HW224027   1.551   4.071   1.829  0.2581 -1.6222 -3.5571
 7710SOL     OW24028   6.054   4.748   0.049 -0.4260 -0.3074 -0.6573
 7710SOL    HW124029   6.109   4.820   0.091 -0.0282 -0.2593 -1.2406
 7710SOL    HW224030   5.970   4.736   0.101 -0.0432 -0.1154  0.0287
 7711SOL     OW24031   3.139   0.612   1.697  0.2885  0.9024  0.7817
 7711SOL    HW124032   3.156   0.552   1.775  0.5110 -1.2131 -0.7997
 7711SOL    HW224033   3.224   0.654   1.667  0.4867  0.4609  0.7193
 7712SOL     OW24034   5.420   4.374   1.471 -0.4831  0.3802  0.0005
 7712SOL    HW124035   5.436   4.433   1.551 -1.4590 -1.0876  1.3416
 7712SOL    HW224036   5.399   4.430   1.391  1.7271  1.9635  0.4270
 7713SOL     OW24037   4.312   1.267   2.985  0.4324  0.0165 -0.3526
 7713SOL    HW124038   4.339   1.303   2.896  1.3971 -0.9257 -0.4761
 7713SOL    HW224039   4.229   1.212   2.976  0.7237 -0.3628 -0.7435
 7714SOL     OW24040   3.097   0.310   0.383 -0.3205  0.5574 -0.4942
 7714SOL    HW124041   3.153   0.363   0.447 -0.2982  0.4099 -0.3901
 7714SOL    HW224042   3.153   0.237   0.343 -0.2846  0.7589 -0.8191
 7715SOL     OW24043   3.145   1.585   5.038  0.1225  0.2375 -0.4207
 7715SOL    HW124044   3.221   1.639   5.075  0.5990  1.3477 -2.8229
 7715SOL    HW224045   3.067   1.645   5.022 -0.5243 -0.4819  0.0106
 7716SOL     OW24046   1.942   3.286   1.327  0.4753 -0.1178  0.4772
 7716SOL    HW124047   1.991   3.265   1.242 -0.5159 -0.4720 -0.0134
 7716SOL    HW224048   1.999   3.345   1.383  1.6281 -0.8029  0.0805
 7717SOL     OW24049   6.376   4.312   6.814  0.3343  0.0989  0.6277
 7717SOL    HW124050   6.413   4.222   6.838 -1.5681 -0.8724  0.1216
 7717SOL    HW224051   6.417   4.343   6.729 -0.3170 -1.1768 -0.1837
 7718SOL     OW24052   0.148   6.557   6.868 -0.5444 -0.2413 -0.1867
 7718SOL    HW124053   0.179   6.608   6.787  0.1432 -0.1473  0.1251
 7718SOL    HW224054   0.186   6.464   6.864  0.4057  0.0947  0.5597
 7719SOL     OW24055   2.487   5.346   4.066 -0.1574 -0.3628  0.2411
 7719SOL    HW124056   2.524   5.399   4.143 -0.5301  1.1264 -0.5579
 7719SOL    HW224057   2.549   5.354   3.988 -0.7417 -0.2303 -0.2143
 7720SOL     OW24058   4.425   6.655   3.926  0.4531  0.1352  0.3694
 7720SOL    HW124059   4.338   6.620   3.892  0.2097  0.2231  0.8826
 7720SOL    HW224060   4.495   6.584   3.920  0.1078 -0.2489  0.8551
 7721SOL     OW24061   4.857   0.078   0.183  0.4213 -0.4380 -0.4697
 7721SOL    HW124062   4.816   0.156   0.135  1.6716 -1.0908 -2.7522
 7721SOL    HW224063   4.832   0.081   0.280 -3.7845 -0.0101 -1.3806
 7722SOL     OW24064   6.064   1.574   5.903  0.1521 -0.3382 -0.0158
 7722SOL    HW124065   6.119   1.545   5.981  1.3783 -1.9054 -1.3878
 7722SOL    HW224066   5.969   1.585   5.932  0.9015  1.1704  2.1256
 7723SOL     OW24067   0.983   0.579   4.565  0.0207 -0.4316 -0.3076
 7723SOL    HW124068   0.978   0.540   4.473 -0.3067 -0.6275 -0.2096
 7723SOL    HW224069   0.890   0.590   4.601  0.1609 -0.8183  0.1911
 7724SOL     OW24070   1.467   6.447   5.270  0.3670 -0.6657  0.0554
 7724SOL    HW124071   1.519   6.506   5.209  2.1786 -0.8299  1.3310
 7724SOL    HW224072   1.441   6.363   5.222  0.2498 -0.0586 -0.9548
 7725SOL     OW24073   2.796   4.746   0.635 -0.3635 -0.4120 -0.8519
 7725SOL    HW124074   2.732   4.794   0.575  0.6647 -0.6372 -2.1692
 7725SOL    HW224075   2.872   4.709   0.581  0.7344 -0.4134  0.6170
 7726SOL     OW24076   2.703   4.313   0.487  0.0855  0.3736 -0.1277
 7726SOL    HW124077   2.615   4.268   0.491 -0.5609  1.6026  0.0295
 7726SOL    HW224078   2.690   4.412   0.481  1.3647  1.0792  4.5799
 7727SOL     OW24079   5.546   4.504   3.774  0.5408  0.4767  0.4396
 7727SOL    HW124080   5.465   4.543   3.729  2.5103  3.2060 -1.0762
 7727SOL    HW224081   5.589   4.437   3.713 -0.2185 -0.5507  1.0073
 7728SOL     OW24082   2.456   3.017   1.193 -0.1600  0.3304 -0.0797
 7728SOL    HW124083   2.499   2.929   1.176  1.6288  1.4986 -2.3141
 7728SOL    HW224084   2.505   3.065   1.266  0.4931  0.4325 -0.5678
 7729SOL     OW24085   4.488   0.230   6.836 -0.2628 -0.1409  0.3439
 7729SOL    HW124086   4.440   0.207   6.921 -0.9368  0.5423  0.1644
 7729SOL    HW224087   4.517   0.146   6.791  0.7993 -0.4996  1.6192
 7730SOL     OW24088   2.168   0.854   2.763 -0.3735  0.0416 -0.2998
 7730SOL    HW124089   2.206   0.939   2.725  0.8123 -0.6564 -0.7224
 7730SOL    HW224090   2.073   0.845   2.734 -0.1493  0.6158 -1.2807
 7731SOL     OW24091   6.805   2.702   6.788 -0.3825 -0.0924  0.2202
 7731SOL    HW124092   6.903   2.688   6.799 -0.6481 -1.4914  0.9614
 7731SOL    HW224093   6.766   2.632   6.729 -1.0781 -0.0708  0.6328
 7732SOL     OW24094   2.954   5.811   1.750 -0.6154  0.6186 -0.1681
 7732SOL    HW124095   2.864   5.797   1.709 -0.5676 -1.0993  0.2756
 7732SOL    HW224096   2.967   5.909   1.768 -1.1936  1.2999 -2.9179
 7733SOL     OW24097   2.693   5.700   4.426  0.1199 -0.6938  0.2971
 7733SOL    HW124098   2.608   5.679   4.474  0.5646 -2.0775  0.5185
 7733SOL    HW224099   2.763   5.635   4.453  1.6375  1.1584  1.0608
 7734SOL     OW24100   5.007   3.941   5.400 -0.2005  0.5105 -0.0953
 7734SOL    HW124101   5.067   3.967   5.325  0.1939  1.5822  0.5717
 7734SOL    HW224102   4.913   3.934   5.366 -0.0308  1.0003 -0.6859
 7735SOL     OW24103   3.605   1.962   4.118 -0.3780 -0.2366  0.2765
 7735SOL    HW124104   3.505   1.968   4.124 -0.3707 -0.9135  1.4260
 7735SOL    HW224105   3.646   2.004   4.199  0.3339  1.0342 -0.7027
 7736SOL     OW24106   1.365   0.294   6.439 -0.6638  0.8037  0.5256
 7736SOL    HW124107   1.315   0.303   6.525 -2.3953 -0.9263 -0.2406
 7736SOL    HW224108   1.303   0.310   6.362  0.7911  2.0540 -0.4583
 7737SOL     OW24109   5.343   5.465   1.229 -0.3408 -0.4890  0.2888
 7737SOL    HW124110   5.401   5.528   1.176  0.5661 -0.1428  1.6328
 7737SOL    HW224111   5.395   5.382   1.250 -0.9695 -0.9741 -0.0400
 7738SOL     OW24112   2.231   6.515   3.799  0.2584  0.3229  1.2446
 7738SOL    HW124113   2.271   6.484   3.886 -0.9554  0.2079  1.7780
 7738SOL    HW224114   2.151   6.460   3.777 -0.1766  1.1497  0.6820
 7739SOL     OW24115   1.523   2.061   5.837 -0.0323  0.1826  0.5187
 7739SOL    HW124116   1.608   2.015   5.862  0.3160 -0.2134 -1.2132
 7739SOL    HW224117   1.542   2.131   5.768 -1.0483  0.4394  0.4793
 7740SOL     OW24118   0.685   2.066   2.038 -0.3346 -0.3532 -0.1712
 7740SOL    HW124119   0.611   2.003   2.017 -0.3124 -0.4265 -0.0330
 7740SOL    HW224120   0.669   2.153   1.991 -1.0300 -0.0252  0.6385
 7741SOL     OW24121   0.581   1.798   1.531  0.7290  0.3136 -0.5162
 7741SOL    HW124122   0.543   1.774   1.621  0.2479  1.4762 -0.3912
 7741SOL    HW224123   0.656   1.735   1.509 -0.8779 -1.7290 -0.5238
 7742SOL     OW24124   3.197   3.445   3.437 -0.3991  0.4278  0.6000
 7742SOL    HW124125   3.256   3.522   3.415 -0.2476  0.0290 -0.4301
 7742SOL    HW224126   3.101   3.475   3.434 -0.3443  0.5616  0.1284
 7743SOL     OW24127   4.031   4.910   6.503  0.0077 -0.8456 -0.4752
 7743SOL    HW124128   4.036   4.823   6.453 -1.9644 -0.8308 -0.7798
 7743SOL    HW224129   4.096   4.974   6.464  1.3379 -2.1000 -0.4024
 7744SOL     OW24130   2.453   6.728   0.218 -0.0189  0.2094 -0.2266
 7744SOL    HW124131   2.432   6.769   0.129  1.0442 -1.3478 -1.2394
 7744SOL    HW224132   2.512   6.790   0.270  0.1805  0.7069 -1.0284
 7745SOL     OW24133   2.107   5.248   0.566  1.0001  0.4379 -0.0592
 7745SOL    HW124134   2.101   5.312   0.489  2.3300  0.7605  0.0713
 7745SOL    HW224135   2.113   5.155   0.531 -0.0759  0.4432 -0.2812
 7746SOL     OW24136   2.388   6.792   5.053  0.4095  0.3979  0.2094
 7746SOL    HW124137   2.436   6.815   4.969 -0.2757  0.9647 -0.0315
 7746SOL    HW224138   2.290   6.786   5.036  0.2296  0.8136  1.0212
 7747SOL     OW24139   2.941   4.971   6.853  0.0956  0.2736 -0.1093
 7747SOL    HW124140   2.990   4.979   6.940  0.9236 -1.0914 -0.4075
 7747SOL    HW224141   2.898   5.058   6.831 -0.0151  0.6871  1.5904
 7748SOL     OW24142   1.083   0.846   4.497 -0.4912 -0.4676  0.3025
 7748SOL    HW124143   1.178   0.851   4.525  0.0900 -1.5681 -1.3295
 7748SOL    HW224144   1.054   0.750   4.491 -1.3386 -0.1915 -0.3481
 7749SOL     OW24145   5.050   4.563   0.618 -0.6153  0.1404  0.3639
 7749SOL    HW124146   5.072   4.638   0.681 -2.8152 -0.3732  1.8855
 7749SOL    HW224147   4.956   4.574   0.585 -0.8322 -1.6958  0.2774
 7750SOL     OW24148   4.680   4.411   1.263  0.3170  0.1549  0.0153
 7750SOL    HW124149   4.695   4.475   1.188  0.1557  0.0761 -0.0846
 7750SOL    HW224150   4.682   4.317   1.229 -1.2575  0.1538 -0.1774
 7751SOL     OW24151   2.728   0.797   4.494 -0.0480  0.5287 -0.0389
 7751SOL    HW124152   2.788   0.743   4.435  0.1566  0.9820 -0.2505
 7751SOL    HW224153   2.644   0.746   4.511  0.0008  0.2815 -0.5107
 7752SOL     OW24154   3.939   3.840   2.508 -0.5515  0.0830 -0.1814
 7752SOL    HW124155   3.984   3.919   2.548  1.4342 -1.7130  1.3447
 7752SOL    HW224156   3.898   3.784   2.580  1.4821 -2.2727 -0.7286
 7753SOL     OW24157   0.854   1.067   5.265  0.1774  0.1210  0.2451
 7753SOL    HW124158   0.887   1.054   5.172  1.1212  0.2933  0.5433
 7753SOL    HW224159   0.785   0.998   5.287  1.6015 -1.3639  0.1815
 7754SOL     OW24160   2.305   4.817   0.422  0.0974 -0.1604 -0.0982
 7754SOL    HW124161   2.299   4.787   0.327  1.5593 -0.0772 -0.2412
 7754SOL    HW224162   2.237   4.768   0.477 -0.6966 -0.2784 -1.1501
 7755SOL     OW24163   5.730   1.324   1.198  0.1618  0.3699  0.6636
 7755SOL    HW124164   5.661   1.310   1.268 -0.0499 -0.3765  0.3041
 7755SOL    HW224165   5.738   1.243   1.141 -0.3368  1.2970 -0.7781
 7756SOL     OW24166   2.909   3.615   5.490 -0.2024 -0.5548  0.3443
 7756SOL    HW124167   2.987   3.554   5.502 -0.6159 -1.2229 -0.2952
 7756SOL    HW224168   2.842   3.599   5.563  1.8803  2.7085  3.3161
 7757SOL     OW24169   6.781   0.659   3.585 -0.4090 -1.3054 -0.0732
 7757SOL    HW124170   6.826   0.583   3.537 -0.0742 -0.2850 -1.4381
 7757SOL    HW224171   6.838   0.740   3.580 -1.4906 -0.5185 -0.0671
 7758SOL     OW24172   4.358   3.070   1.730  0.1319 -0.6628  0.2978
 7758SOL    HW124173   4.422   3.028   1.795  0.6912  0.7856  0.7322
 7758SOL    HW224174   4.387   3.049   1.636  1.3108 -0.0008  0.4838
 7759SOL     OW24175   3.344   0.844   3.480  0.0890 -0.2043 -0.4174
 7759SOL    HW124176   3.357   0.886   3.570 -0.3200 -1.1676  0.1083
 7759SOL    HW224177   3.250   0.809   3.474 -0.5058  1.5125 -1.9362
 7760SOL     OW24178   5.409   6.275   1.437  1.0022 -0.1187 -0.2296
 7760SOL    HW124179   5.421   6.326   1.352  2.2955 -0.1048 -0.0493
 7760SOL    HW224180   5.365   6.187   1.418 -2.0137  1.2919 -0.4627
 7761SOL     OW24181   1.571   5.002   4.082  0.2072  0.3502  0.1182
 7761SOL    HW124182   1.611   5.044   4.164  3.5474  0.0593 -1.2269
 7761SOL    HW224183   1.554   5.072   4.013  1.0308  0.1631 -0.2913
 7762SOL     OW24184   3.226   4.829   2.533  0.9304 -0.4530 -0.1061
 7762SOL    HW124185   3.251   4.926   2.543 -0.0519  0.2720 -3.3738
 7762SOL    HW224186   3.310   4.775   2.522  1.5080 -0.0719  2.0462
 7763SOL     OW24187   1.564   3.913   5.273 -0.3258 -0.1129  0.3212
 7763SOL    HW124188   1.547   3.921   5.371  0.1357  0.7971  0.3344
 7763SOL    HW224189   1.621   3.989   5.243 -1.1197  0.0458 -0.8131
 7764SOL     OW24190   1.862   6.032   1.079 -0.3116  0.0415  0.0454
 7764SOL    HW124191   1.883   6.035   0.981  0.0367 -0.6906  0.0927
 7764SOL    HW224192   1.944   6.058   1.130  0.4359 -2.3730  0.2161
 7765SOL     OW24193   3.874   2.831   6.368  0.5315  0.4873 -0.1791
 7765SOL    HW124194   3.799   2.782   6.323 -0.7018  1.6529  0.5665
 7765SOL    HW224195   3.935   2.764   6.411  0.1335 -0.4960 -1.0860
 7766SOL     OW24196   6.946   6.161   2.150 -0.3660  0.5763  0.3283
 7766SOL    HW124197   6.901   6.133   2.235 -0.6534  1.3974  0.4587
 7766SOL    HW224198   7.045   6.152   2.160 -0.4658 -0.9637  0.1398
 7767SOL     OW24199   5.809   5.307   2.656 -0.2644 -0.1623 -0.1885
 7767SOL    HW124200   5.788   5.305   2.754  0.3223 -0.1205 -0.0579
 7767SOL    HW224201   5.871   5.384   2.637  0.6230 -0.9024 -0.3790
 7768SOL     OW24202   1.213   1.829   0.522  0.5109  0.3803  0.3307
 7768SOL    HW124203   1.264   1.843   0.437 -1.5532  0.1731 -1.0043
 7768SOL    HW224204   1.171   1.915   0.550  0.4912  0.2563  0.6811
 7769SOL     OW24205   4.928   5.823   2.427 -0.0616 -0.3962 -0.1744
 7769SOL    HW124206   5.022   5.829   2.394  0.6649 -0.9337  1.6694
 7769SOL    HW224207   4.875   5.763   2.367  1.1797 -1.3214 -0.3740
 7770SOL     OW24208   2.328   3.900   1.388  0.3783 -0.0555  0.2258
 7770SOL    HW124209   2.390   3.974   1.413 -1.3395  0.7271  2.4606
 7770SOL    HW224210   2.267   3.929   1.314 -1.9869  1.8542  2.7306
 7771SOL     OW24211   1.978   6.820   6.017 -0.2980 -0.3806 -0.0687
 7771SOL    HW124212   1.983   6.919   6.030 -0.0766 -0.5533  1.2929
 7771SOL    HW224213   1.958   6.776   6.105 -0.0588 -1.5686 -0.5968
 7772SOL     OW24214   2.236   2.981   2.599  0.4241 -0.3041 -0.2037
 7772SOL    HW124215   2.289   2.897   2.597  1.8015  0.5544 -0.9428
 7772SOL    HW224216   2.190   2.989   2.687  4.7173  0.8186  2.2031
 7773SOL     OW24217   6.013   0.836   2.943  0.7050 -0.2075  0.1042
 7773SOL    HW124218   6.042   0.905   3.009  1.8163  2.6975 -3.1058
 7773SOL    HW224219   6.090   0.776   2.920  0.0114 -2.0001  2.1260
 7774SOL     OW24220   2.282   3.908   1.693 -0.7245 -0.6982 -0.2317
 7774SOL    HW124221   2.294   3.894   1.595 -0.4397 -0.3149 -0.2557
 7774SOL    HW224222   2.331   3.991   1.721 -0.8548 -0.7707  0.2225
 7775SOL     OW24223   6.764   6.064   3.028  0.4095  0.7217  0.5433
 7775SOL    HW124224   6.815   6.148   3.045 -1.2909  1.3871  2.8959
 7775SOL    HW224225   6.669   6.078   3.055 -0.1344 -1.6674  0.0160
 7776SOL     OW24226   1.977   3.509   5.414 -0.3168 -0.6577 -0.2343
 7776SOL    HW124227   1.973   3.423   5.364  0.2685 -0.7226 -0.1703
 7776SOL    HW224228   1.902   3.569   5.383 -0.4830 -1.0298 -0.5613
 7777SOL     OW24229   4.046   0.730   4.280  0.0270 -0.4304 -0.2392
 7777SOL    HW124230   4.114   0.666   4.243  1.5135  1.7163 -1.4027
 7777SOL    HW224231   3.991   0.767   4.205 -0.8783 -0.3768  0.4306
 7778SOL     OW24232   6.320   0.480   4.465  0.8789  0.2825 -0.1285
 7778SOL    HW124233   6.316   0.443   4.557  0.0586  1.3350  0.2863
 7778SOL    HW224234   6.387   0.554   4.461  1.8521 -0.6079 -0.7176
 7779SOL     OW24235   2.532   3.053   5.911  0.0746  0.2959 -0.0748
 7779SOL    HW124236   2.570   3.105   5.988 -0.8859  0.1711  0.4984
 7779SOL    HW224237   2.448   3.097   5.880 -1.2558 -1.3363  0.9936
 7780SOL     OW24238   0.852   6.505   6.951  0.1974 -0.2874  0.6320
 7780SOL    HW124239   0.890   6.523   6.861 -0.4963 -1.4445  0.0839
 7780SOL    HW224240   0.766   6.556   6.963  0.9049  0.8283  1.1358
 7781SOL     OW24241   2.636   1.080   0.544 -0.1243 -0.1293 -0.1141
 7781SOL    HW124242   2.707   1.140   0.507  1.8172 -1.8226  0.6926
 7781SOL    HW224243   2.602   1.117   0.630  1.2758 -0.2989  0.5332
 7782SOL     OW24244   6.560   4.666   2.312  0.5193 -0.3275  0.2166
 7782SOL    HW124245   6.644   4.625   2.276  0.4222  0.2213 -0.6691
 7782SOL    HW224246   6.481   4.615   2.278  0.3191  1.3087 -2.0195
 7783SOL     OW24247   3.050   1.170   6.824  0.2549 -0.4352 -0.2455
 7783SOL    HW124248   2.954   1.144   6.836  0.6701 -2.1277 -0.3399
 7783SOL    HW224249   3.096   1.173   6.913 -0.0712  1.2798 -0.1015
 7784SOL     OW24250   6.808   0.844   1.780  0.0161 -0.0491  0.5562
 7784SOL    HW124251   6.741   0.813   1.713  0.5631  0.3933 -0.2107
 7784SOL    HW224252   6.806   0.944   1.785  1.4826  0.0566 -0.4138
 7785SOL     OW24253   0.432   0.457   2.971  0.6136 -0.2761  0.0082
 7785SOL    HW124254   0.337   0.470   3.001  0.5287 -0.4684 -0.1755
 7785SOL    HW224255   0.466   0.369   3.005 -0.0722 -1.3567 -1.9302
 7786SOL     OW24256   2.453   2.842   6.963 -0.4151  0.1678 -0.3331
 7786SOL    HW124257   2.364   2.881   6.987  0.1490  0.8860  0.6574
 7786SOL    HW224258   2.497   2.808   7.046  2.0568  3.6653 -0.0041
 7787SOL     OW24259   0.064   5.652   5.434 -0.1066  0.4253  0.7432
 7787SOL    HW124260   0.113   5.727   5.389  1.0321  0.1673  1.5150
 7787SOL    HW224261  -0.031   5.651   5.403  0.1784  1.4071 -0.2225
 7788SOL     OW24262   2.524   5.783   0.934  0.7545 -0.6441 -0.3371
 7788SOL    HW124263   2.448   5.821   0.986  1.7944  0.0734  0.7132
 7788SOL    HW224264   2.518   5.683   0.936  1.4812 -0.7143  2.3892
 7789SOL     OW24265   4.993   5.952   1.657  0.2617  0.1932 -0.2300
 7789SOL    HW124266   5.049   6.035   1.665 -0.0259  0.3289  0.4680
 7789SOL    HW224267   5.038   5.876   1.704 -1.6690  1.1145  3.4495
 7790SOL     OW24268   1.895   1.700   5.928 -0.2461 -0.0451  0.7792
 7790SOL    HW124269   1.827   1.772   5.940  0.1382  0.5437 -0.4496
 7790SOL    HW224270   1.859   1.614   5.964 -1.7260  0.2193  0.0123
 7791SOL     OW24271   0.606   4.450   3.729  0.2188 -0.1777 -0.2370
 7791SOL    HW124272   0.615   4.436   3.631  1.0502 -0.6558 -0.1008
 7791SOL    HW224273   0.621   4.363   3.777 -0.9450 -0.1145  0.2731
 7792SOL     OW24274   6.313   0.921   2.080 -0.1208  0.2806  0.1477
 7792SOL    HW124275   6.264   0.860   2.142  1.6337 -0.4333  0.9219
 7792SOL    HW224276   6.325   0.877   1.991 -0.4418  0.2527  0.1190
 7793SOL     OW24277   0.856   2.812   1.740  0.0831 -0.3104 -0.1862
 7793SOL    HW124278   0.826   2.878   1.809 -0.6939  0.6983 -1.4354
 7793SOL    HW224279   0.927   2.853   1.684  0.8271 -1.1831  0.0981
 7794SOL     OW24280   5.444   5.663   4.954 -0.6885  0.4468  0.2128
 7794SOL    HW124281   5.445   5.659   5.053  2.0676  0.7154  0.2650
 7794SOL    HW224282   5.357   5.627   4.920 -1.0285 -1.2291  2.6342
 7795SOL     OW24283   2.273   2.366   1.444 -0.0563 -0.0361 -0.2854
 7795SOL    HW124284   2.295   2.308   1.522 -1.0085 -2.4103 -1.6889
 7795SOL    HW224285   2.216   2.316   1.380  0.2004  2.0283 -2.2612
 7796SOL     OW24286   2.800   6.614   3.962  0.4352 -0.3435  0.2664
 7796SOL    HW124287   2.737   6.682   3.924  0.8946 -0.0433  0.0366
 7796SOL    HW224288   2.753   6.526   3.971 -0.3437  0.1390  1.1055
 7797SOL     OW24289   6.713   2.324   1.023  0.0848  0.5173 -0.2307
 7797SOL    HW124290   6.626   2.300   0.979  0.1718  1.4181 -0.9385
 7797SOL    HW224291   6.764   2.241   1.045 -1.4090 -0.0673  1.1684
 7798SOL     OW24292   4.153   3.494   3.477  0.3905  0.1207 -0.2719
 7798SOL    HW124293   4.206   3.469   3.558  0.2632  1.2433  0.1848
 7798SOL    HW224294   4.141   3.594   3.475  1.9143  0.3363 -2.5985
 7799SOL     OW24295   4.240   4.573   6.909 -0.0670  0.5367  0.3049
 7799SOL    HW124296   4.301   4.545   6.984 -0.1258 -0.2191  0.0835
 7799SOL    HW224297   4.290   4.573   6.823 -0.6423 -1.3370 -0.0832
 7800SOL     OW24298   0.462   1.894   2.023  0.3583  0.7693 -0.3135
 7800SOL    HW124299   0.390   1.934   1.967  0.7392  0.8281 -0.7684
 7800SOL    HW224300   0.444   1.796   2.036 -1.4783  1.3377  2.1951
 7801SOL     OW24301   1.650   0.229   5.290 -0.4615  0.0116  0.3983
 7801SOL    HW124302   1.731   0.180   5.323 -0.2872  0.2161  0.2773
 7801SOL    HW224303   1.675   0.324   5.269 -0.3560 -0.3609 -1.2324
 7802SOL     OW24304   5.185   2.731   4.301  0.4665  0.3233  0.2675
 7802SOL    HW124305   5.219   2.816   4.260 -1.1481  0.7756 -0.2077
 7802SOL    HW224306   5.223   2.654   4.250 -2.6368  0.8588 -3.3686
 7803SOL     OW24307   3.878   1.382   2.517  0.0250  0.7331  0.1664
 7803SOL    HW124308   3.847   1.451   2.452  0.1781 -0.0364 -0.7370
 7803SOL    HW224309   3.942   1.320   2.473 -0.5595 -0.3545  0.7812
 7804SOL     OW24310   4.163   2.294   4.357  0.0414 -0.3214  0.3848
 7804SOL    HW124311   4.184   2.214   4.301 -0.0855 -0.4732  0.5522
 7804SOL    HW224312   4.225   2.368   4.334 -1.2379  0.2786 -1.3472
 7805SOL     OW24313   2.737   6.577   1.932  0.1854 -0.4052  0.3196
 7805SOL    HW124314   2.787   6.644   1.877 -1.5171  0.8044  0.1531
 7805SOL    HW224315   2.769   6.581   2.027  0.3399  0.4256  0.2424
 7806SOL     OW24316   6.626   1.574   1.555  0.3051  0.2882  0.0472
 7806SOL    HW124317   6.532   1.551   1.530  0.6164 -1.2415  0.1867
 7806SOL    HW224318   6.631   1.671   1.581 -0.8490  0.8672 -1.7043
 7807SOL     OW24319   4.357   4.268   6.759  0.7200 -0.0122 -0.0212
 7807SOL    HW124320   4.404   4.354   6.777 -1.1756  0.9893  0.4075
 7807SOL    HW224321   4.280   4.258   6.822 -0.6010 -0.8325 -1.6922
 7808SOL     OW24322   6.627   5.131   1.626  0.1233  0.4843 -0.0887
 7808SOL    HW124323   6.634   5.133   1.526  0.5143  1.4340 -0.0588
 7808SOL    HW224324   6.543   5.083   1.652  1.1607 -1.8485 -0.7768
 7809SOL     OW24325   2.873   6.579   6.396  0.4840 -0.0815 -0.7444
 7809SOL    HW124326   2.788   6.564   6.447 -0.5595  1.2676 -2.0129
 7809SOL    HW224327   2.891   6.500   6.337  0.8382 -0.9412  0.4751
 7810SOL     OW24328   3.587   0.474   5.162 -0.5559  0.2872  0.1792
 7810SOL    HW124329   3.672   0.505   5.119 -1.8561  1.0775 -1.9959
 7810SOL    HW224330   3.512   0.535   5.136 -2.5573 -2.5595 -1.2836
 7811SOL     OW24331   3.994   0.002   1.730 -0.5246  0.5321  0.3852
 7811SOL    HW124332   3.989  -0.071   1.798  0.8856  0.6868  0.6847
 7811SOL    HW224333   4.015   0.089   1.775  1.2764  0.4878 -0.2976
 7812SOL     OW24334   1.949   0.276   5.877  0.1836  0.2182 -0.4452
 7812SOL    HW124335   1.912   0.255   5.787  0.1127  0.0197 -0.3713
 7812SOL    HW224336   1.915   0.364   5.908 -2.3840 -1.0911  0.7677
 7813SOL     OW24337   5.249   3.055   4.255  0.4389 -0.3153 -0.6347
 7813SOL    HW124338   5.261   2.992   4.178 -2.4143 -2.5495  0.5784
 7813SOL    HW224339   5.155   3.089   4.255  1.6282  3.3315 -0.6554
 7814SOL     OW24340   0.562   3.478   0.896 -0.4735 -0.0334  0.0289
 7814SOL    HW124341   0.607   3.421   0.965  0.8614  2.2767  1.2115
 7814SOL    HW224342   0.473   3.509   0.931 -0.8753 -0.7684 -0.3174
 7815SOL     OW24343   2.295   6.383   1.069  0.3992  0.0278 -0.2135
 7815SOL    HW124344   2.288   6.345   0.977 -2.2231 -1.7685  0.5993
 7815SOL    HW224345   2.387   6.366   1.105  1.0593 -0.4100 -1.9930
 7816SOL     OW24346   6.235   5.231   1.369  0.0895  0.0622  0.1293
 7816SOL    HW124347   6.223   5.320   1.413 -0.5438 -0.1831  0.4715
 7816SOL    HW224348   6.196   5.160   1.427  1.9462 -0.6430  0.6125
 7817SOL     OW24349   4.436   6.567   1.224  0.6843 -0.2198 -0.4449
 7817SOL    HW124350   4.408   6.569   1.320  0.0687 -1.3151 -0.5836
 7817SOL    HW224351   4.356   6.560   1.165  1.0721  0.1133 -1.0300
 7818SOL     OW24352   5.361   0.696   3.980  0.1756 -0.2043 -0.5868
 7818SOL    HW124353   5.324   0.786   4.002  1.0521  0.7388 -2.7355
 7818SOL    HW224354   5.299   0.625   4.014 -1.6480  1.2424 -0.7450
 7819SOL     OW24355   2.663   3.859   5.615  0.0309  0.5998  0.2189
 7819SOL    HW124356   2.635   3.840   5.521  1.8857  2.3499 -0.7566
 7819SOL    HW224357   2.591   3.912   5.661 -0.4302  0.6549 -0.5478
 7820SOL     OW24358   3.345   5.749   2.834 -0.5250 -0.2670 -0.6369
 7820SOL    HW124359   3.279   5.681   2.802 -1.8076  0.2628  0.7615
 7820SOL    HW224360   3.318   5.839   2.801  0.7750 -0.2954 -1.8940
 7821SOL     OW24361   5.504   4.154   2.679  0.1243 -0.0683  0.5017
 7821SOL    HW124362   5.509   4.073   2.738  0.0958  0.7603  1.6764
 7821SOL    HW224363   5.410   4.188   2.678  0.6877  1.9050  2.8206
 7822SOL     OW24364   2.462   5.410   3.420 -0.3259 -0.0302 -0.9575
 7822SOL    HW124365   2.483   5.313   3.416 -0.8429 -0.1489 -0.8986
 7822SOL    HW224366   2.363   5.423   3.423 -0.3169  0.3188  2.8198
 7823SOL     OW24367   0.778   2.576   0.990 -1.0246 -0.1080 -0.1994
 7823SOL    HW124368   0.783   2.675   0.980  1.1457  0.2439  2.8850
 7823SOL    HW224369   0.870   2.537   0.990 -1.6596 -1.7592  1.1455
 7824SOL     OW24370   6.648   2.785   1.699  0.1605  0.0057  0.4674
 7824SOL    HW124371   6.681   2.758   1.790  1.9867  2.0362  0.4976
 7824SOL    HW224372   6.651   2.884   1.691  1.6831 -0.1739 -2.3627
 7825SOL     OW24373   0.457   2.152   3.746  0.7599 -0.1732  0.0648
 7825SOL    HW124374   0.528   2.218   3.768  0.5225 -0.0270  0.4123
 7825SOL    HW224375   0.472   2.114   3.655 -0.6593  2.4742 -1.3992
 7826SOL     OW24376   6.147   0.793   2.330 -0.3054 -0.3924  0.3205
 7826SOL    HW124377   6.216   0.813   2.399  0.7122  1.7353 -1.2133
 7826SOL    HW224378   6.082   0.869   2.325 -0.5576 -0.6685 -0.8112
 7827SOL     OW24379   1.302   6.700   3.579  0.4256 -0.3921  0.2351
 7827SOL    HW124380   1.222   6.641   3.579 -0.6336  0.9444 -1.5150
 7827SOL    HW224381   1.337   6.708   3.485  1.2715  0.7904  0.6352
 7828SOL     OW24382   3.999   3.095   4.366 -0.1789  0.0326  0.1144
 7828SOL    HW124383   3.967   3.044   4.446 -1.3595 -0.7953 -0.8458
 7828SOL    HW224384   3.951   3.063   4.285  1.1871  0.6668 -0.9893
 7829SOL     OW24385   4.881   0.686   2.058  0.0523  0.5965  0.4115
 7829SOL    HW124386   4.808   0.720   1.999  0.9682  1.1109 -0.4561
 7829SOL    HW224387   4.866   0.718   2.151 -0.7459  0.8169  0.2164
 7830SOL     OW24388   4.989   5.163   6.510  0.1905 -0.2997  0.1948
 7830SOL    HW124389   4.995   5.208   6.421  1.1243 -0.0738  0.3589
 7830SOL    HW224390   5.043   5.079   6.508 -0.5490 -0.7910  0.2701
 7831SOL     OW24391   6.548   1.177   5.737 -0.0129 -0.0821  0.4243
 7831SOL    HW124392   6.640   1.168   5.776 -0.2993 -1.7784  0.7750
 7831SOL    HW224393   6.551   1.243   5.662  1.5001 -0.0830  0.4413
 7832SOL     OW24394   0.676   6.667   1.747  0.2771  0.0521 -0.7802
 7832SOL    HW124395   0.719   6.594   1.800 -0.6681 -0.7308 -1.0685
 7832SOL    HW224396   0.728   6.752   1.759  2.5420 -1.0800 -1.9736
 7833SOL     OW24397   2.806   0.274   3.261  0.3628  0.3799  0.1501
 7833SOL    HW124398   2.797   0.294   3.163 -0.3886  1.1970  0.3698
 7833SOL    HW224399   2.716   0.277   3.304  0.7276  0.4060  0.9341
 7834SOL     OW24400   0.620   3.346   3.691 -0.5252 -0.1722  0.2986
 7834SOL    HW124401   0.527   3.379   3.709  0.1722  1.7965  0.5406
 7834SOL    HW224402   0.673   3.419   3.649  1.0239 -1.1613  0.4814
 7835SOL     OW24403   0.019   0.237   2.578  0.0261 -0.1992 -0.8539
 7835SOL    HW124404  -0.008   0.147   2.546  0.0065 -0.9583  1.1491
 7835SOL    HW224405   0.098   0.228   2.640  0.5953  1.2555 -1.3254
 7836SOL     OW24406   0.134   3.404   4.767  0.4610  0.1788 -0.1628
 7836SOL    HW124407   0.147   3.496   4.729 -0.0604 -0.2995 -1.5825
 7836SOL    HW224408   0.187   3.339   4.714  0.6563 -0.3827  0.7032
 7837SOL     OW24409   0.522   2.734   2.115 -0.4614 -0.3420 -0.2658
 7837SOL    HW124410   0.534   2.638   2.089  0.3398 -0.7314  1.4395
 7837SOL    HW224411   0.498   2.787   2.033 -0.8931 -1.9657 -1.2470
 7838SOL     OW24412   5.527   2.914   2.725 -0.0538  0.0951 -0.0478
 7838SOL    HW124413   5.554   2.850   2.654  1.6109  0.1754  0.4647
 7838SOL    HW224414   5.546   2.874   2.815 -1.1266  0.4233  0.3477
 7839SOL     OW24415   2.234   2.187   0.521  0.5905  0.1360  0.4056
 7839SOL    HW124416   2.241   2.115   0.452 -0.1134 -0.2696  0.7497
 7839SOL    HW224417   2.141   2.189   0.558  0.7313  0.9159  0.7296
 7840SOL     OW24418   3.509   4.120   0.084  0.5467 -0.1190  0.2034
 7840SOL    HW124419   3.588   4.063   0.111  1.3258  0.9223  0.1732
 7840SOL    HW224420   3.530   4.168  -0.001  0.2488  0.8863  0.6868
 7841SOL     OW24421   3.434   4.185   3.245 -0.2047  0.1393 -0.1006
 7841SOL    HW124422   3.527   4.160   3.273 -1.1908  0.3103  4.0831
 7841SOL    HW224423   3.427   4.285   3.239 -0.1658  0.1446 -0.0676
 7842SOL     OW24424   4.731   4.899   6.292 -0.1229  0.1176 -0.4335
 7842SOL    HW124425   4.703   4.884   6.197  1.4297  1.5886 -1.1729
 7842SOL    HW224426   4.684   4.979   6.328  0.1991  0.2781 -0.3704
 7843SOL     OW24427   6.678   3.746   4.359  0.6161 -0.0313 -0.0351
 7843SOL    HW124428   6.593   3.717   4.404  1.3266 -0.4190  1.0986
 7843SOL    HW224429   6.742   3.780   4.427  1.0083  1.2264 -0.9985
 7844SOL     OW24430   0.895   4.700   1.083 -0.2335  0.2126  0.3413
 7844SOL    HW124431   0.857   4.651   1.161 -1.1269  1.5571  0.7827
 7844SOL    HW224432   0.843   4.678   1.000  0.1363 -0.4974  0.2874
 7845SOL     OW24433   6.594   6.447   2.990 -0.1940  0.1175 -0.7458
 7845SOL    HW124434   6.545   6.430   3.075 -2.1080  0.8585 -1.6618
 7845SOL    HW224435   6.581   6.370   2.928  1.6890 -0.6981 -0.2196
 7846SOL     OW24436   5.561   6.983   1.934 -1.0124  0.2650 -0.2601
 7846SOL    HW124437   5.653   6.951   1.954 -1.8035 -2.2768 -0.3123
 7846SOL    HW224438   5.564   7.049   1.859  0.7233 -0.0596 -0.5152
 7847SOL     OW24439   2.719   3.157   6.474 -0.3145  0.4387 -0.3744
 7847SOL    HW124440   2.741   3.060   6.485 -1.0155 -0.0189 -2.4330
 7847SOL    HW224441   2.742   3.206   6.557 -1.4869 -1.7580  1.3526
 7848SOL     OW24442   3.595   1.492   3.730  0.0898 -0.5045  0.7924
 7848SOL    HW124443   3.571   1.500   3.633 -2.5209  0.6494  1.4445
 7848SOL    HW224444   3.694   1.491   3.740  0.5058  2.4108 -1.6799
 7849SOL     OW24445   0.266   4.110   5.924 -0.2994 -0.1771  0.3025
 7849SOL    HW124446   0.280   4.113   6.023 -0.2007  0.7365  0.2683
 7849SOL    HW224447   0.179   4.155   5.902 -1.1524 -1.8384  0.1117
 7850SOL     OW24448   2.793   5.535   3.684 -0.1492 -0.1038 -0.3591
 7850SOL    HW124449   2.713   5.562   3.629  0.0111  0.9685 -0.0848
 7850SOL    HW224450   2.876   5.568   3.639  0.1732 -1.2833 -0.6846
 7851SOL     OW24451   2.111   6.758   1.323 -0.0368 -0.3979  0.2909
 7851SOL    HW124452   2.193   6.779   1.376 -0.6056  0.1601  0.9613
 7851SOL    HW224453   2.125   6.671   1.275  0.8612 -0.4189  0.5603
 7852SOL     OW24454   1.052   1.173   1.902  0.1877 -0.5107 -0.0493
 7852SOL    HW124455   1.024   1.085   1.939 -0.3188 -0.1765  0.3815
 7852SOL    HW224456   0.971   1.227   1.880  0.4651 -0.7421 -1.7652
 7853SOL     OW24457   0.509   1.839   6.078  0.2204 -0.0036 -0.0484
 7853SOL    HW124458   0.596   1.796   6.102  0.0555  0.5333  1.6104
 7853SOL    HW224459   0.521   1.938   6.074 -0.2034  0.0370 -0.3064
 7854SOL     OW24460   4.482   3.955   5.889  0.1014 -0.0145 -0.5512
 7854SOL    HW124461   4.508   3.871   5.937  0.7806  1.2422  1.4361
 7854SOL    HW224462   4.565   4.004   5.862 -0.2847 -0.3912 -2.5384
 7855SOL     OW24463   2.568   5.819   1.242 -0.2522 -0.0545  0.0477
 7855SOL    HW124464   2.511   5.899   1.224  1.4287  1.2025  0.0776
 7855SOL    HW224465   2.616   5.794   1.158  0.0066 -0.4012  0.2979
 7856SOL     OW24466   3.772   3.669   3.616 -0.1922  0.4420 -0.6165
 7856SOL    HW124467   3.691   3.725   3.603 -1.5575 -1.3372 -0.2134
 7856SOL    HW224468   3.764   3.619   3.703  0.5576 -0.9801 -1.3363
 7857SOL     OW24469   4.235   4.742   3.939  0.0483 -0.3907 -0.8010
 7857SOL    HW124470   4.267   4.836   3.924 -0.6972  0.0929  0.4525
 7857SOL    HW224471   4.284   4.702   4.016 -1.1886 -0.2006  0.1228
 7858SOL     OW24472   0.597   3.461   1.815  0.5577  0.9039  0.1704
 7858SOL    HW124473   0.580   3.430   1.908 -1.0168  0.3395 -0.2646
 7858SOL    HW224474   0.522   3.520   1.785  0.7584  0.6333 -0.9114
 7859SOL     OW24475   1.237   1.719   5.577  0.7067  0.8359 -0.7176
 7859SOL    HW124476   1.294   1.782   5.631  1.0283 -0.7214  0.8325
 7859SOL    HW224477   1.251   1.626   5.609 -1.5816  0.2195 -1.3354
 7860SOL     OW24478   3.569   3.847   3.581  0.4063  0.1666 -0.0461
 7860SOL    HW124479   3.470   3.850   3.566  0.1406 -1.0932  1.1759
 7860SOL    HW224480   3.596   3.924   3.639 -0.1318 -0.3245  0.8825
 7861SOL     OW24481   0.772   4.825   0.249  0.2631 -0.6466  0.0763
 7861SOL    HW124482   0.753   4.772   0.332 -1.0962 -1.3443 -0.6365
 7861SOL    HW224483   0.847   4.782   0.199 -0.6246 -1.7890 -0.3421
 7862SOL     OW24484   6.957   0.765   6.965  0.2234 -0.2413  0.2525
 7862SOL    HW124485   6.899   0.687   6.987 -1.0264 -0.2685 -2.6715
 7862SOL    HW224486   6.976   0.766   6.867  1.1443  2.5168  0.3544
 7863SOL     OW24487   6.150   3.697   3.091  0.0434 -0.0603  0.1438
 7863SOL    HW124488   6.193   3.782   3.061 -0.2297  1.4001  3.4887
 7863SOL    HW224489   6.061   3.718   3.132  0.1519 -1.9135  1.4193
 7864SOL     OW24490   5.756   1.581   1.167 -0.3879 -0.0730  0.0818
 7864SOL    HW124491   5.748   1.483   1.182  1.4013 -0.2945 -0.1164
 7864SOL    HW224492   5.762   1.629   1.255 -0.3702 -0.2428  0.1721
 7865SOL     OW24493   4.471   4.439   2.473  0.1724  0.1868 -0.3584
 7865SOL    HW124494   4.380   4.480   2.472 -0.7509 -1.7766 -1.1192
 7865SOL    HW224495   4.499   4.424   2.568  0.1981  1.7812 -0.0893
 7866SOL     OW24496   2.738   0.940   0.795  0.2017  0.7269  0.4371
 7866SOL    HW124497   2.641   0.928   0.812  0.3723  0.8642  1.5828
 7866SOL    HW224498   2.752   0.983   0.706 -0.7123 -0.7521 -0.4501
 7867SOL     OW24499   3.544   2.852   2.751 -0.3294 -0.3641  0.1647
 7867SOL    HW124500   3.635   2.888   2.731 -0.0086 -0.4312  1.4249
 7867SOL    HW224501   3.480   2.883   2.681  0.0484  2.1258  0.8258
 7868SOL     OW24502   2.275   5.366   3.151  0.2535  0.3634  0.3607
 7868SOL    HW124503   2.200   5.306   3.122  0.6209  0.5176 -0.9716
 7868SOL    HW224504   2.261   5.457   3.114  3.0740 -0.5356 -3.4422
 7869SOL     OW24505   0.434   4.242   4.059 -0.2611  0.3600 -0.5139
 7869SOL    HW124506   0.336   4.225   4.057 -0.1003 -0.8435  0.6660
 7869SOL    HW224507   0.459   4.299   3.981 -1.9610  1.1241 -0.5424
 7870SOL     OW24508   0.941   3.463   2.113 -0.0147 -0.3430 -0.2707
 7870SOL    HW124509   0.939   3.380   2.057  1.4311 -1.0284  0.6390
 7870SOL    HW224510   1.030   3.508   2.102  0.3606 -0.5677  1.5307
 7871SOL     OW24511   6.065   5.202   6.487  0.6392  0.5475  0.4410
 7871SOL    HW124512   5.974   5.174   6.455  1.0249  0.9669 -1.1208
 7871SOL    HW224513   6.124   5.121   6.496  0.6552  0.4493 -0.4164
 7872SOL     OW24514   3.709   2.126   2.326 -0.0205 -0.3294  0.1114
 7872SOL    HW124515   3.617   2.136   2.364  0.1587 -1.7584  0.9966
 7872SOL    HW224516   3.707   2.146   2.228 -1.2711 -0.3394  0.1170
 7873SOL     OW24517   2.332   2.306   6.994 -0.2582 -0.3083  0.2374
 7873SOL    HW124518   2.339   2.397   6.955  0.5944 -0.4115  0.1442
 7873SOL    HW224519   2.420   2.278   7.031 -0.5453 -1.0445  0.3866
 7874SOL     OW24520   3.656   0.454   4.397 -0.2545  0.3801  0.0708
 7874SOL    HW124521   3.587   0.416   4.459 -1.3413  0.8677 -0.8013
 7874SOL    HW224522   3.610   0.508   4.326  1.0882  1.3639 -0.0788
 7875SOL     OW24523   3.125   5.087   5.472 -0.0963 -0.3840  0.3382
 7875SOL    HW124524   3.142   4.995   5.508 -0.3123 -1.1537 -1.4118
 7875SOL    HW224525   3.037   5.087   5.423 -0.2035  0.8210  0.5058
 7876SOL     OW24526   5.863   0.470   5.452  0.0124  0.5043  0.2503
 7876SOL    HW124527   5.923   0.483   5.530 -1.6005 -0.1846  1.6726
 7876SOL    HW224528   5.870   0.375   5.420 -2.4175 -0.5206  2.3834
 7877SOL     OW24529   1.731   6.384   3.879  0.2815  0.0842  0.2027
 7877SOL    HW124530   1.726   6.468   3.824  0.4628 -0.3404 -0.4803
 7877SOL    HW224531   1.638   6.358   3.907  0.2375  0.5833  0.5254
 7878SOL     OW24532   5.684   6.751   0.978  0.1121 -0.8925 -0.0258
 7878SOL    HW124533   5.593   6.752   1.018  0.9874  0.6445  2.1277
 7878SOL    HW224534   5.712   6.656   0.960 -1.8107 -1.3858 -0.6237
 7879SOL     OW24535   2.628   5.642   2.332 -0.2217 -0.6181 -0.5466
 7879SOL    HW124536   2.693   5.694   2.276  2.0505 -1.4423  1.1914
 7879SOL    HW224537   2.618   5.550   2.294 -1.3536 -0.1564 -1.4643
 7880SOL     OW24538   1.821   3.001   4.521  0.5968  0.1676  0.0922
 7880SOL    HW124539   1.888   2.995   4.447  0.4883  0.4049 -0.0284
 7880SOL    HW224540   1.819   2.915   4.571  0.8812  0.1055  0.0006
 7881SOL     OW24541   3.476   6.934   5.079 -0.0693  0.6202  0.2480
 7881SOL    HW124542   3.390   6.941   5.130 -0.3335  1.5099 -0.2997
 7881SOL    HW224543   3.461   6.877   4.997  0.1485 -0.1289  0.7194
 7882SOL     OW24544   2.066   6.434   6.306 -0.7056 -0.7814  0.3685
 7882SOL    HW124545   2.005   6.412   6.230 -1.2413  0.3544  0.4555
 7882SOL    HW224546   2.018   6.421   6.393 -0.6306 -0.4434  0.4603
 7883SOL     OW24547   4.154   4.531   0.199 -0.2204 -0.1406  0.0780
 7883SOL    HW124548   4.247   4.498   0.187  0.0147  0.6701 -0.3728
 7883SOL    HW224549   4.146   4.624   0.162 -0.2369  1.3227  3.3822
 7884SOL     OW24550   5.193   2.685   0.087  0.6672  0.6833  0.3851
 7884SOL    HW124551   5.246   2.628   0.149 -0.3743  0.2810  0.9148
 7884SOL    HW224552   5.101   2.697   0.122 -0.8797 -1.7849 -2.3453
 7885SOL     OW24553   5.459   6.934   4.698 -0.6450 -0.3601  0.1672
 7885SOL    HW124554   5.521   6.882   4.639  0.6620  0.5722  0.6629
 7885SOL    HW224555   5.369   6.891   4.698 -0.0377 -1.7006 -0.6616
 7886SOL     OW24556   6.974   1.394   0.048 -0.2290  0.3971 -0.1090
 7886SOL    HW124557   7.004   1.302   0.073 -0.2395 -0.0882 -1.7492
 7886SOL    HW224558   6.991   1.457   0.124 -0.3555 -0.9702  1.0955
 7887SOL     OW24559   3.276   3.964   0.665  0.7307 -0.1931  0.4845
 7887SOL    HW124560   3.370   3.964   0.700  0.5325 -1.5455  1.0685
 7887SOL    HW224561   3.217   3.915   0.728 -0.6993  1.9438  0.8997
 7888SOL     OW24562   5.707   2.091   2.129 -0.5270 -0.1927 -0.0823
 7888SOL    HW124563   5.723   2.090   2.031  3.0043 -0.1136  0.3436
 7888SOL    HW224564   5.728   2.181   2.166 -0.6707 -0.5368  0.8960
 7889SOL     OW24565   2.535   0.704   1.248 -0.1197 -0.4513 -0.0361
 7889SOL    HW124566   2.611   0.650   1.284  2.1976  3.1117  1.0117
 7889SOL    HW224567   2.502   0.766   1.320 -2.9464 -0.7476 -0.9946
 7890SOL     OW24568   3.215   4.163   6.575  0.5141  0.2938 -0.4992
 7890SOL    HW124569   3.174   4.231   6.514 -1.1468  0.4589  0.7357
 7890SOL    HW224570   3.151   4.087   6.588  0.1989  0.9037  2.0912
 7891SOL     OW24571   1.932   0.824   5.479  0.1571 -0.3127  0.1575
 7891SOL    HW124572   1.924   0.724   5.481 -1.8066 -0.1889  0.1754
 7891SOL    HW224573   1.947   0.853   5.385  2.4566 -0.6847  0.3521
 7892SOL     OW24574   5.278   0.572   6.069 -0.4714 -0.0534 -0.1259
 7892SOL    HW124575   5.295   0.613   5.979 -1.6492 -0.1770 -0.4173
 7892SOL    HW224576   5.286   0.472   6.062  1.0419  0.0125  0.2844
 7893SOL     OW24577   0.639   6.428   3.661  0.1257  0.1445 -0.2914
 7893SOL    HW124578   0.661   6.520   3.629 -1.0173  0.3202 -0.6337
 7893SOL    HW224579   0.628   6.367   3.583  0.6771 -0.2430 -0.0745
 7894SOL     OW24580   5.515   0.720   6.857  0.9201  0.2950  0.2899
 7894SOL    HW124581   5.542   0.769   6.774 -2.3957  0.9088 -0.6000
 7894SOL    HW224582   5.510   0.784   6.933 -1.3429  1.0488 -0.3919
 7895SOL     OW24583   6.983   1.535   5.735  0.3167 -0.0841  0.2970
 7895SOL    HW124584   7.063   1.508   5.788  0.1682  0.6201  0.8982
 7895SOL    HW224585   6.904   1.480   5.764  0.0465  0.8401  1.4232
 7896SOL     OW24586   1.722   0.744   1.302 -0.1213 -0.1322 -1.4091
 7896SOL    HW124587   1.646   0.686   1.332 -0.1202  0.5923  0.0542
 7896SOL    HW224588   1.808   0.693   1.309  0.0510  0.4057  1.1608
 7897SOL     OW24589   3.521   1.261   3.852  0.1259 -0.2060  0.4078
 7897SOL    HW124590   3.531   1.356   3.821 -0.4591 -0.3202 -0.1450
 7897SOL    HW224591   3.510   1.260   3.952 -0.0095  0.3162  0.4044
 7898SOL     OW24592   0.760   5.669   4.738 -0.0446 -0.1145  0.0654
 7898SOL    HW124593   0.671   5.680   4.781 -1.2131  0.4826 -2.3292
 7898SOL    HW224594   0.825   5.633   4.805 -1.8550  0.1432  2.0878
 7899SOL     OW24595   1.782   1.536   2.244 -0.3439 -0.3890  0.3259
 7899SOL    HW124596   1.874   1.542   2.207 -0.0682 -1.2638  0.8402
 7899SOL    HW224597   1.732   1.463   2.197 -0.1601 -1.1536  1.2831
 7900SOL     OW24598   5.734   0.383   6.134  0.2352  0.0768  0.7955
 7900SOL    HW124599   5.702   0.451   6.201 -0.0227 -0.6653  1.4337
 7900SOL    HW224600   5.744   0.294   6.178  1.4900 -0.1137  0.1931
 7901SOL     OW24601   6.089   0.442   5.194 -0.0492  0.2049 -0.7313
 7901SOL    HW124602   6.116   0.376   5.124  0.1817  0.6261 -1.0529
 7901SOL    HW224603   5.995   0.425   5.223 -0.0102 -0.2214 -0.8543
 7902SOL     OW24604   6.531   0.275   0.860 -0.0068 -0.3840  0.4236
 7902SOL    HW124605   6.472   0.343   0.816 -1.9762 -2.0871  0.2800
 7902SOL    HW224606   6.607   0.252   0.799 -0.0994  0.6471 -0.1004
 7903SOL     OW24607   5.342   1.336   6.433 -0.2748  0.1041  0.3173
 7903SOL    HW124608   5.432   1.336   6.389 -0.5433 -2.7498 -0.4179
 7903SOL    HW224609   5.334   1.257   6.494 -3.1429 -1.3379 -1.6893
 7904SOL     OW24610   2.321   0.020   0.500  0.1412  0.7488  0.3890
 7904SOL    HW124611   2.384   0.026   0.422 -0.9349 -2.9271 -0.9709
 7904SOL    HW224612   2.349  -0.056   0.559 -1.0319  1.3316  1.7474
 7905SOL     OW24613   3.479   6.117   1.966  0.6823 -0.7872  0.0746
 7905SOL    HW124614   3.417   6.059   1.912  0.0956 -0.5825  0.5157
 7905SOL    HW224615   3.505   6.068   2.049  0.0511 -0.3622  0.5301
 7906SOL     OW24616   6.393   6.651   6.563 -0.3011  0.2658 -0.0286
 7906SOL    HW124617   6.435   6.742   6.555  1.5342 -0.5206  0.0843
 7906SOL    HW224618   6.305   6.650   6.515 -0.0564  1.9133 -0.5712
 7907SOL     OW24619   1.025   4.729   0.228 -0.4826 -0.3037 -0.6117
 7907SOL    HW124620   1.085   4.685   0.295  0.3490  0.4252 -0.8497
 7907SOL    HW224621   1.072   4.733   0.139 -0.1069  1.8876 -0.3760
 7908SOL     OW24622   1.612   2.362   4.260  0.2864 -0.3027  0.1587
 7908SOL    HW124623   1.567   2.445   4.290  2.5198  0.2107  2.4430
 7908SOL    HW224624   1.547   2.286   4.261 -1.5203  1.1350 -0.9601
 7909SOL     OW24625   5.940   4.832   3.271  0.1958  0.4398 -0.2117
 7909SOL    HW124626   5.873   4.764   3.240 -0.4907  0.9822  0.0581
 7909SOL    HW224627   5.901   4.884   3.347  0.1903  2.0403 -1.2732
 7910SOL     OW24628   3.983   1.363   1.463  0.3692  0.1223 -0.8599
 7910SOL    HW124629   3.914   1.293   1.484  0.7162 -1.1511 -3.5368
 7910SOL    HW224630   4.074   1.321   1.465  0.6620  0.6967 -1.6046
 7911SOL     OW24631   5.602   1.590   6.993  0.1440 -0.0798  0.8947
 7911SOL    HW124632   5.574   1.683   6.968  0.7407 -0.6978 -2.5367
 7911SOL    HW224633   5.699   1.577   6.971 -0.0893 -1.6861  0.7014
 7912SOL     OW24634   3.252   6.997   3.057 -0.4539  0.1203  0.4970
 7912SOL    HW124635   3.349   6.972   3.066 -0.6169 -0.5533  0.4478
 7912SOL    HW224636   3.239   7.044   2.970 -0.4263 -1.1320 -0.2082
 7913SOL     OW24637   6.808   4.532   6.046  0.0711 -0.5956  0.3055
 7913SOL    HW124638   6.759   4.445   6.060  0.0644 -0.2662  2.9194
 7913SOL    HW224639   6.868   4.549   6.125 -1.4094  2.7266  0.8702
 7914SOL     OW24640   5.879   4.086   6.724 -0.3080  0.2389 -0.1810
 7914SOL    HW124641   5.971   4.048   6.731 -0.1163  0.3307 -1.7865
 7914SOL    HW224642   5.830   4.072   6.810  0.3718 -1.9841 -0.1076
 7915SOL     OW24643   3.591   5.962   4.797 -0.1400 -0.0469  0.5266
 7915SOL    HW124644   3.669   5.992   4.852 -1.1904  0.0045  2.0376
 7915SOL    HW224645   3.520   5.925   4.857 -1.5985  0.5795 -0.7411
 7916SOL     OW24646   0.340   2.801   2.295  0.4015  0.1952  0.4552
 7916SOL    HW124647   0.291   2.886   2.275 -1.3367 -0.9603 -0.4990
 7916SOL    HW224648   0.399   2.777   2.218  0.8102  0.4660  0.6796
 7917SOL     OW24649   4.850   6.489   0.043 -0.1034  0.3482  0.1194
 7917SOL    HW124650   4.947   6.515   0.039  0.9262 -3.1743 -2.1421
 7917SOL    HW224651   4.797   6.550  -0.015  1.7833 -0.8518 -3.1197
 7918SOL     OW24652   3.982   0.451   0.521  0.6115 -0.3293 -0.0318
 7918SOL    HW124653   3.903   0.512   0.511 -0.3649 -1.7837 -1.7942
 7918SOL    HW224654   4.064   0.498   0.490 -0.4021 -0.4099 -3.2027
 7919SOL     OW24655   3.238   2.864   5.715  0.4878 -0.1109 -0.5534
 7919SOL    HW124656   3.325   2.907   5.737  0.3279 -0.0068 -0.1116
 7919SOL    HW224657   3.186   2.923   5.653 -0.2543  0.9366  1.0029
 7920SOL     OW24658   6.256   4.660   1.995  0.6678  0.1106 -0.2697
 7920SOL    HW124659   6.204   4.732   2.042 -0.1260 -0.4746 -0.2208
 7920SOL    HW224660   6.295   4.598   2.062 -1.5620 -1.4867 -0.3268
 7921SOL     OW24661   4.655   5.375   6.630 -0.0050  0.4547 -0.0925
 7921SOL    HW124662   4.670   5.474   6.626  0.8766  0.3894  1.1308
 7921SOL    HW224663   4.674   5.342   6.722 -3.4242 -0.3848  0.4410
 7922SOL     OW24664   2.477   2.263   4.226 -0.1477  0.7169 -0.4396
 7922SOL    HW124665   2.498   2.234   4.320 -0.5321  0.1211 -0.5288
 7922SOL    HW224666   2.521   2.200   4.162 -0.5877  0.6161 -0.6453
 7923SOL     OW24667   0.431   2.225   5.841 -0.6015  0.4846  0.2303
 7923SOL    HW124668   0.495   2.299   5.827  1.0132 -1.2023 -1.9643
 7923SOL    HW224669   0.464   2.165   5.914  0.2864 -0.2648 -0.7545
 7924SOL     OW24670   3.059   6.005   2.581 -0.2941  0.2914  0.3998
 7924SOL    HW124671   3.019   5.948   2.509 -1.4756  1.8778 -0.2760
 7924SOL    HW224672   3.158   5.995   2.581 -0.2853  0.1367 -1.3637
 7925SOL     OW24673   3.135   3.734   1.196 -0.1369  0.0937  0.1656
 7925SOL    HW124674   3.104   3.639   1.201 -1.9551  0.6906  0.8459
 7925SOL    HW224675   3.219   3.744   1.249 -1.1322 -0.6942  1.9851
 7926SOL     OW24676   1.153   3.784   2.712 -0.3763  0.1350  0.6226
 7926SOL    HW124677   1.162   3.712   2.644 -1.4062  0.9711 -0.4312
 7926SOL    HW224678   1.213   3.764   2.790  1.4389 -0.4661 -0.8456
 7927SOL     OW24679   4.057   1.769   5.352  0.2449 -0.3585 -0.1647
 7927SOL    HW124680   4.014   1.743   5.439 -0.4415 -0.7828 -0.6169
 7927SOL    HW224681   4.123   1.700   5.325  0.5450 -0.1681  0.0690
 7928SOL     OW24682   3.450   4.164   4.627  0.3868  0.0314  0.2135
 7928SOL    HW124683   3.359   4.131   4.603  0.2543 -0.3609  1.2307
 7928SOL    HW224684   3.448   4.207   4.717  0.7290  2.0886 -0.6933
 7929SOL     OW24685   2.921   3.350   4.470 -0.4112  0.1865 -0.4595
 7929SOL    HW124686   2.900   3.373   4.565  1.6222  0.9359 -0.1553
 7929SOL    HW224687   2.983   3.272   4.466 -0.0097  0.5286 -1.1529
 7930SOL     OW24688   1.317   0.424   5.430  0.6599 -0.0103 -0.0121
 7930SOL    HW124689   1.262   0.494   5.475  0.1715 -1.1184  1.1833
 7930SOL    HW224690   1.410   0.427   5.467  0.5117 -0.2911  0.3946
 7931SOL     OW24691   4.949   6.178   3.656  0.2356 -0.4787  0.0616
 7931SOL    HW124692   4.881   6.247   3.681  1.5973  0.6174  0.8410
 7931SOL    HW224693   4.960   6.177   3.556  1.2745  1.5396  0.1076
 7932SOL     OW24694   4.892   6.621   1.428  0.6582 -0.3402 -0.3379
 7932SOL    HW124695   4.807   6.674   1.430  0.3245 -0.8283 -1.1333
 7932SOL    HW224696   4.967   6.678   1.463  0.2715  0.5826 -0.9541
 7933SOL     OW24697   0.391   3.077   2.429  0.5313 -0.7246  0.1308
 7933SOL    HW124698   0.351   2.994   2.469  1.0981 -0.0761  2.1658
 7933SOL    HW224699   0.327   3.152   2.437  1.1257 -0.2937  1.0173
 7934SOL     OW24700   5.345   3.736   1.066 -0.0351 -0.3260  0.8173
 7934SOL    HW124701   5.423   3.767   1.122  1.9213  1.0519 -2.3506
 7934SOL    HW224702   5.283   3.813   1.051 -0.3801 -0.6049  0.8068
 7935SOL     OW24703   5.348   1.973   0.698  0.0599 -0.2235  0.4633
 7935SOL    HW124704   5.359   1.921   0.614 -2.3194 -0.2789  0.1087
 7935SOL    HW224705   5.346   2.071   0.677  0.4872 -0.1865  0.5925
 7936SOL     OW24706   3.829   6.335   4.325 -0.3732 -0.3840 -0.6375
 7936SOL    HW124707   3.877   6.419   4.302  0.0533 -0.9757 -1.9751
 7936SOL    HW224708   3.731   6.349   4.319 -0.5549  1.1149  3.0380
 7937SOL     OW24709   5.003   0.394   0.756 -0.0173  0.0184  0.5041
 7937SOL    HW124710   5.044   0.476   0.796  0.1625  0.2943 -0.2286
 7937SOL    HW224711   4.918   0.418   0.710 -1.5829 -0.7035  2.8399
 7938SOL     OW24712   3.259   5.357   5.537  0.4919  0.1048  0.5097
 7938SOL    HW124713   3.247   5.262   5.510 -1.3257  0.3938  0.1986
 7938SOL    HW224714   3.259   5.364   5.637  2.1792 -0.3666  0.5762
 7939SOL     OW24715   0.352   5.643   3.527  0.1593  0.4745  0.6014
 7939SOL    HW124716   0.377   5.709   3.456  1.0885 -0.5451 -0.0527
 7939SOL    HW224717   0.315   5.560   3.484 -0.9122  0.5226  1.4050
 7940SOL     OW24718   4.858   4.596   0.295 -0.3491  0.1014  0.6995
 7940SOL    HW124719   4.891   4.684   0.328 -1.4059  1.4315 -1.5329
 7940SOL    HW224720   4.934   4.542   0.260  0.1350  0.7049  0.8081
 7941SOL     OW24721   1.519   6.281   0.255 -0.6090  0.4335 -0.1444
 7941SOL    HW124722   1.497   6.340   0.333 -1.0379 -0.1877  0.2128
 7941SOL    HW224723   1.453   6.296   0.182 -2.1337 -1.2201  0.8163
 7942SOL     OW24724   0.385   5.177   4.422 -0.5139 -0.2594 -0.0058
 7942SOL    HW124725   0.460   5.217   4.474 -0.4869  0.2858 -0.4619
 7942SOL    HW224726   0.419   5.100   4.368 -0.6204 -1.1005  1.0862
 7943SOL     OW24727   5.393   4.741   4.386 -0.1132  0.4541  0.1863
 7943SOL    HW124728   5.444   4.824   4.365 -0.2539  0.2823 -0.8767
 7943SOL    HW224729   5.394   4.680   4.307  0.0476 -0.5916  0.9702
 7944SOL     OW24730   1.112   3.089   1.202 -0.3386  0.1712 -0.0413
 7944SOL    HW124731   1.128   3.183   1.172 -1.0799  0.0663 -0.8171
 7944SOL    HW224732   1.021   3.060   1.172 -0.9267 -0.1351  1.8734
 7945SOL     OW24733   1.081   6.326   1.530  0.4234 -0.5136  0.2458
 7945SOL    HW124734   1.064   6.259   1.458 -0.8356  0.3068 -0.2360
 7945SOL    HW224735   1.023   6.406   1.517  0.5723 -0.0998  1.8571
 7946SOL     OW24736   1.025   1.893   3.236 -0.5362 -0.9996  0.4106
 7946SOL    HW124737   1.006   1.984   3.199 -0.3121 -0.6397  1.1669
 7946SOL    HW224738   0.993   1.888   3.331  0.7740 -1.2272  0.8547
 7947SOL     OW24739   2.696   2.011   5.352 -0.2686 -0.3441  0.0461
 7947SOL    HW124740   2.600   1.998   5.375  0.1686 -0.1785  2.1951
 7947SOL    HW224741   2.752   1.944   5.400  0.9081  1.3133  1.0941
 7948SOL     OW24742   7.008   4.161   3.180 -0.2036  0.1316  0.0436
 7948SOL    HW124743   6.993   4.229   3.109  0.4501  0.9362  0.6661
 7948SOL    HW224744   6.921   4.137   3.223 -0.4850  0.2608 -0.4505
 7949SOL     OW24745   2.787   1.097   1.980 -0.0194  0.0984 -0.3833
 7949SOL    HW124746   2.825   1.133   2.065  0.1851  0.1536 -0.4988
 7949SOL    HW224747   2.719   1.027   2.001 -0.9479  1.0452 -0.1282
 7950SOL     OW24748   0.661   1.013   0.573 -0.9573  1.0140  0.0657
 7950SOL    HW124749   0.653   1.028   0.474 -0.3845  0.5095 -0.0700
 7950SOL    HW224750   0.757   1.023   0.600 -0.5085 -2.1149 -0.0339
 7951SOL     OW24751   6.758   2.042   4.738  0.3362  0.4638  0.1608
 7951SOL    HW124752   6.744   1.957   4.688 -0.1335  0.1659  0.7875
 7951SOL    HW224753   6.670   2.080   4.766  0.5517  1.0516  0.0685
 7952SOL     OW24754   1.044   1.127   5.473  0.2201  0.1352 -0.3420
 7952SOL    HW124755   1.103   1.208   5.471  1.0857 -0.4782 -0.6033
 7952SOL    HW224756   1.011   1.107   5.381  0.1022  0.1322 -0.2989
 7953SOL     OW24757   1.565   4.520   1.852 -0.4954 -0.1249  0.5719
 7953SOL    HW124758   1.520   4.444   1.806  1.3196 -0.6625 -0.4262
 7953SOL    HW224759   1.642   4.486   1.906 -0.0216  0.9350  0.5923
 7954SOL     OW24760   0.780   0.876   1.330  0.0036 -0.0876 -0.8640
 7954SOL    HW124761   0.833   0.937   1.270 -0.9901 -0.3059 -2.0115
 7954SOL    HW224762   0.743   0.929   1.406  0.1923  0.4833 -1.1540
 7955SOL     OW24763   2.023   5.677   4.392 -0.0502 -0.4597  0.1393
 7955SOL    HW124764   1.969   5.593   4.401 -3.1962  1.0895 -2.3983
 7955SOL    HW224765   2.097   5.662   4.325  0.1037 -1.4723  0.5165
 7956SOL     OW24766   2.596   3.800   0.764  0.1596  0.3170 -0.0867
 7956SOL    HW124767   2.529   3.730   0.788  1.6521 -0.8592  0.7832
 7956SOL    HW224768   2.598   3.811   0.664 -2.5961  1.7369 -0.1011
 7957SOL     OW24769   1.285   5.717   4.924  0.0799 -0.1517 -0.0497
 7957SOL    HW124770   1.291   5.632   4.872 -1.1164 -0.1024 -0.2813
 7957SOL    HW224771   1.220   5.779   4.880 -1.3566 -0.3028  1.7573
 7958SOL     OW24772   1.945   0.390   4.863 -0.1011 -0.2551  0.5324
 7958SOL    HW124773   1.909   0.309   4.909  0.8746 -0.9542  0.0938
 7958SOL    HW224774   1.994   0.363   4.780 -0.7470  0.8850 -0.2459
 7959SOL     OW24775   4.704   4.384   0.310  0.4787 -0.1077 -0.1202
 7959SOL    HW124776   4.762   4.466   0.310 -1.9173  1.7077 -0.3334
 7959SOL    HW224777   4.667   4.369   0.219  0.5254 -1.1740  0.0230
 7960SOL     OW24778   0.057   6.093   4.455 -0.5251 -0.4674 -0.1764
 7960SOL    HW124779   0.000   6.069   4.534  0.5812 -1.5765  0.3268
 7960SOL    HW224780   0.093   6.010   4.413 -0.1512  0.1617 -1.1408
 7961SOL     OW24781   6.912   4.670   5.175  0.1778  0.8384 -0.3459
 7961SOL    HW124782   6.859   4.671   5.090 -0.9462  2.9857  0.3001
 7961SOL    HW224783   6.965   4.755   5.182  1.0678  0.2220  0.6278
 7962SOL     OW24784   5.020   6.796   2.392 -0.2042  0.0320 -0.0427
 7962SOL    HW124785   5.079   6.804   2.311  0.8390  0.8912  0.7748
 7962SOL    HW224786   4.955   6.721   2.378 -0.0162  0.1144 -1.6439
 7963SOL     OW24787   4.144   6.193   5.100  0.6977  0.4634 -0.1751
 7963SOL    HW124788   4.143   6.094   5.103 -0.4167  0.4135 -1.2599
 7963SOL    HW224789   4.214   6.224   5.035  0.4256  0.3432 -0.5316
 7964SOL     OW24790   3.138   6.124   4.851  0.3575  0.0500  0.2265
 7964SOL    HW124791   3.097   6.114   4.760 -0.1103  0.4846  0.3826
 7964SOL    HW224792   3.196   6.045   4.870 -1.2907 -1.1777  0.4505
 7965SOL     OW24793   1.332   4.084   4.001 -0.0391  0.0215 -0.0479
 7965SOL    HW124794   1.342   4.157   3.934  3.3253 -1.0644 -0.9055
 7965SOL    HW224795   1.340   3.995   3.955  0.5951 -0.7724  1.5228
 7966SOL     OW24796   6.044   5.194   0.560  0.2782 -0.2993 -0.1204
 7966SOL    HW124797   6.062   5.143   0.645  0.8331 -1.7749 -1.0764
 7966SOL    HW224798   6.092   5.281   0.563  2.0851 -1.2470  0.2317
 7967SOL     OW24799   3.887   6.704   4.968 -0.2806  0.1703  0.1606
 7967SOL    HW124800   3.934   6.676   5.052  0.9462  1.3877 -0.0723
 7967SOL    HW224801   3.850   6.624   4.922 -0.4335 -0.5876  1.5395
 7968SOL     OW24802   2.033   2.962   2.802  0.4052 -0.4903 -0.0152
 7968SOL    HW124803   1.937   2.949   2.779  1.1044 -2.9612 -1.8680
 7968SOL    HW224804   2.062   2.889   2.864  1.0092  0.5329  0.9476
 7969SOL     OW24805   4.610   1.663   2.833  0.1607  0.0214  0.3030
 7969SOL    HW124806   4.625   1.731   2.904 -2.0507  0.1913  0.6748
 7969SOL    HW224807   4.658   1.579   2.857  2.0610  1.0659  0.3602
 7970SOL     OW24808   6.551   6.337   2.530 -0.0217  1.0940  0.2951
 7970SOL    HW124809   6.456   6.320   2.556  0.4224  1.2516  2.2102
 7970SOL    HW224810   6.595   6.250   2.508 -0.8016  1.1062 -1.4129
 7971SOL     OW24811   5.987   0.036   4.382  0.2778 -0.1266  0.2475
 7971SOL    HW124812   5.935   0.060   4.464  0.7737 -3.7096  1.7949
 7971SOL    HW224813   5.940  -0.038   4.333  0.7271  0.9745 -1.9802
 7972SOL     OW24814   1.264   7.006   6.559  0.0827  0.1606  0.0485
 7972SOL    HW124815   1.344   6.970   6.511 -0.8277 -1.9993  0.0316
 7972SOL    HW224816   1.278   6.998   6.658  0.2761  0.7076  0.0677
 7973SOL     OW24817   6.778   5.487   6.690 -0.1993 -0.2957  0.1573
 7973SOL    HW124818   6.816   5.414   6.747  0.3528 -1.0731 -1.1473
 7973SOL    HW224819   6.833   5.496   6.607 -0.0630  1.8511  0.4254
 7974SOL     OW24820   2.942   1.730   2.815  0.5600  0.0846  0.1108
 7974SOL    HW124821   2.873   1.798   2.840  0.3397  0.0115 -0.3031
 7974SOL    HW224822   2.929   1.701   2.720  0.9391 -0.1944  0.1391
 7975SOL     OW24823   2.007   6.756   0.941  0.4926 -0.1159  0.4389
 7975SOL    HW124824   1.930   6.806   0.980 -0.0838 -0.3106 -0.4165
 7975SOL    HW224825   2.023   6.672   0.994  1.0942  0.6629  1.5270
 7976SOL     OW24826   4.701   5.463   6.343 -0.1129 -0.2892 -0.1048
 7976SOL    HW124827   4.625   5.468   6.278 -0.3195 -1.7233 -0.0052
 7976SOL    HW224828   4.666   5.430   6.431  0.7282 -1.7214 -0.2793
 7977SOL     OW24829   5.028   1.125   5.494 -0.0801  0.2656 -0.2584
 7977SOL    HW124830   4.995   1.106   5.586  1.0535  0.3017  0.1667
 7977SOL    HW224831   5.128   1.119   5.492 -0.1444 -0.8648 -1.7454
 7978SOL     OW24832   4.941   2.699   1.740  0.0285 -0.0820  0.0677
 7978SOL    HW124833   4.895   2.788   1.737  1.1070  0.5258  0.8514
 7978SOL    HW224834   4.925   2.650   1.655 -0.5561  0.8817 -0.3886
 7979SOL     OW24835   5.839   0.984   5.031 -0.1307  0.5132  0.1810
 7979SOL    HW124836   5.899   1.052   4.988  2.1849  0.0053  2.3885
 7979SOL    HW224837   5.822   0.909   4.967 -1.0391  2.1379 -1.5697
 7980SOL     OW24838   6.742   6.898   3.416  0.2572  0.1452 -0.3702
 7980SOL    HW124839   6.690   6.815   3.437 -0.5280  0.5385 -0.7016
 7980SOL    HW224840   6.836   6.888   3.447 -0.0920 -0.4715  0.5167
 7981SOL     OW24841   2.486   5.224   6.426 -0.1868 -0.2400 -0.5970
 7981SOL    HW124842   2.555   5.189   6.362  2.7469  0.6540  1.8189
 7981SOL    HW224843   2.515   5.314   6.460 -2.1189 -0.2284  1.2180
 7982SOL     OW24844   3.788   6.105   0.627  0.0158  0.1368 -0.6286
 7982SOL    HW124845   3.832   6.150   0.549  0.3526 -0.0748 -0.5644
 7982SOL    HW224846   3.746   6.020   0.597 -0.0356  0.1596 -0.6210
 7983SOL     OW24847   2.679   0.898   4.817 -0.2430 -0.1276 -0.5033
 7983SOL    HW124848   2.700   0.874   4.722  1.6908 -1.8489  0.2852
 7983SOL    HW224849   2.672   0.997   4.826  2.8479  0.3179 -1.8510
 7984SOL     OW24850   5.488   3.732   3.691 -0.2098  0.4142 -0.2881
 7984SOL    HW124851   5.528   3.773   3.773  0.0751 -0.0980 -0.1690
 7984SOL    HW224852   5.526   3.641   3.677  0.0180  0.6442 -1.2062
 7985SOL     OW24853   6.831   3.233   1.858  0.2340  0.0684 -0.1799
 7985SOL    HW124854   6.838   3.227   1.958  1.0462  0.5070 -0.2050
 7985SOL    HW224855   6.885   3.311   1.825  1.9680 -1.4496 -1.1497
 7986SOL     OW24856   4.803   5.095   6.719  0.3580  0.5051 -0.0822
 7986SOL    HW124857   4.854   5.114   6.802  0.4124  0.6568 -0.1499
 7986SOL    HW224858   4.857   5.122   6.639  0.3991  0.1500 -0.1761
 7987SOL     OW24859   2.779   0.688   0.383 -0.0983  0.0151 -0.2857
 7987SOL    HW124860   2.838   0.757   0.341 -0.0211  0.3701  0.3907
 7987SOL    HW224861   2.754   0.717   0.476 -0.2045 -0.7833 -0.0549
 7988SOL     OW24862   7.000   5.311   0.431 -0.3864  0.1248 -0.5182
 7988SOL    HW124863   6.933   5.248   0.392 -0.3485  0.0418 -0.4487
 7988SOL    HW224864   6.991   5.313   0.530 -2.9212  3.0254 -0.6647
 7989SOL     OW24865   3.382   1.924   6.511  0.3118  0.3435  0.2488
 7989SOL    HW124866   3.458   1.977   6.473  0.7839 -1.6929 -1.8559
 7989SOL    HW224867   3.303   1.930   6.450  0.0018 -0.4585  0.5585
 7990SOL     OW24868   4.404   5.341   1.297 -0.0754 -0.4366 -0.4083
 7990SOL    HW124869   4.440   5.412   1.358 -0.3796 -0.7605  0.1594
 7990SOL    HW224870   4.333   5.380   1.239  1.4582  0.3300 -1.8683
 7991SOL     OW24871   0.618   4.852   6.641  0.1448  0.6904  0.0354
 7991SOL    HW124872   0.635   4.910   6.721 -1.1681 -0.5696  1.3040
 7991SOL    HW224873   0.535   4.883   6.595 -1.2635 -0.7837  1.4253
 7992SOL     OW24874   2.777   5.461   1.779 -0.7396 -0.1167  0.1977
 7992SOL    HW124875   2.765   5.362   1.772  0.1372 -0.2645  0.6219
 7992SOL    HW224876   2.863   5.481   1.826  0.1755  0.8589 -1.7878
 7993SOL     OW24877   1.791   3.578   3.800 -0.5597 -0.6965  0.2146
 7993SOL    HW124878   1.807   3.490   3.845  2.3095 -0.1981  0.3562
 7993SOL    HW224879   1.777   3.648   3.869 -0.2756 -0.6297  0.2072
 7994SOL     OW24880   5.364   0.481   1.797 -0.3737 -0.0603  0.2193
 7994SOL    HW124881   5.321   0.392   1.781  0.2357 -0.4206  0.5284
 7994SOL    HW224882   5.310   0.533   1.864  0.4294 -1.1032  1.7298
 7995SOL     OW24883   5.923   2.355   1.929  0.2916 -0.0569  0.0990
 7995SOL    HW124884   5.850   2.405   1.882  1.4253  0.8763 -0.7639
 7995SOL    HW224885   5.900   2.345   2.026 -1.5317 -0.9062 -0.3831
 7996SOL     OW24886   1.430   5.584   2.496 -0.0235  0.2401  0.2952
 7996SOL    HW124887   1.516   5.606   2.543  0.1919 -0.7531  0.3816
 7996SOL    HW224888   1.404   5.661   2.438  1.4547  0.1702 -0.5244
 7997SOL     OW24889   3.778   2.111   3.000  0.5011  0.4192  0.4220
 7997SOL    HW124890   3.799   2.015   2.984  1.5273  0.6444  0.3059
 7997SOL    HW224891   3.738   2.152   2.918 -0.1494  0.0436  0.5477
 7998SOL     OW24892   5.200   0.315   5.197  0.1646 -0.6111  0.1181
 7998SOL    HW124893   5.195   0.314   5.296  1.5588 -1.9781  0.2153
 7998SOL    HW224894   5.271   0.378   5.167 -1.7238  1.5102 -0.1729
 7999SOL     OW24895   4.753   2.779   2.668  0.0704  0.0558  0.1578
 7999SOL    HW124896   4.850   2.787   2.643  0.2172  0.2837  0.7783
 7999SOL    HW224897   4.746   2.765   2.766 -0.5883  1.4913  0.3402
 8000SOL     OW24898   2.957   1.953   1.184  0.3779  0.2122  0.1053
 8000SOL    HW124899   3.033   1.887   1.178 -0.9573 -1.3234 -0.6951
 8000SOL    HW224900   2.889   1.931   1.115 -0.9111  1.4404  0.9388
 8001SOL     OW24901   6.255   1.102   2.866  0.5840 -0.4392 -0.0818
 8001SOL    HW124902   6.161   1.079   2.838 -0.1972  0.5132  1.6144
 8001SOL    HW224903   6.297   1.022   2.908  0.2559 -0.6652 -0.1752
 8002SOL     OW24904   2.907   6.423   5.508  0.0615  0.1057  0.2143
 8002SOL    HW124905   2.999   6.461   5.521  0.1187 -0.3403  1.2060
 8002SOL    HW224906   2.853   6.485   5.452  0.9607  0.3846 -0.3765
 8003SOL     OW24907   4.947   3.511   2.676  0.1641  0.0346  0.0774
 8003SOL    HW124908   4.878   3.521   2.748  0.3985 -0.6219  0.3988
 8003SOL    HW224909   4.971   3.415   2.666 -1.3079 -0.1710 -2.2474
 8004SOL     OW24910   3.921   5.964   6.775 -0.3138 -0.0175 -0.2375
 8004SOL    HW124911   3.970   5.924   6.698 -1.4585 -2.3747  0.1615
 8004SOL    HW224912   3.978   5.961   6.857 -0.1364 -0.1868 -0.3678
 8005SOL     OW24913   2.299   3.621   5.814 -0.0163  0.2129 -0.1183
 8005SOL    HW124914   2.232   3.553   5.782  1.1095 -0.5565 -0.9319
 8005SOL    HW224915   2.382   3.574   5.844  0.3659  1.1767  0.3758
 8006SOL     OW24916   0.952   4.433   5.215 -0.0606 -0.0894  0.5298
 8006SOL    HW124917   0.979   4.529   5.206 -0.0640 -0.0693  0.7374
 8006SOL    HW224918   0.955   4.406   5.311 -0.2025 -0.2564  0.4882
 8007SOL     OW24919   6.774   6.618   3.734 -0.1300  0.3542  0.4417
 8007SOL    HW124920   6.679   6.626   3.705  0.5883  0.6449 -2.1302
 8007SOL    HW224921   6.795   6.522   3.753 -0.2644 -0.1809 -1.8069
 8008SOL     OW24922   0.213   0.887   2.507  0.0752  0.1718  0.3436
 8008SOL    HW124923   0.176   0.839   2.428 -0.1325 -1.0052  1.1460
 8008SOL    HW224924   0.161   0.865   2.589  1.3768 -0.0448  1.1507
 8009SOL     OW24925   6.515   0.721   1.206  0.1230  0.1894  0.0000
 8009SOL    HW124926   6.493   0.706   1.110  2.7084 -0.7297 -0.5210
 8009SOL    HW224927   6.496   0.637   1.258 -2.7065  1.1286  0.6933
 8010SOL     OW24928   3.292   5.491   4.961 -0.5067  0.3791  0.1999
 8010SOL    HW124929   3.291   5.465   4.864 -1.0207 -0.9748  0.5374
 8010SOL    HW224930   3.386   5.497   4.993 -0.3407  0.4366 -0.2867
 8011SOL     OW24931   2.873   5.023   2.822  0.3712 -0.6436 -0.0451
 8011SOL    HW124932   2.948   4.959   2.806  1.7102  0.8714 -0.0765
 8011SOL    HW224933   2.788   4.986   2.783  1.5623 -1.3898 -2.0797
 8012SOL     OW24934   6.820   6.152   4.851  0.3938 -1.3914 -0.4246
 8012SOL    HW124935   6.758   6.095   4.905  1.1938  0.3591  2.5451
 8012SOL    HW224936   6.907   6.161   4.899  0.3213  2.2621 -0.6987
 8013SOL     OW24937   6.077   6.359   1.452 -0.2287  0.3185 -0.8196
 8013SOL    HW124938   6.064   6.453   1.421  0.1795 -0.0473 -2.1340
 8013SOL    HW224939   5.988   6.315   1.463 -0.6214  1.6142  2.4181
 8014SOL     OW24940   3.650   4.098   2.525 -0.2624  0.1113 -0.0697
 8014SOL    HW124941   3.700   4.051   2.452 -0.2596 -0.2206  0.1425
 8014SOL    HW224942   3.563   4.131   2.489 -0.5635 -0.6420 -0.0616
 8015SOL     OW24943   3.430   5.515   4.278  0.1864 -0.9732  0.4605
 8015SOL    HW124944   3.331   5.523   4.269  0.0613 -2.3247  0.3376
 8015SOL    HW224945   3.457   5.538   4.371 -0.4199 -1.8801  0.8772
 8016SOL     OW24946   1.148   5.023   3.229  0.1473 -0.5928 -0.2844
 8016SOL    HW124947   1.113   5.039   3.136  0.6748  1.5392 -0.1622
 8016SOL    HW224948   1.178   5.109   3.269  4.1805 -2.0091  0.1957
 8017SOL     OW24949   2.447   2.408   5.132 -0.4615 -0.0009 -0.0894
 8017SOL    HW124950   2.452   2.500   5.170 -1.3743 -0.7563  2.0332
 8017SOL    HW224951   2.530   2.357   5.156 -0.6729 -0.2273  0.1661
 8018SOL     OW24952   5.162   2.092   4.511  0.0940  0.5373 -0.3997
 8018SOL    HW124953   5.125   2.068   4.600 -2.2819  1.0427 -1.1600
 8018SOL    HW224954   5.122   2.178   4.480 -0.2822 -0.3206 -2.5425
 8019SOL     OW24955   6.206   1.641   2.676 -0.4180  0.0086 -0.1019
 8019SOL    HW124956   6.301   1.633   2.646 -0.2946  3.4224 -1.0179
 8019SOL    HW224957   6.204   1.663   2.773 -0.2355  0.2627 -0.1532
 8020SOL     OW24958   5.814   2.348   2.188  0.0721  0.2657  0.3973
 8020SOL    HW124959   5.760   2.430   2.171 -1.0456 -0.1603  1.7523
 8020SOL    HW224960   5.876   2.364   2.265  0.3673  0.0608  0.2078
 8021SOL     OW24961   6.680   0.302   0.214  0.3623  0.0290  0.2766
 8021SOL    HW124962   6.650   0.350   0.296  0.2639  1.1898 -0.4253
 8021SOL    HW224963   6.622   0.222   0.200 -2.0884  1.8567 -0.6781
 8022SOL     OW24964   6.572   3.886   3.318  0.4843 -0.0084 -0.1865
 8022SOL    HW124965   6.591   3.984   3.313  0.2218  0.1039  0.8361
 8022SOL    HW224966   6.657   3.837   3.336  0.7132 -0.0316 -1.2648
 8023SOL     OW24967   4.130   4.475   1.738  0.0994  0.2846  0.0620
 8023SOL    HW124968   4.078   4.550   1.779  0.6364  0.0860  1.1344
 8023SOL    HW224969   4.218   4.466   1.785  0.2598 -0.6736 -0.4110
 8024SOL     OW24970   1.685   4.531   4.543 -0.0993  0.5277 -0.2474
 8024SOL    HW124971   1.621   4.607   4.544 -0.4098  0.2782  1.7143
 8024SOL    HW224972   1.679   4.481   4.629 -1.0260 -2.6803 -2.0269
 8025SOL     OW24973   5.323   6.297   5.434 -0.4154 -0.4352 -0.3504
 8025SOL    HW124974   5.368   6.339   5.356 -0.8182 -0.2079 -0.4640
 8025SOL    HW224975   5.346   6.199   5.438 -0.1813 -0.3901 -0.5920
 8026SOL     OW24976   6.935   3.975   0.070 -0.2549  0.3168 -0.0455
 8026SOL    HW124977   6.961   3.996   0.165 -1.7779 -0.5336  0.5936
 8026SOL    HW224978   7.016   3.984   0.011  0.5617  1.6454  1.1790
 8027SOL     OW24979   1.236   0.927   3.939  0.3955 -0.5960  0.3277
 8027SOL    HW124980   1.157   0.968   3.894  0.5075 -0.6033  0.1211
 8027SOL    HW224981   1.290   0.876   3.871  1.0136  0.0750  0.2975
 8028SOL     OW24982   6.340   4.976   5.883  0.0327 -0.3448  0.2369
 8028SOL    HW124983   6.377   4.968   5.976 -0.0083  2.0822  0.5175
 8028SOL    HW224984   6.305   5.069   5.869  1.0737 -0.2971 -2.5929
 8029SOL     OW24985   5.695   3.818   1.573  0.2309 -0.4303  0.1366
 8029SOL    HW124986   5.744   3.792   1.657 -0.3775  0.5044  0.7986
 8029SOL    HW224987   5.664   3.735   1.526  1.2502 -0.9924  0.4148
 8030SOL     OW24988   2.529   6.214   1.062  0.2899  0.1815  0.1685
 8030SOL    HW124989   2.628   6.209   1.073  0.1976  0.1092  1.0330
 8030SOL    HW224990   2.505   6.202   0.966  1.0727 -0.5090  0.0546
 8031SOL     OW24991   2.590   1.541   0.957  0.5838 -0.2114  0.3872
 8031SOL    HW124992   2.492   1.560   0.959  0.8243  2.1197 -2.4733
 8031SOL    HW224993   2.637   1.595   1.026 -0.0120 -0.4823  1.0090
 8032SOL     OW24994   2.175   3.114   5.177 -0.3253  0.0265 -0.0263
 8032SOL    HW124995   2.140   3.053   5.248  0.7186 -0.0468  0.4482
 8032SOL    HW224996   2.254   3.072   5.133  1.3947  1.5934  1.3545
 8033SOL     OW24997   6.158   2.793   6.700  0.3203  0.4119 -0.5132
 8033SOL    HW124998   6.253   2.813   6.724  0.3832  0.4984 -0.8261
 8033SOL    HW224999   6.156   2.750   6.609  0.1408 -0.4298 -0.1218
 8034SOL     OW25000   0.786   1.063   4.766 -0.5699  0.5018  0.5078
 8034SOL    HW125001   0.844   1.044   4.845  0.0062 -1.3102 -0.2970
 8034SOL    HW225002   0.841   1.054   4.682 -2.0945 -1.9952 -0.3330
 8035SOL     OW25003   5.665   5.258   4.007  0.3973 -0.0228  0.0982
 8035SOL    HW125004   5.691   5.256   3.910  0.2043  0.0741  0.0443
 8035SOL    HW225005   5.741   5.295   4.060 -0.2172  1.8364 -0.2532
 8036SOL     OW25006   5.007   0.448   3.063 -0.0330  0.2776  0.3174
 8036SOL    HW125007   5.068   0.528   3.063  0.9189 -0.4378  0.1784
 8036SOL    HW225008   4.958   0.444   3.149  0.4149  0.6473  0.5945
 8037SOL     OW25009   5.724   5.053   0.213  0.1666  0.3415  0.8253
 8037SOL    HW125010   5.690   4.960   0.230  0.2414  0.2207  0.3281
 8037SOL    HW225011   5.819   5.048   0.182 -0.6897  0.3623 -2.0230
 8038SOL     OW25012   1.010   5.685   1.821  0.1014  0.3164 -0.0184
 8038SOL    HW125013   1.090   5.670   1.763 -0.1195  0.4795 -0.3656
 8038SOL    HW225014   0.933   5.716   1.765 -0.8060 -1.7804 -0.0214
 8039SOL     OW25015   6.777   0.658   6.298 -0.0322 -0.3301 -0.0522
 8039SOL    HW125016   6.766   0.578   6.357  2.5786  0.1975  1.2734
 8039SOL    HW225017   6.862   0.650   6.246 -0.6629  0.7488 -1.2946
 8040SOL     OW25018   6.196   3.191   3.914  0.4953  0.6712 -0.1420
 8040SOL    HW125019   6.266   3.252   3.876  0.3738  0.8570 -0.0725
 8040SOL    HW225020   6.239   3.109   3.951  0.9237  1.7792  1.9620
 8041SOL     OW25021   5.932   3.918   3.405 -0.4061 -0.1084  0.2030
 8041SOL    HW125022   5.953   3.885   3.313 -0.2937 -1.1411  0.5893
 8041SOL    HW225023   5.938   3.843   3.470  1.3874  0.9724  1.3622
 8042SOL     OW25024   5.269   5.978   3.015 -0.2189  0.4474  0.0988
 8042SOL    HW125025   5.273   5.919   2.935  0.4441  1.0384 -0.3128
 8042SOL    HW225026   5.352   6.032   3.021 -0.0756  0.1358  1.4091
 8043SOL     OW25027   5.576   4.133   4.812  0.8190 -0.6537 -0.0444
 8043SOL    HW125028   5.578   4.124   4.713  1.2042  0.4906 -0.1514
 8043SOL    HW225029   5.579   4.042   4.854  2.0905 -1.0984 -1.0531
 8044SOL     OW25030   6.221   2.433   4.020 -0.2681  0.2020 -0.3287
 8044SOL    HW125031   6.311   2.450   4.059 -0.6594  0.0860  0.6547
 8044SOL    HW225032   6.178   2.357   4.068 -0.9442  0.3377 -0.7105
 8045SOL     OW25033   6.882   6.104   0.566 -0.2688  0.1684 -0.7095
 8045SOL    HW125034   6.977   6.098   0.537  0.2183 -0.0252  0.8026
 8045SOL    HW225035   6.863   6.196   0.601 -0.5422  0.1239 -0.7372
 8046SOL     OW25036   5.250   6.646   6.126  1.1553 -0.0998  0.4722
 8046SOL    HW125037   5.230   6.652   6.028  1.4733 -4.0938 -0.0257
 8046SOL    HW225038   5.165   6.654   6.178  0.9637  1.8907 -0.0635
 8047SOL     OW25039   1.388   0.533   5.168 -0.1756  1.0923  0.0209
 8047SOL    HW125040   1.368   0.500   5.260  0.8469 -0.2279 -0.1971
 8047SOL    HW225041   1.486   0.525   5.150 -0.4596  0.5682 -1.4535
 8048SOL     OW25042   2.618   6.407   3.938  0.3979  0.2194 -0.5280
 8048SOL    HW125043   2.546   6.466   3.975  0.5337 -0.2085  0.4582
 8048SOL    HW225044   2.630   6.426   3.841 -1.0179  0.3309 -0.7009
 8049SOL     OW25045   3.851   0.930   7.005  0.1156 -0.0622 -0.0557
 8049SOL    HW125046   3.926   0.992   7.026  0.7189 -0.7049 -0.2620
 8049SOL    HW225047   3.766   0.982   6.995  0.7299  0.8203 -0.9373
 8050SOL     OW25048   5.307   4.505   3.006  0.1665 -0.0825  0.1612
 8050SOL    HW125049   5.306   4.429   3.072  0.2484  0.1921  0.4780
 8050SOL    HW225050   5.348   4.474   2.921 -2.3923 -1.2821 -0.7580
 8051SOL     OW25051   3.520   6.408   6.710 -0.5656  0.1806 -0.6166
 8051SOL    HW125052   3.445   6.349   6.683 -0.5636  0.8148 -2.0953
 8051SOL    HW225053   3.491   6.466   6.786 -1.0411 -0.6654 -0.1342
 8052SOL     OW25054   0.856   0.663   3.417  0.8331 -0.2801  0.2460
 8052SOL    HW125055   0.798   0.745   3.418  0.1686 -0.6866 -1.0557
 8052SOL    HW225056   0.818   0.595   3.479 -0.4868 -0.7699 -1.0448
 8053SOL     OW25057   5.435   3.520   1.573 -0.4620  0.7069  0.0798
 8053SOL    HW125058   5.376   3.590   1.535  0.2358  1.7658  0.8829
 8053SOL    HW225059   5.519   3.513   1.519 -1.0464 -0.3726 -0.7087
 8054SOL     OW25060   5.186   4.231   6.044  0.8300 -0.0679 -0.3202
 8054SOL    HW125061   5.265   4.268   5.996  0.8395 -0.8300 -0.9224
 8054SOL    HW225062   5.203   4.233   6.143  1.7934 -0.6154 -0.4588
 8055SOL     OW25063   1.366   4.818   4.802  0.1971  0.3548  0.2088
 8055SOL    HW125064   1.411   4.905   4.822 -0.5101  1.2813 -1.8821
 8055SOL    HW225065   1.283   4.836   4.747 -0.9945 -1.5102  1.2974
 8056SOL     OW25066   2.061   2.917   5.339  0.2512  0.3378  0.2509
 8056SOL    HW125067   2.004   2.836   5.325 -1.1787  1.3887 -0.2088
 8056SOL    HW225068   2.091   2.920   5.434 -1.7369  0.5072  0.9273
 8057SOL     OW25069   1.873   2.861   0.126 -0.1425  0.9379  0.2666
 8057SOL    HW125070   1.965   2.899   0.117  1.0055 -0.9842  2.7535
 8057SOL    HW225071   1.824   2.908   0.199 -1.4080  2.2974 -1.3803
 8058SOL     OW25072   5.713   2.628   2.197  0.3124 -0.0091  0.7035
 8058SOL    HW125073   5.767   2.709   2.219  0.4611 -0.3506  1.6136
 8058SOL    HW225074   5.647   2.611   2.270 -1.6116  0.8664 -0.7415
 8059SOL     OW25075   1.442   4.210   4.611 -0.0351  0.4431  0.3439
 8059SOL    HW125076   1.512   4.153   4.654  0.4706  1.0713  0.3569
 8059SOL    HW225077   1.351   4.179   4.640  0.1980 -0.7344 -0.0999
 8060SOL     OW25078   2.820   6.519   1.591 -0.3716 -0.0255 -0.4631
 8060SOL    HW125079   2.806   6.460   1.671 -0.8883 -0.2274 -0.7003
 8060SOL    HW225080   2.912   6.558   1.595  0.3400 -1.5901 -0.7898
 8061SOL     OW25081   4.965   0.126   4.704  0.1766 -0.2379  0.3100
 8061SOL    HW125082   5.061   0.157   4.707  0.0489  0.1481  0.4428
 8061SOL    HW225083   4.905   0.200   4.734 -0.1501 -0.5544  0.4427
 8062SOL     OW25084   0.736   3.930   2.938  0.2343  0.1187  0.1540
 8062SOL    HW125085   0.784   3.877   2.867 -0.1941 -0.3192  0.1892
 8062SOL    HW225086   0.797   4.003   2.971  0.8574 -0.3855  0.1487
 8063SOL     OW25087   0.705   3.812   3.196 -0.5006  0.1794 -0.3248
 8063SOL    HW125088   0.717   3.870   3.115 -1.3094  1.1411  0.2191
 8063SOL    HW225089   0.627   3.751   3.183  0.3133 -0.7577 -0.8733
 8064SOL     OW25090   3.707   6.527   2.007  0.0701 -0.2711  0.1058
 8064SOL    HW125091   3.685   6.605   1.949  1.7057 -0.0350 -0.2360
 8064SOL    HW225092   3.701   6.443   1.953 -0.3003 -0.2497  0.1090
 8065SOL     OW25093   4.257   5.336   4.264  0.4524  0.1564  0.2773
 8065SOL    HW125094   4.237   5.353   4.168 -0.1079  1.0988  0.5456
 8065SOL    HW225095   4.279   5.239   4.277 -0.1364 -0.1165 -0.6768
 8066SOL     OW25096   5.308   1.103   6.581 -0.7862 -0.0147 -0.6345
 8066SOL    HW125097   5.237   1.035   6.601  1.2273 -2.2589 -0.5650
 8066SOL    HW225098   5.361   1.122   6.664 -0.7039  0.8738 -0.8834
 8067SOL     OW25099   0.304   4.999   3.898  0.1019  0.4664 -0.4069
 8067SOL    HW125100   0.266   4.909   3.876 -1.6261  1.9479 -4.4275
 8067SOL    HW225101   0.399   5.004   3.867  0.0650  0.1545 -0.5773
 8068SOL     OW25102   6.583   4.412   6.652 -0.1140  0.1930  0.4572
 8068SOL    HW125103   6.632   4.415   6.739 -0.7007  1.0172  0.7694
 8068SOL    HW225104   6.640   4.367   6.583  0.8026  0.5272  0.9845
 8069SOL     OW25105   0.066   2.477   2.860  0.5412 -0.5721 -0.6917
 8069SOL    HW125106  -0.031   2.468   2.839  0.1536  1.5501 -0.0306
 8069SOL    HW225107   0.078   2.491   2.958  1.0682  3.2054 -1.1487
 8070SOL     OW25108   0.043   5.253   1.392  0.1222 -0.4387 -0.2837
 8070SOL    HW125109   0.089   5.170   1.425  0.2600 -0.3050 -0.1348
 8070SOL    HW225110   0.074   5.331   1.446  0.9723 -0.0836 -1.2757
 8071SOL     OW25111   6.328   1.938   2.756 -0.1571 -0.0401  0.6243
 8071SOL    HW125112   6.350   1.853   2.709 -0.8791  0.0142  0.1843
 8071SOL    HW225113   6.253   1.923   2.820 -1.7342  0.7094 -0.9785
 8072SOL     OW25114   0.243   3.495   2.025  0.3663 -0.0240 -0.4445
 8072SOL    HW125115   0.183   3.565   1.984  1.7904 -0.4415 -3.5655
 8072SOL    HW225116   0.332   3.536   2.045  0.3843 -0.3678  0.1860
 8073SOL     OW25117   5.016   1.892   4.017 -0.1958 -0.3974  0.1396
 8073SOL    HW125118   4.954   1.835   4.070  0.7470 -0.9485  0.6777
 8073SOL    HW225119   5.094   1.919   4.074  1.4166 -1.9140 -1.2116
 8074SOL     OW25120   3.441   3.565   0.102 -0.3894  0.0917  0.3489
 8074SOL    HW125121   3.437   3.474   0.142  0.4719  0.5173  1.4393
 8074SOL    HW225122   3.350   3.608   0.109 -0.9680 -0.8953 -0.7548
 8075SOL     OW25123   5.530   1.372   3.119 -0.2833  0.6505 -0.2360
 8075SOL    HW125124   5.464   1.446   3.111  1.3059  2.0693 -0.8039
 8075SOL    HW225125   5.605   1.387   3.055 -1.0366 -2.7527 -2.1815
 8076SOL     OW25126   0.678   6.565   2.913 -0.2282 -0.1690  0.1041
 8076SOL    HW125127   0.651   6.583   2.818 -0.5322 -0.9574  0.0307
 8076SOL    HW225128   0.674   6.466   2.930 -0.1043 -0.0375  0.9163
 8077SOL     OW25129   4.457   0.599   3.534 -0.2462  0.1072  0.2583
 8077SOL    HW125130   4.440   0.692   3.567 -0.2259 -0.2311  1.2512
 8077SOL    HW225131   4.391   0.577   3.462 -0.9639  0.5097  0.7731
 8078SOL     OW25132   2.095   5.923   5.425  0.1005  0.3068  0.5261
 8078SOL    HW125133   2.011   5.957   5.466 -1.0643 -0.9435 -0.7163
 8078SOL    HW225134   2.138   5.857   5.487 -0.6101 -0.1229  0.5718
 8079SOL     OW25135   1.902   6.889   0.227  0.8421 -0.1242 -0.4231
 8079SOL    HW125136   1.827   6.828   0.250  0.7306 -0.3263 -1.2859
 8079SOL    HW225137   1.965   6.896   0.304  1.3910 -2.1240 -0.6445
 8080SOL     OW25138   5.818   6.996   3.754 -1.0228 -0.6148 -0.0289
 8080SOL    HW125139   5.890   6.998   3.684 -2.1063  2.2121 -1.1884
 8080SOL    HW225140   5.858   7.013   3.844 -0.1525  0.5627 -0.6095
 8081SOL     OW25141   1.700   6.357   1.588  0.0820  0.1623 -0.3415
 8081SOL    HW125142   1.642   6.438   1.594 -1.6655 -1.0726  0.7782
 8081SOL    HW225143   1.757   6.362   1.507 -1.1270  1.7807 -1.1448
 8082SOL     OW25144   1.212   1.827   4.212  0.4197 -0.3926  0.1015
 8082SOL    HW125145   1.251   1.762   4.146  1.2279  0.9101 -0.7597
 8082SOL    HW225146   1.118   1.800   4.234  1.0476 -2.3639  0.5069
 8083SOL     OW25147   2.428   6.464   4.361 -0.0084  0.2713  0.3334
 8083SOL    HW125148   2.424   6.541   4.425  3.9641  0.0964  1.0597
 8083SOL    HW225149   2.447   6.380   4.411 -1.1920 -0.6917 -0.7550
 8084SOL     OW25150   5.780   3.331   1.364 -0.1213 -0.5080 -0.1723
 8084SOL    HW125151   5.737   3.258   1.418  0.3554 -1.6047 -1.2284
 8084SOL    HW225152   5.827   3.291   1.286  0.6582  0.9038 -0.4540
 8085SOL     OW25153   5.971   4.695   0.632 -0.2776 -0.5172 -0.1735
 8085SOL    HW125154   6.070   4.689   0.645 -0.2300 -1.3295 -0.7995
 8085SOL    HW225155   5.948   4.667   0.539 -0.9087  1.7438 -0.7572
 8086SOL     OW25156   1.406   0.370   5.844  0.2988  0.1287  0.2465
 8086SOL    HW125157   1.395   0.288   5.788  0.3526 -1.5437  2.5548
 8086SOL    HW225158   1.316   0.402   5.874  0.3883 -0.2095  0.8789
 8087SOL     OW25159   0.335   4.076   3.548  0.0201  0.1117  0.1513
 8087SOL    HW125160   0.279   4.148   3.506  0.7854  1.5590  1.5060
 8087SOL    HW225161   0.381   4.024   3.477 -0.7082  0.8260 -0.8754
 8088SOL     OW25162   5.399   6.686   3.254  0.5945 -0.4511 -0.3722
 8088SOL    HW125163   5.335   6.626   3.205 -0.6325  1.8294 -1.7352
 8088SOL    HW225164   5.353   6.727   3.332  0.5820  0.6765 -0.9571
 8089SOL     OW25165   6.605   6.674   6.365  0.0950  0.1985 -1.1551
 8089SOL    HW125166   6.520   6.636   6.401 -0.2963  0.9124 -1.3101
 8089SOL    HW225167   6.602   6.773   6.370  1.8369  0.2096  0.9263
 8090SOL     OW25168   0.440   0.553   6.306  0.0521  0.1496 -0.6108
 8090SOL    HW125169   0.526   0.593   6.274 -0.2461 -0.1236 -1.7848
 8090SOL    HW225170   0.458   0.461   6.341  0.3753  0.4373 -0.0013
 8091SOL     OW25171   4.821   4.340   5.285 -0.3724  0.9585 -0.1844
 8091SOL    HW125172   4.817   4.253   5.334 -2.1014  0.8354 -0.4883
 8091SOL    HW225173   4.915   4.356   5.253  0.2463 -0.1487  0.9924
 8092SOL     OW25174   3.134   6.594   4.700  0.3428  0.4910  0.1694
 8092SOL    HW125175   3.165   6.520   4.760  1.0002 -0.8552 -1.7125
 8092SOL    HW225176   3.036   6.585   4.684  0.0537  1.1868  1.4210
 8093SOL     OW25177   0.713   4.018   5.994  0.5699  0.7471 -0.6946
 8093SOL    HW125178   0.636   4.064   6.038  1.9815  1.2638  1.4119
 8093SOL    HW225179   0.683   3.929   5.959 -0.9499  0.8465  0.2338
 8094SOL     OW25180   6.509   4.300   2.772 -0.1425  0.2749  0.0634
 8094SOL    HW125181   6.467   4.389   2.752  0.8826  0.9505  0.8281
 8094SOL    HW225182   6.569   4.309   2.851  0.1637 -1.0544 -0.0085
 8095SOL     OW25183   4.774   4.985   0.033  0.2198  0.0626 -0.4135
 8095SOL    HW125184   4.755   4.889   0.053  1.8231 -0.1123  0.3833
 8095SOL    HW225185   4.742   5.042   0.108  0.2244  0.0557 -0.4066
 8096SOL     OW25186   6.000   4.814   5.146  0.3461 -0.4431 -0.3792
 8096SOL    HW125187   5.929   4.884   5.147  0.1696 -0.5478 -2.2673
 8096SOL    HW225188   5.966   4.733   5.099  1.8067 -0.3743 -1.6342
 8097SOL     OW25189   5.797   0.349   2.106  0.1327 -0.2087 -0.6037
 8097SOL    HW125190   5.809   0.291   2.025  0.2714 -2.4227  0.9110
 8097SOL    HW225191   5.702   0.346   2.135  0.1664  0.2477 -0.4404
 8098SOL     OW25192   5.637   5.107   4.376 -0.2371  0.0987  0.0817
 8098SOL    HW125193   5.606   5.202   4.383 -0.7520 -0.1810  2.1561
 8098SOL    HW225194   5.578   5.057   4.313 -3.5003 -0.1540  3.0865
 8099SOL     OW25195   6.051   4.885   4.579  0.2467  0.4478  0.3631
 8099SOL    HW125196   6.008   4.950   4.517 -0.7864 -2.4385 -2.2423
 8099SOL    HW225197   5.981   4.831   4.626  0.9676 -1.0223 -0.1630
 8100SOL     OW25198   5.930   4.460   4.258 -0.1707 -0.5954  0.8819
 8100SOL    HW125199   5.910   4.543   4.207 -1.1200 -0.0512  2.0838
 8100SOL    HW225200   6.026   4.460   4.286  0.6277 -1.3542 -1.6264
 8101SOL     OW25201   3.696   1.460   1.774 -0.6417 -0.1868  0.0840
 8101SOL    HW125202   3.617   1.468   1.713 -1.1489  0.9105  0.8389
 8101SOL    HW225203   3.709   1.547   1.822  1.4650 -0.1084 -0.5352
 8102SOL     OW25204   4.860   1.785   1.893 -0.6774 -1.3126 -0.0982
 8102SOL    HW125205   4.942   1.738   1.926 -0.4996 -0.4062  0.8173
 8102SOL    HW225206   4.826   1.846   1.964  0.2214  1.4022 -1.8389
 8103SOL     OW25207   2.475   3.973   5.791 -0.0943  0.0084 -0.0445
 8103SOL    HW125208   2.409   3.922   5.736 -0.0884  0.8435 -0.8526
 8103SOL    HW225209   2.426   4.033   5.854 -0.0994  0.0288 -0.0684
 8104SOL     OW25210   0.776   2.172   0.849 -0.1143 -0.5880 -0.4672
 8104SOL    HW125211   0.716   2.112   0.794 -0.8462 -0.3162  0.0204
 8104SOL    HW225212   0.722   2.245   0.889  0.7005  0.1378 -0.6665
 8105SOL     OW25213   1.140   5.561   0.048  0.0592  0.2347  0.1531
 8105SOL    HW125214   1.094   5.646   0.073 -1.2645  0.2952 -2.2087
 8105SOL    HW225215   1.071   5.491   0.026  1.1207 -1.2890  1.4234
 8106SOL     OW25216   5.211   5.547   0.695  0.2438  0.2078 -1.1834
 8106SOL    HW125217   5.239   5.618   0.760  1.9672 -0.0721 -1.5514
 8106SOL    HW225218   5.141   5.583   0.635 -2.4252  0.0749  1.5915
 8107SOL     OW25219   0.460   0.900   1.335  0.3619 -0.1389  0.0937
 8107SOL    HW125220   0.446   0.835   1.261  1.9574 -2.5674  1.7967
 8107SOL    HW225221   0.558   0.908   1.355  0.0053  0.7784  1.6672
 8108SOL     OW25222   4.017   1.182   5.413  0.7251 -0.0041  0.0490
 8108SOL    HW125223   4.102   1.135   5.433  0.7763 -0.0626 -0.2946
 8108SOL    HW225224   4.035   1.279   5.395  0.7029  0.0121  0.1154
 8109SOL     OW25225   5.809   0.274   5.014 -0.8932 -0.0050  0.2866
 8109SOL    HW125226   5.792   0.176   5.000  1.3745 -0.5043  0.6041
 8109SOL    HW225227   5.773   0.325   4.936 -2.4549 -1.0207  0.2891
 8110SOL     OW25228   3.426   4.878   5.731  0.4687 -0.1113  0.4355
 8110SOL    HW125229   3.456   4.974   5.726  0.2112  0.0865  2.1200
 8110SOL    HW225230   3.504   4.818   5.711  0.4708  0.4216 -1.3316
 8111SOL     OW25231   1.773   6.553   3.013 -0.2062 -0.0607  0.0488
 8111SOL    HW125232   1.851   6.493   2.996 -0.4967 -0.3572 -0.2444
 8111SOL    HW225233   1.688   6.499   3.012 -0.2723 -0.0792  2.2117
 8112SOL     OW25234   0.658   1.881   2.270 -0.0358 -0.7614  0.3090
 8112SOL    HW125235   0.661   1.946   2.194  1.3233 -2.2881 -1.0244
 8112SOL    HW225236   0.579   1.820   2.257  0.2330 -1.0628  0.0613
 8113SOL     OW25237   1.468   4.165   6.627  0.1616  0.1563 -0.0023
 8113SOL    HW125238   1.465   4.256   6.668  0.2456  0.5552 -0.8611
 8113SOL    HW225239   1.446   4.171   6.530 -1.4082 -0.9543  0.2395
 8114SOL     OW25240   5.060   5.610   5.834 -0.0024 -0.3372  0.1482
 8114SOL    HW125241   5.028   5.589   5.742  1.2336 -0.7607 -0.1967
 8114SOL    HW225242   5.030   5.538   5.897  1.1394 -1.2950 -0.3665
 8115SOL     OW25243   0.475   1.394   6.388 -0.2735  0.0421  0.0382
 8115SOL    HW125244   0.446   1.300   6.371 -0.0965 -0.3865  1.8826
 8115SOL    HW225245   0.394   1.452   6.400 -0.3795 -0.0825 -0.0688
 8116SOL     OW25246   6.071   1.095   2.066  0.4710  0.3575  0.2914
 8116SOL    HW125247   6.142   1.030   2.094 -0.8656 -1.2602  0.1343
 8116SOL    HW225248   6.092   1.186   2.101  2.3073 -0.1977  0.7174
 8117SOL     OW25249   3.996   1.420   3.773  0.2713  0.2295 -0.6124
 8117SOL    HW125250   4.015   1.469   3.688 -0.4677 -1.0756 -1.5750
 8117SOL    HW225251   4.076   1.424   3.833  0.8855  0.9981 -1.4654
 8118SOL     OW25252   1.087   0.532   0.150 -0.1437  0.1591  0.6236
 8118SOL    HW125253   1.023   0.478   0.204  0.6886  0.0210  1.4997
 8118SOL    HW225254   1.077   0.508   0.053 -2.5857  1.3657  0.5041
 8119SOL     OW25255   2.323   6.154   4.919 -0.1167 -0.0644  0.0756
 8119SOL    HW125256   2.288   6.103   4.997 -0.9752 -1.0065 -0.8934
 8119SOL    HW225257   2.335   6.250   4.944 -1.6639 -0.0817  0.9672
 8120SOL     OW25258   5.498   6.534   0.848 -0.3508  0.0157  0.0604
 8120SOL    HW125259   5.538   6.591   0.920 -0.1758  1.8289 -1.3825
 8120SOL    HW225260   5.425   6.478   0.886  1.2593 -0.8250  2.0752
 8121SOL     OW25261   6.747   0.826   2.451 -0.3042  0.3621 -0.2860
 8121SOL    HW125262   6.839   0.788   2.463 -0.0806  0.9153 -0.2255
 8121SOL    HW225263   6.687   0.789   2.522 -0.0063  0.3881 -0.0173
 8122SOL     OW25264   5.315   3.345   2.845  0.1097 -0.6014  0.4621
 8122SOL    HW125265   5.387   3.284   2.812 -0.1097 -0.2267 -0.7423
 8122SOL    HW225266   5.350   3.399   2.921  0.9220 -0.8402  0.2728
 8123SOL     OW25267   1.270   2.005   3.964 -0.0014  0.2441 -0.2539
 8123SOL    HW125268   1.217   2.004   3.880  0.0716  1.1418 -0.3273
 8123SOL    HW225269   1.212   1.978   4.041 -0.1452 -0.2940 -0.5491
 8124SOL     OW25270   5.038   3.398   2.259  0.0951  0.2585 -0.2698
 8124SOL    HW125271   4.949   3.378   2.217 -0.8470  1.0352  1.2483
 8124SOL    HW225272   5.053   3.336   2.336  1.7138 -1.0301 -1.5448
 8125SOL     OW25273   3.110   5.025   0.038 -0.5698  0.2966  0.6083
 8125SOL    HW125274   3.200   5.039  -0.004 -1.0280  1.1400 -0.1416
 8125SOL    HW225275   3.121   5.008   0.135  0.3539  1.4498  0.7274
 8126SOL     OW25276   0.077   6.262   1.257 -0.4230  0.1800  0.3193
 8126SOL    HW125277   0.081   6.337   1.190  0.1459 -0.0248  0.1228
 8126SOL    HW225278   0.095   6.298   1.348  1.2492  0.0754  0.0622
 8127SOL     OW25279   3.271   4.704   0.227 -0.0709  0.8213 -0.2899
 8127SOL    HW125280   3.307   4.695   0.320  1.7258  0.6843 -0.9715
 8127SOL    HW225281   3.281   4.799   0.197  1.5188  0.3961 -1.1728
 8128SOL     OW25282   0.401   4.803   1.841  0.1019 -0.0048  0.1908
 8128SOL    HW125283   0.468   4.780   1.912 -0.5965  0.4051  1.0005
 8128SOL    HW225284   0.445   4.798   1.752  1.9236  2.5918  0.8075
 8129SOL     OW25285   3.461   4.040   6.052 -0.9203 -0.1392  0.3625
 8129SOL    HW125286   3.433   4.110   6.118  0.2200 -0.5347  1.2928
 8129SOL    HW225287   3.485   4.084   5.965 -2.7775  0.3538  0.0496
 8130SOL     OW25288   0.296   3.677   4.221 -0.0121 -0.9475 -0.2839
 8130SOL    HW125289   0.382   3.643   4.258 -0.3824 -1.1289  0.4281
 8130SOL    HW225290   0.228   3.684   4.294  0.3415  2.3323 -0.1186
 8131SOL     OW25291   2.102   1.385   1.208 -0.1420 -0.4543 -0.4824
 8131SOL    HW125292   2.038   1.372   1.131 -1.4228  2.6281 -0.0807
 8131SOL    HW225293   2.051   1.418   1.288  1.8456  1.9658 -0.0940
 8132SOL     OW25294   6.664   2.327   1.442 -0.2256 -0.2348  0.1826
 8132SOL    HW125295   6.582   2.354   1.392  0.6112  1.1193 -0.5208
 8132SOL    HW225296   6.678   2.389   1.519 -0.1709 -0.8077  0.6382
 8133SOL     OW25297   5.399   3.169   6.560  0.0323 -0.0859  0.0667
 8133SOL    HW125298   5.358   3.150   6.470  2.6148  0.2893 -1.2934
 8133SOL    HW225299   5.372   3.261   6.590  1.7395  1.2136 -2.0316
 8134SOL     OW25300   1.081   2.934   6.517  0.1425  0.4418 -0.2325
 8134SOL    HW125301   1.004   2.990   6.485  1.1266  1.3565 -1.0775
 8134SOL    HW225302   1.084   2.935   6.617 -0.1084  1.5723 -0.2238
 8135SOL     OW25303   4.030   6.825   1.234  0.2171  0.4285  0.3842
 8135SOL    HW125304   4.035   6.854   1.330 -1.2240  0.7350  0.3838
 8135SOL    HW225305   4.011   6.904   1.176 -0.6713 -0.0214  0.0454
 8136SOL     OW25306   4.108   6.867   5.129  0.2035  0.0389 -0.3029
 8136SOL    HW125307   4.111   6.890   5.032 -1.3376 -2.9955 -1.1992
 8136SOL    HW225308   4.087   6.949   5.183 -1.3148  1.3533 -2.7510
 8137SOL     OW25309   6.587   3.741   3.073 -0.1426  0.1567  0.1449
 8137SOL    HW125310   6.538   3.779   3.152  0.1810 -1.0425  0.9420
 8137SOL    HW225311   6.633   3.657   3.099  1.6417  0.7769 -0.8150
 8138SOL     OW25312   1.302   1.966   2.301  0.1112  0.5719  0.3677
 8138SOL    HW125313   1.306   1.957   2.202 -0.2429  0.5641  0.3504
 8138SOL    HW225314   1.238   1.899   2.338  0.9691 -0.0799  0.6998
 8139SOL     OW25315   3.766   1.568   2.306 -0.1542  0.2098  0.8723
 8139SOL    HW125316   3.739   1.664   2.300 -0.5141  0.0810  0.2526
 8139SOL    HW225317   3.859   1.558   2.272 -0.3600  0.2477  0.2797
 8140SOL     OW25318   2.038   5.476   1.418  0.0649  1.1944 -0.2590
 8140SOL    HW125319   2.003   5.483   1.325  0.4433  0.5604 -0.4580
 8140SOL    HW225320   2.135   5.500   1.419  0.1008  1.0448 -0.0527
 8141SOL     OW25321   3.895   3.348   2.304 -0.3784  0.5138 -0.5020
 8141SOL    HW125322   3.930   3.440   2.324  1.9683 -0.2219 -0.9369
 8141SOL    HW225323   3.798   3.344   2.327 -0.6600  3.2187 -0.8792
 8142SOL     OW25324   2.111   1.644   6.579 -0.0498  0.5569 -0.8879
 8142SOL    HW125325   2.021   1.673   6.544  0.0916  1.1788 -0.7604
 8142SOL    HW225326   2.175   1.638   6.503  0.1382  1.4502 -0.8161
 8143SOL     OW25327   0.263   0.234   1.913  0.0628  0.1817 -0.7281
 8143SOL    HW125328   0.211   0.157   1.949  0.7409 -1.2348 -2.5882
 8143SOL    HW225329   0.207   0.317   1.914 -1.3243 -0.7407 -0.3585
 8144SOL     OW25330   3.729   5.514   2.134 -0.2204  0.1694 -0.1946
 8144SOL    HW125331   3.675   5.432   2.116 -0.4093  0.0777  0.7599
 8144SOL    HW225332   3.734   5.530   2.233 -0.1702  1.2901 -0.3668
 8145SOL     OW25333   3.287   5.897   4.510 -0.0085  0.0858  0.8211
 8145SOL    HW125334   3.333   5.965   4.567  1.6561 -1.6034  1.6208
 8145SOL    HW225335   3.300   5.920   4.414  1.9321  0.0952  1.0475
 8146SOL     OW25336   3.872   4.158   0.334  0.3246 -0.0952  0.9858
 8146SOL    HW125337   3.908   4.200   0.251  0.6232 -1.3055  0.4815
 8146SOL    HW225338   3.850   4.229   0.400 -2.8631  1.2320 -1.2293
 8147SOL     OW25339   6.768   4.118   3.334 -0.3896  0.0218 -0.3806
 8147SOL    HW125340   6.731   4.211   3.333  0.3853  0.3842 -2.7749
 8147SOL    HW225341   6.781   4.088   3.428 -0.1043  2.5811  0.4660
 8148SOL     OW25342   1.374   4.833   2.283 -0.5842  0.2389 -0.1306
 8148SOL    HW125343   1.342   4.863   2.194  0.3124  0.0628 -0.5274
 8148SOL    HW225344   1.386   4.734   2.283  0.0732  0.3114 -0.0429
 8149SOL     OW25345   6.561   2.268   0.515 -0.2962 -0.0665  0.3500
 8149SOL    HW125346   6.592   2.254   0.421 -1.2751 -1.1431  0.1561
 8149SOL    HW225347   6.465   2.298   0.514 -0.0723  0.6962  0.9910
 8150SOL     OW25348   2.078   3.920   0.326 -0.0374 -0.3835 -0.2640
 8150SOL    HW125349   2.077   4.020   0.324 -0.6933 -0.3816 -1.5317
 8150SOL    HW225350   2.012   3.887   0.394  1.3788  0.0185  1.3559
 8151SOL     OW25351   4.926   1.049   3.970 -0.0377 -0.3215  0.5274
 8151SOL    HW125352   4.946   0.975   4.034 -1.1428 -0.3045  0.9129
 8151SOL    HW225353   4.866   1.116   4.014  0.1186  0.2794 -0.1561
 8152SOL     OW25354   4.216   4.085   0.165 -0.0039 -0.0220  0.2245
 8152SOL    HW125355   4.262   4.055   0.081  0.1408 -0.3847  0.4295
 8152SOL    HW225356   4.163   4.008   0.203  0.5967 -0.1076  0.9083
 8153SOL     OW25357   4.885   6.454   0.846 -0.2166  0.3809  0.1778
 8153SOL    HW125358   4.808   6.445   0.783 -0.0130  0.2148 -0.0516
 8153SOL    HW225359   4.921   6.363   0.868  1.0541  0.5359 -1.1488
 8154SOL     OW25360   1.413   0.628   1.582 -0.5850 -0.4244 -0.6061
 8154SOL    HW125361   1.374   0.697   1.521  0.1772  0.8789  0.3304
 8154SOL    HW225362   1.369   0.540   1.565 -1.8171  0.3482 -1.6088
 8155SOL     OW25363   3.248   0.004   6.368  0.0897  0.5368 -0.1236
 8155SOL    HW125364   3.249  -0.038   6.459  0.1295  0.5308 -0.1272
 8155SOL    HW225365   3.335  -0.011   6.323 -0.1771 -0.0781 -0.4453
 8156SOL     OW25366   1.850   3.278   4.550  0.3809 -0.2998  0.1780
 8156SOL    HW125367   1.946   3.280   4.580 -0.7367 -0.5932  4.2466
 8156SOL    HW225368   1.813   3.187   4.564 -0.8174  0.1045 -0.2772
 8157SOL     OW25369   6.566   3.746   1.255 -0.3811 -0.4796 -0.6252
 8157SOL    HW125370   6.473   3.784   1.253 -0.1525  0.1120 -0.0756
 8157SOL    HW225371   6.573   3.679   1.328 -0.3443 -0.4507 -0.6023
 8158SOL     OW25372   4.297   2.935   0.259  0.0653 -0.0181 -0.7246
 8158SOL    HW125373   4.219   2.884   0.225 -0.7563  0.4159  0.4302
 8158SOL    HW225374   4.322   3.007   0.194  0.3326 -0.9699 -1.6906
 8159SOL     OW25375   3.318   3.219   3.163  0.1637  0.2766  0.0620
 8159SOL    HW125376   3.266   3.303   3.147  1.1129  0.3363 -3.5676
 8159SOL    HW225377   3.282   3.172   3.244 -3.4563  1.8327 -0.4553
 8160SOL     OW25378   4.817   6.838   0.429 -0.0646 -0.0875  0.1748
 8160SOL    HW125379   4.769   6.762   0.472 -1.1921  0.6225  0.2020
 8160SOL    HW225380   4.883   6.876   0.494  0.4527 -0.9711  0.1886
 8161SOL     OW25381   2.749   4.810   1.516 -0.0847  0.1442 -0.0183
 8161SOL    HW125382   2.766   4.814   1.614 -0.5422 -1.5763  0.1634
 8161SOL    HW225383   2.827   4.766   1.470 -0.8569 -1.2064 -0.0944
 8162SOL     OW25384   6.565   6.486   0.028  0.1776 -0.7485  0.5420
 8162SOL    HW125385   6.515   6.470   0.113 -0.2850  0.0698  0.4339
 8162SOL    HW225386   6.643   6.546   0.047  0.9474 -1.7574  0.6499
 8163SOL     OW25387   1.229   5.401   3.791 -0.1733 -0.4484 -0.1183
 8163SOL    HW125388   1.230   5.409   3.890 -0.1488 -0.8901 -0.0797
 8163SOL    HW225389   1.134   5.404   3.759 -0.4242 -2.9159  0.1658
 8164SOL     OW25390   5.192   2.255   2.290 -0.5323  0.3654 -0.0866
 8164SOL    HW125391   5.178   2.212   2.201  1.3315  0.5386 -0.5026
 8164SOL    HW225392   5.120   2.323   2.306 -1.0110  0.1932 -1.3591
 8165SOL     OW25393   3.793   4.810   1.742  0.2172 -0.3671  0.5394
 8165SOL    HW125394   3.726   4.789   1.813 -0.9434  0.8780 -0.1465
 8165SOL    HW225395   3.809   4.729   1.687  0.0791 -0.9624  1.3515
 8166SOL     OW25396   2.669   1.447   0.558  0.5838  0.1823 -0.1074
 8166SOL    HW125397   2.604   1.407   0.622  1.0766  0.7061  0.7442
 8166SOL    HW225398   2.623   1.518   0.504  0.7593  1.5670  1.4967
 8167SOL     OW25399   1.699   4.676   0.928 -0.2603  0.0902 -0.0128
 8167SOL    HW125400   1.679   4.768   0.960  0.4706  1.0148 -2.0467
 8167SOL    HW225401   1.687   4.611   1.004  1.1552  2.0685  2.0507
 8168SOL     OW25402   6.213   3.720   3.524  0.0237  0.4325  0.4116
 8168SOL    HW125403   6.115   3.726   3.543 -0.8729 -1.7112 -2.8080
 8168SOL    HW225404   6.244   3.802   3.476 -0.8868 -0.0782 -1.0776
 8169SOL     OW25405   3.618   0.362   3.246  0.1991  0.0495 -0.0523
 8169SOL    HW125406   3.612   0.313   3.333  0.9433 -0.8836 -0.5166
 8169SOL    HW225407   3.660   0.451   3.261  0.0070  0.0414  0.5898
 8170SOL     OW25408   4.758   0.361   4.761 -0.3643 -1.0516  0.3235
 8170SOL    HW125409   4.747   0.418   4.843 -0.3676  0.2526 -0.5460
 8170SOL    HW225410   4.716   0.407   4.683  0.4238 -1.8355 -0.5929
 8171SOL     OW25411   4.898   4.380   2.543  0.4475  0.2996  0.7383
 8171SOL    HW125412   4.893   4.441   2.623  0.1771  0.5035  0.5692
 8171SOL    HW225413   4.989   4.386   2.502  0.4352  0.5617  0.7470
 8172SOL     OW25414   3.713   1.280   0.991 -0.3990  0.2669  0.0666
 8172SOL    HW125415   3.739   1.329   1.074 -1.8367  0.8630  0.1956
 8172SOL    HW225416   3.613   1.279   0.982 -0.3564 -1.4355 -0.6775
 8173SOL     OW25417   5.007   2.596   2.526 -0.1862 -0.0906  0.5654
 8173SOL    HW125418   5.072   2.579   2.452  0.5436 -1.3924  1.4746
 8173SOL    HW225419   4.992   2.694   2.536  0.2523  0.1380 -0.8203
 8174SOL     OW25420   6.091   2.828   0.729  0.2215  0.6194 -0.0102
 8174SOL    HW125421   6.014   2.807   0.789 -0.5326  1.6521 -0.5881
 8174SOL    HW225422   6.164   2.871   0.782  0.7407 -1.0442  0.6861
 8175SOL     OW25423   4.914   3.141   5.044 -0.1392  0.0720  0.1995
 8175SOL    HW125424   4.941   3.060   5.096 -0.5687  0.4106  0.9757
 8175SOL    HW225425   4.880   3.113   4.954  1.0780 -0.4872 -0.1118
 8176SOL     OW25426   1.061   1.942   4.496  0.0502  0.1027  0.4998
 8176SOL    HW125427   0.971   1.928   4.455  1.3148 -1.2943 -2.0656
 8176SOL    HW225428   1.123   1.980   4.428  1.8227 -0.4956  1.7057
 8177SOL     OW25429   0.395   2.667   0.556  0.3359 -0.1275 -0.5763
 8177SOL    HW125430   0.318   2.659   0.492  0.0334  1.5605 -0.4632
 8177SOL    HW225431   0.399   2.585   0.613 -3.9834  1.3429  2.2643
 8178SOL     OW25432   5.326   1.757   6.735  0.4141 -0.1016  0.1295
 8178SOL    HW125433   5.364   1.695   6.666 -0.1059 -0.5033  0.2027
 8178SOL    HW225434   5.228   1.767   6.721  0.5694  1.1134 -0.1964
 8179SOL     OW25435   0.500   4.548   2.328 -0.2231  0.5528  0.2573
 8179SOL    HW125436   0.509   4.555   2.229  0.8080  0.3940  0.3329
 8179SOL    HW225437   0.456   4.631   2.363 -0.1689  0.8130 -0.2763
 8180SOL     OW25438   6.949   2.810   1.497 -0.0429 -0.1315  0.1711
 8180SOL    HW125439   6.963   2.740   1.427  1.0186  1.1363 -0.9424
 8180SOL    HW225440   6.950   2.767   1.587  0.1414 -1.6036 -0.4959
 8181SOL     OW25441   2.123   3.969   3.111  0.8921 -0.0637 -0.0851
 8181SOL    HW125442   2.111   3.930   3.020  0.5006 -1.2100  0.4312
 8181SOL    HW225443   2.068   4.052   3.120 -1.8727 -1.7752  0.1799
 8182SOL     OW25444   5.368   4.311   3.187  0.5670  0.0683 -0.2789
 8182SOL    HW125445   5.308   4.239   3.220  1.3353 -0.8371 -0.7881
 8182SOL    HW225446   5.445   4.270   3.137  0.6914  1.2656 -1.1229
 8183SOL     OW25447   4.435   5.504   4.401 -0.1504  0.6168 -0.3142
 8183SOL    HW125448   4.371   5.439   4.362  0.5449  0.5965 -1.4636
 8183SOL    HW225449   4.474   5.467   4.486 -0.3095 -0.1372 -0.5695
 8184SOL     OW25450   0.574   1.935   0.388 -0.0757 -0.0201 -0.7905
 8184SOL    HW125451   0.624   1.967   0.307  1.0181  0.4955  0.0679
 8184SOL    HW225452   0.638   1.894   0.453 -0.4316  2.2322  1.1310
 8185SOL     OW25453   1.025   1.737   5.115 -0.2537  0.1033  0.0360
 8185SOL    HW125454   1.090   1.808   5.142 -1.3010  1.0781  0.0796
 8185SOL    HW225455   0.937   1.753   5.161 -0.4683 -1.3220  0.1668
 8186SOL     OW25456   6.632   6.625   1.251  0.3377 -0.7022 -0.6827
 8186SOL    HW125457   6.590   6.563   1.317 -3.0561 -0.0530 -2.0184
 8186SOL    HW225458   6.668   6.572   1.174  2.3784 -1.2789  0.5677
 8187SOL     OW25459   3.340   6.160   5.758  0.1448  0.1960 -0.0399
 8187SOL    HW125460   3.257   6.126   5.803  1.2258 -0.2921  1.6426
 8187SOL    HW225461   3.325   6.161   5.659 -1.4392 -1.0312  0.1464
 8188SOL     OW25462   2.898   5.421   4.314  0.1048  0.1406 -0.0734
 8188SOL    HW125463   2.802   5.407   4.336  0.6318 -1.6117  1.3998
 8188SOL    HW225464   2.912   5.414   4.215 -1.2204  0.1709 -0.2729
 8189SOL     OW25465   2.525   5.059   0.113 -0.3393 -0.0945  0.2943
 8189SOL    HW125466   2.479   4.987   0.060 -0.7464 -0.2508  0.8551
 8189SOL    HW225467   2.555   5.131   0.051  0.6172 -1.0274 -0.3680
 8190SOL     OW25468   6.726   4.140   2.301 -0.2287 -0.4197  0.5096
 8190SOL    HW125469   6.675   4.056   2.312  0.2354 -0.4804  2.6411
 8190SOL    HW225470   6.719   4.195   2.384  3.5492 -0.6900  1.1904
 8191SOL     OW25471   4.177   5.788   5.475 -0.0218  0.0486 -0.4837
 8191SOL    HW125472   4.173   5.707   5.417 -0.8933 -0.0757 -0.2571
 8191SOL    HW225473   4.086   5.808   5.512  0.3298  0.6879  0.0648
 8192SOL     OW25474   2.130   4.858   3.787 -0.6031  0.0179  0.1954
 8192SOL    HW125475   2.191   4.812   3.852 -1.1828  0.3620  1.0027
 8192SOL    HW225476   2.172   4.943   3.756 -0.4042 -0.0534  0.2708
 8193SOL     OW25477   2.560   1.026   1.268 -0.4564 -0.1040  0.0040
 8193SOL    HW125478   2.636   1.081   1.234 -2.2107  1.8280 -1.0524
 8193SOL    HW225479   2.524   0.968   1.195  0.2573 -1.3658  0.6258
 8194SOL     OW25480   3.438   3.021   1.942 -0.8787 -0.2612 -0.1480
 8194SOL    HW125481   3.465   3.076   2.021  0.1180  0.8830 -1.2366
 8194SOL    HW225482   3.506   2.949   1.927 -0.5293  0.1462 -0.5428
 8195SOL     OW25483   6.700   4.366   4.142  0.3354  0.2461  0.1782
 8195SOL    HW125484   6.702   4.434   4.216 -0.4252 -1.4686  1.8418
 8195SOL    HW225485   6.788   4.366   4.095  1.1207  0.8735  1.5858
 8196SOL     OW25486   4.412   1.802   4.816  0.0279 -0.0092  0.0552
 8196SOL    HW125487   4.509   1.797   4.841 -0.1755  0.8906  1.0988
 8196SOL    HW225488   4.398   1.876   4.750 -0.1510  0.7746  0.9668
 8197SOL     OW25489   1.868   2.632   0.376 -0.3949  0.5270  0.5154
 8197SOL    HW125490   1.944   2.577   0.409 -2.3151 -1.9395  1.0770
 8197SOL    HW225491   1.873   2.640   0.276  0.4483  0.1733  0.5228
 8198SOL     OW25492   4.580   0.913   2.123 -0.5023  0.4763 -0.6152
 8198SOL    HW125493   4.551   0.982   2.189  0.9940  1.2848 -0.7506
 8198SOL    HW225494   4.642   0.955   2.056 -2.0657 -0.2822 -2.6337
 8199SOL     OW25495   0.560   6.669   4.766 -0.4018 -0.0122  0.9123
 8199SOL    HW125496   0.594   6.599   4.704  1.3342  1.4151  0.1808
 8199SOL    HW225497   0.634   6.701   4.826 -1.1801  1.0906  1.3316
 8200SOL     OW25498   1.547   4.884   5.770 -0.2818 -0.0574  0.3848
 8200SOL    HW125499   1.643   4.862   5.754 -0.0316  1.1714  0.0936
 8200SOL    HW225500   1.534   4.909   5.866  0.1080  1.6862  0.0162
 8201SOL     OW25501   0.102   7.010   1.608  0.0146  0.8444 -0.1859
 8201SOL    HW125502   0.113   7.106   1.633  1.7758  0.8139 -0.6818
 8201SOL    HW225503   0.137   6.997   1.515  0.3102 -0.3648  0.0843
 8202SOL     OW25504   6.224   5.764   4.217  0.1636 -0.0730 -0.4411
 8202SOL    HW125505   6.126   5.761   4.199  0.0596  1.1662 -0.2034
 8202SOL    HW225506   6.269   5.818   4.146  0.5734 -0.0662 -0.1798
 8203SOL     OW25507   5.230   3.630   3.337 -0.7317  0.1879 -0.2309
 8203SOL    HW125508   5.171   3.673   3.268 -1.3485  1.5582  1.0826
 8203SOL    HW225509   5.276   3.701   3.390  2.5891 -0.8273 -1.5249
 8204SOL     OW25510   4.379   3.349   6.893  0.3600  0.3695 -0.4569
 8204SOL    HW125511   4.475   3.375   6.890  0.6275 -0.4829  0.2326
 8204SOL    HW225512   4.322   3.431   6.893  1.1403  0.9352  0.5793
 8205SOL     OW25513   1.551   1.910   1.487  0.5255 -0.0103 -0.5685
 8205SOL    HW125514   1.484   1.985   1.495 -0.0519 -0.6485  0.9927
 8205SOL    HW225515   1.552   1.876   1.393 -2.3273 -0.8073 -0.4026
 8206SOL     OW25516   6.698   0.548   4.552 -0.0808 -0.1686  0.0001
 8206SOL    HW125517   6.725   0.469   4.497  0.4926 -0.5160  0.7730
 8206SOL    HW225518   6.722   0.533   4.647  0.2832  1.0557  0.1211
 8207SOL     OW25519   2.785   3.757   5.253  0.0216  0.3894  0.2622
 8207SOL    HW125520   2.693   3.788   5.275  0.3539  1.8919 -0.3418
 8207SOL    HW225521   2.830   3.721   5.335 -0.2136  2.0085  1.1205
 8208SOL     OW25522   5.259   2.394   6.882  0.4413  0.7543 -0.2003
 8208SOL    HW125523   5.241   2.302   6.916 -1.4089  2.0370  2.6371
 8208SOL    HW225524   5.327   2.438   6.941  1.7675  1.0709 -1.8926
 8209SOL     OW25525   0.172   0.538   2.816 -0.1572 -0.0932 -0.4368
 8209SOL    HW125526   0.139   0.562   2.725  1.3287  0.1935 -0.9190
 8209SOL    HW225527   0.131   0.601   2.883 -0.2316  0.5466 -1.0655
 8210SOL     OW25528   0.028   1.647   6.114  0.2407 -0.4296  0.4352
 8210SOL    HW125529   0.104   1.649   6.049 -0.2016 -0.0681 -0.0844
 8210SOL    HW225530   0.037   1.568   6.175 -1.2237 -2.9748 -2.3674
 8211SOL     OW25531   1.028   3.381   1.114  0.0964 -0.0230  0.1359
 8211SOL    HW125532   0.987   3.343   1.197 -1.9040 -0.2973 -0.9372
 8211SOL    HW225533   1.022   3.481   1.117 -0.6646 -0.0590 -0.0058
 8212SOL     OW25534   6.501   0.059   5.311  0.5464 -0.0790 -0.7035
 8212SOL    HW125535   6.533   0.153   5.323 -1.2773  0.8001 -2.3139
 8212SOL    HW225536   6.554   0.014   5.239  0.5366  0.1614 -0.8594
 8213SOL     OW25537   4.842   4.790   5.955 -0.1354  0.5651 -0.0575
 8213SOL    HW125538   4.747   4.779   5.985  0.2225 -2.3627  0.2618
 8213SOL    HW225539   4.871   4.709   5.904  2.1535  1.4694 -0.3264
 8214SOL     OW25540   0.115   1.903   1.416 -1.0186 -0.0669  0.2825
 8214SOL    HW125541   0.163   1.816   1.424 -1.5200 -0.3448  0.2880
 8214SOL    HW225542   0.072   1.910   1.326  1.6752  1.5572 -1.0301
 8215SOL     OW25543   6.753   4.909   6.344  0.0463  0.0855  0.0432
 8215SOL    HW125544   6.686   4.982   6.332  0.4935  0.3542 -0.9973
 8215SOL    HW225545   6.809   4.928   6.424  0.2751  0.9996 -0.3130
 8216SOL     OW25546   6.049   5.514   0.194 -0.0259 -0.3131 -0.6837
 8216SOL    HW125547   6.071   5.578   0.267  2.0338 -0.8388 -0.7659
 8216SOL    HW225548   6.052   5.421   0.229  0.0861 -0.5216 -1.2367
 8217SOL     OW25549   5.106   3.713   6.358  0.6970 -0.4054 -0.0429
 8217SOL    HW125550   5.123   3.811   6.349  2.1312 -0.6367 -0.0509
 8217SOL    HW225551   5.010   3.698   6.382  0.0243  0.8985 -1.7408
 8218SOL     OW25552   6.962   0.411   3.195  0.5419 -0.1996  0.0227
 8218SOL    HW125553   6.946   0.463   3.111  0.5547 -0.4946 -0.1623
 8218SOL    HW225554   6.932   0.316   3.183 -1.2146  0.1978  0.9690
 8219SOL     OW25555   0.480   3.639   3.175  0.3754  0.1867  0.5943
 8219SOL    HW125556   0.475   3.567   3.105  3.8212 -0.9021  1.2614
 8219SOL    HW225557   0.457   3.600   3.264  0.8823  0.2587  0.7578
 8220SOL     OW25558   5.442   6.065   0.062  0.5287 -0.0556 -0.2032
 8220SOL    HW125559   5.379   6.143   0.063 -0.2789 -0.6241  2.5988
 8220SOL    HW225560   5.536   6.097   0.069  0.3583  0.7048 -1.2467
 8221SOL     OW25561   6.469   3.878   0.074  0.0281 -0.0624 -0.1335
 8221SOL    HW125562   6.542   3.839   0.129 -0.3547  0.7724  0.9998
 8221SOL    HW225563   6.380   3.846   0.108 -0.2862  1.6205  0.7359
 8222SOL     OW25564   0.685   1.747   0.610  0.5303 -0.0953  0.1758
 8222SOL    HW125565   0.587   1.756   0.623  0.1870 -1.5891 -0.9982
 8222SOL    HW225566   0.712   1.652   0.626  1.7721  0.2798  0.4130
 8223SOL     OW25567   1.735   3.609   0.399 -0.0828  0.2374 -0.5876
 8223SOL    HW125568   1.677   3.689   0.386 -0.7784 -0.5374 -2.6128
 8223SOL    HW225569   1.716   3.541   0.327  1.3035 -1.2625  0.3798
 8224SOL     OW25570   1.923   6.746   0.645 -0.4130 -0.1404 -0.3285
 8224SOL    HW125571   1.956   6.738   0.738  1.8981 -2.3838 -1.2318
 8224SOL    HW225572   1.883   6.659   0.615  0.5513 -0.0718 -1.9707
 8225SOL     OW25573   4.458   1.832   1.133 -0.7106  0.8005  0.1755
 8225SOL    HW125574   4.403   1.760   1.090  0.9930 -0.1605 -0.5211
 8225SOL    HW225575   4.515   1.876   1.063  0.5460  0.6778  1.0828
 8226SOL     OW25576   5.375   1.265   2.066 -0.0175  0.7522 -0.1009
 8226SOL    HW125577   5.341   1.346   2.020  0.9645  0.5112 -1.2998
 8226SOL    HW225578   5.359   1.184   2.009  0.9560  0.4074  0.0856
 8227SOL     OW25579   1.474   1.479   0.599 -0.3884  0.3785 -0.0724
 8227SOL    HW125580   1.403   1.422   0.639  1.0845  0.6770  3.3314
 8227SOL    HW225581   1.561   1.428   0.598 -0.1085  0.8128 -1.9476
 8228SOL     OW25582   5.821   6.739   5.726  0.0439 -0.1681 -0.6468
 8228SOL    HW125583   5.758   6.695   5.790  0.4236  0.5306  0.2359
 8228SOL    HW225584   5.885   6.671   5.690 -1.0265 -0.8345 -1.3636
 8229SOL     OW25585   0.669   0.243   3.592  0.6095 -0.6408  0.0828
 8229SOL    HW125586   0.762   0.273   3.611  0.7016  0.5383 -1.9788
 8229SOL    HW225587   0.665   0.203   3.500 -0.7764 -1.4231  0.4513
 8230SOL     OW25588   5.454   0.676   1.127  0.1784  0.1550 -0.1151
 8230SOL    HW125589   5.544   0.694   1.167 -0.3200  0.1104  1.0701
 8230SOL    HW225590   5.420   0.588   1.159 -0.8035  0.7088  0.4230
 8231SOL     OW25591   6.247   0.659   2.996 -0.2532 -0.0393 -0.1489
 8231SOL    HW125592   6.322   0.595   2.975 -0.6479 -0.6770  0.3572
 8231SOL    HW225593   6.242   0.673   3.094  0.2670  1.3293 -0.3021
 8232SOL     OW25594   4.408   0.314   0.381 -0.0265  0.1050  0.4278
 8232SOL    HW125595   4.453   0.289   0.466  0.9802 -0.2204 -0.1875
 8232SOL    HW225596   4.364   0.404   0.391  3.1367  1.8045  0.2307
 8233SOL     OW25597   0.367   5.590   2.901  0.3553 -0.6212 -0.6626
 8233SOL    HW125598   0.372   5.492   2.920  1.5255 -0.6035 -0.8074
 8233SOL    HW225599   0.430   5.639   2.961  0.9104 -0.1274 -1.6208
 8234SOL     OW25600   0.368   1.009   0.398 -0.3989  0.6668 -0.3174
 8234SOL    HW125601   0.343   0.946   0.472 -1.4567 -0.5568 -1.6585
 8234SOL    HW225602   0.467   1.009   0.387 -0.3629 -0.6399 -0.1576
 8235SOL     OW25603   5.709   2.529   1.825 -0.3731 -0.4895 -0.8089
 8235SOL    HW125604   5.628   2.498   1.776 -1.0205  0.5547 -0.4417
 8235SOL    HW225605   5.715   2.629   1.819  0.2173 -0.4530  0.1962
 8236SOL     OW25606   6.904   0.766   6.677  0.1186  0.1092  0.4189
 8236SOL    HW125607   6.970   0.693   6.694 -0.0739 -0.5179 -1.3278
 8236SOL    HW225608   6.815   0.726   6.655  0.0617  0.8332 -0.7834
 8237SOL     OW25609   3.926   1.461   4.472  0.6073 -0.0881 -0.0409
 8237SOL    HW125610   3.945   1.445   4.569  1.7009 -0.8172 -0.3536
 8237SOL    HW225611   3.951   1.555   4.448  0.4517  0.0550  0.3544
 8238SOL     OW25612   6.153   0.588   1.187  0.1633 -0.3214 -0.3750
 8238SOL    HW125613   6.213   0.548   1.256  0.0709  1.5912  0.8955
 8238SOL    HW225614   6.206   0.647   1.127  0.0031 -0.8777 -1.0798
 8239SOL     OW25615   2.927   5.136   3.067  0.2289 -0.1361 -0.2222
 8239SOL    HW125616   3.007   5.101   3.115 -0.6509 -0.7478  0.8374
 8239SOL    HW225617   2.897   5.069   2.998  0.1630 -0.2632 -0.0709
 8240SOL     OW25618   1.305   3.429   2.398  0.4173  0.1738  0.4198
 8240SOL    HW125619   1.375   3.374   2.444  1.6237 -0.4879 -2.0598
 8240SOL    HW225620   1.248   3.369   2.342  0.4040  1.1745 -0.6627
 8241SOL     OW25621   6.202   3.761   5.824  0.0282  0.9489  0.5726
 8241SOL    HW125622   6.248   3.705   5.755 -0.4928  0.6575  0.4602
 8241SOL    HW225623   6.257   3.761   5.908  0.9154  1.7113  0.0091
 8242SOL     OW25624   2.044   3.637   3.410 -0.3394  0.7016  0.5746
 8242SOL    HW125625   2.124   3.688   3.442  1.0366 -1.6786  1.1462
 8242SOL    HW225626   2.027   3.658   3.314  0.3750  1.9394  0.6928
 8243SOL     OW25627   1.626   5.478   4.977  0.0506  0.5902 -0.3671
 8243SOL    HW125628   1.555   5.472   5.046  0.0745  1.7056 -0.2304
 8243SOL    HW225629   1.590   5.445   4.889 -0.6740  1.2371 -0.3232
 8244SOL     OW25630   1.569   5.388   4.702 -0.4654 -0.1373 -0.4832
 8244SOL    HW125631   1.553   5.289   4.704 -1.3158 -0.0136 -0.5277
 8244SOL    HW225632   1.496   5.432   4.649 -0.2907  0.5419 -0.1696
 8245SOL     OW25633   4.256   4.758   5.317 -0.6034  0.2154 -0.0078
 8245SOL    HW125634   4.164   4.770   5.279  0.7570  0.8575 -3.5180
 8245SOL    HW225635   4.270   4.822   5.392 -3.1867 -0.4111  1.1376
 8246SOL     OW25636   4.657   1.462   4.790  0.0467 -0.2523  0.7377
 8246SOL    HW125637   4.735   1.416   4.748  0.4178 -0.0773  1.2316
 8246SOL    HW225638   4.631   1.415   4.874 -0.3508 -0.2791  0.6025
 8247SOL     OW25639   5.240   4.952   5.909 -0.1317 -0.1947 -0.3219
 8247SOL    HW125640   5.165   5.018   5.917 -0.5241 -0.5541 -1.0050
 8247SOL    HW225641   5.291   4.971   5.825  1.6767  1.2021  1.0149
 8248SOL     OW25642   3.353   2.135   3.919 -0.0888  0.1594  0.1058
 8248SOL    HW125643   3.270   2.158   3.868  0.5000  3.6582  0.4854
 8248SOL    HW225644   3.329   2.102   4.010 -1.0437 -1.2755 -0.6278
 8249SOL     OW25645   0.168   6.025   1.361 -0.2907  0.1635  0.6463
 8249SOL    HW125646   0.140   6.059   1.271  0.8200 -0.2974  0.1150
 8249SOL    HW225647   0.227   6.092   1.406  0.9193 -0.5107  0.1043
 8250SOL     OW25648   6.893   5.593   5.237 -0.0910  0.0748 -0.2445
 8250SOL    HW125649   6.882   5.599   5.138  0.8833 -0.8912 -0.4335
 8250SOL    HW225650   6.804   5.603   5.281 -0.6340 -0.1694 -1.2532
 8251SOL     OW25651   1.011   1.136   0.575  0.0138  0.3882  0.8271
 8251SOL    HW125652   1.054   1.046   0.567 -2.2954 -1.0352  3.0639
 8251SOL    HW225653   1.023   1.186   0.489  1.8920 -1.7761 -0.2768
 8252SOL     OW25654   0.457   4.266   6.956 -0.4589 -0.0644  0.2038
 8252SOL    HW125655   0.452   4.344   6.893  1.2219  1.3065  1.6508
 8252SOL    HW225656   0.547   4.223   6.948 -0.4686 -0.2744  1.1879
 8253SOL     OW25657   2.680   0.227   1.827  0.3970  0.3091  0.0783
 8253SOL    HW125658   2.702   0.250   1.922  0.2258  0.6650  0.0327
 8253SOL    HW225659   2.597   0.170   1.826  0.1025  0.7312  0.1123
 8254SOL     OW25660   5.862   6.333   2.529 -0.6194 -0.0196  0.1282
 8254SOL    HW125661   5.839   6.421   2.488  1.0406  0.9644  1.1924
 8254SOL    HW225662   5.785   6.300   2.583 -1.0208  1.1219  0.2796
 8255SOL     OW25663   6.620   0.596   3.276  0.0906 -0.0604  0.1745
 8255SOL    HW125664   6.642   0.603   3.374  1.9546 -0.2037 -0.2033
 8255SOL    HW225665   6.547   0.661   3.254  1.4522  1.9192  1.1678
 8256SOL     OW25666   4.237   2.250   2.522 -0.1762  0.0936  0.0350
 8256SOL    HW125667   4.172   2.230   2.449 -1.3021 -1.0876  1.3265
 8256SOL    HW225668   4.329   2.254   2.483 -0.0937 -4.8621 -0.9681
 8257SOL     OW25669   6.037   3.514   4.860 -0.3185 -0.1296 -0.4997
 8257SOL    HW125670   6.066   3.434   4.914 -1.2141 -1.3263 -1.7322
 8257SOL    HW225671   6.032   3.594   4.920  0.4454 -1.0094  0.8077
 8258SOL     OW25672   2.082   3.692   6.206 -0.1935  0.9131  0.0423
 8258SOL    HW125673   2.128   3.681   6.117  1.4480  0.7689  0.8639
 8258SOL    HW225674   2.002   3.633   6.210  0.0321  0.4945 -1.1185
 8259SOL     OW25675   3.552   1.872   1.799 -0.5323  0.1109 -0.3175
 8259SOL    HW125676   3.603   1.838   1.878 -0.5634 -0.9557 -0.7511
 8259SOL    HW225677   3.457   1.840   1.805 -0.3822 -0.4877 -1.1061
 8260SOL     OW25678   5.859   0.902   2.266  0.1222 -0.0218 -0.3763
 8260SOL    HW125679   5.804   0.970   2.217 -0.9450 -0.1740  0.5441
 8260SOL    HW225680   5.888   0.830   2.203 -0.1169  0.4517 -1.0329
 8261SOL     OW25681   6.096   3.972   2.146 -0.1065 -0.4795  0.1396
 8261SOL    HW125682   6.033   4.049   2.152  0.0344 -0.3595  0.0690
 8261SOL    HW225683   6.146   3.976   2.059 -0.8628 -1.2354 -0.3512
 8262SOL     OW25684   5.907   5.523   1.597 -0.5131 -0.4424 -0.5734
 8262SOL    HW125685   5.997   5.524   1.552  0.4481  0.6224  1.2798
 8262SOL    HW225686   5.877   5.617   1.613 -1.4546 -0.8048 -0.1631
 8263SOL     OW25687   4.422   4.540   1.504  0.4107  0.3129  0.1292
 8263SOL    HW125688   4.399   4.534   1.602  2.9630  1.2744  0.8793
 8263SOL    HW225689   4.358   4.603   1.460 -1.9497 -1.5286  0.6894
 8264SOL     OW25690   6.297   4.776   5.639 -0.4359 -0.5978  0.3127
 8264SOL    HW125691   6.292   4.845   5.710 -0.3203 -0.4031  0.1333
 8264SOL    HW225692   6.381   4.787   5.586 -0.4623 -0.8133  0.2215
 8265SOL     OW25693   6.587   1.999   4.325  0.2483 -0.5773 -0.0406
 8265SOL    HW125694   6.617   1.935   4.395  0.4610  0.2058  0.6096
 8265SOL    HW225695   6.659   2.010   4.257 -0.1055 -1.6258 -0.6030
 8266SOL     OW25696   2.427   1.284   2.169  0.1531  0.4099  0.4981
 8266SOL    HW125697   2.396   1.346   2.097 -0.9772  1.7399  2.0451
 8266SOL    HW225698   2.413   1.189   2.140  2.6028  0.7506 -2.2091
 8267SOL     OW25699   3.340   4.855   1.865 -0.6276 -0.3996 -0.2371
 8267SOL    HW125700   3.438   4.837   1.863 -0.6293 -0.6815  1.2276
 8267SOL    HW225701   3.307   4.870   1.772  0.7246 -0.6874 -0.7851
 8268SOL     OW25702   2.076   2.061   6.241 -0.0835  0.0859 -0.3527
 8268SOL    HW125703   2.108   2.154   6.225  0.0181  0.1244  0.0757
 8268SOL    HW225704   2.140   2.013   6.300  0.3036 -0.5239 -1.2374
 8269SOL     OW25705   4.099   3.023   6.017  0.3565  0.0705  0.0561
 8269SOL    HW125706   4.088   3.106   5.964 -2.3558  0.8218  1.6262
 8269SOL    HW225707   4.141   3.045   6.106 -2.0388  0.1748  1.2332
 8270SOL     OW25708   3.944   3.849   4.935  1.1053  0.0316  0.1899
 8270SOL    HW125709   3.965   3.906   4.856 -0.0683 -0.9736 -0.8986
 8270SOL    HW225710   3.855   3.876   4.973  1.0067 -0.4092  0.2799
 8271SOL     OW25711   6.636   2.946   5.820 -0.6477  0.1001 -0.2228
 8271SOL    HW125712   6.583   3.031   5.821 -2.3014 -0.8333  1.8343
 8271SOL    HW225713   6.703   2.948   5.894 -1.6407 -0.8458  0.7556
 8272SOL     OW25714   5.661   5.863   4.248  1.0081  0.2844  0.0243
 8272SOL    HW125715   5.685   5.824   4.337  0.5523  0.3972  0.2013
 8272SOL    HW225716   5.707   5.951   4.236  0.3523  0.7108  0.5500
 8273SOL     OW25717   5.538   4.735   2.978  0.0539  0.0842 -0.2272
 8273SOL    HW125718   5.604   4.768   2.911 -0.9669 -1.1582 -1.9197
 8273SOL    HW225719   5.529   4.636   2.971 -0.2910 -0.0531  1.5908
 8274SOL     OW25720   1.465   1.281   6.796 -0.3597 -0.6760 -0.5029
 8274SOL    HW125721   1.557   1.312   6.771  0.0213 -0.4360  1.0395
 8274SOL    HW225722   1.451   1.296   6.894 -2.7388  0.9781 -1.0222
 8275SOL     OW25723   2.658   0.156   5.354  0.2571  0.1792 -0.1849
 8275SOL    HW125724   2.749   0.145   5.316  0.7791  2.5894  0.1886
 8275SOL    HW225725   2.618   0.066   5.374  2.0405 -0.9477 -1.4567
 8276SOL     OW25726   5.280   3.012   2.530  0.1951 -0.1596  0.0570
 8276SOL    HW125727   5.310   3.072   2.456  0.1528 -0.5869 -0.3102
 8276SOL    HW225728   5.347   3.015   2.604  1.7740 -1.9428 -1.2007
 8277SOL     OW25729   3.324   2.084   2.696  0.5577 -0.2796 -0.2480
 8277SOL    HW125730   3.296   2.160   2.754  2.2429  1.4244 -1.5046
 8277SOL    HW225731   3.282   2.000   2.727 -1.6533  1.2083  1.0156
 8278SOL     OW25732   3.270   0.562   0.402  0.2894 -0.0635 -0.0885
 8278SOL    HW125733   3.288   0.641   0.461  0.1607  0.1041 -0.2736
 8278SOL    HW225734   3.197   0.584   0.338 -0.3550 -0.6126  0.4295
 8279SOL     OW25735   6.152   0.145   3.635 -0.4133 -0.1560 -0.3316
 8279SOL    HW125736   6.186   0.055   3.663 -0.2913  0.4136  1.4722
 8279SOL    HW225737   6.087   0.135   3.560 -1.1103 -1.8397  0.4655
 8280SOL     OW25738   2.722   4.349   1.133 -0.6059  0.3631 -0.2701
 8280SOL    HW125739   2.708   4.268   1.077 -1.4693 -0.9412  1.7168
 8280SOL    HW225740   2.803   4.337   1.190  0.3568  1.7364 -1.2595
 8281SOL     OW25741   1.464   6.457   2.460  0.5513  0.2200  0.3326
 8281SOL    HW125742   1.473   6.546   2.416 -2.3437  0.2117 -0.4477
 8281SOL    HW225743   1.498   6.463   2.554  0.2816  2.1807  0.3350
 8282SOL     OW25744   1.744   4.577   2.878  0.8157  0.2459 -0.9089
 8282SOL    HW125745   1.764   4.624   2.963  2.3403 -0.3777 -0.8943
 8282SOL    HW225746   1.645   4.565   2.868  0.6420 -0.0618  0.9721
 8283SOL     OW25747   1.471   5.152   5.894 -0.1370 -0.8889  0.2174
 8283SOL    HW125748   1.531   5.157   5.813 -0.9163 -0.7568 -0.3644
 8283SOL    HW225749   1.423   5.239   5.905 -0.1126 -0.9426  0.7679
 8284SOL     OW25750   0.535   1.619   3.632 -0.7788 -0.1944 -0.1464
 8284SOL    HW125751   0.586   1.700   3.663  0.8448 -1.8039  1.7259
 8284SOL    HW225752   0.438   1.633   3.648 -0.4911  1.2753  0.4802
 8285SOL     OW25753   0.420   1.655   1.722  0.1111  0.1047 -0.6181
 8285SOL    HW125754   0.433   1.574   1.665  1.3807 -0.2587  0.1524
 8285SOL    HW225755   0.324   1.663   1.747  0.1380 -1.8809  0.3032
 8286SOL     OW25756   1.666   5.202   5.697 -0.1423  0.2500 -0.4754
 8286SOL    HW125757   1.726   5.264   5.748 -0.9832 -0.7559  1.8808
 8286SOL    HW225758   1.722   5.136   5.646  0.7722  0.1750  0.5854
 8287SOL     OW25759   5.684   6.853   6.796  0.5336  0.8021  0.3897
 8287SOL    HW125760   5.753   6.803   6.848  1.4791  1.3708 -0.2807
 8287SOL    HW225761   5.726   6.933   6.753 -0.4582  0.9470 -0.3548
 8288SOL     OW25762   0.691   0.990   6.237  0.0161  0.4435  0.5859
 8288SOL    HW125763   0.670   1.012   6.142 -0.5471  0.8008  0.7884
 8288SOL    HW225764   0.741   1.066   6.278  1.3076 -0.1991  0.2472
 8289SOL     OW25765   4.061   3.423   0.522 -0.4440 -0.3085  0.3518
 8289SOL    HW125766   4.077   3.430   0.424  1.0296 -1.6308  0.4606
 8289SOL    HW225767   4.022   3.509   0.556  0.1691  0.6035 -1.1814
 8290SOL     OW25768   5.231   1.558   3.579 -0.4965  0.3149 -0.1199
 8290SOL    HW125769   5.133   1.543   3.570 -0.2081 -1.7851 -0.3066
 8290SOL    HW225770   5.276   1.541   3.491  0.1906 -0.4717  0.3570
 8291SOL     OW25771   5.612   1.769   6.130  0.4230 -0.2337  0.5964
 8291SOL    HW125772   5.694   1.717   6.104  1.3863  0.7827  1.5480
 8291SOL    HW225773   5.620   1.800   6.224 -0.4234  1.1103  0.2491
 8292SOL     OW25774   2.271   1.367   5.462 -0.1253 -0.3444  0.3726
 8292SOL    HW125775   2.302   1.361   5.367  1.2714 -1.1129  0.8674
 8292SOL    HW225776   2.331   1.313   5.521  0.3900  1.8996  2.0271
 8293SOL     OW25777   3.834   4.959   0.242  0.9888  0.5450  0.4037
 8293SOL    HW125778   3.929   4.936   0.223  1.2552  2.1065 -0.2645
 8293SOL    HW225779   3.774   4.898   0.190  1.5685 -0.8339  1.2643
 8294SOL     OW25780   6.694   4.800   6.090 -0.1406 -0.5331  0.1135
 8294SOL    HW125781   6.731   4.821   6.180  1.4273 -0.2345 -0.5717
 8294SOL    HW225782   6.717   4.706   6.066  1.5911  0.1063 -0.9375
 8295SOL     OW25783   1.584   2.789   1.326  0.4696  0.3136 -0.0341
 8295SOL    HW125784   1.594   2.881   1.363 -1.0040  0.0009  1.2411
 8295SOL    HW225785   1.565   2.725   1.400 -4.2321 -0.0985 -1.2538
 8296SOL     OW25786   5.386   0.950   5.261  0.1663 -0.1140  0.1316
 8296SOL    HW125787   5.342   0.862   5.240  3.2786 -1.7912  0.0004
 8296SOL    HW225788   5.485   0.936   5.270  0.6293  3.1958  1.4763
 8297SOL     OW25789   0.835   4.247   4.831  0.3488 -0.6464  0.4380
 8297SOL    HW125790   0.836   4.214   4.925  0.5104 -1.5486  0.1343
 8297SOL    HW225791   0.743   4.238   4.793  0.7077 -2.2400 -0.1317
 8298SOL     OW25792   0.313   0.966   4.473 -0.2115 -0.3909 -0.1693
 8298SOL    HW125793   0.233   0.989   4.529 -1.3577 -0.8568 -1.5395
 8298SOL    HW225794   0.396   1.000   4.517 -0.9302 -1.6503  2.3269
 8299SOL     OW25795   0.895   1.724   3.496 -0.5226  0.6270  0.2254
 8299SOL    HW125796   0.887   1.625   3.478 -2.5296  0.7883  0.0365
 8299SOL    HW225797   0.806   1.761   3.520 -0.4361  2.9585 -2.5563
 8300SOL     OW25798   3.046   4.734   5.209 -0.7369 -1.1215 -0.1322
 8300SOL    HW125799   3.002   4.645   5.204 -0.8102 -1.0454 -0.9569
 8300SOL    HW225800   3.144   4.723   5.223 -0.7479 -1.3289 -0.2242
 8301SOL     OW25801   2.540   3.793   0.479 -0.2288 -0.5219 -0.3711
 8301SOL    HW125802   2.511   3.849   0.401 -0.9969  0.4595  0.5907
 8301SOL    HW225803   2.491   3.705   0.476 -0.4089 -0.4102 -0.8821
 8302SOL     OW25804   4.975   1.314   2.461  0.7325  0.3654  0.1005
 8302SOL    HW125805   4.964   1.220   2.428 -1.1438  0.5147  0.1984
 8302SOL    HW225806   5.040   1.363   2.402  1.0681 -0.7353 -0.4657
 8303SOL     OW25807   5.020   5.817   4.461 -0.4933 -0.1655  0.3004
 8303SOL    HW125808   4.959   5.896   4.449 -0.3388 -0.3374 -2.2329
 8303SOL    HW225809   5.092   5.840   4.526 -0.8415  1.5293  0.1455
 8304SOL     OW25810   5.109   0.708   4.989  0.2055  0.2809 -0.2566
 8304SOL    HW125811   5.103   0.608   4.984  2.5902 -0.1408  2.8387
 8304SOL    HW225812   5.023   0.745   5.024  0.2209 -0.9966  1.2265
 8305SOL     OW25813   0.192   1.764   2.963 -0.3522 -0.2691 -0.1142
 8305SOL    HW125814   0.137   1.711   2.899  0.0427 -0.7939 -0.0252
 8305SOL    HW225815   0.188   1.861   2.939  0.9772 -0.5954 -1.8452
 8306SOL     OW25816   3.010   6.118   3.083  0.1810 -0.0858  0.1322
 8306SOL    HW125817   3.045   6.051   3.017 -1.0323  0.6716 -1.3613
 8306SOL    HW225818   2.970   6.070   3.162 -0.0600 -1.1124 -0.5897
 8307SOL     OW25819   4.755   0.894   3.224 -0.0056  0.0183  0.1194
 8307SOL    HW125820   4.676   0.840   3.254 -0.6205  1.5394  1.3861
 8307SOL    HW225821   4.839   0.844   3.244 -0.5586 -0.5534  1.1016
 8308SOL     OW25822   6.484   2.017   5.165  0.1591 -0.0907 -0.3790
 8308SOL    HW125823   6.464   2.100   5.112 -1.2989  0.6062  1.1663
 8308SOL    HW225824   6.400   1.966   5.179  0.6785 -0.7172  0.5211
 8309SOL     OW25825   6.525   3.789   4.062 -0.0029  0.2408  0.3319
 8309SOL    HW125826   6.559   3.706   4.106 -0.1136 -0.4645 -0.8419
 8309SOL    HW225827   6.598   3.857   4.057  0.8752 -0.7500 -0.9515
 8310SOL     OW25828   3.687   1.704   0.023 -0.0323 -0.1426 -0.3162
 8310SOL    HW125829   3.675   1.772   0.095  0.7951  0.1680 -0.4551
 8310SOL    HW225830   3.598   1.681  -0.016 -0.6432 -1.1355  1.5261
 8311SOL     OW25831   1.538   5.269   6.424 -0.0904  0.1079 -0.1427
 8311SOL    HW125832   1.445   5.301   6.438  0.0858  0.5095  0.1348
 8311SOL    HW225833   1.597   5.346   6.400  0.2241 -0.0931 -0.0352
 8312SOL     OW25834   2.020   3.824   5.371 -0.3296 -0.1776  0.5881
 8312SOL    HW125835   1.935   3.772   5.373  0.0161 -0.9318 -1.6032
 8312SOL    HW225836   2.078   3.792   5.296  0.9886  1.7052  0.7073
 8313SOL     OW25837   6.368   1.183   6.928 -0.6033 -0.4577 -0.3239
 8313SOL    HW125838   6.432   1.244   6.880 -1.3020  0.0291 -0.6623
 8313SOL    HW225839   6.287   1.169   6.871 -1.4732  0.1545  0.7121
 8314SOL     OW25840   0.241   3.799   0.377 -0.6328 -0.2173  0.2593
 8314SOL    HW125841   0.190   3.857   0.441 -1.0450  0.9125 -1.0423
 8314SOL    HW225842   0.191   3.714   0.363 -0.3548 -0.6421  1.6924
 8315SOL     OW25843   3.400   1.175   6.478 -0.1345  0.1153 -0.6817
 8315SOL    HW125844   3.386   1.114   6.557 -1.7979 -0.0472 -1.0722
 8315SOL    HW225845   3.379   1.269   6.505  0.2601  0.2029 -0.6761
 8316SOL     OW25846   0.860   0.167   2.499  0.6562 -0.1150 -1.2363
 8316SOL    HW125847   0.768   0.195   2.473  0.5088 -0.0970 -0.7016
 8316SOL    HW225848   0.908   0.132   2.418  0.3246  0.2560 -1.5994
 8317SOL     OW25849   2.133   3.130   3.491  0.6433 -0.3286 -0.3573
 8317SOL    HW125850   2.203   3.122   3.561  1.5071  1.3838 -0.9693
 8317SOL    HW225851   2.144   3.216   3.441 -2.3344  0.3888 -0.0165
 8318SOL     OW25852   5.667   0.763   1.263 -0.7638 -0.1080 -0.0969
 8318SOL    HW125853   5.720   0.846   1.247 -1.4504  0.4622  0.5004
 8318SOL    HW225854   5.727   0.689   1.293 -0.0414 -0.0531 -1.3460
 8319SOL     OW25855   1.369   4.464   1.147  0.5440 -0.4259 -0.2833
 8319SOL    HW125856   1.448   4.404   1.133  0.4282 -0.1446 -2.6567
 8319SOL    HW225857   1.299   4.417   1.199  1.0762 -1.8139 -0.7847
 8320SOL     OW25858   4.997   2.592   6.205 -0.5844  0.4944 -0.7030
 8320SOL    HW125859   5.033   2.629   6.119  1.6159  0.0240 -0.0485
 8320SOL    HW225860   5.070   2.585   6.272 -2.1990  0.6233  1.1773
 8321SOL     OW25861   0.410   0.583   6.857  0.6348  0.3388  0.0880
 8321SOL    HW125862   0.499   0.537   6.848  0.5410  0.1204  0.2728
 8321SOL    HW225863   0.373   0.568   6.949 -0.1323 -0.5615 -0.3457
 8322SOL     OW25864   4.044   4.140   6.561 -0.3616  0.2338  0.1535
 8322SOL    HW125865   4.065   4.145   6.659 -0.3841 -0.0029  0.1730
 8322SOL    HW225866   4.031   4.044   6.535 -1.9412  0.3786  0.2697
 8323SOL     OW25867   3.464   5.880   5.286  0.3115  0.0047 -0.4020
 8323SOL    HW125868   3.369   5.877   5.254  0.5343 -1.0251 -1.0418
 8323SOL    HW225869   3.466   5.891   5.385 -0.5296 -1.2282 -0.2154
 8324SOL     OW25870   4.548   1.530   1.645  0.1357  0.1608  0.1620
 8324SOL    HW125871   4.459   1.540   1.600  0.5773  0.7187 -0.6102
 8324SOL    HW225872   4.561   1.604   1.711  0.5489  0.8240 -0.6452
 8325SOL     OW25873   6.783   6.462   6.261 -0.2791 -0.0587  0.0008
 8325SOL    HW125874   6.733   6.529   6.316 -0.6525  0.5657 -1.0753
 8325SOL    HW225875   6.778   6.373   6.305  0.8962  0.7255  1.9019
 8326SOL     OW25876   5.873   6.061   4.387 -0.1593  0.6875 -0.5129
 8326SOL    HW125877   5.941   5.995   4.416  0.4951  1.3562 -0.4969
 8326SOL    HW225878   5.879   6.074   4.288  0.6767  1.7597 -0.3360
 8327SOL     OW25879   2.285   1.425   0.275  0.3728  0.2000 -0.4887
 8327SOL    HW125880   2.298   1.326   0.277 -2.5381 -0.2723  1.2919
 8327SOL    HW225881   2.371   1.470   0.249  2.4956 -2.6361  1.1072
 8328SOL     OW25882   2.369   1.943   5.717  0.3938 -0.0936 -0.5177
 8328SOL    HW125883   2.462   1.919   5.743 -0.3861 -2.8610  0.0561
 8328SOL    HW225884   2.309   1.938   5.797 -1.6044 -6.4277 -1.8443
 8329SOL     OW25885   4.212   6.700   2.916  0.6827 -0.7327  0.1885
 8329SOL    HW125886   4.145   6.774   2.905  0.1294 -1.3439 -0.7466
 8329SOL    HW225887   4.297   6.725   2.870  0.2058 -1.0051 -0.8878
 8330SOL     OW25888   4.475   0.219   0.156 -0.3524 -0.2412  0.4080
 8330SOL    HW125889   4.461   0.257   0.248 -0.8497  1.3764 -0.2939
 8330SOL    HW225890   4.394   0.236   0.100 -0.4099 -2.0129 -0.0927
 8331SOL     OW25891   0.040   0.713   2.361  0.0751  0.7778 -0.3691
 8331SOL    HW125892  -0.012   0.672   2.286 -0.8633  1.9622 -0.4065
 8331SOL    HW225893   0.034   0.654   2.441  0.4405 -0.1236 -0.9885
 8332SOL     OW25894   3.682   3.342   4.963  0.1068 -0.6542  0.0574
 8332SOL    HW125895   3.703   3.316   4.869  0.0234 -0.3838 -0.0335
 8332SOL    HW225896   3.764   3.382   5.005 -0.6143  1.8193 -0.7710
 8333SOL     OW25897   2.887   4.123   5.333  0.5538  0.0528 -0.0659
 8333SOL    HW125898   2.900   4.222   5.339  0.3576 -0.0058  1.7077
 8333SOL    HW225899   2.791   4.100   5.345  0.7847 -0.4363  0.9547
 8334SOL     OW25900   0.604   2.337   7.000  0.5427 -0.5680  0.3987
 8334SOL    HW125901   0.574   2.296   7.086 -0.3531 -0.7176  0.0223
 8334SOL    HW225902   0.682   2.287   6.965  0.5185 -0.8968  0.8058
 8335SOL     OW25903   0.625   4.160   0.394  0.3826  0.0246  0.2373
 8335SOL    HW125904   0.711   4.203   0.368  0.0504  0.4868 -0.1049
 8335SOL    HW225905   0.550   4.197   0.339  0.1788 -1.4867 -0.5540
 8336SOL     OW25906   6.719   6.865   3.114  0.0372  0.3899  0.7414
 8336SOL    HW125907   6.782   6.796   3.077 -0.5610  0.2385 -0.0231
 8336SOL    HW225908   6.735   6.875   3.212  1.4258  0.5465  0.5216
 8337SOL     OW25909   0.778   3.440   6.841 -0.0518  0.3964  0.0475
 8337SOL    HW125910   0.773   3.387   6.757 -3.2120  1.1659 -0.3802
 8337SOL    HW225911   0.796   3.379   6.918  1.4184 -0.5176 -0.9747
 8338SOL     OW25912   4.996   4.570   5.863  0.2979 -0.2177  0.3897
 8338SOL    HW125913   4.995   4.475   5.894 -0.3184 -0.2200  0.3811
 8338SOL    HW225914   5.084   4.612   5.886  0.5513 -0.7719  0.4421
 8339SOL     OW25915   6.398   0.132   6.576 -0.1448 -0.3092 -0.1770
 8339SOL    HW125916   6.379   0.186   6.495  0.1181 -1.1677 -0.8273
 8339SOL    HW225917   6.482   0.165   6.620 -0.2671  0.1296 -0.2735
 8340SOL     OW25918   6.764   3.432   5.462 -0.3536  0.1035 -0.1547
 8340SOL    HW125919   6.755   3.333   5.472 -0.7262  0.1233 -0.2803
 8340SOL    HW225920   6.854   3.461   5.495 -0.5816 -0.1577  0.7096
 8341SOL     OW25921   3.963   2.977   5.561  0.1323  0.4568  0.6046
 8341SOL    HW125922   3.936   2.902   5.620  0.3685 -0.9125 -0.9604
 8341SOL    HW225923   4.062   2.977   5.547 -0.0768 -0.3803 -1.1860
 8342SOL     OW25924   4.065   3.116   2.546 -0.3228 -0.3366 -0.2215
 8342SOL    HW125925   4.063   3.083   2.641 -2.2117 -0.9780 -0.4345
 8342SOL    HW225926   3.989   3.179   2.532  0.3027  0.2291 -1.1758
 8343SOL     OW25927   0.567   6.644   3.475  0.6904  0.6612  0.0827
 8343SOL    HW125928   0.656   6.678   3.505  0.1829  2.3297 -0.1718
 8343SOL    HW225929   0.518   6.717   3.428  0.3229 -1.0456 -2.3596
 8344SOL     OW25930   1.513   2.758   6.152  0.0474 -0.5465 -0.2996
 8344SOL    HW125931   1.468   2.673   6.176  1.7913 -0.8975  2.0703
 8344SOL    HW225932   1.526   2.814   6.234  0.5234  1.2325 -1.5140
 8345SOL     OW25933   3.444   1.859   1.015  0.4901  0.5369  0.0840
 8345SOL    HW125934   3.475   1.831   1.106 -0.1135 -2.0651 -0.4246
 8345SOL    HW225935   3.489   1.803   0.946 -0.2202  1.4123 -1.1233
 8346SOL     OW25936   5.365   2.377   4.622  0.3426  0.4603  0.3419
 8346SOL    HW125937   5.458   2.342   4.615 -0.6531 -2.8460  1.9865
 8346SOL    HW225938   5.368   2.477   4.629  3.6182  0.5707 -0.7723
 8347SOL     OW25939   5.208   4.101   2.265  0.0877  0.2476  0.7694
 8347SOL    HW125940   5.291   4.117   2.211 -1.0689 -1.4372 -1.6552
 8347SOL    HW225941   5.231   4.042   2.343  1.5481  1.7019  1.5179
 8348SOL     OW25942   4.433   5.201   0.808 -0.6761 -0.0351  0.0664
 8348SOL    HW125943   4.349   5.250   0.786  0.1101  1.3293 -0.0063
 8348SOL    HW225944   4.498   5.211   0.732 -0.4147 -1.0187  0.1482
 8349SOL     OW25945   5.218   4.237   2.715 -0.5616 -0.4685 -0.2803
 8349SOL    HW125946   5.170   4.201   2.795 -0.9955  0.0615 -0.2966
 8349SOL    HW225947   5.151   4.267   2.646 -0.3250  2.1840  0.5128
 8350SOL     OW25948   3.012   0.806   4.698 -0.4271 -0.0998  0.6085
 8350SOL    HW125949   2.942   0.793   4.769 -1.6357  1.6945 -0.1778
 8350SOL    HW225950   3.045   0.900   4.700 -1.4054  0.3917 -1.9319
 8351SOL     OW25951   3.740   1.171   5.596 -0.2914  0.4649 -0.7338
 8351SOL    HW125952   3.701   1.079   5.607  0.4973  0.0868 -1.0371
 8351SOL    HW225953   3.779   1.180   5.505  1.9156  0.2103  0.1254
 8352SOL     OW25954   4.017   4.673   6.363  0.2918 -0.1882  0.1284
 8352SOL    HW125955   4.074   4.684   6.281  0.9336 -0.8158  0.4803
 8352SOL    HW225956   4.042   4.588   6.409 -0.5920 -0.2148  0.5671
 8353SOL     OW25957   1.199   4.313   5.551  0.1593  0.1616  0.0509
 8353SOL    HW125958   1.104   4.342   5.558  0.2235  0.1159  1.5576
 8353SOL    HW225959   1.214   4.232   5.608  0.9995 -0.1112 -0.5278
 8354SOL     OW25960   6.341   6.004   6.855 -0.4567 -0.8216 -0.2915
 8354SOL    HW125961   6.325   5.956   6.941  0.9466 -0.6930  0.0746
 8354SOL    HW225962   6.362   6.100   6.875 -1.6365 -0.4278 -0.8972
 8355SOL     OW25963   5.572   1.318   4.595 -0.1696  0.4754  0.1399
 8355SOL    HW125964   5.652   1.378   4.590  1.5401 -1.6463  0.1602
 8355SOL    HW225965   5.563   1.266   4.510 -0.7099 -0.2500  0.6192
 8356SOL     OW25966   2.597   2.572   0.800  0.3421 -0.2638  0.3288
 8356SOL    HW125967   2.516   2.524   0.835  0.2560  0.3032  0.9385
 8356SOL    HW225968   2.676   2.552   0.857  0.5974 -0.6688 -0.1575
 8357SOL     OW25969   6.243   6.523   3.231  0.0851 -0.0888 -0.2699
 8357SOL    HW125970   6.162   6.563   3.273 -0.5457 -0.2164 -1.3283
 8357SOL    HW225971   6.312   6.595   3.217  0.3765 -0.0708  1.0764
 8358SOL     OW25972   6.714   4.728   3.196 -0.5401 -0.0638 -0.5118
 8358SOL    HW125973   6.798   4.693   3.238 -1.0974 -0.3943  0.3423
 8358SOL    HW225974   6.660   4.653   3.160 -1.3509 -0.0367  0.6049
 8359SOL     OW25975   1.083   1.317   4.043 -0.3813  0.2660 -0.3594
 8359SOL    HW125976   1.155   1.276   3.988  0.3128 -0.5414  1.0844
 8359SOL    HW225977   1.124   1.369   4.118 -1.2935  1.0827 -0.4080
 8360SOL     OW25978   4.026   1.123   0.099 -0.2023  0.3012  0.2875
 8360SOL    HW125979   4.017   1.138   0.198 -2.3889 -1.0132  0.3493
 8360SOL    HW225980   4.022   1.211   0.052  1.0401  0.9667  1.3368
 8361SOL     OW25981   1.886   6.539   6.918 -0.8047  0.1895  0.1623
 8361SOL    HW125982   1.877   6.441   6.936 -3.0218  0.3052 -0.0728
 8361SOL    HW225983   1.959   6.577   6.975  0.8611 -1.7626 -0.5429
 8362SOL     OW25984   1.059   3.194   6.149  0.2870  0.1694  0.1698
 8362SOL    HW125985   1.068   3.207   6.247 -1.7520  0.9063  0.3040
 8362SOL    HW225986   1.027   3.278   6.106 -1.8340 -0.9594 -0.6468
 8363SOL     OW25987   6.028   1.083   0.389  0.2738 -0.7120  0.3794
 8363SOL    HW125988   6.083   1.053   0.311 -1.0816  1.9555 -1.8031
 8363SOL    HW225989   6.085   1.136   0.451  0.5420  1.0497 -1.2576
 8364SOL     OW25990   4.665   4.663   3.571  0.0937 -0.4503  0.4112
 8364SOL    HW125991   4.634   4.622   3.485  0.0502 -1.1315  0.7408
 8364SOL    HW225992   4.727   4.599   3.617 -0.4391 -0.3925  1.2186
 8365SOL     OW25993   3.990   0.786   2.852 -0.1414  0.0628 -0.2519
 8365SOL    HW125994   4.079   0.803   2.895 -0.9498  0.3917  1.3715
 8365SOL    HW225995   3.917   0.824   2.909 -1.4019 -1.0755 -1.0284
 8366SOL     OW25996   1.346   0.785   6.132 -0.1916 -0.6684  0.2745
 8366SOL    HW125997   1.399   0.866   6.157  1.5024 -0.7809 -2.5143
 8366SOL    HW225998   1.248   0.805   6.139  0.1814  1.7006 -0.4902
 8367SOL     OW25999   6.339   4.501   5.374 -0.0157 -0.1854 -0.4222
 8367SOL    HW126000   6.252   4.527   5.332 -0.3571 -1.1050 -0.2957
 8367SOL    HW226001   6.407   4.571   5.354 -1.0357  1.0847  0.3374
 8368SOL     OW26002   2.106   3.311   1.075 -0.5432  0.0569  0.5816
 8368SOL    HW126003   2.012   3.330   1.046 -1.3647 -1.3926  2.1429
 8368SOL    HW226004   2.142   3.233   1.024 -1.4324 -1.5065  2.2437
 8369SOL     OW26005   2.591   2.140   6.342 -0.1821 -0.1058  0.1796
 8369SOL    HW126006   2.550   2.095   6.421 -1.4549  0.8093  0.0768
 8369SOL    HW226007   2.563   2.092   6.258 -1.1303  0.5528  0.1051
 8370SOL     OW26008   0.057   0.036   1.998  0.0842  0.4015 -0.5296
 8370SOL    HW126009  -0.016   0.004   1.938 -1.0135  0.1305  0.8711
 8370SOL    HW226010   0.065  -0.026   2.076  2.9677 -0.4979 -1.4320
 8371SOL     OW26011   2.626   5.491   3.194  0.1339 -0.3161 -0.4081
 8371SOL    HW126012   2.697   5.426   3.221  0.2999 -0.2019 -0.5731
 8371SOL    HW226013   2.567   5.509   3.273  1.2841  0.8773  0.2342
 8372SOL     OW26014   2.117   2.945   2.222 -0.3644 -0.5123  0.5712
 8372SOL    HW126015   2.120   3.021   2.288  1.5845  0.5641 -0.6545
 8372SOL    HW226016   2.117   2.983   2.129  3.7388 -1.9006 -0.1685
 8373SOL     OW26017   5.560   3.254   5.432  0.0756 -0.9816  0.4892
 8373SOL    HW126018   5.491   3.199   5.478  1.3960 -1.7603  1.6070
 8373SOL    HW226019   5.651   3.222   5.458  0.8770 -0.0874 -1.0648
 8374SOL     OW26020   0.138   6.110   0.473  0.1592 -0.4293 -0.5665
 8374SOL    HW126021   0.173   6.044   0.540 -1.0304  0.9547  1.5219
 8374SOL    HW226022   0.187   6.099   0.387  0.7968 -3.2293  0.0603
 8375SOL     OW26023   5.663   0.656   6.257 -0.6406  0.2541 -0.0414
 8375SOL    HW126024   5.568   0.633   6.276 -1.0987  0.9101 -1.4243
 8375SOL    HW226025   5.668   0.712   6.174  1.1774 -1.9737 -1.5512
 8376SOL     OW26026   2.059   5.105   4.918 -0.1171  0.0038 -0.4326
 8376SOL    HW126027   1.971   5.149   4.937 -0.4025 -0.8713  0.3476
 8376SOL    HW226028   2.048   5.006   4.925  0.3400 -0.2730 -2.8139
 8377SOL     OW26029   0.934   5.343   3.979  0.2432  0.0797  0.8970
 8377SOL    HW126030   0.956   5.365   3.884 -0.1944  0.7710  0.9443
 8377SOL    HW226031   0.836   5.324   3.987 -0.3213  2.8758  1.6733
 8378SOL     OW26032   0.136   6.088   6.962 -0.2942  0.1174  0.3251
 8378SOL    HW126033   0.143   6.024   6.886 -1.1366  1.8615 -1.3009
 8378SOL    HW226034   0.097   6.041   7.042  1.0229 -1.8597 -0.1377
 8379SOL     OW26035   5.594   5.927   3.323 -0.0844 -0.3771  0.0240
 8379SOL    HW126036   5.645   5.941   3.238 -0.4750  1.6289  0.0491
 8379SOL    HW226037   5.632   5.987   3.395 -1.3751 -0.0928  0.5067
 8380SOL     OW26038   6.466   1.703   2.641 -0.2114 -0.5222  0.1952
 8380SOL    HW126039   6.517   1.706   2.555  0.2561  0.5011  0.4925
 8380SOL    HW226040   6.531   1.707   2.718 -0.6952  0.0065  0.5837
 8381SOL     OW26041   6.833   5.401   2.629  0.0862 -0.1305  0.5809
 8381SOL    HW126042   6.867   5.335   2.562 -2.4694  0.0692 -1.0679
 8381SOL    HW226043   6.910   5.452   2.667  1.9501 -2.6043  0.3960
 8382SOL     OW26044   1.799   2.523   2.705 -0.3463 -0.1285 -0.5712
 8382SOL    HW126045   1.836   2.431   2.710 -0.7915 -0.3260 -0.8219
 8382SOL    HW226046   1.704   2.519   2.672 -0.4894  0.3889 -0.2366
 8383SOL     OW26047   0.730   6.426   4.736 -0.1702  0.6010 -0.4578
 8383SOL    HW126048   0.740   6.327   4.729 -0.6233  0.5738 -0.8597
 8383SOL    HW226049   0.722   6.452   4.832 -0.3373  0.2159 -0.3630
 8384SOL     OW26050   0.690   2.438   3.112 -0.1512  0.2362 -0.0634
 8384SOL    HW126051   0.648   2.528   3.122  2.3862  1.4643  0.3198
 8384SOL    HW226052   0.690   2.412   3.015  1.0926  1.7588 -0.5211
 8385SOL     OW26053   4.980   4.451   6.912  0.1698  0.0174 -0.6986
 8385SOL    HW126054   4.924   4.457   6.829 -0.7594 -1.3688 -0.2175
 8385SOL    HW226055   4.920   4.454   6.992  0.9133 -0.1870 -0.1246
 8386SOL     OW26056   0.437   5.366   6.068 -0.2395 -0.9317 -0.6400
 8386SOL    HW126057   0.409   5.277   6.104  0.1492 -1.7907 -2.3804
 8386SOL    HW226058   0.521   5.355   6.015  0.5901  0.7290  0.2470
 8387SOL     OW26059   5.264   6.010   4.290  0.0460 -0.1029 -0.5409
 8387SOL    HW126060   5.277   5.999   4.389  1.9316  1.0367 -0.6112
 8387SOL    HW226061   5.322   5.946   4.241 -1.4881 -1.2335 -0.9587
 8388SOL     OW26062   2.820   3.072   1.742 -0.4659  0.3930 -0.0803
 8388SOL    HW126063   2.857   3.080   1.835 -1.8889  4.1299  0.3231
 8388SOL    HW226064   2.893   3.088   1.675  0.4347 -1.6983  0.3172
 8389SOL     OW26065   5.647   1.859   4.075  0.3367 -0.0953  0.3101
 8389SOL    HW126066   5.709   1.813   4.139  0.1556 -1.1818 -0.2690
 8389SOL    HW226067   5.555   1.823   4.086  0.1716  0.1870 -0.1077
 8390SOL     OW26068   2.505   0.176   2.831  0.6023  0.1950 -0.0554
 8390SOL    HW126069   2.534   0.266   2.862  2.5555 -0.1829 -0.6148
 8390SOL    HW226070   2.473   0.122   2.909  0.5296  0.9840  0.4639
 8391SOL     OW26071   2.020   4.833   4.980 -0.8992  0.4693 -0.3312
 8391SOL    HW126072   2.116   4.807   4.983 -1.0427 -0.0031  1.7689
 8391SOL    HW226073   1.980   4.807   4.892  0.3544 -1.2833 -0.4241
 8392SOL     OW26074   6.818   2.482   2.875 -0.1356  0.0985 -0.1653
 8392SOL    HW126075   6.755   2.507   2.801  0.2230 -0.6557 -0.7462
 8392SOL    HW226076   6.801   2.540   2.954 -1.0136  0.4505 -0.5914
 8393SOL     OW26077   2.608   0.378   6.956 -0.1268  0.2129  0.8254
 8393SOL    HW126078   2.642   0.355   6.865 -0.8962 -1.9728  1.0240
 8393SOL    HW226079   2.514   0.345   6.966 -0.5373  1.6086  1.9808
 8394SOL     OW26080   0.125   4.912   1.975  0.0361 -0.6887 -0.6236
 8394SOL    HW126081   0.165   4.960   2.054  0.2830 -1.2202 -0.4228
 8394SOL    HW226082   0.143   4.814   1.983 -2.5544 -1.1681  0.2523
 8395SOL     OW26083   1.123   4.712   6.581  0.4266 -0.6682 -0.4494
 8395SOL    HW126084   1.137   4.770   6.501 -1.1817  0.3748 -0.0199
 8395SOL    HW226085   1.089   4.768   6.657 -0.9131 -2.1244  0.0713
 8396SOL     OW26086   1.955   2.660   1.119  0.5831 -0.5021 -0.0056
 8396SOL    HW126087   1.888   2.668   1.192  0.1461 -3.4979  0.0372
 8396SOL    HW226088   1.932   2.724   1.045 -1.7026 -0.7252  0.4530
 8397SOL     OW26089   1.188   4.566   4.854  0.3469  0.3525  0.1566
 8397SOL    HW126090   1.194   4.644   4.917  0.5979  0.9285 -0.5587
 8397SOL    HW226091   1.276   4.555   4.807  0.5714 -0.8845  0.8511
 8398SOL     OW26092   6.359   4.498   6.378 -0.2890  0.3646  0.4972
 8398SOL    HW126093   6.333   4.459   6.466  2.1109  1.6623  1.8714
 8398SOL    HW226094   6.457   4.483   6.362 -0.6633  0.0894 -2.0328
 8399SOL     OW26095   6.592   0.844   6.106 -0.3138 -0.0202 -0.1693
 8399SOL    HW126096   6.647   0.784   6.164  0.0408  1.1251  0.7066
 8399SOL    HW226097   6.643   0.867   6.024 -0.2566 -0.5095 -0.2747
 8400SOL     OW26098   2.191   0.597   6.420  0.0969  0.2561  0.5927
 8400SOL    HW126099   2.239   0.616   6.334  0.1188  0.8349  0.7344
 8400SOL    HW226100   2.096   0.625   6.413 -0.0706 -0.3104  0.5335
 8401SOL     OW26101   6.350   1.660   6.640  0.1388  0.6177  0.1412
 8401SOL    HW126102   6.332   1.652   6.542  0.0194  0.1781  0.2009
 8401SOL    HW226103   6.282   1.610   6.692 -0.4156  1.7132  0.5017
 8402SOL     OW26104   5.809   0.606   6.758  0.5874  0.0126 -0.7432
 8402SOL    HW126105   5.842   0.656   6.679  0.4152 -2.4017 -2.4556
 8402SOL    HW226106   5.794   0.510   6.733  0.5254 -0.8539  2.2237
 8403SOL     OW26107   5.853   3.827   0.485 -0.2606  0.0555  0.0973
 8403SOL    HW126108   5.770   3.866   0.446  0.2396  0.2765 -0.7614
 8403SOL    HW226109   5.832   3.790   0.576 -2.1516 -2.9822 -1.3982
 8404SOL     OW26110   2.956   4.789   4.662 -0.0745  0.1657  0.2821
 8404SOL    HW126111   2.911   4.743   4.585  1.3702 -1.8454  0.5741
 8404SOL    HW226112   3.050   4.814   4.636  0.3396 -0.2868  1.2944
 8405SOL     OW26113   1.912   5.916   4.391 -0.5626  0.5717 -0.2249
 8405SOL    HW126114   1.937   5.819   4.389  0.2853  0.7750  0.0337
 8405SOL    HW226115   1.985   5.970   4.350 -0.8327  1.1421  0.0380
 8406SOL     OW26116   0.503   1.818   4.639 -0.0812  0.0238 -0.1529
 8406SOL    HW126117   0.546   1.748   4.582 -0.6007 -0.4745  0.0588
 8406SOL    HW226118   0.409   1.833   4.608  0.5350  1.8593 -1.2827
 8407SOL     OW26119   7.008   0.436   1.067 -0.0822 -0.1743  0.4929
 8407SOL    HW126120   6.936   0.415   1.133 -1.6675  2.5132 -0.2516
 8407SOL    HW226121   7.007   0.533   1.045  1.2639 -0.7104 -2.4961
 8408SOL     OW26122   2.428   0.383   4.997 -0.9933  0.2851  0.0014
 8408SOL    HW126123   2.413   0.295   4.952  0.2532  0.6828 -1.2716
 8408SOL    HW226124   2.417   0.372   5.096  0.1086 -1.5515 -0.0278
 8409SOL     OW26125   6.386   5.750   5.338 -0.2199 -0.4595 -0.5615
 8409SOL    HW126126   6.410   5.845   5.358 -0.1409 -0.3722 -1.0770
 8409SOL    HW226127   6.360   5.704   5.423 -0.8011  0.1735 -0.3879
 8410SOL     OW26128   2.312   2.438   1.863 -0.0505 -0.1097  0.2956
 8410SOL    HW126129   2.311   2.390   1.951  0.4222  0.2481  0.4967
 8410SOL    HW226130   2.277   2.531   1.876 -0.0367 -0.0766  0.0899
 8411SOL     OW26131   1.402   3.021   3.630 -0.2438  0.3933 -0.0244
 8411SOL    HW126132   1.426   3.118   3.621  0.3401  0.3369  0.7767
 8411SOL    HW226133   1.486   2.967   3.629 -0.4539  0.0235  0.9439
 8412SOL     OW26134   3.846   1.295   0.781  0.3049  0.3278 -0.3593
 8412SOL    HW126135   3.788   1.289   0.862 -3.1796  1.1131 -2.5948
 8412SOL    HW226136   3.884   1.388   0.774 -0.2235  0.5642 -0.1381
 8413SOL     OW26137   5.671   4.808   5.769  0.2547 -1.0837 -0.2413
 8413SOL    HW126138   5.667   4.781   5.866  0.2885 -1.6873 -0.4085
 8413SOL    HW226139   5.766   4.825   5.743  0.2400 -0.8605 -0.1566
 8414SOL     OW26140   2.880   2.577   5.501 -0.0494 -0.1743 -0.4715
 8414SOL    HW126141   2.979   2.584   5.514  0.3038 -2.7401 -1.2648
 8414SOL    HW226142   2.835   2.655   5.544  2.2337  0.5601  0.7232
 8415SOL     OW26143   4.308   3.159   0.896  0.2582  0.1590  0.2770
 8415SOL    HW126144   4.242   3.087   0.917 -1.3342  1.8842  1.6369
 8415SOL    HW226145   4.313   3.173   0.797 -0.3139 -0.9756  0.0760
 8416SOL     OW26146   6.459   0.800   4.075 -0.1161  0.3397  0.5465
 8416SOL    HW126147   6.538   0.747   4.106  1.1733 -0.3831 -3.3695
 8416SOL    HW226148   6.387   0.737   4.044 -0.9276  0.9866  1.0678
 8417SOL     OW26149   2.913   3.976   5.107  0.3464 -0.1447  0.1866
 8417SOL    HW126150   2.891   4.033   5.186  0.2630 -0.9689  0.7832
 8417SOL    HW226151   2.843   3.905   5.097  0.4653 -0.1684 -0.5098
 8418SOL     OW26152   3.950   2.790   0.781  0.3039 -0.0774 -0.2896
 8418SOL    HW126153   3.952   2.865   0.715 -2.4618 -2.1234 -2.9594
 8418SOL    HW226154   3.867   2.796   0.837  0.8105 -0.3857  0.5235
 8419SOL     OW26155   2.988   4.808   0.857  1.1127 -0.0050 -0.1747
 8419SOL    HW126156   2.949   4.727   0.902  0.5748  0.5252  0.3415
 8419SOL    HW226157   2.938   4.826   0.772 -0.1747  0.9833  0.7497
 8420SOL     OW26158   6.498   6.376   6.661 -0.2120 -0.4998 -0.5589
 8420SOL    HW126159   6.515   6.468   6.627 -1.2871 -0.1605 -0.2232
 8420SOL    HW226160   6.451   6.322   6.591 -2.4256  0.1992  0.3247
 8421SOL     OW26161   0.711   2.989   1.963  0.1989 -0.6557 -0.0615
 8421SOL    HW126162   0.640   3.015   2.029 -0.4483 -0.3029 -0.8839
 8421SOL    HW226163   0.734   3.067   1.906  1.6607 -0.6130  0.5399
 8422SOL     OW26164   2.330   7.001   3.426 -0.0811 -0.4051  0.9913
 8422SOL    HW126165   2.428   6.983   3.418 -0.3244 -1.2995 -0.3268
 8422SOL    HW226166   2.283   6.919   3.458 -0.5524 -0.4299  0.2754
 8423SOL     OW26167   3.993   4.809   4.095  0.2281 -0.7245 -0.2987
 8423SOL    HW126168   4.048   4.790   4.177 -0.0243  1.8778  0.5665
 8423SOL    HW226169   4.045   4.784   4.014  1.3319 -1.4214  0.5850
 8424SOL     OW26170   0.210   6.460   5.070 -0.0997 -0.1628  0.3773
 8424SOL    HW126171   0.242   6.477   4.977  0.4126  1.6817  0.8433
 8424SOL    HW226172   0.286   6.426   5.125 -0.1460 -0.3012  0.3549
 8425SOL     OW26173   5.725   2.108   4.007 -0.1552 -0.6879 -0.1806
 8425SOL    HW126174   5.748   2.017   4.042 -0.6591 -0.6455  0.2711
 8425SOL    HW226175   5.804   2.169   4.017  0.8643 -1.5735 -2.2868
 8426SOL     OW26176   1.041   2.798   0.155  0.5037 -0.0733  0.2032
 8426SOL    HW126177   1.005   2.742   0.081  1.4199 -1.0340  0.4590
 8426SOL    HW226178   0.966   2.847   0.200 -0.0682  0.5054 -1.3157
 8427SOL     OW26179   5.167   2.295   6.325 -0.1467  0.3731  0.1823
 8427SOL    HW126180   5.147   2.393   6.337 -0.2858  0.5107 -1.0245
 8427SOL    HW226181   5.099   2.255   6.263  0.7865 -0.1333 -0.5427
 8428SOL     OW26182   2.592   4.695   2.523  0.6788  0.0241  0.6002
 8428SOL    HW126183   2.613   4.665   2.430 -0.2318  0.2953  0.2972
 8428SOL    HW226184   2.505   4.744   2.523  0.1902 -0.7918  1.7503
 8429SOL     OW26185   5.114   4.734   6.728 -0.4054 -0.4900  0.1675
 8429SOL    HW126186   5.031   4.783   6.755  0.9536  1.5531  0.8574
 8429SOL    HW226187   5.181   4.739   6.802  0.6603 -1.3727 -0.7118
 8430SOL     OW26188   1.188   2.303   5.112  0.1633 -0.1390 -0.3963
 8430SOL    HW126189   1.130   2.326   5.034 -1.0450 -2.0361 -0.1198
 8430SOL    HW226190   1.135   2.315   5.197  0.7076 -0.3279 -0.0254
 8431SOL     OW26191   2.975   0.447   2.321  0.0881  0.6487 -0.8155
 8431SOL    HW126192   2.932   0.537   2.314 -0.6049  0.3188 -0.9479
 8431SOL    HW226193   3.066   0.456   2.360 -0.1135  1.3664 -0.4909
 8432SOL     OW26194   5.785   3.876   3.760  0.3393 -0.4485 -0.0157
 8432SOL    HW126195   5.705   3.933   3.780  1.1577  0.4313  0.8575
 8432SOL    HW226196   5.863   3.934   3.737  0.7046 -1.3031 -1.0382
 8433SOL     OW26197   0.791   5.580   1.025 -0.1030  0.0740  0.1225
 8433SOL    HW126198   0.716   5.514   1.020  0.3616 -0.6532  1.9198
 8433SOL    HW226199   0.757   5.671   0.998 -1.3949 -0.4201  0.0049
 8434SOL     OW26200   0.824   5.888   2.292  0.2845  0.0351  0.0381
 8434SOL    HW126201   0.764   5.958   2.254  0.9348  0.2199 -0.6833
 8434SOL    HW226202   0.784   5.850   2.375 -0.7963  0.1805 -0.4093
 8435SOL     OW26203   5.803   6.538   1.836  0.2268 -0.5444 -0.2621
 8435SOL    HW126204   5.785   6.465   1.770 -1.7172  0.0974 -0.5177
 8435SOL    HW226205   5.733   6.609   1.826  1.0246  0.4914  1.2004
 8436SOL     OW26206   6.295   1.779   4.387 -0.3399  0.2573  0.4284
 8436SOL    HW126207   6.361   1.704   4.387 -1.4140 -0.7141 -0.6144
 8436SOL    HW226208   6.323   1.847   4.455  1.1717 -0.6077  0.7236
 8437SOL     OW26209   5.575   1.615   2.730 -0.5650 -0.4345 -0.5253
 8437SOL    HW126210   5.528   1.560   2.661 -0.5427 -1.8191  0.5127
 8437SOL    HW226211   5.557   1.712   2.714 -1.5337 -0.7909 -1.7440
 8438SOL     OW26212   0.167   6.883   3.225  0.0130 -0.4303 -0.3353
 8438SOL    HW126213   0.150   6.849   3.132  0.0959  0.5378 -0.7146
 8438SOL    HW226214   0.265   6.902   3.236  0.1608 -1.4839  0.2874
 8439SOL     OW26215   3.333   5.119   2.288  0.1427 -0.2638  0.2835
 8439SOL    HW126216   3.396   5.093   2.362 -0.3493 -1.3215  0.3447
 8439SOL    HW226217   3.301   5.037   2.242  1.0115  0.3994 -1.6009
 8440SOL     OW26218   5.979   6.568   5.582  0.1131  0.0071 -0.1714
 8440SOL    HW126219   5.989   6.553   5.483 -2.7209  2.4499 -0.9712
 8440SOL    HW226220   5.932   6.490   5.623  0.0138 -0.3921 -1.0219
 8441SOL     OW26221   6.788   3.942   1.811 -0.2716  0.3010 -0.2991
 8441SOL    HW126222   6.808   3.905   1.721  2.2078 -1.9534  1.0451
 8441SOL    HW226223   6.775   3.867   1.876  2.6152  1.6943  2.1016
 8442SOL     OW26224   6.995   5.337   5.332  0.0828  0.5186 -0.4121
 8442SOL    HW126225   6.942   5.421   5.321  0.6975  1.3427  2.1336
 8442SOL    HW226226   7.085   5.359   5.370  1.3765 -1.0692 -2.3596
 8443SOL     OW26227   4.111   5.282   0.488 -0.3968 -0.5117 -0.4205
 8443SOL    HW126228   4.132   5.276   0.585 -0.5182 -0.0249 -0.3657
 8443SOL    HW226229   4.030   5.225   0.468 -0.6495 -0.2469 -0.1560
 8444SOL     OW26230   5.363   0.880   0.391 -0.4610 -0.1592  0.0457
 8444SOL    HW126231   5.459   0.860   0.374 -0.0591 -0.0434  1.9529
 8444SOL    HW226232   5.350   0.979   0.398 -0.5563 -0.2008  0.5410
 8445SOL     OW26233   6.060   4.798   5.467 -0.4517  0.0042  0.1186
 8445SOL    HW126234   6.061   4.760   5.374 -1.5808 -0.6144  0.3457
 8445SOL    HW226235   6.148   4.780   5.511  0.3098  0.7881 -1.0015
 8446SOL     OW26236   0.194   5.440   6.124  0.4676 -0.0733  0.2183
 8446SOL    HW126237   0.157   5.424   6.216 -0.5115 -0.2126 -0.1838
 8446SOL    HW226238   0.289   5.408   6.120  0.0393 -1.5135  0.7508
 8447SOL     OW26239   4.409   0.740   3.777 -0.0456  0.2259 -0.4598
 8447SOL    HW126240   4.497   0.701   3.805  0.2814 -0.5568 -2.4207
 8447SOL    HW226241   4.367   0.786   3.855  0.6115 -2.0750  1.3744
 8448SOL     OW26242   0.556   1.259   2.161 -0.3035 -0.3597 -0.3138
 8448SOL    HW126243   0.630   1.327   2.161 -0.3655 -0.2791  1.0455
 8448SOL    HW226244   0.554   1.211   2.248 -0.7041 -1.6540 -1.0073
 8449SOL     OW26245   5.442   6.247   0.818 -0.1689 -0.6769  0.3287
 8449SOL    HW126246   5.427   6.178   0.746 -2.8769  1.0257 -0.8748
 8449SOL    HW226247   5.439   6.338   0.778  0.4150  0.2779  2.3281
 8450SOL     OW26248   2.361   2.998   5.423 -0.2873 -0.1323  0.0188
 8450SOL    HW126249   2.399   2.917   5.467  0.6279 -0.5755 -1.5025
 8450SOL    HW226250   2.401   3.008   5.332 -0.1367  2.2224  0.2829
 8451SOL     OW26251   0.612   1.809   2.544  0.0754 -0.2768 -0.5957
 8451SOL    HW126252   0.652   1.864   2.471  0.4359 -1.1504 -1.0748
 8451SOL    HW226253   0.658   1.831   2.630 -0.3158  0.7174 -0.6251
 8452SOL     OW26254   4.449   5.113   3.693  0.3523  0.1048 -0.2408
 8452SOL    HW126255   4.499   5.177   3.635  1.3186 -0.5139 -0.1044
 8452SOL    HW226256   4.484   5.021   3.679  0.0524 -0.1719  0.7412
 8453SOL     OW26257   2.041   5.676   0.612  0.3270  0.7645  0.5692
 8453SOL    HW126258   2.029   5.675   0.513 -1.6394 -2.9904  0.7084
 8453SOL    HW226259   2.107   5.606   0.639 -0.7099  0.3096  2.0485
 8454SOL     OW26260   1.784   6.138   0.220  0.3029  0.1837  0.5796
 8454SOL    HW126261   1.724   6.197   0.274  0.8745 -0.0542  1.4979
 8454SOL    HW226262   1.752   6.044   0.224  2.4038 -0.5515  3.7329
 8455SOL     OW26263   2.275   6.316   2.378 -0.5117 -0.2932 -0.5331
 8455SOL    HW126264   2.245   6.353   2.466  0.2856 -0.3838 -0.2129
 8455SOL    HW226265   2.195   6.303   2.318 -1.1571 -0.8939  0.4234
 8456SOL     OW26266   4.680   6.890   2.062 -0.4201  0.2234 -0.0648
 8456SOL    HW126267   4.661   6.984   2.090  2.5008  1.7809 -2.7052
 8456SOL    HW226268   4.637   6.873   1.973  0.6800 -0.2465 -0.5113
 8457SOL     OW26269   2.102   6.796   5.087  0.1013  0.5871  0.0652
 8457SOL    HW126270   2.118   6.859   5.162 -0.3676  0.7698  0.0164
 8457SOL    HW226271   2.102   6.702   5.122 -2.4220  0.7596  0.7534
 8458SOL     OW26272   5.359   4.170   0.951 -0.0740 -0.0394 -0.1950
 8458SOL    HW126273   5.398   4.255   0.914  0.4096 -0.1500  0.0478
 8458SOL    HW226274   5.408   4.092   0.912  0.8585 -0.1445  1.1237
 8459SOL     OW26275   0.145   3.368   6.770  0.1936 -0.2776  0.5455
 8459SOL    HW126276   0.128   3.395   6.865  2.1376  1.8862  0.3971
 8459SOL    HW226277   0.197   3.283   6.768 -0.3910 -0.6635  1.3924
 8460SOL     OW26278   3.187   3.289   6.081  0.2365 -0.4638  0.3562
 8460SOL    HW126279   3.206   3.369   6.137  1.4055 -1.2894  1.1742
 8460SOL    HW226280   3.127   3.315   6.005 -0.0381  1.0052  1.0511
 8461SOL     OW26281   3.142   0.317   3.828  0.0125  0.1985 -0.3569
 8461SOL    HW126282   3.187   0.239   3.873 -0.3788  0.7604  1.0725
 8461SOL    HW226283   3.050   0.329   3.867  0.0660  1.3697 -0.5640
 8462SOL     OW26284   6.037   6.551   3.611 -0.1048 -0.1443  0.0799
 8462SOL    HW126285   5.948   6.505   3.605 -0.5401  0.6133  0.6419
 8462SOL    HW226286   6.029   6.644   3.574  0.6562 -0.3415 -0.6109
 8463SOL     OW26287   4.743   5.679   5.502 -0.1707 -0.9605  0.2512
 8463SOL    HW126288   4.657   5.644   5.540 -1.2660 -0.6675 -1.8401
 8463SOL    HW226289   4.767   5.764   5.549 -1.1494 -0.9228  0.7090
 8464SOL     OW26290   6.617   6.084   4.492 -0.6366 -0.2263 -0.3472
 8464SOL    HW126291   6.603   6.183   4.498  1.3393  0.2161 -1.8491
 8464SOL    HW226292   6.535   6.037   4.522 -0.4091  1.7622  4.1838
 8465SOL     OW26293   1.785   2.505   0.808 -0.0606 -0.1663  0.4455
 8465SOL    HW126294   1.771   2.411   0.839  0.1256  0.6228  3.1801
 8465SOL    HW226295   1.696   2.545   0.784 -0.4821 -0.3208  1.6521
 8466SOL     OW26296   6.102   4.634   5.965  0.2403  0.4314 -0.5824
 8466SOL    HW126297   6.179   4.622   5.902  0.4602 -1.5340 -0.0182
 8466SOL    HW226298   6.123   4.589   6.052 -0.8105  1.4875  0.2562
 8467SOL     OW26299   1.372   5.284   0.368 -0.2313 -0.2786  0.2285
 8467SOL    HW126300   1.288   5.271   0.422 -1.2362  0.2714 -1.1444
 8467SOL    HW226301   1.355   5.351   0.296  1.0642 -1.0208 -0.7982
 8468SOL     OW26302   5.690   5.302   6.284 -0.2799 -0.1419 -0.5224
 8468SOL    HW126303   5.716   5.398   6.269 -0.1013 -0.2663 -1.0302
 8468SOL    HW226304   5.606   5.282   6.233  0.2682 -0.5364 -1.2983
 8469SOL     OW26305   4.902   2.450   1.447 -0.1811 -0.0495  0.0463
 8469SOL    HW126306   4.848   2.450   1.363 -0.1889 -0.4404  0.0505
 8469SOL    HW226307   4.999   2.456   1.425 -0.2663  2.5461  0.0792
 8470SOL     OW26308   3.496   2.933   5.764  0.6204 -0.4996 -0.4820
 8470SOL    HW126309   3.490   2.875   5.683 -0.0194 -2.4965  0.9490
 8470SOL    HW226310   3.588   2.928   5.802  1.3588  1.5408 -1.7809
 8471SOL     OW26311   1.747   4.685   6.347  0.1087 -0.2545 -0.2190
 8471SOL    HW126312   1.769   4.654   6.254 -0.9038 -0.6078 -0.3575
 8471SOL    HW226313   1.796   4.770   6.366  0.5678 -0.3397 -0.9590
 8472SOL     OW26314   5.637   1.584   5.735 -0.1988 -0.1922  0.0435
 8472SOL    HW126315   5.581   1.502   5.748 -0.0535 -0.2012  0.6153
 8472SOL    HW226316   5.695   1.572   5.654 -0.6696 -0.3741 -0.2755
 8473SOL     OW26317   4.429   5.670   5.203  0.0891  0.0527 -0.3147
 8473SOL    HW126318   4.438   5.636   5.110 -0.6086  0.7322 -0.6411
 8473SOL    HW226319   4.340   5.641   5.240 -0.4625  1.3854 -0.5553
 8474SOL     OW26320   0.547   5.717   0.601 -0.2140  0.3686  0.0293
 8474SOL    HW126321   0.460   5.704   0.553 -0.1035 -0.8937  0.1411
 8474SOL    HW226322   0.531   5.777   0.680 -1.1580 -0.4471  0.4856
 8475SOL     OW26323   6.764   0.219   0.735 -0.3397  0.0917  0.2112
 8475SOL    HW126324   6.774   0.318   0.743 -0.1330  0.0237  0.8179
 8475SOL    HW226325   6.803   0.188   0.648 -0.2381  0.5163  0.1043
 8476SOL     OW26326   4.067   4.760   2.685 -0.3289 -0.2698  0.2858
 8476SOL    HW126327   4.093   4.811   2.767 -0.2279 -1.1276  0.8006
 8476SOL    HW226328   4.092   4.812   2.604 -0.7140  0.7384  0.7972
 8477SOL     OW26329   4.778   5.692   2.223  0.4968 -0.4945 -0.2846
 8477SOL    HW126330   4.800   5.672   2.128 -0.0849  1.9069 -0.9709
 8477SOL    HW226331   4.696   5.640   2.250  0.9989 -1.6308 -0.8662
 8478SOL     OW26332   2.575   6.525   2.820  0.0891 -0.8593  0.2637
 8478SOL    HW126333   2.501   6.560   2.762 -0.2414 -1.2207  0.4633
 8478SOL    HW226334   2.617   6.601   2.870  0.5689 -0.4991 -0.6587
 8479SOL     OW26335   5.121   1.373   5.314  0.3696  0.3013 -0.0403
 8479SOL    HW126336   5.195   1.404   5.374  0.8995  1.2246 -1.1214
 8479SOL    HW226337   5.058   1.316   5.365  0.5502  1.4342  1.5200
 8480SOL     OW26338   5.377   5.325   0.627 -0.8566  0.0936  0.4046
 8480SOL    HW126339   5.320   5.404   0.648  0.1162  1.0771 -0.5426
 8480SOL    HW226340   5.425   5.296   0.710 -1.1846  0.5089  0.7463
 8481SOL     OW26341   6.228   5.181   3.677 -0.0461 -0.3194 -0.1483
 8481SOL    HW126342   6.165   5.125   3.623 -0.3814  1.0419 -1.2121
 8481SOL    HW226343   6.311   5.197   3.624  0.4285 -0.5479  0.5131
 8482SOL     OW26344   6.773   6.562   0.309  0.1587  0.2165 -0.3654
 8482SOL    HW126345   6.856   6.551   0.254 -0.5116  0.4577 -1.4412
 8482SOL    HW226346   6.729   6.473   0.320 -0.2871  0.3359 -1.1517
 8483SOL     OW26347   0.166   5.022   0.169 -0.9417 -0.0099  0.0740
 8483SOL    HW126348   0.126   4.940   0.210 -0.7697  0.0769  0.4151
 8483SOL    HW226349   0.225   5.067   0.235 -1.0369  0.3924 -0.1119
 8484SOL     OW26350   6.381   3.853   6.382 -0.1833 -0.7578  0.2860
 8484SOL    HW126351   6.302   3.875   6.324  0.3482  0.0466 -0.1588
 8484SOL    HW226352   6.372   3.901   6.469 -0.4329 -1.0719  0.4350
 8485SOL     OW26353   2.081   1.248   6.634 -0.6086 -0.3979 -0.2644
 8485SOL    HW126354   2.139   1.167   6.631  0.1508  0.1496 -0.6973
 8485SOL    HW226355   2.138   1.330   6.641 -1.3890  0.0402  1.9201
 8486SOL     OW26356   4.799   2.854   4.557  0.0462 -0.6715  0.4320
 8486SOL    HW126357   4.806   2.860   4.457  0.9313 -0.7436  0.4847
 8486SOL    HW226358   4.717   2.802   4.581 -0.4795 -0.1908 -0.2423
 8487SOL     OW26359   0.332   1.287   3.390 -0.1560 -0.0547  0.0763
 8487SOL    HW126360   0.406   1.261   3.328 -0.2459 -0.0521 -0.0310
 8487SOL    HW226361   0.331   1.386   3.401  0.4460 -0.1145  0.8023
 8488SOL     OW26362   3.101   6.979   0.582 -0.3274 -0.2724  0.0931
 8488SOL    HW126363   3.035   6.987   0.658 -1.1313  0.9374 -0.6905
 8488SOL    HW226364   3.192   6.964   0.619 -0.2593  2.7594  1.5240
 8489SOL     OW26365   0.406   0.691   6.587  0.6920 -0.4399  0.1619
 8489SOL    HW126366   0.422   0.692   6.686 -1.2200 -0.4449  0.5036
 8489SOL    HW226367   0.463   0.761   6.544  0.9098  0.1604  1.3718
 8490SOL     OW26368   5.117   2.170   0.327  0.6457 -1.1326 -0.3682
 8490SOL    HW126369   5.145   2.217   0.410  2.2919 -1.0716 -0.9236
 8490SOL    HW226370   5.134   2.072   0.337 -0.9189 -1.3876  0.0428
 8491SOL     OW26371   3.912   4.279   1.722 -0.0392  0.3177  0.5991
 8491SOL    HW126372   4.008   4.306   1.723  0.3791 -1.0430 -0.3683
 8491SOL    HW226373   3.855   4.360   1.711  0.9591  1.1902  1.6080
 8492SOL     OW26374   6.918   3.977   6.263 -0.5561  0.2902  0.1887
 8492SOL    HW126375   6.968   3.891   6.275 -1.5270 -0.3442 -0.2791
 8492SOL    HW226376   6.820   3.961   6.275 -0.6152  1.6742  1.9330
 8493SOL     OW26377   6.712   6.387   4.344  0.0206 -0.1719 -0.0242
 8493SOL    HW126378   6.646   6.377   4.418  0.6739 -0.1283  0.5732
 8493SOL    HW226379   6.664   6.414   4.260 -0.5557  1.1877  0.7137
 8494SOL     OW26380   4.981   2.667   4.929  0.1453  0.6051  0.1997
 8494SOL    HW126381   4.883   2.670   4.913 -0.0163  0.5593  1.1475
 8494SOL    HW226382   5.025   2.611   4.859 -0.8144 -1.4457  1.1755
 8495SOL     OW26383   3.151   3.849   0.921 -0.0339  0.1100 -0.1557
 8495SOL    HW126384   3.168   3.786   0.997  0.1964  1.1395  0.6734
 8495SOL    HW226385   3.064   3.825   0.877 -0.1252 -0.5655  0.3611
 8496SOL     OW26386   4.545   1.174   0.025  0.2721  0.5486 -0.1038
 8496SOL    HW126387   4.530   1.075   0.029 -0.9185  0.7167 -0.0560
 8496SOL    HW226388   4.598   1.197  -0.057  2.3493 -0.3132  0.9176
 8497SOL     OW26389   0.664   0.747   6.745  0.2609 -0.2320  0.2166
 8497SOL    HW126390   0.719   0.726   6.663 -1.3462 -0.2278 -0.9143
 8497SOL    HW226391   0.662   0.666   6.804 -0.0350 -0.8855 -0.6523
 8498SOL     OW26392   4.369   6.336   6.994  0.0663  0.8243 -0.0528
 8498SOL    HW126393   4.438   6.269   6.967 -0.3823  0.7874 -1.1574
 8498SOL    HW226394   4.409   6.428   6.990 -0.0841  0.8467 -1.1795
 8499SOL     OW26395   1.645   5.938   3.677  0.3069  0.4338  0.0546
 8499SOL    HW126396   1.642   5.839   3.660  1.3183  0.3220  0.4602
 8499SOL    HW226397   1.673   5.985   3.593  0.1731  0.3389 -0.0430
 8500SOL     OW26398   2.897   2.306   4.543 -0.4823  0.3364 -0.1173
 8500SOL    HW126399   2.863   2.349   4.626  0.3791  1.2759 -0.2211
 8500SOL    HW226400   2.993   2.280   4.557 -0.6021 -0.3246 -0.5143
 8501SOL     OW26401   5.049   6.012   4.131 -0.1667  0.3671  0.0290
 8501SOL    HW126402   5.053   5.929   4.075 -2.0763  0.5650 -0.4849
 8501SOL    HW226403   5.137   6.026   4.177  0.7673 -0.9613 -1.2541
 8502SOL     OW26404   5.504   0.356   2.188 -0.4980 -0.3884 -0.2800
 8502SOL    HW126405   5.468   0.264   2.170  1.2534 -0.9151 -1.2436
 8502SOL    HW226406   5.438   0.424   2.156 -1.8912 -1.2660  0.5842
 8503SOL     OW26407   6.920   2.566   0.226  0.4019  0.0173 -0.7808
 8503SOL    HW126408   6.972   2.650   0.209  0.9419  0.1982  1.5507
 8503SOL    HW226409   6.950   2.496   0.160  1.0439  1.1604 -1.7667
 8504SOL     OW26410   0.396   5.725   2.115  0.4819  0.0379 -1.1141
 8504SOL    HW126411   0.317   5.699   2.058 -1.2103  0.8096  0.7550
 8504SOL    HW226412   0.412   5.654   2.183  0.5901  0.4634 -0.6923
 8505SOL     OW26413   2.317   3.256   5.859 -0.3048  0.6300  0.2670
 8505SOL    HW126414   2.308   3.233   5.762  1.4601 -0.2662  0.2852
 8505SOL    HW226415   2.401   3.308   5.874 -0.9996  1.5253  1.2128
 8506SOL     OW26416   6.782   0.283   6.964 -0.4177  0.1295 -0.1085
 8506SOL    HW126417   6.764   0.185   6.966  3.0887 -0.6444  1.7154
 8506SOL    HW226418   6.767   0.321   7.056  0.0363  0.9222 -0.3553
 8507SOL     OW26419   4.095   3.839   0.241 -0.0671  0.3373 -0.2550
 8507SOL    HW126420   4.184   3.802   0.268 -0.4878  0.9606  2.2600
 8507SOL    HW226421   4.031   3.763   0.227  0.1665 -0.0426  0.6444
 8508SOL     OW26422   4.052   4.694   5.616 -0.3546  0.0194  0.2368
 8508SOL    HW126423   4.094   4.784   5.627  0.0047 -0.1826  0.5170
 8508SOL    HW226424   3.984   4.680   5.688  0.0070 -0.1672  0.5475
 8509SOL     OW26425   1.391   3.025   4.459 -0.3172  0.2548  0.7570
 8509SOL    HW126426   1.328   2.966   4.511  1.2036 -3.4459 -1.2750
 8509SOL    HW226427   1.352   3.044   4.369  0.3754  0.1243  0.4287
 8510SOL     OW26428   2.219   2.990   4.011  0.0611 -0.4109  0.1006
 8510SOL    HW126429   2.285   3.020   4.080  2.4400 -2.0397 -1.3117
 8510SOL    HW226430   2.178   2.903   4.041  0.2313 -0.5372 -0.0365
 8511SOL     OW26431   4.608   2.573   5.803 -0.1735 -0.1010  0.9739
 8511SOL    HW126432   4.525   2.629   5.805  0.7546  1.3943 -0.2611
 8511SOL    HW226433   4.606   2.514   5.722  0.0713  0.1566  0.7736
 8512SOL     OW26434   0.932   2.851   0.962  0.5516 -0.4388  0.0459
 8512SOL    HW126435   0.906   2.908   1.040  0.0776 -1.1500  0.4082
 8512SOL    HW226436   0.936   2.908   0.880 -0.3785  0.0360  0.3153
 8513SOL     OW26437   0.689   3.471   4.644 -0.8242 -0.2254  0.6643
 8513SOL    HW126438   0.787   3.462   4.661 -0.0625  2.1438 -1.6692
 8513SOL    HW226439   0.657   3.559   4.678 -1.1262  0.8295 -2.0836
 8514SOL     OW26440   1.945   0.608   1.466 -0.0713  0.1428 -0.0241
 8514SOL    HW126441   2.015   0.538   1.481 -0.5781 -1.1267 -2.9603
 8514SOL    HW226442   1.862   0.583   1.515 -0.3198 -1.5003 -1.2173
 8515SOL     OW26443   2.488   2.472   3.755 -0.4973 -0.6669  0.2309
 8515SOL    HW126444   2.465   2.378   3.778 -1.0324 -0.2415  1.5139
 8515SOL    HW226445   2.447   2.534   3.822  2.2008  0.3153  1.1195
 8516SOL     OW26446   0.631   3.182   0.605  0.1093 -0.2530  0.0979
 8516SOL    HW126447   0.630   3.209   0.509 -1.4146 -2.1427 -0.4689
 8516SOL    HW226448   0.546   3.136   0.629  0.6758 -0.3377  2.2228
 8517SOL     OW26449   1.983   0.799   0.922 -0.3895 -0.1165 -1.4443
 8517SOL    HW126450   1.956   0.862   0.995  1.0322  0.6684 -1.5437
 8517SOL    HW226451   1.970   0.843   0.833 -0.2352 -0.2973 -1.5590
 8518SOL     OW26452   1.093   2.448   2.373  0.3106  0.0039 -0.1869
 8518SOL    HW126453   1.115   2.504   2.294 -2.1633  1.4429  0.0423
 8518SOL    HW226454   1.157   2.371   2.378  3.7486  2.5746 -0.6424
 8519SOL     OW26455   3.966   3.860   6.379 -0.0462 -0.7964  0.6141
 8519SOL    HW126456   3.885   3.819   6.338  0.9777 -2.2291 -0.0347
 8519SOL    HW226457   4.016   3.791   6.431  2.1488 -0.6375 -1.1514
 8520SOL     OW26458   6.342   5.628   5.593 -0.2258 -0.1109  0.8306
 8520SOL    HW126459   6.441   5.626   5.604  0.1068 -2.1312 -1.7974
 8520SOL    HW226460   6.299   5.611   5.682  1.7708 -0.2091  1.8370
 8521SOL     OW26461   2.277   0.843   1.166  0.1475 -0.2578 -0.0847
 8521SOL    HW126462   2.296   0.804   1.075  2.7888 -1.3357  0.8312
 8521SOL    HW226463   2.355   0.825   1.226 -0.5379  2.4656  1.7644
 8522SOL     OW26464   0.243   1.679   3.659 -0.0275 -0.8330 -0.1032
 8522SOL    HW126465   0.157   1.639   3.627 -0.4753  0.0146  0.0071
 8522SOL    HW226466   0.226   1.737   3.738  0.4872  0.0800 -0.6347
 8523SOL     OW26467   3.374   4.150   2.475 -0.3423 -0.0305  0.3936
 8523SOL    HW126468   3.366   4.248   2.492 -1.7389  0.0736 -0.6702
 8523SOL    HW226469   3.291   4.117   2.430  1.2651 -1.0807 -2.0775
 8524SOL     OW26470   0.288   3.109   3.909  0.1800 -0.0588 -0.3643
 8524SOL    HW126471   0.264   3.206   3.905 -0.0312 -0.0861  0.1369
 8524SOL    HW226472   0.221   3.056   3.858 -0.2476 -0.0285  0.1514
 8525SOL     OW26473   1.506   3.592   2.211 -0.2910 -0.2740  0.0702
 8525SOL    HW126474   1.435   3.536   2.254 -0.5780 -0.0647 -0.1329
 8525SOL    HW226475   1.470   3.683   2.191  0.0729 -0.1225  0.0874
 8526SOL     OW26476   3.362   3.542   0.543  0.5662 -0.1424  0.7285
 8526SOL    HW126477   3.372   3.448   0.577  2.2882 -0.6155 -0.8950
 8526SOL    HW226478   3.429   3.601   0.589  0.1066  0.1043  1.0869
 8527SOL     OW26479   5.785   6.725   3.838  0.1213 -0.0665 -0.0943
 8527SOL    HW126480   5.771   6.823   3.821 -0.2612 -0.1016  0.0239
 8527SOL    HW226481   5.795   6.677   3.751  0.2684  0.0693 -0.1540
 8528SOL     OW26482   2.612   2.898   1.724  0.4238 -0.4295 -0.0749
 8528SOL    HW126483   2.698   2.949   1.724 -0.1598  0.5769 -0.7130
 8528SOL    HW226484   2.629   2.804   1.694  1.0636  0.2106 -1.8369
 8529SOL     OW26485   0.859   4.048   6.203 -0.1197 -0.1853 -0.3866
 8529SOL    HW126486   0.809   4.029   6.119 -1.2971  0.3952  0.1658
 8529SOL    HW226487   0.845   4.143   6.230 -0.9783 -0.7430  1.2535
 8530SOL     OW26488   3.324   2.939   6.362  0.8612 -0.3795 -0.3012
 8530SOL    HW126489   3.323   2.841   6.344 -0.6267 -0.1027 -2.0401
 8530SOL    HW226490   3.318   2.988   6.275  0.7932  1.2517  0.5871
 8531SOL     OW26491   1.513   5.517   0.849 -0.2657  0.2844 -0.0395
 8531SOL    HW126492   1.564   5.511   0.935 -1.6286  1.0758  0.8589
 8531SOL    HW226493   1.534   5.437   0.793  1.9114  0.5663  0.2860
 8532SOL     OW26494   0.364   5.297   1.522  0.3016  0.5571 -0.2700
 8532SOL    HW126495   0.318   5.354   1.590  2.4760  2.5242 -0.3038
 8532SOL    HW226496   0.425   5.233   1.569 -0.4057 -0.1361 -0.2948
 8533SOL     OW26497   0.194   3.700   4.717  0.0387 -0.0662  0.1552
 8533SOL    HW126498   0.149   3.762   4.781 -1.1139 -3.0623  2.5076
 8533SOL    HW226499   0.291   3.691   4.743  0.3622  1.1421 -0.5756
 8534SOL     OW26500   0.472   1.631   2.124 -0.3243 -0.4636  0.7030
 8534SOL    HW126501   0.559   1.596   2.090 -1.3530 -2.2684 -0.1826
 8534SOL    HW226502   0.407   1.556   2.134 -2.8272  1.1464 -1.8186
 8535SOL     OW26503   0.007   1.130   0.150  0.5210 -0.0937 -0.1857
 8535SOL    HW126504  -0.084   1.109   0.184  0.1953  0.4230 -0.7236
 8535SOL    HW226505   0.025   1.079   0.066  0.6849 -0.1130 -0.1402
 8536SOL     OW26506   3.731   5.363   5.083  0.3276 -0.1719 -0.0579
 8536SOL    HW126507   3.729   5.393   4.988 -1.0524  0.0011  0.0089
 8536SOL    HW226508   3.782   5.430   5.138  0.1966  0.2852 -0.4873
 8537SOL     OW26509   1.138   0.253   0.967  0.5907  0.2424 -0.3075
 8537SOL    HW126510   1.139   0.327   0.900  2.5673  0.1895 -0.3938
 8537SOL    HW226511   1.210   0.268   1.035  1.6087 -1.9969 -0.8050
 8538SOL     OW26512   4.594   4.353   3.112  0.6023  0.0212 -0.7831
 8538SOL    HW126513   4.688   4.363   3.145  0.7514 -0.2698 -1.1103
 8538SOL    HW226514   4.568   4.256   3.115  0.2782  0.1156 -0.5925
 8539SOL     OW26515   2.691   4.198   5.943 -1.1028  0.5905  0.2477
 8539SOL    HW126516   2.670   4.201   5.845  1.7762 -1.8238 -0.5883
 8539SOL    HW226517   2.771   4.256   5.962  1.1273 -2.2459  0.1826
 8540SOL     OW26518   5.759   5.038   6.054 -0.0374 -0.2490  0.2807
 8540SOL    HW126519   5.819   5.033   6.133 -0.7354 -2.6879  0.7439
 8540SOL    HW226520   5.789   5.112   5.993  0.9685  1.1702  2.4043
 8541SOL     OW26521   3.206   3.558   4.247  0.3890  0.5849  0.1893
 8541SOL    HW126522   3.110   3.548   4.274  0.1549 -0.4290 -0.8847
 8541SOL    HW226523   3.212   3.561   4.147  1.5870 -1.1217  0.1640
 8542SOL     OW26524   3.449   3.417   1.359  0.1761 -0.2413  0.3425
 8542SOL    HW126525   3.403   3.350   1.417  0.1432 -2.4064 -2.0151
 8542SOL    HW226526   3.545   3.422   1.385 -0.3607  0.9813  2.3625
 8543SOL     OW26527   2.974   3.863   2.753 -0.6471 -0.0485  0.2870
 8543SOL    HW126528   3.039   3.937   2.736  1.9554 -2.1900  0.1469
 8543SOL    HW226529   2.914   3.852   2.674 -0.5153  1.3356 -0.0282
 8544SOL     OW26530   1.225   6.627   5.030  0.4642 -0.2115  0.1233
 8544SOL    HW126531   1.183   6.715   5.004  2.2780  0.8540  0.5999
 8544SOL    HW226532   1.322   6.629   5.007  0.5734 -2.0555  0.3184
 8545SOL     OW26533   4.951   5.239   1.100 -0.0222  0.1752 -0.2906
 8545SOL    HW126534   5.042   5.271   1.073  0.1373  0.3917  0.4542
 8545SOL    HW226535   4.957   5.145   1.133 -0.6604 -1.0919 -3.4360
 8546SOL     OW26536   2.471   0.644   3.305  0.5504  0.4284  0.7340
 8546SOL    HW126537   2.570   0.660   3.309  1.5329 -3.8695 -0.8034
 8546SOL    HW226538   2.445   0.579   3.376 -0.8083 -0.0154 -0.1372
 8547SOL     OW26539   0.478   2.223   4.970 -0.0244 -0.0387  0.0984
 8547SOL    HW126540   0.464   2.322   4.962 -1.4631 -0.1924  0.4619
 8547SOL    HW226541   0.419   2.176   4.904 -1.5036 -0.7422  1.8327
 8548SOL     OW26542   1.882   0.839   6.587  0.1958 -0.6575  0.6182
 8548SOL    HW126543   1.955   0.875   6.645  1.1045 -0.3452 -0.6479
 8548SOL    HW226544   1.828   0.915   6.550  1.3956 -0.5825 -1.1383
 8549SOL     OW26545   3.261   2.274   1.751 -0.5229  0.2256 -0.0547
 8549SOL    HW126546   3.289   2.364   1.717 -1.4856 -0.1326 -1.9292
 8549SOL    HW226547   3.339   2.212   1.749  0.1485  0.9879  1.2582
 8550SOL     OW26548   1.130   3.290   2.227  0.4335  0.4056  0.5429
 8550SOL    HW126549   1.075   3.218   2.270 -0.2745  1.9888  2.4655
 8550SOL    HW226550   1.127   3.279   2.128  0.1742 -2.0493  0.7525
 8551SOL     OW26551   5.153   1.008   5.023  0.0751  0.5855  0.0021
 8551SOL    HW126552   5.236   1.054   4.992 -0.4544  0.2303 -2.0850
 8551SOL    HW226553   5.164   0.909   5.012 -0.9355  0.5823 -1.1873
 8552SOL     OW26554   1.569   3.957   1.150  0.0371 -0.4418  0.2604
 8552SOL    HW126555   1.522   3.893   1.089  0.4318  0.1144 -0.6592
 8552SOL    HW226556   1.620   3.905   1.219  1.6156 -1.2311 -1.4040
 8553SOL     OW26557   1.450   6.535   0.436  0.3539 -0.2444 -0.0707
 8553SOL    HW126558   1.414   6.584   0.356  0.7907  0.0355 -0.0995
 8553SOL    HW226559   1.434   6.589   0.518  0.1064 -0.4298  0.0038
 8554SOL     OW26560   2.865   3.351   0.346  0.0220  0.0088 -0.0306
 8554SOL    HW126561   2.794   3.418   0.365  1.0182  0.9162  0.6284
 8554SOL    HW226562   2.926   3.386   0.275  1.5837  0.6625  1.5342
 8555SOL     OW26563   6.181   5.799   3.189 -0.2884 -0.0631 -0.2045
 8555SOL    HW126564   6.173   5.898   3.206 -0.8847  0.0529 -1.1224
 8555SOL    HW226565   6.277   5.775   3.175 -0.3405  0.7797 -2.2281
 8556SOL     OW26566   5.297   5.655   0.324 -0.2604 -0.3517  0.0555
 8556SOL    HW126567   5.298   5.566   0.278  0.1710  0.5404 -1.7722
 8556SOL    HW226568   5.347   5.721   0.268 -0.6029  1.0582  1.3587
 8557SOL     OW26569   3.222   2.570   5.328 -0.2022  0.4949  0.0670
 8557SOL    HW126570   3.313   2.597   5.296  0.3389 -0.6720  0.5592
 8557SOL    HW226571   3.190   2.491   5.275  0.7871 -1.6028  2.3941
 8558SOL     OW26572   3.969   5.570   3.724 -0.7209  0.1198  0.1676
 8558SOL    HW126573   3.944   5.652   3.776 -2.4696 -0.2910  0.0513
 8558SOL    HW226574   3.914   5.567   3.640  0.6999 -0.2007 -0.7693
 8559SOL     OW26575   3.805   2.050   4.365  0.2882 -0.0288  0.2818
 8559SOL    HW126576   3.846   2.054   4.456  1.1670 -0.4938 -0.0816
 8559SOL    HW226577   3.844   2.121   4.307  1.0074 -0.8241 -0.2304
 8560SOL     OW26578   0.701   3.321   1.070 -0.2804  0.1869 -0.0921
 8560SOL    HW126579   0.766   3.305   0.995 -0.9818 -0.7186 -0.5252
 8560SOL    HW226580   0.749   3.314   1.157  0.6947  1.9156 -0.4275
 8561SOL     OW26581   0.153   5.864   4.383 -0.3899  0.0677  0.1518
 8561SOL    HW126582   0.191   5.792   4.442 -1.4607 -0.2288  0.4946
 8561SOL    HW226583   0.179   5.846   4.288  1.3729  0.5635  0.5055
 8562SOL     OW26584   3.045   1.669   6.218  0.3372 -0.3490 -0.0343
 8562SOL    HW126585   3.018   1.615   6.298 -0.7316  0.1849 -0.0153
 8562SOL    HW226586   2.983   1.748   6.209  0.6071 -0.2608 -1.2364
 8563SOL     OW26587   1.853   1.377   0.307  0.3953  0.0210  0.0986
 8563SOL    HW126588   1.821   1.347   0.397  4.5418 -1.1150  1.4044
 8563SOL    HW226589   1.886   1.471   0.313  2.9398 -0.8239  0.5639
 8564SOL     OW26590   2.908   4.337   0.256 -0.5085  0.5397  0.1614
 8564SOL    HW126591   2.852   4.420   0.260 -0.4198  0.5777  0.6592
 8564SOL    HW226592   2.874   4.271   0.324 -0.0042  0.5316  0.4105
 8565SOL     OW26593   4.121   0.428   3.876  0.0412 -0.2838  0.0178
 8565SOL    HW126594   4.102   0.345   3.929  0.9515  0.2852  1.2883
 8565SOL    HW226595   4.212   0.420   3.835  0.4863  0.4074  0.8394
 8566SOL     OW26596   4.918   3.892   2.257 -0.1239 -0.2429  0.6709
 8566SOL    HW126597   4.931   3.814   2.318  0.4827 -0.4674  0.2643
 8566SOL    HW226598   4.886   3.971   2.309 -3.0600 -1.3707  0.7877
 8567SOL     OW26599   1.400   3.645   4.451 -0.4393  0.1626  0.2096
 8567SOL    HW126600   1.380   3.678   4.359  0.0053  0.2588  0.1464
 8567SOL    HW226601   1.493   3.607   4.454  0.4547  2.2959  1.1820
 8568SOL     OW26602   2.482   4.950   6.035 -0.0774 -0.2475 -0.2321
 8568SOL    HW126603   2.535   4.914   6.112 -0.6550 -1.2985 -0.3157
 8568SOL    HW226604   2.541   4.957   5.955  0.0306 -1.0996 -0.2352
 8569SOL     OW26605   4.779   0.965   1.029  0.0353  0.6598 -0.5809
 8569SOL    HW126606   4.814   1.054   0.999 -0.9367  1.4924  0.6480
 8569SOL    HW226607   4.706   0.936   0.968  0.2732  0.7571 -0.9145
 8570SOL     OW26608   4.850   2.919   0.380  0.1856 -0.2428  0.5457
 8570SOL    HW126609   4.918   2.850   0.353  1.7981  1.1235  0.9591
 8570SOL    HW226610   4.883   3.010   0.355 -1.4010  0.4914  0.9985
 8571SOL     OW26611   2.587   6.562   0.511 -0.4143 -0.5220  0.2959
 8571SOL    HW126612   2.547   6.595   0.426  1.4121  1.0480 -0.0124
 8571SOL    HW226613   2.514   6.530   0.572 -1.9373  0.4440 -0.9453
 8572SOL     OW26614   4.198   2.291   5.507  0.1346  0.2281  0.2495
 8572SOL    HW126615   4.225   2.312   5.601  2.0108  2.2761 -0.6405
 8572SOL    HW226616   4.203   2.193   5.492  0.6525 -0.0656  2.0439
 8573SOL     OW26617   4.712   0.024   6.751 -0.6954  0.4341  0.2431
 8573SOL    HW126618   4.758  -0.061   6.776 -0.3921 -0.1173 -1.9704
 8573SOL    HW226619   4.752   0.100   6.801 -1.3808 -0.7438  2.7268
 8574SOL     OW26620   6.373   2.498   0.312 -0.3376  0.0510 -0.0184
 8574SOL    HW126621   6.381   2.535   0.219 -2.9807  1.0503  0.0632
 8574SOL    HW226622   6.285   2.452   0.322 -0.4931  0.7151  2.2276
 8575SOL     OW26623   4.965   6.499   6.633 -0.4871 -0.3218 -0.2444
 8575SOL    HW126624   4.958   6.470   6.537 -2.0543 -0.1355 -0.2096
 8575SOL    HW226625   4.879   6.482   6.680  0.3203 -0.5956  1.2130
 8576SOL     OW26626   4.036   1.522   2.248 -0.1684  0.8735 -0.5004
 8576SOL    HW126627   4.051   1.603   2.304 -0.0145  0.8819 -0.5547
 8576SOL    HW226628   4.123   1.477   2.229 -0.1904  1.0069 -0.9388
 8577SOL     OW26629   3.500   5.035   2.520 -0.3534  0.2236 -0.0652
 8577SOL    HW126630   3.542   5.028   2.610 -0.3965  1.2251  0.0399
 8577SOL    HW226631   3.552   4.980   2.455  1.2438  1.5267  0.0296
 8578SOL     OW26632   6.559   6.038   0.055  0.5129 -0.1875 -0.3048
 8578SOL    HW126633   6.512   6.124   0.035  0.3561 -0.8048 -2.9954
 8578SOL    HW226634   6.492   5.967   0.076  0.5746  0.0592  0.7641
 8579SOL     OW26635   0.730   5.054   6.016  0.3410  0.0760  0.0127
 8579SOL    HW126636   0.684   5.031   6.102 -0.2782  0.0831 -0.3198
 8579SOL    HW226637   0.815   5.001   6.010 -0.6493 -1.5199 -0.3456
 8580SOL     OW26638   1.752   1.486   5.489 -0.3210 -0.4169  0.2093
 8580SOL    HW126639   1.672   1.502   5.431  0.6499 -0.7772 -1.2910
 8580SOL    HW226640   1.835   1.514   5.440  0.5767 -1.1417  1.2550
 8581SOL     OW26641   4.521   3.467   5.953  0.1019 -0.3733 -0.1766
 8581SOL    HW126642   4.497   3.442   5.859 -2.3465  0.4480  0.1674
 8581SOL    HW226643   4.553   3.386   6.002 -1.5546 -1.4870 -0.8652
 8582SOL     OW26644   6.177   5.940   5.626  0.1746  0.2959  0.7034
 8582SOL    HW126645   6.225   5.871   5.681  1.4091 -0.2237 -0.9254
 8582SOL    HW226646   6.094   5.900   5.587  1.1707 -0.5006 -0.6832
 8583SOL     OW26647   0.798   1.229   0.162 -0.4764  0.1924 -0.5884
 8583SOL    HW126648   0.809   1.309   0.221  3.9496  0.6130 -1.6195
 8583SOL    HW226649   0.777   1.259   0.069 -2.0663 -0.1168 -0.3479
 8584SOL     OW26650   5.023   5.421   2.845  0.5452 -0.4524 -0.1000
 8584SOL    HW126651   5.056   5.330   2.821 -1.2644 -1.1063 -0.2220
 8584SOL    HW226652   5.057   5.488   2.779 -2.1506 -1.8179 -3.1133
 8585SOL     OW26653   2.216   4.004   2.090  0.2181  0.5199 -0.0994
 8585SOL    HW126654   2.230   3.931   2.157 -1.4376 -1.0945 -1.4011
 8585SOL    HW226655   2.262   4.087   2.121  0.5357 -0.5013  2.4094
 8586SOL     OW26656   0.940   2.200   5.681 -0.1980  0.1381 -0.4134
 8586SOL    HW126657   0.872   2.231   5.614 -0.2060 -0.8644 -0.8765
 8586SOL    HW226658   0.951   2.271   5.751 -1.2705  0.5795 -0.6619
 8587SOL     OW26659   1.895   6.665   3.786 -0.4973  0.1785  0.2238
 8587SOL    HW126660   1.921   6.665   3.689 -1.5195  0.3068 -0.0560
 8587SOL    HW226661   1.978   6.662   3.842  0.0920 -1.3734 -0.6478
 8588SOL     OW26662   4.642   5.629   6.884 -0.1004 -0.7922 -0.2911
 8588SOL    HW126663   4.676   5.640   6.791 -0.4918 -0.6988 -0.4244
 8588SOL    HW226664   4.694   5.690   6.945  0.6348 -1.3693 -0.3236
 8589SOL     OW26665   4.877   3.040   1.410  1.0390  0.2944  0.4990
 8589SOL    HW126666   4.895   2.958   1.356 -2.0353 -0.9682  1.2101
 8589SOL    HW226667   4.843   3.113   1.351 -0.0514 -0.3045  0.3638
 8590SOL     OW26668   4.244   0.970   0.081  0.0921 -0.1946 -0.1044
 8590SOL    HW126669   4.294   0.963  -0.005  1.0754  0.1787  0.4294
 8590SOL    HW226670   4.167   1.032   0.070  0.5242  0.2665 -0.5731
 8591SOL     OW26671   6.498   4.474   4.466 -0.1393 -0.0690  0.8002
 8591SOL    HW126672   6.422   4.539   4.465  1.0625  1.4022  0.9211
 8591SOL    HW226673   6.511   4.439   4.559 -0.7185 -0.4062  0.7583
 8592SOL     OW26674   1.270   3.190   0.626  0.6592  0.0753  0.1556
 8592SOL    HW126675   1.233   3.116   0.570 -0.9664  1.3260 -0.5286
 8592SOL    HW226676   1.368   3.178   0.638  0.5656 -1.7136 -0.6389
 8593SOL     OW26677   3.407   0.113   5.315 -0.6078 -0.0337 -0.0676
 8593SOL    HW126678   3.308   0.102   5.310 -0.3332 -2.8773 -2.2916
 8593SOL    HW226679   3.442   0.141   5.226  0.6113  0.8271  0.6543
 8594SOL     OW26680   3.795   3.998   2.301  0.3683 -0.0772  0.4706
 8594SOL    HW126681   3.865   3.949   2.353  0.7468 -0.0072  0.0364
 8594SOL    HW226682   3.822   4.003   2.205 -0.1980  0.0219  0.3121
 8595SOL     OW26683   2.171   5.325   5.363  1.0818 -0.2997  0.1766
 8595SOL    HW126684   2.090   5.372   5.327 -0.5787 -2.2816  1.1261
 8595SOL    HW226685   2.252   5.357   5.314 -0.4532  0.6445 -1.9127
 8596SOL     OW26686   3.787   4.990   4.336  0.1986 -0.4647 -0.2036
 8596SOL    HW126687   3.829   5.040   4.260 -1.4946  0.9286 -0.2751
 8596SOL    HW226688   3.789   4.892   4.315 -1.2129 -0.0611 -2.6180
 8597SOL     OW26689   2.872   1.875   6.145  0.6430  0.0274 -0.0054
 8597SOL    HW126690   2.817   1.878   6.062  1.5141 -1.3000 -0.6734
 8597SOL    HW226691   2.818   1.907   6.223 -1.4407 -2.1571 -0.4307
 8598SOL     OW26692   1.399   6.069   0.129  0.5269 -0.5273 -0.6863
 8598SOL    HW126693   1.453   6.088   0.047  1.9965  0.0106  0.3653
 8598SOL    HW226694   1.443   6.111   0.208 -1.8203  0.5499  0.1321
 8599SOL     OW26695   4.016   0.328   6.600  0.1389 -0.1241  0.6665
 8599SOL    HW126696   4.023   0.289   6.692 -2.5918 -0.2347  0.9104
 8599SOL    HW226697   4.014   0.254   6.533  0.4422 -0.1367  0.6731
 8600SOL     OW26698   0.693   5.236   6.620  0.3027  0.0197  0.3061
 8600SOL    HW126699   0.786   5.211   6.593 -0.0618  0.9100 -2.0377
 8600SOL    HW226700   0.674   5.329   6.590 -1.2917 -0.0897  0.8966
 8601SOL     OW26701   2.327   1.607   0.953  0.2454  0.2321 -0.1941
 8601SOL    HW126702   2.320   1.577   1.048  0.7071 -1.0694 -0.5487
 8601SOL    HW226703   2.254   1.565   0.899 -0.4824  1.5605 -0.2992
 8602SOL     OW26704   2.577   2.451   3.013  0.2348  0.3539 -0.1935
 8602SOL    HW126705   2.562   2.398   2.929  2.4044 -1.6029  0.5336
 8602SOL    HW226706   2.497   2.443   3.071  0.6822 -2.9572  0.2019
 8603SOL     OW26707   3.558   5.393   3.499  0.1834  0.2179 -0.5886
 8603SOL    HW126708   3.598   5.407   3.409  2.4452  1.1488  0.4886
 8603SOL    HW226709   3.551   5.295   3.518  1.0305  0.0234 -1.2332
 8604SOL     OW26710   1.927   0.991   1.114  0.2714 -0.3765 -0.7985
 8604SOL    HW126711   1.967   0.959   1.200 -0.8584  0.5426  0.1038
 8604SOL    HW226712   1.860   1.062   1.133 -1.6250 -1.6853 -2.2884
 8605SOL     OW26713   4.229   0.495   4.190 -0.3142  0.2115  0.8079
 8605SOL    HW126714   4.181   0.435   4.125 -0.4012 -0.9696  1.9246
 8605SOL    HW226715   4.283   0.440   4.253  0.9490  1.4208  0.8460
 8606SOL     OW26716   1.997   6.978   4.086  0.6086 -0.3285  0.0300
 8606SOL    HW126717   1.909   6.998   4.042 -0.5398 -0.9933  1.8873
 8606SOL    HW226718   2.041   6.901   4.039  0.6307  0.5588 -1.4478
 8607SOL     OW26719   6.116   0.305   6.150  0.6418  0.1216 -0.0481
 8607SOL    HW126720   6.178   0.226   6.157 -0.0102 -0.4630 -0.6730
 8607SOL    HW226721   6.052   0.290   6.075  1.4331  1.9096 -1.1512
 8608SOL     OW26722   5.039   3.478   0.192 -0.1955  0.0988 -0.1272
 8608SOL    HW126723   5.134   3.498   0.216 -0.5996  1.1341  0.7055
 8608SOL    HW226724   5.034   3.450   0.096  0.9302  0.1132 -0.2052
 8609SOL     OW26725   4.414   4.586   5.833  0.0738 -0.1796 -0.3580
 8609SOL    HW126726   4.475   4.511   5.858 -0.5936 -0.5320  0.2599
 8609SOL    HW226727   4.341   4.550   5.775 -0.1459  0.0314 -0.2096
 8610SOL     OW26728   3.625   6.097   1.340 -0.6135 -0.1279 -0.7734
 8610SOL    HW126729   3.716   6.069   1.308  0.6084  3.1936 -0.6349
 8610SOL    HW226730   3.615   6.073   1.436  0.1587 -0.5209 -0.7806
 8611SOL     OW26731   4.629   6.329   3.211  0.2800  0.2670  0.5025
 8611SOL    HW126732   4.710   6.331   3.270 -0.1424  0.6018  1.0898
 8611SOL    HW226733   4.616   6.236   3.176 -1.2489 -0.8351  3.5488
 8612SOL     OW26734   6.715   2.689   3.720  0.2806 -0.2526  1.0321
 8612SOL    HW126735   6.686   2.712   3.813  1.4120  2.2479  0.8303
 8612SOL    HW226736   6.635   2.678   3.662 -0.4053 -0.6578  2.0224
 8613SOL     OW26737   0.015   5.147   2.174 -0.1830  0.2750  0.6864
 8613SOL    HW126738   0.037   5.207   2.097 -0.5803  1.9695  1.8349
 8613SOL    HW226739  -0.059   5.188   2.228 -0.6625 -1.4075  1.3689
 8614SOL     OW26740   0.163   4.640   5.295  0.3603  0.3849  0.2140
 8614SOL    HW126741   0.132   4.615   5.387 -1.1265 -0.7270 -0.5398
 8614SOL    HW226742   0.085   4.676   5.243  1.2136  1.1222 -0.5773
 8615SOL     OW26743   6.867   2.553   4.082 -0.0868  0.8820 -0.4393
 8615SOL    HW126744   6.935   2.551   4.156 -1.2722  1.2794  0.6883
 8615SOL    HW226745   6.844   2.648   4.060  0.2282  0.7665 -1.3175
 8616SOL     OW26746   2.189   0.554   0.726  0.0921 -0.1086  0.3324
 8616SOL    HW126747   2.184   0.474   0.787  1.3525 -0.1500  0.4071
 8616SOL    HW226748   2.128   0.540   0.649 -0.4159 -0.7255  0.8275
 8617SOL     OW26749   4.184   3.772   6.681  1.0744 -0.8136  0.2119
 8617SOL    HW126750   4.135   3.859   6.677 -0.5116 -1.6228  1.0736
 8617SOL    HW226751   4.150   3.712   6.608  1.4012 -1.0950  0.2881
 8618SOL     OW26752   1.310   1.357   1.103  0.3519 -0.1923  0.3980
 8618SOL    HW126753   1.274   1.377   1.194  2.0464  2.0816  0.6335
 8618SOL    HW226754   1.275   1.424   1.037 -0.2398 -1.3531 -0.5253
 8619SOL     OW26755   2.447   2.134   1.358 -0.6163  0.2986 -0.5819
 8619SOL    HW126756   2.455   2.057   1.420  2.1932  0.1587 -0.9742
 8619SOL    HW226757   2.479   2.217   1.404 -0.3027  0.5455 -1.2321
 8620SOL     OW26758   4.123   3.974   5.253 -0.3520  0.6649  0.2754
 8620SOL    HW126759   4.139   3.896   5.193 -0.4019  0.5979  0.3505
 8620SOL    HW226760   4.197   3.981   5.319  0.2338  1.3260 -0.4234
 8621SOL     OW26761   6.331   0.914   6.155  0.3227  0.0437  0.0334
 8621SOL    HW126762   6.427   0.887   6.146  0.9403  1.5878  1.3573
 8621SOL    HW226763   6.305   0.970   6.076  0.8633  0.4998  0.1663
 8622SOL     OW26764   2.283   4.267   6.433 -0.1299  0.2226 -0.3871
 8622SOL    HW126765   2.357   4.287   6.369  0.4264 -0.7902 -0.0881
 8622SOL    HW226766   2.216   4.208   6.390 -0.2669  0.3470 -0.3466
 8623SOL     OW26767   3.725   4.317   5.681 -0.4560 -0.1849 -0.7135
 8623SOL    HW126768   3.798   4.268   5.634 -0.4626  1.0140 -2.0632
 8623SOL    HW226769   3.746   4.324   5.779  1.1659  0.0160 -1.0566
 8624SOL     OW26770   0.241   2.681   4.430 -0.3700 -0.1655  0.3053
 8624SOL    HW126771   0.306   2.635   4.369 -1.0792 -2.1124  0.9418
 8624SOL    HW226772   0.286   2.757   4.476  1.5043 -1.5035  0.7780
 8625SOL     OW26773   5.757   2.043   0.227  0.1121  0.3851  0.4146
 8625SOL    HW126774   5.751   1.950   0.190  0.7045  0.7795 -0.6955
 8625SOL    HW226775   5.728   2.042   0.323 -0.0642 -0.9088  0.3660
 8626SOL     OW26776   0.257   2.022   6.206 -0.5267  0.1871  0.1069
 8626SOL    HW126777   0.216   1.982   6.124  2.3978 -2.3339 -0.3001
 8626SOL    HW226778   0.210   1.986   6.287  0.3445 -2.1453 -0.3549
 8627SOL     OW26779   6.774   3.082   4.789  0.3998  0.0286 -0.1630
 8627SOL    HW126780   6.842   3.010   4.775  0.5620 -0.2162  1.6691
 8627SOL    HW226781   6.820   3.165   4.821 -0.1427 -0.1414  1.1025
 8628SOL     OW26782   4.878   6.957   3.165 -0.1053 -0.2123  0.1474
 8628SOL    HW126783   4.956   6.924   3.218 -1.2643 -1.4943  1.1232
 8628SOL    HW226784   4.895   7.052   3.137  0.9290  0.2157  2.0489
 8629SOL     OW26785   5.953   6.632   4.822  0.1563 -0.6320  0.6041
 8629SOL    HW126786   5.963   6.540   4.860 -0.9479 -1.0166  0.0013
 8629SOL    HW226787   5.926   6.625   4.726 -1.3429  0.2948  0.9264
 8630SOL     OW26788   2.976   5.689   3.580  0.3698  0.1192  0.4675
 8630SOL    HW126789   2.939   5.714   3.491  1.4164 -2.0658 -0.6447
 8630SOL    HW226790   3.070   5.723   3.589 -0.2644  1.7389  1.4533
 8631SOL     OW26791   5.457   0.785   2.693 -0.1153  0.4586  0.0572
 8631SOL    HW126792   5.515   0.779   2.612  2.5354 -0.6994  1.9443
 8631SOL    HW226793   5.513   0.798   2.775 -2.4026 -1.6771  2.1391
 8632SOL     OW26794   0.211   4.091   0.011 -0.0086 -0.0968  0.0283
 8632SOL    HW126795   0.300   4.121  -0.023 -0.6383  0.0035 -1.6271
 8632SOL    HW226796   0.139   4.150  -0.025 -0.7153  0.3414  2.0119
 8633SOL     OW26797   6.186   0.317   5.654  0.9723  0.5449  0.1589
 8633SOL    HW126798   6.133   0.399   5.676 -0.4432 -0.5980  1.2045
 8633SOL    HW226799   6.237   0.288   5.735 -0.3663 -0.8841  0.5397
 8634SOL     OW26800   6.607   5.382   6.252 -0.2357 -0.4104 -0.1003
 8634SOL    HW126801   6.555   5.314   6.201  0.6876 -0.7258 -0.6409
 8634SOL    HW226802   6.691   5.405   6.202  1.3504 -1.6712  1.8274
 8635SOL     OW26803   4.601   3.238   6.100  0.0652 -0.0198  0.2455
 8635SOL    HW126804   4.695   3.211   6.117 -0.0416  0.1678  1.1673
 8635SOL    HW226805   4.539   3.167   6.133 -0.0973 -1.1277 -2.2446
 8636SOL     OW26806   6.524   6.867   1.771 -0.4202  0.3628  0.2062
 8636SOL    HW126807   6.433   6.898   1.795 -0.2807  1.0938 -0.1820
 8636SOL    HW226808   6.587   6.885   1.846 -0.2634  1.3951 -0.1547
 8637SOL     OW26809   2.706   4.520   0.748 -0.3550  0.3107 -0.7154
 8637SOL    HW126810   2.741   4.603   0.705  3.0503 -1.1077 -0.9983
 8637SOL    HW226811   2.763   4.496   0.827 -1.3087 -1.6796 -0.5579
 8638SOL     OW26812   1.664   4.988   4.907  0.1639 -0.2171  0.5681
 8638SOL    HW126813   1.647   4.932   4.989 -0.7760 -1.0442 -0.1693
 8638SOL    HW226814   1.727   4.939   4.847  0.1837  0.0074  0.4081
 8639SOL     OW26815   4.569   1.401   6.669  0.0736  0.2930  0.7151
 8639SOL    HW126816   4.587   1.499   6.675 -0.4826  0.4738 -0.3530
 8639SOL    HW226817   4.477   1.381   6.703  0.0067  0.2122  0.4927
 8640SOL     OW26818   2.998   3.685   2.212 -0.0907  0.0506 -0.1081
 8640SOL    HW126819   3.001   3.679   2.312 -1.1376  1.6841  0.0529
 8640SOL    HW226820   3.066   3.622   2.173 -1.6087 -2.7764  1.5119
 8641SOL     OW26821   1.861   4.370   5.750  0.1464  0.3816  0.0732
 8641SOL    HW126822   1.859   4.459   5.796 -0.7877 -0.1539  1.1295
 8641SOL    HW226823   1.937   4.367   5.685  1.6793  1.0908  1.7506
 8642SOL     OW26824   0.921   3.240   0.904  0.5529 -0.0527  0.1534
 8642SOL    HW126825   0.977   3.185   0.843  0.0273 -1.2925  0.7442
 8642SOL    HW226826   0.974   3.266   0.984  0.8062  0.3077 -0.1306
 8643SOL     OW26827   0.083   3.062   5.265  0.4443 -0.4618 -0.2752
 8643SOL    HW126828   0.078   3.024   5.173  0.0852 -0.0549 -0.4274
 8643SOL    HW226829  -0.010   3.072   5.302  0.6092 -1.1438  0.3470
 8644SOL     OW26830   6.037   5.620   5.125  0.2682 -0.6281  0.3260
 8644SOL    HW126831   6.106   5.585   5.063  0.3099 -1.2712  0.7341
 8644SOL    HW226832   6.043   5.573   5.213 -0.1827 -0.1488  0.6228
 8645SOL     OW26833   2.047   0.444   5.652 -0.2909  1.1178  0.0779
 8645SOL    HW126834   1.970   0.412   5.597 -0.0930 -0.6129  0.7394
 8645SOL    HW226835   2.012   0.492   5.733 -0.8019 -0.8713  1.1145
 8646SOL     OW26836   3.248   5.948   0.911 -0.8210  0.5505  0.1522
 8646SOL    HW126837   3.178   6.019   0.910 -0.2150  1.4160  3.8671
 8646SOL    HW226838   3.206   5.861   0.941 -0.3099  1.4337  4.0495
 8647SOL     OW26839   5.150   5.880   0.540 -0.5104  0.9281  0.0302
 8647SOL    HW126840   5.157   5.871   0.440 -1.9260  0.7610 -0.0740
 8647SOL    HW226841   5.213   5.951   0.572  2.1682 -0.9921 -0.6017
 8648SOL     OW26842   2.652   5.640   0.665  0.0309  0.1134 -0.4789
 8648SOL    HW126843   2.660   5.541   0.669  0.7841  0.1207 -1.4261
 8648SOL    HW226844   2.724   5.682   0.721 -0.3055  0.1355 -0.0549
 8649SOL     OW26845   6.499   5.935   2.707  0.5380  0.2689 -0.3916
 8649SOL    HW126846   6.548   5.933   2.620 -0.9483  1.3573 -1.3138
 8649SOL    HW226847   6.405   5.904   2.692  0.0988  1.0170  0.7082
 8650SOL     OW26848   0.387   4.255   2.097 -0.3838 -0.4341 -0.6597
 8650SOL    HW126849   0.453   4.262   2.172 -0.2624 -0.6855 -0.7411
 8650SOL    HW226850   0.432   4.212   2.018  0.0635  1.5059 -1.5313
 8651SOL     OW26851   5.043   6.934   0.576  0.4471 -0.1866 -0.2534
 8651SOL    HW126852   5.084   6.882   0.501 -2.2617  0.0748 -2.0339
 8651SOL    HW226853   5.080   7.028   0.574 -0.1093  0.0300 -1.7597
 8652SOL     OW26854   3.323   6.222   6.713 -0.4663  0.4016  0.0432
 8652SOL    HW126855   3.257   6.227   6.788  0.1405  2.7638  0.5066
 8652SOL    HW226856   3.278   6.246   6.627 -0.3338  1.6071  0.2952
 8653SOL     OW26857   2.730   2.010   1.887  0.0067  0.0125  0.0518
 8653SOL    HW126858   2.814   1.971   1.848 -0.3108 -0.2780 -0.3420
 8653SOL    HW226859   2.674   1.937   1.926 -0.0981  0.1968  0.2455
 8654SOL     OW26860   4.289   5.573   1.464 -0.0087 -0.0681  0.0306
 8654SOL    HW126861   4.354   5.646   1.487  1.5667 -2.0165  2.1271
 8654SOL    HW226862   4.225   5.560   1.540 -0.2672 -0.8647 -0.3140
 8655SOL     OW26863   3.107   1.338   5.098  0.1456  0.4453  0.2875
 8655SOL    HW126864   3.140   1.430   5.077 -3.6269  1.9828  0.2618
 8655SOL    HW226865   3.062   1.299   5.018 -0.4973 -0.3571  1.0105
 8656SOL     OW26866   4.164   3.438   3.203  0.0933  0.1771  0.4590
 8656SOL    HW126867   4.118   3.513   3.154  1.8503  1.0014 -0.0341
 8656SOL    HW226868   4.155   3.452   3.301 -2.6634 -0.9762  0.4685
 8657SOL     OW26869   1.417   3.112   5.355 -0.6520 -0.1403  0.3067
 8657SOL    HW126870   1.327   3.068   5.355 -0.1150 -1.2912  0.4380
 8657SOL    HW226871   1.456   3.108   5.447 -0.3246  0.0366  0.1764
 8658SOL     OW26872   1.931   2.778   6.201  0.6133 -0.3979  0.2225
 8658SOL    HW126873   1.916   2.731   6.114  0.5573  0.7637 -0.4311
 8658SOL    HW226874   1.861   2.850   6.212  0.8667 -0.2630  1.0380
 8659SOL     OW26875   0.128   3.443   4.162 -0.4689 -0.0771  0.0482
 8659SOL    HW126876   0.214   3.493   4.171  0.4872 -1.7797  0.9169
 8659SOL    HW226877   0.057   3.488   4.216  0.3017  0.4318  0.6608
 8660SOL     OW26878   4.500   0.609   5.484  0.3559  0.2430 -0.4614
 8660SOL    HW126879   4.491   0.668   5.564  1.0459 -0.5715  0.2410
 8660SOL    HW226880   4.488   0.663   5.401 -1.8854  0.8496  0.1865
 8661SOL     OW26881   5.313   2.859   2.200 -0.2157  0.1989 -0.4114
 8661SOL    HW126882   5.355   2.947   2.220  0.7957 -0.5412  0.9728
 8661SOL    HW226883   5.370   2.809   2.134 -0.2016  0.1463 -0.3596
 8662SOL     OW26884   6.000   3.208   1.858 -0.3516 -0.4351  0.0155
 8662SOL    HW126885   6.095   3.178   1.862 -0.1767  0.1496  0.4623
 8662SOL    HW226886   5.978   3.261   1.940 -1.0253 -0.4468 -0.1460
 8663SOL     OW26887   4.208   0.092   0.270 -0.1602  0.5534 -1.1386
 8663SOL    HW126888   4.200   0.181   0.314 -2.1394 -0.4320  0.6878
 8663SOL    HW226889   4.303   0.060   0.274 -0.2043  0.5378  2.5076
 8664SOL     OW26890   1.827   0.021   2.300 -0.2025  0.0553 -0.7041
 8664SOL    HW126891   1.741   0.030   2.349 -0.5241 -0.7415 -1.1079
 8664SOL    HW226892   1.903   0.039   2.362 -0.6112 -0.6603  0.0221
 8665SOL     OW26893   0.348   3.615   6.786 -0.9181 -0.0197  0.3786
 8665SOL    HW126894   0.269   3.559   6.763 -0.1302 -0.8543 -0.4002
 8665SOL    HW226895   0.320   3.710   6.795 -2.1456 -0.4083  0.9325
 8666SOL     OW26896   6.778   0.798   4.379 -0.2259  0.9210 -0.8268
 8666SOL    HW126897   6.747   0.748   4.459 -0.5082  1.7202 -0.4289
 8666SOL    HW226898   6.823   0.735   4.315  1.1614  0.4686  0.5327
 8667SOL     OW26899   2.097   1.620   1.653 -0.1163 -0.0846 -0.3361
 8667SOL    HW126900   2.078   1.706   1.606  0.4495  0.3594  0.2396
 8667SOL    HW226901   2.046   1.616   1.739  0.4033 -0.0094 -0.0192
 8668SOL     OW26902   2.267   4.257   5.113 -0.2107 -0.4608 -0.3425
 8668SOL    HW126903   2.287   4.161   5.092  0.0084 -0.5559  0.2931
 8668SOL    HW226904   2.206   4.263   5.192  1.9987 -0.0447  1.4360
 8669SOL     OW26905   0.320   4.711   5.625  0.2583  0.1763 -0.0464
 8669SOL    HW126906   0.365   4.673   5.544 -0.2178 -0.0249 -0.2227
 8669SOL    HW226907   0.264   4.790   5.598 -0.3074 -0.2038 -0.0031
 8670SOL     OW26908   1.363   5.504   4.524  0.4027 -0.2497  0.0068
 8670SOL    HW126909   1.342   5.408   4.505 -0.9115  0.4038 -2.3118
 8670SOL    HW226910   1.317   5.532   4.609  0.0561 -1.4401  0.2297
 8671SOL     OW26911   5.473   5.457   0.884 -0.1699  0.4582 -0.2573
 8671SOL    HW126912   5.547   5.473   0.819  0.9689  1.0106  1.1311
 8671SOL    HW226913   5.476   5.526   0.956  0.0768 -1.4520  1.6688
 8672SOL     OW26914   0.915   3.946   0.482  0.0112  0.4469 -0.0383
 8672SOL    HW126915   0.983   3.875   0.465 -1.5457 -0.7544 -1.7132
 8672SOL    HW226916   0.846   3.911   0.546 -2.6005 -1.0104 -3.3484
 8673SOL     OW26917   4.941   3.951   6.844  0.2073 -0.5844  0.0129
 8673SOL    HW126918   4.860   3.976   6.792  0.7994 -0.1544 -0.7209
 8673SOL    HW226919   4.913   3.916   6.934 -0.7534  0.8256  0.3070
 8674SOL     OW26920   3.502   1.214   2.968  0.5647  0.3417 -0.1150
 8674SOL    HW126921   3.419   1.270   2.976  0.1630 -0.4061  1.4275
 8674SOL    HW226922   3.581   1.267   2.999  1.1217  1.8264 -3.6206
 8675SOL     OW26923   0.579   6.078   5.816  0.8059  0.4884  0.6522
 8675SOL    HW126924   0.672   6.056   5.786  1.0384  3.6779 -1.4132
 8675SOL    HW226925   0.583   6.152   5.884 -0.1940  2.8397 -1.6946
 8676SOL     OW26926   3.722   5.443   6.358  0.1584  0.6562  0.2901
 8676SOL    HW126927   3.636   5.395   6.374 -0.6580  2.1467  0.4297
 8676SOL    HW226928   3.715   5.538   6.388  1.3051  1.2638 -1.2100
 8677SOL     OW26929   0.199   3.060   6.429  0.1540  0.0447 -0.0214
 8677SOL    HW126930   0.195   3.083   6.332  0.9751 -1.1714 -0.3613
 8677SOL    HW226931   0.270   3.115   6.473  0.0930  0.2718 -0.2008
 8678SOL     OW26932   5.235   2.373   4.965  0.0495  0.1366  0.5769
 8678SOL    HW126933   5.182   2.382   4.880  0.1267 -2.3505  0.1868
 8678SOL    HW226934   5.194   2.431   5.036 -0.2911  1.9314 -0.9906
 8679SOL     OW26935   6.841   5.242   1.048  0.4069 -0.0555  0.6192
 8679SOL    HW126936   6.754   5.236   0.999  0.4445  0.4311  0.4868
 8679SOL    HW226937   6.869   5.151   1.079 -0.0535 -0.2379  0.4962
 8680SOL     OW26938   6.201   0.494   4.725 -0.5783  0.0670  0.3453
 8680SOL    HW126939   6.199   0.589   4.694 -0.9381  0.2866  1.0211
 8680SOL    HW226940   6.185   0.490   4.824 -3.3142 -0.8576 -0.0377
 8681SOL     OW26941   6.274   4.508   3.971  0.1998  0.6669 -0.4776
 8681SOL    HW126942   6.226   4.586   3.930  0.9846  1.0149 -0.7455
 8681SOL    HW226943   6.215   4.427   3.966 -1.5430  1.6622  1.7246
 8682SOL     OW26944   3.263   1.143   3.257  0.2368  0.0926  0.0365
 8682SOL    HW126945   3.346   1.107   3.216  1.3495 -0.5204  2.5972
 8682SOL    HW226946   3.185   1.088   3.227  0.6795  0.6678 -2.3866
 8683SOL     OW26947   1.773   1.942   0.133 -0.3595  0.0545  0.5859
 8683SOL    HW126948   1.696   2.005   0.136  0.1229  0.8649 -1.7123
 8683SOL    HW226949   1.819   1.950   0.045  1.2139 -1.7860  1.1616
 8684SOL     OW26950   3.171   3.167   0.398  0.6886 -0.7393  0.2980
 8684SOL    HW126951   3.146   3.248   0.345 -0.7144 -0.0974  1.8308
 8684SOL    HW226952   3.158   3.085   0.342  0.5238 -0.0158 -0.7485
 8685SOL     OW26953   3.868   1.202   2.059 -0.1895  0.0265 -0.2448
 8685SOL    HW126954   3.964   1.175   2.063 -0.2960 -0.3259 -0.0148
 8685SOL    HW226955   3.837   1.228   2.151  0.0126  1.2918 -0.5206
 8686SOL     OW26956   1.110   3.999   5.996  0.2751  1.0960  0.0049
 8686SOL    HW126957   1.154   3.928   5.939  0.3649  2.0367 -1.1362
 8686SOL    HW226958   1.021   3.966   6.026  1.2241 -0.3692  1.3482
 8687SOL     OW26959   2.914   1.327   0.129  0.0136  0.0830 -0.0127
 8687SOL    HW126960   2.871   1.410   0.165 -0.7865  1.0336 -2.8777
 8687SOL    HW226961   2.845   1.258   0.112  0.3445 -0.2907  0.1491
 8688SOL     OW26962   0.055   2.417   6.168 -0.0603  0.1206  0.2990
 8688SOL    HW126963  -0.042   2.391   6.173 -0.7288  1.8324 -2.2242
 8688SOL    HW226964   0.101   2.361   6.100  0.3069  0.5065  0.2293
 8689SOL     OW26965   3.470   4.478   5.279  0.1404 -0.4750  0.1673
 8689SOL    HW126966   3.543   4.438   5.334  0.4314 -0.9083 -0.5258
 8689SOL    HW226967   3.418   4.406   5.233  0.0705 -0.1078 -0.3399
 8690SOL     OW26968   4.609   3.251   1.541 -0.9961  0.0192 -0.2240
 8690SOL    HW126969   4.563   3.162   1.534 -1.0164 -0.0112  0.2934
 8690SOL    HW226970   4.645   3.276   1.451  0.0520 -1.0824 -0.1386
 8691SOL     OW26971   5.996   3.113   4.647 -0.4186  0.7737  0.0068
 8691SOL    HW126972   5.936   3.038   4.677 -0.3929  0.6274 -0.3012
 8691SOL    HW226973   6.091   3.081   4.646 -0.3148  1.0647  0.6812
 8692SOL     OW26974   5.514   0.112   3.477  0.0809  0.6503 -0.3891
 8692SOL    HW126975   5.591   0.172   3.498  1.6047 -0.9202 -1.2190
 8692SOL    HW226976   5.463   0.150   3.399  1.2335  0.7315 -1.1362
 8693SOL     OW26977   0.932   2.827   6.266 -0.3979  0.0355 -0.3871
 8693SOL    HW126978   0.922   2.881   6.349 -0.3793  1.4676 -1.2747
 8693SOL    HW226979   0.843   2.809   6.226 -0.3960 -0.4965 -0.1525
 8694SOL     OW26980   5.437   3.276   4.015  0.1903  0.2950 -0.1765
 8694SOL    HW126981   5.482   3.358   4.050  1.1067 -0.6455  0.9079
 8694SOL    HW226982   5.340   3.279   4.038  0.0093  1.5124 -0.9975
 8695SOL     OW26983   4.871   0.205   0.462 -0.3942 -0.5329  0.5742
 8695SOL    HW126984   4.926   0.160   0.532 -1.5555  0.8596  2.4729
 8695SOL    HW226985   4.919   0.288   0.430  0.0034 -1.0141 -0.1159
 8696SOL     OW26986   0.888   0.742   0.279 -0.1646  0.1773  0.1765
 8696SOL    HW126987   0.967   0.761   0.337 -0.3515  0.7811  0.2454
 8696SOL    HW226988   0.862   0.646   0.286  0.4479  0.0193  0.2974
 8697SOL     OW26989   6.843   3.715   4.851  0.0853 -0.1914  0.1392
 8697SOL    HW126990   6.777   3.644   4.827 -0.1543  0.7745 -2.3271
 8697SOL    HW226991   6.810   3.764   4.932 -1.0407 -1.1887  0.3281
 8698SOL     OW26992   2.275   4.603   5.894  0.8416 -0.2145 -0.6200
 8698SOL    HW126993   2.371   4.621   5.918  1.2765 -1.2458 -1.5106
 8698SOL    HW226994   2.258   4.505   5.894 -0.5133 -0.0231  0.5230
 8699SOL     OW26995   5.339   5.934   1.962  0.1885 -0.6882 -0.0229
 8699SOL    HW126996   5.393   5.865   2.008  0.6061 -0.7192 -0.5575
 8699SOL    HW226997   5.271   5.890   1.903 -0.4599 -0.6507  0.6727
 8700SOL     OW26998   1.530   1.029   2.145 -0.2901 -0.5481  0.0367
 8700SOL    HW126999   1.444   1.065   2.108 -0.4185 -0.4528  0.4170
 8700SOL    HW227000   1.541   0.934   2.117 -0.5126 -0.5557 -0.0279
 8701SOL     OW27001   2.535   0.395   2.339  0.1368  0.1491  0.1909
 8701SOL    HW127002   2.473   0.461   2.381 -1.1584 -0.1874 -1.1290
 8701SOL    HW227003   2.542   0.414   2.241 -0.2419 -1.6358 -0.2141
 8702SOL     OW27004   2.495   6.763   2.115  0.1411 -0.2269  0.4065
 8702SOL    HW127005   2.440   6.682   2.135 -0.2331 -0.5696 -1.7659
 8702SOL    HW227006   2.592   6.740   2.124 -0.0041 -0.2049  2.2111
 8703SOL     OW27007   4.387   1.919   4.544  0.0048 -0.5640  0.3149
 8703SOL    HW127008   4.408   1.931   4.447 -0.7328  1.0361  0.3207
 8703SOL    HW227009   4.288   1.924   4.557  0.1944  1.1579  1.3593
 8704SOL     OW27010   4.661   4.189   6.866 -0.3605  0.4213  0.1187
 8704SOL    HW127011   4.668   4.100   6.819  2.8848  0.2023  0.7859
 8704SOL    HW227012   4.655   4.262   6.797  0.4307 -0.1336 -0.5668
 8705SOL     OW27013   1.317   6.327   2.878 -0.7735  0.0660 -0.2035
 8705SOL    HW127014   1.253   6.266   2.832  0.6672 -0.7101 -1.2881
 8705SOL    HW227015   1.272   6.413   2.900 -2.2821 -0.6166 -0.5101
 8706SOL     OW27016   5.065   1.525   0.565 -0.2938 -0.0218  0.0715
 8706SOL    HW127017   5.094   1.458   0.496 -0.5042  0.3782 -0.4178
 8706SOL    HW227018   5.024   1.477   0.643 -0.3176 -0.4707 -0.2085
 8707SOL     OW27019   3.728   0.492   2.154  0.2906  0.6351 -0.0032
 8707SOL    HW127020   3.701   0.579   2.196  0.0318 -0.0728  1.3298
 8707SOL    HW227021   3.805   0.453   2.206  0.7421  0.3005 -0.8998
 8708SOL     OW27022   3.360   1.051   5.671  0.0046 -0.3843  0.3255
 8708SOL    HW127023   3.389   1.034   5.765 -2.3926 -0.2268  1.1748
 8708SOL    HW227024   3.331   1.146   5.662 -0.7486 -0.6530 -0.2520
 8709SOL     OW27025   2.663   4.737   6.681  0.3939 -0.0372  0.2811
 8709SOL    HW127026   2.678   4.752   6.778  0.8318  0.8947  0.0844
 8709SOL    HW227027   2.640   4.641   6.665 -0.2903 -0.0681  1.3649
 8710SOL     OW27028   2.942   1.556   1.970  0.0483 -0.0078 -0.0416
 8710SOL    HW127029   2.937   1.491   1.895 -0.9053 -0.6370  0.5441
 8710SOL    HW227030   3.028   1.545   2.020 -0.9336 -2.2572  1.2901
 8711SOL     OW27031   6.324   4.679   4.461  0.6815  0.4914  0.0055
 8711SOL    HW127032   6.315   4.759   4.521 -0.8956 -0.1586  0.7093
 8711SOL    HW227033   6.267   4.692   4.380 -1.5548 -0.8565  1.2581
 8712SOL     OW27034   3.023   0.395   1.960  0.2259 -0.4832 -0.3727
 8712SOL    HW127035   3.021   0.381   2.059 -0.9653  1.3215 -0.1004
 8712SOL    HW227036   2.930   0.413   1.927  0.8653  1.1136 -1.4379
 8713SOL     OW27037   5.735   5.117   0.525 -0.1973  0.0735 -0.7410
 8713SOL    HW127038   5.816   5.087   0.574 -0.7155  0.5876  0.4843
 8713SOL    HW227039   5.762   5.169   0.444  0.6972  0.5385 -0.1607
 8714SOL     OW27040   5.796   1.682   2.569  0.2155  0.5242  0.0750
 8714SOL    HW127041   5.744   1.738   2.505 -0.3651 -1.4608 -1.2565
 8714SOL    HW227042   5.736   1.646   2.640  0.4752  1.0642  0.5816
 8715SOL     OW27043   1.350   0.008   3.693  0.4099 -0.3484  0.0508
 8715SOL    HW127044   1.444  -0.015   3.667  0.9168  0.7662  0.7770
 8715SOL    HW227045   1.340   0.108   3.694 -1.0737 -0.4687 -0.9609
 8716SOL     OW27046   2.251   0.769   0.896  0.1552 -0.2441  0.2467
 8716SOL    HW127047   2.260   0.704   0.821 -0.6956  0.9273 -0.9201
 8716SOL    HW227048   2.155   0.795   0.907  0.0692 -1.2569  2.5475
 8717SOL     OW27049   6.469   3.832   0.426  0.3781  0.2459  0.2005
 8717SOL    HW127050   6.410   3.846   0.346  1.5512  1.3085 -0.5266
 8717SOL    HW227051   6.459   3.738   0.459 -2.7636  0.7334  1.0036
 8718SOL     OW27052   6.179   0.202   6.900  0.6839  0.6223  0.0924
 8718SOL    HW127053   6.275   0.204   6.871  0.9937  0.5762  1.0679
 8718SOL    HW227054   6.121   0.239   6.828  1.4761  0.9734 -0.3734
 8719SOL     OW27055   4.586   5.956   4.721  0.1082 -0.1531 -0.7221
 8719SOL    HW127056   4.577   6.055   4.735  0.2885 -0.3414  0.9712
 8719SOL    HW227057   4.645   5.938   4.643 -0.7560  1.0633 -1.7116
 8720SOL     OW27058   0.775   4.107   1.511 -0.0638  0.2681  0.7061
 8720SOL    HW127059   0.744   4.046   1.438  3.6303 -0.8209 -0.1908
 8720SOL    HW227060   0.697   4.141   1.562 -2.6011 -1.4770 -1.7287
 8721SOL     OW27061   6.385   3.726   4.614 -0.5702 -0.2399  0.4611
 8721SOL    HW127062   6.306   3.666   4.607 -1.0241  0.3435  0.4742
 8721SOL    HW227063   6.391   3.763   4.706 -2.5196  2.6644 -0.4465
 8722SOL     OW27064   0.837   3.510   2.362 -0.3954 -0.0566  0.2847
 8722SOL    HW127065   0.892   3.490   2.282 -2.6104 -0.1983 -1.3071
 8722SOL    HW227066   0.843   3.435   2.428  1.0401 -0.1732  0.0316
 8723SOL     OW27067   4.955   4.614   4.972 -0.1431  0.9189 -0.1301
 8723SOL    HW127068   5.009   4.601   4.889  0.2519  0.0588  0.2483
 8723SOL    HW227069   4.905   4.530   4.992  2.1053  0.0223  2.1500
 8724SOL     OW27070   4.063   1.901   3.582  0.1764 -0.3358 -0.0143
 8724SOL    HW127071   4.141   1.845   3.554  0.1162 -1.0118  1.1096
 8724SOL    HW227072   4.076   1.930   3.677 -1.3435 -1.1784  0.4748
 8725SOL     OW27073   6.750   5.967   0.748  0.0601 -0.3091 -0.1179
 8725SOL    HW127074   6.739   5.875   0.712 -1.5561 -0.2662  0.1930
 8725SOL    HW227075   6.815   6.018   0.691 -1.0299 -0.8145 -1.8796
 8726SOL     OW27076   1.359   1.642   2.494 -0.0067  1.0542 -0.4814
 8726SOL    HW127077   1.302   1.584   2.552  0.5948 -1.0542 -1.8855
 8726SOL    HW227078   1.308   1.667   2.411  1.2704 -1.6693 -2.2225
 8727SOL     OW27079   5.377   6.452   6.545 -0.2929 -0.3138 -0.5801
 8727SOL    HW127080   5.342   6.365   6.581  1.0367 -1.0396 -0.9834
 8727SOL    HW227081   5.447   6.434   6.475 -2.8620  0.9870 -3.7787
 8728SOL     OW27082   3.167   0.897   6.335  0.0679 -0.4812 -0.1158
 8728SOL    HW127083   3.080   0.855   6.307  0.4555 -0.9933 -0.5671
 8728SOL    HW227084   3.149   0.965   6.406 -0.7303 -0.4080 -0.3754
 8729SOL     OW27085   1.948   6.355   6.529 -0.7786  0.0014 -0.2366
 8729SOL    HW127086   1.883   6.280   6.512 -0.2554 -0.4066 -0.4503
 8729SOL    HW227087   2.018   6.324   6.592  0.8455 -0.5123 -2.1891
 8730SOL     OW27088   0.931   1.076   1.237 -0.1383 -0.1302  0.2696
 8730SOL    HW127089   0.872   1.154   1.258  0.1982  0.4261 -0.7697
 8730SOL    HW227090   0.947   1.072   1.139  2.1639  0.2079  0.5647
 8731SOL     OW27091   3.640   5.109   5.495  0.5017 -0.4585 -0.0498
 8731SOL    HW127092   3.544   5.126   5.518  0.0521 -2.8956  0.1453
 8731SOL    HW227093   3.694   5.110   5.579  0.2745 -1.2102  0.1072
 8732SOL     OW27094   5.534   5.511   3.299 -0.0091 -0.3610  0.0341
 8732SOL    HW127095   5.516   5.414   3.279  3.2228 -0.9209 -0.6499
 8732SOL    HW227096   5.464   5.567   3.254 -1.4361 -2.2943 -0.3151
 8733SOL     OW27097   5.994   6.314   5.902 -0.7519  0.4973 -0.6966
 8733SOL    HW127098   6.017   6.308   5.805 -2.8937 -0.9049 -1.1756
 8733SOL    HW227099   6.016   6.405   5.936  2.1357  0.3445 -1.8776
 8734SOL     OW27100   5.729   5.302   2.931 -0.5908  0.5805  0.1965
 8734SOL    HW127101   5.631   5.287   2.945 -0.5743 -0.7830 -0.8616
 8734SOL    HW227102   5.780   5.260   3.006 -0.7363 -1.2442 -0.6680
 8735SOL     OW27103   2.556   5.606   3.568  0.3180  0.4254 -0.7223
 8735SOL    HW127104   2.524   5.522   3.524  0.3404  0.5757 -1.0228
 8735SOL    HW227105   2.524   5.685   3.517  1.6859  0.5711 -1.3848
 8736SOL     OW27106   4.715   6.177   2.865  0.1982  0.1540 -0.0571
 8736SOL    HW127107   4.764   6.151   2.782  0.3293  1.2374 -0.3281
 8736SOL    HW227108   4.765   6.249   2.913 -0.0116 -0.2742  0.8361
 8737SOL     OW27109   0.515   1.003   4.935  0.1990 -0.1515 -0.3513
 8737SOL    HW127110   0.440   0.954   4.889  0.9012  0.3721 -2.1196
 8737SOL    HW227111   0.554   1.071   4.873  0.8837  0.9364  1.2170
 8738SOL     OW27112   2.082   6.002   3.791  0.1708 -0.6828 -0.4950
 8738SOL    HW127113   2.023   5.980   3.869 -0.1604  0.6557 -0.3562
 8738SOL    HW227114   2.143   6.077   3.816  1.2668 -1.3956 -0.9672
 8739SOL     OW27115   5.986   1.305   6.290 -0.4350 -0.1859 -0.2026
 8739SOL    HW127116   5.976   1.352   6.377 -1.6146  0.1299 -0.4822
 8739SOL    HW227117   6.019   1.212   6.306 -0.0819  0.0563  0.5228
 8740SOL     OW27118   4.934   2.148   6.792 -0.0321  0.0624  0.0961
 8740SOL    HW127119   4.878   2.213   6.844  0.0293 -0.0334  0.2853
 8740SOL    HW227120   5.009   2.197   6.747  0.2095  0.0788  0.5102
 8741SOL     OW27121   6.823   5.688   4.991  0.6059 -0.1824  0.0921
 8741SOL    HW127122   6.820   5.675   4.892  0.1703 -0.2583  0.1139
 8741SOL    HW227123   6.841   5.784   5.011 -0.8396  0.1374 -0.0649
 8742SOL     OW27124   0.685   1.525   4.236 -0.1535  0.4266  0.1636
 8742SOL    HW127125   0.596   1.519   4.189 -0.9032 -2.7362  1.6955
 8742SOL    HW227126   0.757   1.493   4.175 -0.2818  1.4751 -0.5592
 8743SOL     OW27127   2.566   6.050   3.627 -0.2341  0.1719  0.9878
 8743SOL    HW127128   2.660   6.021   3.608 -0.3199  0.6519 -0.2565
 8743SOL    HW227129   2.515   6.059   3.541 -1.4405 -0.1185  1.6383
 8744SOL     OW27130   3.937   3.291   3.541  0.3144 -0.2049 -0.0345
 8744SOL    HW127131   3.942   3.287   3.640 -0.5944  0.6111  0.0588
 8744SOL    HW227132   3.996   3.365   3.507 -0.4454  0.4320  0.0134
 8745SOL     OW27133   1.063   5.614   1.083 -0.2207 -0.3015  0.2709
 8745SOL    HW127134   1.098   5.685   1.021  0.4701  1.3991  2.4704
 8745SOL    HW227135   0.963   5.612   1.077 -0.1673 -0.2071 -0.9112
 8746SOL     OW27136   0.779   6.066   1.462  0.4716 -0.5808 -0.3199
 8746SOL    HW127137   0.728   6.041   1.544 -0.8217 -0.5618 -1.0962
 8746SOL    HW227138   0.811   5.983   1.416 -0.5581 -0.6907 -0.8673
 8747SOL     OW27139   3.277   4.584   6.667 -0.6888  0.2790  0.2688
 8747SOL    HW127140   3.336   4.657   6.703  1.0417 -1.3555  0.8847
 8747SOL    HW227141   3.244   4.610   6.577 -0.6714  2.1040  0.7376
 8748SOL     OW27142   4.698   1.659   6.697 -0.2201 -0.1984 -0.3762
 8748SOL    HW127143   4.758   1.579   6.698 -2.4688 -2.0830 -2.4005
 8748SOL    HW227144   4.744   1.736   6.739  2.4482 -2.2759  0.8043
 8749SOL     OW27145   1.817   5.496   0.696 -0.1588  0.8752 -0.1631
 8749SOL    HW127146   1.792   5.439   0.618  0.3777  0.6562 -0.1819
 8749SOL    HW227147   1.908   5.534   0.680  1.2831 -1.5480  1.6530
 8750SOL     OW27148   5.848   0.941   0.826 -0.1999  0.0683  0.3747
 8750SOL    HW127149   5.792   0.858   0.828 -0.7167  0.4288  1.7285
 8750SOL    HW227150   5.907   0.944   0.907  0.6233  0.4991 -0.2173
 8751SOL     OW27151   7.004   6.344   5.437 -0.3549  0.3736 -0.5455
 8751SOL    HW127152   7.025   6.441   5.429 -1.6742  0.7710  0.3678
 8751SOL    HW227153   6.907   6.333   5.462  0.6293 -0.9689  3.5059
 8752SOL     OW27154   1.673   2.552   2.989  0.3928 -0.6539 -0.2765
 8752SOL    HW127155   1.717   2.532   2.901 -0.3165  0.0779 -0.8034
 8752SOL    HW227156   1.711   2.636   3.027  0.1457 -0.5494 -0.2582
 8753SOL     OW27157   3.308   1.274   6.217  0.0106 -0.5359 -0.1045
 8753SOL    HW127158   3.359   1.359   6.198 -1.2166  0.5174  1.1504
 8753SOL    HW227159   3.327   1.243   6.310 -0.0442 -1.2956 -0.3395
 8754SOL     OW27160   2.317   3.844   5.594  0.3769  0.0924  0.2913
 8754SOL    HW127161   2.318   3.750   5.559 -0.2535  0.2430 -0.1524
 8754SOL    HW227162   2.223   3.873   5.607  0.5383  0.9411 -0.3432
 8755SOL     OW27163   0.753   3.209   5.596  0.1429  0.4868 -0.0220
 8755SOL    HW127164   0.727   3.298   5.634 -2.6648  0.0102 -0.5708
 8755SOL    HW227165   0.807   3.223   5.513  0.9016  1.6252  0.6264
 8756SOL     OW27166   4.785   4.783   2.527  0.3016  0.3969 -0.0213
 8756SOL    HW127167   4.709   4.839   2.559  0.4755  0.7880 -0.2885
 8756SOL    HW227168   4.750   4.707   2.472  0.1602  1.2841 -1.2176
 8757SOL     OW27169   2.967   0.208   6.914 -0.3926  0.1651 -0.2277
 8757SOL    HW127170   2.905   0.223   6.836 -1.6693 -1.9780  0.2924
 8757SOL    HW227171   2.949   0.118   6.954  1.7370  0.3107  1.2167
 8758SOL     OW27172   3.431   2.207   1.257  0.4174  0.4351 -0.3742
 8758SOL    HW127173   3.372   2.179   1.182 -1.2695  0.3758  0.9128
 8758SOL    HW227174   3.526   2.210   1.226 -0.1736 -0.0596 -2.3453
 8759SOL     OW27175   1.794   0.604   0.761 -0.2322 -0.4308 -0.3031
 8759SOL    HW127176   1.702   0.632   0.784 -0.1256  1.1117 -1.5641
 8759SOL    HW227177   1.860   0.655   0.816 -0.0943 -0.6764 -0.2362
 8760SOL     OW27178   1.826   3.535   3.543  0.7119  0.0137 -0.3952
 8760SOL    HW127179   1.813   3.565   3.637 -0.9606  2.0402 -1.1880
 8760SOL    HW227180   1.917   3.560   3.512  1.0007  0.0287  0.4568
 8761SOL     OW27181   6.006   0.352   4.582  0.3050 -0.1201  0.5592
 8761SOL    HW127182   6.011   0.263   4.628 -1.1909  0.1355  1.2929
 8761SOL    HW227183   6.095   0.397   4.587  1.2376 -1.7741 -0.2944
 8762SOL     OW27184   1.507   5.489   2.831  0.6768 -0.2245  0.0327
 8762SOL    HW127185   1.423   5.471   2.779  1.5185 -2.9995 -0.5644
 8762SOL    HW227186   1.569   5.544   2.776 -0.1133  0.5130 -0.1464
 8763SOL     OW27187   6.852   3.620   2.903 -0.0577  0.8055  0.1699
 8763SOL    HW127188   6.950   3.605   2.916 -0.3709 -0.2386  1.4440
 8763SOL    HW227189   6.837   3.655   2.810  1.2798 -1.4034 -0.9818
 8764SOL     OW27190   1.597   5.313   1.263 -0.2088  0.2121  0.5672
 8764SOL    HW127191   1.500   5.323   1.284 -0.4876 -0.8188 -0.1203
 8764SOL    HW227192   1.607   5.292   1.166  0.6501 -0.3475  0.7697
 8765SOL     OW27193   5.996   6.819   0.685 -0.4424 -0.3990  0.0808
 8765SOL    HW127194   6.038   6.865   0.764  1.2392  0.9800 -1.5248
 8765SOL    HW227195   6.046   6.843   0.602 -1.6143 -2.4992 -1.3309
 8766SOL     OW27196   5.391   0.552   1.526  0.9645  0.1554  0.5080
 8766SOL    HW127197   5.387   0.651   1.509 -0.6312 -0.0479 -0.4633
 8766SOL    HW227198   5.360   0.532   1.618  0.9075  0.5239  0.5702
 8767SOL     OW27199   1.938   6.424   4.929  0.0894  0.8613 -0.3156
 8767SOL    HW127200   2.021   6.469   4.896  1.3022 -1.3686 -0.5031
 8767SOL    HW227201   1.918   6.345   4.872 -1.6299  0.7915  0.3248
 8768SOL     OW27202   2.114   3.251   2.002  0.6122  0.2589 -0.5058
 8768SOL    HW127203   2.130   3.341   2.041  0.7397  0.8577 -1.8911
 8768SOL    HW227204   2.146   3.249   1.907  0.3386 -1.1497 -0.5936
 8769SOL     OW27205   1.796   2.387   3.202 -0.0327 -0.4176  0.2484
 8769SOL    HW127206   1.755   2.441   3.128 -0.5438 -1.5063 -0.2875
 8769SOL    HW227207   1.725   2.348   3.259  0.1826 -2.4586 -0.7872
 8770SOL     OW27208   5.906   3.198   2.348  0.3700 -0.2989 -0.2136
 8770SOL    HW127209   5.892   3.099   2.357 -0.7948 -0.3810 -2.2226
 8770SOL    HW227210   5.990   3.216   2.296 -0.2235 -0.3238 -1.2168
 8771SOL     OW27211   4.300   4.658   0.670 -0.0482 -1.0687  0.0769
 8771SOL    HW127212   4.208   4.695   0.665  1.2445  2.4496 -1.1321
 8771SOL    HW227213   4.336   4.669   0.762  0.2694  0.7866 -0.2348
 8772SOL     OW27214   5.226   0.915   2.515 -0.0705  0.0478  0.2347
 8772SOL    HW127215   5.272   1.003   2.508 -1.1276  0.6471  0.5447
 8772SOL    HW227216   5.204   0.896   2.611 -1.2364  0.2072  0.0184
 8773SOL     OW27217   1.214   2.460   3.638  0.7243 -0.1406 -0.1595
 8773SOL    HW127218   1.235   2.446   3.735  2.1697 -1.8221 -0.6671
 8773SOL    HW227219   1.136   2.402   3.612 -0.4454  1.2017  0.2273
 8774SOL     OW27220   3.013   2.113   5.264  0.6248 -0.5739 -0.7397
 8774SOL    HW127221   3.056   2.184   5.210 -0.4415 -1.6972 -3.2449
 8774SOL    HW227222   2.922   2.143   5.293  0.4053 -0.6814 -1.3026
 8775SOL     OW27223   4.912   2.085   1.308 -0.4688 -0.1284  0.4000
 8775SOL    HW127224   4.912   2.168   1.252 -1.1616 -0.5525 -0.2531
 8775SOL    HW227225   4.943   2.107   1.400 -0.1738  0.7590  0.0986
 8776SOL     OW27226   2.153   4.964   1.533 -0.1964 -0.7009 -0.4327
 8776SOL    HW127227   2.065   4.983   1.490 -0.1278 -0.3058 -0.3992
 8776SOL    HW227228   2.219   5.034   1.507  0.3545 -1.4610 -1.1614
 8777SOL     OW27229   4.882   3.904   1.022 -0.1284 -0.2066 -0.5943
 8777SOL    HW127230   4.839   3.956   1.096 -0.1453 -1.5576  0.3796
 8777SOL    HW227231   4.980   3.923   1.019 -0.3324  0.8108 -1.0566
 8778SOL     OW27232   4.538   2.135   1.028 -0.2714  0.4494 -0.6491
 8778SOL    HW127233   4.611   2.077   0.992 -0.3457  0.3439 -0.6297
 8778SOL    HW227234   4.514   2.204   0.961 -1.2406 -0.4876 -1.3063
 8779SOL     OW27235   1.445   0.550   4.586  0.0032 -0.0493 -0.1170
 8779SOL    HW127236   1.482   0.457   4.586 -1.9492 -0.8999 -1.2475
 8779SOL    HW227237   1.358   0.551   4.635 -0.3476  1.0330 -0.7197
 8780SOL     OW27238   2.819   5.607   1.051 -0.4124 -0.3913 -0.0384
 8780SOL    HW127239   2.849   5.516   1.080  0.7629 -0.2043 -0.5817
 8780SOL    HW227240   2.845   5.621   0.955  0.1627  0.8214  0.2763
 8781SOL     OW27241   4.482   5.147   1.091 -0.3737 -0.5619 -0.1911
 8781SOL    HW127242   4.442   5.202   1.164  0.9253 -2.8471  2.4245
 8781SOL    HW227243   4.463   5.190   1.003 -3.0383  1.7203  1.3342
 8782SOL     OW27244   5.172   2.893   5.414 -0.5710 -0.4014  0.3234
 8782SOL    HW127245   5.237   2.969   5.412 -2.5074  1.3317 -0.9285
 8782SOL    HW227246   5.146   2.873   5.508 -0.3338  0.7730  0.6511
 8783SOL     OW27247   3.236   1.964   5.837  0.3503 -0.3909  0.6038
 8783SOL    HW127248   3.225   1.871   5.804 -2.1263  0.6675 -2.0318
 8783SOL    HW227249   3.199   1.972   5.929 -0.0411 -1.8558  0.5929
 8784SOL     OW27250   3.495   0.512   1.026  0.3979 -0.0340  0.0426
 8784SOL    HW127251   3.456   0.539   0.938  0.7221  1.2686  0.2775
 8784SOL    HW227252   3.583   0.466   1.011 -0.3696 -1.4417 -0.3839
 8785SOL     OW27253   1.135   2.713   4.236  0.2977 -0.0080 -0.3710
 8785SOL    HW127254   1.173   2.759   4.155  0.3881 -0.0374 -0.3464
 8785SOL    HW227255   1.087   2.780   4.293 -0.5571 -0.1564 -0.9072
 8786SOL     OW27256   5.553   2.157   1.481  0.2510 -0.0606  0.3294
 8786SOL    HW127257   5.613   2.127   1.407  0.1979 -0.1764  0.3353
 8786SOL    HW227258   5.581   2.249   1.510  0.5860 -0.2109  0.4987
 8787SOL     OW27259   5.605   2.298   3.366 -0.2381  0.4412 -0.0744
 8787SOL    HW127260   5.698   2.270   3.389  0.0130  0.2485 -1.2681
 8787SOL    HW227261   5.593   2.297   3.266 -1.4357  0.7256  0.0489
 8788SOL     OW27262   4.652   0.970   5.085 -0.1118 -0.0682 -0.2791
 8788SOL    HW127263   4.713   1.033   5.132 -1.8063  0.8401  0.7925
 8788SOL    HW227264   4.566   1.016   5.064 -0.2951 -1.1614 -2.2044
 8789SOL     OW27265   1.859   2.464   2.159  0.1125 -0.1429  0.1172
 8789SOL    HW127266   1.780   2.525   2.166  1.2024  1.4364 -0.7166
 8789SOL    HW227267   1.911   2.467   2.244 -1.1930 -1.9696  1.0629
 8790SOL     OW27268   6.597   4.265   1.638  0.0247 -0.0793  0.2969
 8790SOL    HW127269   6.670   4.305   1.582 -0.4599  0.2763 -0.0883
 8790SOL    HW227270   6.543   4.202   1.583  0.1956 -0.5435  0.6527
 8791SOL     OW27271   2.064   3.496   5.701  0.3609 -0.6673 -0.2264
 8791SOL    HW127272   2.057   3.400   5.728 -1.9496 -0.7535 -0.9356
 8791SOL    HW227273   2.038   3.506   5.605  0.4562  0.7032 -0.1353
 8792SOL     OW27274   5.999   5.024   3.551 -0.1889 -0.2135  0.0549
 8792SOL    HW127275   6.040   4.945   3.506  0.7431 -0.9357  2.0491
 8792SOL    HW227276   5.921   4.994   3.606 -0.1940  0.3411  0.3596
 8793SOL     OW27277   4.918   1.388   3.602  0.0289 -0.6952  0.6301
 8793SOL    HW127278   4.856   1.435   3.540  1.2654  0.8496  0.4846
 8793SOL    HW227279   4.990   1.343   3.549  2.1711  2.1718  0.8266
 8794SOL     OW27280   5.832   1.763   5.376 -0.1866  0.0894 -0.2595
 8794SOL    HW127281   5.819   1.672   5.416 -1.9616  0.0744 -0.7939
 8794SOL    HW227282   5.903   1.812   5.428  1.5046 -1.9055 -0.5639
 8795SOL     OW27283   0.781   2.145   5.002 -0.9402 -0.5578  0.7542
 8795SOL    HW127284   0.810   2.095   4.920 -1.1085  3.3732 -2.0255
 8795SOL    HW227285   0.685   2.170   4.993 -0.5671  1.2525  1.3216
 8796SOL     OW27286   4.551   2.741   0.619 -0.1732 -0.1415  1.0188
 8796SOL    HW127287   4.568   2.821   0.562 -0.2300 -1.0551 -0.3370
 8796SOL    HW227288   4.502   2.769   0.702  1.8334  1.5293  1.7144
 8797SOL     OW27289   0.782   6.799   2.020  0.1484 -0.2074  0.5831
 8797SOL    HW127290   0.684   6.786   2.039  0.4078 -1.4273  1.1506
 8797SOL    HW227291   0.835   6.736   2.076  1.1396 -1.4043 -1.6290
 8798SOL     OW27292   4.768   6.741   5.252 -0.1854  0.2911 -0.2088
 8798SOL    HW127293   4.826   6.715   5.175  0.4313  1.2724 -0.0935
 8798SOL    HW227294   4.775   6.672   5.324  2.8072  1.5064  0.8377
 8799SOL     OW27295   6.907   4.142   4.309  0.3439  0.2817 -0.1244
 8799SOL    HW127296   6.856   4.221   4.346 -0.0212  1.4884 -2.9241
 8799SOL    HW227297   6.848   4.061   4.311 -0.6307  0.9576 -0.5598
 8800SOL     OW27298   5.957   6.575   3.252  0.6415 -0.2147 -0.8554
 8800SOL    HW127299   5.889   6.504   3.267  1.6513 -0.9034  0.6838
 8800SOL    HW227300   5.991   6.569   3.158  1.0190 -2.0845 -0.6418
 8801SOL     OW27301   1.223   2.634   3.081 -0.0533  0.2764 -0.2659
 8801SOL    HW127302   1.265   2.687   3.155  0.5414 -0.5634  0.0203
 8801SOL    HW227303   1.256   2.668   2.993  0.5555  0.1993 -0.0733
 8802SOL     OW27304   1.318   5.738   3.763 -0.2592 -0.4607  0.0434
 8802SOL    HW127305   1.398   5.687   3.792 -1.9519 -2.2709  1.7744
 8802SOL    HW227306   1.267   5.685   3.695 -0.5710  0.2108 -0.2603
 8803SOL     OW27307   0.572   4.279   2.995 -0.0957  0.5920  0.1531
 8803SOL    HW127308   0.530   4.355   2.945 -1.4677 -0.8407 -0.9564
 8803SOL    HW227309   0.665   4.265   2.962 -0.7814  0.0272 -1.6858
 8804SOL     OW27310   0.955   0.403   6.963 -0.8848 -0.4371 -0.2033
 8804SOL    HW127311   0.986   0.437   6.874  0.2994 -0.7107  0.0876
 8804SOL    HW227312   0.923   0.308   6.953 -1.1543 -0.3256 -0.4113
 8805SOL     OW27313   0.087   1.256   1.914  0.1119 -0.2193 -0.0723
 8805SOL    HW127314   0.049   1.276   1.824 -0.6266  3.0433  0.8177
 8805SOL    HW227315   0.012   1.237   1.978  0.4358 -0.1544  0.3339
 8806SOL     OW27316   1.158   4.622   3.203  0.2547 -0.0260  0.2061
 8806SOL    HW127317   1.111   4.696   3.250  1.5322  0.8816  0.0904
 8806SOL    HW227318   1.097   4.542   3.197 -1.0619  0.9276  0.5153
 8807SOL     OW27319   0.653   6.359   0.988  0.3803 -0.4738 -0.1789
 8807SOL    HW127320   0.723   6.381   1.056 -0.8992 -2.0122  1.7611
 8807SOL    HW227321   0.612   6.444   0.954  0.9883  0.3398  1.0334
 8808SOL     OW27322   5.227   2.734   1.707 -0.0906  0.1062 -0.1237
 8808SOL    HW127323   5.134   2.710   1.735 -0.3627  2.7943  1.7458
 8808SOL    HW227324   5.253   2.820   1.751  2.7386  0.2394 -1.8239
 8809SOL     OW27325   4.231   4.669   1.369  0.0270 -0.2836  0.4268
 8809SOL    HW127326   4.170   4.591   1.384 -0.2764 -0.1598 -0.1264
 8809SOL    HW227327   4.200   4.721   1.290  0.6969 -0.0630  0.2972
 8810SOL     OW27328   6.302   4.764   2.928 -0.3705 -0.1612  0.3532
 8810SOL    HW127329   6.229   4.814   2.975 -2.6138 -2.2350 -0.7320
 8810SOL    HW227330   6.340   4.822   2.856 -0.8702  0.9856  0.9812
 8811SOL     OW27331   4.067   3.143   2.226 -0.2384  0.0324 -0.0156
 8811SOL    HW127332   4.036   3.234   2.252 -0.5107  0.2679 -1.1365
 8811SOL    HW227333   4.103   3.096   2.307 -0.1596  1.0983  0.5838
 8812SOL     OW27334   5.939   1.467   1.841 -0.4429 -0.7077  0.0902
 8812SOL    HW127335   5.848   1.428   1.824 -0.3217 -0.1896 -2.1262
 8812SOL    HW227336   5.942   1.560   1.802  0.3980  0.1111  2.0232
 8813SOL     OW27337   2.242   5.685   5.577 -0.2029 -0.3317 -0.7236
 8813SOL    HW127338   2.146   5.659   5.586 -0.3430  0.2695 -0.4662
 8813SOL    HW227339   2.297   5.635   5.644 -0.4628 -0.0007 -0.2637
 8814SOL     OW27340   4.810   6.383   1.311 -0.3930 -0.6355  0.1503
 8814SOL    HW127341   4.816   6.480   1.334 -0.4093 -1.0372  1.9337
 8814SOL    HW227342   4.732   6.369   1.249 -0.5370  0.4453  0.0628
 8815SOL     OW27343   0.794   0.062   2.022 -0.1112  0.5420  0.3937
 8815SOL    HW127344   0.794  -0.038   2.021 -1.3061  0.5136  1.5871
 8815SOL    HW227345   0.885   0.095   2.046 -0.2309 -0.3135  2.1678
 8816SOL     OW27346   6.776   0.504   2.539  0.2371  0.1036 -0.2380
 8816SOL    HW127347   6.760   0.449   2.458 -0.7840  2.6118 -1.8796
 8816SOL    HW227348   6.690   0.546   2.569  1.2526  2.5888 -0.5318
 8817SOL     OW27349   6.249   2.047   2.037  0.3196 -0.3703  0.1148
 8817SOL    HW127350   6.252   2.110   1.960 -1.3134  0.3305  0.5869
 8817SOL    HW227351   6.190   2.084   2.109  1.0944 -1.4147  1.3494
 8818SOL     OW27352   6.586   1.448   1.049  0.0432 -0.9607 -0.2204
 8818SOL    HW127353   6.508   1.508   1.032 -0.4613 -1.8344 -1.0760
 8818SOL    HW227354   6.670   1.502   1.053 -0.6200  0.0318  1.0054
 8819SOL     OW27355   6.159   4.291   5.831  0.5610 -0.2211 -0.2507
 8819SOL    HW127356   6.182   4.202   5.793 -1.9288 -0.5729 -1.0769
 8819SOL    HW227357   6.166   4.360   5.759  3.6784  0.5799  0.6512
 8820SOL     OW27358   5.059   0.865   5.378  0.0931  0.8083  0.4010
 8820SOL    HW127359   4.971   0.836   5.416  0.6179 -0.3074  0.8316
 8820SOL    HW227360   5.068   0.964   5.385 -0.6255  0.8125  1.4654
 8821SOL     OW27361   0.433   3.579   3.468  0.3848  0.6460 -0.2455
 8821SOL    HW127362   0.401   3.532   3.550  2.2173 -1.6904 -0.7743
 8821SOL    HW227363   0.513   3.634   3.491  1.7596 -1.0975 -0.6203
 8822SOL     OW27364   1.311   3.392   6.083 -0.0778 -0.3492  0.1403
 8822SOL    HW127365   1.244   3.325   6.116  0.5877 -0.7706  0.6709
 8822SOL    HW227366   1.399   3.377   6.129  0.2937  0.4086 -0.2953
 8823SOL     OW27367   6.566   6.195   5.607  0.1630  0.5750 -0.3347
 8823SOL    HW127368   6.563   6.214   5.705  0.0040  0.0372 -0.2298
 8823SOL    HW227369   6.562   6.096   5.593 -0.4157  0.6766 -0.9083
 8824SOL     OW27370   0.556   0.554   5.251  0.0822 -0.5459  0.6110
 8824SOL    HW127371   0.615   0.523   5.176  1.5477  1.3630  0.9015
 8824SOL    HW227372   0.501   0.632   5.220  0.3378 -0.0534  1.3774
 8825SOL     OW27373   4.223   1.055   6.048 -0.3894 -0.4949 -0.2484
 8825SOL    HW127374   4.282   1.130   6.020  0.8501 -1.1113  0.6528
 8825SOL    HW227375   4.163   1.085   6.122  0.0682 -0.3712  0.0735
 8826SOL     OW27376   2.694   3.202   6.130 -0.1595  0.1121  0.1889
 8826SOL    HW127377   2.734   3.160   6.210 -0.3425  0.1999  0.3276
 8826SOL    HW227378   2.766   3.227   6.065  0.0252  0.4424  0.5196
 8827SOL     OW27379   2.838   1.387   5.692  0.5943  0.7909 -0.0313
 8827SOL    HW127380   2.859   1.328   5.614 -0.7828  0.8615 -0.4851
 8827SOL    HW227381   2.807   1.476   5.659 -0.9119  0.5164  0.5441
 8828SOL     OW27382   0.366   3.835   3.727  0.5106 -0.3760  0.3388
 8828SOL    HW127383   0.288   3.774   3.715 -0.1274  0.2064  1.3486
 8828SOL    HW227384   0.355   3.915   3.668 -0.6943  0.6595  1.8877
 8829SOL     OW27385   1.423   6.099   0.829  0.6166  0.2664 -0.0167
 8829SOL    HW127386   1.401   6.025   0.765 -1.5924  0.4767  0.4109
 8829SOL    HW227387   1.418   6.187   0.782 -0.3063  0.3690  0.2468
 8830SOL     OW27388   1.401   6.276   4.524 -0.0076 -0.0827 -0.2679
 8830SOL    HW127389   1.311   6.316   4.507 -0.0229  0.6686  1.3599
 8830SOL    HW227390   1.391   6.180   4.549 -0.1708 -0.5230 -1.9105
 8831SOL     OW27391   4.100   6.958   0.962  0.8776  0.4366  0.0075
 8831SOL    HW127392   4.145   6.993   1.045  0.7963 -0.0645  0.2681
 8831SOL    HW227393   4.112   6.859   0.957  0.2361  0.3659 -0.1912
 8832SOL     OW27394   4.557   4.841   6.543 -0.0294  0.1056  0.0388
 8832SOL    HW127395   4.626   4.778   6.507 -1.0678 -0.6180 -0.7600
 8832SOL    HW227396   4.574   4.933   6.508 -0.9254 -0.5450 -2.3335
 8833SOL     OW27397   6.040   1.015   3.156 -0.4234  0.5037 -0.0231
 8833SOL    HW127398   6.113   1.071   3.195  0.4388 -0.3641 -0.3545
 8833SOL    HW227399   5.956   1.069   3.150  0.5260  1.9488 -0.8823
 8834SOL     OW27400   0.969   5.299   6.986  0.5419 -0.6595  0.0200
 8834SOL    HW127401   0.873   5.302   6.957  0.6310 -1.4158 -0.3687
 8834SOL    HW227402   0.977   5.248   7.071  0.4303  0.6043  0.8213
 8835SOL     OW27403   0.357   5.538   6.528 -0.2685  0.2132  0.3681
 8835SOL    HW127404   0.343   5.458   6.469  0.4876 -0.3367  0.9112
 8835SOL    HW227405   0.291   5.536   6.603 -0.8623  0.6123 -0.1313
 8836SOL     OW27406   1.484   2.508   3.895  0.0270 -0.4146  0.4603
 8836SOL    HW127407   1.386   2.497   3.882 -0.0308  0.5089  0.0381
 8836SOL    HW227408   1.526   2.539   3.809  0.4350  0.7427  1.0623
 8837SOL     OW27409   3.528   3.876   3.147  0.1414 -0.0244  0.7571
 8837SOL    HW127410   3.484   3.795   3.107  0.8956  0.4221 -1.0549
 8837SOL    HW227411   3.458   3.944   3.168 -0.3318 -0.5136  0.8090
 8838SOL     OW27412   6.597   4.069   5.749 -0.3011 -0.4900 -0.1494
 8838SOL    HW127413   6.614   4.044   5.654  0.9443 -0.8848  0.1588
 8838SOL    HW227414   6.522   4.135   5.754 -2.0683 -2.3055 -1.1949
 8839SOL     OW27415   0.780   4.951   4.130  0.3385  0.3045  0.4130
 8839SOL    HW127416   0.879   4.966   4.140  0.1497  2.2957 -0.3140
 8839SOL    HW227417   0.764   4.857   4.100  1.8651 -0.6460  2.3072
 8840SOL     OW27418   4.653   5.567   5.937 -0.2403  0.3648 -0.1496
 8840SOL    HW127419   4.752   5.550   5.938 -0.3050 -0.3175 -1.9331
 8840SOL    HW227420   4.621   5.579   6.031  1.2335 -1.2088  0.6188
 8841SOL     OW27421   5.801   0.100   7.000 -0.3316 -0.0588 -0.0982
 8841SOL    HW127422   5.845   0.070   6.916  1.0631 -0.7063  0.8120
 8841SOL    HW227423   5.851   0.177   7.039 -0.8938  0.1666  0.1903
 8842SOL     OW27424   1.897   1.176   2.312 -0.0229 -0.2745 -0.4836
 8842SOL    HW127425   1.816   1.184   2.254 -0.6400  0.2721  0.4260
 8842SOL    HW227426   1.886   1.234   2.393  0.8647 -0.9303  0.1322
 8843SOL     OW27427   2.396   2.460   4.794  0.1983  0.5576  0.1504
 8843SOL    HW127428   2.346   2.518   4.857 -0.9966 -1.5340  1.2420
 8843SOL    HW227429   2.428   2.378   4.842  0.7695 -0.2801 -1.5736
 8844SOL     OW27430   5.556   5.479   3.566  0.9084  0.1803 -0.1646
 8844SOL    HW127431   5.467   5.442   3.592  1.3393  0.1013  1.2910
 8844SOL    HW227432   5.558   5.495   3.467 -0.8257  0.5012 -0.1794
 8845SOL     OW27433   1.018   3.713   4.044  0.6677 -0.2016 -0.2676
 8845SOL    HW127434   1.039   3.617   4.065  0.9791 -0.2938 -0.9906
 8845SOL    HW227435   0.921   3.721   4.021  0.1683 -0.0081  1.6722
 8846SOL     OW27436   2.207   0.425   3.640  0.2547  0.0633  0.4067
 8846SOL    HW127437   2.293   0.390   3.603 -1.4564 -2.6927 -1.4026
 8846SOL    HW227438   2.166   0.489   3.575  1.0033  1.6147  1.4057
 8847SOL     OW27439   4.017   6.899   4.827  0.1074  0.3199 -0.2865
 8847SOL    HW127440   3.984   6.826   4.886  0.4263  0.5146  0.1361
 8847SOL    HW227441   3.939   6.942   4.781 -0.1956  0.5097  0.3909
 8848SOL     OW27442   4.504   1.121   4.047  0.9037  0.2871 -0.2225
 8848SOL    HW127443   4.539   1.207   4.085 -0.7705  1.7435 -1.7661
 8848SOL    HW227444   4.537   1.110   3.954 -1.2410  0.8752 -1.1259
 8849SOL     OW27445   0.268   2.872   1.363 -0.3533 -0.0519 -0.3525
 8849SOL    HW127446   0.203   2.842   1.292  1.2758 -0.9618 -1.5297
 8849SOL    HW227447   0.301   2.792   1.413  0.3600  0.3273 -0.2131
 8850SOL     OW27448   1.707   0.081   2.682  0.1051 -0.0882  0.3770
 8850SOL    HW127449   1.734  -0.011   2.654 -0.7203 -0.1370 -0.2909
 8850SOL    HW227450   1.786   0.128   2.722  0.5910 -0.9987  0.5183
 8851SOL     OW27451   5.690   4.454   4.385 -0.3258  0.4540 -0.1198
 8851SOL    HW127452   5.777   4.461   4.336  0.0630 -0.4277  0.4115
 8851SOL    HW227453   5.660   4.358   4.386 -0.9566  0.6471  0.2987
 8852SOL     OW27454   5.218   6.489   1.195  0.3273 -0.1746  0.3728
 8852SOL    HW127455   5.215   6.566   1.259  0.4726 -0.3924  0.6486
 8852SOL    HW227456   5.167   6.412   1.234 -0.8090  0.1589 -0.4204
 8853SOL     OW27457   5.011   5.568   6.559  0.1004  0.7075  0.4356
 8853SOL    HW127458   4.973   5.578   6.466  0.1509  2.0590  0.5410
 8853SOL    HW227459   5.052   5.654   6.587 -1.6069  0.9414  2.4630
 8854SOL     OW27460   2.441   6.107   3.345  0.1381 -0.5620 -0.4135
 8854SOL    HW127461   2.376   6.111   3.421  0.0635  0.6118 -0.5205
 8854SOL    HW227462   2.410   6.038   3.278 -1.2996  0.3526 -0.7260
 8855SOL     OW27463   5.065   4.253   0.107 -0.6703  0.2121 -0.0891
 8855SOL    HW127464   4.967   4.235   0.101 -0.7783  0.7797 -0.0995
 8855SOL    HW227465   5.084   4.306   0.190 -0.2615 -0.5819  0.3400
 8856SOL     OW27466   5.218   5.008   0.794  0.2698 -0.2734 -0.2264
 8856SOL    HW127467   5.290   5.064   0.834  0.4126  0.6622 -1.7005
 8856SOL    HW227468   5.155   5.067   0.743 -1.0685 -1.1700  0.3332
 8857SOL     OW27469   0.720   0.884   1.819 -0.5099 -0.3626 -0.3109
 8857SOL    HW127470   0.670   0.941   1.884 -0.7965  1.9394 -2.3766
 8857SOL    HW227471   0.657   0.821   1.774 -1.1707  0.9324 -1.2636
 8858SOL     OW27472   5.692   2.979   6.678  0.1847 -0.6203  0.3584
 8858SOL    HW127473   5.775   2.951   6.725  0.7961  0.2690 -0.1626
 8858SOL    HW227474   5.708   3.065   6.629 -0.1154 -1.9432 -2.2431
 8859SOL     OW27475   5.171   2.561   5.490 -0.0159  0.2533  0.1282
 8859SOL    HW127476   5.208   2.620   5.562 -1.2996  1.6424 -0.2924
 8859SOL    HW227477   5.071   2.565   5.491 -0.2477 -2.8998  0.8443
 8860SOL     OW27478   1.028   5.025   6.870  0.4037 -0.2938 -0.3480
 8860SOL    HW127479   0.969   5.066   6.940  2.9905  0.4239  1.5790
 8860SOL    HW227480   1.106   5.085   6.854  0.5938 -1.1314 -2.9060
 8861SOL     OW27481   1.431   1.416   1.710 -0.3933  0.0682  0.2729
 8861SOL    HW127482   1.441   1.317   1.716 -0.6183 -0.2457 -2.6803
 8861SOL    HW227483   1.516   1.461   1.736  0.4220 -1.0605 -0.3710
 8862SOL     OW27484   2.509   1.360   1.167 -0.1884 -0.1983  0.3350
 8862SOL    HW127485   2.454   1.442   1.185  0.5240  1.1062 -2.7693
 8862SOL    HW227486   2.605   1.380   1.187  0.0886  0.0426 -1.1210
 8863SOL     OW27487   1.395   2.310   6.864 -0.1728  0.0779  0.1852
 8863SOL    HW127488   1.402   2.396   6.814 -0.2979 -0.6834 -1.1779
 8863SOL    HW227489   1.461   2.309   6.939 -1.4446  2.1273  1.4465
 8864SOL     OW27490   3.333   1.326   5.615  0.1368  0.4121  0.3423
 8864SOL    HW127491   3.252   1.360   5.662  0.3569 -1.3969  2.1607
 8864SOL    HW227492   3.323   1.341   5.516 -0.9685  3.0262  0.7696
 8865SOL     OW27493   0.751   0.283   0.236  0.1961  0.6781  0.3219
 8865SOL    HW127494   0.792   0.341   0.306 -0.4310 -0.4012  1.6356
 8865SOL    HW227495   0.678   0.332   0.189 -0.1185  1.0485  1.1939
 8866SOL     OW27496   3.320   6.776   6.504 -0.9379 -0.8430 -0.5197
 8866SOL    HW127497   3.314   6.745   6.409 -3.9372 -1.5469 -0.2123
 8866SOL    HW227498   3.411   6.756   6.540 -0.4467 -2.6450 -2.5572
 8867SOL     OW27499   6.569   5.779   4.801  0.2225 -0.4437 -0.4208
 8867SOL    HW127500   6.565   5.872   4.837 -1.5690 -0.7692  0.3803
 8867SOL    HW227501   6.658   5.762   4.760  0.3904  1.8060 -1.1138
 8868SOL     OW27502   5.235   3.612   3.966  0.2387 -0.4753  0.3148
 8868SOL    HW127503   5.214   3.629   3.869 -2.4478  0.2711  0.9489
 8868SOL    HW227504   5.215   3.516   3.988  1.2661 -0.7575  0.0530
 8869SOL     OW27505   6.660   1.713   3.553  0.4372 -0.6086  0.2632
 8869SOL    HW127506   6.677   1.721   3.652  0.3200 -1.1204  0.3278
 8869SOL    HW227507   6.738   1.749   3.503 -0.3898  1.7160  0.5111
 8870SOL     OW27508   3.141   6.778   2.758  0.3623 -0.1014  0.4489
 8870SOL    HW127509   3.101   6.844   2.821  1.6154 -0.6409  1.8702
 8870SOL    HW227510   3.091   6.692   2.764 -0.8789  0.4749 -0.9460
 8871SOL     OW27511   5.702   1.640   2.077  0.5215 -0.2017  0.3638
 8871SOL    HW127512   5.680   1.563   2.136 -0.3154  0.6245  1.1709
 8871SOL    HW227513   5.675   1.618   1.983 -1.9169 -0.0663  0.9520
 8872SOL     OW27514   0.193   4.030   3.983 -0.0864 -0.1513  0.1379
 8872SOL    HW127515   0.145   4.042   3.896  1.2528  0.0740 -0.6114
 8872SOL    HW227516   0.179   3.937   4.016 -0.6215 -0.2346 -0.3063
 8873SOL     OW27517   1.122   4.521   2.020  0.5318  1.0307 -0.7436
 8873SOL    HW127518   1.201   4.580   2.001  0.5467  0.6681 -1.8784
 8873SOL    HW227519   1.123   4.443   1.959  0.2915  0.0325  0.4916
 8874SOL     OW27520   0.643   1.131   5.695  0.2913  0.7052 -0.3906
 8874SOL    HW127521   0.662   1.038   5.663 -0.4464  0.4525 -0.0943
 8874SOL    HW227522   0.718   1.191   5.666 -0.2215  0.4531 -2.4310
 8875SOL     OW27523   3.136   5.780   4.074 -0.3208  0.0687  0.1260
 8875SOL    HW127524   3.124   5.872   4.038  0.4043  0.2871  0.4172
 8875SOL    HW227525   3.066   5.761   4.142  0.0317  0.7344  0.6925
 8876SOL     OW27526   3.114   4.774   6.282  0.1325 -0.1626  0.5629
 8876SOL    HW127527   3.183   4.845   6.293  1.5419 -1.1845 -1.1719
 8876SOL    HW227528   3.157   4.684   6.288 -0.3894 -0.8653 -3.3234
 8877SOL     OW27529   0.927   5.127   3.497  0.6726 -0.5513 -0.0758
 8877SOL    HW127530   1.010   5.127   3.553  0.0015 -0.7741  0.9257
 8877SOL    HW227531   0.881   5.039   3.504 -0.1122 -0.1421  0.0621
 8878SOL     OW27532   3.508   5.112   5.835  0.0514  0.2424  0.1134
 8878SOL    HW127533   3.607   5.097   5.833  0.1989  1.2442 -1.0627
 8878SOL    HW227534   3.468   5.060   5.912  0.9959 -2.9745 -1.3703
 8879SOL     OW27535   1.989   2.319   1.721 -0.1260 -0.3949  0.1423
 8879SOL    HW127536   1.983   2.283   1.814  0.6439 -0.8084  0.0367
 8879SOL    HW227537   2.079   2.298   1.682 -0.5232 -0.4433 -0.7861
 8880SOL     OW27538   0.993   1.332   3.666  0.3967 -0.4520  0.0403
 8880SOL    HW127539   0.915   1.358   3.722  0.2219 -0.1567 -0.3317
 8880SOL    HW227540   1.063   1.404   3.672  1.7787 -1.8602  2.4243
 8881SOL     OW27541   2.013   1.239   6.902  0.1131  0.2435  0.1337
 8881SOL    HW127542   2.034   1.233   6.805 -0.4855  0.0502  0.0146
 8881SOL    HW227543   1.990   1.333   6.926  0.2291  0.2843  0.0875
 8882SOL     OW27544   2.658   6.447   0.856 -0.0044 -0.2163 -0.7069
 8882SOL    HW127545   2.581   6.463   0.794  0.0772  1.5880 -0.3865
 8882SOL    HW227546   2.732   6.510   0.833  1.5876 -2.1806 -1.2719
 8883SOL     OW27547   1.300   3.949   3.697 -0.4435 -0.1689  0.2541
 8883SOL    HW127548   1.248   3.883   3.753 -1.2297 -0.5375 -0.8714
 8883SOL    HW227549   1.344   3.901   3.621  2.7316 -0.0967  1.8936
 8884SOL     OW27550   5.181   2.578   3.481  0.4758 -0.1814 -0.4028
 8884SOL    HW127551   5.271   2.546   3.450  0.6893 -1.2764  1.2170
 8884SOL    HW227552   5.168   2.673   3.455  1.7848 -0.2285 -1.3105
 8885SOL     OW27553   4.255   3.845   0.500  0.3401 -0.2580  0.7916
 8885SOL    HW127554   4.237   3.884   0.591 -1.4907 -1.2436  0.9110
 8885SOL    HW227555   4.338   3.790   0.503 -0.4731 -1.4863  2.3001
 8886SOL     OW27556   0.759   4.134   6.497 -0.3608  0.0729  0.9784
 8886SOL    HW127557   0.852   4.097   6.499  0.3879  1.8708  3.2114
 8886SOL    HW227558   0.746   4.184   6.411  0.2301 -1.3169  0.0405
 8887SOL     OW27559   1.887   0.921   5.971  0.1099  0.0107  0.2954
 8887SOL    HW127560   1.812   0.855   5.973 -0.8978  1.1255  2.4259
 8887SOL    HW227561   1.928   0.922   5.880  0.4302 -3.7748  0.2262
 8888SOL     OW27562   0.252   0.067   6.671  0.1929  0.1029 -0.3086
 8888SOL    HW127563   0.288   0.140   6.730 -0.8947  0.6125 -0.2404
 8888SOL    HW227564   0.171   0.027   6.714 -0.4950  0.3353 -1.3488
 8889SOL     OW27565   6.123   4.945   0.461  0.3801  0.9225  0.1036
 8889SOL    HW127566   6.101   4.873   0.527 -0.5691 -0.7719 -1.9631
 8889SOL    HW227567   6.080   5.031   0.490 -0.5132  0.0770  1.3667
 8890SOL     OW27568   2.654   1.996   4.299 -0.3287  0.5383  0.4573
 8890SOL    HW127569   2.737   1.990   4.243 -0.1370  0.1481  0.7704
 8890SOL    HW227570   2.665   2.069   4.367 -0.0877  0.2510  0.7333
 8891SOL     OW27571   5.513   4.943   4.872 -0.4128 -0.6320 -0.2943
 8891SOL    HW127572   5.600   4.896   4.880 -0.5498 -1.2465 -1.9366
 8891SOL    HW227573   5.439   4.880   4.896 -0.4700 -0.4303  0.0713
 8892SOL     OW27574   1.828   5.467   2.022  0.0371 -0.0541  0.8371
 8892SOL    HW127575   1.795   5.413   1.945  1.8984 -0.0386 -0.0304
 8892SOL    HW227576   1.751   5.492   2.081 -1.2690 -1.0429 -0.3810
 8893SOL     OW27577   1.245   3.681   4.947 -0.4349  0.6757  0.0802
 8893SOL    HW127578   1.222   3.717   4.857 -1.4659  1.7871  0.7490
 8893SOL    HW227579   1.344   3.673   4.956 -0.2854  1.2813 -0.8829
 8894SOL     OW27580   3.997   2.082   6.328  0.0598  0.2341  0.0208
 8894SOL    HW127581   4.034   2.014   6.264 -1.7593 -1.1901  0.3809
 8894SOL    HW227582   3.939   2.036   6.396  0.2692  1.9561  1.4414
 8895SOL     OW27583   3.921   5.678   1.299  0.0874 -0.6767 -0.0533
 8895SOL    HW127584   3.980   5.709   1.225 -0.2466  1.4658  0.5083
 8895SOL    HW227585   3.826   5.673   1.268 -0.0700  0.3364  0.2332
 8896SOL     OW27586   4.351   0.529   2.154 -0.0684 -0.3637  0.2262
 8896SOL    HW127587   4.256   0.555   2.171 -0.0997  0.2841 -0.8377
 8896SOL    HW227588   4.386   0.580   2.075  0.9666 -1.0547  0.2159
 8897SOL     OW27589   2.915   6.973   3.572  0.4232 -0.2567 -0.4137
 8897SOL    HW127590   2.836   6.998   3.516 -0.6953  0.1783  1.3109
 8897SOL    HW227591   2.999   6.995   3.521 -0.5139  2.8106 -0.8727
 8898SOL     OW27592   4.425   3.932   1.562 -0.0591  0.5548 -0.6315
 8898SOL    HW127593   4.383   3.994   1.629  0.8474  1.3141 -0.7351
 8898SOL    HW227594   4.463   3.852   1.610 -1.9018 -0.3427 -0.5804
 8899SOL     OW27595   4.955   5.854   6.816 -1.2375 -0.7648  0.6479
 8899SOL    HW127596   4.899   5.889   6.741 -1.6796  0.5259  1.5271
 8899SOL    HW227597   4.956   5.754   6.814 -2.4494 -0.7781 -0.2021
 8900SOL     OW27598   4.773   0.049   3.838 -0.1096 -0.2379 -0.1951
 8900SOL    HW127599   4.863   0.088   3.857 -0.1851 -1.0188  2.0445
 8900SOL    HW227600   4.774  -0.049   3.858 -1.5186 -0.2090  0.1552
 8901SOL     OW27601   1.909   6.083   0.821  0.1228  0.5783  0.2178
 8901SOL    HW127602   2.005   6.068   0.800 -0.2266  1.8651 -2.7661
 8901SOL    HW227603   1.852   6.042   0.748 -1.5595  0.6729  1.4115
 8902SOL     OW27604   1.160   6.417   4.030 -0.1330  0.5363  0.8903
 8902SOL    HW127605   1.079   6.360   4.045  0.9911 -1.3878  0.0203
 8902SOL    HW227606   1.133   6.502   3.983 -1.4935 -0.6285 -0.5218
 8903SOL     OW27607   6.832   3.053   1.469 -0.0968 -0.1930  0.0680
 8903SOL    HW127608   6.790   3.082   1.555  0.1862  1.7109 -0.3808
 8903SOL    HW227609   6.874   2.963   1.480 -0.4658 -0.1826  1.7739
 8904SOL     OW27610   0.594   6.040   6.404  0.8895 -0.2285 -0.2845
 8904SOL    HW127611   0.554   6.115   6.352 -0.6403 -1.0522 -0.3377
 8904SOL    HW227612   0.680   6.012   6.359  2.4020  2.5070  0.6704
 8905SOL     OW27613   5.675   5.007   3.456 -0.4920 -0.0518  0.1992
 8905SOL    HW127614   5.615   5.005   3.375 -0.5267 -0.5346  0.2337
 8905SOL    HW227615   5.700   5.102   3.477 -1.3292  0.1678  0.2441
 8906SOL     OW27616   0.334   6.927   3.559 -0.3783  0.0603  0.0158
 8906SOL    HW127617   0.381   6.892   3.477 -1.5249  0.3473 -0.7884
 8906SOL    HW227618   0.326   7.026   3.553  1.5541  0.3727  1.5960
 8907SOL     OW27619   1.603   1.011   0.352  0.2677  0.1731  0.2987
 8907SOL    HW127620   1.515   1.026   0.396 -0.8584 -1.3179 -1.3300
 8907SOL    HW227621   1.639   1.099   0.319 -0.6570  0.7814  0.8557
 8908SOL     OW27622   5.257   3.916   2.717 -0.1200 -0.2672  0.8636
 8908SOL    HW127623   5.195   3.969   2.774  0.1480  0.9385  0.0673
 8908SOL    HW227624   5.266   3.960   2.628  1.1928 -0.9100  0.6597
 8909SOL     OW27625   0.229   3.300   2.486  0.0445  0.0084 -0.0791
 8909SOL    HW127626   0.197   3.326   2.577  2.7156  1.0329  0.6617
 8909SOL    HW227627   0.225   3.380   2.426 -0.9288 -0.4571 -0.6564
 8910SOL     OW27628   0.141   6.921   0.894  0.1110 -0.7907 -0.0033
 8910SOL    HW127629   0.190   7.008   0.890  1.6557 -1.6247  0.2690
 8910SOL    HW227630   0.190   6.852   0.841 -3.3832 -0.5160 -4.1853
 8911SOL     OW27631   3.773   2.888   0.987  0.4028  0.9097 -0.2482
 8911SOL    HW127632   3.694   2.838   0.955 -0.0281  0.1044  1.8857
 8911SOL    HW227633   3.748   2.984   1.003  1.2328  1.9924 -4.3451
 8912SOL     OW27634   1.707   0.073   5.781  0.2770 -0.1828 -0.2730
 8912SOL    HW127635   1.627   0.068   5.721 -0.3908  2.3459  0.2968
 8912SOL    HW227636   1.679   0.108   5.870  2.1204  1.8799 -0.4116
 8913SOL     OW27637   1.105   0.404   0.572  0.5122 -0.1539 -0.2657
 8913SOL    HW127638   1.117   0.304   0.573  1.2657 -0.1236  3.0489
 8913SOL    HW227639   1.189   0.447   0.539  0.6316 -0.5769 -0.5232
 8914SOL     OW27640   0.654   6.229   2.833  0.4350  0.2284 -0.3471
 8914SOL    HW127641   0.605   6.270   2.757  0.7333  0.2143 -0.5497
 8914SOL    HW227642   0.622   6.135   2.848  1.7174 -0.4896 -1.7321
 8915SOL     OW27643   1.591   3.114   4.601  0.0067  0.7174 -0.3128
 8915SOL    HW127644   1.669   3.060   4.570 -0.4606 -0.2499  0.1370
 8915SOL    HW227645   1.510   3.090   4.547  0.0787  1.9848 -1.0341
 8916SOL     OW27646   6.480   2.419   4.207 -0.3082 -0.4952  0.9878
 8916SOL    HW127647   6.553   2.453   4.266 -1.6273  1.5616  1.5384
 8916SOL    HW227648   6.424   2.352   4.257 -0.9230  0.6194  1.8237
 8917SOL     OW27649   0.020   0.151   2.933  0.3063 -0.6970 -0.2875
 8917SOL    HW127650   0.035   0.139   3.031  0.9202  1.2810 -0.0874
 8917SOL    HW227651   0.100   0.120   2.883  0.5020 -0.5665 -0.0603
 8918SOL     OW27652   1.455   2.353   2.389  0.3191 -0.0442  0.1549
 8918SOL    HW127653   1.379   2.290   2.402  0.4544  0.1764  2.3902
 8918SOL    HW227654   1.427   2.428   2.329 -1.5673  0.4967  1.6122
 8919SOL     OW27655   2.352   1.590   5.878 -0.3443  0.0326  0.3225
 8919SOL    HW127656   2.364   1.513   5.942 -0.6578  0.5358  0.9982
 8919SOL    HW227657   2.255   1.599   5.855 -0.1089 -0.8715 -1.1614
 8920SOL     OW27658   2.348   2.573   0.001  0.0909  0.0566 -0.0158
 8920SOL    HW127659   2.306   2.588   0.090 -1.2585  1.1811 -0.7989
 8920SOL    HW227660   2.405   2.652  -0.023  1.8370 -0.9759  0.5526
 8921SOL     OW27661   5.534   2.944   1.462 -0.0661  0.1268 -0.2957
 8921SOL    HW127662   5.435   2.946   1.450 -0.0751 -1.1206 -0.5540
 8921SOL    HW227663   5.565   2.850   1.469  0.9417  0.5382  1.2605
 8922SOL     OW27664   4.715   1.451   0.976  0.5593 -0.0098  0.1635
 8922SOL    HW127665   4.673   1.397   0.904  0.2975  0.5448 -0.1105
 8922SOL    HW227666   4.686   1.418   1.065 -1.7452  1.3213 -0.0190
 8923SOL     OW27667   1.463   4.636   2.588 -0.4668  0.1020  0.4721
 8923SOL    HW127668   1.443   4.594   2.499 -0.7416 -0.2147  0.6826
 8923SOL    HW227669   1.561   4.659   2.592 -0.8542  2.2008 -0.7775
 8924SOL     OW27670   0.488   0.960   2.815 -0.2639 -0.5594  0.4415
 8924SOL    HW127671   0.487   0.871   2.861 -0.7146 -2.7532 -3.4068
 8924SOL    HW227672   0.575   0.972   2.768 -0.8364  0.2590 -0.4313
 8925SOL     OW27673   1.259   3.670   6.122 -1.6121  0.3250  0.0170
 8925SOL    HW127674   1.269   3.571   6.117 -0.7836  0.4636 -2.0893
 8925SOL    HW227675   1.229   3.705   6.034  0.0703  2.1204  0.0770
 8926SOL     OW27676   6.858   6.137   1.261  0.4861 -0.2352  0.1906
 8926SOL    HW127677   6.868   6.043   1.293  0.6172 -0.6393 -0.9879
 8926SOL    HW227678   6.945   6.186   1.272  1.3416 -1.1404 -1.8597
 8927SOL     OW27679   5.749   1.513   5.497  0.2474  0.6884  0.4048
 8927SOL    HW127680   5.658   1.535   5.463  0.3338 -0.4896 -0.6699
 8927SOL    HW227681   5.780   1.427   5.457  2.7590  2.1262 -1.0163
 8928SOL     OW27682   5.882   3.761   3.132  0.4815  0.2286 -0.0965
 8928SOL    HW127683   5.786   3.767   3.159  0.6354  3.3339  0.1435
 8928SOL    HW227684   5.888   3.736   3.035 -0.6035  0.2505 -0.1810
 8929SOL     OW27685   6.805   5.682   4.701 -0.3868 -0.7019 -1.1745
 8929SOL    HW127686   6.835   5.742   4.627 -0.2342 -1.1136 -1.4537
 8929SOL    HW227687   6.777   5.594   4.663  0.4991 -1.2152 -0.6694
 8930SOL     OW27688   2.910   3.397   2.737  0.5872  0.2602  0.1207
 8930SOL    HW127689   2.994   3.366   2.781  0.7545 -0.4047 -0.6438
 8930SOL    HW227690   2.855   3.450   2.802  0.5825 -1.1210  1.2689
 8931SOL     OW27691   5.031   1.893   3.284  0.2136  0.3205  0.2907
 8931SOL    HW127692   5.019   1.808   3.335 -1.1470  0.5274  0.3631
 8931SOL    HW227693   4.994   1.969   3.337  2.3935  1.1462  0.7047
 8932SOL     OW27694   2.000   1.904   5.766  0.4041 -0.4110 -0.3857
 8932SOL    HW127695   2.065   1.946   5.830 -1.2159  0.6519  0.6147
 8932SOL    HW227696   1.968   1.817   5.804 -1.0223  0.5055  0.6209
 8933SOL     OW27697   5.058   0.827   0.396 -0.4228 -0.1807 -0.1355
 8933SOL    HW127698   5.156   0.817   0.412 -0.4770 -0.0499  0.3012
 8933SOL    HW227699   5.008   0.772   0.462 -0.6486  0.1030 -0.0664
 8934SOL     OW27700   0.096   4.621   0.785  0.0765  0.3133  0.1060
 8934SOL    HW127701   0.166   4.693   0.786  0.8090 -0.3756 -0.2705
 8934SOL    HW227702   0.092   4.579   0.694 -0.9618  0.4564  0.0697
 8935SOL     OW27703   5.521   6.762   6.363  0.6002 -0.1443 -0.0186
 8935SOL    HW127704   5.513   6.755   6.264 -0.5801  0.1676  0.0425
 8935SOL    HW227705   5.552   6.855   6.387  0.2626 -0.0167 -0.0702
 8936SOL     OW27706   6.492   1.422   3.730 -0.7806  0.5219 -0.2236
 8936SOL    HW127707   6.544   1.490   3.781 -2.9511  1.0536  1.3936
 8936SOL    HW227708   6.461   1.462   3.644  0.5374  0.5264 -0.7241
 8937SOL     OW27709   2.193   4.462   2.199  0.5459 -0.3604 -0.2508
 8937SOL    HW127710   2.140   4.547   2.197  0.1531 -0.6051 -0.4690
 8937SOL    HW227711   2.182   4.414   2.113  0.1835 -0.9782  0.1311
 8938SOL     OW27712   5.590   5.028   1.819 -0.1513  0.3002  0.0536
 8938SOL    HW127713   5.624   5.013   1.912  3.4092 -1.1496 -1.3103
 8938SOL    HW227714   5.641   5.103   1.777 -0.0380 -0.5873 -1.4596
 8939SOL     OW27715   2.672   5.946   3.272 -0.4174  0.5063 -0.4330
 8939SOL    HW127716   2.767   5.976   3.281 -0.0751 -0.9112  1.3688
 8939SOL    HW227717   2.664   5.885   3.193  0.0775  0.9047 -0.8020
 8940SOL     OW27718   6.442   4.891   1.931  0.2546  0.7808 -0.0726
 8940SOL    HW127719   6.369   4.835   1.971  0.2175  1.1010  0.3102
 8940SOL    HW227720   6.505   4.920   2.003  0.1845  1.3732 -0.2489
 8941SOL     OW27721   2.187   1.528   0.548  0.5056  1.0472  0.5463
 8941SOL    HW127722   2.206   1.626   0.544 -0.2578  1.1540 -0.8020
 8941SOL    HW227723   2.225   1.483   0.467 -0.2939  0.4372  0.4997
 8942SOL     OW27724   4.739   2.361   3.656 -0.0648 -0.3411  0.0705
 8942SOL    HW127725   4.814   2.372   3.591  0.8136 -1.5452  0.8232
 8942SOL    HW227726   4.775   2.360   3.749 -1.2683  1.0895  0.5904
 8943SOL     OW27727   0.426   6.895   6.940  0.0451  0.5632 -0.2434
 8943SOL    HW127728   0.403   6.979   6.988  0.9539  0.5876  0.1673
 8943SOL    HW227729   0.473   6.917   6.855 -0.1224  0.4838 -0.3559
 8944SOL     OW27730   1.054   4.078   1.544  0.0762  0.0075 -0.2998
 8944SOL    HW127731   0.957   4.088   1.520  0.2687 -0.6292 -1.4398
 8944SOL    HW227732   1.095   4.169   1.555 -0.4532  0.2993 -0.6770
 8945SOL     OW27733   2.404   1.333   4.416  0.1956  0.1221  0.1288
 8945SOL    HW127734   2.496   1.364   4.389  0.4730  1.6060  2.4698
 8945SOL    HW227735   2.338   1.360   4.345  1.2339  1.1874 -0.4742
 8946SOL     OW27736   3.734   1.363   3.153  0.3913 -0.0813  0.4845
 8946SOL    HW127737   3.654   1.336   3.207  0.9872  0.0318  1.4576
 8946SOL    HW227738   3.817   1.339   3.204  0.9665  0.3069 -0.2636
 8947SOL     OW27739   2.103   3.735   1.818 -0.2149 -0.0482 -0.6848
 8947SOL    HW127740   2.158   3.655   1.841 -0.6314 -0.0817  0.2594
 8947SOL    HW227741   2.157   3.798   1.763  0.7877 -0.0656  0.2407
 8948SOL     OW27742   4.353   4.716   6.679  0.1578  0.1327 -0.0639
 8948SOL    HW127743   4.333   4.769   6.762  1.7534 -0.6146  0.8242
 8948SOL    HW227744   4.442   4.742   6.643  0.0162 -0.4360 -0.8621
 8949SOL     OW27745   1.511   6.621   4.326 -0.2024  1.0849  0.2439
 8949SOL    HW127746   1.462   6.543   4.287 -1.6227 -0.4838  4.5401
 8949SOL    HW227747   1.600   6.630   4.283 -0.2140 -2.5871 -0.8463
 8950SOL     OW27748   2.403   4.346   2.385  0.0421 -0.1455 -0.0970
 8950SOL    HW127749   2.478   4.318   2.324  0.1622 -0.0647  0.0138
 8950SOL    HW227750   2.341   4.406   2.335 -0.7369 -1.3487 -0.6327
 8951SOL     OW27751   6.749   2.670   6.113 -0.5611  0.1018  0.1107
 8951SOL    HW127752   6.736   2.641   6.208 -0.6813  3.0828  1.1366
 8951SOL    HW227753   6.845   2.696   6.099 -0.5460 -0.3092 -0.6076
 8952SOL     OW27754   5.668   3.148   1.531  0.3420  0.1775  0.1720
 8952SOL    HW127755   5.620   3.062   1.515  0.1931 -0.6437  4.0827
 8952SOL    HW227756   5.637   3.188   1.617  2.0176  3.0475 -0.4172
 8953SOL     OW27757   1.281   2.680   1.221 -0.1431 -0.1154 -0.0471
 8953SOL    HW127758   1.371   2.691   1.180  0.8033 -0.9517  1.7135
 8953SOL    HW227759   1.261   2.758   1.280  0.1319 -0.6484  0.7755
 8954SOL     OW27760   1.486   5.812   2.938  0.2412  0.2362 -0.3626
 8954SOL    HW127761   1.480   5.911   2.949  1.2164  0.3538 -0.7944
 8954SOL    HW227762   1.415   5.781   2.875  0.3969  0.7656 -0.8087
 8955SOL     OW27763   2.056   5.390   2.217 -0.2349  0.3036 -0.0744
 8955SOL    HW127764   1.998   5.414   2.294  0.1310  0.5011  0.1415
 8955SOL    HW227765   2.009   5.322   2.159 -0.3063 -0.2199  0.5860
 8956SOL     OW27766   0.306   0.435   6.566  0.1097  0.1195 -0.0135
 8956SOL    HW127767   0.377   0.389   6.513  2.4786  2.7234  0.6554
 8956SOL    HW227768   0.333   0.530   6.582 -1.9174  0.2970  3.2527
 8957SOL     OW27769   3.440   5.866   6.398  0.3544 -1.0514  0.0420
 8957SOL    HW127770   3.467   5.902   6.487 -0.2369  0.4693 -0.3543
 8957SOL    HW227771   3.347   5.830   6.402 -0.2619  0.4032 -0.2631
 8958SOL     OW27772   1.565   3.210   0.995  0.3052  0.2970 -0.4233
 8958SOL    HW127773   1.491   3.253   0.943  0.8925 -0.6149 -2.0778
 8958SOL    HW227774   1.554   3.111   0.992  0.8696  0.1960  0.4585
 8959SOL     OW27775   0.141   4.463   0.078 -0.3255  0.4400 -0.2513
 8959SOL    HW127776   0.149   4.535   0.009 -0.1760 -0.6317 -1.3892
 8959SOL    HW227777   0.104   4.501   0.163 -3.3741  1.2840 -1.8261
 8960SOL     OW27778   4.196   1.670   3.839 -0.1826 -0.0783 -0.6978
 8960SOL    HW127779   4.252   1.744   3.802  1.1489 -0.8967 -0.4073
 8960SOL    HW227780   4.135   1.706   3.909  1.2823  0.5884  0.2859
 8961SOL     OW27781   5.989   2.627   5.449  0.7214 -0.2775  0.2826
 8961SOL    HW127782   6.066   2.648   5.389  1.3713  0.7417  1.4274
 8961SOL    HW227783   5.991   2.530   5.473  0.4000 -0.7215 -1.3720
 8962SOL     OW27784   0.483   6.742   5.985 -0.0962 -0.1450  0.6867
 8962SOL    HW127785   0.532   6.813   5.935  0.2832 -1.8175 -1.4925
 8962SOL    HW227786   0.545   6.700   6.051  1.4564 -1.8688 -1.6608
 8963SOL     OW27787   3.895   0.475   4.988  0.7263 -0.3042 -0.2254
 8963SOL    HW127788   3.903   0.479   5.088  1.0073  1.1184 -0.2920
 8963SOL    HW227789   3.912   0.381   4.958 -0.0230 -0.9028  1.1093
 8964SOL     OW27790   6.169   5.409   5.639 -0.4425  0.1485 -0.2505
 8964SOL    HW127791   6.071   5.415   5.624 -1.0224 -1.2254  2.3222
 8964SOL    HW227792   6.218   5.436   5.556 -2.9500  1.2778 -1.4515
 8965SOL     OW27793   4.789   5.570   3.724 -0.0925 -0.1408  0.5231
 8965SOL    HW127794   4.805   5.533   3.816  0.3308  1.4512  1.1320
 8965SOL    HW227795   4.699   5.615   3.722  0.6027  1.3399  0.7269
 8966SOL     OW27796   4.678   6.356   4.888 -0.0264 -0.1267  0.2483
 8966SOL    HW127797   4.750   6.293   4.859  2.4883  2.3307  0.6876
 8966SOL    HW227798   4.614   6.371   4.813  1.0272 -0.9415 -0.8412
 8967SOL     OW27799   2.392   5.364   5.635  0.1620  0.9738 -0.4421
 8967SOL    HW127800   2.414   5.385   5.540  3.6012 -2.7755 -0.7275
 8967SOL    HW227801   2.352   5.273   5.641  2.4944 -0.0299  1.8165
 8968SOL     OW27802   2.226   0.306   2.036 -0.9245  0.0046 -0.2409
 8968SOL    HW127803   2.260   0.366   1.963 -0.0990  1.2328  1.1164
 8968SOL    HW227804   2.126   0.312   2.039 -0.8505  1.4673 -0.0183
 8969SOL     OW27805   5.641   2.650   4.397 -0.0520  0.2361 -0.0559
 8969SOL    HW127806   5.619   2.642   4.300  0.8920  1.5484 -0.4166
 8969SOL    HW227807   5.717   2.588   4.420  0.3046  0.5565 -0.3649
 8970SOL     OW27808   3.300   5.050   1.404  0.2084  0.0858 -0.1663
 8970SOL    HW127809   3.257   5.132   1.442 -0.7955 -0.7375  0.5197
 8970SOL    HW227810   3.399   5.060   1.406  0.1029  1.7848 -1.2269
 8971SOL     OW27811   6.595   5.222   0.966 -0.3216 -0.3858 -0.2477
 8971SOL    HW127812   6.534   5.190   0.893  0.7695 -0.8755 -0.9754
 8971SOL    HW227813   6.563   5.311   0.999 -0.2993  0.3286 -2.0170
 8972SOL     OW27814   3.662   6.440   5.401  0.1425  0.4895 -0.4481
 8972SOL    HW127815   3.709   6.491   5.328  2.2590 -1.8941 -0.8772
 8972SOL    HW227816   3.717   6.443   5.484 -0.6029  0.3834  0.0581
 8973SOL     OW27817   3.704   0.339   0.940 -0.4251 -0.4993 -0.1769
 8973SOL    HW127818   3.784   0.398   0.945  0.7971 -2.2037  2.3632
 8973SOL    HW227819   3.685   0.318   0.844  2.0022  0.1804 -0.8927
 8974SOL     OW27820   4.759   0.846   5.833  0.7177 -0.5068  0.3277
 8974SOL    HW127821   4.809   0.767   5.869 -0.1990 -1.6837 -0.8900
 8974SOL    HW227822   4.680   0.865   5.892  0.0404 -1.5224 -0.2270
 8975SOL     OW27823   2.373   5.874   6.185 -0.4430  0.0744  0.4638
 8975SOL    HW127824   2.371   5.927   6.100 -0.7410 -0.2669  0.2538
 8975SOL    HW227825   2.291   5.893   6.239 -1.4855 -1.5156 -0.4599
 8976SOL     OW27826   2.442   0.787   4.908 -0.1789  0.1388  0.3001
 8976SOL    HW127827   2.376   0.853   4.872  0.1756  1.4078  1.8596
 8976SOL    HW227828   2.535   0.817   4.885 -0.0793 -1.3611 -1.4326
 8977SOL     OW27829   0.811   4.659   1.401  0.0198 -0.1531  0.4355
 8977SOL    HW127830   0.765   4.747   1.416  1.1536  0.4213  0.6280
 8977SOL    HW227831   0.742   4.588   1.386 -0.9818  0.3649  2.3261
 8978SOL     OW27832   1.941   2.463   1.426 -0.1850 -0.1409 -0.4189
 8978SOL    HW127833   2.021   2.488   1.480  1.0762  0.0069 -2.2903
 8978SOL    HW227834   1.896   2.545   1.392 -0.9910 -0.2338  0.3776
 8979SOL     OW27835   5.153   4.077   5.591 -0.4051  0.3567  0.2612
 8979SOL    HW127836   5.090   4.019   5.539 -1.8905  0.6364  1.6507
 8979SOL    HW227837   5.159   4.043   5.685 -0.4289  1.7741  0.7997
 8980SOL     OW27838   2.882   1.240   6.164  0.1994 -0.0556 -0.0216
 8980SOL    HW127839   2.945   1.221   6.239 -1.4194 -0.8447  1.2011
 8980SOL    HW227840   2.904   1.181   6.086  2.0601  0.9560 -0.3195
 8981SOL     OW27841   6.681   5.948   4.068  0.4832 -0.6627  0.3706
 8981SOL    HW127842   6.706   5.954   4.165  1.6852 -0.2648  0.0625
 8981SOL    HW227843   6.585   5.973   4.056  0.8192  1.2632  1.2441
 8982SOL     OW27844   5.931   0.585   2.503 -0.0349  0.7494 -0.1267
 8982SOL    HW127845   5.887   0.559   2.589  4.0640 -1.9164  1.4102
 8982SOL    HW227846   5.910   0.517   2.433 -0.3199  0.8704 -0.1628
 8983SOL     OW27847   6.910   1.450   5.163  0.0912  0.1229  0.8387
 8983SOL    HW127848   6.920   1.543   5.126 -1.1160  0.2072  0.7152
 8983SOL    HW227849   6.970   1.440   5.243  0.1982  1.0236  0.8814
 8984SOL     OW27850   1.584   1.961   4.686 -0.1361 -0.3127  0.2401
 8984SOL    HW127851   1.571   1.899   4.609 -1.4754  0.0054  0.1842
 8984SOL    HW227852   1.632   2.043   4.656 -2.6931  0.8838 -0.8642
 8985SOL     OW27853   6.123   3.525   3.890 -0.3361  0.8332  0.1010
 8985SOL    HW127854   6.103   3.537   3.987  0.4199 -1.5904  0.6063
 8985SOL    HW227855   6.214   3.486   3.879 -0.5090  0.8275 -1.5758
 8986SOL     OW27856   4.822   4.559   4.145 -0.1456  0.7722  0.4711
 8986SOL    HW127857   4.814   4.640   4.203  2.7979  2.0461 -0.6738
 8986SOL    HW227858   4.758   4.566   4.068 -0.9946  1.2275  1.2110
 8987SOL     OW27859   3.610   6.842   1.951 -0.0474  0.6033  0.1981
 8987SOL    HW127860   3.575   6.934   1.968  0.6949  0.7688  0.8952
 8987SOL    HW227861   3.553   6.797   1.883 -0.6806  1.4197  0.1714
 8988SOL     OW27862   6.583   6.003   6.716 -0.0691 -0.6337 -0.4127
 8988SOL    HW127863   6.488   6.008   6.747  0.4375  0.3407  1.1196
 8988SOL    HW227864   6.643   5.990   6.794  1.0250 -2.3943 -1.4740
 8989SOL     OW27865   1.048   6.433   0.911 -0.1311 -0.8293 -0.3137
 8989SOL    HW127866   0.957   6.424   0.870  0.1453  0.2495 -1.2034
 8989SOL    HW227867   1.039   6.452   1.009 -0.8235 -2.1349 -0.0920
 8990SOL     OW27868   1.235   6.351   6.232  0.4222 -0.1684 -0.0327
 8990SOL    HW127869   1.138   6.369   6.214  0.5108  0.0776 -0.2653
 8990SOL    HW227870   1.290   6.392   6.159  0.6126 -1.5921 -0.7119
 8991SOL     OW27871   6.902   0.124   3.965  1.0666 -0.6392 -0.2925
 8991SOL    HW127872   6.853   0.172   3.893 -0.5714 -1.0991  0.4518
 8991SOL    HW227873   6.919   0.029   3.937  1.2263 -0.5760 -0.4119
 8992SOL     OW27874   1.747   4.706   3.134 -0.2378 -0.5874  0.3035
 8992SOL    HW127875   1.706   4.694   3.225  0.7599  0.3227  0.9006
 8992SOL    HW227876   1.840   4.741   3.144  0.2746 -1.4590 -1.0528
 8993SOL     OW27877   2.761   0.830   4.144  0.6632  0.4108  0.1880
 8993SOL    HW127878   2.701   0.896   4.189 -0.5331 -0.5432  0.0475
 8993SOL    HW227879   2.787   0.759   4.209  0.4438  0.0368 -0.1281
 8994SOL     OW27880   1.292   0.199   0.116  0.5987 -0.8951  0.3497
 8994SOL    HW127881   1.341   0.211   0.029 -1.5713  0.3486 -0.7921
 8994SOL    HW227882   1.325   0.265   0.183  1.2627 -0.8664  0.0002
 8995SOL     OW27883   4.219   4.700   3.645  0.8022 -0.3210 -0.2782
 8995SOL    HW127884   4.206   4.701   3.744  0.0872 -1.7877 -0.3228
 8995SOL    HW227885   4.137   4.735   3.600  0.6016 -0.8874 -0.3657
 8996SOL     OW27886   3.903   0.869   6.053 -0.1271 -0.3791 -0.1639
 8996SOL    HW127887   4.001   0.861   6.034 -0.0419 -0.0648  0.1243
 8996SOL    HW227888   3.868   0.951   6.009  0.2566  0.8445  1.6767
 8997SOL     OW27889   1.605   5.226   0.744  0.8113 -0.6942 -1.2626
 8997SOL    HW127890   1.535   5.170   0.698  0.7720 -0.2675 -1.7284
 8997SOL    HW227891   1.645   5.290   0.678 -0.2657  0.9553 -0.3789
 8998SOL     OW27892   5.740   1.078   0.384 -0.1245  0.3464 -0.4116
 8998SOL    HW127893   5.695   1.127   0.458  0.4721  0.6374 -0.2338
 8998SOL    HW227894   5.839   1.086   0.394  0.0130 -1.2585 -0.1304
 8999SOL     OW27895   0.502   2.507   5.265  0.0497  0.1078 -0.2577
 8999SOL    HW127896   0.580   2.570   5.271  1.4941 -1.5490 -0.5066
 8999SOL    HW227897   0.439   2.539   5.194  1.1679  0.8308 -0.9728
 9000SOL     OW27898   1.354   4.331   1.390 -0.0161 -0.3537 -0.2898
 9000SOL    HW127899   1.425   4.401   1.400 -0.5688  0.7978 -3.3263
 9000SOL    HW227900   1.395   4.248   1.354  0.0609 -0.2644 -0.4112
 9001SOL     OW27901   0.521   4.220   1.425 -0.4463  0.3943  0.6983
 9001SOL    HW127902   0.441   4.280   1.426  0.5357  1.7429  0.5766
 9001SOL    HW227903   0.594   4.263   1.373  1.4593  0.6189  3.3660
 9002SOL     OW27904   5.816   0.276   5.696 -0.2449 -0.5050 -0.4371
 9002SOL    HW127905   5.876   0.303   5.620 -2.0168 -1.3283 -2.2363
 9002SOL    HW227906   5.721   0.292   5.670 -0.8996  2.2525  2.8915
 9003SOL     OW27907   0.071   6.926   6.781 -0.4514 -0.3120 -0.1133
 9003SOL    HW127908   0.038   6.896   6.871 -0.4559 -1.1529 -0.3900
 9003SOL    HW227909   0.111   6.848   6.732  0.5988  0.3771 -0.3837
 9004SOL     OW27910   2.551   5.473   1.539 -0.3114 -0.3603  0.4574
 9004SOL    HW127911   2.567   5.545   1.606  0.5398 -0.1075 -0.0023
 9004SOL    HW227912   2.638   5.430   1.515 -0.3546  0.5664 -1.6014
 9005SOL     OW27913   4.824   1.169   4.224 -0.2922 -0.3437  0.2394
 9005SOL    HW127914   4.845   1.265   4.204 -1.3758 -0.1775 -0.1395
 9005SOL    HW227915   4.833   1.153   4.323  0.7781 -0.0910  0.1961
 9006SOL     OW27916   5.463   4.439   5.620 -0.0520  0.0597  0.4756
 9006SOL    HW127917   5.473   4.342   5.599 -1.1567  0.1324 -0.4354
 9006SOL    HW227918   5.505   4.458   5.709 -0.4097 -1.3724  0.9700
 9007SOL     OW27919   1.645   4.602   0.677  0.3539  0.7153 -0.2676
 9007SOL    HW127920   1.602   4.671   0.619 -0.8019  0.6383  0.4626
 9007SOL    HW227921   1.646   4.635   0.772  1.2156  0.3793 -0.1534
 9008SOL     OW27922   6.693   3.232   1.026  0.1119 -0.3763  0.2527
 9008SOL    HW127923   6.701   3.239   1.125  1.5504 -4.2419  0.5820
 9008SOL    HW227924   6.783   3.216   0.986 -0.6017 -0.2005 -1.5515
 9009SOL     OW27925   5.007   1.549   4.992  0.5888 -0.3877 -0.1405
 9009SOL    HW127926   4.952   1.478   5.037 -1.2907  0.9187 -0.2258
 9009SOL    HW227927   5.047   1.610   5.062 -1.5147  1.0541 -0.0848
 9010SOL     OW27928   3.109   0.163   2.553 -0.5780 -0.2583 -0.3611
 9010SOL    HW127929   3.183   0.230   2.543  1.2209 -1.8906  1.3816
 9010SOL    HW227930   3.121   0.091   2.485 -0.4841 -0.6038  0.0233
 9011SOL     OW27931   5.209   3.924   4.422  0.2995 -0.1791 -1.0833
 9011SOL    HW127932   5.213   4.023   4.436 -3.0952 -0.2705  2.2061
 9011SOL    HW227933   5.162   3.905   4.336 -1.9914  1.2594 -0.2548
 9012SOL     OW27934   3.201   0.553   6.882 -0.2696  0.1480  0.1881
 9012SOL    HW127935   3.123   0.551   6.819  1.1892  2.0421 -1.8627
 9012SOL    HW227936   3.241   0.462   6.888 -1.5390 -0.4550 -0.1632
 9013SOL     OW27937   5.336   1.735   5.145  0.2241 -0.4479  0.2924
 9013SOL    HW127938   5.259   1.704   5.201 -0.1091 -1.4395 -0.6723
 9013SOL    HW227939   5.379   1.814   5.189 -0.7335 -0.4731  1.3431
 9014SOL     OW27940   4.149   4.736   4.292  0.1975 -0.6668 -0.3593
 9014SOL    HW127941   4.138   4.815   4.353  1.0336 -0.4585 -0.4671
 9014SOL    HW227942   4.184   4.658   4.344 -0.8993 -1.0696 -0.1929
 9015SOL     OW27943   6.665   2.843   6.980 -0.2074  0.3558  0.4829
 9015SOL    HW127944   6.587   2.868   6.923  1.1373  2.1849 -0.6375
 9015SOL    HW227945   6.738   2.805   6.923  0.3033  0.0765  1.3009
 9016SOL     OW27946   1.806   2.129   3.365 -0.0096 -0.4298 -0.4985
 9016SOL    HW127947   1.721   2.180   3.380  0.7870  1.3473 -1.6423
 9016SOL    HW227948   1.786   2.038   3.330 -1.4566 -0.5083  0.4617
 9017SOL     OW27949   4.054   1.846   2.047 -0.0135 -0.1691  0.0107
 9017SOL    HW127950   4.138   1.808   2.009 -0.1253 -1.1822  0.7439
 9017SOL    HW227951   4.076   1.904   2.126  0.2324  2.0548 -1.5820
 9018SOL     OW27952   1.157   5.770   6.251 -0.1903 -0.5944  0.4307
 9018SOL    HW127953   1.069   5.736   6.286 -1.4307 -0.0658 -1.9695
 9018SOL    HW227954   1.204   5.695   6.203  0.5896 -0.8123  1.5074
 9019SOL     OW27955   2.937   3.668   0.308 -0.2979 -0.3416 -0.1752
 9019SOL    HW127956   2.941   3.767   0.326 -0.1341 -0.5339  0.9180
 9019SOL    HW227957   3.021   3.639   0.265  0.6076 -0.3575  1.5050
 9020SOL     OW27958   0.079   2.937   5.019 -0.1689  0.0894  0.0534
 9020SOL    HW127959   0.058   2.962   4.925  0.9877 -1.3460 -0.6295
 9020SOL    HW227960   0.178   2.933   5.031 -0.2856 -1.8767  0.7008
 9021SOL     OW27961   0.853   6.142   4.933 -0.1680 -0.0370 -0.3470
 9021SOL    HW127962   0.842   6.130   4.834 -2.4044 -1.4111 -0.0100
 9021SOL    HW227963   0.803   6.069   4.981  0.7307  0.6921  1.8080
 9022SOL     OW27964   4.131   3.657   0.853 -0.5167 -0.1919  0.3202
 9022SOL    HW127965   4.182   3.727   0.803 -0.5296 -0.1079  0.4255
 9022SOL    HW227966   4.185   3.625   0.930 -0.9024  0.3991  0.8498
 9023SOL     OW27967   5.696   2.483   0.755 -0.5413 -0.1015 -0.0896
 9023SOL    HW127968   5.628   2.411   0.765 -1.2120  0.1078 -2.5369
 9023SOL    HW227969   5.650   2.571   0.741  0.2151  0.1328 -1.2002
 9024SOL     OW27970   2.195   5.369   5.057  0.2682  0.2384 -0.1764
 9024SOL    HW127971   2.105   5.341   5.090  0.3663  1.0714  0.8633
 9024SOL    HW227972   2.266   5.333   5.118  0.5170  1.0211  0.0102
 9025SOL     OW27973   3.423   4.292   6.683  0.3231  0.0874  0.0316
 9025SOL    HW127974   3.362   4.323   6.756 -0.0964  2.2420 -1.1614
 9025SOL    HW227975   3.370   4.235   6.618  0.0717  0.2873  0.0587
 9026SOL     OW27976   3.161   3.993   6.148  0.1805 -0.0545  0.0408
 9026SOL    HW127977   3.178   4.031   6.057 -0.7720  0.5714  0.1071
 9026SOL    HW227978   3.178   3.895   6.148  1.3074  0.1341 -0.5108
 9027SOL     OW27979   6.562   4.933   2.185 -0.2152  0.6212  0.2412
 9027SOL    HW127980   6.590   4.908   2.277 -0.9740  0.1290  0.3436
 9027SOL    HW227981   6.639   4.974   2.136  0.2251  0.7557  1.0442
 9028SOL     OW27982   3.616   0.697   4.545  0.9172  0.2805 -0.4388
 9028SOL    HW127983   3.545   0.731   4.483 -2.7041 -2.6087  1.7533
 9028SOL    HW227984   3.635   0.601   4.526  1.5368 -0.0026  1.3652
 9029SOL     OW27985   4.902   1.469   6.406 -0.1630 -0.1484 -0.2622
 9029SOL    HW127986   4.820   1.465   6.348 -0.5459  0.6258  0.1939
 9029SOL    HW227987   4.965   1.397   6.380 -0.3403  0.1482 -1.6155
 9030SOL     OW27988   2.683   0.623   1.621  0.0308  0.3993  0.2004
 9030SOL    HW127989   2.641   0.642   1.532 -0.5867  0.9934  0.6077
 9030SOL    HW227990   2.776   0.659   1.623  0.0146  0.4657 -0.1647
 9031SOL     OW27991   3.455   0.647   2.722 -0.4606  0.0626  0.0828
 9031SOL    HW127992   3.419   0.727   2.770  0.2238  0.2013  0.3670
 9031SOL    HW227993   3.468   0.572   2.786  0.0245  0.1038  0.0338
 9032SOL     OW27994   1.696   0.729   6.018 -0.7754  0.1143  0.5712
 9032SOL    HW127995   1.620   0.698   5.961 -1.0042 -3.9120  2.7257
 9032SOL    HW227996   1.661   0.765   6.104 -0.2552  0.3511  0.6885
 9033SOL     OW27997   0.830   3.583   5.165  0.7048  0.6693  0.3043
 9033SOL    HW127998   0.799   3.504   5.219  0.1825  0.4766 -0.2657
 9033SOL    HW227999   0.928   3.595   5.177  1.4259 -2.0058 -2.0247
 9034SOL     OW28000   5.186   3.829   0.749  0.4619  0.6638 -0.4878
 9034SOL    HW128001   5.093   3.837   0.713 -0.5928  1.5940  2.1478
 9034SOL    HW228002   5.241   3.907   0.719 -0.2831  1.2510 -0.3548
 9035SOL     OW28003   2.451   4.472   4.660 -0.1898  0.0571  0.0639
 9035SOL    HW128004   2.426   4.412   4.736 -1.6779 -0.4241 -0.7741
 9035SOL    HW228005   2.370   4.521   4.628 -0.1525 -1.5577 -2.7617
 9036SOL     OW28006   3.757   1.438   5.093 -0.3089  0.1613 -0.2152
 9036SOL    HW128007   3.841   1.475   5.052 -0.6253  1.5835  0.3637
 9036SOL    HW228008   3.763   1.446   5.193 -0.5684 -1.0281 -0.0825
 9037SOL     OW28009   0.737   1.541   5.532 -0.3808  0.1077  0.0965
 9037SOL    HW128010   0.670   1.593   5.479 -0.0117 -0.2798 -0.7688
 9037SOL    HW228011   0.827   1.585   5.524 -0.6788  1.2327  2.1044
 9038SOL     OW28012   4.780   4.634   0.605 -0.0973 -0.1989 -0.0351
 9038SOL    HW128013   4.738   4.597   0.688 -0.5777  2.0322  0.7926
 9038SOL    HW228014   4.717   4.700   0.563  1.7113  1.7306  0.1066
 9039SOL     OW28015   1.334   6.383   6.474  0.0169 -0.2640  0.2553
 9039SOL    HW128016   1.433   6.392   6.466 -0.0273  0.0057 -0.0290
 9039SOL    HW228017   1.294   6.372   6.383 -0.4308  2.0212  0.1106
 9040SOL     OW28018   6.180   6.022   2.775  0.4388  0.7049  0.5515
 9040SOL    HW128019   6.088   6.004   2.743  0.4871  0.4901  0.5328
 9040SOL    HW228020   6.196   5.974   2.862  0.5925  0.5936  0.4631
 9041SOL     OW28021   1.214   2.609   5.967  0.3283  0.3528 -0.2377
 9041SOL    HW128022   1.308   2.594   5.999  1.0341  0.4392 -2.1524
 9041SOL    HW228023   1.175   2.687   6.015  1.2706  0.3939  0.4993
 9042SOL     OW28024   0.005   3.684   6.874 -0.1039  0.1350  0.4883
 9042SOL    HW128025   0.051   3.606   6.917  1.1085  1.3628  1.5141
 9042SOL    HW228026  -0.088   3.691   6.910 -0.7091 -1.5545 -0.5773
 9043SOL     OW28027   0.041   4.887   3.548  0.3827  0.3797  0.5432
 9043SOL    HW128028  -0.016   4.806   3.562 -2.6071  1.6925 -2.7167
 9043SOL    HW228029   0.014   4.958   3.612 -1.8521  0.9881 -0.9644
 9044SOL     OW28030   5.411   6.716   4.113  0.2897  0.3442  0.7866
 9044SOL    HW128031   5.375   6.785   4.050 -0.6560  1.3000  2.3083
 9044SOL    HW228032   5.362   6.630   4.100  1.1175  0.0767 -0.7666
 9045SOL     OW28033   3.970   6.662   1.750  0.1211  0.3258 -0.3362
 9045SOL    HW128034   4.057   6.692   1.711  0.3536  2.0963  1.3932
 9045SOL    HW228035   3.935   6.733   1.812 -1.7547 -1.0410  0.2540
 9046SOL     OW28036   5.001   2.241   5.476 -0.1085 -0.2971  0.4127
 9046SOL    HW128037   5.086   2.270   5.431 -0.5527  3.4655  1.6159
 9046SOL    HW228038   4.937   2.207   5.407  0.6114  1.6045 -1.3095
 9047SOL     OW28039   4.028   3.753   3.558  0.0621  0.0363  0.1687
 9047SOL    HW128040   3.934   3.727   3.582 -0.0711  1.0905  0.8629
 9047SOL    HW228041   4.027   3.843   3.516  0.7851  0.1048  0.2993
 9048SOL     OW28042   2.151   6.206   5.822 -0.6331  0.2105 -0.6986
 9048SOL    HW128043   2.082   6.240   5.758 -2.6379 -1.5430  0.4016
 9048SOL    HW228044   2.188   6.282   5.875 -1.6508  1.2141 -1.3719
 9049SOL     OW28045   1.546   2.599   0.703  0.5985  0.0341  0.0597
 9049SOL    HW128046   1.483   2.649   0.763 -0.1961  0.7980 -1.3614
 9049SOL    HW228047   1.605   2.665   0.655 -0.0998 -0.3978 -1.4431
 9050SOL     OW28048   0.677   5.319   3.594  0.6164  0.4987 -1.1351
 9050SOL    HW128049   0.587   5.317   3.639  0.7891  0.6081 -0.7753
 9050SOL    HW228050   0.714   5.227   3.590  0.6637  0.5065 -0.9147
 9051SOL     OW28051   6.509   2.898   2.487 -0.1314 -0.0087 -0.2581
 9051SOL    HW128052   6.442   2.952   2.436  0.1816  2.0085  1.3567
 9051SOL    HW228053   6.496   2.912   2.585  1.6247 -0.8698  0.1395
 9052SOL     OW28054   3.961   0.690   2.606 -0.6381 -0.1707  0.0193
 9052SOL    HW128055   3.952   0.739   2.692  2.9327  0.9454 -0.0850
 9052SOL    HW228056   3.981   0.593   2.624 -0.0214  0.0356  0.4519
 9053SOL     OW28057   0.816   4.144   1.991  0.4005  0.0181  0.0683
 9053SOL    HW128058   0.902   4.114   1.949  0.1195 -1.7473  0.6418
 9053SOL    HW228059   0.757   4.064   2.005 -2.1663  1.3849 -2.0852
 9054SOL     OW28060   0.230   0.486   0.490 -0.3378 -0.2065  0.1895
 9054SOL    HW128061   0.259   0.405   0.542 -0.4897  0.1525  0.8527
 9054SOL    HW228062   0.286   0.494   0.408  0.6107 -0.2295  0.8112
 9055SOL     OW28063   4.685   6.387   1.941 -0.0406  0.6652 -0.0705
 9055SOL    HW128064   4.768   6.418   1.988  0.5562  0.7902 -1.1712
 9055SOL    HW228065   4.606   6.398   2.002  0.8244 -0.0833  1.2449
 9056SOL     OW28066   5.018   5.126   1.934 -0.0297  0.1459 -0.1833
 9056SOL    HW128067   5.064   5.038   1.925  0.2095  0.0935  1.3623
 9056SOL    HW228068   4.947   5.133   1.864 -0.6500 -1.6628  0.2085
 9057SOL     OW28069   1.309   3.194   0.042 -0.3274 -0.1590  0.8784
 9057SOL    HW128070   1.338   3.285   0.073  2.1317 -0.4802 -0.2255
 9057SOL    HW228071   1.376   3.126   0.071 -1.8576 -1.5762  1.2191
 9058SOL     OW28072   2.725   2.976   6.762 -0.8491  0.0911  0.6258
 9058SOL    HW128073   2.763   2.917   6.692 -0.6465 -0.3988  1.1450
 9058SOL    HW228074   2.632   3.004   6.735 -0.5122  0.4760 -0.1580
 9059SOL     OW28075   2.001   4.390   7.002  0.2743  0.2083 -0.2130
 9059SOL    HW128076   1.985   4.463   6.935 -0.4469 -0.0624 -0.3465
 9059SOL    HW228077   1.915   4.368   7.048  0.7914  0.5179  0.9422
 9060SOL     OW28078   5.776   0.497   2.732  0.0955  0.3682  0.3339
 9060SOL    HW128079   5.721   0.554   2.793 -0.4311  0.0774  0.1367
 9060SOL    HW228080   5.721   0.420   2.699  1.2562 -1.2820  1.9892
 9061SOL     OW28081   3.346   3.145   6.524  0.3482 -0.3166 -0.5135
 9061SOL    HW128082   3.293   3.133   6.608  0.9255  0.4021 -0.0371
 9061SOL    HW228083   3.332   3.066   6.465 -0.9541 -0.3256 -0.2359
 9062SOL     OW28084   1.341   6.811   5.417 -0.4247 -0.2642 -0.2624
 9062SOL    HW128085   1.390   6.886   5.371 -0.6993  0.1061  0.0359
 9062SOL    HW228086   1.405   6.738   5.439  0.1446  0.5124  0.7344
 9063SOL     OW28087   4.987   2.906   6.069 -0.1455 -0.1569 -0.0358
 9063SOL    HW128088   4.968   2.999   6.038 -1.1856 -0.7159 -1.1325
 9063SOL    HW228089   4.937   2.840   6.012 -0.7916 -1.3171  1.7735
 9064SOL     OW28090   3.049   1.536   2.629 -0.1488  0.3184  0.3330
 9064SOL    HW128091   2.980   1.473   2.664  0.9560  0.1268  2.3336
 9064SOL    HW228092   3.100   1.493   2.555 -0.6652 -0.4175  0.4019
 9065SOL     OW28093   2.860   4.476   6.601 -0.1365 -0.1117 -0.2689
 9065SOL    HW128094   2.761   4.465   6.595 -0.1644 -0.7020  0.9099
 9065SOL    HW228095   2.882   4.571   6.624 -0.4640 -0.1437  0.1821
 9066SOL     OW28096   2.436   4.231   1.171 -0.1306  0.6743  0.0202
 9066SOL    HW128097   2.381   4.315   1.174  0.5382  1.3213 -2.7983
 9066SOL    HW228098   2.379   4.155   1.140  0.0264  0.8479 -0.7067
 9067SOL     OW28099   1.276   1.204   3.910  0.4342 -0.1886  0.3997
 9067SOL    HW128100   1.281   1.114   3.954 -3.7995 -0.7526  0.1521
 9067SOL    HW228101   1.303   1.196   3.814  1.2320 -0.9430  0.6798
 9068SOL     OW28102   5.750   3.398   5.675 -0.2252 -0.5637 -0.0294
 9068SOL    HW128103   5.786   3.307   5.693 -0.4503 -0.8122 -0.8340
 9068SOL    HW228104   5.654   3.393   5.651 -0.0291 -0.2061 -0.9231
 9069SOL     OW28105   2.049   4.323   5.567  0.1135 -0.5528 -0.1370
 9069SOL    HW128106   2.114   4.392   5.534  0.2188 -0.2980  0.6005
 9069SOL    HW228107   2.058   4.240   5.512 -0.1138  0.0563 -1.1388
 9070SOL     OW28108   2.799   3.736   6.145 -0.3311 -0.2379  0.4352
 9070SOL    HW128109   2.884   3.709   6.099 -0.1709 -1.0084  1.1451
 9070SOL    HW228110   2.737   3.657   6.147 -0.0601 -0.4390  2.1201
 9071SOL     OW28111   3.524   5.110   6.259 -0.7271 -0.2950 -0.6009
 9071SOL    HW128112   3.589   5.053   6.310  1.5966  0.2908 -2.7170
 9071SOL    HW228113   3.488   5.181   6.320 -0.0427 -1.1369  0.8596
 9072SOL     OW28114   0.097   6.388   4.010  0.9009  0.5319  0.4083
 9072SOL    HW128115  -0.003   6.395   4.009  0.7931 -0.4802 -1.9225
 9072SOL    HW228116   0.136   6.480   4.017 -0.2000  1.0369  0.1509
 9073SOL     OW28117   6.298   3.590   1.777 -0.1606 -0.4964 -0.8751
 9073SOL    HW128118   6.287   3.655   1.702 -1.3029  0.1528 -0.1727
 9073SOL    HW228119   6.309   3.640   1.863  1.5768 -1.2219 -0.6330
 9074SOL     OW28120   5.277   0.174   0.883 -0.4353 -0.0299  0.1593
 9074SOL    HW128121   5.321   0.134   0.963 -0.3324 -2.8092 -1.1359
 9074SOL    HW228122   5.182   0.196   0.904 -0.3942 -0.6884  1.0832
 9075SOL     OW28123   6.980   5.686   2.979  0.1402 -0.3455 -0.2841
 9075SOL    HW128124   6.922   5.606   2.988 -2.8500  1.6556 -0.2804
 9075SOL    HW228125   7.022   5.688   2.888 -1.0405 -1.0938 -0.8548
 9076SOL     OW28126   2.658   5.870   6.304 -0.2412  0.6604 -0.8061
 9076SOL    HW128127   2.590   5.942   6.312 -0.9367 -0.1788  1.8613
 9076SOL    HW228128   2.629   5.805   6.234 -1.6112  0.9251 -0.5163
 9077SOL     OW28129   0.971   2.729   2.779 -0.2696 -0.5272  0.1500
 9077SOL    HW128130   0.957   2.717   2.877 -1.1986  1.6039  0.3324
 9077SOL    HW228131   0.926   2.655   2.730 -1.5466 -0.5298  1.2643
 9078SOL     OW28132   0.636   1.314   6.591  0.4027 -0.3691 -0.2275
 9078SOL    HW128133   0.583   1.285   6.670 -0.3105 -0.7994 -0.8513
 9078SOL    HW228134   0.581   1.375   6.534  0.7108 -0.4893 -0.6649
 9079SOL     OW28135   4.978   3.236   2.492  0.0093  0.4242  0.2110
 9079SOL    HW128136   5.038   3.247   2.572  0.8128 -0.1057 -0.3008
 9079SOL    HW228137   4.919   3.157   2.506  0.7363 -0.1818 -0.0561
 9080SOL     OW28138   6.388   6.611   6.847  0.3770  0.0903 -0.2257
 9080SOL    HW128139   6.390   6.615   6.747 -0.6586  0.5720 -0.2345
 9080SOL    HW228140   6.475   6.573   6.880  0.7101 -0.1272 -1.3023
 9081SOL     OW28141   4.869   0.968   1.738 -0.5465 -0.3796  0.4984
 9081SOL    HW128142   4.932   0.891   1.725 -0.6196 -0.9011  2.7905
 9081SOL    HW228143   4.779   0.944   1.704 -0.3149 -0.8971  0.2446
 9082SOL     OW28144   6.490   4.787   5.468 -0.2190 -0.8674  0.1321
 9082SOL    HW128145   6.476   4.745   5.379  0.8443 -0.1773 -0.3918
 9082SOL    HW228146   6.531   4.878   5.456  0.0149 -0.7931  1.3252
 9083SOL     OW28147   4.030   5.365   6.493 -0.6250 -0.0364  0.0349
 9083SOL    HW128148   3.939   5.326   6.481 -1.0525  1.0510 -0.3999
 9083SOL    HW228149   4.083   5.352   6.409  0.4657 -2.6819  1.0178
 9084SOL     OW28150   6.227   6.263   1.237  0.2316  0.1586 -0.6023
 9084SOL    HW128151   6.324   6.267   1.263 -0.0387 -0.8033  0.5931
 9084SOL    HW228152   6.171   6.304   1.309 -0.6182 -3.4638  1.0140
 9085SOL     OW28153   1.485   3.058   1.776  1.4775  0.5812  0.3951
 9085SOL    HW128154   1.464   2.994   1.849  0.6627  1.3969  0.9065
 9085SOL    HW228155   1.581   3.051   1.751  1.5380 -0.3733  0.8876
 9086SOL     OW28156   5.064   4.147   4.955 -0.1052 -0.5109  0.3743
 9086SOL    HW128157   5.049   4.155   4.856  1.1762 -4.9453 -0.3820
 9086SOL    HW228158   4.992   4.092   4.996 -0.6352  1.2938  2.0362
 9087SOL     OW28159   4.432   3.003   0.002  0.3288 -0.1739  0.4462
 9087SOL    HW128160   4.501   2.933  -0.020  0.5105  0.4583 -1.1300
 9087SOL    HW228161   4.468   3.064   0.073  2.2196  1.2270 -1.5696
 9088SOL     OW28162   4.525   4.970   4.888 -0.2156  0.7184 -0.1869
 9088SOL    HW128163   4.521   4.925   4.977 -2.4917 -0.7127 -0.9180
 9088SOL    HW228164   4.588   5.047   4.892  1.0227 -0.3089  2.1676
 9089SOL     OW28165   4.828   1.833   0.596 -0.4573 -0.3627  0.8780
 9089SOL    HW128166   4.915   1.806   0.555 -0.5728  0.4870  0.0479
 9089SOL    HW228167   4.775   1.887   0.531  0.0440  2.4465  2.5870
 9090SOL     OW28168   6.686   5.659   3.598  0.7887 -0.7073  0.0253
 9090SOL    HW128169   6.665   5.666   3.501 -0.6817  0.6412  0.3979
 9090SOL    HW228170   6.747   5.581   3.614  1.9016 -0.3330 -2.0863
 9091SOL     OW28171   0.617   2.962   2.577  0.2858  0.1494  0.1096
 9091SOL    HW128172   0.563   2.896   2.526  0.5575 -1.0243  1.2830
 9091SOL    HW228173   0.576   3.053   2.568 -1.8876 -0.6748  0.9124
 9092SOL     OW28174   3.409   3.678   4.534  0.3451 -0.0709  0.3887
 9092SOL    HW128175   3.327   3.623   4.551  2.0789 -3.0722 -0.2101
 9092SOL    HW228176   3.428   3.680   4.436  0.0143  2.2172  0.3243
 9093SOL     OW28177   3.211   0.078   0.277  0.7642  0.2441 -0.0558
 9093SOL    HW128178   3.249   0.008   0.338  0.2224 -0.9290 -1.0243
 9093SOL    HW228179   3.256   0.072   0.188 -0.6126 -0.1531 -0.7453
 9094SOL     OW28180   0.135   4.337   2.187  0.2441 -0.4836 -0.2078
 9094SOL    HW128181   0.068   4.305   2.121  0.8723 -0.9354 -0.6375
 9094SOL    HW228182   0.226   4.336   2.146  0.2269  2.8536 -0.6145
 9095SOL     OW28183   0.837   1.502   0.939  0.3399  0.8379  0.1046
 9095SOL    HW128184   0.853   1.446   0.858 -0.7505  1.0157 -0.2552
 9095SOL    HW228185   0.786   1.584   0.913  0.8162  1.3757  0.8248
 9096SOL     OW28186   2.050   4.345   2.635 -0.2567  0.7112  0.2803
 9096SOL    HW128187   2.137   4.315   2.673 -0.2894  0.1342 -0.0778
 9096SOL    HW228188   2.043   4.315   2.539 -1.1735  0.0414  0.5352
 9097SOL     OW28189   6.920   1.395   2.825  0.3267  0.3849 -0.0938
 9097SOL    HW128190   6.953   1.463   2.759 -0.6496  0.4294 -0.5504
 9097SOL    HW228191   6.826   1.369   2.802  1.1693 -2.3006 -0.9424
 9098SOL     OW28192   5.482   0.562   0.545 -0.6316  0.1552 -0.0006
 9098SOL    HW128193   5.573   0.537   0.512  0.9177  0.6659  3.4100
 9098SOL    HW228194   5.449   0.492   0.608 -1.0820  1.5273  1.3480
 9099SOL     OW28195   5.227   0.216   4.118 -0.7279  0.2898 -0.8993
 9099SOL    HW128196   5.225   0.294   4.180  2.0716 -1.6743  1.9468
 9099SOL    HW228197   5.316   0.210   4.073 -0.7742 -1.3415 -0.8551
 9100SOL     OW28198   3.071   5.580   1.858 -0.5298 -0.3398 -0.3261
 9100SOL    HW128199   3.162   5.564   1.819  0.2912  0.8837  0.9922
 9100SOL    HW228200   3.032   5.664   1.821 -0.0901  0.3952  0.8191
 9101SOL     OW28201   2.421   5.868   0.684 -0.0129  0.3408 -0.2204
 9101SOL    HW128202   2.419   5.795   0.616 -2.6225  0.4156 -0.3282
 9101SOL    HW228203   2.457   5.833   0.770  1.7450 -0.1941 -1.1329
 9102SOL     OW28204   5.974   1.123   5.409 -0.2256  0.2548  0.5445
 9102SOL    HW128205   6.025   1.114   5.495 -1.9158 -0.0480  1.5607
 9102SOL    HW228206   5.966   1.033   5.367 -0.4263  0.2081  0.6834
 9103SOL     OW28207   4.731   4.734   2.896 -0.3440  0.1442  0.0988
 9103SOL    HW128208   4.753   4.728   2.994 -2.3642 -0.6302  0.5604
 9103SOL    HW228209   4.669   4.811   2.881 -0.1637  0.1674 -0.5438
 9104SOL     OW28210   0.291   6.075   1.888 -0.3780  0.0493  0.7636
 9104SOL    HW128211   0.212   6.043   1.836 -0.5898  1.0187  0.4785
 9104SOL    HW228212   0.368   6.092   1.827 -0.0625 -0.5296  0.9940
 9105SOL     OW28213   4.525   0.976   6.696  0.1440  0.0817  0.0369
 9105SOL    HW128214   4.457   1.038   6.736  0.8359  0.1993  1.0837
 9105SOL    HW228215   4.479   0.911   6.635 -0.8483  0.4225  0.3940
 9106SOL     OW28216   1.993   6.366   3.760  0.2302  0.6489  0.6048
 9106SOL    HW128217   2.057   6.294   3.784  0.2884  0.4354 -0.1827
 9106SOL    HW228218   1.909   6.356   3.815  0.9017  1.0151  1.7442
 9107SOL     OW28219   0.204   3.799   4.464 -0.5171 -0.0337 -0.2595
 9107SOL    HW128220   0.149   3.881   4.479 -0.6139  0.3466 -2.3507
 9107SOL    HW228221   0.179   3.729   4.531 -2.7727  0.5199 -0.4494
 9108SOL     OW28222   3.747   0.158   6.410 -0.1720  0.4922  0.3166
 9108SOL    HW128223   3.697   0.225   6.356 -2.3550 -1.2305  0.0253
 9108SOL    HW228224   3.766   0.077   6.355  1.0983  0.2487  1.0576
 9109SOL     OW28225   0.909   0.143   7.009  0.8002 -0.0275  0.5404
 9109SOL    HW128226   0.980   0.074   7.023 -0.3451 -1.1471  1.0229
 9109SOL    HW228227   0.879   0.178   7.097  0.2537 -0.0877  0.3783
 9110SOL     OW28228   3.138   6.636   6.106 -0.6550  0.4978  0.2526
 9110SOL    HW128229   3.166   6.625   6.011 -1.6019  1.4932 -0.1655
 9110SOL    HW228230   3.129   6.546   6.149 -0.5333  0.0258 -0.6906
 9111SOL     OW28231   0.954   1.602   6.306 -0.2219  0.7102  0.4479
 9111SOL    HW128232   0.922   1.561   6.392  1.0089 -2.1287 -0.3129
 9111SOL    HW228233   1.046   1.639   6.320 -0.1635  0.5635  0.4634
 9112SOL     OW28234   5.207   5.438   6.973  0.1492  0.2320  0.5989
 9112SOL    HW128235   5.207   5.396   6.883  1.2797 -1.1569  1.2058
 9112SOL    HW228236   5.113   5.445   7.007 -0.0640 -2.8469  0.8984
 9113SOL     OW28237   1.638   5.696   2.648 -0.2506  0.3105  0.1253
 9113SOL    HW128238   1.620   5.786   2.687 -0.6911  0.1429  0.3175
 9113SOL    HW228239   1.737   5.680   2.644 -0.1759  0.7490  0.2070
 9114SOL     OW28240   4.341   5.025   3.999 -0.6157 -0.7321  0.3230
 9114SOL    HW128241   4.316   5.056   4.091 -0.5675 -1.5027  0.6015
 9114SOL    HW228242   4.441   5.026   3.990 -0.6344 -0.3043  0.1519
 9115SOL     OW28243   5.911   3.800   1.862 -0.0598  0.2436 -0.1641
 9115SOL    HW128244   5.959   3.780   1.947 -0.5033  0.0133  0.0399
 9115SOL    HW228245   5.966   3.770   1.784 -0.3941 -1.1845  0.1054
 9116SOL     OW28246   6.563   0.057   2.166 -0.1683  0.3189 -0.0824
 9116SOL    HW128247   6.614   0.011   2.093  0.0999  0.2568  0.1436
 9116SOL    HW228248   6.590   0.019   2.254  1.9774  2.6190  0.3681
 9117SOL     OW28249   1.992   2.728   2.072  0.0707  0.0802  0.2355
 9117SOL    HW128250   2.037   2.801   2.123 -0.2370 -1.6017  3.1304
 9117SOL    HW228251   2.038   2.641   2.089 -2.6744 -1.2999  1.3346
 9118SOL     OW28252   2.939   0.011   4.732 -0.2655  0.3036  0.3986
 9118SOL    HW128253   2.945  -0.057   4.659  0.7668  0.4553  0.3213
 9118SOL    HW228254   2.880   0.086   4.704  2.2037  1.7016 -1.4269
 9119SOL     OW28255   1.091   5.338   3.146 -0.1507  0.1194 -0.1292
 9119SOL    HW128256   1.133   5.310   3.060 -0.9586  0.3261 -0.6052
 9119SOL    HW228257   1.152   5.316   3.222  1.4068  1.6520 -0.8834
 9120SOL     OW28258   3.617   1.966   6.767  0.0405 -0.0364 -0.1240
 9120SOL    HW128259   3.648   2.035   6.702  1.5759  0.1835  0.7878
 9120SOL    HW228260   3.581   2.012   6.849  2.0244 -0.2502  0.9270
 9121SOL     OW28261   1.350   3.376   4.126  0.0492 -0.4273  0.0069
 9121SOL    HW128262   1.435   3.429   4.131 -0.6677  0.7226  0.2048
 9121SOL    HW228263   1.272   3.435   4.143 -0.7667 -1.6251  0.6141
 9122SOL     OW28264   6.611   2.747   3.125  0.3321  0.1518 -0.1783
 9122SOL    HW128265   6.650   2.763   3.216  2.1585 -1.5182 -0.5938
 9122SOL    HW228266   6.527   2.693   3.133  0.3312  0.2606  0.5455
 9123SOL     OW28267   4.890   6.798   5.794 -0.6272  0.6948  0.0207
 9123SOL    HW128268   4.882   6.704   5.759 -0.2174  0.9577 -0.8154
 9123SOL    HW228269   4.808   6.822   5.845 -1.1277  0.1829 -0.5244
 9124SOL     OW28270   5.541   3.531   4.143 -0.5340  0.4246 -0.0765
 9124SOL    HW128271   5.496   3.618   4.163  0.3480  0.7116  0.7698
 9124SOL    HW228272   5.613   3.515   4.211 -0.3372 -0.7163 -0.5341
 9125SOL     OW28273   5.443   1.830   4.583 -0.0812 -0.0857 -0.1779
 9125SOL    HW128274   5.423   1.758   4.649 -0.5282 -0.6216 -0.8942
 9125SOL    HW228275   5.372   1.833   4.514  0.5053  0.3144 -0.7753
 9126SOL     OW28276   5.874   6.532   6.720  0.1148  0.6969 -0.4533
 9126SOL    HW128277   5.780   6.498   6.730 -0.5671  1.7911 -2.4601
 9126SOL    HW228278   5.887   6.610   6.780 -0.4681  0.8845 -0.5579
 9127SOL     OW28279   3.513   3.667   6.793  0.4194  0.1936  0.7567
 9127SOL    HW128280   3.522   3.675   6.893  2.0943  0.5753  0.6057
 9127SOL    HW228281   3.448   3.736   6.760 -1.4352 -0.9999  1.7173
 9128SOL     OW28282   4.592   1.461   4.415 -0.3249  0.5582  0.7400
 9128SOL    HW128283   4.620   1.528   4.345 -0.0924  0.9565  1.2072
 9128SOL    HW228284   4.571   1.509   4.500 -0.9018  0.1004  0.8587
 9129SOL     OW28285   2.179   6.176   3.053 -0.4182 -0.0693 -0.3559
 9129SOL    HW128286   2.278   6.182   3.066 -0.2979 -0.1228 -1.1887
 9129SOL    HW228287   2.158   6.189   2.956 -1.3515  1.4557  0.0356
 9130SOL     OW28288   3.721   1.227   4.029  0.0509 -0.3616  0.4016
 9130SOL    HW128289   3.663   1.186   4.099  0.1519 -0.3719  0.4795
 9130SOL    HW228290   3.674   1.224   3.940  0.8751 -2.5406 -0.0191
 9131SOL     OW28291   3.752   6.936   1.276 -0.1478 -0.1132 -0.0718
 9131SOL    HW128292   3.694   6.950   1.356 -0.5948  0.5170 -0.4991
 9131SOL    HW228293   3.709   6.978   1.196  0.8646  0.2855 -0.4151
 9132SOL     OW28294   1.594   3.835   0.364  0.3659 -0.2801 -0.3215
 9132SOL    HW128295   1.497   3.822   0.388  0.1770 -0.0416 -0.9438
 9132SOL    HW228296   1.604   3.839   0.265  1.1169 -1.0545 -0.2919
 9133SOL     OW28297   3.661   6.247   4.799  0.1007  0.6084  0.6947
 9133SOL    HW128298   3.700   6.189   4.870 -0.6008 -1.8121 -0.8033
 9133SOL    HW228299   3.723   6.250   4.720  0.2952  2.2652  0.8612
 9134SOL     OW28300   0.641   5.524   0.791  0.0919 -0.1742 -0.1820
 9134SOL    HW128301   0.612   5.571   0.707 -0.7700 -0.6716 -0.1664
 9134SOL    HW228302   0.739   5.506   0.785  0.0890  0.0067 -0.9850
 9135SOL     OW28303   3.749   6.068   5.875  0.3033 -0.0313  0.2230
 9135SOL    HW128304   3.791   6.087   5.786  0.3252 -0.9925  0.0071
 9135SOL    HW228305   3.821   6.063   5.945  0.3969 -0.2457  0.1137
 9136SOL     OW28306   1.759   6.308   3.169 -0.1465 -0.0057  0.3095
 9136SOL    HW128307   1.785   6.244   3.097  0.3835 -1.0087  1.3651
 9136SOL    HW228308   1.668   6.346   3.149  0.8565  1.4090 -1.9868
 9137SOL     OW28309   0.582   1.058   1.972  0.3167 -0.3164 -0.0993
 9137SOL    HW128310   0.604   1.138   2.028  1.8440 -0.0757 -0.9673
 9137SOL    HW228311   0.499   1.075   1.920  0.4948  0.6246 -0.0954
 9138SOL     OW28312   0.863   1.290   5.636 -0.1035  0.1223 -0.5723
 9138SOL    HW128313   0.823   1.380   5.621  0.0578  0.4027  0.5738
 9138SOL    HW228314   0.911   1.260   5.554  0.7742  1.5665 -0.6167
 9139SOL     OW28315   1.381   0.385   2.216  0.2486 -0.0819  0.1292
 9139SOL    HW128316   1.459   0.441   2.187  0.0212 -1.1457 -2.9148
 9139SOL    HW228317   1.406   0.288   2.213 -0.7089 -0.3639  0.8035
 9140SOL     OW28318   3.295   0.788   2.179 -0.0141 -0.1629  0.1664
 9140SOL    HW128319   3.304   0.717   2.109 -0.2209 -1.3245  1.2853
 9140SOL    HW228320   3.287   0.746   2.269 -0.5039  1.2792  0.8360
 9141SOL     OW28321   5.087   2.499   2.760 -0.2566  0.0255 -0.0427
 9141SOL    HW128322   5.177   2.540   2.770 -0.1011 -0.5037  0.8403
 9141SOL    HW228323   5.041   2.538   2.681  2.6226 -3.0792 -3.6624
 9142SOL     OW28324   2.465   3.476   6.929  0.1366 -0.4626  0.2307
 9142SOL    HW128325   2.375   3.510   6.900  0.8791  1.3279 -0.0643
 9142SOL    HW228326   2.474   3.486   7.028 -0.0271 -0.7803  0.2807
 9143SOL     OW28327   6.264   6.827   3.468  0.1855  0.1586  0.0692
 9143SOL    HW128328   6.216   6.852   3.384  0.9641  0.1024 -0.3981
 9143SOL    HW228329   6.355   6.868   3.469 -0.6716  2.2407  2.0349
 9144SOL     OW28330   3.446   2.850   5.491  0.4277 -0.0419 -0.0529
 9144SOL    HW128331   3.457   2.804   5.403 -0.9799  0.4657 -0.5355
 9144SOL    HW228332   3.486   2.941   5.486  0.0281  0.1267 -0.3147
 9145SOL     OW28333   6.414   2.305   4.606  0.0170  0.2783 -0.0358
 9145SOL    HW128334   6.447   2.241   4.675  0.6027 -0.1131 -0.6638
 9145SOL    HW228335   6.420   2.262   4.516  0.1400  1.1184 -0.4341
 9146SOL     OW28336   4.686   6.653   3.485  0.0082 -0.0571 -0.2322
 9146SOL    HW128337   4.667   6.658   3.387 -1.4314  0.0838  0.0315
 9146SOL    HW228338   4.739   6.733   3.513  0.6237 -0.2159 -0.9343
 9147SOL     OW28339   3.030   5.396   4.567 -0.4745  0.2008 -0.0991
 9147SOL    HW128340   3.075   5.485   4.564 -0.8308  0.3725 -1.9494
 9147SOL    HW228341   2.995   5.374   4.475 -1.8121 -1.1143  0.6841
 9148SOL     OW28342   0.358   4.972   6.985  0.0202 -0.3063 -0.0428
 9148SOL    HW128343   0.353   4.911   6.906 -0.9821  0.7903 -0.8575
 9148SOL    HW228344   0.267   4.978   7.028 -0.4467  2.1149 -1.1882
 9149SOL     OW28345   4.402   6.523   1.492  0.0539  1.0834  0.1122
 9149SOL    HW128346   4.462   6.471   1.552  0.6052  0.3343 -1.0481
 9149SOL    HW228347   4.310   6.484   1.496  1.0398 -2.0912 -2.9534
 9150SOL     OW28348   4.428   1.969   0.395  0.8698 -0.0806  0.2662
 9150SOL    HW128349   4.400   2.004   0.485 -0.3381  0.4433 -0.2828
 9150SOL    HW228350   4.381   1.882   0.377 -2.0018  1.6322 -1.3809
 9151SOL     OW28351   2.207   2.680   1.891 -0.3294  0.9327 -0.2716
 9151SOL    HW128352   2.214   2.700   1.793 -1.8869  0.3953 -0.5229
 9151SOL    HW228353   2.138   2.740   1.931 -1.6849 -0.6935 -0.0878
 9152SOL     OW28354   6.875   1.824   3.451  0.5101  0.0772  0.0188
 9152SOL    HW128355   6.916   1.909   3.486  0.4222  0.0715  0.1340
 9152SOL    HW228356   6.875   1.827   3.351 -0.5432  0.7208  0.0201
 9153SOL     OW28357   6.535   3.120   3.775  0.0389 -0.0456 -0.0639
 9153SOL    HW128358   6.567   3.213   3.754  0.1028 -0.6836 -3.1873
 9153SOL    HW228359   6.612   3.066   3.809  0.2432  0.7169  0.7516
 9154SOL     OW28360   1.941   4.099   3.440 -0.0220  0.0341 -0.1079
 9154SOL    HW128361   1.865   4.130   3.384  1.8871  5.1867 -0.3586
 9154SOL    HW228362   1.992   4.028   3.391 -2.5048 -0.8934 -1.5003
 9155SOL     OW28363   6.840   5.953   5.101 -0.0840  0.1929  0.0716
 9155SOL    HW128364   6.918   6.012   5.079  1.5137 -1.6273  0.5132
 9155SOL    HW228365   6.840   5.934   5.200 -0.0443 -1.1895 -0.1780
 9156SOL     OW28366   1.992   4.849   3.157  0.0482 -0.1959 -0.5685
 9156SOL    HW128367   2.004   4.854   3.057  0.3846 -2.3731 -0.6900
 9156SOL    HW228368   2.081   4.838   3.201 -0.0937  0.8318 -0.0115
 9157SOL     OW28369   6.479   0.847   5.308 -0.2547 -0.0611 -0.0651
 9157SOL    HW128370   6.400   0.787   5.317 -0.3088  0.0624  0.3330
 9157SOL    HW228371   6.487   0.903   5.390  1.2241 -1.2438  0.6440
 9158SOL     OW28372   4.659   2.673   0.308 -0.2524  0.1682 -0.5826
 9158SOL    HW128373   4.563   2.649   0.321  0.2384 -1.5098  0.2648
 9158SOL    HW228374   4.681   2.754   0.362 -1.0296  0.1842 -0.2817
 9159SOL     OW28375   0.858   6.847   1.577 -0.0979  0.6320 -0.4867
 9159SOL    HW128376   0.828   6.915   1.644 -2.1465 -1.0578  0.4332
 9159SOL    HW228377   0.847   6.884   1.484 -2.3062  1.1987 -0.0624
 9160SOL     OW28378   5.006   6.066   3.071  0.3960 -0.3290 -0.1428
 9160SOL    HW128379   5.096   6.077   3.028  0.0216  0.0661 -0.8483
 9160SOL    HW228380   5.016   6.017   3.157  1.4851  1.0391  0.5545
 9161SOL     OW28381   2.333   5.451   1.347 -0.2708 -0.1530 -0.2608
 9161SOL    HW128382   2.392   5.491   1.278  0.5375 -0.9561 -0.0515
 9161SOL    HW228383   2.373   5.465   1.438 -0.2158 -0.9915 -0.1456
 9162SOL     OW28384   3.771   1.939   2.034 -0.1500  0.4795 -0.0632
 9162SOL    HW128385   3.862   1.933   1.994 -0.5299  2.3123 -1.3441
 9162SOL    HW228386   3.742   2.035   2.036 -1.4468  0.1039  1.7611
 9163SOL     OW28387   0.504   4.995   1.001 -0.5381 -0.2279  0.0136
 9163SOL    HW128388   0.593   5.022   0.966 -0.9179 -0.8715 -1.5350
 9163SOL    HW228389   0.432   5.044   0.952 -1.0718 -0.4243  0.5796
 9164SOL     OW28390   1.931   0.588   0.260  0.0739 -0.0482  0.1887
 9164SOL    HW128391   1.876   0.602   0.177 -1.6636 -0.0234  1.2994
 9164SOL    HW228392   1.959   0.676   0.297  0.5458 -0.0472 -0.1603
 9165SOL     OW28393   1.318   0.685   0.525 -0.0459 -0.4188  0.1113
 9165SOL    HW128394   1.395   0.748   0.536  0.5252 -1.0742 -0.0513
 9165SOL    HW228395   1.335   0.625   0.446 -0.1080 -1.4324  0.8445
 9166SOL     OW28396   6.636   4.893   3.764 -0.2654 -0.9361 -0.2950
 9166SOL    HW128397   6.628   4.985   3.802  3.8068 -0.3860 -0.2834
 9166SOL    HW228398   6.634   4.898   3.664 -4.5633 -1.5800 -0.4166
 9167SOL     OW28399   3.564   5.088   6.936  0.1535  0.4381  0.6141
 9167SOL    HW128400   3.605   4.998   6.952  0.1238  0.5026  1.0627
 9167SOL    HW228401   3.497   5.108   7.008 -0.0601  0.6902  0.3495
 9168SOL     OW28402   6.306   3.884   0.871  0.7711 -0.3998  0.3550
 9168SOL    HW128403   6.208   3.884   0.850  0.6181 -1.0672  1.0110
 9168SOL    HW228404   6.341   3.791   0.869  1.8492  0.0071 -1.7716
 9169SOL     OW28405   6.191   2.917   4.428  0.6861 -0.2448 -0.3670
 9169SOL    HW128406   6.154   2.982   4.362 -0.4402 -0.3358  0.1556
 9169SOL    HW228407   6.122   2.848   4.450  1.5702 -1.1186 -0.2573
 9170SOL     OW28408   0.242   3.086   2.793  0.0986 -0.4524  0.3616
 9170SOL    HW128409   0.212   3.176   2.827  0.5177 -0.8847  1.9800
 9170SOL    HW228410   0.295   3.098   2.710 -0.7192  0.7079 -0.0203
 9171SOL     OW28411   2.654   0.429   3.988 -0.2012  0.3735  0.2471
 9171SOL    HW128412   2.621   0.427   4.083 -1.8385  1.7456 -0.2439
 9171SOL    HW228413   2.588   0.477   3.931  0.7226 -0.4835 -1.6337
 9172SOL     OW28414   0.943   4.926   1.618  0.2236  0.2203 -0.8975
 9172SOL    HW128415   1.020   4.954   1.561 -0.6970 -0.6207 -2.6532
 9172SOL    HW228416   0.944   4.977   1.703  0.9885  2.4587 -2.1685
 9173SOL     OW28417   2.472   5.015   5.270  0.3242  0.5421  0.4119
 9173SOL    HW128418   2.515   5.038   5.358 -0.4421  1.0938  0.6558
 9173SOL    HW228419   2.385   4.969   5.287  1.1522 -1.2854 -0.0834
 9174SOL     OW28420   6.457   5.548   4.750 -0.7697  0.9356  0.0786
 9174SOL    HW128421   6.472   5.645   4.769  0.6699  0.5371  1.1579
 9174SOL    HW228422   6.422   5.502   4.832  0.8083  0.1215  0.3385
 9175SOL     OW28423   2.175   0.400   6.098 -0.3340 -0.1100 -0.6940
 9175SOL    HW128424   2.119   0.408   6.016 -0.8537 -0.3914 -0.3762
 9175SOL    HW228425   2.231   0.317   6.093 -1.0081 -0.5959 -0.3921
 9176SOL     OW28426   2.408   6.441   1.661 -0.2253  0.0874  0.1115
 9176SOL    HW128427   2.398   6.448   1.562 -2.1357 -0.7036  0.2079
 9176SOL    HW228428   2.320   6.462   1.705  0.6941  0.8547  1.6777
 9177SOL     OW28429   5.785   2.418   4.415 -0.5511  0.3500  0.0231
 9177SOL    HW128430   5.758   2.325   4.389 -1.0992  0.9994 -1.9142
 9177SOL    HW228431   5.883   2.431   4.399 -0.4532  0.0840  0.3972
 9178SOL     OW28432   0.902   5.090   2.637  0.3555  0.0159 -0.5483
 9178SOL    HW128433   0.979   5.031   2.659  0.2663 -0.0914 -0.5258
 9178SOL    HW228434   0.936   5.180   2.608  0.5291 -0.4186 -1.7295
 9179SOL     OW28435   6.816   5.055   3.374  0.4627 -0.1858  0.0314
 9179SOL    HW128436   6.895   5.116   3.381 -0.4139  1.2737 -1.9731
 9179SOL    HW228437   6.790   5.045   3.278 -1.8895 -0.4930  0.6427
 9180SOL     OW28438   5.029   5.461   1.725 -0.2421 -0.1792 -0.0344
 9180SOL    HW128439   5.061   5.431   1.815  0.6067 -0.5236 -0.4452
 9180SOL    HW228440   4.930   5.476   1.729 -0.1234  0.4286  1.1257
 9181SOL     OW28441   1.287   6.570   6.047  0.0443  0.4909  0.1853
 9181SOL    HW128442   1.358   6.580   5.977  0.4736  0.0194  0.5496
 9181SOL    HW228443   1.279   6.656   6.099 -1.0360  1.2317 -1.1281
 9182SOL     OW28444   0.605   3.644   6.804 -0.0401  0.7128  0.0896
 9182SOL    HW128445   0.654   3.562   6.833  0.0606  0.5036 -0.6598
 9182SOL    HW228446   0.507   3.629   6.813 -0.0875 -0.0173 -1.3662
 9183SOL     OW28447   6.123   2.883   5.864 -0.1829 -0.2088  0.1603
 9183SOL    HW128448   6.064   2.873   5.783  0.5656  0.6871 -0.5251
 9183SOL    HW228449   6.120   2.979   5.894 -0.3419 -0.5071  1.1263
 9184SOL     OW28450   5.462   5.625   6.914 -0.1114  0.4360  0.2223
 9184SOL    HW128451   5.397   5.583   6.850  1.4566  1.6538 -2.3286
 9184SOL    HW228452   5.528   5.556   6.943 -0.5987 -0.0413  0.2179
 9185SOL     OW28453   3.151   5.515   1.404 -0.6039 -0.1271 -0.3704
 9185SOL    HW128454   3.103   5.598   1.433 -0.6586 -0.2256 -0.1782
 9185SOL    HW228455   3.119   5.437   1.458  0.5076 -0.0172  0.4629
 9186SOL     OW28456   5.312   3.672   4.547 -0.2669 -0.0967 -0.4971
 9186SOL    HW128457   5.312   3.758   4.497 -1.4104  0.0454 -0.2790
 9186SOL    HW228458   5.404   3.653   4.581  0.1699  0.6132 -1.2602
 9187SOL     OW28459   1.163   0.192   2.321 -0.1588 -0.5322  0.3757
 9187SOL    HW128460   1.255   0.156   2.305 -0.1323 -1.3364  2.1689
 9187SOL    HW228461   1.169   0.279   2.369 -0.3289 -0.6398  0.5941
 9188SOL     OW28462   2.920   3.174   6.783 -0.5788  0.4352 -0.2430
 9188SOL    HW128463   2.895   3.237   6.709 -0.3252 -0.2203 -0.9044
 9188SOL    HW228464   2.853   3.100   6.787 -0.7976  0.6710  0.4355
 9189SOL     OW28465   0.369   5.475   4.110 -0.1565  0.0500  0.4810
 9189SOL    HW128466   0.356   5.386   4.067 -2.6540  0.7491 -0.3527
 9189SOL    HW228467   0.434   5.528   4.057  0.1582 -0.7015  0.0978
 9190SOL     OW28468   5.947   4.059   6.211  0.3303 -0.8957 -0.0210
 9190SOL    HW128469   5.956   4.115   6.294  0.7859  0.5588 -1.0017
 9190SOL    HW228470   5.862   4.006   6.216 -0.9319  1.0541  0.3059
 9191SOL     OW28471   5.974   5.752   0.354  0.9973  0.1898 -0.1679
 9191SOL    HW128472   5.902   5.702   0.304  1.5876 -1.1341  0.2442
 9191SOL    HW228473   5.933   5.826   0.407  0.0337 -0.0396 -0.5756
 9192SOL     OW28474   1.891   1.304   3.239  0.4363  0.6137  0.0188
 9192SOL    HW128475   1.794   1.316   3.215  0.7777 -0.5324 -2.2077
 9192SOL    HW228476   1.944   1.380   3.203  0.4783  0.8147  0.5015
 9193SOL     OW28477   6.536   6.941   0.169  0.0104 -0.3191  0.0095
 9193SOL    HW128478   6.595   6.974   0.095  0.1073  0.1623  0.2994
 9193SOL    HW228479   6.592   6.909   0.245 -0.0972  0.3156  0.3623
 9194SOL     OW28480   3.461   0.100   1.156 -0.3856 -0.3578  0.8669
 9194SOL    HW128481   3.412   0.185   1.139  0.6288 -0.1484 -1.2497
 9194SOL    HW228482   3.557   0.110   1.129 -0.9261 -3.1007 -2.7862
 9195SOL     OW28483   4.303   1.133   4.233  0.2900  0.3863 -0.4484
 9195SOL    HW128484   4.390   1.121   4.185  1.6320 -0.8318  2.0891
 9195SOL    HW228485   4.281   1.049   4.283 -2.3866  0.6743 -1.0169
 9196SOL     OW28486   5.667   6.427   0.171 -0.0837 -0.4961 -0.2268
 9196SOL    HW128487   5.706   6.472   0.252 -0.2930  0.4755 -0.6563
 9196SOL    HW228488   5.579   6.468   0.149 -0.3052 -1.1627 -0.5971
 9197SOL     OW28489   5.188   2.986   1.841  0.1460  0.0878  0.3744
 9197SOL    HW128490   5.167   3.027   1.752  0.3145 -2.4139 -0.9031
 9197SOL    HW228491   5.263   3.036   1.885  3.2596 -1.2060 -2.9937
 9198SOL     OW28492   3.301   0.296   1.494  0.2865 -0.0021  0.4210
 9198SOL    HW128493   3.383   0.351   1.479  0.5292 -0.4251  0.1544
 9198SOL    HW228494   3.233   0.319   1.425  1.0426 -1.2612 -0.7967
 9199SOL     OW28495   1.464   3.381   6.334  0.9171 -0.0263 -0.1118
 9199SOL    HW128496   1.562   3.367   6.346  1.4385  2.5021 -0.8236
 9199SOL    HW228497   1.419   3.379   6.424  1.5933 -1.1850  0.2224
 9200SOL     OW28498   3.225   5.257   1.718 -0.1399 -0.0669  0.1792
 9200SOL    HW128499   3.316   5.259   1.675  0.2284  3.6777  0.8330
 9200SOL    HW228500   3.236   5.244   1.817 -0.3968 -0.3606  0.1707
 9201SOL     OW28501   2.367   6.781   4.066 -0.1130  0.0452 -0.0965
 9201SOL    HW128502   2.317   6.789   4.152  1.7079 -0.9755  1.1390
 9201SOL    HW228503   2.443   6.846   4.067  1.0560 -1.2697 -0.0510
 9202SOL     OW28504   2.842   1.978   3.434 -0.3582  0.3350 -0.3160
 9202SOL    HW128505   2.901   1.927   3.496 -0.5014 -0.7315 -1.0314
 9202SOL    HW228506   2.884   2.066   3.413  0.0628  0.3781  0.6635
 9203SOL     OW28507   4.923   1.271   6.951 -0.5306  0.0110  0.0962
 9203SOL    HW128508   4.827   1.252   6.935 -0.5309 -0.0784  0.2023
 9203SOL    HW228509   4.978   1.229   6.879 -0.5643 -0.0038  0.0793
 9204SOL     OW28510   0.183   6.213   2.910  0.3129 -0.2796  0.0386
 9204SOL    HW128511   0.222   6.131   2.952 -0.0605 -0.4711  0.0147
 9204SOL    HW228512   0.215   6.294   2.960  0.3542 -0.4667  0.3185
 9205SOL     OW28513   3.259   6.966   1.804  0.2048 -0.2534 -0.1582
 9205SOL    HW128514   3.241   7.058   1.841 -1.1246 -0.5387 -0.0750
 9205SOL    HW228515   3.343   6.930   1.846  1.2145  1.2435 -0.8057
 9206SOL     OW28516   2.166   6.117   4.676 -0.7143 -0.2803  0.0862
 9206SOL    HW128517   2.167   6.017   4.671  1.2991 -0.2406 -1.3755
 9206SOL    HW228518   2.195   6.145   4.768  0.5422 -1.0567 -0.0429
 9207SOL     OW28519   6.762   1.320   4.532 -0.0000  0.2246 -0.0389
 9207SOL    HW128520   6.695   1.391   4.556  1.0619  1.1765  0.2100
 9207SOL    HW228521   6.714   1.234   4.514 -1.2361  0.7293  0.6849
 9208SOL     OW28522   2.303   4.973   2.786  0.2222 -0.2380  0.4907
 9208SOL    HW128523   2.278   5.032   2.709 -0.1116  0.9927  1.5119
 9208SOL    HW228524   2.394   4.998   2.819 -0.2700  0.3256  1.4760
 9209SOL     OW28525   6.084   4.283   6.099  0.4969 -0.0956 -1.0286
 9209SOL    HW128526   6.002   4.241   6.138  0.5800  0.7121  0.0414
 9209SOL    HW228527   6.065   4.313   6.005 -0.8882  1.3619 -0.3230
 9210SOL     OW28528   5.677   6.454   5.455  0.1570 -0.6026 -0.0051
 9210SOL    HW128529   5.594   6.503   5.480  0.7263 -0.1762  1.1357
 9210SOL    HW228530   5.700   6.389   5.527  1.6303  0.3644  0.4436
 9211SOL     OW28531   0.693   6.145   5.186 -0.7366  0.4797  0.2222
 9211SOL    HW128532   0.741   6.070   5.232  1.5532  2.4077  1.2179
 9211SOL    HW228533   0.595   6.128   5.186 -0.4542 -1.5287  2.2205
 9212SOL     OW28534   0.117   5.598   4.119  0.1998  0.5065  0.0284
 9212SOL    HW128535   0.136   5.694   4.100 -0.4573  0.4928 -0.7387
 9212SOL    HW228536   0.203   5.547   4.122  0.5688  1.1503  0.6778
 9213SOL     OW28537   0.405   2.256   4.427  0.3391  0.5395 -0.1201
 9213SOL    HW128538   0.339   2.181   4.418  0.3368  0.4498  0.5426
 9213SOL    HW228539   0.392   2.321   4.353 -0.1682  0.2698 -0.2752
 9214SOL     OW28540   3.874   0.841   4.900  0.2747  0.6461  0.0682
 9214SOL    HW128541   3.924   0.778   4.841 -1.4152 -0.7284 -0.0054
 9214SOL    HW228542   3.904   0.934   4.883  1.8121  0.0113 -0.9048
 9215SOL     OW28543   2.687   6.959   0.994  0.0648  0.3802 -0.5515
 9215SOL    HW128544   2.615   6.969   1.062 -0.3574  0.7698 -1.0534
 9215SOL    HW228545   2.661   7.007   0.910 -0.7910 -2.4895 -2.0641
 9216SOL     OW28546   1.452   4.752   3.985 -0.1132  0.2631  0.0155
 9216SOL    HW128547   1.464   4.820   4.057 -1.1233  0.8106 -0.3091
 9216SOL    HW228548   1.481   4.663   4.018 -0.2101  0.5741  0.9673
 9217SOL     OW28549   1.147   1.196   0.340  0.2257  0.6805 -0.1007
 9217SOL    HW128550   1.124   1.190   0.243 -0.1488  0.4586  0.0004
 9217SOL    HW228551   1.204   1.276   0.356  1.2699  0.0706 -0.6951
 9218SOL     OW28552   4.632   4.712   4.732  0.2306  0.6097 -0.2961
 9218SOL    HW128553   4.721   4.682   4.697 -0.2203 -0.1750 -0.8067
 9218SOL    HW228554   4.624   4.811   4.722  1.1019  0.6979 -0.1219
 9219SOL     OW28555   2.471   3.437   1.638 -0.0870  0.1912  0.3014
 9219SOL    HW128556   2.484   3.528   1.600  1.0810  0.8108  2.0189
 9219SOL    HW228557   2.406   3.442   1.714  1.1382 -0.0385  1.4213
 9220SOL     OW28558   0.880   0.760   0.894 -0.3772  0.2661 -0.5238
 9220SOL    HW128559   0.938   0.827   0.940 -0.7928  0.2950 -0.0289
 9220SOL    HW228560   0.937   0.697   0.841  0.2399 -0.5463  1.0358
 9221SOL     OW28561   5.015   6.237   2.447 -0.1954  0.7661  0.3840
 9221SOL    HW128562   4.976   6.289   2.371  1.3379  0.6373 -0.5408
 9221SOL    HW228563   4.964   6.152   2.460  0.8365 -0.3141 -2.0329
 9222SOL     OW28564   4.217   1.747   3.282  0.5898  0.7240 -0.0106
 9222SOL    HW128565   4.159   1.682   3.234 -0.4588 -0.2912  2.4661
 9222SOL    HW228566   4.250   1.816   3.217 -1.2467 -0.1516 -2.0151
 9223SOL     OW28567   5.220   4.331   6.337 -0.2709 -0.1068  0.6473
 9223SOL    HW128568   5.266   4.419   6.325 -0.4656 -0.2080 -1.1047
 9223SOL    HW228569   5.288   4.258   6.346  0.0626 -0.3475 -2.5743
 9224SOL     OW28570   3.886   5.536   5.235 -0.9466 -0.0238 -0.3704
 9224SOL    HW128571   3.883   5.490   5.324  0.3878  0.5088 -0.0273
 9224SOL    HW228572   3.856   5.631   5.245  0.8228  0.5548 -0.1000
 9225SOL     OW28573   3.243   3.834   4.056 -0.2698  1.0370 -0.2223
 9225SOL    HW128574   3.189   3.859   4.136  0.7989  1.1092  0.4969
 9225SOL    HW228575   3.205   3.879   3.974 -0.6810  1.9066  0.4276
 9226SOL     OW28576   2.897   0.633   4.333  0.4231 -0.1940  0.1768
 9226SOL    HW128577   2.828   0.571   4.372  0.4972  0.0124  0.6405
 9226SOL    HW228578   2.977   0.635   4.394  1.3927 -1.4503 -0.9974
 9227SOL     OW28579   2.342   1.886   4.562  0.0536 -0.0173 -0.3078
 9227SOL    HW128580   2.436   1.904   4.592  0.1782  0.5699 -1.0222
 9227SOL    HW228581   2.297   1.973   4.542 -0.2148 -0.3627 -1.2554
 9228SOL     OW28582   3.915   1.303   1.821 -0.1179 -0.5166 -0.1852
 9228SOL    HW128583   3.893   1.260   1.908 -1.2259 -3.8735 -1.9501
 9228SOL    HW228584   3.842   1.368   1.797 -1.6325 -2.0867 -0.0788
 9229SOL     OW28585   4.518   1.403   2.251 -0.9997 -0.5134  0.4460
 9229SOL    HW128586   4.571   1.451   2.322 -1.2387  0.0658  0.2419
 9229SOL    HW228587   4.565   1.411   2.163 -0.9544 -0.8056  0.4432
 9230SOL     OW28588   5.943   4.869   1.619 -0.4285  0.3995  0.5249
 9230SOL    HW128589   5.864   4.927   1.598 -1.4614 -0.4991  1.7583
 9230SOL    HW228590   5.914   4.773   1.617  0.2425  0.1168  2.4724
 9231SOL     OW28591   6.301   6.844   4.878 -0.3210  0.1702 -0.0465
 9231SOL    HW128592   6.291   6.753   4.837 -1.7106  1.7636 -3.6635
 9231SOL    HW228593   6.398   6.861   4.896  0.1573 -1.4431 -0.8297
 9232SOL     OW28594   4.645   2.280   1.543  0.0360  0.4487  0.3379
 9232SOL    HW128595   4.552   2.246   1.559 -0.5859  1.4764 -0.9229
 9232SOL    HW228596   4.661   2.360   1.600 -1.0002  2.1248 -1.5991
 9233SOL     OW28597   6.335   3.373   1.963 -0.3941  0.5867 -0.0546
 9233SOL    HW128598   6.292   3.389   2.052  1.5826  0.5396  0.9554
 9233SOL    HW228599   6.316   3.450   1.902 -1.8767  0.5640  0.3361
 9234SOL     OW28600   5.556   3.576   0.020  0.3280 -0.1142 -0.0843
 9234SOL    HW128601   5.624   3.504   0.004  0.1528 -0.1656 -0.6336
 9234SOL    HW228602   5.497   3.583  -0.061  0.6503  0.9886 -0.2330
 9235SOL     OW28603   1.827   2.906   6.509 -0.1561 -0.0478  0.3612
 9235SOL    HW128604   1.746   2.964   6.504 -0.1220 -0.1018 -1.1570
 9235SOL    HW228605   1.904   2.953   6.467  0.5178 -0.1769  1.4017
 9236SOL     OW28606   4.514   6.212   5.937 -0.3131 -0.1793 -0.1410
 9236SOL    HW128607   4.445   6.269   5.893  0.3225 -0.2653 -1.2860
 9236SOL    HW228608   4.470   6.153   6.004 -0.9328  2.0865  1.6119
 9237SOL     OW28609   6.563   4.912   2.822  0.5601 -0.0154  0.8430
 9237SOL    HW128610   6.621   4.974   2.770  1.7006 -2.0524 -0.4354
 9237SOL    HW228611   6.594   4.909   2.917  0.8217  0.9634  0.7920
 9238SOL     OW28612   2.215   1.977   5.265 -0.0124 -0.2713 -0.1051
 9238SOL    HW128613   2.202   1.914   5.188 -0.6727  0.2004 -0.3878
 9238SOL    HW228614   2.137   1.970   5.327  0.3645 -0.4137  0.3629
 9239SOL     OW28615   2.195   4.564   3.445 -0.1531 -0.4357  0.1533
 9239SOL    HW128616   2.257   4.515   3.384 -1.2459  0.5500 -1.8453
 9239SOL    HW228617   2.110   4.513   3.455  0.9407 -1.8955  3.0646
 9240SOL     OW28618   0.792   0.360   4.727  0.2765 -0.5648  0.2994
 9240SOL    HW128619   0.802   0.453   4.693  0.2976 -0.7446 -0.1991
 9240SOL    HW228620   0.876   0.331   4.772 -0.0171 -0.0540  1.1921
 9241SOL     OW28621   1.189   3.988   2.534 -0.1294  0.8642  0.3907
 9241SOL    HW128622   1.092   3.996   2.510  0.6498  1.2973 -3.1767
 9241SOL    HW228623   1.201   3.911   2.597 -2.5151 -0.8195 -1.0344
 9242SOL     OW28624   1.278   4.996   1.706  0.3775 -0.0207  0.1714
 9242SOL    HW128625   1.253   4.912   1.659 -1.0282 -0.1817  1.1478
 9242SOL    HW228626   1.338   5.051   1.648 -0.5623 -0.6352 -1.4166
 9243SOL     OW28627   4.888   0.917   0.215  0.2169  0.1349  0.2450
 9243SOL    HW128628   4.800   0.900   0.259  0.7966 -0.9406  1.0613
 9243SOL    HW228629   4.962   0.891   0.278  1.0896 -0.5830 -1.0245
 9244SOL     OW28630   3.230   5.936   3.705 -0.1064  0.0530 -0.3012
 9244SOL    HW128631   3.170   5.944   3.784  0.7351  0.3164  0.3189
 9244SOL    HW228632   3.241   5.840   3.681 -1.4694  0.0287 -0.9845
 9245SOL     OW28633   0.056   2.363   4.753  0.1384 -0.1703  0.3984
 9245SOL    HW128634   0.094   2.453   4.733 -0.8077  0.3774  0.9843
 9245SOL    HW228635  -0.044   2.367   4.747 -0.0886 -0.5448  2.8023
 9246SOL     OW28636   3.991   5.011   5.861 -0.7017 -0.1348 -0.5844
 9246SOL    HW128637   3.985   4.943   5.934  3.5767  0.5703  0.6822
 9246SOL    HW228638   4.060   4.983   5.794  0.3069  2.2844 -0.6643
 9247SOL     OW28639   4.075   1.376   0.010  0.3633 -0.2174  0.0434
 9247SOL    HW128640   4.013   1.417   0.077  0.9182  1.4201 -0.3975
 9247SOL    HW228641   4.167   1.373   0.049  0.3644 -0.8678 -0.0114
 9248SOL     OW28642   5.371   1.400   6.992  0.0843  0.3293 -0.4109
 9248SOL    HW128643   5.464   1.435   6.980  0.3446 -0.5290 -1.0101
 9248SOL    HW228644   5.305   1.474   6.978  0.6652  0.9431 -0.0037
 9249SOL     OW28645   0.110   4.432   3.674 -0.1868  0.6040  0.1979
 9249SOL    HW128646   0.090   4.370   3.598  2.8241  0.6372 -0.7337
 9249SOL    HW228647   0.105   4.381   3.760  0.2691 -0.4500 -0.3829
 9250SOL     OW28648   0.322   2.665   1.523 -0.1654  0.1131  0.3111
 9250SOL    HW128649   0.290   2.623   1.438 -0.1083 -0.7825  0.7243
 9250SOL    HW228650   0.289   2.612   1.601  0.5589  0.3898  0.8133
 9251SOL     OW28651   1.013   3.041   0.718  0.2188 -0.3034  0.1747
 9251SOL    HW128652   0.958   3.021   0.638 -0.5153  0.9955  0.3192
 9251SOL    HW228653   1.098   2.988   0.715  1.0429  0.9928 -2.3715
 9252SOL     OW28654   0.031   4.570   1.758 -0.0358 -0.3030  0.3712
 9252SOL    HW128655   0.013   4.615   1.845 -0.2124 -1.5015  0.9670
 9252SOL    HW228656  -0.025   4.612   1.686 -1.4991 -0.7127  1.2457
 9253SOL     OW28657   5.679   2.920   3.113 -0.1624  0.2363  0.1292
 9253SOL    HW128658   5.681   2.911   3.213 -0.4120 -0.1091  0.1070
 9253SOL    HW228659   5.630   2.842   3.074  0.9091 -0.2277 -0.3346
 9254SOL     OW28660   4.857   6.182   0.394 -0.1948 -0.2404 -0.2058
 9254SOL    HW128661   4.761   6.153   0.386 -0.7122  1.6266 -1.3136
 9254SOL    HW228662   4.906   6.156   0.311 -0.1209  0.1024 -0.2701
 9255SOL     OW28663   2.103   4.935   4.097  0.0784  0.3233  0.0612
 9255SOL    HW128664   2.079   4.886   4.013 -2.3074  1.5951 -0.1090
 9255SOL    HW228665   2.127   4.870   4.169 -2.7836 -1.1668 -0.1948
 9256SOL     OW28666   4.415   4.522   1.813  0.3747 -0.1176  0.4285
 9256SOL    HW128667   4.504   4.559   1.788 -0.0607  0.3741 -0.4259
 9256SOL    HW228668   4.424   4.426   1.837  0.9684 -0.3596 -0.7057
 9257SOL     OW28669   5.365   2.602   0.893 -0.5030 -0.0755  0.0792
 9257SOL    HW128670   5.338   2.541   0.819  0.9895  2.3288 -2.6389
 9257SOL    HW228671   5.287   2.658   0.920 -0.2927  1.4325 -2.2166
 9258SOL     OW28672   0.889   6.315   2.084 -0.4124 -0.4750  0.4280
 9258SOL    HW128673   0.988   6.324   2.069 -0.3804 -1.5615 -0.0519
 9258SOL    HW228674   0.847   6.272   2.004 -1.6100  1.8376 -0.2815
 9259SOL     OW28675   0.711   0.207   1.429 -0.1478 -0.2569  0.4200
 9259SOL    HW128676   0.636   0.273   1.435 -0.7693 -0.4291 -3.3149
 9259SOL    HW228677   0.773   0.221   1.507 -2.1630  2.2050  1.7635
 9260SOL     OW28678   5.145   1.674   3.835 -0.0120 -0.2695 -0.6350
 9260SOL    HW128679   5.195   1.672   3.749  0.5154 -0.0115 -0.3390
 9260SOL    HW228680   5.150   1.766   3.875 -1.8443  0.1456 -1.2421
 9261SOL     OW28681   1.408   6.940   5.014 -0.3457  0.2501 -0.2463
 9261SOL    HW128682   1.315   6.903   5.022 -0.0170 -0.3083  1.2874
 9261SOL    HW228683   1.404   7.037   4.991 -1.3048  0.2052 -0.2995
 9262SOL     OW28684   4.159   4.245   5.633  0.8532 -0.2807  0.0170
 9262SOL    HW128685   4.094   4.217   5.563  1.1402 -1.0617  0.0573
 9262SOL    HW228686   4.215   4.167   5.660  1.2790  0.1992  0.5484
 9263SOL     OW28687   2.217   4.844   3.320  0.0048  0.5655 -0.6771
 9263SOL    HW128688   2.258   4.918   3.374  0.3556  0.4734 -0.8142
 9263SOL    HW228689   2.203   4.764   3.378 -1.5137  1.1283 -0.2189
 9264SOL     OW28690   4.059   4.484   1.472  0.1207 -0.8760 -0.5995
 9264SOL    HW128691   3.964   4.456   1.482 -0.0295  0.0479  0.8391
 9264SOL    HW228692   4.106   4.475   1.560  0.9456  0.1391 -0.9215
 9265SOL     OW28693   0.237   4.409   1.141  0.1419 -0.5696  0.1491
 9265SOL    HW128694   0.209   4.486   1.198  0.5832  0.8843 -1.5114
 9265SOL    HW228695   0.159   4.378   1.087  0.7455  1.1437 -1.8395
 9266SOL     OW28696   0.893   4.827   4.883  0.5998 -0.0445  0.0755
 9266SOL    HW128697   0.821   4.811   4.951  2.4298 -2.0073  1.6843
 9266SOL    HW228698   0.882   4.763   4.807  1.4757 -1.4764  1.0976
 9267SOL     OW28699   4.075   0.879   1.840 -0.6590 -0.4484 -0.2927
 9267SOL    HW128700   4.077   0.788   1.881 -0.7975 -0.4229 -0.2286
 9267SOL    HW228701   4.027   0.874   1.752 -1.1985 -0.3225 -0.0053
 9268SOL     OW28702   3.745   4.874   5.322  0.2157 -0.3571 -0.0674
 9268SOL    HW128703   3.686   4.831   5.254 -0.5383 -0.7563  0.8186
 9268SOL    HW228704   3.693   4.943   5.373  0.6471 -0.3673  0.3958
 9269SOL     OW28705   0.944   4.089   2.743  0.2353 -0.8247 -0.2025
 9269SOL    HW128706   1.001   4.007   2.752 -0.7348 -1.5652 -0.6749
 9269SOL    HW228707   0.928   4.108   2.647 -1.8687 -1.7482 -0.0829
 9270SOL     OW28708   4.122   5.956   3.215 -0.0026 -0.7408 -0.5828
 9270SOL    HW128709   4.092   5.985   3.125 -1.7436 -1.6635 -0.3540
 9270SOL    HW228710   4.183   5.876   3.206 -0.5251 -1.1041 -0.9314
 9271SOL     OW28711   2.628   6.525   1.432  0.5654  0.4670 -0.1773
 9271SOL    HW128712   2.637   6.434   1.392  1.0453  0.0725  0.7979
 9271SOL    HW228713   2.689   6.533   1.511 -1.3942  0.7137  1.3901
 9272SOL     OW28714   0.737   4.566   6.190  0.2515 -0.3062  0.7863
 9272SOL    HW128715   0.700   4.645   6.239  0.4409  0.0132  0.4127
 9272SOL    HW228716   0.784   4.596   6.108  1.4045 -0.6949  1.2793
 9273SOL     OW28717   5.940   3.422   3.287  0.3102 -0.1018 -0.5958
 9273SOL    HW128718   5.844   3.449   3.286  0.6570  1.1778 -0.8777
 9273SOL    HW228719   5.994   3.488   3.234  1.2971 -0.9902 -0.7314
 9274SOL     OW28720   0.081   2.104   6.920 -0.0966  0.2208 -0.1872
 9274SOL    HW128721   0.167   2.064   6.949  0.2690  0.8123 -0.4428
 9274SOL    HW228722   0.097   2.194   6.880 -0.9737  0.9791  1.0710
 9275SOL     OW28723   4.287   0.001   2.227  0.2597 -0.0892  0.0245
 9275SOL    HW128724   4.195  -0.038   2.220 -0.6228  1.9206 -0.3187
 9275SOL    HW228725   4.328  -0.026   2.314 -0.0889 -2.1233 -0.4025
 9276SOL     OW28726   4.509   2.964   6.176 -0.5405 -0.6978  0.3225
 9276SOL    HW128727   4.600   2.935   6.207 -0.4433 -1.3770 -0.5689
 9276SOL    HW228728   4.495   2.935   6.081 -0.6324  1.7921 -0.4881
 9277SOL     OW28729   5.997   0.489   0.733  0.3877  0.1598 -0.1509
 9277SOL    HW128730   5.998   0.555   0.808 -0.0022 -0.4572  0.4049
 9277SOL    HW228731   5.905   0.486   0.693  0.4565  0.0974 -0.3036
 9278SOL     OW28732   5.900   1.262   3.751 -0.0786 -0.1331  0.0766
 9278SOL    HW128733   5.822   1.209   3.718 -0.0110 -0.4690  0.4447
 9278SOL    HW228734   5.867   1.338   3.808 -0.0836 -2.1530  2.9877
 9279SOL     OW28735   3.656   1.422   6.565  0.4929 -0.0889 -0.3882
 9279SOL    HW128736   3.619   1.417   6.472  0.9133 -0.4811 -0.5377
 9279SOL    HW228737   3.753   1.447   6.560  0.0002  2.1093  0.0493
 9280SOL     OW28738   1.590   3.215   2.135  0.0801 -0.0518  0.0034
 9280SOL    HW128739   1.507   3.255   2.098 -1.1865 -2.8010 -0.3676
 9280SOL    HW228740   1.665   3.227   2.069  0.0460  2.4343  0.3402
 9281SOL     OW28741   2.788   6.143   1.174  0.0834  0.2093  0.6252
 9281SOL    HW128742   2.813   6.047   1.156 -0.9724 -0.3029  1.7828
 9281SOL    HW228743   2.807   6.164   1.269  1.6817  1.6243  0.0420
 9282SOL     OW28744   4.508   6.507   2.360  0.3723  0.4942 -0.1653
 9282SOL    HW128745   4.441   6.508   2.433  1.7376 -0.7358  1.1801
 9282SOL    HW228746   4.527   6.601   2.331 -0.6328  0.9603  0.6295
 9283SOL     OW28747   1.824   5.856   2.340  0.1484 -0.5576 -0.2362
 9283SOL    HW128748   1.886   5.908   2.282  0.5631  2.1771  2.4162
 9283SOL    HW228749   1.733   5.898   2.337  0.1377 -0.4681  0.9121
 9284SOL     OW28750   5.670   6.148   0.583  0.2258  0.1730 -0.0327
 9284SOL    HW128751   5.574   6.147   0.556  0.1069  0.5701  0.3494
 9284SOL    HW228752   5.692   6.238   0.622  0.2756 -0.4717  1.5230
 9285SOL     OW28753   6.772   2.502   6.615 -0.3550  0.5559 -0.2360
 9285SOL    HW128754   6.684   2.505   6.568 -0.9371  1.2893  0.8648
 9285SOL    HW228755   6.842   2.542   6.556 -0.9817  1.0726 -0.6460
 9286SOL     OW28756   2.862   4.519   1.551  0.0053 -0.2233 -0.0736
 9286SOL    HW128757   2.885   4.517   1.648 -0.0409  1.1215 -0.0118
 9286SOL    HW228758   2.778   4.467   1.535  0.6564 -1.4554  0.3968
 9287SOL     OW28759   1.574   1.969   6.325  0.5533  0.1926  0.3145
 9287SOL    HW128760   1.493   1.966   6.266  1.4804  0.3185 -1.0006
 9287SOL    HW228761   1.577   1.886   6.382 -0.3181  0.0381  0.1521
 9288SOL     OW28762   0.434   3.720   0.208 -0.1034  0.0346  0.4294
 9288SOL    HW128763   0.465   3.805   0.165  1.0965 -0.4704  0.2473
 9288SOL    HW228764   0.359   3.740   0.271 -0.9321  0.9938 -0.7973
 9289SOL     OW28765   1.316   0.798   1.405 -0.2265  0.0587  0.1428
 9289SOL    HW128766   1.379   0.843   1.342  1.9050 -2.6356  0.1889
 9289SOL    HW228767   1.224   0.835   1.391  0.9496  2.7886 -1.2620
 9290SOL     OW28768   2.520   1.550   4.073 -0.2975 -0.3837  0.2616
 9290SOL    HW128769   2.502   1.508   4.162 -0.8561  0.2952  0.4795
 9290SOL    HW228770   2.455   1.624   4.057  1.9793  1.8561  0.8299
 9291SOL     OW28771   1.409   4.039   1.373 -0.8915 -0.1129  0.2005
 9291SOL    HW128772   1.309   4.037   1.368 -0.9232  1.3103 -0.2524
 9291SOL    HW228773   1.447   4.026   1.281 -0.6881  0.2088  0.2392
 9292SOL     OW28774   2.888   4.797   6.140  0.4665  0.1362 -0.6428
 9292SOL    HW128775   2.968   4.813   6.198  1.0487 -1.7019 -0.8762
 9292SOL    HW228776   2.915   4.742   6.061 -1.2577 -1.6491 -0.0525
 9293SOL     OW28777   2.583   2.221   1.773 -0.4613  0.0982  0.0754
 9293SOL    HW128778   2.568   2.276   1.855 -0.5441 -0.8286  0.7084
 9293SOL    HW228779   2.643   2.144   1.796 -0.9446 -0.4917 -0.5886
 9294SOL     OW28780   1.937   5.277   1.071 -0.4406 -0.6991 -0.1424
 9294SOL    HW128781   1.839   5.263   1.058 -0.5752  0.0158  0.0249
 9294SOL    HW228782   1.953   5.370   1.104  0.4500 -0.1500 -1.9896
 9295SOL     OW28783   2.072   1.869   1.114  0.0802 -0.5497  0.3394
 9295SOL    HW128784   2.015   1.939   1.156  0.0639  0.9666 -1.9809
 9295SOL    HW228785   2.166   1.877   1.146 -0.1903 -0.3344  1.0769
 9296SOL     OW28786   4.194   2.355   6.907  0.3061  0.2811  0.3075
 9296SOL    HW128787   4.119   2.403   6.862 -0.1749  1.6043  2.3961
 9296SOL    HW228788   4.193   2.259   6.879 -1.2429  0.5935 -0.8361
 9297SOL     OW28789   0.507   3.748   2.819 -0.5514 -0.2007 -0.9120
 9297SOL    HW128790   0.592   3.790   2.851 -2.4439  2.1594  1.4957
 9297SOL    HW228791   0.490   3.665   2.872 -0.4467  0.1292 -0.3458
 9298SOL     OW28792   0.356   2.229   6.352 -0.4299  0.0179  0.3235
 9298SOL    HW128793   0.381   2.148   6.298  1.6279  0.9424 -0.2252
 9298SOL    HW228794   0.270   2.212   6.400  0.3065 -2.7660  0.8327
 9299SOL     OW28795   4.869   6.105   6.174 -0.7606 -0.1297  0.0262
 9299SOL    HW128796   4.870   6.076   6.270 -0.2674 -2.7203 -0.6715
 9299SOL    HW228797   4.962   6.128   6.145 -0.7668 -0.1954 -0.0468
 9300SOL     OW28798   4.407   1.508   3.847 -0.1419  0.1643  0.3491
 9300SOL    HW128799   4.321   1.556   3.831 -1.8905 -1.9198  2.5829
 9300SOL    HW228800   4.410   1.425   3.792  0.1634 -0.0777  0.7235
 9301SOL     OW28801   3.006   0.686   6.197  0.0970 -0.1289  0.0194
 9301SOL    HW128802   3.063   0.720   6.123  2.5204 -3.2484  0.2223
 9301SOL    HW228803   2.918   0.657   6.161  0.8246 -0.5693 -1.4750
 9302SOL     OW28804   6.936   1.655   0.874  0.1976  0.1370 -0.1063
 9302SOL    HW128805   7.002   1.584   0.898 -0.1656 -0.1710 -0.0111
 9302SOL    HW228806   6.887   1.684   0.956  0.8895  1.0609 -0.0079
 9303SOL     OW28807   6.437   4.300   0.837  0.0021 -0.2117  0.1200
 9303SOL    HW128808   6.470   4.230   0.774  0.8463 -0.3015  0.6577
 9303SOL    HW228809   6.446   4.390   0.794  1.1031 -0.2184  0.3115
 9304SOL     OW28810   1.786   2.740   3.154  0.4406 -0.4181 -0.1507
 9304SOL    HW128811   1.870   2.773   3.111  1.4918 -1.3581  1.0915
 9304SOL    HW228812   1.735   2.816   3.193  2.0339 -0.0413  1.3175
 9305SOL     OW28813   3.554   1.676   0.851  0.2710 -0.1843 -0.1404
 9305SOL    HW128814   3.632   1.737   0.836 -0.6801  1.2272  0.4627
 9305SOL    HW228815   3.549   1.610   0.776  1.2186  0.5984 -0.9208
 9306SOL     OW28816   3.977   3.410   6.886  0.0272  0.2419 -0.4454
 9306SOL    HW128817   3.921   3.435   6.966 -1.2016 -0.1663 -1.1525
 9306SOL    HW228818   3.988   3.310   6.884  0.3085  0.2775 -0.6191
 9307SOL     OW28819   3.771   6.233   0.185  0.2543 -0.6220  0.3208
 9307SOL    HW128820   3.703   6.286   0.236  0.5757  0.4575 -0.3501
 9307SOL    HW228821   3.734   6.210   0.095  0.8242  0.1226 -0.1139
 9308SOL     OW28822   3.147   0.654   0.159  0.4504 -0.2335 -0.1488
 9308SOL    HW128823   3.210   0.714   0.111 -0.8784  1.5241  0.1953
 9308SOL    HW228824   3.136   0.569   0.108  1.6388  0.2044 -1.1647
 9309SOL     OW28825   4.781   4.195   0.100  0.0520 -0.1284 -0.2234
 9309SOL    HW128826   4.699   4.162   0.147  0.2763  0.2316  0.4276
 9309SOL    HW228827   4.761   4.205   0.002 -1.2793  1.8031  0.1813
 9310SOL     OW28828   4.488   0.830   5.650 -0.6034  0.1783  0.3437
 9310SOL    HW128829   4.490   0.912   5.593 -0.4037 -0.2352 -0.2494
 9310SOL    HW228830   4.538   0.848   5.735  0.7789  0.1886 -0.4414
 9311SOL     OW28831   4.870   6.330   3.020 -0.3346 -0.0695 -0.3886
 9311SOL    HW128832   4.925   6.249   3.037 -1.2430 -0.3005  1.8160
 9311SOL    HW228833   4.878   6.393   3.098 -2.5260  0.2151 -0.3126
 9312SOL     OW28834   6.625   5.795   1.322  0.0810  0.8195  0.4032
 9312SOL    HW128835   6.614   5.853   1.242  2.4685  1.7111  0.6310
 9312SOL    HW228836   6.581   5.706   1.306 -2.0891  2.0121 -0.6463
 9313SOL     OW28837   0.182   3.336   6.001 -0.6022 -0.0509  0.3924
 9313SOL    HW128838   0.247   3.324   5.927 -0.0073 -0.9829  1.0480
 9313SOL    HW228839   0.108   3.396   5.971 -0.2094 -0.1613 -0.8411
 9314SOL     OW28840   2.056   5.000   0.480  0.3363  0.2123  0.0792
 9314SOL    HW128841   1.966   4.965   0.505  0.5889 -1.1693 -0.8329
 9314SOL    HW228842   2.117   4.924   0.460  2.2248  1.0238  2.2248
 9315SOL     OW28843   5.693   3.642   6.295  0.3996  0.2494 -0.0845
 9315SOL    HW128844   5.627   3.715   6.311 -0.8067 -1.0183  0.9689
 9315SOL    HW228845   5.725   3.645   6.200 -0.2669  1.6086 -0.2796
 9316SOL     OW28846   2.847   2.882   6.552 -0.2498 -0.4926  0.2979
 9316SOL    HW128847   2.871   2.878   6.455 -0.2389  0.7588  0.2255
 9316SOL    HW228848   2.929   2.872   6.608 -0.0288  0.2639  0.1281
 9317SOL     OW28849   5.495   3.833   6.270  0.1550 -0.5290  0.1614
 9317SOL    HW128850   5.420   3.843   6.205  1.2174 -0.7323 -1.1367
 9317SOL    HW228851   5.461   3.847   6.363 -1.6381 -1.3893 -0.3228
 9318SOL     OW28852   6.979   4.448   1.013  0.4097 -0.2667 -0.2401
 9318SOL    HW128853   6.880   4.457   1.022  0.3401 -1.5269  0.6334
 9318SOL    HW228854   7.019   4.535   0.984 -0.9960  0.1153 -1.0860
 9319SOL     OW28855   3.199   0.242   1.764 -0.4029  0.2259  0.2311
 9319SOL    HW128856   3.217   0.286   1.676  0.0101 -0.9864 -0.3115
 9319SOL    HW228857   3.134   0.297   1.816 -1.8345  0.2189 -1.4655
 9320SOL     OW28858   3.188   6.123   2.162 -0.2014 -0.5600  0.7271
 9320SOL    HW128859   3.162   6.045   2.219  1.5019 -1.3647  0.4954
 9320SOL    HW228860   3.149   6.207   2.199 -2.1422 -1.5066  0.9492
 9321SOL     OW28861   0.335   6.097   2.676 -0.0863  0.1841  0.5628
 9321SOL    HW128862   0.281   6.024   2.634  0.7482 -0.1117 -0.0286
 9321SOL    HW228863   0.279   6.144   2.744 -1.2338  0.1788 -0.3344
 9322SOL     OW28864   2.197   3.046   6.895  0.0893  0.1364  0.0077
 9322SOL    HW128865   2.130   3.029   6.822 -0.6363  0.3898  0.6046
 9322SOL    HW228866   2.289   3.048   6.855 -0.2685  0.0051 -0.8605
 9323SOL     OW28867   1.885   4.214   6.410 -0.0957 -0.3179 -0.1253
 9323SOL    HW128868   1.962   4.177   6.462 -0.3214 -0.0525  0.4000
 9323SOL    HW228869   1.882   4.314   6.422 -0.9276 -0.3990  0.4031
 9324SOL     OW28870   0.697   4.111   5.574  0.4722 -0.4166 -0.0895
 9324SOL    HW128871   0.795   4.096   5.565  0.8206 -0.9881  3.2484
 9324SOL    HW228872   0.677   4.209   5.571  0.9216 -0.3329 -1.8268
 9325SOL     OW28873   3.991   1.938   1.774 -0.0275  0.0621 -0.0944
 9325SOL    HW128874   4.034   1.881   1.844  0.3426 -0.5378 -0.8019
 9325SOL    HW228875   3.976   1.884   1.692  0.2063  0.9527 -0.7343
 9326SOL     OW28876   0.587   5.345   4.879  0.1457  0.2264  0.0964
 9326SOL    HW128877   0.532   5.273   4.836  0.3180 -0.5083  1.0842
 9326SOL    HW228878   0.535   5.430   4.880 -0.6167 -0.2359  0.2037
 9327SOL     OW28879   0.476   6.188   4.887  0.0971  0.2421  0.8971
 9327SOL    HW128880   0.414   6.143   4.951  0.5301 -0.7254  0.6427
 9327SOL    HW228881   0.494   6.129   4.809  0.2008  1.0969  0.2496
 9328SOL     OW28882   1.789   3.237   6.774  0.4076 -0.6242 -0.4551
 9328SOL    HW128883   1.823   3.143   6.768  1.6332 -0.1109 -3.1356
 9328SOL    HW228884   1.866   3.298   6.791 -0.2279  0.0033  0.1968
 9329SOL     OW28885   1.214   3.778   1.036  0.8702  0.1392  0.2131
 9329SOL    HW128886   1.255   3.693   1.069 -0.2660 -0.8131 -0.7589
 9329SOL    HW228887   1.274   3.821   0.969  0.8238 -0.6452 -0.3416
 9330SOL     OW28888   3.828   2.729   6.723  0.4551  0.1260  0.4899
 9330SOL    HW128889   3.768   2.765   6.795 -0.4314  2.8989 -1.4655
 9330SOL    HW228890   3.913   2.781   6.721  0.2315  0.4645 -0.8084
 9331SOL     OW28891   0.907   4.498   2.725 -0.4461 -0.1525  0.2581
 9331SOL    HW128892   0.858   4.433   2.667 -1.4697 -0.8284  1.7926
 9331SOL    HW228893   0.980   4.542   2.673  1.3919 -3.7159 -0.4731
 9332SOL     OW28894   5.751   4.894   6.763  0.1619  0.2963  0.1245
 9332SOL    HW128895   5.702   4.976   6.732  1.6437  1.3230  0.3798
 9332SOL    HW228896   5.707   4.858   6.845 -0.1463  1.2356  0.3907
 9333SOL     OW28897   0.545   1.209   4.132  0.0312  0.3119 -0.0786
 9333SOL    HW128898   0.452   1.210   4.169  0.4120 -0.0784  0.9222
 9333SOL    HW228899   0.563   1.119   4.091  0.6503 -0.3302  1.5559
 9334SOL     OW28900   2.504   4.431   0.927 -0.5591  0.2493  0.3315
 9334SOL    HW128901   2.560   4.481   0.861  0.3744  0.0563  0.9475
 9334SOL    HW228902   2.564   4.384   0.992 -1.4169 -1.2385  0.0952
 9335SOL     OW28903   0.362   2.271   2.951  0.1256 -0.1477 -0.2133
 9335SOL    HW128904   0.352   2.258   3.050 -1.7791 -1.8458 -0.5646
 9335SOL    HW228905   0.358   2.369   2.930 -0.8577  0.1687  1.2642
 9336SOL     OW28906   6.092   3.484   2.462 -0.2798  0.2999 -0.5508
 9336SOL    HW128907   6.171   3.474   2.524  0.8845 -0.0203 -2.0200
 9336SOL    HW228908   6.008   3.460   2.511  0.7980 -1.9225  0.3666
 9337SOL     OW28909   3.973   0.796   5.178 -0.4638 -0.2954  0.2382
 9337SOL    HW128910   3.963   0.793   5.079 -2.6437 -2.6763  0.4323
 9337SOL    HW228911   3.921   0.873   5.215 -0.6697 -0.1408 -0.3625
 9338SOL     OW28912   5.840   2.819   0.838  0.4482  0.3293 -0.3819
 9338SOL    HW128913   5.762   2.769   0.802  0.2166  0.2971  0.1584
 9338SOL    HW228914   5.808   2.888   0.904  0.5366  2.5373 -2.4901
 9339SOL     OW28915   4.461   3.918   1.156  0.5629  0.2326 -0.4604
 9339SOL    HW128916   4.518   3.845   1.119  0.8972 -1.2615  2.6410
 9339SOL    HW228917   4.501   3.950   1.242 -1.0899  2.1146 -0.3268
 9340SOL     OW28918   4.277   0.441   6.493  0.0772 -0.7215 -0.3063
 9340SOL    HW128919   4.293   0.342   6.499  1.4372 -0.4941  0.2150
 9340SOL    HW228920   4.195   0.464   6.545 -0.3780 -1.5954 -0.6108
 9341SOL     OW28921   1.847   2.240   6.912  0.1144 -0.5560 -0.6683
 9341SOL    HW128922   1.882   2.281   6.996 -1.4166  2.6919 -1.4517
 9341SOL    HW228923   1.920   2.237   6.844  0.5477 -0.0692 -0.2415
 9342SOL     OW28924   2.193   1.780   1.868 -0.5536 -0.1276  0.4335
 9342SOL    HW128925   2.108   1.749   1.825 -0.3029 -0.8567  0.4533
 9342SOL    HW228926   2.213   1.724   1.948 -0.2117  0.2416  0.6159
 9343SOL     OW28927   5.149   4.835   4.238  1.2854 -0.0300  0.7438
 9343SOL    HW128928   5.192   4.845   4.148 -0.7252 -0.8826 -0.3987
 9343SOL    HW228929   5.194   4.895   4.303  3.5695 -0.2424 -0.5311
 9344SOL     OW28930   3.483   4.766   6.403  0.1967  0.1858  0.0461
 9344SOL    HW128931   3.532   4.730   6.483 -3.0263 -2.2115  1.1408
 9344SOL    HW228932   3.524   4.729   6.320 -0.4688 -2.9137  0.9697
 9345SOL     OW28933   6.126   4.764   3.508 -0.4262 -0.0021  1.0194
 9345SOL    HW128934   6.222   4.772   3.535 -0.3792 -0.9809  1.1918
 9345SOL    HW228935   6.118   4.770   3.409 -0.4483  2.2875  1.1100
 9346SOL     OW28936   3.923   4.587   5.365  0.4877  0.0411  0.0100
 9346SOL    HW128937   3.851   4.656   5.376 -0.1103 -0.4580 -0.6783
 9346SOL    HW228938   3.990   4.598   5.438  0.0679  0.9424  0.2854
 9347SOL     OW28939   4.940   2.638   0.261  0.5819 -0.0253 -0.0875
 9347SOL    HW128940   4.850   2.682   0.256  1.2064  1.3826  0.7902
 9347SOL    HW228941   4.928   2.540   0.278 -0.8507 -0.4020 -2.7568
 9348SOL     OW28942   3.558   2.011   3.786 -0.1854 -0.0834  0.3204
 9348SOL    HW128943   3.511   2.057   3.861 -0.1323 -0.6014  0.6718
 9348SOL    HW228944   3.643   2.061   3.765 -0.4647  0.3659  0.2463
 9349SOL     OW28945   1.011   5.648   3.173 -0.1082 -0.6763  0.6680
 9349SOL    HW128946   0.922   5.654   3.217  0.2114 -2.0983  1.5805
 9349SOL    HW228947   1.042   5.553   3.174 -0.6770 -1.1400 -3.9124
 9350SOL     OW28948   1.583   1.671   5.011  0.1778 -0.3696  0.7144
 9350SOL    HW128949   1.666   1.725   5.027  1.1138 -0.6002 -2.6802
 9350SOL    HW228950   1.503   1.730   5.019  1.0355  1.0606 -0.7323
 9351SOL     OW28951   5.755   3.658   6.029 -0.0047 -0.2508 -0.1887
 9351SOL    HW128952   5.665   3.647   5.988  1.0084 -2.6626 -2.0361
 9351SOL    HW228953   5.811   3.718   5.972  1.0892 -2.8244 -2.0173
 9352SOL     OW28954   4.358   6.573   2.025 -0.6585  0.5287 -0.1875
 9352SOL    HW128955   4.379   6.481   2.059 -0.8527  0.3998 -0.4147
 9352SOL    HW228956   4.278   6.569   1.965 -0.2733  0.7349 -0.7318
 9353SOL     OW28957   4.190   5.571   5.317  0.1512 -0.2002 -0.0550
 9353SOL    HW128958   4.241   5.528   5.392  0.1607  1.4126  0.9127
 9353SOL    HW228959   4.104   5.522   5.304  0.2668 -0.6781  0.8528
 9354SOL     OW28960   0.391   4.073   2.378 -0.1237 -0.0869  0.2669
 9354SOL    HW128961   0.308   4.128   2.387 -0.0560  0.0158  0.2556
 9354SOL    HW228962   0.466   4.130   2.347 -0.4479 -0.5058 -1.3627
 9355SOL     OW28963   0.894   3.503   3.805  0.3432  0.2829 -0.3391
 9355SOL    HW128964   0.895   3.413   3.848 -0.1411 -0.9767 -2.8245
 9355SOL    HW228965   0.876   3.573   3.875  0.4893 -1.5235  1.6076
 9356SOL     OW28966   6.968   4.122   5.426  0.0658 -0.1696 -0.5625
 9356SOL    HW128967   6.969   4.213   5.385 -1.0356 -0.2480 -0.8071
 9356SOL    HW228968   6.886   4.113   5.483  0.6675 -0.6770  0.2335
 9357SOL     OW28969   0.806   4.309   6.277 -0.4413 -0.0063  0.3370
 9357SOL    HW128970   0.787   4.340   6.184  1.9602 -1.2192 -0.6418
 9357SOL    HW228971   0.832   4.387   6.334 -1.4513  0.6742 -0.1144
 9358SOL     OW28972   6.254   4.217   4.942  0.0862 -0.5739 -0.1489
 9358SOL    HW128973   6.236   4.315   4.944  0.5680 -0.4797  1.4257
 9358SOL    HW228974   6.350   4.201   4.919  0.5453 -0.5345  1.5720
 9359SOL     OW28975   1.400   3.637   1.803 -0.1952 -0.1940 -0.3431
 9359SOL    HW128976   1.481   3.610   1.854  0.0018  1.2837  0.1817
 9359SOL    HW228977   1.361   3.557   1.757  1.3461 -0.9895 -0.3319
 9360SOL     OW28978   0.520   6.688   2.388 -0.4828 -0.4200 -0.4011
 9360SOL    HW128979   0.438   6.655   2.434  0.1268 -0.4208  0.7287
 9360SOL    HW228980   0.600   6.638   2.422  0.6920  2.9198  2.3606
 9361SOL     OW28981   3.570   3.389   4.188  0.2105  0.0471 -1.1869
 9361SOL    HW128982   3.534   3.327   4.119 -1.3114 -0.0459 -0.3447
 9361SOL    HW228983   3.660   3.356   4.218 -0.5875 -1.8245 -0.7182
 9362SOL     OW28984   2.305   5.380   6.688 -0.3320  0.0869  0.2431
 9362SOL    HW128985   2.392   5.403   6.732 -0.6567  1.2387  0.2942
 9362SOL    HW228986   2.239   5.353   6.758  0.6486 -3.3395  0.0769
 9363SOL     OW28987   1.421   1.919   1.774  0.2549  0.3037 -0.2426
 9363SOL    HW128988   1.357   1.881   1.707  1.0325 -1.5685  0.0050
 9363SOL    HW228989   1.514   1.915   1.738  0.3381  2.6064 -0.4256
 9364SOL     OW28990   6.525   0.955   0.676 -0.6268  0.1065 -0.4393
 9364SOL    HW128991   6.490   1.047   0.658  0.8322  0.3895 -2.0396
 9364SOL    HW228992   6.490   0.892   0.606  2.0207  0.4183 -2.1527
 9365SOL     OW28993   2.389   4.159   1.698  0.0842  0.4105 -0.3027
 9365SOL    HW128994   2.372   4.255   1.721 -4.4557 -0.1284 -0.5397
 9365SOL    HW228995   2.367   4.143   1.602  0.2036 -0.9657 -0.1219
 9366SOL     OW28996   4.777   5.947   6.610  0.1239 -0.2969 -0.5524
 9366SOL    HW128997   4.682   5.976   6.617  0.7169  1.4843  1.2891
 9366SOL    HW228998   4.826   6.006   6.546  0.1948 -0.6170 -0.7948
 9367SOL     OW28999   4.996   5.222   0.746  0.2836 -0.3298  0.4302
 9367SOL    HW129000   5.052   5.245   0.666 -0.5745 -1.5041 -0.5670
 9367SOL    HW229001   5.015   5.285   0.820  3.3373 -1.0177  0.3350
 9368SOL     OW29002   2.672   2.415   5.612 -0.5011  0.3326 -0.4817
 9368SOL    HW129003   2.604   2.366   5.556  0.3513  0.1855 -1.4307
 9368SOL    HW229004   2.667   2.513   5.592  0.8986  0.1229 -2.1192
 9369SOL     OW29005   1.945   2.236   3.027 -0.0122  0.2796  0.1777
 9369SOL    HW129006   1.890   2.278   3.099 -1.3735 -0.1843 -0.5459
 9369SOL    HW229007   2.032   2.285   3.018 -0.7846  1.7868  0.5915
 9370SOL     OW29008   3.227   1.354   0.422  0.3826  0.5316 -0.2644
 9370SOL    HW129009   3.292   1.289   0.462 -1.9541 -0.8787  1.4476
 9370SOL    HW229010   3.216   1.432   0.484 -0.8963 -0.1371  0.3816
 9371SOL     OW29011   7.000   4.564   5.796 -0.3538 -0.1862  0.0314
 9371SOL    HW129012   7.079   4.559   5.858 -0.6654 -1.5730  0.3532
 9371SOL    HW229013   6.916   4.547   5.848 -0.7215 -0.2412 -0.5814
 9372SOL     OW29014   6.516   5.130   5.687 -0.3518 -0.6762 -0.2226
 9372SOL    HW129015   6.579   5.079   5.628 -0.2116 -0.1899 -0.5005
 9372SOL    HW229016   6.472   5.067   5.752  2.2499 -0.7313  1.6625
 9373SOL     OW29017   5.040   0.257   6.737 -0.2289  0.1963  0.4302
 9373SOL    HW129018   5.050   0.163   6.770  1.2408 -0.3625 -1.3953
 9373SOL    HW229019   5.124   0.308   6.754 -1.0236  1.2263  1.4310
 9374SOL     OW29020   3.968   5.648   0.188  0.3207 -0.3840 -0.3472
 9374SOL    HW129021   3.923   5.737   0.189 -1.2356 -1.1456 -0.2046
 9374SOL    HW229022   3.991   5.624   0.094  1.4155  0.4618 -0.3208
 9375SOL     OW29023   6.049   5.965   1.579 -0.2191 -0.1240  0.9177
 9375SOL    HW129024   6.010   5.962   1.487 -1.5638  1.1561  1.3942
 9375SOL    HW229025   6.123   6.033   1.582  1.0769 -1.4624  0.3795
 9376SOL     OW29026   5.986   5.911   3.939 -0.1916  0.2296 -0.0243
 9376SOL    HW129027   5.972   5.813   3.920 -0.1829  0.0275  0.9627
 9376SOL    HW229028   6.076   5.939   3.907 -0.4391  0.0728 -0.8902
 9377SOL     OW29029   6.111   2.731   5.173  0.5724 -0.8385 -0.4125
 9377SOL    HW129030   6.041   2.677   5.126 -2.2104  3.4546 -1.8106
 9377SOL    HW229031   6.197   2.726   5.121 -0.4079 -1.6912 -2.0645
 9378SOL     OW29032   0.070   0.409   4.156  0.3658 -0.2643  0.1594
 9378SOL    HW129033  -0.029   0.397   4.163  0.3221  0.5790  1.1841
 9378SOL    HW229034   0.115   0.349   4.222  0.3390  1.8278  2.2129
 9379SOL     OW29035   6.011   5.343   6.716  0.2632  0.0753  0.2381
 9379SOL    HW129036   6.040   5.277   6.646  1.2216  0.2593  0.4507
 9379SOL    HW229037   6.045   5.434   6.692  0.1300  0.2354  0.6603
 9380SOL     OW29038   4.566   0.990   0.535 -0.7856  0.1161 -0.2841
 9380SOL    HW129039   4.578   0.900   0.493  0.5608  0.4847 -0.7595
 9380SOL    HW229040   4.542   1.057   0.464  1.2037  0.6844 -0.4967
 9381SOL     OW29041   0.520   7.001   4.952 -0.3500  0.3692  0.3213
 9381SOL    HW129042   0.514   6.901   4.949 -0.3633  0.3368  1.1149
 9381SOL    HW229043   0.583   7.033   4.881  0.2903 -0.2681  0.5943
 9382SOL     OW29044   2.501   3.703   1.566 -0.0580 -0.8664 -0.2350
 9382SOL    HW129045   2.508   3.761   1.647 -0.9983 -2.7766  1.3085
 9382SOL    HW229046   2.466   3.757   1.489 -0.2498  0.7378  0.9262
 9383SOL     OW29047   4.630   6.591   3.222 -0.1805 -0.4585 -0.0863
 9383SOL    HW129048   4.623   6.492   3.209  0.5926 -0.4368 -0.7634
 9383SOL    HW229049   4.651   6.635   3.135 -1.1019  0.3711  0.0988
 9384SOL     OW29050   3.665   3.411   6.098 -0.3524  0.3844 -0.0701
 9384SOL    HW129051   3.637   3.324   6.059 -0.0035  0.1961  0.0911
 9384SOL    HW229052   3.693   3.474   6.025 -1.5094  0.7008 -0.2614
 9385SOL     OW29053   0.421   1.609   2.837  0.1123 -0.2286 -0.3344
 9385SOL    HW129054   0.362   1.663   2.897  0.5552  0.8813 -0.8540
 9385SOL    HW229055   0.394   1.624   2.742 -0.2552 -1.5690 -0.4655
 9386SOL     OW29056   6.210   3.642   1.305 -0.3810 -0.2159 -0.1777
 9386SOL    HW129057   6.213   3.542   1.305  0.6556 -0.2001  0.2112
 9386SOL    HW229058   6.274   3.678   1.237 -0.7584  0.1860 -0.3258
 9387SOL     OW29059   3.188   3.448   3.124  0.1358 -0.9774 -0.5863
 9387SOL    HW129060   3.095   3.440   3.160  0.2005 -0.8010 -0.3816
 9387SOL    HW229061   3.229   3.533   3.156 -0.7843  0.6364 -3.3342
 9388SOL     OW29062   6.243   1.483   5.683  0.4953  0.3305  0.4192
 9388SOL    HW129063   6.273   1.579   5.689  2.6994 -0.3832  2.2936
 9388SOL    HW229064   6.154   1.473   5.727  0.0498  1.5766 -0.1604
 9389SOL     OW29065   4.674   1.078   2.685 -0.4982 -0.1855  0.4387
 9389SOL    HW129066   4.656   1.053   2.780 -1.1064  1.4585  0.7968
 9389SOL    HW229067   4.600   1.136   2.652 -0.0096 -0.2841 -0.8657
 9390SOL     OW29068   6.061   3.944   4.684  0.2832  0.3395 -0.0723
 9390SOL    HW129069   5.978   3.923   4.737  0.7107 -0.8590  0.1615
 9390SOL    HW229070   6.081   3.867   4.623  0.9862  0.8160 -0.4530
 9391SOL     OW29071   2.369   4.792   5.686  0.4302 -0.6580 -0.4594
 9391SOL    HW129072   2.335   4.731   5.758  0.1779 -1.6536 -1.3999
 9391SOL    HW229073   2.418   4.738   5.617  0.4969  0.2538 -1.1434
 9392SOL     OW29074   6.269   2.946   3.005  0.4699  0.3448  0.2207
 9392SOL    HW129075   6.218   3.028   3.029 -0.0687  0.0048  0.2571
 9392SOL    HW229076   6.356   2.945   3.055  0.1705  0.5478  0.7506
 9393SOL     OW29077   1.560   1.435   3.155  0.0531  0.1862  0.2903
 9393SOL    HW129078   1.559   1.421   3.254 -0.5518 -1.5150  0.0812
 9393SOL    HW229079   1.483   1.387   3.114 -0.0940  1.4208 -0.9624
 9394SOL     OW29080   4.229   6.720   1.626 -0.3036 -0.1899 -0.3577
 9394SOL    HW129081   4.231   6.761   1.535  0.2900  1.9723  0.5704
 9394SOL    HW229082   4.322   6.701   1.657 -0.2226  2.0203  0.9785
 9395SOL     OW29083   0.268   5.127   0.914 -0.0650  0.2017  0.6893
 9395SOL    HW129084   0.247   5.120   1.012 -1.4553  2.3822  0.6105
 9395SOL    HW229085   0.331   5.203   0.900  0.2860 -0.2280 -0.1102
 9396SOL     OW29086   1.935   0.649   6.368  1.0907  0.1046  0.3822
 9396SOL    HW129087   1.881   0.660   6.452  1.5682 -1.2557  0.8939
 9396SOL    HW229088   1.880   0.604   6.299  0.9833  0.4186  0.2602
 9397SOL     OW29089   1.957   4.016   3.841  0.0037  0.0758  0.3103
 9397SOL    HW129090   1.954   4.093   3.776  0.5081  0.0390  0.2420
 9397SOL    HW229091   2.016   3.944   3.804 -3.3522 -2.0154 -1.4547
 9398SOL     OW29092   4.274   1.094   0.379 -0.0891 -0.2424  0.3648
 9398SOL    HW129093   4.274   1.050   0.289 -0.2920 -3.2369  1.6887
 9398SOL    HW229094   4.180   1.107   0.409 -0.0196  0.2971  0.3475
 9399SOL     OW29095   2.013   3.377   2.940 -0.5715 -0.1819  0.4438
 9399SOL    HW129096   2.032   3.368   2.843 -0.1253  0.1221  0.4990
 9399SOL    HW229097   1.935   3.438   2.953 -1.3110 -1.0640  0.2352
 9400SOL     OW29098   5.779   1.260   2.745  0.4636 -0.1538 -0.9481
 9400SOL    HW129099   5.784   1.173   2.794 -0.4125 -0.9636 -2.2537
 9400SOL    HW229100   5.723   1.324   2.798 -1.2182 -1.3054 -1.2594
 9401SOL     OW29101   3.081   5.087   1.910  0.0418 -0.3767  0.4686
 9401SOL    HW129102   3.048   5.066   1.818  4.7760 -0.9002 -1.3869
 9401SOL    HW229103   3.081   5.003   1.964  1.6673 -1.2126 -0.7434
 9402SOL     OW29104   6.248   0.780   5.570 -0.3955  0.0535  0.0140
 9402SOL    HW129105   6.262   0.715   5.495  0.4876  1.3975 -1.0199
 9402SOL    HW229106   6.151   0.797   5.582 -0.5361  0.1420 -1.1298
 9403SOL     OW29107   2.707   1.311   6.830  0.0065  0.1544  0.2471
 9403SOL    HW129108   2.632   1.268   6.880 -0.0725 -0.0111 -0.0089
 9403SOL    HW229109   2.781   1.334   6.893  0.9927 -2.3224  0.1355
 9404SOL     OW29110   3.434   5.466   5.380 -0.3747 -0.4314  0.0689
 9404SOL    HW129111   3.398   5.535   5.317  0.3047 -0.6492 -0.5672
 9404SOL    HW229112   3.359   5.428   5.434 -1.5249 -2.4105 -2.6953
 9405SOL     OW29113   5.711   4.890   2.061 -0.6838 -0.3270 -0.1189
 9405SOL    HW129114   5.791   4.848   2.019  0.2872  1.7791 -0.5270
 9405SOL    HW229115   5.705   4.863   2.157  0.6036 -0.4040 -0.0456
 9406SOL     OW29116   4.908   3.364   3.506  0.7091 -0.2325 -0.6550
 9406SOL    HW129117   4.927   3.296   3.576  1.0409 -0.5403 -1.0347
 9406SOL    HW229118   4.911   3.455   3.545 -1.4089 -0.4942  0.2396
 9407SOL     OW29119   0.558   1.909   5.512  0.0773 -0.0614  0.1139
 9407SOL    HW129120   0.545   2.009   5.508 -1.9692 -0.1025  2.9223
 9407SOL    HW229121   0.610   1.886   5.594 -0.0160 -1.3575 -0.1772
 9408SOL     OW29122   0.496   4.595   0.606  0.4674  0.3220  0.1397
 9408SOL    HW129123   0.522   4.534   0.681  1.2173  1.2569  0.6571
 9408SOL    HW229124   0.446   4.543   0.537 -0.7765 -0.4299  1.5569
 9409SOL     OW29125   4.231   3.028   1.328  0.2625 -0.3043 -0.2417
 9409SOL    HW129126   4.279   3.070   1.251 -0.8270 -0.0334 -0.7950
 9409SOL    HW229127   4.159   2.967   1.293 -2.7700  2.6076  0.4198
 9410SOL     OW29128   6.452   3.208   5.563 -0.3837  0.0339  0.4612
 9410SOL    HW129129   6.442   3.274   5.488  0.9623  2.1722  2.0758
 9410SOL    HW229130   6.361   3.185   5.598 -1.0384 -0.9112 -1.6659
 9411SOL     OW29131   6.492   5.981   1.146 -0.0440 -0.0883 -0.3980
 9411SOL    HW129132   6.514   6.036   1.227 -2.8098 -1.2764  1.3211
 9411SOL    HW229133   6.461   6.041   1.072  0.4966  0.9009  0.1605
 9412SOL     OW29134   4.009   2.292   6.588 -0.1128  0.2625 -0.0596
 9412SOL    HW129135   4.030   2.238   6.507 -0.0595  0.7030 -0.3412
 9412SOL    HW229136   3.944   2.364   6.565 -0.2104  0.2994  0.3196
 9413SOL     OW29137   1.473   1.385   6.268 -0.3814  0.1413  0.1552
 9413SOL    HW129138   1.443   1.396   6.174 -0.8330  0.2218  0.3085
 9413SOL    HW229139   1.450   1.467   6.321  0.3244  0.3099  0.2188
 9414SOL     OW29140   1.295   3.840   5.497 -0.0777 -0.1610 -0.4825
 9414SOL    HW129141   1.343   3.754   5.516 -0.3249 -0.0306  0.8094
 9414SOL    HW229142   1.238   3.829   5.416  0.0832 -1.1454 -0.4710
 9415SOL     OW29143   4.266   1.501   6.252 -0.6035 -0.0176 -0.5423
 9415SOL    HW129144   4.288   1.408   6.283  0.1136  0.0420 -0.8431
 9415SOL    HW229145   4.272   1.564   6.328  0.1982 -0.0214 -0.5920
 9416SOL     OW29146   2.923   1.970   4.169 -0.5914 -0.2719 -0.0672
 9416SOL    HW129147   2.976   2.023   4.235 -0.0745 -0.2108 -0.5247
 9416SOL    HW229148   2.916   1.875   4.199 -1.6583  0.0667  0.8414
 9417SOL     OW29149   3.154   2.138   1.487 -0.2633  0.3272  0.3502
 9417SOL    HW129150   3.182   2.180   1.574  1.4189  1.4479 -0.6799
 9417SOL    HW229151   3.222   2.070   1.460 -0.1067  0.8700 -0.6777
 9418SOL     OW29152   2.918   3.740   3.309  0.1793 -0.0026 -0.1646
 9418SOL    HW129153   2.848   3.744   3.238  1.8868 -2.5160 -2.1570
 9418SOL    HW229154   2.994   3.801   3.284 -0.1941  0.8711  0.7543
 9419SOL     OW29155   6.116   6.760   2.163  0.1972  0.1784 -0.3760
 9419SOL    HW129156   6.109   6.755   2.063 -2.1268  2.1214 -0.4003
 9419SOL    HW229157   6.152   6.850   2.189 -0.1411  0.0453  0.5631
 9420SOL     OW29158   0.209   0.643   5.679  0.1217 -0.3546 -0.0498
 9420SOL    HW129159   0.171   0.688   5.760  1.0811 -0.4496  0.4665
 9420SOL    HW229160   0.199   0.703   5.600  3.8530  2.1229  1.1047
 9421SOL     OW29161   1.243   0.387   1.636  0.3363 -0.5103  0.6665
 9421SOL    HW129162   1.231   0.304   1.690  0.6011 -1.0178 -0.0368
 9421SOL    HW229163   1.154   0.431   1.621  0.3924  0.3496  2.5850
 9422SOL     OW29164   3.387   6.009   0.004 -0.2407  0.0012 -0.1883
 9422SOL    HW129165   3.401   5.979  -0.090 -1.0274 -0.0148 -0.3013
 9422SOL    HW229166   3.297   5.980   0.036  0.7916 -1.8474  1.2837
 9423SOL     OW29167   4.753   0.077   5.815 -0.5008  0.2285  0.0834
 9423SOL    HW129168   4.703   0.006   5.866 -2.2098  0.4285 -1.2425
 9423SOL    HW229169   4.700   0.161   5.814  0.2308  0.7011 -0.7138
 9424SOL     OW29170   1.424   4.724   1.112 -0.0283  0.7427  0.7719
 9424SOL    HW129171   1.413   4.624   1.119 -0.5087  0.5016 -2.1895
 9424SOL    HW229172   1.337   4.764   1.084  0.5820  1.7854  0.3352
 9425SOL     OW29173   1.626   3.485   6.938  0.7061  0.1703  0.2943
 9425SOL    HW129174   1.531   3.512   6.955  1.0176  1.4930  0.0220
 9425SOL    HW229175   1.645   3.400   6.987 -0.4608  0.1625  0.7776
 9426SOL     OW29176   0.967   6.871   5.922  0.3626  0.6734 -0.6618
 9426SOL    HW129177   0.987   6.779   5.955  0.9227  0.8319 -0.5635
 9426SOL    HW229178   1.001   6.881   5.828  0.4095  0.8210 -0.6288
 9427SOL     OW29179   5.105   1.942   2.842  0.2036 -0.3941 -0.1094
 9427SOL    HW129180   5.014   1.947   2.883  0.4975 -0.6394  0.5846
 9427SOL    HW229181   5.100   1.887   2.759 -0.6627  1.2466 -1.1975
 9428SOL     OW29182   3.970   3.050   3.403 -0.0920  0.1013 -0.1522
 9428SOL    HW129183   4.023   2.999   3.470  1.8763  1.5129 -0.5344
 9428SOL    HW229184   3.948   3.141   3.440 -0.4214  0.2876 -0.7915
 9429SOL     OW29185   2.520   0.149   3.935 -0.2082  0.1597  0.0221
 9429SOL    HW129186   2.591   0.219   3.937 -0.0841  0.1543 -2.2248
 9429SOL    HW229187   2.445   0.177   3.994  0.2553  1.7205 -0.0771
 9430SOL     OW29188   5.124   4.676   1.445 -1.1244 -0.2621  0.4271
 9430SOL    HW129189   5.110   4.608   1.517  1.1967 -0.5793  0.6351
 9430SOL    HW229190   5.208   4.655   1.395 -2.7561 -0.1871 -2.5668
 9431SOL     OW29191   6.881   2.047   2.541  0.5336  0.1259  0.4291
 9431SOL    HW129192   6.786   2.074   2.527  0.3711  0.9173  2.6499
 9431SOL    HW229193   6.939   2.095   2.474 -0.5400  0.0967 -0.5560
 9432SOL     OW29194   2.971   0.890   3.759  0.2539  0.5377 -0.3880
 9432SOL    HW129195   3.065   0.924   3.769 -0.5027  2.8957 -0.6372
 9432SOL    HW229196   2.914   0.962   3.719 -2.0550 -0.2044  1.3747
 9433SOL     OW29197   0.155   5.447   0.781 -0.2769  0.4753  0.2284
 9433SOL    HW129198   0.244   5.401   0.780  0.1760  1.3374  0.4177
 9433SOL    HW229199   0.085   5.383   0.750  0.2795 -0.4608  0.8480
 9434SOL     OW29200   3.661   1.368   6.275 -0.2041 -0.4457 -0.6668
 9434SOL    HW129201   3.658   1.461   6.239 -3.1282  0.3638  1.3499
 9434SOL    HW229202   3.618   1.306   6.209  0.0573 -0.0671 -1.2048
 9435SOL     OW29203   0.282   3.341   3.074  0.1425  0.1823  0.0474
 9435SOL    HW129204   0.201   3.287   3.048  0.9095 -1.1075  0.2293
 9435SOL    HW229205   0.287   3.347   3.174 -0.4580  1.4627  0.0281
 9436SOL     OW29206   0.799   6.251   1.821 -0.2466  0.0737 -0.1438
 9436SOL    HW129207   0.858   6.228   1.744  0.5248 -1.1206  0.7875
 9436SOL    HW229208   0.714   6.198   1.816 -0.7287  0.8820 -0.8054
 9437SOL     OW29209   3.793   6.972   2.667  0.6191 -0.0524 -0.3446
 9437SOL    HW129210   3.813   6.881   2.631  0.1819 -0.7826  1.2164
 9437SOL    HW229211   3.696   6.993   2.654  0.6843  0.1318 -0.5483
 9438SOL     OW29212   0.690   5.877   4.007  0.2466  0.0096  0.6841
 9438SOL    HW129213   0.610   5.930   4.035 -0.6955  0.3222 -2.2159
 9438SOL    HW229214   0.773   5.923   4.038 -0.5871  2.3362 -0.2873
 9439SOL     OW29215   6.754   2.530   1.628 -0.1749 -0.1865  0.2162
 9439SOL    HW129216   6.850   2.555   1.639 -0.5553  2.5311 -1.4962
 9439SOL    HW229217   6.699   2.613   1.617 -2.5207 -1.6970 -0.2753
 9440SOL     OW29218   2.289   0.263   2.671  0.1278 -0.3448  0.0094
 9440SOL    HW129219   2.335   0.230   2.754 -0.2592 -0.0169  0.3573
 9440SOL    HW229220   2.333   0.347   2.639 -1.3582  1.0313  1.4151
 9441SOL     OW29221   0.933   1.926   6.276 -0.1515 -0.0494  0.1955
 9441SOL    HW129222   0.980   1.858   6.221 -0.5157 -1.1831  1.2400
 9441SOL    HW229223   0.838   1.898   6.290 -0.4667  0.9576  0.1924
 9442SOL     OW29224   5.139   2.722   0.986 -0.1072  0.1609  0.0300
 9442SOL    HW129225   5.168   2.773   1.067  1.6379  1.2376 -1.2213
 9442SOL    HW229226   5.056   2.764   0.948  0.0111  0.6502  0.3088
 9443SOL     OW29227   3.378   4.981   5.198  0.5380 -0.2548  0.1261
 9443SOL    HW129228   3.297   4.986   5.140  0.2557  0.0794  0.5366
 9443SOL    HW229229   3.409   5.074   5.220  0.6379 -0.3748  0.5099
 9444SOL     OW29230   3.416   5.518   0.882 -0.6756 -0.0393 -0.6510
 9444SOL    HW129231   3.496   5.461   0.897 -1.1456 -0.5694 -0.1102
 9444SOL    HW229232   3.436   5.586   0.812  0.0644 -0.5211 -0.9150
 9445SOL     OW29233   2.316   2.519   4.152  0.0664 -0.1553 -0.4958
 9445SOL    HW129234   2.321   2.561   4.243 -0.6985 -0.2244 -0.4181
 9445SOL    HW229235   2.378   2.441   4.149 -0.8444 -0.9427  0.3996
 9446SOL     OW29236   5.034   5.374   3.870  0.0246  0.0175  0.1955
 9446SOL    HW129237   5.115   5.365   3.928  1.3618  0.6025 -1.5091
 9446SOL    HW229238   5.060   5.410   3.781 -1.7608 -1.9095 -1.2230
 9447SOL     OW29239   4.703   5.856   0.898  0.2249 -0.2738  0.6690
 9447SOL    HW129240   4.709   5.908   0.812 -0.9747  0.2823  0.8869
 9447SOL    HW229241   4.610   5.864   0.935  0.7745 -0.3094  2.1422
 9448SOL     OW29242   1.038   3.461   4.158 -0.5185  0.2060  0.1265
 9448SOL    HW129243   1.001   3.507   4.238 -1.4647 -0.0259 -0.1653
 9448SOL    HW229244   1.011   3.365   4.158  0.1121  0.0207 -0.0836
 9449SOL     OW29245   0.091   6.164   5.254 -0.1576 -0.3630 -0.2287
 9449SOL    HW129246   0.103   6.088   5.318  1.6716 -0.1474 -0.2849
 9449SOL    HW229247   0.071   6.248   5.306  1.3642 -0.1811  0.0887
 9450SOL     OW29248   1.110   6.391   5.443 -0.1129  0.1958 -0.4780
 9450SOL    HW129249   1.020   6.349   5.454 -0.6277  1.0004 -1.4508
 9450SOL    HW229250   1.109   6.453   5.365  1.8258 -1.2160 -1.7399
 9451SOL     OW29251   0.744   1.468   2.139  0.6040  0.2811 -0.0882
 9451SOL    HW129252   0.763   1.507   2.050 -0.9315  0.2112 -0.4776
 9451SOL    HW229253   0.820   1.487   2.201  3.0741 -2.0969 -2.1060
 9452SOL     OW29254   0.189   2.790   1.854 -0.2329 -0.6653  0.3952
 9452SOL    HW129255   0.287   2.789   1.832 -0.7608  3.1019 -3.5245
 9452SOL    HW229256   0.173   2.851   1.931  0.3868  0.5973 -0.4461
 9453SOL     OW29257   5.861   4.120   2.745  0.3123 -0.1316  0.1061
 9453SOL    HW129258   5.792   4.130   2.674  1.1482 -0.1779 -0.7345
 9453SOL    HW229259   5.915   4.204   2.751  0.2272 -0.1184  0.7127
 9454SOL     OW29260   5.565   4.510   5.853  0.1265 -0.1913 -0.2795
 9454SOL    HW129261   5.661   4.531   5.834 -0.0750 -0.0690 -1.2144
 9454SOL    HW229262   5.538   4.554   5.939  0.1991  2.0029 -1.3007
 9455SOL     OW29263   4.473   4.547   5.406 -0.3078 -0.2643 -0.2740
 9455SOL    HW129264   4.563   4.584   5.432 -1.5039  3.7214 -1.0726
 9455SOL    HW229265   4.416   4.537   5.487  0.2226 -0.8582  0.0275
 9456SOL     OW29266   0.062   5.023   0.695 -0.0828 -0.5053 -0.1869
 9456SOL    HW129267   0.028   4.934   0.726 -0.0160 -0.8856 -1.1747
 9456SOL    HW229268   0.118   5.064   0.768  0.8895 -1.8224 -0.1578
 9457SOL     OW29269   0.588   1.138   2.410  0.0062 -0.0112 -0.1888
 9457SOL    HW129270   0.670   1.163   2.460  0.9790 -1.4118 -0.9917
 9457SOL    HW229271   0.508   1.148   2.469  0.7634  1.1913  0.6708
 9458SOL     OW29272   6.372   4.744   0.038 -0.4051  0.1639  0.2423
 9458SOL    HW129273   6.395   4.840   0.020  0.2574 -0.0229  0.0743
 9458SOL    HW229274   6.328   4.705  -0.042  1.0973 -0.2132 -0.4386
 9459SOL     OW29275   1.659   5.415   4.231  0.1058  0.3811 -0.5138
 9459SOL    HW129276   1.559   5.407   4.237  0.0556  0.1407 -1.4895
 9459SOL    HW229277   1.685   5.436   4.137  0.9478  0.9986 -0.1484
 9460SOL     OW29278   3.589   3.774   3.959  0.3949  0.2070 -0.9683
 9460SOL    HW129279   3.605   3.854   3.901  3.0191  1.1238  0.8284
 9460SOL    HW229280   3.561   3.804   4.050 -2.1146 -1.1427 -1.2249
 9461SOL     OW29281   5.721   4.818   2.314 -0.6868  0.4743 -0.1928
 9461SOL    HW129282   5.754   4.727   2.336 -0.0230  0.4228 -1.2929
 9461SOL    HW229283   5.676   4.858   2.393 -0.0440 -0.3894  0.6277
 9462SOL     OW29284   5.724   6.477   4.409 -0.1814 -0.2645 -0.0961
 9462SOL    HW129285   5.624   6.482   4.411 -0.1363  1.3902 -0.8501
 9462SOL    HW229286   5.754   6.443   4.320 -0.0624 -2.1515  0.6016
 9463SOL     OW29287   4.596   6.763   5.553  0.4302 -0.2179  0.2801
 9463SOL    HW129288   4.625   6.836   5.614  1.5636 -1.7036  1.6184
 9463SOL    HW229289   4.581   6.800   5.461  2.4151  1.4528  0.5473
 9464SOL     OW29290   3.445   1.359   5.908 -0.1131 -0.4394  0.0193
 9464SOL    HW129291   3.446   1.343   5.810 -0.3919  0.4434 -0.1358
 9464SOL    HW229292   3.488   1.447   5.928  0.3810 -0.8303  0.7362
 9465SOL     OW29293   0.828   3.167   3.643 -0.4164 -0.1258  0.1297
 9465SOL    HW129294   0.901   3.142   3.706  0.5836  1.5684 -0.2845
 9465SOL    HW229295   0.759   3.220   3.692  0.4456  1.3388 -0.1706
 9466SOL     OW29296   5.309   4.209   5.400  0.2328  0.9583 -0.2175
 9466SOL    HW129297   5.263   4.177   5.483 -0.5109  1.8010 -0.2919
 9466SOL    HW229298   5.407   4.220   5.418 -0.1674  2.8954  1.1310
 9467SOL     OW29299   1.862   2.260   0.960  0.4588 -0.0116 -0.7103
 9467SOL    HW129300   1.806   2.296   1.035 -0.3661 -0.7751 -0.9485
 9467SOL    HW229301   1.821   2.176   0.926  0.0564  1.0276 -2.9415
 9468SOL     OW29302   5.038   0.741   6.123 -0.0803 -0.2734  0.8793
 9468SOL    HW129303   4.955   0.698   6.159  0.0745 -0.9170  0.4734
 9468SOL    HW229304   5.109   0.671   6.109 -0.8244 -0.4923 -2.7843
 9469SOL     OW29305   6.533   1.800   5.547  0.7437 -0.0743 -0.3307
 9469SOL    HW129306   6.591   1.808   5.628  1.6741  0.3209 -1.0149
 9469SOL    HW229307   6.590   1.774   5.468  0.1589  1.2702 -1.2250
 9470SOL     OW29308   2.583   5.494   6.443  0.3281  0.4734 -0.2927
 9470SOL    HW129309   2.517   5.523   6.375  0.5796  0.2640 -0.6275
 9470SOL    HW229310   2.592   5.566   6.513 -0.2327  0.5082 -0.2520
 9471SOL     OW29311   3.427   1.924   4.882 -0.4833  0.1641 -0.0036
 9471SOL    HW129312   3.360   1.967   4.942 -0.8661  1.0226 -1.0285
 9471SOL    HW229313   3.488   1.867   4.937 -0.9639  0.7423  1.1722
 9472SOL     OW29314   4.901   1.756   2.903 -0.2139  0.1822 -0.5742
 9472SOL    HW129315   4.847   1.830   2.861  1.1048  1.2000 -0.5358
 9472SOL    HW229316   4.880   1.751   3.000 -0.2719  0.5528 -0.5637
 9473SOL     OW29317   0.463   0.945   2.230  0.3301  0.0797 -0.3805
 9473SOL    HW129318   0.498   0.962   2.138  1.1140  1.9468  0.2110
 9473SOL    HW229319   0.517   0.997   2.296 -0.8039 -0.4798  1.0399
 9474SOL     OW29320   1.077   2.563   4.685 -0.6272 -0.2224  0.5931
 9474SOL    HW129321   1.046   2.469   4.697 -1.2770 -0.6283 -3.0340
 9474SOL    HW229322   1.165   2.575   4.732  0.2229 -3.1181 -0.0422
 9475SOL     OW29323   3.472   6.442   4.747 -0.2330  0.5278 -0.5076
 9475SOL    HW129324   3.403   6.443   4.819 -0.4110  0.3787 -0.6749
 9475SOL    HW229325   3.522   6.356   4.749 -1.1297 -0.0314 -1.3978
 9476SOL     OW29326   4.313   5.917   4.874 -0.3506 -0.0444  0.6824
 9476SOL    HW129327   4.276   5.830   4.906  0.1833 -0.2290  0.7980
 9476SOL    HW229328   4.411   5.922   4.894 -0.1266  0.0844 -0.3881
 9477SOL     OW29329   0.036   4.839   1.373  0.1245 -0.7883 -0.8318
 9477SOL    HW129330  -0.047   4.805   1.417  0.3296 -0.8816 -0.5195
 9477SOL    HW229331   0.071   4.918   1.423  0.3069 -0.8387 -0.8787
 9478SOL     OW29332   0.986   0.197   5.645  0.2978  0.0878  0.3149
 9478SOL    HW129333   0.930   0.264   5.693  0.1820  0.3633 -0.1917
 9478SOL    HW229334   0.931   0.117   5.623  0.6274 -0.5050  1.5764
 9479SOL     OW29335   0.080   3.209   0.497 -0.3301 -0.2260  0.0410
 9479SOL    HW129336   0.113   3.132   0.443  0.7121 -0.7045  1.3031
 9479SOL    HW229337   0.035   3.174   0.579 -1.8373  0.4878 -0.4510
 9480SOL     OW29338   5.910   2.736   0.520 -0.2026  0.3052 -0.4611
 9480SOL    HW129339   5.939   2.787   0.601  1.1363  1.3994 -1.5556
 9480SOL    HW229340   5.979   2.667   0.497  0.2585  1.0822 -1.5362
 9481SOL     OW29341   5.454   5.678   5.235 -0.4010 -0.8110 -0.1930
 9481SOL    HW129342   5.412   5.654   5.323  3.4146  0.5742  2.2375
 9481SOL    HW229343   5.553   5.672   5.243  0.3056  3.1587 -3.2350
 9482SOL     OW29344   5.934   2.897   2.993  0.1144  0.1419  0.3224
 9482SOL    HW129345   5.995   2.818   2.988  0.1625  0.2547 -2.5037
 9482SOL    HW229346   5.848   2.870   3.035  0.3705 -1.2379  0.0006
 9483SOL     OW29347   5.251   3.381   3.408 -0.7697 -0.1677  0.4351
 9483SOL    HW129348   5.350   3.367   3.413 -0.9114 -1.0728  0.9994
 9483SOL    HW229349   5.232   3.478   3.396  0.1533  0.3653  2.7614
 9484SOL     OW29350   6.039   1.928   6.734 -0.5249 -0.7560  0.2342
 9484SOL    HW129351   5.946   1.963   6.727  0.1959  2.2243  3.0522
 9484SOL    HW229352   6.096   1.970   6.664 -0.5856  0.5254  0.9095
 9485SOL     OW29353   0.890   6.836   4.540  0.6250  0.8321 -0.3887
 9485SOL    HW129354   0.965   6.822   4.476  0.2167  0.3600 -0.7722
 9485SOL    HW229355   0.808   6.864   4.490  0.1158 -0.1966 -0.1688
 9486SOL     OW29356   0.649   0.700   6.204 -0.1873 -0.0440 -0.3851
 9486SOL    HW129357   0.692   0.682   6.116  2.6870  1.2610  0.6034
 9486SOL    HW229358   0.659   0.797   6.227 -0.9701 -0.3201  1.2988
 9487SOL     OW29359   4.428   2.444   6.460  0.1813 -0.1777 -0.2494
 9487SOL    HW129360   4.502   2.446   6.526 -0.2949  1.2112  0.2721
 9487SOL    HW229361   4.353   2.503   6.491  0.0104  0.6520 -2.0730
 9488SOL     OW29362   3.930   0.738   4.529 -0.2835  0.0451 -0.2405
 9488SOL    HW129363   3.846   0.792   4.538 -0.0788  0.6626 -1.6947
 9488SOL    HW229364   3.966   0.749   4.436  1.8218  0.3953  0.5634
 9489SOL     OW29365   0.663   5.685   2.058  0.0288  0.1333  0.4937
 9489SOL    HW129366   0.566   5.704   2.064  0.1303  0.5549  0.8525
 9489SOL    HW229367   0.696   5.651   2.146  0.5505  1.6853  0.9373
 9490SOL     OW29368   1.963   1.562   5.339  0.4637  0.2755  0.6479
 9490SOL    HW129369   1.965   1.611   5.252  1.7285 -0.2911  0.3407
 9490SOL    HW229370   2.037   1.595   5.398  1.2252 -1.1146  0.5078
 9491SOL     OW29371   2.656   6.366   4.234 -0.1963  0.1887 -0.2734
 9491SOL    HW129372   2.629   6.336   4.142 -0.2323  0.3932 -0.3303
 9491SOL    HW229373   2.575   6.399   4.282 -0.2170 -0.1372 -0.0846
 9492SOL     OW29374   3.697   1.757   2.815 -0.5242 -0.1073  0.2527
 9492SOL    HW129375   3.628   1.693   2.851 -0.5496 -0.0886  0.2369
 9492SOL    HW229376   3.659   1.849   2.814 -0.4048 -0.0525  0.5076
 9493SOL     OW29377   2.257   3.520   1.210 -0.1104 -0.5686 -0.3110
 9493SOL    HW129378   2.323   3.578   1.162  0.7955 -0.8462  0.5546
 9493SOL    HW229379   2.223   3.449   1.149  0.9291 -0.8476 -0.5928
 9494SOL     OW29380   3.219   3.502   2.122  0.1669  0.6783  0.3221
 9494SOL    HW129381   3.203   3.446   2.041  0.7355  1.1593 -0.1374
 9494SOL    HW229382   3.295   3.565   2.104 -0.8823  2.0673  0.5711
 9495SOL     OW29383   0.234   5.308   4.959  0.0488 -0.1895 -0.6615
 9495SOL    HW129384   0.266   5.309   5.054 -0.8060 -0.2509 -0.3705
 9495SOL    HW229385   0.190   5.396   4.938 -0.3672 -0.4282 -0.7913
 9496SOL     OW29386   5.250   3.020   5.892 -0.6024  0.1302 -0.2490
 9496SOL    HW129387   5.280   3.088   5.958  0.6442 -0.4737 -0.1726
 9496SOL    HW229388   5.290   2.931   5.914 -0.0463 -0.0584 -1.8913
 9497SOL     OW29389   5.682   1.211   4.294 -0.3710  0.3694  0.2757
 9497SOL    HW129390   5.623   1.139   4.333  1.2086 -1.7956 -1.1219
 9497SOL    HW229391   5.670   1.213   4.195  0.8986  0.8300  0.1268
 9498SOL     OW29392   3.821   2.021   3.960  0.0859 -0.0029  0.1858
 9498SOL    HW129393   3.844   2.084   4.035  0.0531 -1.0432  1.0922
 9498SOL    HW229394   3.742   1.966   3.986  0.6227 -1.0062 -0.2441
 9499SOL     OW29395   2.580   4.571   2.761  0.0454  0.1514 -0.2991
 9499SOL    HW129396   2.661   4.579   2.818 -0.2009 -0.6509  0.1734
 9499SOL    HW229397   2.591   4.629   2.680  1.3975 -0.4767 -0.6010
 9500SOL     OW29398   3.294   6.477   0.867  0.0492  0.2645  0.0499
 9500SOL    HW129399   3.352   6.425   0.804 -1.7957 -1.7551 -0.1050
 9500SOL    HW229400   3.228   6.531   0.816 -0.4103 -0.1284  0.2156
 9501SOL     OW29401   4.767   4.598   5.368 -0.7714  0.0009 -0.5061
 9501SOL    HW129402   4.750   4.502   5.346  0.2241 -0.4628  0.6067
 9501SOL    HW229403   4.862   4.620   5.349 -0.4285  0.1514  1.2217
 9502SOL     OW29404   2.778   6.165   0.540 -0.9510 -0.3756  0.6281
 9502SOL    HW129405   2.799   6.182   0.636 -3.6986 -0.3668  1.3126
 9502SOL    HW229406   2.832   6.087   0.508  0.8922  0.3561  1.7853
 9503SOL     OW29407   1.748   4.092   5.216 -0.1467  0.2398 -0.7434
 9503SOL    HW129408   1.823   4.040   5.174 -1.3938 -1.0563 -1.4606
 9503SOL    HW229409   1.779   4.131   5.303  1.3808 -0.1595 -1.0751
 9504SOL     OW29410   3.035   2.947   0.809  0.4246 -0.2614  0.0218
 9504SOL    HW129411   3.110   2.891   0.845 -0.2801  0.2561  2.4760
 9504SOL    HW229412   2.986   2.990   0.884 -1.3586  0.7279 -1.6040
 9505SOL     OW29413   1.276   5.546   3.374  0.0657  0.5174  0.2581
 9505SOL    HW129414   1.305   5.576   3.283 -0.0910  0.4477  0.1866
 9505SOL    HW229415   1.329   5.466   3.401  0.1028  0.5300  0.2232
 9506SOL     OW29416   3.841   3.297   3.084  0.0903 -0.4406 -0.2702
 9506SOL    HW129417   3.909   3.225   3.095  1.2757  0.8640  1.8198
 9506SOL    HW229418   3.886   3.381   3.054 -0.9766 -0.1151 -1.0027
 9507SOL     OW29419   4.660   0.206   1.948  0.2166  0.5086 -0.1434
 9507SOL    HW129420   4.730   0.264   1.989  1.3034  1.1728 -2.7430
 9507SOL    HW229421   4.600   0.170   2.020  0.7755  3.1341  1.7903
 9508SOL     OW29422   1.063   6.175   0.427 -0.1601  0.1705 -0.1839
 9508SOL    HW129423   0.997   6.247   0.410  0.0937  0.2429 -0.9116
 9508SOL    HW229424   1.085   6.128   0.341 -3.9737 -4.0853  0.7758
 9509SOL     OW29425   5.879   0.807   3.324  0.0206  0.0761 -0.3432
 9509SOL    HW129426   5.953   0.855   3.276  0.7266 -0.2785  0.3652
 9509SOL    HW229427   5.823   0.873   3.373  0.2901  0.2878 -0.3181
 9510SOL     OW29428   5.718   6.277   1.406  0.4533  0.2957  0.3265
 9510SOL    HW129429   5.619   6.280   1.397  0.2963  0.8177  1.9235
 9510SOL    HW229430   5.757   6.218   1.335 -0.9719  0.2106 -0.4042
 9511SOL     OW29431   5.686   3.241   0.552 -0.6127  0.6203  0.1707
 9511SOL    HW129432   5.620   3.195   0.493 -0.7252 -0.7153  1.2609
 9511SOL    HW229433   5.677   3.205   0.645  2.9720 -1.1419 -0.0110
 9512SOL     OW29434   4.599   0.556   2.516  0.5616 -0.3786  0.3820
 9512SOL    HW129435   4.547   0.638   2.491 -1.0328 -1.3916  0.1976
 9512SOL    HW229436   4.617   0.557   2.615  0.5377  0.1873  0.3841
 9513SOL     OW29437   1.610   5.998   6.248 -0.1349  0.1476  0.3549
 9513SOL    HW129438   1.704   5.972   6.226  0.0387  0.4453  0.7278
 9513SOL    HW229439   1.601   6.007   6.347 -0.7044 -0.4319  0.3570
 9514SOL     OW29440   0.804   4.770   1.847 -0.0921 -0.5204 -0.0137
 9514SOL    HW129441   0.794   4.738   1.753 -0.9387  0.7043 -0.3724
 9514SOL    HW229442   0.901   4.769   1.872  0.2615  0.0696 -1.2534
 9515SOL     OW29443   2.322   5.726   2.733  0.0817  0.0932  0.4895
 9515SOL    HW129444   2.285   5.713   2.641  0.5349  1.3797  0.1032
 9515SOL    HW229445   2.421   5.719   2.731  0.0850 -0.0310  0.9189
 9516SOL     OW29446   4.082   5.040   3.872 -0.4358  0.0967  0.6819
 9516SOL    HW129447   4.100   5.106   3.799  2.1399 -2.0622 -0.8331
 9516SOL    HW229448   4.163   5.031   3.929 -1.1419 -0.9078  1.5679
 9517SOL     OW29449   4.733   0.273   1.552 -0.3929  0.1639  0.0475
 9517SOL    HW129450   4.779   0.222   1.625  1.3229  0.9662 -0.4065
 9517SOL    HW229451   4.648   0.227   1.528 -0.7946 -0.3474  2.2387
 9518SOL     OW29452   3.823   1.361   6.845  0.4883 -0.2072  0.5445
 9518SOL    HW129453   3.912   1.317   6.860  1.2747 -0.2598 -3.2542
 9518SOL    HW229454   3.836   1.460   6.835  0.1178 -0.2168 -0.0338
 9519SOL     OW29455   2.647   6.298   3.227  0.3942  0.6223 -0.3872
 9519SOL    HW129456   2.693   6.228   3.171  0.0960  0.3089 -0.2411
 9519SOL    HW229457   2.589   6.254   3.295  0.7855  1.0002  0.2018
 9520SOL     OW29458   1.995   1.684   5.088  0.1113  0.5418 -0.1277
 9520SOL    HW129459   1.987   1.609   5.022  0.7467 -0.4661  0.9013
 9520SOL    HW229460   2.089   1.718   5.088 -0.0153  0.8991 -0.1054
 9521SOL     OW29461   2.911   0.351   1.261  0.7033  0.0261 -0.0263
 9521SOL    HW129462   2.901   0.252   1.246  0.0559 -0.0645  0.8891
 9521SOL    HW229463   3.007   0.374   1.275  0.9180 -0.3880 -0.7350
 9522SOL     OW29464   1.712   0.622   4.435 -0.1644  0.0012  0.1106
 9522SOL    HW129465   1.667   0.644   4.348 -1.4468 -1.4469  0.3521
 9522SOL    HW229466   1.647   0.633   4.509  0.6142  0.1945  0.7765
 9523SOL     OW29467   1.610   1.120   3.597  0.3731 -0.0337  0.6282
 9523SOL    HW129468   1.689   1.069   3.630 -0.8744 -3.2795 -0.9279
 9523SOL    HW229469   1.618   1.131   3.498 -0.2544  1.2641  0.7114
 9524SOL     OW29470   5.148   4.329   0.495 -0.4520 -0.6000  0.9566
 9524SOL    HW129471   5.105   4.404   0.545 -0.0420 -0.6837  1.4347
 9524SOL    HW229472   5.106   4.242   0.522 -0.3264 -0.6314  1.0503
 9525SOL     OW29473   5.367   2.336   5.642 -0.3959  0.1917 -0.0711
 9525SOL    HW129474   5.305   2.369   5.571  0.2555 -0.2288 -0.8668
 9525SOL    HW229475   5.320   2.332   5.730 -0.4336  3.5220  0.1834
 9526SOL     OW29476   5.820   5.917   3.570  0.2818 -0.4052  0.2504
 9526SOL    HW129477   5.781   5.831   3.603  0.2703 -1.3228 -1.9568
 9526SOL    HW229478   5.919   5.913   3.573  0.3005 -0.9151 -0.7844
 9527SOL     OW29479   3.133   0.270   0.906  0.0941  0.1447  0.1039
 9527SOL    HW129480   3.131   0.171   0.911  0.4059  0.2061  2.2725
 9527SOL    HW229481   3.043   0.307   0.928  0.2750  0.3719  0.4724
 9528SOL     OW29482   6.169   1.513   0.470  0.2628 -0.0462 -0.0604
 9528SOL    HW129483   6.090   1.483   0.523  0.6787 -0.4231  0.3588
 9528SOL    HW229484   6.202   1.438   0.413 -0.5811  0.5503 -1.3743
 9529SOL     OW29485   3.346   3.564   6.571 -0.8598  0.0860 -0.5630
 9529SOL    HW129486   3.358   3.510   6.487 -2.3558  0.1605 -0.8516
 9529SOL    HW229487   3.435   3.594   6.604 -0.0165 -2.0861 -0.7143
 9530SOL     OW29488   2.505   3.209   1.005  0.3126 -0.0261 -0.2269
 9530SOL    HW129489   2.536   3.268   1.079  2.1680 -0.9713 -0.1932
 9530SOL    HW229490   2.457   3.130   1.043 -0.4289  0.4499 -0.1605
 9531SOL     OW29491   4.363   1.662   0.020  0.4176  0.0016  0.0467
 9531SOL    HW129492   4.456   1.688   0.047 -0.1884  2.3681  0.0862
 9531SOL    HW229493   4.297   1.713   0.076 -0.8814 -0.0791 -1.3599
 9532SOL     OW29494   0.242   1.545   6.406 -0.3224  0.7037  0.2942
 9532SOL    HW129495   0.153   1.516   6.370  0.0955  0.3913 -0.4951
 9532SOL    HW229496   0.238   1.547   6.506 -0.3468 -2.1925  0.4337
 9533SOL     OW29497   1.490   1.867   3.846  0.5164 -0.0200  0.5745
 9533SOL    HW129498   1.514   1.905   3.757  0.4128 -1.1737  0.0259
 9533SOL    HW229499   1.411   1.916   3.884  0.4903  0.4035 -0.0301
 9534SOL     OW29500   3.174   5.238   4.300 -0.4820  0.1594  0.2407
 9534SOL    HW129501   3.130   5.173   4.237  0.6206 -1.1912  0.8224
 9534SOL    HW229502   3.162   5.331   4.265  1.2945 -0.6169 -2.7780
 9535SOL     OW29503   6.017   0.900   0.633 -0.3692 -0.2083  0.8030
 9535SOL    HW129504   6.015   0.967   0.559 -0.8805  0.0141  1.0201
 9535SOL    HW229505   5.956   0.928   0.706 -0.7701 -1.0339  0.7956
 9536SOL     OW29506   5.237   1.612   6.949 -0.6637  0.2008 -0.4475
 9536SOL    HW129507   5.254   1.693   6.894  0.9755  0.5142  0.4566
 9536SOL    HW229508   5.145   1.578   6.931 -0.5019  0.7850 -2.7084
 9537SOL     OW29509   4.496   0.552   6.361  0.2583 -0.0768  0.8364
 9537SOL    HW129510   4.548   0.476   6.324  0.0635  0.4951 -0.6774
 9537SOL    HW229511   4.407   0.520   6.393 -1.3839 -0.0576 -3.1346
 9538SOL     OW29512   1.420   3.341   4.685 -0.2081  0.3809 -0.3371
 9538SOL    HW129513   1.386   3.415   4.628 -2.5274 -0.7549 -0.5540
 9538SOL    HW229514   1.427   3.257   4.631  0.9239  0.0532  0.2654
 9539SOL     OW29515   3.585   6.755   2.816  0.4755 -0.6301  0.4314
 9539SOL    HW129516   3.536   6.709   2.890  0.3683 -0.8116  0.2495
 9539SOL    HW229517   3.520   6.786   2.747  0.3165  1.5835  1.4944
 9540SOL     OW29518   0.481   0.582   4.141  0.6837  0.6715 -0.8158
 9540SOL    HW129519   0.527   0.498   4.169 -0.3391 -0.0436 -1.2019
 9540SOL    HW229520   0.456   0.636   4.221  0.5947  0.1912 -0.5187
 9541SOL     OW29521   2.222   4.903   6.088  0.0310  0.7540  0.4603
 9541SOL    HW129522   2.313   4.898   6.047 -0.3510 -1.1973 -0.2383
 9541SOL    HW229523   2.230   4.887   6.187  0.3678 -0.4928  0.2505
 9542SOL     OW29524   1.307   5.225   4.487  0.1183 -0.3016 -0.1232
 9542SOL    HW129525   1.383   5.173   4.526  0.4458  0.7258  0.6468
 9542SOL    HW229526   1.287   5.191   4.395  0.6810 -1.4107  0.1478
 9543SOL     OW29527   6.452   1.263   0.755  0.1656  0.6550 -0.3013
 9543SOL    HW129528   6.379   1.255   0.822  1.2012 -0.1385  0.7700
 9543SOL    HW229529   6.479   1.359   0.747 -1.5029  1.0868 -1.3238
 9544SOL     OW29530   3.194   1.432   2.102 -0.0574 -0.0168 -0.2241
 9544SOL    HW129531   3.212   1.414   2.005 -1.3126 -0.5487 -0.3818
 9544SOL    HW229532   3.201   1.530   2.120  0.0528  0.0995 -0.8786
 9545SOL     OW29533   5.640   0.020   3.071 -0.2297 -0.2967  0.7076
 9545SOL    HW129534   5.615   0.116   3.062 -0.4865 -0.4851 -0.9573
 9545SOL    HW229535   5.668   0.001   3.165 -0.8564  1.2313  1.2294
 9546SOL     OW29536   0.376   2.909   6.125  0.5606 -0.3824 -0.7244
 9546SOL    HW129537   0.438   2.948   6.193  0.3333 -0.2614 -0.5869
 9546SOL    HW229538   0.285   2.948   6.137  0.1868 -1.4059 -0.2044
 9547SOL     OW29539   6.791   5.092   0.313  0.1795 -0.0010  0.0774
 9547SOL    HW129540   6.697   5.070   0.289  0.3251  1.0637 -1.6479
 9547SOL    HW229541   6.842   5.115   0.230  1.5817  0.8343  1.1173
 9548SOL     OW29542   6.561   0.344   1.327 -0.1051 -0.2028 -0.2501
 9548SOL    HW129543   6.657   0.336   1.301 -0.1276  1.4072 -0.9528
 9548SOL    HW229544   6.505   0.355   1.245 -0.8346 -0.5806  0.1842
 9549SOL     OW29545   2.006   1.145   0.337 -0.3068 -0.3789 -0.4883
 9549SOL    HW129546   1.938   1.219   0.345 -1.0651 -1.0478 -0.5914
 9549SOL    HW229547   2.030   1.133   0.240 -0.6617 -0.6836 -0.5404
 9550SOL     OW29548   4.315   2.238   2.124 -0.0310  0.0391  0.8193
 9550SOL    HW129549   4.309   2.231   2.024  2.3416 -2.2573  0.7241
 9550SOL    HW229550   4.230   2.204   2.164 -1.6483  2.4264 -0.3400
 9551SOL     OW29551   1.734   4.026   3.215  0.2299  0.2013 -1.0086
 9551SOL    HW129552   1.681   4.107   3.191  0.6407  0.2862 -1.6391
 9551SOL    HW229553   1.750   3.971   3.133  0.5627 -0.1550 -0.7087
 9552SOL     OW29554   3.015   4.577   5.685  0.7263 -0.2835  0.3825
 9552SOL    HW129555   3.004   4.632   5.768 -1.6840  0.9841 -0.6575
 9552SOL    HW229556   3.056   4.634   5.613 -0.1483 -0.3478 -0.1861
 9553SOL     OW29557   6.571   5.579   0.918 -0.4333 -0.0532  1.2169
 9553SOL    HW129558   6.656   5.566   0.968  0.3462  0.0962 -0.0362
 9553SOL    HW229559   6.503   5.620   0.979  1.0367  1.8253  1.6947
 9554SOL     OW29560   0.358   0.414   3.732  0.4564 -0.0669  0.1982
 9554SOL    HW129561   0.301   0.374   3.804 -0.8650  0.4513 -0.5335
 9554SOL    HW229562   0.435   0.462   3.774  0.0291 -0.2485  1.2357
 9555SOL     OW29563   6.779   2.362   3.897 -0.3313 -0.3230  0.7705
 9555SOL    HW129564   6.818   2.426   3.963  0.3344  1.1111 -0.9070
 9555SOL    HW229565   6.824   2.273   3.906  2.3163  0.8380 -0.0294
 9556SOL     OW29566   4.005   2.155   0.953  0.0314 -0.3633  0.5093
 9556SOL    HW129567   3.999   2.244   0.997  0.4579 -0.0922  0.0279
 9556SOL    HW229568   4.099   2.138   0.925  0.0210 -1.1187  0.9090
 9557SOL     OW29569   5.499   5.441   3.893 -0.3238 -0.2729  0.1479
 9557SOL    HW129570   5.525   5.535   3.914 -0.1124 -0.8210  2.7467
 9557SOL    HW229571   5.563   5.378   3.938 -3.4630 -1.6400  3.2602
 9558SOL     OW29572   6.663   0.214   6.709 -0.1717 -0.0381 -0.0945
 9558SOL    HW129573   6.674   0.247   6.803  0.9012  0.4032 -0.3595
 9558SOL    HW229574   6.752   0.188   6.673 -0.6561 -0.7310 -0.8105
 9559SOL     OW29575   4.454   0.582   0.647 -0.4781 -0.2410 -0.0935
 9559SOL    HW129576   4.432   0.500   0.702  0.1056 -0.3713 -0.0455
 9559SOL    HW229577   4.411   0.662   0.688 -2.3212 -0.7261 -0.9814
 9560SOL     OW29578   0.566   4.123   1.693 -0.0360 -0.2000 -0.4532
 9560SOL    HW129579   0.535   4.103   1.787  0.9545 -1.7148 -0.4085
 9560SOL    HW229580   0.492   4.166   1.642 -1.0372 -0.5743  0.6372
 9561SOL     OW29581   4.651   4.715   0.147 -0.2438 -0.8102  0.0233
 9561SOL    HW129582   4.609   4.782   0.207  1.1559 -1.6387  2.0455
 9561SOL    HW229583   4.727   4.671   0.194 -0.6182 -3.2871 -1.4764
 9562SOL     OW29584   0.248   0.306   3.966 -0.1793  0.2237  0.1044
 9562SOL    HW129585   0.199   0.368   4.027  2.6259  2.1111  0.5987
 9562SOL    HW229586   0.256   0.216   4.009  0.5748  1.1367  1.9890
 9563SOL     OW29587   4.167   6.215   6.015  0.0803 -0.3165 -0.4843
 9563SOL    HW129588   4.204   6.209   6.107  0.3253 -1.4141 -0.6385
 9563SOL    HW229589   4.225   6.275   5.959 -0.0081  0.2614  0.0371
 9564SOL     OW29590   0.365   5.280   6.695  0.3325 -0.3725 -0.1061
 9564SOL    HW129591   0.420   5.251   6.616 -0.9695 -2.7651 -0.2250
 9564SOL    HW229592   0.405   5.245   6.779  0.6023  0.4392  0.1119
 9565SOL     OW29593   5.779   4.657   6.597 -0.1631 -0.0295  0.5371
 9565SOL    HW129594   5.801   4.741   6.647  1.9181  0.1389 -0.5278
 9565SOL    HW229595   5.727   4.680   6.515 -0.3090  0.1336  0.6755
 9566SOL     OW29596   1.811   0.236   5.590 -0.1463 -0.1123  0.5662
 9566SOL    HW129597   1.762   0.181   5.658  1.5250 -1.0951  1.0200
 9566SOL    HW229598   1.845   0.177   5.518 -1.2603  0.8296 -0.7954
 9567SOL     OW29599   6.502   5.151   4.895  0.2921  0.5246  0.2235
 9567SOL    HW129600   6.489   5.119   4.989  1.1584 -1.1405 -0.1896
 9567SOL    HW229601   6.414   5.181   4.858 -0.0822  1.0992  1.5063
 9568SOL     OW29602   2.459   0.832   1.482 -0.7836  0.5391 -0.7776
 9568SOL    HW129603   2.517   0.908   1.510 -0.1007  0.0555 -0.8674
 9568SOL    HW229604   2.374   0.834   1.534  0.2709 -0.0894  1.0471
 9569SOL     OW29605   2.753   3.470   6.289 -0.4584 -0.2258  0.0260
 9569SOL    HW129606   2.718   3.392   6.236 -0.5383  1.0986 -2.0000
 9569SOL    HW229607   2.850   3.481   6.271 -0.2745 -0.3232  0.9351
 9570SOL     OW29608   6.176   2.705   1.369 -0.3328 -0.5778 -0.2221
 9570SOL    HW129609   6.200   2.618   1.327 -1.5824 -1.5820  1.0309
 9570SOL    HW229610   6.243   2.728   1.439  0.1020 -0.4262 -0.6828
 9571SOL     OW29611   4.304   2.128   6.497 -0.0990  0.0884  0.3981
 9571SOL    HW129612   4.355   2.213   6.514  0.0080 -0.1858  1.5335
 9571SOL    HW229613   4.353   2.051   6.538 -1.0048 -0.2935  0.7822
 9572SOL     OW29614   1.833   4.614   5.872 -0.2505 -0.1920 -0.1068
 9572SOL    HW129615   1.892   4.664   5.935  1.6795 -1.2435 -0.9708
 9572SOL    HW229616   1.865   4.628   5.778 -0.7471 -1.6186 -0.5166
 9573SOL     OW29617   3.589   0.930   4.275 -0.4464 -0.0435 -0.5645
 9573SOL    HW129618   3.491   0.951   4.271 -0.8575 -1.4095  1.0061
 9573SOL    HW229619   3.636   0.999   4.330 -0.2186  1.4460 -2.5367
 9574SOL     OW29620   0.975   0.611   2.418  0.3011 -0.5049 -0.3851
 9574SOL    HW129621   0.973   0.551   2.338  1.6118 -2.5829  1.0518
 9574SOL    HW229622   1.049   0.678   2.408  0.5885 -0.8802 -0.7934
 9575SOL     OW29623   1.987   2.145   2.353 -0.1722  0.6839 -0.0910
 9575SOL    HW129624   1.906   2.202   2.360 -2.3368 -2.0755 -0.6426
 9575SOL    HW229625   2.000   2.119   2.257  0.0962 -0.5575  0.2667
 9576SOL     OW29626   3.764   2.288   5.338 -0.0647  0.4001 -0.2368
 9576SOL    HW129627   3.743   2.191   5.331 -1.2199  0.6591 -0.6049
 9576SOL    HW229628   3.861   2.303   5.316  0.2908 -0.7276  0.4758
 9577SOL     OW29629   6.975   0.647   4.289 -0.2911 -0.6316 -0.2341
 9577SOL    HW129630   6.989   0.653   4.388  1.3271  0.1768 -0.4837
 9577SOL    HW229631   7.061   0.621   4.244 -1.1051 -1.4071 -1.4084
 9578SOL     OW29632   0.413   1.309   4.383 -0.2363  0.2273  0.0326
 9578SOL    HW129633   0.497   1.325   4.331 -1.0285 -1.3179 -1.8541
 9578SOL    HW229634   0.425   1.231   4.444 -0.1045  0.4144  0.2460
 9579SOL     OW29635   4.031   5.206   6.870 -0.4572 -0.2528  0.9228
 9579SOL    HW129636   3.936   5.233   6.855 -1.1138 -2.4240  0.8326
 9579SOL    HW229637   4.087   5.237   6.793 -1.5753 -1.0586 -0.2610
 9580SOL     OW29638   6.260   2.488   2.420 -0.1681 -0.1788  0.2109
 9580SOL    HW129639   6.332   2.466   2.355 -0.5945 -1.2070  0.0746
 9580SOL    HW229640   6.261   2.422   2.495 -1.3664 -0.5819 -0.1170
 9581SOL     OW29641   0.677   5.736   6.865  0.2023  0.2856 -0.0369
 9581SOL    HW129642   0.605   5.668   6.855  0.1625 -0.1753  2.5976
 9581SOL    HW229643   0.684   5.764   6.961  3.0507  0.8198 -0.2898
 9582SOL     OW29644   6.217   1.492   1.877  1.0145  0.3739  0.3208
 9582SOL    HW129645   6.120   1.469   1.873  1.3637 -0.9522 -1.4203
 9582SOL    HW229646   6.228   1.591   1.867 -0.1772  0.6466  1.3929
 9583SOL     OW29647   3.586   6.338   4.040 -0.5525 -0.1308  0.2131
 9583SOL    HW129648   3.605   6.244   4.070 -2.1261  0.4211  3.3212
 9583SOL    HW229649   3.661   6.370   3.983  1.2087 -2.4688  1.0339
 9584SOL     OW29650   1.335   3.847   0.168 -0.0858 -0.1534 -0.2261
 9584SOL    HW129651   1.431   3.858   0.143 -0.6693  1.9384 -1.8026
 9584SOL    HW229652   1.277   3.857   0.087 -1.6865 -0.8729  0.7611
 9585SOL     OW29653   4.059   1.715   4.458  0.5615 -0.3469  0.6226
 9585SOL    HW129654   4.117   1.720   4.377  0.8311  1.4587  0.8639
 9585SOL    HW229655   4.062   1.803   4.506 -2.5405 -0.0923  0.5473
 9586SOL     OW29656   0.545   5.962   2.922  0.1243  0.1332 -0.0023
 9586SOL    HW129657   0.447   5.977   2.910 -0.0250  1.1696  1.9857
 9586SOL    HW229658   0.564   5.864   2.923 -1.0873 -0.1205  0.7123
 9587SOL     OW29659   2.223   6.924   1.128 -0.3075  0.4656 -0.2841
 9587SOL    HW129660   2.307   6.869   1.125 -0.1881  0.6650 -0.8251
 9587SOL    HW229661   2.175   6.908   1.214  0.3919  0.5029  0.1180
 9588SOL     OW29662   2.378   5.219   0.336 -0.0245 -0.0872  0.0556
 9588SOL    HW129663   2.416   5.154   0.270  0.6352  0.9846 -0.6652
 9588SOL    HW229664   2.361   5.173   0.423  1.3514 -1.0038 -0.1298
 9589SOL     OW29665   3.569   6.363   4.306  0.3390  0.5632 -0.0106
 9589SOL    HW129666   3.498   6.296   4.328 -0.0490  1.1661  0.6453
 9589SOL    HW229667   3.577   6.371   4.207  2.0766 -2.1687 -0.1894
 9590SOL     OW29668   1.912   2.785   2.518  0.1828 -0.1524  0.6098
 9590SOL    HW129669   2.006   2.815   2.505  0.3178  0.0587  1.8915
 9590SOL    HW229670   1.912   2.697   2.567 -0.2790 -0.0214  0.8497
 9591SOL     OW29671   4.486   4.535   0.011  0.2684 -0.0320  0.2187
 9591SOL    HW129672   4.543   4.613   0.035 -0.7210  0.1487  2.1006
 9591SOL    HW229673   4.467   4.480   0.093  1.4623 -2.6487 -1.1080
 9592SOL     OW29674   3.043   2.005   3.058 -0.1946 -0.2172  0.6692
 9592SOL    HW129675   3.085   2.072   3.119 -2.0118  2.1081 -0.4811
 9592SOL    HW229676   3.112   1.970   2.994  1.0047 -0.2487  1.9358
 9593SOL     OW29677   3.749   0.723   3.395  0.2260 -0.0805 -0.1582
 9593SOL    HW129678   3.686   0.800   3.389  0.4074  0.0602 -0.2552
 9593SOL    HW229679   3.843   0.757   3.400  0.3341 -0.3077 -0.6561
 9594SOL     OW29680   0.806   5.984   1.978  0.2284 -0.2603  0.2176
 9594SOL    HW129681   0.771   5.893   1.999  0.2106 -0.0764  1.0295
 9594SOL    HW229682   0.731   6.050   1.983  0.5794  0.0683  1.5100
 9595SOL     OW29683   0.087   6.843   2.160 -0.7156  0.1944 -0.2726
 9595SOL    HW129684   0.115   6.750   2.134 -1.0109  0.4211 -1.4316
 9595SOL    HW229685   0.095   6.853   2.259  0.9049 -0.5504 -0.2950
 9596SOL     OW29686   4.003   1.779   0.022 -0.1972 -0.0046 -0.0423
 9596SOL    HW129687   3.969   1.692   0.057  0.7092  0.1587  1.3285
 9596SOL    HW229688   4.046   1.765  -0.068 -2.0688 -0.5359 -0.9088
 9597SOL     OW29689   5.307   5.981   4.940 -0.2832  0.0265  0.5390
 9597SOL    HW129690   5.397   6.025   4.945 -0.1299  0.0402 -1.4576
 9597SOL    HW229691   5.245   6.023   5.005  0.9977  0.4085  1.5474
 9598SOL     OW29692   0.216   6.395   0.617 -0.3460  0.8775 -0.4127
 9598SOL    HW129693   0.137   6.377   0.675 -0.4448  0.1451 -0.7577
 9598SOL    HW229694   0.295   6.343   0.649 -0.3027  0.7518 -0.7122
 9599SOL     OW29695   6.844   6.059   0.178 -0.6219 -0.5581 -0.1124
 9599SOL    HW129696   6.777   6.133   0.177  0.4446  0.4288 -0.2732
 9599SOL    HW229697   6.815   5.988   0.243 -1.5332  0.1088  0.2197
 9600SOL     OW29698   1.420   4.453   6.235 -0.5017 -0.0549 -0.8442
 9600SOL    HW129699   1.467   4.496   6.158 -0.8243  0.1482 -0.9243
 9600SOL    HW229700   1.424   4.513   6.315 -0.9880  0.1409 -0.9681
 9601SOL     OW29701   5.461   3.374   5.779 -0.6107 -0.2493  0.3148
 9601SOL    HW129702   5.478   3.464   5.818  0.3555 -0.1744 -0.2647
 9601SOL    HW229703   5.508   3.305   5.834 -0.4406 -0.2866  0.1230
 9602SOL     OW29704   3.272   5.799   0.168 -0.2115  0.4348  0.1288
 9602SOL    HW129705   3.275   5.868   0.240 -1.2534  0.0570  0.5613
 9602SOL    HW229706   3.287   5.708   0.208  5.4125  0.5719 -0.9233
 9603SOL     OW29707   6.631   0.693   0.134 -0.1040  0.1839  0.3431
 9603SOL    HW129708   6.619   0.789   0.111 -0.1701 -0.1495 -1.0910
 9603SOL    HW229709   6.542   0.652   0.156  0.1348  0.8862  2.9442
 9604SOL     OW29710   0.894   4.297   2.901 -0.2352 -0.9779 -0.4410
 9604SOL    HW129711   0.901   4.388   2.861  0.5624 -0.7767  0.1134
 9604SOL    HW229712   0.922   4.229   2.834  1.9764 -0.5780 -0.0172
 9605SOL     OW29713   0.079   6.733   1.331  0.1645  0.7137  0.5798
 9605SOL    HW129714   0.179   6.726   1.337  0.2858 -0.7412 -1.8204
 9605SOL    HW229715   0.054   6.809   1.271 -0.1118  0.4571  0.3629
 9606SOL     OW29716   4.474   1.015   1.084 -0.0716  0.7402 -0.2392
 9606SOL    HW129717   4.549   1.053   1.137 -1.4503  1.8801  0.9875
 9606SOL    HW229718   4.442   1.083   1.018  0.3045  0.0583 -1.1538
 9607SOL     OW29719   0.835   2.971   3.144 -0.1539 -0.7664 -0.2552
 9607SOL    HW129720   0.898   3.022   3.085 -0.7621 -0.6077 -0.7821
 9607SOL    HW229721   0.803   2.890   3.096 -0.6549 -0.6337 -0.1471
 9608SOL     OW29722   3.327   1.406   6.554 -0.5104  0.2158 -0.4078
 9608SOL    HW129723   3.233   1.415   6.586 -0.3445 -1.4184  0.6726
 9608SOL    HW229724   3.360   1.495   6.521 -1.6287  1.3549  1.4033
 9609SOL     OW29725   5.488   3.561   4.919 -0.5424  0.1480  0.0133
 9609SOL    HW129726   5.578   3.568   4.962 -0.6853  0.2159  0.3056
 9609SOL    HW229727   5.440   3.481   4.955 -0.7360  0.3112  0.1231
 9610SOL     OW29728   0.835   1.467   4.005 -0.2411 -0.8802  0.0014
 9610SOL    HW129729   0.792   1.446   3.917 -0.3829 -0.8597  0.0646
 9610SOL    HW229730   0.918   1.413   4.016 -0.9226 -1.8678  0.4273
 9611SOL     OW29731   6.910   3.887   1.219  0.8364  0.1344 -0.4733
 9611SOL    HW129732   6.869   3.812   1.271  1.9090 -0.4997 -0.5201
 9611SOL    HW229733   7.008   3.890   1.236  1.1899  0.0292 -2.3121
 9612SOL     OW29734   5.240   4.993   5.328 -0.5690  0.4253  0.0072
 9612SOL    HW129735   5.287   4.905   5.328 -0.9405  0.2219 -0.7779
 9612SOL    HW229736   5.306   5.066   5.344  0.0267  0.1437 -1.0673
 9613SOL     OW29737   4.457   6.950   2.434  0.7541  0.2298 -0.4221
 9613SOL    HW129738   4.390   6.916   2.501 -0.6154  1.4546 -1.1048
 9613SOL    HW229739   4.507   7.027   2.472 -0.7158  1.5656 -1.0817
 9614SOL     OW29740   1.913   2.558   1.854  1.0640 -0.0112  0.1326
 9614SOL    HW129741   1.954   2.563   1.945 -2.4958 -2.9722  2.1854
 9614SOL    HW229742   1.928   2.466   1.817 -1.3994 -0.3659 -0.1043
 9615SOL     OW29743   2.315   1.134   0.193  0.1327 -0.2293 -0.0495
 9615SOL    HW129744   2.344   1.065   0.259 -1.3736  1.6504  2.8093
 9615SOL    HW229745   2.229   1.106   0.150 -0.1439 -0.4258  0.6221
 9616SOL     OW29746   3.912   3.336   2.727  0.4442  0.5223 -0.2592
 9616SOL    HW129747   3.923   3.435   2.741 -0.5205  0.8263 -1.4909
 9616SOL    HW229748   3.974   3.287   2.789  1.7423  1.9077 -0.3824
 9617SOL     OW29749   6.569   1.989   0.874 -0.1712 -0.4110 -0.6305
 9617SOL    HW129750   6.509   2.052   0.923  0.4962  0.6186 -1.1055
 9617SOL    HW229751   6.608   2.035   0.795 -0.4283 -1.7262 -1.5700
 9618SOL     OW29752   3.944   5.084   4.129  0.5511 -0.2519 -0.2050
 9618SOL    HW129753   3.993   5.139   4.061 -2.2257  0.4938 -1.7609
 9618SOL    HW229754   3.939   4.989   4.097 -1.8388  0.3281 -1.8702
 9619SOL     OW29755   5.645   5.567   4.746 -0.0547  0.4844 -0.1408
 9619SOL    HW129756   5.586   5.593   4.823 -0.1631  0.6448 -0.2771
 9619SOL    HW229757   5.660   5.468   4.748 -2.1741  0.0660 -1.3756
 9620SOL     OW29758   1.319   4.768   5.695  0.5554  0.1731  0.1499
 9620SOL    HW129759   1.409   4.800   5.724  0.6589  1.0379 -1.0357
 9620SOL    HW229760   1.321   4.749   5.596 -0.3670 -0.4976  0.2517
 9621SOL     OW29761   1.756   1.657   1.428  0.6402 -0.5218 -0.0527
 9621SOL    HW129762   1.805   1.655   1.341  0.6579 -0.3303 -0.0484
 9621SOL    HW229763   1.797   1.592   1.492  0.9018 -0.3490 -0.0434
 9622SOL     OW29764   5.561   4.338   5.191  0.2112 -0.0195 -0.2292
 9622SOL    HW129765   5.516   4.281   5.122  1.6679  0.4825 -1.6602
 9622SOL    HW229766   5.635   4.286   5.234 -1.4346 -0.7528  1.9300
 9623SOL     OW29767   1.586   4.841   0.523  0.0576  0.4035  0.8582
 9623SOL    HW129768   1.516   4.912   0.536 -0.0717  0.5763 -0.6366
 9623SOL    HW229769   1.669   4.868   0.570 -0.1234  1.3700  0.6529
 9624SOL     OW29770   1.598   6.946   2.434 -0.6773  0.0963  0.0625
 9624SOL    HW129771   1.573   6.928   2.529  1.0517  0.8595  0.6987
 9624SOL    HW229772   1.661   6.876   2.403 -0.6614  0.2658 -0.2904
 9625SOL     OW29773   3.848   0.527   5.272  0.4219 -0.4439  0.4282
 9625SOL    HW129774   3.875   0.491   5.361  0.3470  0.4642  0.8357
 9625SOL    HW229775   3.882   0.621   5.262  0.6913 -0.6370 -0.6301
 9626SOL     OW29776   2.484   6.493   5.771  0.0554  0.8621  0.4167
 9626SOL    HW129777   2.576   6.455   5.780 -0.1007  0.2336 -0.4925
 9626SOL    HW229778   2.437   6.450   5.694 -1.7241 -0.2676  2.0402
 9627SOL     OW29779   6.839   4.478   5.533 -0.3192  0.5771 -0.3539
 9627SOL    HW129780   6.906   4.547   5.562  0.3416  0.2265 -1.0208
 9627SOL    HW229781   6.818   4.417   5.610 -0.7748  1.4020  0.1911
 9628SOL     OW29782   6.107   5.940   3.595 -0.1619  0.2637 -0.0954
 9628SOL    HW129783   6.129   5.927   3.692 -1.5019  0.7156  0.2793
 9628SOL    HW229784   6.183   5.987   3.551  0.4685  0.0542  0.7233
 9629SOL     OW29785   1.826   3.561   3.001 -0.3492 -0.0638 -0.0415
 9629SOL    HW129786   1.733   3.527   3.014 -0.3081  0.3494  1.5254
 9629SOL    HW229787   1.830   3.619   2.920 -1.5745  0.2969  0.1451
 9630SOL     OW29788   5.787   0.542   3.629  0.4286 -0.0507 -0.1315
 9630SOL    HW129789   5.871   0.519   3.678  0.9341  1.0984 -0.4225
 9630SOL    HW229790   5.729   0.599   3.687  0.5389  0.4141 -0.4735
 9631SOL     OW29791   0.157   3.517   1.515  0.1521 -0.2696 -0.1626
 9631SOL    HW129792   0.125   3.557   1.429  1.5501  0.8710 -0.2082
 9631SOL    HW229793   0.189   3.424   1.498  2.4225  0.6377 -1.4268
 9632SOL     OW29794   1.341   3.381   1.716 -0.6833  0.1366  0.0252
 9632SOL    HW129795   1.409   3.369   1.644 -1.4821 -0.7478 -0.6193
 9632SOL    HW229796   1.275   3.306   1.711 -0.8447  0.1525  1.5928
 9633SOL     OW29797   5.000   2.231   4.007  0.1093 -0.1704 -0.7245
 9633SOL    HW129798   5.070   2.177   4.056  0.8109 -0.4600 -1.9944
 9633SOL    HW229799   4.924   2.171   3.983 -0.7626  0.2126  0.9341
 9634SOL     OW29800   3.863   0.914   6.328 -0.2758 -0.0629 -0.2978
 9634SOL    HW129801   3.883   0.926   6.231 -0.8897  0.6615 -0.3447
 9634SOL    HW229802   3.772   0.950   6.348  0.3511  0.9655  0.7962
 9635SOL     OW29803   5.057   5.776   0.280 -0.1788 -0.0649  0.4491
 9635SOL    HW129804   5.078   5.831   0.200 -0.3888 -0.1595  0.3282
 9635SOL    HW229805   5.132   5.712   0.297 -0.1027  0.0040  0.3700
 9636SOL     OW29806   5.469   6.550   0.027 -0.0209 -0.2939 -0.0359
 9636SOL    HW129807   5.388   6.491   0.032  1.1071 -2.0523 -1.4044
 9636SOL    HW229808   5.485   6.576  -0.068  1.1068 -0.0980  0.1971
 9637SOL     OW29809   4.094   3.601   6.485 -0.2263 -0.2025 -0.4921
 9637SOL    HW129810   4.101   3.519   6.429  0.5250 -1.2046  0.9979
 9637SOL    HW229811   4.026   3.587   6.556  1.8231 -0.6711  1.5001
 9638SOL     OW29812   2.706   0.419   4.849  0.0837  0.7807 -0.0958
 9638SOL    HW129813   2.776   0.442   4.917 -0.4379 -2.6477  1.7995
 9638SOL    HW229814   2.616   0.441   4.886 -0.1164  0.6216 -0.4895
 9639SOL     OW29815   0.488   1.614   4.012  0.4511  0.3750 -0.0716
 9639SOL    HW129816   0.559   1.684   4.004  0.3855  0.9298  3.1347
 9639SOL    HW229817   0.439   1.626   4.098 -1.9838 -1.4712 -1.0956
 9640SOL     OW29818   4.923   3.574   4.286 -0.1441 -0.0823 -0.2278
 9640SOL    HW129819   4.886   3.481   4.289  0.9334 -0.6903 -3.0486
 9640SOL    HW229820   4.931   3.609   4.379  0.6684 -3.3017  1.0536
 9641SOL     OW29821   0.881   4.521   4.420 -0.2592  0.1534  0.1896
 9641SOL    HW129822   0.931   4.576   4.487  0.9260  0.6108 -1.0291
 9641SOL    HW229823   0.902   4.553   4.328 -2.2535 -0.1258 -0.4148
 9642SOL     OW29824   0.686   2.664   6.168  0.4370 -0.2149 -0.1792
 9642SOL    HW129825   0.589   2.643   6.179  0.7866 -1.4061  0.8370
 9642SOL    HW229826   0.730   2.594   6.113  0.7904  0.1681 -0.3966
 9643SOL     OW29827   4.700   4.459   1.919 -0.6493  0.1868  0.1779
 9643SOL    HW129828   4.619   4.407   1.946 -0.4326  0.3773  1.2535
 9643SOL    HW229829   4.711   4.537   1.981 -0.3910  0.9396 -0.7751
 9644SOL     OW29830   0.186   1.132   2.242  0.2631  0.1572 -0.0947
 9644SOL    HW129831   0.236   1.057   2.288 -0.4122 -0.4521 -0.3316
 9644SOL    HW229832   0.097   1.098   2.212  0.0252  1.0206 -0.3739
 9645SOL     OW29833   1.350   5.870   0.675 -0.1472  0.3300  0.1396
 9645SOL    HW129834   1.316   5.839   0.586 -0.4942  1.3462 -0.0896
 9645SOL    HW229835   1.274   5.879   0.739 -0.1323  1.2618  0.0310
 9646SOL     OW29836   2.851   4.825   0.184 -0.3311  0.2828  0.2472
 9646SOL    HW129837   2.944   4.850   0.214  0.1022  0.2520 -1.0042
 9646SOL    HW229838   2.786   4.891   0.221  0.3233  0.9460  0.2492
 9647SOL     OW29839   5.194   4.589   4.809 -0.1765 -0.5451 -0.5574
 9647SOL    HW129840   5.285   4.559   4.780 -0.1164 -0.4240 -0.4927
 9647SOL    HW229841   5.165   4.536   4.888  0.7771  0.9192  0.8416
 9648SOL     OW29842   0.417   6.710   5.393 -0.2364 -1.0127  0.3203
 9648SOL    HW129843   0.490   6.755   5.341 -0.8523 -1.5433 -1.0601
 9648SOL    HW229844   0.417   6.744   5.487 -1.3353  2.7450 -0.8399
 9649SOL     OW29845   6.195   2.452   1.238 -0.3830  0.2265 -0.6187
 9649SOL    HW129846   6.143   2.367   1.247 -2.1435  1.2474 -0.8846
 9649SOL    HW229847   6.149   2.513   1.173  0.8164  1.4264 -0.3865
 9650SOL     OW29848   3.252   6.607   5.858  0.3659  0.3838  0.0519
 9650SOL    HW129849   3.313   6.670   5.810 -0.3229  1.3356  0.3757
 9650SOL    HW229850   3.305   6.539   5.908  1.1138  0.2679 -0.8926
 9651SOL     OW29851   5.828   4.371   0.540 -0.4520 -0.1872 -0.8715
 9651SOL    HW129852   5.905   4.391   0.480  2.1141  0.5994  2.4004
 9651SOL    HW229853   5.757   4.441   0.528  0.2936  0.3472 -2.4037
 9652SOL     OW29854   3.953   3.906   0.509 -0.3738  0.1992 -0.0580
 9652SOL    HW129855   4.034   3.861   0.472 -0.8460 -1.3850  0.7370
 9652SOL    HW229856   3.930   3.985   0.453  0.0342 -1.0113 -2.0095
 9653SOL     OW29857   0.115   3.742   3.971 -0.1185  0.1887 -0.3515
 9653SOL    HW129858   0.031   3.764   4.020  0.1297 -0.7548  0.5416
 9653SOL    HW229859   0.179   3.698   4.034 -0.5244 -2.8647 -1.9084
 9654SOL     OW29860   1.996   3.949   6.844  0.1664  0.0220  0.5667
 9654SOL    HW129861   1.905   3.907   6.837  0.0668  0.3158  0.0242
 9654SOL    HW229862   2.015   3.973   6.939 -0.2389 -0.2331  0.7133
 9655SOL     OW29863   0.933   6.876   6.214 -0.7232  0.4426  0.2125
 9655SOL    HW129864   0.942   6.968   6.254  0.5995 -0.5169  2.2826
 9655SOL    HW229865   0.924   6.884   6.114  1.8991  2.7380  0.0474
 9656SOL     OW29866   3.659   1.098   6.410  0.6367  0.0120 -0.1017
 9656SOL    HW129867   3.655   1.160   6.331  1.9585  1.6508  1.0371
 9656SOL    HW229868   3.580   1.116   6.469  0.9312  0.5315  0.1443
 9657SOL     OW29869   2.410   0.943   0.367 -0.3108 -0.8593 -0.7724
 9657SOL    HW129870   2.469   0.916   0.292  0.4354  3.9366 -2.2457
 9657SOL    HW229871   2.465   0.983   0.440 -1.3985 -0.9908  0.1545
 9658SOL     OW29872   3.034   4.792   6.689 -0.5711 -0.3942 -0.1265
 9658SOL    HW129873   2.996   4.863   6.749  2.9906  1.4093  0.2951
 9658SOL    HW229874   3.041   4.706   6.739 -2.2147 -0.2815  0.3472
 9659SOL     OW29875   1.907   2.934   0.971  0.5176  1.0260 -0.1013
 9659SOL    HW129876   1.977   3.000   0.942 -1.5392  3.3490 -0.1682
 9659SOL    HW229877   1.878   2.955   1.065  1.8055 -1.6929  1.0156
 9660SOL     OW29878   5.480   2.240   3.028  0.2661 -0.4836 -0.2054
 9660SOL    HW129879   5.424   2.322   3.041  0.5409 -0.3506  0.1405
 9660SOL    HW229880   5.420   2.160   3.024 -0.1059 -0.1739 -1.6845
 9661SOL     OW29881   3.501   0.554   4.196 -0.6604 -0.2591  0.1840
 9661SOL    HW129882   3.428   0.486   4.196 -0.2047 -0.7531  0.8485
 9661SOL    HW229883   3.521   0.581   4.101 -0.7442 -1.1571 -0.0987
 9662SOL     OW29884   3.284   6.665   2.426  0.2898  0.4593  0.8775
 9662SOL    HW129885   3.196   6.709   2.408  0.6495  1.1609  0.7632
 9662SOL    HW229886   3.273   6.566   2.429 -0.0594  0.3354 -1.8787
 9663SOL     OW29887   3.938   7.007   4.195  0.1204  0.0639 -0.2916
 9663SOL    HW129888   3.841   7.013   4.172  0.0228 -0.6633 -0.0919
 9663SOL    HW229889   3.979   7.099   4.192  0.2202  0.0157 -3.6971
 9664SOL     OW29890   2.760   4.770   4.328  0.3007 -0.1285  0.9044
 9664SOL    HW129891   2.748   4.868   4.309  1.3859  0.0082  0.8661
 9664SOL    HW229892   2.724   4.750   4.419  0.2998  0.3591  1.0179
 9665SOL     OW29893   5.732   5.777   1.921 -0.3285  0.2969  0.0655
 9665SOL    HW129894   5.695   5.764   2.013  0.5285  1.2522  0.5661
 9665SOL    HW229895   5.681   5.720   1.856 -0.6402 -0.7546  1.1939
 9666SOL     OW29896   5.185   3.236   0.525  0.0033 -0.3408  0.4068
 9666SOL    HW129897   5.222   3.314   0.577  0.2136 -0.7477  0.8706
 9666SOL    HW229898   5.234   3.228   0.438  0.1839 -0.1385  0.4876
 9667SOL     OW29899   4.735   2.765   2.059 -0.3877 -0.0894 -0.1463
 9667SOL    HW129900   4.647   2.787   2.019  0.4196 -0.0079 -1.9901
 9667SOL    HW229901   4.805   2.827   2.023  0.6991 -1.1965 -0.0317
 9668SOL     OW29902   3.783   0.021   6.125  0.0779 -0.1620  0.0326
 9668SOL    HW129903   3.795   0.117   6.099  1.4159 -0.3465 -0.1098
 9668SOL    HW229904   3.805  -0.038   6.047  0.1776 -0.6025  0.3852
 9669SOL     OW29905   5.720   5.984   0.195 -0.3054  0.2525 -0.7927
 9669SOL    HW129906   5.710   6.036   0.110 -1.0347  2.1564  0.3970
 9669SOL    HW229907   5.789   6.027   0.253  0.9476 -1.6221 -0.7910
 9670SOL     OW29908   6.977   1.590   3.595  0.5475  0.5849 -0.0337
 9670SOL    HW129909   6.927   1.675   3.576 -0.2735 -0.3642 -2.6784
 9670SOL    HW229910   6.985   1.537   3.510 -0.1935 -2.6254  1.7395
 9671SOL     OW29911   0.829   1.521   5.952 -0.2146 -0.0713 -0.9610
 9671SOL    HW129912   0.917   1.499   5.911  0.1377  0.7311 -0.6493
 9671SOL    HW229913   0.819   1.473   6.040  0.0984  0.1894 -0.7844
 9672SOL     OW29914   4.966   5.591   6.836  0.0448  0.2259 -0.4494
 9672SOL    HW129915   4.943   5.516   6.898  0.0151 -0.0904 -0.8436
 9672SOL    HW229916   4.977   5.556   6.743  0.8951  0.5664 -0.4884
 9673SOL     OW29917   0.989   5.100   5.910 -0.5343 -0.2633 -0.2479
 9673SOL    HW129918   1.082   5.083   5.876 -0.4301  0.5735 -0.4084
 9673SOL    HW229919   0.973   5.198   5.915 -1.2983 -0.3983  0.1111
 9674SOL     OW29920   4.321   5.039   5.989  0.1141  0.2200 -0.1764
 9674SOL    HW129921   4.266   4.992   6.059 -0.4550 -0.1688 -0.8702
 9674SOL    HW229922   4.367   4.971   5.932 -0.4794  0.4912 -1.0051
 9675SOL     OW29923   5.804   3.249   2.969 -0.1589 -0.3252  0.6265
 9675SOL    HW129924   5.718   3.241   3.020 -0.4636  1.5527  0.4723
 9675SOL    HW229925   5.801   3.188   2.890 -1.6792  0.2301  0.2060
 9676SOL     OW29926   3.328   2.857   6.695  0.1756 -0.4316 -0.0096
 9676SOL    HW129927   3.378   2.770   6.692  0.8002 -0.0659 -0.2728
 9676SOL    HW229928   3.373   2.923   6.636  0.7668  0.6297  1.5614
 9677SOL     OW29929   5.762   0.523   3.372  0.0178  0.6709  0.6646
 9677SOL    HW129930   5.765   0.532   3.472 -0.1460  0.3545  0.7009
 9677SOL    HW229931   5.808   0.601   3.330  1.2754  0.1559  1.0145
 9678SOL     OW29932   3.644   2.932   3.973  0.6438 -0.4298 -0.5743
 9678SOL    HW129933   3.688   2.981   3.897 -1.8387  1.0696 -1.1740
 9678SOL    HW229934   3.585   2.860   3.936  1.2652 -1.3105  0.1109
 9679SOL     OW29935   6.465   0.983   2.295 -0.0527  0.3246  0.0472
 9679SOL    HW129936   6.374   1.024   2.304  0.3981  1.4648 -0.3816
 9679SOL    HW229937   6.480   0.958   2.199 -0.4060 -1.0726  0.3442
 9680SOL     OW29938   5.474   6.118   3.032 -0.2296  0.3611 -0.0739
 9680SOL    HW129939   5.489   6.208   2.991 -0.6001  0.7275  0.5764
 9680SOL    HW229940   5.563   6.077   3.054 -0.0660  0.8263  0.1631
 9681SOL     OW29941   4.845   4.098   1.691 -0.0214 -0.0117 -0.2706
 9681SOL    HW129942   4.836   4.009   1.736  0.1356  0.3269  0.4364
 9681SOL    HW229943   4.894   4.161   1.751  1.3033  0.0901 -1.4059
 9682SOL     OW29944   6.477   6.802   1.512  0.0426  0.1650 -0.0074
 9682SOL    HW129945   6.563   6.829   1.468  0.5379 -0.6635  0.4335
 9682SOL    HW229946   6.478   6.831   1.608 -0.1067  0.0117  0.0411
 9683SOL     OW29947   1.525   4.556   1.430  0.1168 -0.3049  0.2989
 9683SOL    HW129948   1.481   4.642   1.402  1.7779 -0.2513 -2.5204
 9683SOL    HW229949   1.606   4.578   1.484  0.2289 -0.1200  0.0594
 9684SOL     OW29950   5.712   3.356   6.986  0.5805  0.2924  0.0203
 9684SOL    HW129951   5.795   3.334   7.037 -0.8106 -0.8202  1.9668
 9684SOL    HW229952   5.726   3.339   6.889  1.3915 -4.0893  0.7311
 9685SOL     OW29953   6.018   6.316   6.607  0.3017 -0.0691 -0.4724
 9685SOL    HW129954   6.053   6.400   6.566  0.7329  1.0280  1.9812
 9685SOL    HW229955   5.950   6.339   6.677  1.2075 -1.6711  1.0109
 9686SOL     OW29956   0.540   1.109   4.572  0.3979 -0.4230 -0.0137
 9686SOL    HW129957   0.586   1.129   4.485 -0.3369  1.6749  0.0183
 9686SOL    HW229958   0.608   1.109   4.646  0.6891  0.4719 -0.2598
 9687SOL     OW29959   1.047   0.262   2.647  0.2217  0.1238  0.0130
 9687SOL    HW129960   1.090   0.349   2.625  0.3971  0.4307  1.5301
 9687SOL    HW229961   0.962   0.253   2.594 -0.0389  1.4143  0.1855
 9688SOL     OW29962   5.649   1.324   4.867  0.5331 -0.0571  0.3587
 9688SOL    HW129963   5.610   1.402   4.917 -0.6412  0.1132 -0.7475
 9688SOL    HW229964   5.599   1.312   4.781  1.6896 -1.1005 -0.2007
 9689SOL     OW29965   3.321   1.973   4.153 -0.7663  0.4878  0.2452
 9689SOL    HW129966   3.267   1.927   4.082  0.0140  1.0599 -0.7467
 9689SOL    HW229967   3.317   1.919   4.237 -1.2312 -0.5270 -0.4017
 9690SOL     OW29968   1.156   4.734   4.244  1.0411 -0.2332  0.0071
 9690SOL    HW129969   1.136   4.653   4.190 -1.7122  0.5206 -0.2424
 9690SOL    HW229970   1.105   4.812   4.208  3.8632  1.7897 -0.0060
 9691SOL     OW29971   6.319   3.782   1.959 -0.3135  0.1050  0.2817
 9691SOL    HW129972   6.368   3.862   1.926 -0.3149  0.0514  0.1508
 9691SOL    HW229973   6.353   3.758   2.050 -0.0441  0.0227  0.1600
 9692SOL     OW29974   6.882   0.186   4.485 -0.3341 -0.0604 -0.5390
 9692SOL    HW129975   6.909   0.178   4.389 -2.4958 -2.4201 -1.0590
 9692SOL    HW229976   6.925   0.112   4.537 -2.0041 -1.0630 -0.4946
 9693SOL     OW29977   5.724   2.455   3.763  0.1463  0.3030 -0.0035
 9693SOL    HW129978   5.742   2.357   3.760  1.9453  0.5998 -2.2432
 9693SOL    HW229979   5.780   2.501   3.693 -1.1517  2.8452  0.5105
 9694SOL     OW29980   0.243   0.250   0.300 -0.2474 -0.2653  0.2693
 9694SOL    HW129981   0.191   0.329   0.268 -0.3481 -0.8217 -1.0075
 9694SOL    HW229982   0.182   0.172   0.313 -0.1481 -0.1481  1.5099
 9695SOL     OW29983   3.510   5.011   0.424  0.3239 -0.1323 -0.2878
 9695SOL    HW129984   3.540   4.947   0.495  3.5397  2.0402  0.5530
 9695SOL    HW229985   3.460   5.087   0.467 -0.8598 -0.5730 -0.8664
 9696SOL     OW29986   3.108   6.567   5.588  0.3465 -0.5027 -0.9675
 9696SOL    HW129987   3.081   6.660   5.565  2.8131 -0.1114 -2.7169
 9696SOL    HW229988   3.140   6.564   5.683 -1.0580  0.0783 -0.4553
 9697SOL     OW29989   2.169   3.576   4.962 -0.1342 -0.6916  0.2730
 9697SOL    HW129990   2.148   3.670   4.935 -1.5622 -0.8696  0.7097
 9697SOL    HW229991   2.212   3.529   4.885  2.3701  0.8280  0.6294
 9698SOL     OW29992   3.079   6.105   6.080 -0.3973  0.5444 -0.0080
 9698SOL    HW129993   3.088   6.067   5.988 -2.0248 -1.7596  0.6866
 9698SOL    HW229994   3.165   6.093   6.130  0.4917  1.8043 -1.1575
 9699SOL     OW29995   3.110   6.380   6.176  0.0842  0.8602  0.2179
 9699SOL    HW129996   3.086   6.305   6.114 -0.6320  0.0954  1.3788
 9699SOL    HW229997   3.207   6.377   6.196  0.0792  0.3029  0.1740
 9700SOL     OW29998   6.495   4.259   1.099 -0.0070 -0.5471  0.3156
 9700SOL    HW129999   6.456   4.284   1.010 -2.3604 -1.3025  1.0437
 9700SOL    HW230000   6.570   4.321   1.121 -1.1840  1.4561 -0.9535
 9701SOL     OW30001   4.795   2.162   6.377  0.2592  0.7496  0.2424
 9701SOL    HW130002   4.800   2.218   6.460  2.6235  0.5694  0.2775
 9701SOL    HW230003   4.836   2.211   6.300  0.6981 -0.1956 -0.1496
 9702SOL     OW30004   0.302   0.634   0.137  0.0897 -0.0422  0.2582
 9702SOL    HW130005   0.247   0.550   0.131  0.6703 -0.5121  1.3916
 9702SOL    HW230006   0.243   0.710   0.165 -1.2087  0.7506 -3.9297
 9703SOL     OW30007   0.670   2.676   0.682 -0.7672  0.2806  0.3854
 9703SOL    HW130008   0.644   2.740   0.755 -0.2692 -1.3009  2.0296
 9703SOL    HW230009   0.594   2.667   0.618 -2.6411 -0.8116  2.5921
 9704SOL     OW30010   0.661   5.582   3.562 -0.0362 -0.1353 -0.0940
 9704SOL    HW130011   0.566   5.615   3.557 -0.0650 -0.1140  0.5270
 9704SOL    HW230012   0.661   5.485   3.586  0.1318  0.5036  2.8202
 9705SOL     OW30013   4.687   0.892   2.909 -0.9335 -0.1313  0.1260
 9705SOL    HW130014   4.711   0.888   3.006 -1.8979  0.2432  0.3910
 9705SOL    HW230015   4.765   0.861   2.854 -0.0944  0.4244  0.9772
 9706SOL     OW30016   3.991   2.694   1.116  0.4222  0.1587 -0.3704
 9706SOL    HW130017   4.084   2.720   1.143  1.0714 -1.9478 -0.3394
 9706SOL    HW230018   3.932   2.774   1.115  2.4432  1.7261 -1.2526
 9707SOL     OW30019   0.117   1.347   6.038  0.0011 -0.3771 -0.4884
 9707SOL    HW130020   0.213   1.324   6.051  0.5242  1.2159 -1.2855
 9707SOL    HW230021   0.105   1.393   5.950 -1.7459 -1.8168 -1.0799
 9708SOL     OW30022   3.912   0.479   1.166  0.4311  0.2972 -0.0155
 9708SOL    HW130023   3.975   0.430   1.107 -0.4001 -1.0928  0.1949
 9708SOL    HW230024   3.856   0.413   1.216 -1.5824  1.4606 -0.6251
 9709SOL     OW30025   2.355   1.762   4.247  0.0608  0.2916  0.5403
 9709SOL    HW130026   2.403   1.827   4.188  0.4327  0.3182  0.8689
 9709SOL    HW230027   2.370   1.786   4.343 -0.4953  0.2168  0.6512
 9710SOL     OW30028   0.351   3.606   1.289 -0.0052  0.1819  0.1322
 9710SOL    HW130029   0.419   3.666   1.330  0.9762  0.5845 -1.9731
 9710SOL    HW230030   0.326   3.534   1.354  1.0892  1.0707  1.5720
 9711SOL     OW30031   2.633   4.568   5.918 -0.8853 -0.3320  0.4671
 9711SOL    HW130032   2.660   4.645   5.861  0.6018 -0.7957  0.5081
 9711SOL    HW230033   2.604   4.602   6.008 -1.2405  0.2470  0.1373
 9712SOL     OW30034   4.573   5.322   3.578  0.0252  0.8665  0.8217
 9712SOL    HW130035   4.579   5.289   3.484  3.8118  2.9803  0.1281
 9712SOL    HW230036   4.576   5.422   3.579  2.0493  0.8803  3.1520
 9713SOL     OW30037   0.688   5.757   0.119 -0.3694  0.4143 -0.3582
 9713SOL    HW130038   0.680   5.660   0.142  1.0645  0.0161 -1.3900
 9713SOL    HW230039   0.649   5.812   0.193  1.9462 -0.8657  1.9960
 9714SOL     OW30040   5.222   0.528   3.591  0.0245  0.5036  0.2285
 9714SOL    HW130041   5.192   0.453   3.532  1.0780  0.9934 -0.9794
 9714SOL    HW230042   5.209   0.502   3.687  0.0173 -1.0679 -0.1639
 9715SOL     OW30043   1.347   1.509   6.657  0.0440  0.4129  0.7279
 9715SOL    HW130044   1.371   1.418   6.690  0.2853  0.4523  0.6615
 9715SOL    HW230045   1.336   1.571   6.734  0.3693  0.4466  0.7478
 9716SOL     OW30046   6.989   2.662   1.718 -0.4284 -0.5223  0.1252
 9716SOL    HW130047   7.049   2.717   1.775 -0.6330  0.8183 -0.9133
 9716SOL    HW230048   7.003   2.565   1.739 -0.5139 -0.1000  2.4263
 9717SOL     OW30049   2.203   4.058   1.188 -0.7192  0.0509  0.4047
 9717SOL    HW130050   2.230   4.003   1.108 -0.0676  2.7250 -1.3294
 9717SOL    HW230051   2.104   4.060   1.195 -0.8252  0.4927 -0.9141
 9718SOL     OW30052   2.770   4.566   0.315  0.5901  0.2018  0.6390
 9718SOL    HW130053   2.822   4.611   0.388  1.6145  0.6185 -0.3180
 9718SOL    HW230054   2.758   4.630   0.239  2.5810 -1.2687 -1.0071
 9719SOL     OW30055   3.020   2.778   6.994  0.2195 -0.0357  0.5336
 9719SOL    HW130056   3.081   2.797   7.071 -0.1831  2.5493  0.3112
 9719SOL    HW230057   2.928   2.810   7.016  0.3343  1.8750 -1.3633
 9720SOL     OW30058   4.340   0.299   1.208  0.4972  0.1058  0.1211
 9720SOL    HW130059   4.430   0.258   1.192  0.0978 -0.1431 -1.8158
 9720SOL    HW230060   4.337   0.390   1.166 -0.3552 -0.1657 -0.4330
 9721SOL     OW30061   6.423   5.036   3.241  0.7654 -0.1331 -0.4317
 9721SOL    HW130062   6.482   5.075   3.171  1.7279 -0.9151 -0.0645
 9721SOL    HW230063   6.476   4.979   3.303  0.0914  1.1138  1.4121
 9722SOL     OW30064   4.545   6.459   2.724 -0.4640  0.6329 -0.5513
 9722SOL    HW130065   4.542   6.360   2.736  1.1772  0.7381  1.2820
 9722SOL    HW230066   4.468   6.488   2.667 -0.4401 -1.7697 -1.9585
 9723SOL     OW30067   3.559   6.495   0.591  0.0497  0.4524  0.1083
 9723SOL    HW130068   3.460   6.504   0.579 -0.0904  1.2215  1.6522
 9723SOL    HW230069   3.606   6.550   0.522 -0.6260  1.0930  0.1485
 9724SOL     OW30070   6.049   1.742   4.964  0.1379  0.5444  0.1611
 9724SOL    HW130071   6.115   1.740   4.889 -0.9306  0.4110 -0.8181
 9724SOL    HW230072   6.048   1.653   5.010  0.1202  0.2993 -0.3025
 9725SOL     OW30073   2.344   3.366   6.194  0.0122 -0.8848  0.1012
 9725SOL    HW130074   2.382   3.422   6.120 -1.2585 -1.2205 -0.8258
 9725SOL    HW230075   2.419   3.329   6.249  0.9376  0.2064 -0.3836
 9726SOL     OW30076   6.960   1.880   6.246 -0.5821  0.0672 -0.0061
 9726SOL    HW130077   6.978   1.792   6.204 -0.4315  0.8141 -1.5815
 9726SOL    HW230078   7.027   1.897   6.319 -0.0440 -0.7028 -0.3148
 9727SOL     OW30079   1.143   6.968   4.298  0.3033 -1.1534  0.3197
 9727SOL    HW130080   1.146   6.870   4.319 -0.0143 -0.9584  1.3368
 9727SOL    HW230081   1.229   7.011   4.324 -0.2092 -0.8516  1.5818
 9728SOL     OW30082   3.270   2.143   6.677  0.0491 -0.7513 -0.4680
 9728SOL    HW130083   3.358   2.095   6.678  0.1634 -0.5602 -0.7924
 9728SOL    HW230084   3.283   2.233   6.634 -0.1019 -0.3169  0.3723
 9729SOL     OW30085   5.657   6.686   4.889  0.1084  0.3396  0.3963
 9729SOL    HW130086   5.601   6.636   4.823  0.0235 -0.0855  0.7913
 9729SOL    HW230087   5.754   6.670   4.868  0.0873 -0.7242  1.0687
 9730SOL     OW30088   1.346   2.970   2.999  0.7261  0.5392 -0.9504
 9730SOL    HW130089   1.320   2.929   3.086 -0.3761  0.1996 -1.4248
 9730SOL    HW230090   1.408   2.909   2.951  0.8370  0.4402 -0.6872
 9731SOL     OW30091   4.331   2.358   3.071  0.1050 -0.0137 -0.3951
 9731SOL    HW130092   4.239   2.373   3.034  0.9069  1.6479 -1.8635
 9731SOL    HW230093   4.333   2.384   3.167 -0.9859 -0.1814 -0.3170
 9732SOL     OW30094   2.591   2.716   5.894 -0.1009 -0.4621  0.2242
 9732SOL    HW130095   2.494   2.728   5.869 -0.4337  0.1958  1.7130
 9732SOL    HW230096   2.612   2.774   5.973  1.0381 -2.0117  1.0983
 9733SOL     OW30097   3.168   1.686   2.134 -0.1030  0.6030  0.3536
 9733SOL    HW130098   3.186   1.710   2.230 -4.9527 -0.0620  1.7059
 9733SOL    HW230099   3.123   1.763   2.089  1.1003  0.4872 -1.1006
 9734SOL     OW30100   2.113   3.349   4.169  0.4644 -0.0595  0.0698
 9734SOL    HW130101   2.118   3.374   4.072  1.0616  1.3349  0.4332
 9734SOL    HW230102   2.160   3.418   4.224  0.7407 -1.1882  1.3086
 9735SOL     OW30103   2.858   5.268   2.659 -0.1383 -0.3736 -0.6582
 9735SOL    HW130104   2.860   5.203   2.735  1.1427  0.4565  0.0369
 9735SOL    HW230105   2.930   5.245   2.594  2.0902  1.7795  0.8697
 9736SOL     OW30106   0.209   1.648   5.406  0.2103 -0.5664 -0.0966
 9736SOL    HW130107   0.223   1.709   5.328 -0.0986 -1.9547 -1.2928
 9736SOL    HW230108   0.295   1.603   5.429  0.4859  0.4427  0.9208
 9737SOL     OW30109   6.036   2.702   4.726 -0.1562 -0.2800 -0.3547
 9737SOL    HW130110   6.084   2.761   4.791  0.2671  0.2858 -1.1530
 9737SOL    HW230111   6.009   2.756   4.646 -1.7957 -0.6797 -0.1050
 9738SOL     OW30112   6.259   1.783   5.147 -0.1976  0.3336  0.1880
 9738SOL    HW130113   6.172   1.811   5.106 -0.0793 -0.8683 -0.9752
 9738SOL    HW230114   6.241   1.722   5.224 -0.3889  0.5873  0.3459
 9739SOL     OW30115   5.522   3.913   2.820 -0.4283  0.1839 -0.0014
 9739SOL    HW130116   5.435   3.881   2.782 -0.7194  0.7125  0.2182
 9739SOL    HW230117   5.597   3.870   2.770 -0.8145 -0.0295 -0.4074
 9740SOL     OW30118   3.876   1.504   0.155 -0.0926  0.3513  0.1562
 9740SOL    HW130119   3.802   1.562   0.122  0.7970  0.9578 -0.7849
 9740SOL    HW230120   3.904   1.534   0.246 -1.7380 -0.5887  1.0317
 9741SOL     OW30121   3.111   1.720   4.445  0.0819 -0.2158  0.1556
 9741SOL    HW130122   3.199   1.761   4.424  0.7542 -1.5783  0.2303
 9741SOL    HW230123   3.063   1.776   4.513  0.0072  1.5859 -1.3179
 9742SOL     OW30124   0.124   3.693   3.709 -0.4564 -0.6523  0.0173
 9742SOL    HW130125   0.035   3.654   3.684 -0.7794  0.1039 -0.0492
 9742SOL    HW230126   0.125   3.712   3.807  0.0300 -1.6449  0.2144
 9743SOL     OW30127   1.937   5.595   6.539  0.0312  0.1354  0.2733
 9743SOL    HW130128   1.912   5.574   6.634  0.4329  0.0940  0.3699
 9743SOL    HW230129   2.032   5.627   6.535  0.1082 -0.1344 -0.1472
 9744SOL     OW30130   5.979   0.258   6.385 -0.0053  0.6753  0.0028
 9744SOL    HW130131   6.024   0.295   6.303 -0.0641 -0.3480 -0.5083
 9744SOL    HW230132   5.966   0.160   6.374  0.2780  0.4625  1.3880
 9745SOL     OW30133   3.443   5.304   6.781 -0.4951 -0.1690  0.7210
 9745SOL    HW130134   3.486   5.228   6.831  0.4679  1.4336  2.4705
 9745SOL    HW230135   3.350   5.318   6.816 -0.6352 -0.4725  0.4719
 9746SOL     OW30136   1.044   4.681   3.756  0.2987  0.3397  1.0188
 9746SOL    HW130137   1.087   4.698   3.667 -2.6220  2.1060 -0.2107
 9746SOL    HW230138   1.064   4.756   3.818  2.9692 -1.2554  2.2407
 9747SOL     OW30139   2.478   0.449   3.517  0.2774  0.5968  0.1038
 9747SOL    HW130140   2.473   0.351   3.538 -1.2171  0.6054 -0.0937
 9747SOL    HW230141   2.557   0.489   3.563 -0.2655 -0.2973  1.9034
 9748SOL     OW30142   0.452   2.343   6.111  0.4016  0.1269 -0.0852
 9748SOL    HW130143   0.437   2.441   6.093  0.4893  0.4589  1.4945
 9748SOL    HW230144   0.416   2.321   6.201  1.8191 -0.9550  0.2405
 9749SOL     OW30145   5.624   4.559   0.980 -0.1678  0.2351  0.3311
 9749SOL    HW130146   5.556   4.628   1.005 -0.0293  0.5794 -0.2159
 9749SOL    HW230147   5.714   4.588   1.015 -0.4509 -0.7163  1.9378
 9750SOL     OW30148   6.372   5.990   4.100  0.1696  0.2075 -0.7773
 9750SOL    HW130149   6.377   6.042   4.015  0.7017 -1.3842 -1.7622
 9750SOL    HW230150   6.306   6.033   4.162 -1.1215  0.7395 -2.4598
 9751SOL     OW30151   3.788   2.539   0.579 -0.5199 -0.5377  0.2048
 9751SOL    HW130152   3.863   2.514   0.640 -0.7173  0.7427  0.9953
 9751SOL    HW230153   3.820   2.603   0.510 -1.1678  1.3194  1.5253
 9752SOL     OW30154   5.631   3.447   1.121  0.2259  0.0032  0.3067
 9752SOL    HW130155   5.693   3.395   1.063 -0.9533  0.8060 -1.7608
 9752SOL    HW230156   5.660   3.543   1.124  0.0166  0.0592  0.6717
 9753SOL     OW30157   5.188   2.586   6.435  0.2417 -0.1423 -0.0439
 9753SOL    HW130158   5.222   2.674   6.400  1.5245 -0.2128  0.9664
 9753SOL    HW230159   5.200   2.582   6.534 -1.3215 -0.8209  0.1456
 9754SOL     OW30160   5.551   0.219   0.236  0.6321 -0.0056 -0.2290
 9754SOL    HW130161   5.561   0.313   0.203  0.2570 -0.1165 -0.6669
 9754SOL    HW230162   5.550   0.156   0.158  2.4492 -0.5314  0.1155
 9755SOL     OW30163   3.136   5.954   3.435  0.2988  0.1741 -1.1182
 9755SOL    HW130164   3.159   5.982   3.529  0.7057 -2.7950 -0.2090
 9755SOL    HW230165   3.216   5.966   3.376  0.9265 -0.4228 -0.4151
 9756SOL     OW30166   4.743   6.542   4.257  0.2159 -0.3327 -0.3203
 9756SOL    HW130167   4.741   6.553   4.356 -1.1228 -1.6291 -0.1777
 9756SOL    HW230168   4.721   6.630   4.214 -0.2630 -0.0200  0.5417
 9757SOL     OW30169   0.636   1.661   0.128 -0.0156 -0.4802 -0.5954
 9757SOL    HW130170   0.675   1.744   0.168  1.6399 -0.8218 -1.4002
 9757SOL    HW230171   0.538   1.673   0.113  0.0859  1.0884 -0.1219
 9758SOL     OW30172   0.006   5.779   2.419  0.3981 -0.1522 -0.0532
 9758SOL    HW130173  -0.018   5.727   2.502  2.0746  0.6237  0.9637
 9758SOL    HW230174  -0.048   5.745   2.342 -2.5282  0.2342  1.6541
 9759SOL     OW30175   6.350   3.479   4.981  0.0674  0.0693 -0.2955
 9759SOL    HW130176   6.418   3.415   4.943  0.2935  0.7669 -1.0944
 9759SOL    HW230177   6.266   3.429   5.002 -0.5120 -0.1858 -2.8744
 9760SOL     OW30178   1.576   1.687   3.380  0.1698  0.2994 -0.3416
 9760SOL    HW130179   1.484   1.709   3.411  0.5091  2.3549 -0.6287
 9760SOL    HW230180   1.615   1.614   3.436 -1.7666 -0.9111 -0.4998
 9761SOL     OW30181   5.234   0.205   2.041 -0.5089  0.9127 -0.5639
 9761SOL    HW130182   5.323   0.164   2.061 -1.2421 -0.2739  0.4232
 9761SOL    HW230183   5.194   0.240   2.126 -1.5961  0.1201 -0.7217
 9762SOL     OW30184   5.460   1.640   2.298  0.0876 -0.7947  0.6524
 9762SOL    HW130185   5.401   1.672   2.224 -0.5985  0.2726  1.6289
 9762SOL    HW230186   5.511   1.559   2.268  0.9174  0.4275 -1.4947
 9763SOL     OW30187   0.271   5.840   4.747  0.3454  0.5026 -0.0779
 9763SOL    HW130188   0.274   5.933   4.710  2.3239  0.3417 -0.4328
 9763SOL    HW230189   0.270   5.775   4.671  0.1079  0.2132  0.1738
 9764SOL     OW30190   3.727   4.373   1.063  0.6386  0.4760  0.3128
 9764SOL    HW130191   3.640   4.394   1.017 -0.0492  1.2697  1.8999
 9764SOL    HW230192   3.773   4.298   1.015 -0.3436  0.8232 -1.2543
 9765SOL     OW30193   5.727   2.186   3.746  0.4567 -0.0604  0.2535
 9765SOL    HW130194   5.711   2.165   3.842  1.8670  0.0935  0.5444
 9765SOL    HW230195   5.658   2.140   3.690  1.2513 -2.4668  1.1357
 9766SOL     OW30196   3.892   3.590   4.833  0.3469 -0.1421 -0.1108
 9766SOL    HW130197   3.804   3.588   4.786  1.1214 -0.9457 -1.6093
 9766SOL    HW230198   3.910   3.682   4.865 -1.2815 -0.0800  0.7281
 9767SOL     OW30199   4.157   0.529   6.919 -0.4488 -0.7478 -0.1890
 9767SOL    HW130200   4.181   0.526   6.822 -0.2620  2.5436 -0.3610
 9767SOL    HW230201   4.058   0.542   6.928 -0.4017 -0.5463  0.0373
 9768SOL     OW30202   5.821   6.235   3.863 -0.2769 -0.1125 -0.1252
 9768SOL    HW130203   5.738   6.262   3.911  0.2724 -1.1014  1.4489
 9768SOL    HW230204   5.797   6.187   3.778 -1.2596  1.7104 -0.9370
 9769SOL     OW30205   3.520   1.085   5.080 -0.1148  0.0317  0.0720
 9769SOL    HW130206   3.436   1.082   5.027 -0.4223 -0.4005  0.5671
 9769SOL    HW230207   3.539   0.994   5.118  0.0335  0.3523  0.7936
 9770SOL     OW30208   0.813   2.154   0.250  0.0511 -0.3305 -0.1591
 9770SOL    HW130209   0.911   2.173   0.256  0.6984 -3.4234  1.3516
 9770SOL    HW230210   0.762   2.216   0.310  1.1267  1.0512 -0.6593
 9771SOL     OW30211   1.261   1.936   0.255  0.3048  0.3911 -0.1604
 9771SOL    HW130212   1.176   1.988   0.258  0.3075  0.3800  0.1953
 9771SOL    HW230213   1.339   1.999   0.260  0.3263  0.4358 -0.9968
 9772SOL     OW30214   5.339   6.288   2.684  0.3905  0.1776 -0.4259
 9772SOL    HW130215   5.337   6.349   2.763  0.7707  0.0770 -0.3394
 9772SOL    HW230216   5.267   6.314   2.620  0.1327  0.3069 -0.0826
 9773SOL     OW30217   0.419   0.582   3.333 -0.8239  0.7606  0.0635
 9773SOL    HW130218   0.411   0.674   3.294  1.4825  0.8144 -0.4250
 9773SOL    HW230219   0.377   0.515   3.272 -0.3893  1.2352 -0.7716
 9774SOL     OW30220   5.656   2.331   5.254  0.0368 -0.3359 -0.1708
 9774SOL    HW130221   5.693   2.334   5.161  2.5929  3.3247  0.7732
 9774SOL    HW230222   5.702   2.259   5.306  2.1552  0.7000 -0.5046
 9775SOL     OW30223   1.744   2.251   2.381 -0.2921 -0.7571 -0.0606
 9775SOL    HW130224   1.701   2.192   2.313 -0.0520 -1.7602  0.6346
 9775SOL    HW230225   1.675   2.313   2.419 -0.3522  0.0751 -1.4487
 9776SOL     OW30226   2.823   1.543   3.215  0.5612  0.9489  0.6327
 9776SOL    HW130227   2.874   1.628   3.215  2.5444 -0.1870 -0.1776
 9776SOL    HW230228   2.845   1.490   3.133  1.1054 -1.3155  2.1300
 9777SOL     OW30229   1.425   3.963   5.838  0.5350 -0.2418 -0.5305
 9777SOL    HW130230   1.421   4.050   5.888 -0.7148 -0.2864 -0.5160
 9777SOL    HW230231   1.505   3.911   5.868  1.6051  1.1124 -0.9196
 9778SOL     OW30232   6.778   4.911   0.811  0.2665 -0.3323 -0.0087
 9778SOL    HW130233   6.812   4.970   0.885 -1.0407  0.0969  0.2627
 9778SOL    HW230234   6.770   4.964   0.727  0.0740 -0.3796 -0.0202
 9779SOL     OW30235   6.912   0.438   2.898 -0.3718  0.0595  0.2990
 9779SOL    HW130236   6.971   0.358   2.904 -0.0845  0.3998  4.0078
 9779SOL    HW230237   6.966   0.515   2.862  0.4131 -0.4901  0.2636
 9780SOL     OW30238   0.535   0.636   4.939 -0.5740  0.0231 -0.7475
 9780SOL    HW130239   0.541   0.720   4.994  0.1319 -0.0345 -0.7199
 9780SOL    HW230240   0.601   0.569   4.974 -0.7045 -0.3178 -1.1482
 9781SOL     OW30241   1.111   6.018   1.511 -0.2250 -0.1638 -0.2338
 9781SOL    HW130242   1.053   6.033   1.592  1.1659 -0.0240  0.7714
 9781SOL    HW230243   1.091   5.928   1.472 -1.4608  0.0809 -0.2223
 9782SOL     OW30244   1.129   3.122   3.234 -0.0759 -0.2019 -0.2534
 9782SOL    HW130245   1.122   3.096   3.138  1.0656 -0.3392 -0.3122
 9782SOL    HW230246   1.072   3.202   3.251 -1.9340 -1.3958 -0.5569
 9783SOL     OW30247   5.581   5.958   2.648  0.5591 -0.4171  0.1672
 9783SOL    HW130248   5.605   5.874   2.698  0.8355 -0.2476  0.3200
 9783SOL    HW230249   5.486   5.982   2.669  0.5749 -0.5199  0.3668
 9784SOL     OW30250   4.677   4.719   3.178 -0.1739  0.2530  0.5929
 9784SOL    HW130251   4.606   4.772   3.132 -1.5659 -0.9077  1.3112
 9784SOL    HW230252   4.636   4.638   3.221  1.7137 -0.9027  0.3538
 9785SOL     OW30253   5.571   4.959   1.240 -0.7138  0.5216  0.1468
 9785SOL    HW130254   5.500   4.989   1.177  0.4956  0.3289 -1.3828
 9785SOL    HW230255   5.654   4.936   1.188  0.0666 -0.4598  1.7444
 9786SOL     OW30256   1.494   3.621   5.232  0.2556 -0.2042 -0.3783
 9786SOL    HW130257   1.496   3.719   5.251  0.0690 -0.5544  1.6806
 9786SOL    HW230258   1.558   3.600   5.158  2.3597  1.1642  0.9354
 9787SOL     OW30259   2.054   4.962   2.891 -0.7202  0.3626 -0.3543
 9787SOL    HW130260   2.152   4.951   2.879 -0.6569  0.8206 -0.2749
 9787SOL    HW230261   2.007   4.942   2.805 -0.6445 -0.8283 -0.1374
 9788SOL     OW30262   6.042   4.573   6.326  0.1276 -0.5918  0.5243
 9788SOL    HW130263   5.944   4.556   6.322  0.0199 -0.3019  1.5639
 9788SOL    HW230264   6.091   4.491   6.297 -0.4079 -0.5661 -0.5096
 9789SOL     OW30265   4.683   6.849   5.966 -0.4217  0.9094  0.2759
 9789SOL    HW130266   4.606   6.869   6.027  0.1932 -0.2958  1.4965
 9789SOL    HW230267   4.696   6.750   5.960  0.9600  1.0885 -0.0103
 9790SOL     OW30268   1.460   6.938   3.959  0.0387 -0.1099  0.7671
 9790SOL    HW130269   1.371   6.892   3.965 -0.4287  0.3992 -1.3087
 9790SOL    HW230270   1.532   6.870   3.950 -0.2089 -0.5104  1.7118
 9791SOL     OW30271   5.195   1.405   2.287  0.1796 -0.0197  0.0955
 9791SOL    HW130272   5.252   1.389   2.206 -1.4186  0.5370 -1.2022
 9791SOL    HW230273   5.164   1.500   2.287  1.6585  0.5577  2.4318
 9792SOL     OW30274   4.162   0.657   5.307 -0.0264  0.3791  0.1423
 9792SOL    HW130275   4.109   0.710   5.241 -0.7558 -1.3366 -0.7313
 9792SOL    HW230276   4.253   0.639   5.270  0.4026  1.4055  0.6591
 9793SOL     OW30277   6.455   6.538   0.847  0.2336 -0.0458 -0.2234
 9793SOL    HW130278   6.371   6.542   0.791 -0.0061 -2.3564 -0.1201
 9793SOL    HW230279   6.448   6.462   0.911  2.7709 -0.8363 -0.7951
 9794SOL     OW30280   2.113   0.133   3.313  0.4734  0.0285  0.6441
 9794SOL    HW130281   2.177   0.059   3.334  1.8420  1.3379  1.2715
 9794SOL    HW230282   2.108   0.146   3.213  1.0287 -0.2118  0.5835
 9795SOL     OW30283   2.280   1.014   2.538 -0.4880 -0.2432 -0.0433
 9795SOL    HW130284   2.347   0.940   2.553 -0.2338  0.2540  1.4619
 9795SOL    HW230285   2.307   1.094   2.592 -1.9776  0.1718  0.1097
 9796SOL     OW30286   4.766   0.136   3.592 -0.5457  0.1154  0.2002
 9796SOL    HW130287   4.783   0.121   3.689  2.0307 -0.8655 -0.3191
 9796SOL    HW230288   4.746   0.233   3.576  1.2993  0.7625  1.4791
 9797SOL     OW30289   0.297   2.150   4.773 -0.0938 -0.3595  0.4560
 9797SOL    HW130290   0.211   2.127   4.728 -0.5323 -0.1106  1.1538
 9797SOL    HW230291   0.333   2.234   4.733 -0.2373 -0.3947  0.2472
 9798SOL     OW30292   1.632   6.290   2.669 -0.1171  0.5104 -0.2924
 9798SOL    HW130293   1.593   6.379   2.690 -0.4629  0.1884  0.4957
 9798SOL    HW230294   1.701   6.267   2.738 -0.3021  0.0105 -0.2654
 9799SOL     OW30295   4.018   6.910   2.838 -0.7093  0.2091 -0.1834
 9799SOL    HW130296   3.934   6.917   2.785 -0.0518  2.9915 -0.9893
 9799SOL    HW230297   4.010   6.965   2.921  0.1822  0.2691 -0.1228
 9800SOL     OW30298   5.260   4.999   0.358  0.6069 -0.2418 -0.2976
 9800SOL    HW130299   5.346   4.974   0.403  0.8560  2.1281  0.6675
 9800SOL    HW230300   5.228   5.087   0.393 -2.4906 -1.2545 -0.3101
 9801SOL     OW30301   6.340   0.103   2.568  0.1339 -0.3105 -0.1054
 9801SOL    HW130302   6.310   0.075   2.660  2.5804  0.2158  0.9246
 9801SOL    HW230303   6.320   0.200   2.556  0.5426 -0.1844  0.2049
 9802SOL     OW30304   2.541   4.888   1.927  0.1987 -0.3695 -0.3251
 9802SOL    HW130305   2.578   4.922   2.014 -0.0260 -1.8685  0.3878
 9802SOL    HW230306   2.457   4.837   1.944  0.2124 -0.7902 -1.4134
 9803SOL     OW30307   5.939   4.457   5.633 -0.2034  0.4038  0.3567
 9803SOL    HW130308   6.036   4.476   5.648  0.2182 -1.2002 -0.2049
 9803SOL    HW230309   5.908   4.507   5.552  0.8466 -1.0621 -1.0110
 9804SOL     OW30310   1.269   0.952   4.933  0.2203  0.0474  0.3104
 9804SOL    HW130311   1.284   1.002   4.847 -2.3148  0.6830  0.1580
 9804SOL    HW230312   1.357   0.933   4.976  1.6507 -0.9618 -2.7664
 9805SOL     OW30313   3.478   2.515   1.624  0.1741 -0.2820  0.3296
 9805SOL    HW130314   3.577   2.499   1.620  0.2835  0.4881 -0.5992
 9805SOL    HW230315   3.455   2.555   1.712  0.6901 -0.4712  0.5593
 9806SOL     OW30316   3.485   6.453   5.056  0.1162 -0.1246 -0.5258
 9806SOL    HW130317   3.402   6.494   5.093  0.0336 -0.9125  0.2150
 9806SOL    HW230318   3.488   6.356   5.082  1.9520  0.2071  0.6884
 9807SOL     OW30319   3.919   2.491   6.857 -0.1066 -0.3812 -0.9725
 9807SOL    HW130320   3.890   2.399   6.833 -0.3931  0.1508 -2.8612
 9807SOL    HW230321   3.900   2.553   6.780  0.8998  1.0795 -0.0989
 9808SOL     OW30322   6.774   0.701   3.046  0.0257 -0.3614 -0.5583
 9808SOL    HW130323   6.710   0.636   3.087 -0.5859 -0.8476 -2.1964
 9808SOL    HW230324   6.726   0.759   2.980  0.8680  0.7350 -0.2400
 9809SOL     OW30325   5.785   4.632   1.585  0.0908  0.0934  0.0796
 9809SOL    HW130326   5.700   4.665   1.625 -0.9356 -1.6049 -0.5836
 9809SOL    HW230327   5.794   4.534   1.601  2.2647  0.3298  0.6793
 9810SOL     OW30328   2.280   0.059   0.046 -0.0383  0.1541 -0.4608
 9810SOL    HW130329   2.294   0.147  -0.001  1.0618  0.9492  1.2754
 9810SOL    HW230330   2.185   0.054   0.077  0.4193  1.7960  1.3991
 9811SOL     OW30331   6.285   5.332   3.253 -0.5889 -0.4991 -0.5275
 9811SOL    HW130332   6.204   5.281   3.285  0.6447 -0.6798  2.6659
 9811SOL    HW230333   6.317   5.392   3.325  2.4165 -0.7628 -1.5073
 9812SOL     OW30334   2.824   1.343   0.956 -0.4781  0.5142  0.0603
 9812SOL    HW130335   2.759   1.415   0.932 -1.2516  0.0748  0.7853
 9812SOL    HW230336   2.916   1.382   0.960 -0.6990  1.1724 -0.8411
 9813SOL     OW30337   2.813   3.896   6.401  0.1370  0.5179 -0.2941
 9813SOL    HW130338   2.829   3.879   6.304 -0.9323 -2.2392 -0.0652
 9813SOL    HW230339   2.747   3.830   6.437 -1.8928  3.3074  1.6562
 9814SOL     OW30340   1.677   1.549   6.501 -0.5460 -0.5463 -0.1665
 9814SOL    HW130341   1.630   1.628   6.542 -2.5210 -2.1456  0.8349
 9814SOL    HW230342   1.628   1.520   6.419 -0.0131 -0.9177 -0.3599
 9815SOL     OW30343   6.656   0.453   5.953 -0.1310  0.0545 -0.5213
 9815SOL    HW130344   6.566   0.494   5.962 -0.0027  0.0528  1.0626
 9815SOL    HW230345   6.660   0.398   5.870 -0.8347  1.8749 -1.8196
 9816SOL     OW30346   3.142   2.005   5.483  0.1682  0.0102  0.2335
 9816SOL    HW130347   3.083   2.052   5.417  0.1912 -0.3035 -0.0115
 9816SOL    HW230348   3.196   2.073   5.533  0.1921  0.2447 -0.1090
 9817SOL     OW30349   5.531   1.880   1.529 -0.7805 -0.1888 -0.0231
 9817SOL    HW130350   5.459   1.827   1.484 -2.1825  0.1538  1.7079
 9817SOL    HW230351   5.511   1.977   1.521 -0.7554 -0.1066  0.8306
 9818SOL     OW30352   4.680   1.208   6.815  0.0196 -0.0942 -0.4330
 9818SOL    HW130353   4.663   1.287   6.756  0.0994  1.0648  1.0388
 9818SOL    HW230354   4.681   1.125   6.760  1.0715  1.0315 -2.2044
 9819SOL     OW30355   2.574   1.494   6.123 -0.3849  0.0181  0.1621
 9819SOL    HW130356   2.606   1.497   6.028 -0.7803 -1.5882 -0.0395
 9819SOL    HW230357   2.510   1.419   6.135 -2.6104  1.9307  1.0515
 9820SOL     OW30358   3.652   0.294   4.703  0.0479  0.0610  0.8028
 9820SOL    HW130359   3.724   0.364   4.698  1.0842 -1.0132 -0.1291
 9820SOL    HW230360   3.675   0.219   4.641 -2.1151 -0.1431  0.1655
 9821SOL     OW30361   0.968   3.890   5.041  0.2953 -0.1248 -0.0856
 9821SOL    HW130362   0.944   3.813   4.983  0.3176  0.3866 -0.7907
 9821SOL    HW230363   0.997   3.967   4.984 -2.4381  1.3857  0.3980
 9822SOL     OW30364   4.311   6.471   4.281 -0.2352 -0.2753 -0.6212
 9822SOL    HW130365   4.346   6.546   4.223 -1.6369 -1.0402 -2.5755
 9822SOL    HW230366   4.367   6.464   4.364  1.6612  1.1241 -1.6932
 9823SOL     OW30367   1.681   5.819   0.216  0.0543  0.2027  0.2475
 9823SOL    HW130368   1.751   5.750   0.201  2.2611  2.3681 -0.1301
 9823SOL    HW230369   1.669   5.873   0.133 -0.5830  1.1609  0.9376
 9824SOL     OW30370   3.675   5.972   0.396  0.8674  0.2561  0.2720
 9824SOL    HW130371   3.624   5.906   0.451  0.3801  0.6363  0.2830
 9824SOL    HW230372   3.611   6.030   0.346  1.3017  0.1700 -0.4001
 9825SOL     OW30373   5.497   6.158   4.446  0.4296 -0.3074 -0.4722
 9825SOL    HW130374   5.434   6.203   4.383 -0.6466 -0.0751  0.7360
 9825SOL    HW230375   5.580   6.213   4.457 -0.2347  0.6526 -0.1595
 9826SOL     OW30376   4.052   4.005   6.814  0.2816 -0.0323  0.0126
 9826SOL    HW130377   4.099   4.070   6.872  0.1715 -1.8283  2.2446
 9826SOL    HW230378   3.971   3.970   6.861 -1.4034  0.4057 -2.3486
 9827SOL     OW30379   6.641   3.552   2.657  0.1384  0.0372 -0.1871
 9827SOL    HW130380   6.610   3.638   2.698  2.8522  0.7020  0.6835
 9827SOL    HW230381   6.613   3.549   2.561 -2.3607  0.5640  0.4419
 9828SOL     OW30382   5.398   3.595   2.037 -0.1718 -0.1721  0.2869
 9828SOL    HW130383   5.385   3.694   2.036  1.1192  0.0138 -0.6183
 9828SOL    HW230384   5.462   3.569   1.965 -1.3075 -1.7989 -0.1988
 9829SOL     OW30385   5.083   1.547   2.891  0.0016  0.4443 -0.1667
 9829SOL    HW130386   5.030   1.470   2.855  0.1035 -0.0833  0.7697
 9829SOL    HW230387   5.020   1.620   2.918 -0.1307  0.4990 -0.6191
 9830SOL     OW30388   1.002   3.360   4.971 -0.8091  0.3351 -0.1149
 9830SOL    HW130389   0.942   3.397   5.042  0.5071 -0.3962  1.4419
 9830SOL    HW230390   1.094   3.397   4.982 -0.6731  0.5873 -1.7815
 9831SOL     OW30391   3.418   2.113   5.123 -0.0403 -0.4093 -0.2393
 9831SOL    HW130392   3.342   2.158   5.075 -0.6331 -0.7650  0.3500
 9831SOL    HW230393   3.420   2.144   5.218  0.1848 -0.8524 -0.0997
 9832SOL     OW30394   6.670   2.365   5.545 -0.2714 -0.2708 -0.2328
 9832SOL    HW130395   6.677   2.272   5.510  2.1622 -1.0640  2.0836
 9832SOL    HW230396   6.580   2.380   5.584 -1.2941 -0.9994 -2.1865
 9833SOL     OW30397   5.384   5.099   1.572 -0.1827 -0.0634 -0.0624
 9833SOL    HW130398   5.438   5.179   1.547 -0.3370 -0.1013 -0.5268
 9833SOL    HW230399   5.441   5.036   1.626  1.3239 -1.6580 -3.2633
 9834SOL     OW30400   1.786   5.544   1.624  0.1045  0.1512  0.7934
 9834SOL    HW130401   1.831   5.629   1.652 -0.6020  0.9629 -0.4351
 9834SOL    HW230402   1.836   5.504   1.547  0.7409 -0.8574  1.7025
 9835SOL     OW30403   2.185   3.012   1.210 -0.3525  0.6444 -0.0360
 9835SOL    HW130404   2.277   3.033   1.245 -0.1187 -0.2810 -0.0747
 9835SOL    HW230405   2.118   3.027   1.283 -0.1433  1.0267  0.0839
 9836SOL     OW30406   4.056   6.061   0.682 -0.1987  0.3807  0.4243
 9836SOL    HW130407   3.964   6.023   0.696 -0.2462  0.7405  1.1413
 9836SOL    HW230408   4.052   6.132   0.611 -0.6009  0.8328  0.8914
 9837SOL     OW30409   3.870   3.951   2.043  0.4395 -0.3549 -0.1683
 9837SOL    HW130410   3.857   3.995   1.954 -1.0056 -1.2040 -0.4057
 9837SOL    HW230411   3.953   3.896   2.041  0.4242 -0.3613 -0.9944
 9838SOL     OW30412   2.677   3.118   5.600 -0.4812  0.4023 -0.0974
 9838SOL    HW130413   2.640   3.099   5.691  0.3556 -0.6157  0.0562
 9838SOL    HW230414   2.689   3.031   5.551  0.1888  0.8428 -0.7295
 9839SOL     OW30415   6.389   2.565   6.689  0.2491  0.0972 -0.5361
 9839SOL    HW130416   6.294   2.535   6.689  0.2088  0.2211 -1.5655
 9839SOL    HW230417   6.439   2.516   6.761 -0.5974  0.0925  0.0698
 9840SOL     OW30418   4.466   1.197   6.322  0.6065  0.7349  0.0648
 9840SOL    HW130419   4.522   1.276   6.347 -0.0939  1.2849 -0.0571
 9840SOL    HW230420   4.498   1.116   6.371  1.7088  0.9636 -0.2518
 9841SOL     OW30421   6.244   6.287   4.437 -0.6780  0.0934 -0.4260
 9841SOL    HW130422   6.200   6.370   4.471  1.1041  1.5515 -1.4643
 9841SOL    HW230423   6.221   6.273   4.341 -1.1335 -0.7706 -0.2070
 9842SOL     OW30424   2.820   5.702   3.364  0.1946 -0.2778 -0.5341
 9842SOL    HW130425   2.747   5.649   3.407  1.4954 -1.5588  0.1761
 9842SOL    HW230426   2.844   5.662   3.276  0.3010 -0.0975 -0.5882
 9843SOL     OW30427   6.726   4.390   6.883  0.4102 -0.6387 -0.5213
 9843SOL    HW130428   6.695   4.471   6.933  1.2369 -0.5357 -0.1625
 9843SOL    HW230429   6.815   4.408   6.843  0.8089 -1.5211 -0.0507
 9844SOL     OW30430   6.315   0.873   6.432 -0.1595  0.4227  0.0253
 9844SOL    HW130431   6.390   0.807   6.443 -0.7455 -0.2449  0.0834
 9844SOL    HW230432   6.304   0.895   6.335 -0.6080 -0.3536 -0.1145
 9845SOL     OW30433   4.670   6.774   4.828 -0.1461 -0.1075 -0.1829
 9845SOL    HW130434   4.635   6.716   4.755  2.4240 -2.2573  0.1686
 9845SOL    HW230435   4.636   6.740   4.916 -1.8200  1.4288 -0.1628
 9846SOL     OW30436   0.759   0.743   5.931  0.1729  0.1166 -0.1706
 9846SOL    HW130437   0.714   0.831   5.946  0.0441  0.4628 -2.2726
 9846SOL    HW230438   0.707   0.690   5.863 -0.4210 -2.1442  1.9037
 9847SOL     OW30439   4.985   0.594   5.680  0.1617  0.1670 -0.2125
 9847SOL    HW130440   5.051   0.528   5.643 -0.2768 -0.6588  0.4530
 9847SOL    HW230441   4.915   0.546   5.733 -1.5720  0.9007 -1.7081
 9848SOL     OW30442   6.909   6.093   2.418  0.2639  0.2270  0.1633
 9848SOL    HW130443   6.888   6.120   2.512 -1.5168 -0.4807  0.0068
 9848SOL    HW230444   6.964   6.009   2.419  1.6052  1.0834  0.5664
 9849SOL     OW30445   2.478   0.599   3.874 -0.1140  0.1233  0.2446
 9849SOL    HW130446   2.531   0.682   3.893 -0.7806  0.0747  2.6222
 9849SOL    HW230447   2.428   0.611   3.788  0.7548  1.7008 -0.0748
 9850SOL     OW30448   2.635   4.918   1.071  0.3977 -0.3242 -0.8424
 9850SOL    HW130449   2.556   4.878   1.117  0.0272  0.4385 -0.7964
 9850SOL    HW230450   2.718   4.897   1.122  0.1824 -0.8139 -0.6885
 9851SOL     OW30451   0.808   6.461   1.172 -0.2361  0.4108  0.3449
 9851SOL    HW130452   0.723   6.507   1.197  0.2557  1.2494  0.5037
 9851SOL    HW230453   0.884   6.525   1.178  0.4614 -0.4089  0.4989
 9852SOL     OW30454   3.962   1.254   4.159  0.1478 -0.7497 -0.0120
 9852SOL    HW130455   3.942   1.347   4.130  1.7258 -0.6363 -0.8277
 9852SOL    HW230456   3.902   1.190   4.112  0.2974 -0.2796 -0.8560
 9853SOL     OW30457   0.640   3.866   3.747 -0.1135  0.0783  0.2502
 9853SOL    HW130458   0.543   3.852   3.768  0.0959 -0.7127  0.7730
 9853SOL    HW230459   0.695   3.814   3.813  0.6850  1.1307  0.4291
 9854SOL     OW30460   0.490   2.201   0.190  0.0574  0.0954 -0.7349
 9854SOL    HW130461   0.477   2.282   0.247 -1.2982 -0.7315  0.1788
 9854SOL    HW230462   0.438   2.124   0.228  0.1991 -0.8428 -2.3435
 9855SOL     OW30463   7.009   3.605   4.363  0.5090 -0.4758  0.0022
 9855SOL    HW130464   6.969   3.572   4.448 -2.1868 -0.5460 -1.1958
 9855SOL    HW230465   7.045   3.697   4.376  1.7328 -1.1367  1.6120
 9856SOL     OW30466   3.531   0.453   1.442 -0.3213  0.4916 -0.3469
 9856SOL    HW130467   3.596   0.400   1.497 -2.2774  0.8154  2.4435
 9856SOL    HW230468   3.567   0.545   1.429 -0.3772  0.8471  1.6580
 9857SOL     OW30469   4.408   2.430   0.484  0.6706 -0.5078  0.0093
 9857SOL    HW130470   4.387   2.528   0.472  1.0524 -0.5553 -1.2312
 9857SOL    HW230471   4.448   2.395   0.399 -0.2092 -1.9358  0.1642
 9858SOL     OW30472   0.254   3.332   1.123  0.0692  0.2262  0.0888
 9858SOL    HW130473   0.305   3.271   1.062 -0.7226 -0.6637  0.2955
 9858SOL    HW230474   0.304   3.342   1.209  0.0930 -0.2991  0.1368
 9859SOL     OW30475   0.935   2.349   6.641 -0.4957  0.4367  0.6543
 9859SOL    HW130476   0.951   2.436   6.594  0.3460  1.9001  3.3817
 9859SOL    HW230477   0.933   2.275   6.575  1.3928  2.1972 -1.5493
 9860SOL     OW30478   4.295   1.982   3.148 -0.0562 -0.4317 -0.0839
 9860SOL    HW130479   4.384   2.022   3.169 -0.0250 -0.1293 -0.7620
 9860SOL    HW230480   4.276   1.992   3.050 -0.9686 -0.2018  0.1016
 9861SOL     OW30481   5.216   1.135   3.603  0.1679  0.7386 -0.7861
 9861SOL    HW130482   5.286   1.193   3.561 -0.1465  0.3534 -1.8964
 9861SOL    HW230483   5.193   1.169   3.694  0.9605  1.5427 -0.8788
 9862SOL     OW30484   3.173   3.516   4.646  0.0934  0.5643 -0.0358
 9862SOL    HW130485   3.235   3.446   4.680  0.7708  1.2658  0.2013
 9862SOL    HW230486   3.079   3.482   4.649  0.4589 -0.5020 -0.3864
 9863SOL     OW30487   4.121   5.542   0.796 -0.1199 -0.1737 -0.5690
 9863SOL    HW130488   4.094   5.575   0.706 -0.5839  1.2838  0.0837
 9863SOL    HW230489   4.219   5.555   0.808 -0.4501  2.0014  0.0664
 9864SOL     OW30490   2.810   1.979   0.944 -0.0015  0.5382  0.2139
 9864SOL    HW130491   2.742   1.995   1.015 -1.7832  1.1305 -1.5382
 9864SOL    HW230492   2.808   1.883   0.918 -0.9416  0.7566 -0.5568
 9865SOL     OW30493   0.681   2.270   2.514 -0.7430 -0.6669 -0.1118
 9865SOL    HW130494   0.593   2.223   2.521 -0.5357 -0.8426  2.5315
 9865SOL    HW230495   0.665   2.368   2.502 -1.3938 -0.5081  1.7351
 9866SOL     OW30496   3.791   3.590   1.452 -0.0993 -0.3421 -0.3880
 9866SOL    HW130497   3.838   3.672   1.422  1.0298 -1.8763 -3.1769
 9866SOL    HW230498   3.712   3.615   1.508  0.3804  2.5889 -0.8971
 9867SOL     OW30499   6.973   6.872   1.067 -0.0022 -0.2033 -0.5913
 9867SOL    HW130500   6.969   6.959   1.116 -0.9286  0.4640 -1.8233
 9867SOL    HW230501   7.061   6.865   1.019  0.4495 -0.3756  0.2294
 9868SOL     OW30502   1.606   3.912   5.560 -0.1027 -0.5390  0.5354
 9868SOL    HW130503   1.580   3.820   5.588  0.4430 -0.4972  1.2214
 9868SOL    HW230504   1.525   3.969   5.552 -0.6075 -1.4676 -1.4138
 9869SOL     OW30505   0.947   3.157   1.574  0.3301  0.2563 -0.5369
 9869SOL    HW130506   0.859   3.111   1.582  0.4898 -0.7577 -3.4748
 9869SOL    HW230507   1.020   3.092   1.595  0.4329  0.3883 -0.4886
 9870SOL     OW30508   5.152   3.097   2.209  0.0091 -0.1626  0.7215
 9870SOL    HW130509   5.200   3.142   2.285  0.0916 -0.6938  0.9856
 9870SOL    HW230510   5.055   3.122   2.211 -0.0175 -0.2954  1.0885
 9871SOL     OW30511   2.425   1.776   6.047 -0.2291  0.3507  0.0898
 9871SOL    HW130512   2.437   1.721   6.129  0.3401  0.3984  0.0425
 9871SOL    HW230513   2.388   1.719   5.973  0.1812  0.0816  0.0946
 9872SOL     OW30514   5.242   0.949   3.995  0.0057 -0.4678  0.4308
 9872SOL    HW130515   5.307   1.013   3.954 -2.0755  0.1777 -2.0878
 9872SOL    HW230516   5.214   0.984   4.085  0.0163  1.4306 -0.2515
 9873SOL     OW30517   2.530   5.576   4.880 -0.1563 -0.4679 -0.3919
 9873SOL    HW130518   2.493   5.484   4.870 -2.4556  0.3470  0.0993
 9873SOL    HW230519   2.512   5.610   4.972 -1.6096  1.3545 -1.2728
 9874SOL     OW30520   0.399   2.180   3.341  0.1945  0.3773 -0.8208
 9874SOL    HW130521   0.405   2.261   3.283  0.7353  1.4272  0.6708
 9874SOL    HW230522   0.465   2.112   3.310 -1.0294 -0.0095 -2.7885
 9875SOL     OW30523   4.695   2.086   3.662 -0.3791 -0.0564 -0.2526
 9875SOL    HW130524   4.707   2.182   3.636 -0.1885 -0.3276 -1.2242
 9875SOL    HW230525   4.761   2.062   3.733  0.4642  0.1916 -0.9354
 9876SOL     OW30526   0.314   3.753   0.726 -0.4732 -0.5139  0.4692
 9876SOL    HW130527   0.368   3.820   0.674 -1.2707  0.8634  1.3396
 9876SOL    HW230528   0.362   3.665   0.727  0.3288 -0.1398 -1.2102
 9877SOL     OW30529   2.257   2.249   2.318  0.1402  0.1456  0.1395
 9877SOL    HW130530   2.173   2.198   2.336 -1.0859  2.2865  0.9403
 9877SOL    HW230531   2.295   2.281   2.405  2.8755 -2.2767 -0.0383
 9878SOL     OW30532   0.579   3.925   0.058  0.3633  0.0262 -0.2997
 9878SOL    HW130533   0.541   3.911  -0.033 -0.3933 -1.7775  0.2649
 9878SOL    HW230534   0.669   3.967   0.050 -0.0354  0.6614 -1.8243
 9879SOL     OW30535   1.362   2.543   6.209 -0.5406  0.2095 -0.2873
 9879SOL    HW130536   1.394   2.456   6.171 -0.3169  0.3171 -0.3495
 9879SOL    HW230537   1.278   2.528   6.261  0.5391 -0.3800  1.3740
 9880SOL     OW30538   4.406   4.159   6.072  0.2700 -0.5432 -0.1512
 9880SOL    HW130539   4.406   4.092   5.997 -1.0756 -0.5098 -0.2069
 9880SOL    HW230540   4.473   4.132   6.141  1.0937 -0.9104 -1.0628
 9881SOL     OW30541   1.995   3.686   1.129  0.2503 -0.0472  0.5319
 9881SOL    HW130542   2.023   3.700   1.224  0.2222  0.6596  0.4393
 9881SOL    HW230543   1.916   3.624   1.126  0.2329 -0.0469  0.9691
 9882SOL     OW30544   3.962   2.405   1.103 -0.2561  0.2338  0.0938
 9882SOL    HW130545   3.892   2.391   1.174  0.9195 -0.6535  1.1191
 9882SOL    HW230546   3.969   2.502   1.082  0.0400  0.6405  1.9058
 9883SOL     OW30547   1.692   4.062   2.152 -0.2958  0.1995  0.0739
 9883SOL    HW130548   1.780   4.029   2.118  0.7518  1.0859  1.7700
 9883SOL    HW230549   1.631   4.079   2.074  1.4363  0.7161 -1.2490
 9884SOL     OW30550   4.069   3.470   5.020 -0.2682 -0.2600 -0.4114
 9884SOL    HW130551   4.003   3.501   4.951  0.8383  0.1007 -1.3397
 9884SOL    HW230552   4.044   3.378   5.050 -1.0918 -0.2054 -0.8856
 9885SOL     OW30553   5.719   2.607   0.317 -0.1472 -0.0989 -0.1056
 9885SOL    HW130554   5.711   2.508   0.303 -0.2139 -0.2424  0.8632
 9885SOL    HW230555   5.784   2.625   0.391 -0.2263  0.5856 -0.1936
 9886SOL     OW30556   6.616   6.211   0.741 -0.2931 -0.1931  0.0277
 9886SOL    HW130557   6.593   6.115   0.754 -1.0958  0.0711  0.6754
 9886SOL    HW230558   6.670   6.243   0.820 -0.9388  0.1509  0.3398
 9887SOL     OW30559   6.330   1.833   4.123 -0.1772 -0.5625 -0.0768
 9887SOL    HW130560   6.326   1.825   4.223 -1.1262 -1.5507 -0.1667
 9887SOL    HW230561   6.302   1.925   4.096 -0.2911 -0.4045  0.5559
 9888SOL     OW30562   0.569   6.549   1.311  0.0359  0.1253  0.3551
 9888SOL    HW130563   0.541   6.572   1.405  1.3621  1.3202  0.4773
 9888SOL    HW230564   0.589   6.633   1.260 -1.8095 -0.4269 -1.4045
 9889SOL     OW30565   2.470   5.157   1.148 -0.1438 -0.4837 -1.1491
 9889SOL    HW130566   2.381   5.163   1.101 -1.1432 -3.5180  0.1223
 9889SOL    HW230567   2.517   5.073   1.120  1.5439  0.1769 -0.4331
 9890SOL     OW30568   0.931   1.088   0.932 -0.1602 -0.5038  0.8344
 9890SOL    HW130569   1.001   1.156   0.906  0.6226 -1.9837 -1.2128
 9890SOL    HW230570   0.840   1.125   0.911  0.1502  0.4591  1.1257
 9891SOL     OW30571   1.018   0.375   6.456  0.7068 -0.9902  0.1379
 9891SOL    HW130572   1.029   0.385   6.357 -1.0170  1.8166  0.1355
 9891SOL    HW230573   1.076   0.441   6.503 -0.1549 -0.7571  0.8940
 9892SOL     OW30574   1.682   2.303   1.641 -0.2199  0.2424 -0.0043
 9892SOL    HW130575   1.652   2.242   1.714 -1.9827  2.3657  1.1740
 9892SOL    HW230576   1.782   2.312   1.644  0.2255 -3.1155 -0.7954
 9893SOL     OW30577   3.222   3.819   6.463  1.0539  0.1669  0.4252
 9893SOL    HW130578   3.231   3.719   6.467  0.6679  0.1492  0.9100
 9893SOL    HW230579   3.134   3.846   6.501  0.0245  0.5135 -2.0730
 9894SOL     OW30580   5.050   5.398   0.319 -0.3478 -0.3547 -0.0071
 9894SOL    HW130581   5.044   5.486   0.366 -1.2908 -0.1947 -0.4174
 9894SOL    HW230582   5.125   5.401   0.253 -0.7590  0.3398 -0.4471
 9895SOL     OW30583   2.596   1.612   1.471 -0.7406  0.5112  0.8407
 9895SOL    HW130584   2.511   1.584   1.426 -0.2714  0.4373 -0.0080
 9895SOL    HW230585   2.627   1.539   1.532  0.2752 -0.7349 -1.0735
 9896SOL     OW30586   6.431   3.573   3.440 -0.1320 -0.1708  0.7391
 9896SOL    HW130587   6.360   3.631   3.480 -1.1475 -0.6888 -0.2561
 9896SOL    HW230588   6.404   3.545   3.348  0.8057 -1.3878  0.8013
 9897SOL     OW30589   0.763   0.446   0.918 -0.2604  0.3359  0.0691
 9897SOL    HW130590   0.829   0.521   0.909  0.2813 -0.0590  0.6956
 9897SOL    HW230591   0.805   0.361   0.889 -0.7569  0.1995 -0.2747
 9898SOL     OW30592   4.855   1.625   2.642  0.4631 -0.2610  0.1250
 9898SOL    HW130593   4.771   1.678   2.628 -0.0467 -0.8009  1.0826
 9898SOL    HW230594   4.884   1.634   2.737 -0.2378 -2.5482  0.6080
 9899SOL     OW30595   5.989   5.328   4.572  0.1875 -0.1009 -0.1537
 9899SOL    HW130596   5.968   5.386   4.493 -1.4196  1.4543  1.3070
 9899SOL    HW230597   6.000   5.233   4.542 -0.2093  0.4614 -2.2482
 9900SOL     OW30598   6.525   6.778   2.228 -0.2707  0.2608  0.4760
 9900SOL    HW130599   6.493   6.810   2.139 -2.2205 -0.0616  1.0233
 9900SOL    HW230600   6.521   6.854   2.293  0.3484  0.2769  0.5003
 9901SOL     OW30601   2.325   6.063   5.279 -0.2154  0.6753  0.0101
 9901SOL    HW130602   2.283   6.152   5.261 -1.2370  0.1120 -0.5214
 9901SOL    HW230603   2.258   6.004   5.324  0.1428 -0.1131 -0.4831
 9902SOL     OW30604   4.597   1.131   0.288  0.8067 -0.3529 -0.1677
 9902SOL    HW130605   4.590   1.032   0.295 -0.5420 -0.2748 -0.2091
 9902SOL    HW230606   4.583   1.159   0.193 -0.5658 -0.0126  0.1180
 9903SOL     OW30607   3.603   2.977   1.532  0.1074 -0.1094 -0.2953
 9903SOL    HW130608   3.504   2.991   1.537 -0.0160 -0.5877 -1.1882
 9903SOL    HW230609   3.626   2.931   1.446  1.3186  1.8862 -1.1147
 9904SOL     OW30610   6.974   6.481   4.529 -0.4234 -0.5385  0.0186
 9904SOL    HW130611   6.918   6.434   4.460 -0.0017 -1.4702  0.2946
 9904SOL    HW230612   7.067   6.489   4.496 -0.6870  0.9499 -0.4091
 9905SOL     OW30613   6.985   0.485   6.912 -0.0129 -0.3642  0.1385
 9905SOL    HW130614   7.052   0.440   6.852  0.0770 -1.5283  1.0656
 9905SOL    HW230615   6.956   0.421   6.983  0.2847  1.1092  1.6709
 9906SOL     OW30616   0.546   4.913   4.695  0.3333  0.1722  0.4018
 9906SOL    HW130617   0.531   4.830   4.748  0.4493  0.0188  0.1973
 9906SOL    HW230618   0.625   4.899   4.634 -0.5256 -0.0792 -0.6865
 9907SOL     OW30619   5.581   2.195   0.002  0.1041  0.2133  0.0446
 9907SOL    HW130620   5.571   2.123   0.071 -1.7605  0.8210  0.4774
 9907SOL    HW230621   5.677   2.220  -0.007  0.5285 -0.7707  1.4974
 9908SOL     OW30622   1.645   6.303   4.966 -0.2194 -0.9123  0.3345
 9908SOL    HW130623   1.711   6.277   4.896  0.8966  0.9608  0.6232
 9908SOL    HW230624   1.683   6.283   5.057  1.6338  3.2433  0.7001
 9909SOL     OW30625   0.069   1.553   4.500  0.3507 -0.3555  0.1299
 9909SOL    HW130626   0.094   1.545   4.403 -0.3143  0.5030 -0.1178
 9909SOL    HW230627   0.057   1.461   4.538  0.3043 -0.7015 -0.6828
 9910SOL     OW30628   4.421   5.853   5.899 -0.5727  0.1303 -0.3950
 9910SOL    HW130629   4.383   5.788   5.833  1.4569 -2.6244  0.9343
 9910SOL    HW230630   4.520   5.854   5.891 -0.4393  1.7048  0.9224
 9911SOL     OW30631   2.929   5.919   6.293 -0.2797  0.3970  0.3920
 9911SOL    HW130632   2.974   5.996   6.248  0.2158 -0.7389 -1.1400
 9911SOL    HW230633   2.829   5.930   6.287 -0.2259  0.2359 -1.1001
 9912SOL     OW30634   5.590   0.764   2.429  0.2679  0.6171  0.6480
 9912SOL    HW130635   5.557   0.795   2.340 -0.3742 -2.0934 -0.1551
 9912SOL    HW230636   5.681   0.802   2.445 -0.7506  3.5341  0.2644
 9913SOL     OW30637   2.156   3.405   1.481  0.5560 -0.4773 -0.5189
 9913SOL    HW130638   2.221   3.340   1.444  0.5834  0.1491 -1.6030
 9913SOL    HW230639   2.187   3.498   1.462 -0.6549 -0.1685 -1.0771
 9914SOL     OW30640   5.188   6.933   3.674 -0.1441 -0.1261 -0.9185
 9914SOL    HW130641   5.181   7.032   3.681 -1.0409 -0.2049 -0.4915
 9914SOL    HW230642   5.163   6.891   3.762  0.1125 -0.7317 -1.1259
 9915SOL     OW30643   5.729   6.985   2.831  0.0593  0.2675  0.1162
 9915SOL    HW130644   5.644   7.010   2.786 -1.5287 -1.6871  1.8065
 9915SOL    HW230645   5.722   7.005   2.929  2.0160  1.1322  0.1154
 9916SOL     OW30646   0.060   4.891   5.215  0.4793  0.1762 -0.3734
 9916SOL    HW130647   0.002   4.965   5.247  1.0634  0.3376  0.3498
 9916SOL    HW230648   0.142   4.928   5.171  0.5766 -0.0353 -0.3769
 9917SOL     OW30649   5.347   2.046   1.226 -0.5314 -0.9175 -0.1015
 9917SOL    HW130650   5.328   1.960   1.179 -0.5684 -1.2439  0.4995
 9917SOL    HW230651   5.336   2.033   1.325  1.2036 -0.6761  0.1415
 9918SOL     OW30652   6.803   6.958   2.554 -0.0451  0.3717 -0.3789
 9918SOL    HW130653   6.764   7.050   2.543 -1.6200 -0.3861 -1.4757
 9918SOL    HW230654   6.766   6.916   2.637  2.9831  1.7549  1.8897
 9919SOL     OW30655   0.050   0.174   0.887  0.2550 -0.0615 -0.0660
 9919SOL    HW130656   0.051   0.084   0.931 -1.4203 -0.5614 -0.9636
 9919SOL    HW230657   0.023   0.243   0.954  2.3019 -0.0656  0.8242
 9920SOL     OW30658   2.663   5.843   4.093 -0.2483  0.1491 -0.1159
 9920SOL    HW130659   2.614   5.925   4.122  1.1406  2.1249 -2.8796
 9920SOL    HW230660   2.622   5.807   4.009  1.2376  0.1193 -0.8629
 9921SOL     OW30661   6.001   2.949   2.044  0.6338 -0.8214  0.3670
 9921SOL    HW130662   5.978   2.959   1.947 -0.6562 -0.6228  0.6667
 9921SOL    HW230663   6.100   2.952   2.056  0.8089 -0.8840 -0.9456
 9922SOL     OW30664   1.127   1.692   1.960  0.3542  0.0738 -0.1965
 9922SOL    HW130665   1.040   1.707   2.007  0.0283 -0.3241 -0.6563
 9922SOL    HW230666   1.153   1.596   1.970  1.7775  0.5854  1.6611
 9923SOL     OW30667   6.050   1.038   6.252 -0.1283  0.7695 -0.3456
 9923SOL    HW130668   6.015   0.973   6.319 -0.0640  1.1082  0.0157
 9923SOL    HW230669   6.150   1.031   6.248 -0.0411  1.4393  0.3200
 9924SOL     OW30670   0.139   6.717   3.950  0.0504 -0.0479 -0.5781
 9924SOL    HW130671   0.127   6.773   3.868  0.6268 -0.0079 -0.6355
 9924SOL    HW230672   0.094   6.761   4.027 -1.9057 -0.8656 -1.1867
 9925SOL     OW30673   2.895   0.420   2.672  0.3409 -0.0912 -0.8746
 9925SOL    HW130674   2.974   0.464   2.716  0.0101  0.0396 -0.3996
 9925SOL    HW230675   2.925   0.341   2.620  0.9310  0.5890 -1.5971
 9926SOL     OW30676   2.101   6.883   2.646  0.2923 -1.1061 -0.7071
 9926SOL    HW130677   2.064   6.822   2.716 -1.5751  2.1272  1.3604
 9926SOL    HW230678   2.197   6.903   2.665  0.6329 -2.5036 -0.8420
 9927SOL     OW30679   3.528   0.231   3.523  0.1986 -0.1812 -0.3770
 9927SOL    HW130680   3.444   0.225   3.470 -0.8122 -1.3360  1.2818
 9927SOL    HW230681   3.532   0.319   3.570  0.2027  0.0870 -0.8662
 9928SOL     OW30682   2.735   1.129   0.105  0.1216  0.2282 -0.1779
 9928SOL    HW130683   2.642   1.127   0.067 -0.2849  0.2889  0.7872
 9928SOL    HW230684   2.794   1.069   0.051 -0.0532  1.4656 -1.8405
 9929SOL     OW30685   4.206   0.827   6.277 -0.1568 -1.0098 -0.1890
 9929SOL    HW130686   4.270   0.794   6.208 -1.4042 -0.1341 -1.8432
 9929SOL    HW230687   4.164   0.750   6.324 -0.3597 -1.6804 -1.4453
 9930SOL     OW30688   1.969   3.264   3.689 -0.4271  0.0504  0.0755
 9930SOL    HW130689   1.872   3.287   3.674 -0.6786 -1.1806 -0.2850
 9930SOL    HW230690   2.009   3.231   3.603 -0.4415 -2.0196  0.8051
 9931SOL     OW30691   2.070   3.960   5.605 -0.2885  0.2006  0.5421
 9931SOL    HW130692   2.044   3.912   5.521 -0.6941 -0.5625  1.0918
 9931SOL    HW230693   1.998   3.950   5.673  0.9708 -1.0907  1.7475
 9932SOL     OW30694   0.454   6.167   1.681 -0.0914  0.1122  0.2738
 9932SOL    HW130695   0.543   6.121   1.686  0.2262  0.4740 -1.4447
 9932SOL    HW230696   0.468   6.266   1.681 -0.5411  0.1758  0.6103
 9933SOL     OW30697   1.555   2.075   4.069 -0.2586 -0.5901  0.8076
 9933SOL    HW130698   1.561   2.060   4.168 -1.3333 -0.4153  0.9047
 9933SOL    HW230699   1.482   2.018   4.031 -0.3783 -0.0633  0.2408
 9934SOL     OW30700   4.608   0.681   3.306  0.2490 -0.3791  0.4624
 9934SOL    HW130701   4.581   0.669   3.401  0.9158  1.8397  0.9920
 9934SOL    HW230702   4.529   0.669   3.246 -0.3889 -0.7958  1.3872
 9935SOL     OW30703   6.856   2.150   2.148  0.1875  0.2815 -0.2792
 9935SOL    HW130704   6.852   2.213   2.225  0.6330  0.9307 -0.7760
 9935SOL    HW230705   6.921   2.077   2.168  1.2259  1.1244 -0.5197
 9936SOL     OW30706   1.609   6.949   3.622  0.1822  0.0664  0.0049
 9936SOL    HW130707   1.638   6.854   3.629  0.9958  0.3475  0.5768
 9936SOL    HW230708   1.675   7.008   3.670  0.3498  1.0379 -1.3426
 9937SOL     OW30709   1.668   0.650   5.719  0.1647  0.7382  0.0482
 9937SOL    HW130710   1.596   0.684   5.778 -1.1337  0.8609 -1.5256
 9937SOL    HW230711   1.643   0.665   5.623  1.6833 -0.4232 -0.5901
 9938SOL     OW30712   5.273   0.797   1.313  0.4910 -0.1055 -0.4296
 9938SOL    HW130713   5.359   0.768   1.271  2.2803  0.0574  2.7728
 9938SOL    HW230714   5.211   0.719   1.320  1.4019 -0.8543 -0.5590
 9939SOL     OW30715   0.161   2.025   4.492  0.0579 -0.2969 -0.0671
 9939SOL    HW130716   0.121   2.054   4.405  0.4988  1.8007  0.3555
 9939SOL    HW230717   0.090   2.024   4.562  0.2952  1.5086  0.2610
 9940SOL     OW30718   5.961   3.696   6.851 -0.0186  0.0779  0.3716
 9940SOL    HW130719   5.883   3.646   6.814  0.4742  1.0037 -2.0878
 9940SOL    HW230720   5.935   3.739   6.938 -1.0149 -2.7537  1.5983
 9941SOL     OW30721   7.000   3.985   2.821  0.4350  0.2534  0.1747
 9941SOL    HW130722   6.918   3.973   2.877  0.6341  2.7067  1.1317
 9941SOL    HW230723   7.079   3.998   2.881  1.3309 -0.8519 -0.7392
 9942SOL     OW30724   0.686   7.000   0.661 -0.1118 -0.2408 -0.1002
 9942SOL    HW130725   0.678   6.915   0.609 -0.4776 -0.0840 -0.3083
 9942SOL    HW230726   0.740   7.066   0.609 -2.7496  0.9079 -1.6373
 9943SOL     OW30727   2.966   0.145   6.436 -0.0032 -0.1577 -0.0463
 9943SOL    HW130728   2.876   0.127   6.397  0.3952  2.6036 -2.6417
 9943SOL    HW230729   3.024   0.064   6.427 -1.5749 -1.2888 -0.3000
 9944SOL     OW30730   3.826   0.560   5.644  0.9680 -0.2833 -0.5550
 9944SOL    HW130731   3.863   0.586   5.733  1.0774 -1.0673 -0.3617
 9944SOL    HW230732   3.763   0.482   5.655 -0.0811  0.4755 -0.9871
 9945SOL     OW30733   4.024   6.203   6.288 -0.0952  0.2675 -0.3005
 9945SOL    HW130734   3.942   6.258   6.273  0.2130  1.1810  1.1660
 9945SOL    HW230735   4.099   6.263   6.317  0.6444 -0.7621 -0.0471
 9946SOL     OW30736   5.021   3.405   4.668  0.3131  0.3715  0.0537
 9946SOL    HW130737   5.028   3.499   4.635 -1.6044  0.4134 -0.3180
 9946SOL    HW230738   4.982   3.403   4.760 -1.5368 -0.1073 -0.6911
 9947SOL     OW30739   5.161   4.399   5.281  1.0031  0.0708  0.4081
 9947SOL    HW130740   5.122   4.468   5.341  0.2030 -0.6327  0.7145
 9947SOL    HW230741   5.196   4.323   5.337 -0.4833 -0.9679 -0.0368
 9948SOL     OW30742   2.896   0.112   5.201  0.4063 -0.2975 -0.2652
 9948SOL    HW130743   2.916   0.141   5.107  0.4109  0.0598 -0.1533
 9948SOL    HW230744   2.969   0.141   5.262  0.3210 -0.3815 -0.1210
 9949SOL     OW30745   0.052   6.511   1.090  0.4334 -0.2667  0.4845
 9949SOL    HW130746   0.082   6.607   1.092  1.6567 -0.6182 -0.2004
 9949SOL    HW230747   0.019   6.488   0.999  3.8129 -1.5167 -0.5709
 9950SOL     OW30748   1.687   0.200   3.052 -0.4458 -0.5680  0.3248
 9950SOL    HW130749   1.665   0.275   3.114 -1.4128 -0.2563 -0.3674
 9950SOL    HW230750   1.736   0.128   3.102 -0.5073  0.0266  1.2516
 9951SOL     OW30751   2.444   1.233   5.653 -0.3256 -0.2784 -0.1831
 9951SOL    HW130752   2.484   1.307   5.707  0.3238 -0.8889  0.1858
 9951SOL    HW230753   2.508   1.208   5.579 -2.0784  2.0298 -2.7009
 9952SOL     OW30754   5.398   4.584   5.281 -0.5809  0.4165  0.6664
 9952SOL    HW130755   5.363   4.645   5.210 -0.0016  0.7510  0.6524
 9952SOL    HW230756   5.385   4.489   5.254 -2.1915  0.5129  1.0321
 9953SOL     OW30757   0.722   4.189   3.865 -0.0048 -0.0998 -0.0189
 9953SOL    HW130758   0.798   4.187   3.800  1.4528  1.1563  1.5743
 9953SOL    HW230759   0.639   4.156   3.819  0.1606  3.5257 -3.5136
 9954SOL     OW30760   2.547   5.151   4.571 -0.1932 -0.0160  0.1042
 9954SOL    HW130761   2.491   5.165   4.490  1.5570  1.0240 -1.0028
 9954SOL    HW230762   2.642   5.136   4.544  0.7961  2.1844  1.9501
 9955SOL     OW30763   5.183   2.353   4.415 -0.6449  0.2644 -0.1320
 9955SOL    HW130764   5.258   2.361   4.481 -1.5393  0.3063  0.9231
 9955SOL    HW230765   5.208   2.400   4.331  1.0118 -0.8149 -0.2927
 9956SOL     OW30766   4.590   5.452   2.933 -0.6256 -0.5557 -0.1900
 9956SOL    HW130767   4.633   5.483   3.017 -0.4303  0.4251 -0.6341
 9956SOL    HW230768   4.656   5.456   2.858 -1.6841  2.0496 -1.1294
 9957SOL     OW30769   6.767   1.066   0.236  0.2333  0.5267  0.2245
 9957SOL    HW130770   6.703   1.078   0.160 -0.9632  2.2274  1.4442
 9957SOL    HW230771   6.792   0.969   0.243 -1.2605  0.0098 -1.0451
 9958SOL     OW30772   5.640   6.218   2.634 -0.4503 -0.1212 -0.3560
 9958SOL    HW130773   5.569   6.258   2.691 -2.2990 -0.8175 -2.0321
 9958SOL    HW230774   5.631   6.118   2.634  0.2575 -0.1970 -0.9168
 9959SOL     OW30775   3.014   3.087   3.209  0.0085  0.1658  0.0585
 9959SOL    HW130776   3.025   3.035   3.125 -1.1088  0.0190 -0.0147
 9959SOL    HW230777   3.084   3.059   3.275  0.2388 -0.4775 -0.4491
 9960SOL     OW30778   5.017   6.976   6.828  0.4320  0.0982  0.7624
 9960SOL    HW130779   4.987   6.942   6.917 -1.3085  3.1866  1.5134
 9960SOL    HW230780   5.047   6.900   6.771  2.9822 -1.9297  4.3895
 9961SOL     OW30781   1.224   0.535   3.516  0.7642 -0.3574  0.2863
 9961SOL    HW130782   1.196   0.628   3.537  0.5187 -0.3815  0.0665
 9961SOL    HW230783   1.203   0.514   3.421 -0.2176 -1.0091  0.6191
 9962SOL     OW30784   1.578   0.752   5.486  0.0104 -0.5954  0.2514
 9962SOL    HW130785   1.625   0.828   5.532 -1.0636  0.1816  0.1193
 9962SOL    HW230786   1.513   0.789   5.419  0.9512 -1.6864 -1.3329
 9963SOL     OW30787   2.579   2.154   3.277  0.0004 -0.5266 -0.0738
 9963SOL    HW130788   2.539   2.071   3.317 -1.5593  0.7913  1.2441
 9963SOL    HW230789   2.511   2.227   3.278  2.0809  1.4968  1.0775
 9964SOL     OW30790   4.327   0.536   1.067  0.6068  0.0845 -0.5208
 9964SOL    HW130791   4.245   0.589   1.047  1.3027  2.0909  1.4717
 9964SOL    HW230792   4.405   0.598   1.077  1.6171 -1.3608  1.2160
 9965SOL     OW30793   2.433   4.513   5.612  0.3064  0.5040  0.4592
 9965SOL    HW130794   2.386   4.425   5.617 -0.4416  0.9148  0.7956
 9965SOL    HW230795   2.532   4.498   5.616  0.1671 -0.2481  1.6025
 9966SOL     OW30796   1.710   4.497   2.387  0.2215 -0.3439 -0.5003
 9966SOL    HW130797   1.740   4.535   2.475  0.5664  0.5180 -0.9672
 9966SOL    HW230798   1.651   4.418   2.402  1.3449 -1.0194  0.4803
 9967SOL     OW30799   0.993   2.632   6.806 -0.2875  0.5050 -0.0854
 9967SOL    HW130800   1.014   2.730   6.803 -0.8258  0.6143 -0.4965
 9967SOL    HW230801   1.035   2.586   6.728  1.5839  0.0588  1.1262
 9968SOL     OW30802   0.594   4.715   4.367 -0.1627  0.1367  0.7682
 9968SOL    HW130803   0.544   4.634   4.337 -0.8221  0.7305  0.2240
 9968SOL    HW230804   0.644   4.694   4.451  0.6636 -1.1803 -0.0274
 9969SOL     OW30805   6.959   1.752   3.889 -0.2315 -0.1178 -0.4428
 9969SOL    HW130806   7.044   1.803   3.881 -0.0112 -0.0739  1.5897
 9969SOL    HW230807   6.955   1.707   3.979 -2.6824  0.5198 -0.1350
 9970SOL     OW30808   5.262   1.154   5.718  0.3406  0.4201 -0.1002
 9970SOL    HW130809   5.239   1.063   5.751  0.4999 -0.4512 -2.2449
 9970SOL    HW230810   5.304   1.148   5.627 -2.7106  2.7287 -1.9057
 9971SOL     OW30811   1.684   0.592   1.680  0.0906 -0.8787  0.3188
 9971SOL    HW130812   1.591   0.623   1.661 -1.0341 -3.5067  0.9855
 9971SOL    HW230813   1.745   0.670   1.685 -1.8919  0.8735 -1.0838
 9972SOL     OW30814   2.395   5.610   5.803  0.3209 -0.2486 -0.1566
 9972SOL    HW130815   2.311   5.636   5.851  0.4579 -0.5626  0.2497
 9972SOL    HW230816   2.392   5.512   5.782  1.4446 -0.7024  1.6056
 9973SOL     OW30817   3.904   0.388   2.862  0.4729  0.4825  0.3380
 9973SOL    HW130818   3.970   0.443   2.913  0.9389  0.3667 -0.1226
 9973SOL    HW230819   3.854   0.328   2.924  0.3655  1.0193  0.7714
 9974SOL     OW30820   4.536   1.733   5.421  0.2257 -0.7977  0.0379
 9974SOL    HW130821   4.602   1.774   5.485  1.2702 -0.6757 -1.0747
 9974SOL    HW230822   4.451   1.714   5.469  0.8832 -0.4640  1.4019
 9975SOL     OW30823   3.924   5.692   5.816  0.5926  0.2441  0.3656
 9975SOL    HW130824   3.840   5.710   5.867  0.0834  1.7874 -0.9184
 9975SOL    HW230825   3.984   5.632   5.869 -2.0041 -2.2912  0.6557
 9976SOL     OW30826   4.622   0.580   5.978 -0.2746  0.5736 -0.5859
 9976SOL    HW130827   4.532   0.579   6.021 -0.0030 -2.8508  0.2228
 9976SOL    HW230828   4.691   0.604   6.045 -0.4873  2.8312 -1.1148
 9977SOL     OW30829   2.229   6.281   4.172  0.1279 -0.2965 -0.4220
 9977SOL    HW130830   2.199   6.252   4.263  1.0267  2.4006  0.8401
 9977SOL    HW230831   2.292   6.213   4.135  1.9463 -0.1793  2.2170
 9978SOL     OW30832   5.188   2.230   0.917 -0.8773  0.1700 -0.2894
 9978SOL    HW130833   5.189   2.167   0.994  0.4250  1.1006  0.5034
 9978SOL    HW230834   5.142   2.315   0.944  1.0289  1.1557  0.0899
 9979SOL     OW30835   0.470   6.018   5.572  1.2727 -0.5032 -0.3259
 9979SOL    HW130836   0.554   5.980   5.531  0.9010 -0.4783 -1.1316
 9979SOL    HW230837   0.489   6.046   5.666  2.1616 -0.5414 -0.4801
 9980SOL     OW30838   6.959   4.853   6.830  0.2146  0.2329  0.0598
 9980SOL    HW130839   6.897   4.813   6.762  0.6558 -2.8593  1.3193
 9980SOL    HW230840   7.053   4.848   6.797  0.2789  0.3007  0.2294
 9981SOL     OW30841   5.961   1.432   6.512  0.0430 -0.2722 -0.4505
 9981SOL    HW130842   5.977   1.367   6.586 -2.2981  0.1434  0.4909
 9981SOL    HW230843   5.992   1.523   6.541  0.0947 -0.3083 -0.3915
 9982SOL     OW30844   5.099   6.417   5.262  0.2886 -0.2334  0.6253
 9982SOL    HW130845   5.100   6.510   5.227 -0.2813 -0.3438  0.3118
 9982SOL    HW230846   5.166   6.409   5.337 -0.3103  0.6662  1.2695
 9983SOL     OW30847   0.893   6.230   0.018 -0.5761  0.0189  0.2259
 9983SOL    HW130848   0.821   6.198   0.080  0.0704 -0.1449  0.9003
 9983SOL    HW230849   0.877   6.327  -0.003 -2.2294 -0.5518 -1.3990
 9984SOL     OW30850   4.917   1.045   6.000 -0.2571 -0.0197  0.6804
 9984SOL    HW130851   4.945   0.955   5.965  0.9525  0.5905  0.0340
 9984SOL    HW230852   4.994   1.087   6.047 -0.9567  0.5006  1.3764
 9985SOL     OW30853   0.848   5.988   0.573 -0.1955 -0.3121  0.1080
 9985SOL    HW130854   0.791   5.941   0.505 -0.4348  0.5342 -0.2829
 9985SOL    HW230855   0.845   6.086   0.557 -1.0729  0.0023  1.9624
 9986SOL     OW30856   1.023   6.034   5.413 -0.1581 -0.1662 -0.3519
 9986SOL    HW130857   1.077   5.960   5.372  0.2384  0.2183 -0.5270
 9986SOL    HW230858   1.056   6.052   5.505 -0.8613 -0.8327  0.0497
 9987SOL     OW30859   5.975   3.447   2.054  0.4302  0.0340 -0.6060
 9987SOL    HW130860   5.979   3.509   1.975 -0.3522  0.3550 -0.4019
 9987SOL    HW230861   5.901   3.475   2.115  0.1787 -0.9985 -0.4134
 9988SOL     OW30862   3.064   6.387   3.268 -0.4208  0.0811  0.3447
 9988SOL    HW130863   3.042   6.387   3.170 -1.8244 -3.4174  0.5124
 9988SOL    HW230864   3.150   6.340   3.283 -1.6719 -2.1911  0.8930
 9989SOL     OW30865   2.778   3.201   0.550 -0.2284 -0.1389 -0.3071
 9989SOL    HW130866   2.834   3.245   0.479 -0.0724  2.0810  1.1154
 9989SOL    HW230867   2.683   3.230   0.540 -0.4806 -0.9697 -0.4420
 9990SOL     OW30868   6.895   0.606   5.915 -0.6085 -0.9619 -0.0766
 9990SOL    HW130869   6.942   0.562   5.838  0.4121  0.2405 -0.1672
 9990SOL    HW230870   6.817   0.550   5.942 -1.0892 -1.3438 -2.0841
 9991SOL     OW30871   1.623   6.222   1.003 -0.4444 -0.6401  0.4260
 9991SOL    HW130872   1.551   6.197   0.938 -0.7744 -0.1899  0.6126
 9991SOL    HW230873   1.695   6.273   0.955 -0.7800 -0.1409  0.4456
 9992SOL     OW30874   3.186   0.759   5.255 -0.0014  0.5286 -0.3771
 9992SOL    HW130875   3.177   0.729   5.349 -1.7101  0.6913 -0.4545
 9992SOL    HW230876   3.251   0.834   5.250 -0.4088  0.9821  0.8008
 9993SOL     OW30877   6.139   4.000   6.656  0.1804  0.3037 -0.0539
 9993SOL    HW130878   6.231   4.035   6.640 -0.2734  1.4543 -0.2762
 9993SOL    HW230879   6.136   3.902   6.636  1.1488  0.4265 -0.8779
 9994SOL     OW30880   2.999   2.241   4.277  0.6359  0.1751 -0.1357
 9994SOL    HW130881   2.968   2.276   4.366  2.1424  1.0785  0.0655
 9994SOL    HW230882   2.936   2.273   4.206  1.3273  2.4678  0.1883
 9995SOL     OW30883   3.330   2.251   5.366 -0.5276  0.3426 -0.4595
 9995SOL    HW130884   3.301   2.248   5.462 -1.7315  1.2831 -0.7725
 9995SOL    HW230885   3.269   2.312   5.315  1.4380  1.6543 -1.3553
 9996SOL     OW30886   5.520   3.991   0.833 -0.3200 -0.0510 -0.7336
 9996SOL    HW130887   5.518   3.904   0.783  1.8360 -1.1728  0.9457
 9996SOL    HW230888   5.578   4.055   0.783  4.8373 -2.3004  1.6210
 9997SOL     OW30889   3.351   5.234   0.098 -0.0727  0.1914  0.5500
 9997SOL    HW130890   3.305   5.286   0.027  0.1632 -1.0220 -0.5333
 9997SOL    HW230891   3.423   5.289   0.139 -0.2879  0.9438 -0.0634
 9998SOL     OW30892   0.088   6.749   1.803 -0.0566  0.2307  0.4080
 9998SOL    HW130893   0.015   6.704   1.752 -0.7382  0.2549  1.3346
 9998SOL    HW230894   0.083   6.848   1.789  1.0609  0.1099 -1.1319
 9999SOL     OW30895   0.864   5.499   5.366  0.1229  0.2418  0.2581
 9999SOL    HW130896   0.924   5.457   5.434  1.2863  1.2248 -0.1192
 9999SOL    HW230897   0.808   5.569   5.409 -0.5442 -0.4626  0.5544
10000SOL     OW30898   0.113   2.207   6.548  0.4736  0.2971  0.1254
10000SOL    HW130899   0.015   2.200   6.567  0.5969  0.0521  0.7013
10000SOL    HW230900   0.140   2.304   6.547 -0.2526  0.5556 -2.6741
10001SOL     OW30901   3.343   2.369   0.687  0.1066 -0.3749  0.1434
10001SOL    HW130902   3.370   2.323   0.602  0.8344 -0.1128  0.2258
10001SOL    HW230903   3.425   2.395   0.738 -0.3187 -0.0439  0.6668
10002SOL     OW30904   3.061   6.723   6.585  0.4209 -0.0339  0.5546
10002SOL    HW130905   3.155   6.737   6.552  0.0442  1.9639  0.2476
10002SOL    HW230906   3.005   6.686   6.510  0.9163 -1.1473  0.7137
10003SOL     OW30907   1.842   5.191   0.319 -0.1924  0.3564 -0.3048
10003SOL    HW130908   1.749   5.187   0.285 -0.8870  1.9861  1.2229
10003SOL    HW230909   1.843   5.173   0.417  0.9481  1.3145 -0.1125
10004SOL     OW30910   2.332   6.818   6.984  0.0461 -0.1540 -0.0115
10004SOL    HW130911   2.311   6.803   6.887 -1.9279  1.3002  0.1123
10004SOL    HW230912   2.300   6.909   7.011  1.0372 -0.3216  1.8955
10005SOL     OW30913   0.074   5.767   0.431  0.3912 -0.2562  0.7182
10005SOL    HW130914   0.098   5.819   0.513  0.1002  2.3566 -0.7505
10005SOL    HW230915   0.099   5.819   0.350 -1.1177 -1.8885 -0.8988
10006SOL     OW30916   1.243   6.657   2.532  0.6486  0.8971  0.0059
10006SOL    HW130917   1.274   6.563   2.545 -1.7921 -0.2377 -1.6912
10006SOL    HW230918   1.291   6.698   2.454  1.3586  0.9050  0.4415
10007SOL     OW30919   1.969   0.608   5.881  0.6842 -1.0771 -0.3866
10007SOL    HW130920   1.872   0.633   5.891  0.4174 -1.8314 -1.0815
10007SOL    HW230921   2.025   0.689   5.900 -0.0178 -0.9040  1.1797
10008SOL     OW30922   5.476   1.941   5.245 -0.4043 -0.4175  0.0408
10008SOL    HW130923   5.551   1.949   5.179 -0.3392 -1.1591  0.0214
10008SOL    HW230924   5.511   1.960   5.337 -0.0584 -1.3650  0.1072
10009SOL     OW30925   4.512   3.846   0.211 -0.2781  0.2476  0.2512
10009SOL    HW130926   4.436   3.781   0.216 -0.6801  0.7938  1.6519
10009SOL    HW230927   4.517   3.883   0.118 -0.3381 -1.4020 -0.4445
10010SOL     OW30928   4.927   0.652   1.410 -0.1816  0.1310  0.3462
10010SOL    HW130929   4.912   0.722   1.340 -1.4206 -0.9324 -0.4996
10010SOL    HW230930   4.839   0.617   1.442  0.4121 -1.2248  0.5637
10011SOL     OW30931   6.689   5.106   1.361  0.5312  0.4665 -0.0139
10011SOL    HW130932   6.714   5.145   1.273  2.9210 -1.5689 -0.3395
10011SOL    HW230933   6.703   5.007   1.359  0.4050  0.3199  2.5920
10012SOL     OW30934   5.913   5.114   2.475  0.4022 -0.4580 -0.2123
10012SOL    HW130935   5.904   5.161   2.562  0.3326 -0.6724 -0.1040
10012SOL    HW230936   5.822   5.103   2.433  0.6334  2.1213 -1.6373
10013SOL     OW30937   0.678   4.302   4.387 -0.1744  0.1201  0.1967
10013SOL    HW130938   0.720   4.391   4.405  1.6366 -0.9207  1.5089
10013SOL    HW230939   0.714   4.264   4.302  2.6261 -1.2666  1.8753
10014SOL     OW30940   2.369   0.064   2.492  0.3002  0.0612  0.3807
10014SOL    HW130941   2.343   0.135   2.557 -1.2463 -0.9289  0.8856
10014SOL    HW230942   2.325   0.082   2.404  1.4523  0.7483 -0.0875
10015SOL     OW30943   4.903   4.866   0.411  0.1704  0.7113 -0.2821
10015SOL    HW130944   4.813   4.905   0.430  0.1699  0.6013 -0.0560
10015SOL    HW230945   4.971   4.905   0.472  0.3429  1.0539 -0.6872
10016SOL     OW30946   3.388   6.224   0.764 -0.0451 -0.1146  0.4984
10016SOL    HW130947   3.394   6.238   0.665  0.2709 -0.1587  0.5120
10016SOL    HW230948   3.307   6.169   0.785 -0.2414  0.0892  0.2843
10017SOL     OW30949   3.340   0.364   6.567  0.3810 -0.0878  0.1342
10017SOL    HW130950   3.309   0.364   6.662  1.8966 -0.8639  0.6626
10017SOL    HW230951   3.370   0.456   6.541 -0.3801  0.2059  0.2830
10018SOL     OW30952   3.003   3.978   6.573  0.3459  0.2130 -0.6748
10018SOL    HW130953   2.942   3.947   6.500 -0.3068  0.5101 -0.2730
10018SOL    HW230954   2.948   4.009   6.651  0.9685  1.9369 -0.8787
10019SOL     OW30955   2.641   1.913   2.313 -1.0256 -0.6667 -0.2739
10019SOL    HW130956   2.603   1.972   2.242 -1.8864 -1.1960 -0.2761
10019SOL    HW230957   2.615   1.949   2.403  0.3835  0.2151 -0.1934
10020SOL     OW30958   2.951   6.565   2.754  0.3507  0.8126  0.1837
10020SOL    HW130959   2.966   6.484   2.697  2.1924  0.7767  0.6678
10020SOL    HW230960   2.857   6.597   2.742 -0.5736 -1.6400  0.2976
10021SOL     OW30961   5.594   3.508   0.502  0.3595 -0.2388  0.7432
10021SOL    HW130962   5.629   3.546   0.416 -1.8299 -1.5889 -0.8414
10021SOL    HW230963   5.651   3.431   0.530  0.9447  0.0494  0.3620
10022SOL     OW30964   3.214   6.646   4.218  0.8527 -0.4838 -0.3674
10022SOL    HW130965   3.197   6.571   4.154  1.6311 -0.4475 -0.6294
10022SOL    HW230966   3.244   6.609   4.305  0.0316 -0.5231 -0.0952
10023SOL     OW30967   0.753   1.638   1.876 -0.8148  0.4352 -0.1751
10023SOL    HW130968   0.828   1.625   1.811 -0.1743  1.6951  0.2736
10023SOL    HW230969   0.670   1.664   1.827 -0.0204  2.6928 -0.4719
10024SOL     OW30970   2.772   3.692   1.079  0.0552 -0.6934 -0.2666
10024SOL    HW130971   2.812   3.726   0.994  0.6119 -1.8246 -0.4630
10024SOL    HW230972   2.833   3.625   1.121 -0.9480 -1.3190  0.2157
10025SOL     OW30973   2.282   3.324   0.113 -0.3890  0.8124  0.5528
10025SOL    HW130974   2.331   3.290   0.032 -0.9258 -0.1168  0.6046
10025SOL    HW230975   2.341   3.386   0.163  0.8832 -0.5329  0.7922
10026SOL     OW30976   5.886   4.080   5.131  0.8440 -0.2437 -0.1625
10026SOL    HW130977   5.843   3.995   5.099  1.6801 -0.2230 -1.3921
10026SOL    HW230978   5.986   4.069   5.130  1.0440  1.2782 -1.9513
10027SOL     OW30979   0.342   2.018   1.826  0.7672 -0.5113 -0.3891
10027SOL    HW130980   0.276   1.974   1.766  0.6354 -0.9079  0.0419
10027SOL    HW230981   0.398   2.082   1.773 -1.3128  1.3966 -0.3907
10028SOL     OW30982   3.386   0.734   4.376  0.0433 -0.1972 -0.0784
10028SOL    HW130983   3.441   0.672   4.320 -0.5595 -0.5405 -0.3026
10028SOL    HW230984   3.322   0.785   4.317  1.5666  1.7987 -0.1158
10029SOL     OW30985   4.665   3.975   6.704  0.3122 -0.1511 -0.1620
10029SOL    HW130986   4.727   3.972   6.626 -0.7032 -0.0079 -1.0013
10029SOL    HW230987   4.576   3.936   6.678  0.4099 -1.4990  1.3641
10030SOL     OW30988   3.570   1.791   1.249  0.4859  0.1602 -0.3133
10030SOL    HW130989   3.662   1.829   1.259  0.4755  0.3015 -0.7470
10030SOL    HW230990   3.515   1.815   1.329  0.6460  0.5752 -0.3264
10031SOL     OW30991   2.393   0.719   0.625  0.2113  0.6737 -0.3029
10031SOL    HW130992   2.325   0.648   0.645  1.2957 -0.4129 -0.3467
10031SOL    HW230993   2.404   0.727   0.526  0.7576  0.2234 -0.2863
10032SOL     OW30994   0.702   2.342   2.877 -0.1856  0.3773 -0.6786
10032SOL    HW130995   0.676   2.255   2.837 -0.8271  0.3283 -0.1676
10032SOL    HW230996   0.686   2.416   2.811  1.8194 -0.0258 -1.6998
10033SOL     OW30997   1.179   5.920   2.951 -0.4406 -0.2432  0.3195
10033SOL    HW130998   1.129   5.931   3.037  0.9805 -2.3102  1.5173
10033SOL    HW230999   1.267   5.965   2.957  0.0027 -1.0816  0.2915
10034SOL     OW31000   4.779   1.999   4.598  0.4025  0.1775 -0.1759
10034SOL    HW131001   4.849   2.014   4.668  0.8205 -2.7604  0.1403
10034SOL    HW231002   4.697   2.053   4.620  0.9722  0.2582  1.8936
10035SOL     OW31003   6.975   0.128   3.208  0.5664 -0.4727  0.0378
10035SOL    HW131004   6.957   0.057   3.276  2.1888 -1.8459 -0.9018
10035SOL    HW231005   7.065   0.169   3.226  0.9293 -0.7216 -1.1499
10036SOL     OW31006   3.874   3.663   5.755 -0.0405 -0.3603  0.1212
10036SOL    HW131007   3.945   3.622   5.812 -0.2505 -0.7769  0.0851
10036SOL    HW231008   3.800   3.698   5.814 -0.9574 -2.0971  0.0581
10037SOL     OW31009   5.778   5.280   1.318 -0.2043  0.5821 -0.4259
10037SOL    HW131010   5.776   5.380   1.310  1.1245  0.5068 -3.3571
10037SOL    HW231011   5.873   5.250   1.326 -0.4171 -0.5068 -1.7050
10038SOL     OW31012   5.577   2.714   0.762  0.6190  0.7400  0.5025
10038SOL    HW131013   5.551   2.796   0.711  0.5062  1.0494  1.0503
10038SOL    HW231014   5.496   2.674   0.805  0.4103 -0.5288 -0.9876
10039SOL     OW31015   4.531   1.110   2.298 -0.0260  0.2130  0.0874
10039SOL    HW131016   4.559   1.194   2.253  1.1294  2.0348  3.7852
10039SOL    HW231017   4.445   1.124   2.346 -2.3272 -2.2821 -2.9028
10040SOL     OW31018   0.097   6.628   2.972  0.3291  0.1506 -0.1630
10040SOL    HW131019   0.188   6.600   3.002  0.4701 -0.1641 -0.8628
10040SOL    HW231020   0.032   6.618   3.049  0.4386 -1.7968 -0.2643
10041SOL     OW31021   5.719   4.213   2.520  0.2401 -0.6879 -0.4420
10041SOL    HW131022   5.637   4.191   2.574  0.5078 -0.6838 -0.0338
10041SOL    HW231023   5.693   4.222   2.423 -0.2710 -0.5327 -0.2973
10042SOL     OW31024   3.891   4.116   5.926  0.3761  0.1058 -0.2295
10042SOL    HW131025   3.796   4.109   5.956 -0.1457  1.0804 -1.5463
10042SOL    HW231026   3.937   4.028   5.940 -1.1776 -0.8899 -1.0415
10043SOL     OW31027   4.436   6.945   5.369 -0.7228  0.4536  0.1109
10043SOL    HW131028   4.464   7.041   5.375  0.0941  0.2578 -0.3490
10043SOL    HW231029   4.411   6.924   5.274 -1.9255  0.4723  0.4059
10044SOL     OW31030   5.024   0.036   5.260  0.7775  0.3096 -0.3271
10044SOL    HW131031   5.061   0.032   5.167 -0.2458 -0.6722 -0.7177
10044SOL    HW231032   5.095   0.069   5.322  1.3194  1.5103 -1.5238
10045SOL     OW31033   6.854   6.540   4.040  0.1649 -0.0682  0.0860
10045SOL    HW131034   6.760   6.554   4.073  0.0214 -1.1013  0.1647
10045SOL    HW231035   6.894   6.628   4.015 -1.6360  0.2366 -2.1278
10046SOL     OW31036   4.939   6.290   2.185 -0.1134 -0.5536 -0.4426
10046SOL    HW131037   4.884   6.208   2.174 -0.9752  0.0188 -0.4470
10046SOL    HW231038   5.021   6.283   2.127  1.7030 -2.9424  2.1392
10047SOL     OW31039   3.720   0.959   2.489 -0.1651  0.0997  0.0429
10047SOL    HW131040   3.790   0.948   2.418  0.6050  1.1813  0.6191
10047SOL    HW231041   3.702   0.870   2.531 -0.9836 -0.6670 -1.7902
10048SOL     OW31042   5.345   4.817   6.863  0.2747 -0.1331 -0.0105
10048SOL    HW131043   5.323   4.837   6.958 -0.2389 -3.0755  0.5799
10048SOL    HW231044   5.385   4.726   6.856 -0.8855 -0.5336 -2.7726
10049SOL     OW31045   4.274   1.374   2.139  0.7890  0.0011 -0.0918
10049SOL    HW131046   4.356   1.396   2.193  0.3157  2.2462 -0.1967
10049SOL    HW231047   4.297   1.376   2.041  0.2205  3.1215 -0.2845
10050SOL     OW31048   1.729   4.127   0.464 -0.2618 -0.1425  0.1308
10050SOL    HW131049   1.741   4.028   0.457  0.4518 -0.1431  1.1689
10050SOL    HW231050   1.641   4.148   0.506 -2.0173 -0.2309 -3.1645
10051SOL     OW31051   6.252   2.897   0.495  0.3019  0.3935 -0.3495
10051SOL    HW131052   6.195   2.858   0.568  0.0964 -0.4118 -0.9195
10051SOL    HW231053   6.345   2.859   0.502  0.2548  0.2336 -0.5569
10052SOL     OW31054   2.504   3.116   0.369  0.3223 -0.2749  0.4686
10052SOL    HW131055   2.515   3.197   0.427 -0.1893  0.4698 -0.4501
10052SOL    HW231056   2.588   3.062   0.371  1.2557  1.0980 -0.1125
10053SOL     OW31057   3.262   4.192   5.572  0.1151  0.2439  0.7785
10053SOL    HW131058   3.230   4.098   5.583  3.0164 -0.9040  0.2728
10053SOL    HW231059   3.197   4.243   5.515 -0.9190 -1.8105  0.0141
10054SOL     OW31060   4.555   2.099   3.387  0.0675 -0.5182  0.0640
10054SOL    HW131061   4.633   2.046   3.421 -0.3038 -1.2792 -0.2489
10054SOL    HW231062   4.571   2.122   3.291  0.2006 -0.1134  0.1826
10055SOL     OW31063   3.234   6.183   5.490  0.5058  0.9001  0.3283
10055SOL    HW131064   3.154   6.223   5.534  1.2599  2.1419  0.6273
10055SOL    HW231065   3.205   6.133   5.408 -0.9129 -1.4079  2.1092
10056SOL     OW31066   6.189   4.002   3.706  0.0739 -0.0191  0.3322
10056SOL    HW131067   6.214   3.981   3.611  0.7721 -0.6696  0.6441
10056SOL    HW231068   6.258   3.963   3.767  2.2226  4.2246  0.9430
10057SOL     OW31069   6.462   6.296   2.825  0.6809 -0.8557 -0.2577
10057SOL    HW131070   6.418   6.381   2.854  2.9489  1.1841 -2.2671
10057SOL    HW231071   6.410   6.256   2.750  1.0914  0.4037 -1.2480
10058SOL     OW31072   1.706   6.368   3.538 -0.1159 -0.5207 -0.4197
10058SOL    HW131073   1.629   6.305   3.536  0.8666 -1.7929 -2.1873
10058SOL    HW231074   1.758   6.355   3.622 -0.7521 -1.0443 -0.1012
10059SOL     OW31075   1.961   2.281   6.477  0.3488  0.3101 -0.0845
10059SOL    HW131076   1.907   2.197   6.466  1.5196 -0.5321  0.3928
10059SOL    HW231077   1.975   2.298   6.574  3.5860 -1.2855 -0.1540
10060SOL     OW31078   0.623   0.096   6.304 -0.2917  0.1109  0.4979
10060SOL    HW131079   0.694   0.121   6.239 -0.8098  1.6848  0.5061
10060SOL    HW231080   0.545   0.058   6.254  0.0611 -0.4705  0.3810
10061SOL     OW31081   5.521   6.963   3.706  0.0267  0.5955  0.4502
10061SOL    HW131082   5.502   7.011   3.620 -1.6461 -0.1239  0.3798
10061SOL    HW231083   5.619   6.945   3.713  0.0916 -0.2880 -1.8581
10062SOL     OW31084   6.930   6.430   3.354  0.1575  0.1532  0.1720
10062SOL    HW131085   6.991   6.454   3.429 -0.6766  1.7081  0.3995
10062SOL    HW231086   6.957   6.342   3.316  2.2333  0.5543  0.5805
10063SOL     OW31087   4.327   4.315   1.416 -0.8574 -0.6123  0.1001
10063SOL    HW131088   4.358   4.405   1.448 -1.3783 -0.3281 -0.1804
10063SOL    HW231089   4.344   4.307   1.318 -1.8912 -0.3487 -0.1125
10064SOL     OW31090   5.136   6.227   3.310 -0.0651 -0.0614  0.2884
10064SOL    HW131091   5.188   6.234   3.225  0.7519 -0.4288  0.7397
10064SOL    HW231092   5.121   6.131   3.332  0.1040  0.0151  0.7665
10065SOL     OW31093   0.893   0.014   5.205 -0.2458  0.1426 -0.3537
10065SOL    HW131094   0.869   0.093   5.147 -0.0956 -0.7190 -1.6233
10065SOL    HW231095   0.971   0.038   5.263  0.9422  0.3824 -1.9960
10066SOL     OW31096   5.577   3.927   1.098 -0.1945  0.5221  0.8670
10066SOL    HW131097   5.596   4.014   1.142  0.7415  0.4196  0.6982
10066SOL    HW231098   5.571   3.940   0.999 -0.4022  0.4489  0.8689
10067SOL     OW31099   4.654   3.477   6.906 -0.0937  0.4520 -0.8795
10067SOL    HW131100   4.725   3.407   6.908  0.6945  1.2283 -1.2352
10067SOL    HW231101   4.611   3.483   6.996  0.7957  0.4859 -0.4508
10068SOL     OW31102   0.194   0.569   3.487  0.1454  0.2552 -0.4687
10068SOL    HW131103   0.285   0.572   3.444 -0.3363  1.8402 -1.4343
10068SOL    HW231104   0.200   0.602   3.581  0.7854 -0.9838 -0.0441
10069SOL     OW31105   1.449   2.181   1.551 -0.5957  0.3303 -0.3060
10069SOL    HW131106   1.528   2.241   1.543 -1.0022  0.8595 -0.4230
10069SOL    HW231107   1.455   2.128   1.636  0.0579  0.0998 -0.4928
10070SOL     OW31108   0.988   4.526   1.591 -0.1542  0.2840  0.0183
10070SOL    HW131109   0.929   4.473   1.651 -0.1935  1.9407  1.5335
10070SOL    HW231110   0.933   4.595   1.543  0.1583  0.1205 -0.5831
10071SOL     OW31111   5.253   2.919   0.242 -0.0109 -0.3894  0.0641
10071SOL    HW131112   5.213   2.887   0.328 -0.4381 -0.3525 -0.1212
10071SOL    HW231113   5.224   2.859   0.167  1.9615 -1.6463  0.2283
10072SOL     OW31114   4.701   6.857   0.902 -0.7862 -0.0829 -0.9429
10072SOL    HW131115   4.709   6.759   0.884 -0.0702 -0.0364 -0.8906
10072SOL    HW231116   4.791   6.900   0.896 -0.5350  0.0573  2.0659
10073SOL     OW31117   4.438   0.715   5.224 -0.0149 -0.9490 -0.2898
10073SOL    HW131118   4.521   0.717   5.168 -0.1569 -3.0026 -0.6447
10073SOL    HW231119   4.372   0.781   5.188  1.4171  0.6902 -0.0176
10074SOL     OW31120   0.371   2.895   4.561  0.1780 -0.7709 -0.5852
10074SOL    HW131121   0.394   2.953   4.482  1.5649 -0.7079 -0.1699
10074SOL    HW231122   0.391   2.944   4.646  2.2722 -2.1186 -0.2160
10075SOL     OW31123   0.257   0.050   6.399 -0.5100 -0.4555 -0.2771
10075SOL    HW131124   0.263   0.058   6.499  2.0089 -1.6681 -0.2643
10075SOL    HW231125   0.255   0.142   6.359 -0.1292  0.0687  0.8529
10076SOL     OW31126   6.803   1.949   1.005 -0.3115 -0.2653  0.0886
10076SOL    HW131127   6.721   1.927   0.953 -0.7870  2.1784 -0.3459
10076SOL    HW231128   6.778   2.005   1.084  0.9116  0.3940  0.0309
10077SOL     OW31129   6.002   6.644   1.472 -0.2763 -0.6390  0.0982
10077SOL    HW131130   6.080   6.706   1.477 -0.9106  0.2667 -0.8234
10077SOL    HW231131   5.953   6.644   1.559  0.7515 -1.2293  0.6861
10078SOL     OW31132   3.826   0.190   5.596  0.9306 -0.2114 -0.1742
10078SOL    HW131133   3.761   0.118   5.618  0.6825 -0.8914 -2.7721
10078SOL    HW231134   3.785   0.252   5.529  2.3077  0.4158 -0.4814
10079SOL     OW31135   1.322   3.380   6.556 -0.5265  0.5909  0.0514
10079SOL    HW131136   1.319   3.323   6.638 -0.3800 -1.0314 -1.0348
10079SOL    HW231137   1.238   3.435   6.551 -0.3445  1.0286  1.4868
10080SOL     OW31138   1.268   6.422   0.771  0.1047 -0.3710 -0.2929
10080SOL    HW131139   1.200   6.414   0.843  0.4421 -0.4956  0.0117
10080SOL    HW231140   1.283   6.518   0.749  0.0277 -0.3314 -0.1705
10081SOL     OW31141   0.876   2.563   4.967  0.7987  0.1317 -0.3872
10081SOL    HW131142   0.874   2.562   5.067 -0.4080 -1.8764 -0.3668
10081SOL    HW231143   0.928   2.484   4.934  0.0063 -0.0242 -1.3224
10082SOL     OW31144   1.513   2.138   2.232 -0.3619  0.3964  0.0447
10082SOL    HW131145   1.425   2.091   2.241  0.5054 -0.9515  2.1601
10082SOL    HW231146   1.509   2.225   2.281 -0.0978 -0.3249  1.3735
10083SOL     OW31147   3.834   5.479   6.953 -0.0627 -0.3517 -0.1634
10083SOL    HW131148   3.828   5.421   6.871  0.5353 -1.1987  0.3799
10083SOL    HW231149   3.837   5.421   7.034  1.2247  0.4193  0.3610
10084SOL     OW31150   0.574   0.233   5.952 -0.0184  0.1577  0.4950
10084SOL    HW131151   0.535   0.163   5.894  1.1930 -0.1137 -0.0186
10084SOL    HW231152   0.500   0.283   5.999 -0.9341 -0.5820 -0.1304
10085SOL     OW31153   6.267   2.073   3.967 -0.1046  0.5579 -0.0154
10085SOL    HW131154   6.173   2.062   4.000 -0.2382  0.7288 -0.3407
10085SOL    HW231155   6.266   2.097   3.870  0.2984 -0.1431 -0.1964
10086SOL     OW31156   5.926   2.943   3.468  0.0144 -0.4768 -0.6380
10086SOL    HW131157   6.011   2.987   3.498  0.3975 -2.3210  1.2203
10086SOL    HW231158   5.947   2.866   3.408 -0.1913 -1.6428  0.7143
10087SOL     OW31159   4.303   2.648   6.595 -0.1963 -0.2874  0.3423
10087SOL    HW131160   4.330   2.660   6.691  0.4681  0.3114  0.0948
10087SOL    HW231161   4.349   2.718   6.540  1.4091 -2.1368 -0.7745
10088SOL     OW31162   1.228   5.928   0.925  0.5432  0.2178 -0.1019
10088SOL    HW131163   1.157   5.982   0.969  0.4109 -0.5747  0.6899
10088SOL    HW231164   1.310   5.984   0.912  0.4447  0.5800  0.7952
10089SOL     OW31165   0.338   3.796   2.330 -0.0642  0.2143  0.1875
10089SOL    HW131166   0.353   3.892   2.351 -0.3229  0.1555  0.6595
10089SOL    HW231167   0.360   3.741   2.410  0.2988 -0.1412 -0.1507
10090SOL     OW31168   0.009   5.352   5.885  0.1575 -0.3385  0.5095
10090SOL    HW131169  -0.033   5.397   5.965  0.0097 -0.0963  0.2962
10090SOL    HW231170   0.095   5.399   5.862 -0.1945  0.0864  0.0445
10091SOL     OW31171   0.286   5.266   3.937 -0.0725 -0.8687 -0.1297
10091SOL    HW131172   0.189   5.292   3.941  0.0278 -0.4294  3.6607
10091SOL    HW231173   0.294   5.167   3.945 -0.3188 -0.7456  3.0422
10092SOL     OW31174   1.521   5.955   5.985  0.3321  0.3070  0.4238
10092SOL    HW131175   1.550   5.979   6.078  1.4613  0.0791  0.1505
10092SOL    HW231176   1.592   5.898   5.942  0.1325  0.9518 -0.8090
10093SOL     OW31177   6.769   5.827   6.608 -0.1784 -1.1977  0.3485
10093SOL    HW131178   6.713   5.895   6.655 -1.9296 -2.0185 -0.4728
10093SOL    HW231179   6.712   5.774   6.545  1.6040 -1.8222 -0.8255
10094SOL     OW31180   6.763   4.983   3.047 -0.3775 -0.1430 -0.2269
10094SOL    HW131181   6.781   4.887   3.071 -0.3624  0.2990  1.6967
10094SOL    HW231182   6.836   5.016   2.987 -0.3870 -1.3134 -0.9290
10095SOL     OW31183   0.303   4.504   1.716 -0.4905 -0.4515 -0.1632
10095SOL    HW131184   0.222   4.555   1.746 -0.4076 -0.8938  0.8747
10095SOL    HW231185   0.376   4.568   1.693 -0.5920 -0.0769  0.5183
10096SOL     OW31186   6.258   2.615   0.664  0.0214  0.1364  0.5956
10096SOL    HW131187   6.348   2.641   0.698 -0.4023  1.8600  0.4987
10096SOL    HW231188   6.194   2.691   0.677 -0.7922 -0.0579 -1.7072
10097SOL     OW31189   5.829   3.703   0.731  0.2574  0.7587 -0.5666
10097SOL    HW131190   5.867   3.615   0.758  0.0448  0.3536 -1.5432
10097SOL    HW231191   5.730   3.701   0.739  0.3177  1.3087  0.5189
10098SOL     OW31192   1.868   3.201   3.124 -0.8574 -0.2302  0.1097
10098SOL    HW131193   1.944   3.244   3.076 -1.2653 -0.4847 -0.7825
10098SOL    HW231194   1.903   3.144   3.199 -0.2881  1.1715  0.9469
10099SOL     OW31195   2.203   4.621   5.173 -0.8223  0.7825 -0.0755
10099SOL    HW131196   2.282   4.564   5.195 -0.8561  0.5781 -0.4616
10099SOL    HW231197   2.212   4.710   5.216  0.0064  1.0420 -0.7547
10100SOL     OW31198   1.935   0.315   2.341 -0.3980 -0.2821 -0.2914
10100SOL    HW131199   1.839   0.338   2.359 -0.7199 -1.0639 -0.9651
10100SOL    HW231200   1.976   0.276   2.424  0.1271  2.4372  0.8519
10101SOL     OW31201   2.154   2.383   3.017 -0.0215 -0.2545 -0.3023
10101SOL    HW131202   2.168   2.455   3.085 -3.6956  0.5154 -0.1508
10101SOL    HW231203   2.146   2.424   2.926  1.3611 -0.9198 -0.7557
10102SOL     OW31204   3.072   3.321   3.954  0.4973 -0.0834 -0.0609
10102SOL    HW131205   3.077   3.421   3.959 -0.4265  0.1338 -2.4227
10102SOL    HW231206   3.024   3.294   3.870  0.9693 -2.5282  0.3910
10103SOL     OW31207   4.305   3.109   6.271 -0.0186  0.2142  0.1963
10103SOL    HW131208   4.378   3.044   6.250  0.6816  0.9545  0.2945
10103SOL    HW231209   4.344   3.192   6.311 -0.7158  1.3356 -1.2988
10104SOL     OW31210   1.870   1.060   4.217 -0.1673 -0.0354 -0.1204
10104SOL    HW131211   1.796   1.117   4.182 -0.0428  0.1176 -0.1354
10104SOL    HW231212   1.935   1.117   4.268  0.0405 -0.1380 -0.2703
10105SOL     OW31213   6.767   3.534   3.155  0.2956  0.1556 -0.0998
10105SOL    HW131214   6.779   3.570   3.062  0.0406  1.6293  0.4248
10105SOL    HW231215   6.851   3.548   3.207  1.0366 -2.1469 -0.5383
10106SOL     OW31216   5.780   6.983   2.254  0.0366  0.0617  0.1038
10106SOL    HW131217   5.804   6.991   2.157  1.4296  0.7999  0.4835
10106SOL    HW231218   5.752   7.072   2.289  2.4758  0.5173  1.0727
10107SOL     OW31219   3.051   6.628   0.584  0.0906  0.1718 -0.4880
10107SOL    HW131220   2.974   6.568   0.561  1.1380 -0.6471 -2.0704
10107SOL    HW231221   3.035   6.718   0.543 -0.9408  0.6470  0.9036
10108SOL     OW31222   3.051   5.252   2.478 -0.1934  0.2660  0.7708
10108SOL    HW131223   3.120   5.188   2.511 -0.3120  0.3033  1.0913
10108SOL    HW231224   3.093   5.340   2.458 -0.5435  1.1262  3.4291
10109SOL     OW31225   2.144   6.777   1.810  0.1204  0.2433  0.0507
10109SOL    HW131226   2.231   6.760   1.764  0.6012  0.7234  0.7576
10109SOL    HW231227   2.075   6.800   1.742  0.3001 -1.0310 -0.6103
10110SOL     OW31228   4.283   2.436   5.754  0.5413  0.3973 -0.4615
10110SOL    HW131229   4.222   2.504   5.712 -0.8554 -0.6430 -0.1958
10110SOL    HW231230   4.315   2.470   5.843 -0.2676  0.6546 -0.2590
10111SOL     OW31231   3.727   5.430   1.836 -0.2338 -0.0170  0.2243
10111SOL    HW131232   3.633   5.458   1.856 -0.6386 -0.7891 -0.4989
10111SOL    HW231233   3.737   5.419   1.737  1.6979  3.7473 -0.1744
10112SOL     OW31234   0.394   0.885   5.798 -0.7552 -1.2073  0.8018
10112SOL    HW131235   0.384   0.955   5.727  1.6019 -1.9807 -0.3820
10112SOL    HW231236   0.333   0.809   5.778  1.0829 -2.2077 -1.5203
10113SOL     OW31237   3.084   5.879   2.298  0.3082 -0.2788  0.2526
10113SOL    HW131238   3.026   5.797   2.298 -0.2826  0.1264  1.2491
10113SOL    HW231239   3.180   5.851   2.306  0.2186 -0.9259 -0.7434
10114SOL     OW31240   6.325   0.546   4.965 -0.5472  0.0262 -0.3508
10114SOL    HW131241   6.344   0.501   4.878  0.8970  1.3355 -0.7484
10114SOL    HW231242   6.346   0.483   5.040  2.0372  0.1598 -0.8763
10115SOL     OW31243   6.558   6.399   1.444 -0.0383 -0.2140 -0.2013
10115SOL    HW131244   6.658   6.401   1.453 -0.0984 -1.1645  1.0969
10115SOL    HW231245   6.517   6.457   1.515 -0.4322 -2.5507  1.6244
10116SOL     OW31246   5.667   3.763   2.620 -0.0060  0.2292 -0.2817
10116SOL    HW131247   5.625   3.789   2.533  0.1154  2.2866  0.2099
10116SOL    HW231248   5.762   3.734   2.604  0.5113  2.0156 -0.7399
10117SOL     OW31249   5.842   5.090   6.345  0.3881  0.4106  0.4749
10117SOL    HW131250   5.788   5.174   6.334 -0.0461 -0.0756 -1.6079
10117SOL    HW231251   5.917   5.090   6.279  0.4990 -0.7486  0.5795
10118SOL     OW31252   6.552   0.920   3.828  0.3919 -0.1749 -0.4091
10118SOL    HW131253   6.532   0.873   3.913 -0.2861 -0.1350 -0.5447
10118SOL    HW231254   6.647   0.951   3.828 -0.0306  1.2320  1.0018
10119SOL     OW31255   6.889   5.138   6.573  0.1011 -0.4251  0.5343
10119SOL    HW131256   6.831   5.151   6.493  1.6231 -0.3538 -0.6013
10119SOL    HW231257   6.850   5.186   6.651 -0.5740  0.9035 -0.5772
10120SOL     OW31258   4.909   1.833   4.861  0.2417  0.5683 -0.1283
10120SOL    HW131259   4.961   1.753   4.830 -1.6205 -0.3794 -0.9655
10120SOL    HW231260   4.817   1.805   4.888  0.3596  2.0728  2.0970
10121SOL     OW31261   5.953   4.378   2.477 -0.2508  0.1987 -0.1846
10121SOL    HW131262   5.957   4.478   2.466  0.5069  0.0145 -1.7367
10121SOL    HW231263   5.858   4.348   2.477 -0.5164  0.9570  0.8717
10122SOL     OW31264   4.965   3.971   2.592  0.2502 -0.2871  0.0406
10122SOL    HW131265   4.919   4.014   2.515  1.0477 -0.5266 -0.5922
10122SOL    HW231266   4.974   3.873   2.575  0.9121 -0.2585  0.1771
10123SOL     OW31267   3.936   5.399   2.533 -0.1709  0.6148  0.1570
10123SOL    HW131268   3.982   5.476   2.575  0.3887  1.0123 -1.1258
10123SOL    HW231269   3.988   5.368   2.453 -0.3603 -1.1127  0.6490
10124SOL     OW31270   1.818   0.372   4.362 -0.3680 -0.4318 -0.3169
10124SOL    HW131271   1.824   0.464   4.399  0.2951 -0.1172 -1.1625
10124SOL    HW231272   1.875   0.365   4.280  0.7038 -1.9802  0.5014
10125SOL     OW31273   4.030   5.286   3.404  0.4010 -0.3340 -0.3559
10125SOL    HW131274   3.964   5.298   3.479  0.3738 -2.0637 -0.0669
10125SOL    HW231275   3.989   5.320   3.319 -0.4692 -0.4576  0.0004
10126SOL     OW31276   4.740   4.183   2.124 -0.0325  0.1064  0.3536
10126SOL    HW131277   4.648   4.220   2.115 -0.3726 -0.7354  0.2733
10126SOL    HW231278   4.745   4.095   2.077  1.0834  0.5977 -0.4978
10127SOL     OW31279   5.849   1.512   3.943 -0.0263 -0.1158 -0.2850
10127SOL    HW131280   5.780   1.522   4.015 -0.5096 -0.4153 -0.6992
10127SOL    HW231281   5.940   1.529   3.981 -0.1564 -1.4840  0.6948
10128SOL     OW31282   5.614   3.147   4.732  0.4206  0.0526  0.2039
10128SOL    HW131283   5.555   3.101   4.798 -0.1229  0.5278  0.0502
10128SOL    HW231284   5.690   3.191   4.780  0.3516 -0.0964  0.4520
10129SOL     OW31285   6.596   2.505   0.622  0.2776 -0.6287  0.0389
10129SOL    HW131286   6.657   2.522   0.700 -0.3099  0.5332  0.2727
10129SOL    HW231287   6.609   2.412   0.590  0.3537 -1.2363  1.7035
10130SOL     OW31288   0.328   0.656   6.015  0.2509  0.0090  0.3623
10130SOL    HW131289   0.250   0.714   5.994  0.1091 -0.4164 -0.3454
10130SOL    HW231290   0.376   0.690   6.095 -0.7047  0.2315  0.8437
10131SOL     OW31291   0.095   5.054   1.723  0.2940 -0.0203 -0.0019
10131SOL    HW131292   0.107   4.991   1.799 -1.6539 -1.1387 -0.5604
10131SOL    HW231293  -0.002   5.062   1.700  0.6945  1.3844 -1.4701
10132SOL     OW31294   5.204   1.298   1.334  0.7248  0.1100  0.4637
10132SOL    HW131295   5.205   1.202   1.306  0.1371  0.2130  0.0677
10132SOL    HW231296   5.190   1.303   1.433  0.5896 -0.2095  0.4639
10133SOL     OW31297   0.661   0.131   3.352 -0.2719  0.0455 -0.1846
10133SOL    HW131298   0.757   0.138   3.323 -0.3761  0.5072 -0.4430
10133SOL    HW231299   0.611   0.074   3.287  0.2682 -1.9909  1.1124
10134SOL     OW31300   3.594   0.412   5.705  0.5740  0.2994  0.4338
10134SOL    HW131301   3.549   0.440   5.790 -0.1229 -0.3199  0.2813
10134SOL    HW231302   3.546   0.333   5.667  1.0732  0.3777 -0.3723
10135SOL     OW31303   6.845   3.648   1.409  0.3498 -0.4463 -0.0695
10135SOL    HW131304   6.751   3.645   1.444 -0.8935  1.9541 -2.7346
10135SOL    HW231305   6.859   3.572   1.345 -0.9437  0.8429 -1.9939
10136SOL     OW31306   6.516   0.270   4.793 -0.1845 -0.4489 -0.1588
10136SOL    HW131307   6.569   0.239   4.714  0.8458 -1.6495  0.9812
10136SOL    HW231308   6.576   0.318   4.857 -0.6872 -0.9192  0.6741
10137SOL     OW31309   2.230   5.385   4.161  0.0505  0.1366 -0.7626
10137SOL    HW131310   2.260   5.358   4.253 -1.2207  0.2618 -0.2952
10137SOL    HW231311   2.305   5.371   4.097  1.5535  1.6240  0.5559
10138SOL     OW31312   4.737   5.541   1.729 -0.4573  0.2513  0.0261
10138SOL    HW131313   4.645   5.503   1.716 -0.7380  0.7844  0.4278
10138SOL    HW231314   4.761   5.598   1.651 -0.1873 -0.4336 -0.4009
10139SOL     OW31315   0.956   5.372   2.799 -0.3556  0.3525  0.4548
10139SOL    HW131316   1.012   5.318   2.862 -0.4313  0.9972  1.0930
10139SOL    HW231317   0.870   5.397   2.844 -0.1406  1.3554  0.3499
10140SOL     OW31318   5.137   0.893   6.474 -0.5728 -0.3405  0.1596
10140SOL    HW131319   5.175   0.845   6.553  1.2950 -0.1631 -0.5670
10140SOL    HW231320   5.166   0.847   6.390 -2.9021 -0.7965 -0.4583
10141SOL     OW31321   3.412   5.691   1.216  0.1629  0.1150 -0.2561
10141SOL    HW131322   3.427   5.594   1.198  0.0986 -0.4556  2.3734
10141SOL    HW231323   3.315   5.713   1.201 -0.2727 -0.7612  1.0799
10142SOL     OW31324   1.513   2.400   0.512  0.2888 -0.1313 -0.6216
10142SOL    HW131325   1.515   2.481   0.572 -0.9552 -0.0425 -0.6759
10142SOL    HW231326   1.583   2.410   0.442  1.0509  0.2701  0.1632
10143SOL     OW31327   1.914   1.655   1.868  0.2843 -0.3815  0.0626
10143SOL    HW131328   1.916   1.736   1.926 -0.2424 -1.3118  1.4433
10143SOL    HW231329   1.819   1.629   1.850  0.4371 -1.4134  0.6996
10144SOL     OW31330   3.362   2.866   2.518 -0.1512  0.6469 -0.0454
10144SOL    HW131331   3.335   2.958   2.548  0.0925  0.5879  0.3694
10144SOL    HW231332   3.284   2.804   2.526 -0.0959  0.6370  0.4636
10145SOL     OW31333   0.635   5.125   2.570 -0.3375 -0.6945  0.3364
10145SOL    HW131334   0.732   5.121   2.592  0.3049  1.4921 -1.7226
10145SOL    HW231335   0.593   5.036   2.589  2.6857 -2.6659 -1.4174
10146SOL     OW31336   5.690   5.380   1.973 -0.3640 -0.0380 -0.1630
10146SOL    HW131337   5.716   5.293   2.015  0.5851 -0.7113 -2.0289
10146SOL    HW231338   5.767   5.443   1.979  0.5806 -0.8417 -2.5934
10147SOL     OW31339   3.982   3.121   6.870 -0.5443 -0.5789  0.2928
10147SOL    HW131340   4.004   3.103   6.966  2.8567 -0.1635 -0.3076
10147SOL    HW231341   4.005   3.042   6.814  0.9475  0.4179 -0.5754
10148SOL     OW31342   3.099   0.248   3.204 -0.4307  0.0284  0.0908
10148SOL    HW131343   3.115   0.153   3.177 -0.1004  0.6361 -1.9780
10148SOL    HW231344   3.001   0.263   3.220 -0.5174 -0.5686  0.1238
10149SOL     OW31345   2.489   1.560   0.102 -0.5471 -0.2471  0.4472
10149SOL    HW131346   2.585   1.538   0.086 -0.6675 -0.1006 -0.5829
10149SOL    HW231347   2.478   1.658   0.116 -0.4470 -0.3711  1.4218
10150SOL     OW31348   1.879   4.030   4.340  0.6726  0.4360  0.1111
10150SOL    HW131349   1.789   3.987   4.340  0.0259  1.7213  0.9470
10150SOL    HW231350   1.869   4.129   4.330  2.0398  0.5442 -0.4741
10151SOL     OW31351   5.854   4.459   6.803 -0.2337 -0.3511 -0.0458
10151SOL    HW131352   5.915   4.382   6.788  0.5470 -0.1689  1.8856
10151SOL    HW231353   5.840   4.508   6.717  0.5993 -1.6469 -0.9542
10152SOL     OW31354   4.383   5.566   0.797 -0.3516 -0.0274  0.7631
10152SOL    HW131355   4.431   5.590   0.881 -0.7958  1.3201  0.6641
10152SOL    HW231356   4.449   5.548   0.724  0.0389 -1.4285  1.4404
10153SOL     OW31357   5.913   0.706   6.341 -0.1695 -0.1751 -0.3440
10153SOL    HW131358   5.967   0.665   6.268 -1.0270 -1.0371 -0.4991
10153SOL    HW231359   5.819   0.673   6.337 -0.5920  0.8806  0.2678
10154SOL     OW31360   6.142   1.636   3.968 -0.7078  0.3394  0.4187
10154SOL    HW131361   6.173   1.562   3.909 -2.8415  1.5708 -2.5041
10154SOL    HW231362   6.211   1.708   3.972  0.1501 -0.4921  0.8634
10155SOL     OW31363   5.622   0.815   0.280  0.6111 -0.0978  0.1396
10155SOL    HW131364   5.682   0.743   0.315  1.5196  0.3644 -0.4146
10155SOL    HW231365   5.668   0.903   0.290 -0.5269  0.4292  0.8983
10156SOL     OW31366   3.143   0.018   5.610 -0.2204 -0.3725  0.4030
10156SOL    HW131367   3.092  -0.055   5.565  0.1530 -0.4477  0.0982
10156SOL    HW231368   3.109   0.030   5.703  0.6351 -1.9016  0.9505
10157SOL     OW31369   5.909   6.204   2.280  0.5119 -0.0465 -0.4690
10157SOL    HW131370   5.874   6.283   2.229  1.5306  2.1016  1.9338
10157SOL    HW231371   5.910   6.225   2.378  1.0221 -3.0266  0.2662
10158SOL     OW31372   5.630   3.792   6.764  0.0330  0.2659 -0.0121
10158SOL    HW131373   5.669   3.811   6.855  0.1841  0.5594 -0.1370
10158SOL    HW231374   5.598   3.697   6.761  0.0496  0.2452  0.3401
10159SOL     OW31375   1.586   5.763   0.703  0.6030  0.4695  0.9790
10159SOL    HW131376   1.494   5.802   0.692  0.1523 -0.2543  2.0309
10159SOL    HW231377   1.579   5.676   0.752  1.6931 -0.3977 -0.3297
10160SOL     OW31378   6.139   2.951   4.927  0.0195  0.8459 -0.6132
10160SOL    HW131379   6.130   3.034   4.871 -1.4115  2.3619  1.6992
10160SOL    HW231380   6.187   2.973   5.012 -0.3171 -0.7333  0.0147
10161SOL     OW31381   3.965   6.609   5.945 -0.2528  0.3132 -0.1473
10161SOL    HW131382   4.064   6.614   5.932 -0.4199  1.2228 -1.2917
10161SOL    HW231383   3.936   6.513   5.942  0.7917 -0.1390  2.2026
10162SOL     OW31384   3.960   0.611   5.872  0.4463 -0.1498  0.0852
10162SOL    HW131385   3.919   0.536   5.925  0.6718  0.2811  0.8895
10162SOL    HW231386   4.052   0.629   5.907  2.0382 -2.1405 -2.6613
10163SOL     OW31387   6.945   0.893   0.353  0.6824 -0.3322 -0.1499
10163SOL    HW131388   7.034   0.898   0.307 -0.3263  1.7002 -2.1555
10163SOL    HW231389   6.930   0.977   0.405 -1.3238  1.0098 -2.6398
10164SOL     OW31390   4.073   2.647   5.735  0.3631 -0.0787  0.2396
10164SOL    HW131391   3.995   2.632   5.675  0.3493 -0.5529  0.3718
10164SOL    HW231392   4.044   2.698   5.816  0.2478 -0.0149  0.1578
10165SOL     OW31393   6.616   6.468   5.010 -0.0783  0.6189 -0.0983
10165SOL    HW131394   6.697   6.471   5.069  0.7992 -1.2546 -1.1150
10165SOL    HW231395   6.643   6.439   4.918 -1.7411  1.2445 -0.8280
10166SOL     OW31396   1.623   2.436   5.443  0.3200  0.3298  0.4421
10166SOL    HW131397   1.579   2.370   5.381  2.0004 -0.6691  0.2613
10166SOL    HW231398   1.695   2.484   5.394  0.1911  1.1414  1.0330
10167SOL     OW31399   4.467   2.474   2.114  0.5702  0.4881  0.0764
10167SOL    HW131400   4.433   2.381   2.113 -1.8222  1.3031  0.2509
10167SOL    HW231401   4.483   2.503   2.209 -0.1095  0.7227  0.1241
10168SOL     OW31402   0.024   6.192   3.845  0.0047 -0.5572  0.1294
10168SOL    HW131403   0.036   6.095   3.863 -0.5788 -0.5758  0.4432
10168SOL    HW231404   0.080   6.245   3.909 -0.1823 -0.6725  0.3886
10169SOL     OW31405   5.032   2.869   2.553 -0.2263  0.5449  0.3877
10169SOL    HW131406   5.111   2.924   2.527  0.3077 -0.2709  0.2415
10169SOL    HW231407   4.950   2.907   2.511  0.5388 -0.4537 -2.2154
10170SOL     OW31408   6.919   3.238   2.583  0.0421  0.0794 -0.3315
10170SOL    HW131409   6.980   3.314   2.562  0.2956 -0.4048 -1.4279
10170SOL    HW231410   6.892   3.192   2.498  0.6490 -1.6394  0.3481
10171SOL     OW31411   6.416   0.141   1.051  0.6845  0.0322 -0.2085
10171SOL    HW131412   6.450   0.186   0.969  1.0763 -1.0170 -0.6426
10171SOL    HW231413   6.394   0.045   1.029  0.5737 -0.1942  0.8569
10172SOL     OW31414   3.387   0.303   3.133 -0.3988  0.2940  0.0398
10172SOL    HW131415   3.464   0.309   3.197  0.3694 -0.1629 -0.8143
10172SOL    HW231416   3.311   0.257   3.178 -0.0938  0.5256  0.8231
10173SOL     OW31417   6.178   3.699   6.670  0.6143 -0.1543  0.1006
10173SOL    HW131418   6.255   3.641   6.699  1.1166  0.9465  1.0650
10173SOL    HW231419   6.103   3.690   6.736  0.7322  0.3518  0.3085
10174SOL     OW31420   1.905   6.019   5.007 -0.1386 -0.1680 -0.1528
10174SOL    HW131421   1.990   5.981   5.042 -0.9352 -1.1514  0.8045
10174SOL    HW231422   1.891   5.988   4.913 -0.2133 -1.3237  0.2294
10175SOL     OW31423   3.428   3.907   1.920  0.0029 -0.4852 -0.7446
10175SOL    HW131424   3.330   3.928   1.910  0.2092  0.3956 -0.9712
10175SOL    HW231425   3.466   3.964   1.993  0.0081 -1.9806  0.4662
10176SOL     OW31426   5.597   4.779   1.712 -0.3948 -0.7632 -0.0767
10176SOL    HW131427   5.625   4.867   1.751  1.7621 -0.8103 -1.3839
10176SOL    HW231428   5.498   4.780   1.698 -0.5315  1.1688  0.6313
10177SOL     OW31429   0.241   6.894   2.397 -0.3423 -0.4785  0.1067
10177SOL    HW131430   0.266   6.805   2.434  0.7356  0.2567  1.2124
10177SOL    HW231431   0.203   6.951   2.470  1.1404  0.7533 -0.0384
10178SOL     OW31432   6.441   2.339   1.288 -0.1809 -0.0927 -0.3468
10178SOL    HW131433   6.393   2.421   1.260 -0.8877  0.2770  1.7632
10178SOL    HW231434   6.405   2.260   1.238 -1.0393  0.5718 -0.7989
10179SOL     OW31435   5.788   4.223   2.991  0.4573  0.0946  0.0338
10179SOL    HW131436   5.874   4.257   3.031  1.2957  1.5555 -2.7414
10179SOL    HW231437   5.809   4.164   2.914 -0.9135  2.0449 -1.9497
10180SOL     OW31438   5.050   4.066   0.576 -0.1979 -0.3683 -0.3310
10180SOL    HW131439   5.008   3.976   0.578  1.9020 -1.4080  0.2825
10180SOL    HW231440   5.146   4.057   0.548 -0.1885  1.7932 -1.1459
10181SOL     OW31441   1.672   0.976   2.632 -0.6038 -0.2334  0.0061
10181SOL    HW131442   1.656   1.022   2.545 -0.1513 -0.8516 -0.4092
10181SOL    HW231443   1.631   1.030   2.706  0.2173  1.0451 -0.4222
10182SOL     OW31444   0.578   1.615   4.490  0.4953  0.5331  0.3423
10182SOL    HW131445   0.613   1.579   4.404 -0.4587  0.5484 -0.0621
10182SOL    HW231446   0.576   1.542   4.558 -2.7536 -0.6721 -0.8640
10183SOL     OW31447   2.727   3.327   1.679  0.2736  0.0556  0.4436
10183SOL    HW131448   2.748   3.233   1.708  1.4295  0.5265  1.2215
10183SOL    HW231449   2.631   3.346   1.696 -0.2714 -1.3660 -0.8403
10184SOL     OW31450   6.592   3.518   3.745  0.1500  0.1570  0.9207
10184SOL    HW131451   6.572   3.519   3.647  1.0422 -0.5277  0.7245
10184SOL    HW231452   6.536   3.588   3.791 -1.5019 -0.6341  0.1866
10185SOL     OW31453   2.808   4.101   1.448 -0.4692  0.1341 -0.0155
10185SOL    HW131454   2.838   4.125   1.540 -0.0662  1.5805 -0.5014
10185SOL    HW231455   2.885   4.066   1.395 -0.2892  0.9667 -0.3249
10186SOL     OW31456   0.134   2.891   2.947  0.0458  0.6237 -0.2696
10186SOL    HW131457   0.035   2.885   2.949  0.0806 -1.0944 -1.3664
10186SOL    HW231458   0.162   2.965   2.886 -0.5751  0.0508 -1.2765
10187SOL     OW31459   0.188   3.761   5.793  0.0408  0.0537  0.2099
10187SOL    HW131460   0.205   3.779   5.890  0.6318  0.9162 -0.0447
10187SOL    HW231461   0.164   3.847   5.747  1.3884 -0.0470 -0.7275
10188SOL     OW31462   6.257   0.756   0.696  0.4020  0.6406  0.1229
10188SOL    HW131463   6.326   0.740   0.625 -0.1982  0.0336 -0.3374
10188SOL    HW231464   6.179   0.805   0.656  0.4876  1.1646  0.5959
10189SOL     OW31465   3.229   1.088   0.895 -0.2740 -0.0358  0.3296
10189SOL    HW131466   3.196   1.094   0.801 -0.3644  0.0487  0.3677
10189SOL    HW231467   3.152   1.072   0.956 -0.2308  0.0559  0.4062
10190SOL     OW31468   1.655   3.091   1.434 -0.4618  0.2164  0.0895
10190SOL    HW131469   1.664   3.075   1.532  0.0618  1.0564  0.1897
10190SOL    HW231470   1.643   3.189   1.417 -0.0425  0.1394 -0.7204
10191SOL     OW31471   3.006   3.941   0.344 -0.6761  0.6860 -0.1019
10191SOL    HW131472   3.103   3.916   0.354 -0.5841  1.1644  0.2469
10191SOL    HW231473   2.964   3.950   0.434 -2.1966 -3.7117 -0.1476
10192SOL     OW31474   6.397   1.004   5.083 -0.0737  0.1139  0.0103
10192SOL    HW131475   6.460   0.964   5.150  0.3931  1.0318  0.1320
10192SOL    HW231476   6.320   1.045   5.131  1.8881  3.8036  0.3693
10193SOL     OW31477   0.589   6.305   2.340  0.0607  0.4034 -0.2209
10193SOL    HW131478   0.497   6.333   2.312 -0.2489  0.2408  0.6041
10193SOL    HW231479   0.620   6.366   2.413  1.0067  1.0648 -1.1512
10194SOL     OW31480   0.358   1.882   0.246  0.1573  0.0334  0.0384
10194SOL    HW131481   0.432   1.919   0.303  0.7814  0.1643 -0.8333
10194SOL    HW231482   0.279   1.861   0.303  0.9862 -0.4128  1.0402
10195SOL     OW31483   1.778   3.309   3.424  0.7660 -0.4522  0.6438
10195SOL    HW131484   1.774   3.314   3.325 -1.0808 -3.2820  0.4548
10195SOL    HW231485   1.782   3.401   3.463 -2.7292  0.9925 -1.9404
10196SOL     OW31486   0.161   4.548   6.820 -0.5278  0.3490 -0.0099
10196SOL    HW131487   0.223   4.487   6.770  0.1512  0.3779  0.7995
10196SOL    HW231488   0.071   4.547   6.774 -0.1001 -0.1039 -0.8690
10197SOL     OW31489   4.881   3.161   2.179 -0.0249  0.3884  0.2468
10197SOL    HW131490   4.857   3.114   2.263 -2.7955  1.0499 -0.0601
10197SOL    HW231491   4.834   3.118   2.102  2.1189  0.0604 -0.9516
10198SOL     OW31492   1.583   5.574   6.063  0.1738 -0.3245  0.0456
10198SOL    HW131493   1.651   5.647   6.064 -0.1532 -0.0063  1.7862
10198SOL    HW231494   1.623   5.491   6.024  0.9949  0.3510 -0.5896
10199SOL     OW31495   2.087   6.402   3.197  0.1439  0.2386 -0.0481
10199SOL    HW131496   2.117   6.320   3.147  3.0642  0.2649  1.4314
10199SOL    HW231497   2.040   6.374   3.281 -0.4246  0.1198 -0.4029
10200SOL     OW31498   0.299   4.736   0.298 -0.2508  0.5581 -0.6463
10200SOL    HW131499   0.363   4.746   0.222  0.5180 -0.6202 -0.1890
10200SOL    HW231500   0.332   4.787   0.377 -0.0983  0.3242 -0.5555
10201SOL     OW31501   1.916   5.473   3.730 -0.2528  0.1291  0.1986
10201SOL    HW131502   1.854   5.399   3.705  0.9175 -1.2856  1.2665
10201SOL    HW231503   1.876   5.526   3.805 -0.6403 -0.1182  0.1687
10202SOL     OW31504   5.024   3.270   1.952  0.4933  0.0482  0.3201
10202SOL    HW131505   4.965   3.252   2.030  0.5302  1.3411  0.6579
10202SOL    HW231506   5.032   3.187   1.897 -0.6311 -0.4887  0.9392
10203SOL     OW31507   0.882   2.522   3.480  0.1987  0.8161 -0.3868
10203SOL    HW131508   0.948   2.598   3.477 -1.3103  2.2052  0.2632
10203SOL    HW231509   0.902   2.463   3.558  1.4315  0.4737 -0.9375
10204SOL     OW31510   0.006   0.993   6.572 -0.7170  0.1707 -0.2289
10204SOL    HW131511  -0.037   0.927   6.634  0.6804  0.3529  0.9855
10204SOL    HW231512   0.072   1.048   6.623  0.6702  0.1662 -1.9397
10205SOL     OW31513   1.915   4.025   1.123  0.0388 -0.4492  0.6770
10205SOL    HW131514   1.831   3.987   1.160 -0.1051  0.7117  1.6124
10205SOL    HW231515   1.937   3.981   1.036 -1.0569 -1.3674  0.8498
10206SOL     OW31516   4.655   4.234   4.517  0.3121 -0.5463  0.4812
10206SOL    HW131517   4.682   4.265   4.608  0.3683 -0.9481  0.6001
10206SOL    HW231518   4.677   4.137   4.506 -1.8480 -1.1478  0.9062
10207SOL     OW31519   3.573   1.648   4.025  0.3879 -0.1798  0.0078
10207SOL    HW131520   3.622   1.719   4.076  0.9950 -1.7482  1.7170
10207SOL    HW231521   3.634   1.571   4.008  0.1098  0.1393 -2.9420
10208SOL     OW31522   2.050   0.867   4.334  0.0510  0.4997  0.2038
10208SOL    HW131523   2.029   0.870   4.431 -1.0604  0.1297 -0.0155
10208SOL    HW231524   1.975   0.908   4.282 -0.1810 -0.8805 -0.5974
10209SOL     OW31525   0.623   4.557   5.182 -0.1774  0.3908 -0.5021
10209SOL    HW131526   0.720   4.535   5.166  0.6668  1.2652  2.6498
10209SOL    HW231527   0.602   4.645   5.140  0.5935  0.4924 -0.6959
10210SOL     OW31528   2.019   0.873   0.657 -0.1356 -0.0387 -0.3458
10210SOL    HW131529   1.976   0.794   0.612 -0.3058 -0.6279  0.8219
10210SOL    HW231530   2.098   0.902   0.604 -1.6848  0.8129 -2.3378
10211SOL     OW31531   1.043   0.514   6.724  0.0478 -0.0518 -0.0789
10211SOL    HW131532   1.119   0.578   6.720  0.0155 -0.0991 -2.1947
10211SOL    HW231533   0.957   0.565   6.728  0.0622  0.0441 -0.8650
10212SOL     OW31534   5.236   6.737   2.589  0.2675  0.0548  0.3997
10212SOL    HW131535   5.168   6.782   2.647  0.6023  0.9499  0.1007
10212SOL    HW231536   5.199   6.728   2.496  0.4362  0.2510  0.3146
10213SOL     OW31537   0.810   0.985   3.123 -0.2237  0.0830  0.2587
10213SOL    HW131538   0.849   1.037   3.047 -0.7717 -0.2294 -0.2384
10213SOL    HW231539   0.817   0.887   3.103  0.6696 -0.0497  1.1238
10214SOL     OW31540   5.477   4.719   3.320  0.0245 -0.2986 -0.1122
10214SOL    HW131541   5.381   4.728   3.293  0.2237  1.5477 -0.3114
10214SOL    HW231542   5.505   4.624   3.309 -1.5740 -0.7444 -0.7247
10215SOL     OW31543   3.856   5.264   2.003  0.0426  0.0271 -0.5493
10215SOL    HW131544   3.904   5.196   1.949 -0.7923  0.0227 -1.3137
10215SOL    HW231545   3.806   5.326   1.942 -1.6298 -0.4976  0.2025
10216SOL     OW31546   1.897   3.368   4.968  0.1516  0.5028 -0.4524
10216SOL    HW131547   1.841   3.329   4.894 -0.4381  0.9458 -0.2508
10216SOL    HW231548   1.994   3.353   4.948 -0.0367 -0.7438 -0.5598
10217SOL     OW31549   4.392   0.430   5.307  1.2859 -0.4213 -0.2915
10217SOL    HW131550   4.448   0.492   5.362 -0.2054 -0.5620  1.4719
10217SOL    HW231551   4.295   0.450   5.322  0.8081 -1.3589 -1.8739
10218SOL     OW31552   0.325   3.584   6.264 -0.0159 -0.5112 -0.2384
10218SOL    HW131553   0.242   3.530   6.256  0.1446 -0.4536 -3.3820
10218SOL    HW231554   0.394   3.532   6.315 -0.3171 -2.7488 -2.0005
10219SOL     OW31555   2.732   0.097   2.684 -0.5997 -0.0078 -0.5296
10219SOL    HW131556   2.646   0.124   2.727 -0.3459 -0.2905  0.1676
10219SOL    HW231557   2.761   0.168   2.620 -0.5139  0.8573  0.4422
10220SOL     OW31558   3.535   2.611   5.597 -0.0500  0.2619 -0.5465
10220SOL    HW131559   3.550   2.542   5.527 -0.2012 -0.3368  0.0047
10220SOL    HW231560   3.476   2.683   5.561  0.4208  0.3026 -1.2468
10221SOL     OW31561   6.075   3.396   5.915 -0.6767 -0.6960  0.0923
10221SOL    HW131562   6.072   3.446   5.829  2.0502 -0.5763 -0.0393
10221SOL    HW231563   6.081   3.460   5.991 -1.6896 -0.8167  0.2859
10222SOL     OW31564   6.363   3.597   5.660  0.4821 -0.8594 -0.4522
10222SOL    HW131565   6.343   3.517   5.717 -1.0844  0.4356  0.9221
10222SOL    HW231566   6.462   3.603   5.645  1.2800 -0.2629  3.7899
10223SOL     OW31567   4.852   1.068   0.441 -0.2685 -0.3032  0.4382
10223SOL    HW131568   4.789   1.114   0.379  0.3447  1.5729  1.1366
10223SOL    HW231569   4.938   1.049   0.394  0.2890  1.3485  0.7532
10224SOL     OW31570   3.123   5.255   6.671 -0.2721 -0.0258  0.3816
10224SOL    HW131571   3.192   5.257   6.599 -0.5597 -0.4782  0.0916
10224SOL    HW231572   3.039   5.214   6.635 -1.0017  1.3386  0.4531
10225SOL     OW31573   0.769   2.665   4.725  0.4281  0.2574  0.0413
10225SOL    HW131574   0.819   2.641   4.808 -0.9015  0.9753  1.0810
10225SOL    HW231575   0.804   2.751   4.688 -0.8273  1.4588  1.5076
10226SOL     OW31576   5.981   3.421   1.551 -0.0156  0.0257 -0.1450
10226SOL    HW131577   6.011   3.363   1.627 -1.6249  1.0573  1.3363
10226SOL    HW231578   5.906   3.376   1.503 -0.4332  0.3020  0.2354
10227SOL     OW31579   5.869   2.541   6.399 -0.3274  0.3265  0.3668
10227SOL    HW131580   5.879   2.546   6.498 -0.0717 -1.0660  0.4245
10227SOL    HW231581   5.881   2.632   6.360 -0.7146  0.9439  1.6298
10228SOL     OW31582   1.349   3.991   6.796 -0.6863 -0.5553 -0.0361
10228SOL    HW131583   1.394   4.037   6.872 -1.9728  0.3632  0.2009
10228SOL    HW231584   1.391   4.019   6.710 -1.3469  1.0041  0.1180
10229SOL     OW31585   2.465   6.134   2.385  0.4409 -0.1408 -0.3889
10229SOL    HW131586   2.399   6.207   2.372  1.0161  0.0849 -2.3539
10229SOL    HW231587   2.418   6.046   2.382 -0.1283  0.0915  1.0943
10230SOL     OW31588   1.348   1.316   3.026 -0.7243  0.0884  0.0337
10230SOL    HW131589   1.301   1.272   2.949 -1.3523  0.9169 -0.0771
10230SOL    HW231590   1.305   1.404   3.045  0.5815  0.7200  0.1726
10231SOL     OW31591   0.087   4.159   0.947  0.0343 -0.4890  0.6001
10231SOL    HW131592   0.019   4.189   1.015  2.3007  1.7137  2.0762
10231SOL    HW231593   0.070   4.206   0.861 -0.2900  0.0830  0.9664
10232SOL     OW31594   1.628   3.955   6.398 -0.8426  0.1912 -0.6723
10232SOL    HW131595   1.714   4.004   6.410  0.5964 -2.3512  0.0892
10232SOL    HW231596   1.552   4.017   6.415  0.8564  1.5837  2.8423
10233SOL     OW31597   3.595   4.649   6.169 -0.8240  0.0383 -0.4761
10233SOL    HW131598   3.689   4.683   6.161 -0.3053 -1.2670 -0.0369
10233SOL    HW231599   3.561   4.627   6.078 -0.4871 -0.0734 -0.5773
10234SOL     OW31600   3.557   3.944   5.389  0.7491  0.3146 -0.2724
10234SOL    HW131601   3.512   3.909   5.471 -1.4958  0.8843 -1.1906
10234SOL    HW231602   3.571   4.043   5.398 -2.1334  0.9588 -1.5822
10235SOL     OW31603   4.946   4.811   3.219 -0.5209  0.0192 -0.0388
10235SOL    HW131604   4.912   4.905   3.219 -0.6597 -0.0277 -0.4567
10235SOL    HW231605   4.869   4.748   3.209 -0.5613 -0.2026  1.3926
10236SOL     OW31606   4.128   5.967   6.977 -0.2064 -0.1108  0.4320
10236SOL    HW131607   4.132   5.943   7.074  0.9236  1.9924  0.9860
10236SOL    HW231608   4.144   6.066   6.967  0.4317 -0.3940 -1.9564
10237SOL     OW31609   6.832   3.220   0.367 -0.2981  0.1255  0.6222
10237SOL    HW131610   6.927   3.235   0.395 -0.4880  3.2802 -0.0841
10237SOL    HW231611   6.782   3.181   0.444  1.1335  0.2832  1.6908
10238SOL     OW31612   4.427   2.164   6.211 -0.3405 -0.1496  0.0896
10238SOL    HW131613   4.454   2.257   6.186 -2.3196  0.4884  0.1952
10238SOL    HW231614   4.375   2.166   6.296  0.3492 -1.4777  0.5700
10239SOL     OW31615   6.328   1.390   6.111 -0.1414  0.1161  0.4025
10239SOL    HW131616   6.379   1.368   6.194 -0.3800 -0.2575  0.4589
10239SOL    HW231617   6.362   1.475   6.071  1.1792 -0.6232 -0.1053
10240SOL     OW31618   2.502   4.612   4.963 -0.2944 -0.1935 -0.2485
10240SOL    HW131619   2.497   4.616   4.864 -1.2505  0.4958 -0.1841
10240SOL    HW231620   2.597   4.598   4.991  0.2416  1.2574 -1.2080
10241SOL     OW31621   6.802   1.909   1.398  0.3127 -0.6850 -0.2075
10241SOL    HW131622   6.875   1.860   1.350  1.0587  0.5670 -0.3939
10241SOL    HW231623   6.823   1.913   1.496  2.4115  2.6782 -0.6350
10242SOL     OW31624   6.233   1.321   1.602 -0.3030  0.0151  0.3128
10242SOL    HW131625   6.173   1.397   1.579 -0.0642  0.1261  0.0496
10242SOL    HW231626   6.273   1.337   1.693 -0.2423  0.2144  0.2529
10243SOL     OW31627   0.847   5.927   5.899 -0.8286  0.1134  0.5097
10243SOL    HW131628   0.936   5.968   5.881  0.0062 -1.7444  0.2809
10243SOL    HW231629   0.821   5.943   5.994 -1.3473  2.5942  0.0421
10244SOL     OW31630   2.129   1.173   0.803  0.1698  0.6067 -0.2318
10244SOL    HW131631   2.168   1.138   0.889 -0.0192  1.6984  0.3202
10244SOL    HW231632   2.144   1.107   0.730 -0.2639 -0.6517  0.7846
10245SOL     OW31633   1.454   2.316   5.003  0.2186  0.4306  0.8372
10245SOL    HW131634   1.496   2.233   4.966 -1.9534 -0.3477 -0.0880
10245SOL    HW231635   1.372   2.291   5.055  0.1137  1.9366  1.4309
10246SOL     OW31636   3.711   0.911   1.105 -0.4873 -0.5602 -0.0021
10246SOL    HW131637   3.777   0.862   1.162 -1.4889  0.2049  1.8958
10246SOL    HW231638   3.656   0.972   1.162  0.8899  3.0761 -2.2448
10247SOL     OW31639   2.527   3.466   5.912 -0.3242  0.0541  0.1054
10247SOL    HW131640   2.550   3.558   5.944 -2.2829 -0.1648  2.4362
10247SOL    HW231641   2.605   3.428   5.863  1.9131  1.5880  2.2115
10248SOL     OW31642   1.676   3.689   4.475 -0.5495  0.3607 -1.0019
10248SOL    HW131643   1.726   3.672   4.560 -0.4496  1.0007 -0.9292
10248SOL    HW231644   1.722   3.642   4.400 -0.3948  0.1397 -0.7711
10249SOL     OW31645   2.108   5.845   4.632  0.3943 -0.4756  0.1806
10249SOL    HW131646   2.080   5.787   4.556  1.0586 -0.3062 -0.2009
10249SOL    HW231647   2.150   5.788   4.703 -0.2977 -0.6442  0.4648
10250SOL     OW31648   1.741   6.184   1.302  0.0601  0.2496 -0.2747
10250SOL    HW131649   1.780   6.135   1.224  0.6505 -2.2980  1.5090
10250SOL    HW231650   1.790   6.271   1.314  0.6927  0.1867 -2.0258
10251SOL     OW31651   4.004   0.111   0.106  0.3337  0.3564 -0.3266
10251SOL    HW131652   3.962   0.199   0.126  1.5194  0.5970  1.2829
10251SOL    HW231653   4.087   0.099   0.161 -0.4380 -2.2849  0.4317
10252SOL     OW31654   3.241   5.102   4.965 -0.0374 -0.3700 -0.1320
10252SOL    HW131655   3.215   5.015   4.922 -0.0394  0.2672 -1.4522
10252SOL    HW231656   3.159   5.155   4.986  0.0211  1.0495 -3.0605
10253SOL     OW31657   5.071   1.043   4.599  0.0899 -1.2609 -0.2050
10253SOL    HW131658   5.064   1.108   4.675  2.1818 -2.0610  0.7590
10253SOL    HW231659   5.166   1.038   4.570 -0.1427 -3.3989 -0.7055
10254SOL     OW31660   0.028   2.277   5.036  0.5089 -0.9233  0.1094
10254SOL    HW131661   0.087   2.320   5.105 -1.4042 -1.0780  1.9545
10254SOL    HW231662   0.072   2.281   4.947  2.1174  1.3166  0.9174
10255SOL     OW31663   1.299   0.154   2.743 -0.2933 -0.9376  0.2661
10255SOL    HW131664   1.361   0.178   2.668 -0.4830  0.9327  0.6512
10255SOL    HW231665   1.207   0.188   2.722 -0.9442 -2.5959  0.2581
10256SOL     OW31666   1.964   1.277   5.874  0.0611  0.1682  0.0782
10256SOL    HW131667   2.056   1.244   5.854 -0.3748 -1.8424  1.0690
10256SOL    HW231668   1.907   1.269   5.793  0.7472  1.5344 -0.5747
10257SOL     OW31669   2.134   6.782   5.772  0.1495  0.1013  0.4461
10257SOL    HW131670   2.108   6.875   5.743  1.4728  0.3413 -0.0269
10257SOL    HW231671   2.084   6.758   5.855 -0.6117  1.0254  0.2764
10258SOL     OW31672   1.030   4.805   3.339  0.6858 -0.2341 -0.3997
10258SOL    HW131673   0.959   4.837   3.401  1.3240  0.0141  0.2257
10258SOL    HW231674   1.090   4.881   3.314  0.2481 -0.2691 -1.5862
10259SOL     OW31675   2.133   0.948   6.487  0.7753  0.7388  0.0745
10259SOL    HW131676   2.107   0.973   6.394  0.9005  0.8265  0.0619
10259SOL    HW231677   2.081   0.868   6.517  1.8247 -0.2309 -0.6342
10260SOL     OW31678   5.684   0.260   3.638  0.4520  0.3687  0.1448
10260SOL    HW131679   5.712   0.351   3.608 -0.0118  0.6362  0.4997
10260SOL    HW231680   5.765   0.208   3.666  0.8191  0.3236 -0.9746
10261SOL     OW31681   5.623   0.422   0.961 -0.5642 -0.4316  0.3157
10261SOL    HW131682   5.691   0.362   0.919  1.1307  0.6789  1.3547
10261SOL    HW231683   5.533   0.404   0.920  0.2167 -2.3290 -0.7087
10262SOL     OW31684   5.563   2.209   6.493 -0.1099 -0.8956  0.1920
10262SOL    HW131685   5.553   2.177   6.587 -1.5274 -1.5328 -0.1400
10262SOL    HW231686   5.508   2.151   6.433 -0.2286  0.2779 -0.8594
10263SOL     OW31687   1.446   3.322   1.415 -0.1340  0.6336 -0.0639
10263SOL    HW131688   1.496   3.331   1.329  1.7802  0.6849  0.9901
10263SOL    HW231689   1.369   3.386   1.416  0.4200  1.3629 -1.3168
10264SOL     OW31690   0.247   4.077   0.290  0.2968  0.0228  0.5645
10264SOL    HW131691   0.233   4.096   0.193  2.2407 -0.3195  0.1732
10264SOL    HW231692   0.299   3.992   0.300  1.0407  0.5939  1.8448
10265SOL     OW31693   2.406   6.238   6.138 -0.0822  0.4439 -0.5817
10265SOL    HW131694   2.428   6.190   6.223 -3.3551 -0.7361 -0.2365
10265SOL    HW231695   2.386   6.334   6.159  3.4495  1.3558 -0.8109
10266SOL     OW31696   3.532   6.212   6.441  0.1444 -0.5614 -0.2891
10266SOL    HW131697   3.607   6.150   6.415 -0.4300 -0.8772 -1.2374
10266SOL    HW231698   3.547   6.244   6.534  0.3942 -2.2257  0.2750
10267SOL     OW31699   6.882   3.755   6.014  0.3795 -0.2407 -0.1455
10267SOL    HW131700   6.908   3.762   6.111  0.9979 -1.8545 -0.1642
10267SOL    HW231701   6.935   3.821   5.961 -0.0929  0.7869  0.6179
10268SOL     OW31702   2.585   4.980   5.749  0.6420  0.0420 -0.5654
10268SOL    HW131703   2.494   4.946   5.724  0.7979  0.8100 -2.3089
10268SOL    HW231704   2.650   4.904   5.750  0.1110 -0.4078  0.0457
10269SOL     OW31705   4.503   0.888   6.985 -1.1616 -0.0037 -0.0019
10269SOL    HW131706   4.518   0.895   6.886  0.5020 -1.7790  0.0654
10269SOL    HW231707   4.459   0.801   7.006 -2.2050  0.6944  0.7737
10270SOL     OW31708   1.916   3.195   2.334  0.3512  0.3145  0.0064
10270SOL    HW131709   2.006   3.207   2.376  0.0418 -0.3750  0.8994
10270SOL    HW231710   1.925   3.195   2.235  1.2221  1.0907  0.0779
10271SOL     OW31711   6.796   4.298   5.759  0.2174  0.7335 -0.1880
10271SOL    HW131712   6.773   4.207   5.724  2.5399 -0.0229  0.0724
10271SOL    HW231713   6.732   4.323   5.831  0.7874 -1.6943  1.2965
10272SOL     OW31714   1.514   6.475   6.938 -0.6707 -0.2406  0.2243
10272SOL    HW131715   1.574   6.546   6.976  0.7684 -2.0011  1.4777
10272SOL    HW231716   1.484   6.501   6.847  1.6453  0.9666 -0.2636
10273SOL     OW31717   1.588   5.769   1.876 -0.3481  0.1545  0.1154
10273SOL    HW131718   1.594   5.720   1.789 -1.6964 -2.6502  1.4724
10273SOL    HW231719   1.679   5.782   1.914  0.1003 -0.4539 -0.7285
10274SOL     OW31720   5.255   5.246   5.650 -0.6142  0.7797  0.3674
10274SOL    HW131721   5.349   5.227   5.679 -0.9850 -1.9293  0.0815
10274SOL    HW231722   5.253   5.261   5.551 -0.5216  0.2924  0.2866
10275SOL     OW31723   2.389   0.039   4.304  0.6668  0.0211  0.1027
10275SOL    HW131724   2.448  -0.039   4.322  0.4746  0.1919  1.5672
10275SOL    HW231725   2.361   0.081   4.390 -3.2765 -1.3097 -0.2899
10276SOL     OW31726   3.633   6.077   3.823  0.1577 -0.0638  0.1025
10276SOL    HW131727   3.731   6.093   3.813 -0.1991  1.0459 -2.3459
10276SOL    HW231728   3.596   6.044   3.736 -2.1965  2.9616 -0.1974
10277SOL     OW31729   5.930   3.266   3.969 -0.0248 -0.9258 -0.5360
10277SOL    HW131730   6.023   3.237   3.950 -0.3775 -2.5577  0.0461
10277SOL    HW231731   5.870   3.237   3.894 -0.2615 -0.9771 -0.3275
10278SOL     OW31732   4.730   0.973   2.418 -0.5651 -0.0424 -0.2155
10278SOL    HW131733   4.662   1.035   2.378 -2.4072 -1.7363  0.1209
10278SOL    HW231734   4.709   0.960   2.515  1.3046  0.7108  0.3263
10279SOL     OW31735   1.329   5.874   5.783  0.4462 -0.5641 -0.6212
10279SOL    HW131736   1.353   5.905   5.691 -1.0564  0.1391 -0.8107
10279SOL    HW231737   1.386   5.921   5.850  1.2677 -0.7751 -1.1654
10280SOL     OW31738   1.368   4.291   1.749 -0.2706 -0.1308 -0.1304
10280SOL    HW131739   1.291   4.316   1.690 -0.7879  0.4654  0.7833
10280SOL    HW231740   1.448   4.274   1.692 -0.5615  1.1525 -0.9718
10281SOL     OW31741   5.354   0.442   1.267  0.2315  0.1488 -0.2074
10281SOL    HW131742   5.419   0.370   1.243 -0.4783 -1.0950  1.3498
10281SOL    HW231743   5.370   0.472   1.361 -0.9848  0.3206 -0.0287
10282SOL     OW31744   0.145   0.500   1.924 -0.1579 -0.0412  0.1717
10282SOL    HW131745   0.085   0.555   1.866  1.1968  1.1467 -0.1609
10282SOL    HW231746   0.231   0.548   1.938 -0.0550 -0.7497  2.3643
10283SOL     OW31747   5.212   1.506   5.993 -0.7247 -0.4696 -0.2831
10283SOL    HW131748   5.117   1.482   6.013 -1.1221  1.7290  0.7881
10283SOL    HW231749   5.271   1.427   6.010 -2.0924 -1.2081  1.3111
10284SOL     OW31750   0.048   4.228   0.440  0.7876 -0.2300 -0.0543
10284SOL    HW131751   0.022   4.164   0.513  0.8784 -0.4610 -0.2210
10284SOL    HW231752   0.108   4.181   0.375 -0.2778 -0.3930 -0.9574
10285SOL     OW31753   5.210   4.078   6.641 -0.1458 -0.0372  0.6483
10285SOL    HW131754   5.184   4.102   6.734 -0.8628 -2.0905  1.0388
10285SOL    HW231755   5.146   4.120   6.576  0.0315  0.9511  1.0953
10286SOL     OW31756   0.625   5.398   1.761 -0.3094 -0.5024  0.2652
10286SOL    HW131757   0.662   5.314   1.720  0.5035 -0.7410  1.4244
10286SOL    HW231758   0.684   5.426   1.837 -0.6772  1.0231  0.0166
10287SOL     OW31759   1.585   6.223   6.934 -0.0522 -0.1410  0.5984
10287SOL    HW131760   1.530   6.302   6.960 -0.6317 -0.5472  0.6213
10287SOL    HW231761   1.675   6.229   6.978 -0.2612  0.2634  0.9774
10288SOL     OW31762   0.776   5.886   1.267  0.1259  0.4971 -0.2332
10288SOL    HW131763   0.702   5.843   1.319 -0.4261  1.5909 -0.0835
10288SOL    HW231764   0.749   5.894   1.171  1.4920 -2.3335 -0.9683
10289SOL     OW31765   6.861   6.047   1.580  0.3510  0.3754  0.1653
10289SOL    HW131766   6.821   6.076   1.668 -1.7179 -0.8716 -0.3018
10289SOL    HW231767   6.857   5.948   1.574  0.2044  0.4663 -1.4478
10290SOL     OW31768   4.538   5.618   2.354 -0.0476 -0.6688  0.4191
10290SOL    HW131769   4.489   5.687   2.302 -0.1828 -0.4113  0.8832
10290SOL    HW231770   4.481   5.537   2.366 -0.3249 -0.4066  0.8774
10291SOL     OW31771   5.464   5.247   2.976 -0.6105 -0.6979 -0.5001
10291SOL    HW131772   5.446   5.244   3.074  2.8349 -3.0481  0.2212
10291SOL    HW231773   5.452   5.156   2.937  0.8420 -0.4398 -1.6315
10292SOL     OW31774   6.000   3.074   4.250 -0.1014 -0.2466 -0.0900
10292SOL    HW131775   5.925   3.123   4.294  0.0027  0.6375 -0.8571
10292SOL    HW231776   5.964   3.016   4.177  0.0386  1.3529 -1.5092
10293SOL     OW31777   3.208   4.522   5.448 -0.2859  0.3443 -0.2626
10293SOL    HW131778   3.251   4.563   5.368 -0.8232  0.4545 -0.5044
10293SOL    HW231779   3.277   4.482   5.508  0.0225 -1.5071 -1.7602
10294SOL     OW31780   6.898   3.325   4.828 -0.0131  0.4687  0.0553
10294SOL    HW131781   6.994   3.349   4.818  0.3028 -0.4997  0.5810
10294SOL    HW231782   6.848   3.400   4.872  0.4037  1.1421 -0.6064
10295SOL     OW31783   6.321   4.551   3.265  0.1123 -0.3217 -0.2510
10295SOL    HW131784   6.358   4.545   3.357 -0.1823  0.7020 -0.0548
10295SOL    HW231785   6.288   4.644   3.248 -0.5354 -0.6956 -1.1222
10296SOL     OW31786   5.213   3.412   4.925 -0.1643 -0.7189  0.5728
10296SOL    HW131787   5.183   3.493   4.974 -0.4599  0.0837 -0.8859
10296SOL    HW231788   5.175   3.413   4.832 -0.1945 -2.5306  0.5220
10297SOL     OW31789   1.060   5.379   6.729 -0.4556 -0.0128 -0.2265
10297SOL    HW131790   1.058   5.473   6.697  0.4451 -0.5357 -1.9238
10297SOL    HW231791   1.032   5.376   6.825 -0.9342  1.9076 -0.2658
10298SOL     OW31792   6.895   5.720   6.278 -0.3011 -0.2204  0.4287
10298SOL    HW131793   6.799   5.743   6.260 -0.6319  0.1309  2.4292
10298SOL    HW231794   6.950   5.741   6.197 -1.4339  2.5761  0.2674
10299SOL     OW31795   4.041   3.948   1.707  0.2353  0.3675 -0.2755
10299SOL    HW131796   4.121   4.007   1.705  0.8722 -0.3762  1.2583
10299SOL    HW231797   3.958   4.003   1.715  0.6133  1.1240 -1.3786
10300SOL     OW31798   4.385   2.458   4.257 -0.2254  0.3446 -0.1321
10300SOL    HW131799   4.378   2.427   4.162 -0.2184 -0.2446  0.0593
10300SOL    HW231800   4.475   2.434   4.293 -0.7987 -0.8795  0.5329
10301SOL     OW31801   4.184   3.553   5.477  0.0789 -0.1396  0.3322
10301SOL    HW131802   4.106   3.595   5.432  0.0263  1.0922  1.4860
10301SOL    HW231803   4.259   3.619   5.483 -0.1973  0.0505  2.6894
10302SOL     OW31804   1.842   3.633   1.745 -0.3249  0.3040 -0.4999
10302SOL    HW131805   1.925   3.678   1.778  0.1038 -0.7353 -0.1333
10302SOL    HW231806   1.788   3.602   1.824  0.1451 -1.1805 -0.7272
10303SOL     OW31807   2.935   0.058   1.190  0.1597 -0.1151  0.0698
10303SOL    HW131808   2.898   0.001   1.117 -0.3802  1.4879 -0.9573
10303SOL    HW231809   3.034   0.061   1.183  0.0908  0.2436 -0.7585
10304SOL     OW31810   5.025   3.441   1.643 -0.1079  0.0883  0.1747
10304SOL    HW131811   5.059   3.500   1.716 -1.7947 -0.5439  1.5248
10304SOL    HW231812   4.956   3.378   1.679 -0.9078 -0.3422 -1.9425
10305SOL     OW31813   2.047   6.482   5.407  0.1134 -0.1863 -0.5965
10305SOL    HW131814   1.999   6.556   5.455  0.7896 -0.3145  0.2926
10305SOL    HW231815   1.989   6.448   5.333 -1.3649 -0.6199  0.6951
10306SOL     OW31816   1.658   3.141   2.406 -0.3492  0.0173  0.0383
10306SOL    HW131817   1.621   3.151   2.313 -0.2346 -2.1829 -0.2974
10306SOL    HW231818   1.753   3.172   2.408  0.0810 -1.1585 -0.9494
10307SOL     OW31819   1.545   2.469   2.625  0.0695 -0.1701  0.0737
10307SOL    HW131820   1.546   2.392   2.689 -1.4655 -0.0888  0.2257
10307SOL    HW231821   1.518   2.437   2.535  4.0496 -0.6490 -1.1528
10308SOL     OW31822   5.105   2.792   4.570  0.2571 -0.6348 -0.1549
10308SOL    HW131823   5.013   2.824   4.546  0.2500 -0.6592 -0.1612
10308SOL    HW231824   5.156   2.771   4.486  0.7269  0.6240 -0.1999
10309SOL     OW31825   1.983   5.086   0.839  0.1356 -0.5098 -0.1126
10309SOL    HW131826   1.958   5.125   0.928  1.9645 -1.0602  0.6878
10309SOL    HW231827   2.034   5.154   0.786  0.2683 -0.6393 -0.1526
10310SOL     OW31828   3.800   0.190   5.146  0.3735 -0.2691  0.3885
10310SOL    HW131829   3.769   0.099   5.172  0.7871 -0.5242 -0.0041
10310SOL    HW231830   3.755   0.258   5.204 -0.9692 -0.6149 -0.2014
10311SOL     OW31831   6.899   1.683   2.657 -0.7215 -0.7911  0.0215
10311SOL    HW131832   6.897   1.774   2.700 -1.5539  0.0940 -1.7571
10311SOL    HW231833   6.990   1.643   2.667  0.0788  0.8540 -0.3155
10312SOL     OW31834   4.384   5.782   2.955  0.0887 -0.0141 -0.3203
10312SOL    HW131835   4.329   5.700   2.974 -2.5947  1.7484  0.1107
10312SOL    HW231836   4.340   5.835   2.883  1.2813  1.4941  0.0179
10313SOL     OW31837   1.066   2.814   6.032  0.5730 -0.1254  0.0022
10313SOL    HW131838   1.000   2.819   5.957  0.5620 -1.4255 -0.1001
10313SOL    HW231839   1.017   2.796   6.118  0.6561  0.5548  0.1947
10314SOL     OW31840   1.448   2.726   2.327 -0.6242 -0.4555 -0.7228
10314SOL    HW131841   1.423   2.786   2.252  0.8361  3.1777  1.4437
10314SOL    HW231842   1.547   2.713   2.328 -0.8221 -2.1580 -0.5657
10315SOL     OW31843   0.473   6.874   3.326  0.0902 -0.4300  0.2695
10315SOL    HW131844   0.504   6.834   3.239  0.1848 -1.4763  0.7634
10315SOL    HW231845   0.459   6.972   3.314  0.7781 -0.4319 -0.7428
10316SOL     OW31846   3.177   0.640   5.541 -0.1005  0.6079  0.1461
10316SOL    HW131847   3.222   0.576   5.478  2.0038  2.0343  0.0867
10316SOL    HW231848   3.119   0.590   5.605  2.3275 -1.5273  0.8352
10317SOL     OW31849   2.574   1.904   3.414 -0.4509 -0.1436  0.3287
10317SOL    HW131850   2.566   1.808   3.389 -1.3818 -0.6106  2.2703
10317SOL    HW231851   2.665   1.938   3.388  0.3185 -1.8681  0.6748
10318SOL     OW31852   0.788   3.537   3.360 -0.3872  0.0166  0.2291
10318SOL    HW131853   0.775   3.565   3.455 -2.4754 -0.1614  0.0266
10318SOL    HW231854   0.769   3.614   3.300 -1.4550 -0.5122 -0.1278
10319SOL     OW31855   0.169   2.362   6.830 -0.0088 -0.2636  0.4411
10319SOL    HW131856   0.267   2.352   6.846  0.3401 -0.5633 -1.6709
10319SOL    HW231857   0.153   2.397   6.738 -1.9286 -1.9203  0.0684
10320SOL     OW31858   1.759   3.402   1.491 -0.3234 -0.0024  0.0033
10320SOL    HW131859   1.802   3.492   1.494 -1.1904  0.4349 -0.1783
10320SOL    HW231860   1.790   3.352   1.410 -1.8952  1.2286 -1.4338
10321SOL     OW31861   6.396   3.751   3.734 -0.0845 -0.2020 -0.3611
10321SOL    HW131862   6.361   3.786   3.821 -0.1269 -1.4923  0.1619
10321SOL    HW231863   6.320   3.724   3.675 -0.0911  1.3622 -1.1432
10322SOL     OW31864   4.861   2.961   2.381  0.1479 -0.0770  0.4832
10322SOL    HW131865   4.906   2.886   2.334 -1.2726 -0.0349 -1.0167
10322SOL    HW231866   4.764   2.939   2.394 -0.0803  1.0938  0.8877
10323SOL     OW31867   2.112   3.678   4.079  0.4885 -0.2018 -0.2001
10323SOL    HW131868   2.161   3.672   3.992  2.6512  0.1885  0.9203
10323SOL    HW231869   2.087   3.773   4.096 -2.0382 -0.5681 -1.4151
10324SOL     OW31870   0.354   6.048   3.490  0.2384 -0.2258 -0.0343
10324SOL    HW131871   0.302   6.120   3.538  1.8821  1.6122 -0.8566
10324SOL    HW231872   0.342   5.961   3.537  0.0785  1.0588  2.4650
10325SOL     OW31873   1.142   1.215   3.419 -0.4466 -0.2237  0.1984
10325SOL    HW131874   1.143   1.257   3.510  0.6728 -1.5205  0.8171
10325SOL    HW231875   1.098   1.277   3.355 -2.3997  0.2247  1.8521
10326SOL     OW31876   3.945   5.050   1.846 -0.1230 -0.9650  0.4250
10326SOL    HW131877   4.033   5.025   1.885 -0.6303 -0.4831  1.9251
10326SOL    HW231878   3.927   4.992   1.766  1.4936 -1.1230  0.1461
10327SOL     OW31879   6.940   1.558   1.725  0.3828  0.2364  0.3295
10327SOL    HW131880   6.885   1.552   1.808 -0.6550  1.0722 -0.2860
10327SOL    HW231881   6.887   1.600   1.652  0.4501 -2.5575 -1.4757
10328SOL     OW31882   0.795   1.888   0.210  0.1882  0.1795  0.3219
10328SOL    HW131883   0.817   1.984   0.227  0.3510 -0.1693  2.3171
10328SOL    HW231884   0.867   1.830   0.248  0.8980 -0.7572 -2.2377
10329SOL     OW31885   3.260   5.671   2.278  0.2284  0.5217  0.4864
10329SOL    HW131886   3.295   5.578   2.274 -0.2388  0.3602 -0.1159
10329SOL    HW231887   3.302   5.726   2.205  0.1368  0.6473  0.5275
10330SOL     OW31888   6.476   5.570   6.403  0.5949  0.2778  0.2731
10330SOL    HW131889   6.524   5.492   6.361  1.8882  0.5384  1.2020
10330SOL    HW231890   6.538   5.648   6.407  0.1788  0.5578  1.7282
10331SOL     OW31891   5.908   6.648   4.077 -0.0921  0.4252 -0.2977
10331SOL    HW131892   5.969   6.576   4.043 -1.9509  0.5667 -4.5867
10331SOL    HW231893   5.876   6.703   4.000 -3.9796  1.6678  1.9478
10332SOL     OW31894   4.037   4.294   0.171 -0.0778 -0.0352  0.1857
10332SOL    HW131895   4.091   4.377   0.183  1.7192 -0.8344 -1.8932
10332SOL    HW231896   4.090   4.214   0.199 -0.7462 -0.7237 -0.4426
10333SOL     OW31897   5.934   2.853   2.304 -0.5302  0.0581 -0.7071
10333SOL    HW131898   6.011   2.791   2.322  0.3590  1.2230 -0.3393
10333SOL    HW231899   5.952   2.904   2.220 -1.4534 -0.4444 -1.2329
10334SOL     OW31900   6.981   4.973   2.471 -0.4875 -0.3457  0.3073
10334SOL    HW131901   6.961   4.904   2.401  0.9778 -0.4824 -0.0162
10334SOL    HW231902   6.917   4.964   2.546 -0.7045 -1.6773 -0.0148
10335SOL     OW31903   2.527   3.327   0.536 -0.1428 -0.4580  0.4007
10335SOL    HW131904   2.486   3.407   0.491  0.4362 -0.0884  0.5208
10335SOL    HW231905   2.467   3.297   0.610 -0.2486  0.0189  0.5161
10336SOL     OW31906   3.528   2.613   6.557  0.2616 -0.0995  0.0928
10336SOL    HW131907   3.587   2.693   6.556 -0.6862  0.6169 -1.2857
10336SOL    HW231908   3.445   2.632   6.506  0.0421 -1.9822 -0.3296
10337SOL     OW31909   1.355   5.744   2.282  0.1236 -0.0003  0.0876
10337SOL    HW131910   1.281   5.801   2.247  0.2902 -1.1853 -2.3862
10337SOL    HW231911   1.353   5.654   2.237  1.4826 -1.0034  1.8907
10338SOL     OW31912   2.446   0.908   4.445 -0.0220 -0.6828  0.2640
10338SOL    HW131913   2.423   0.819   4.484 -2.2367 -0.1512  0.3058
10338SOL    HW231914   2.404   0.916   4.354 -0.9923  0.8005  0.8144
10339SOL     OW31915   2.046   3.255   2.687 -0.2701  0.6783 -0.4640
10339SOL    HW131916   2.072   3.167   2.726 -2.1700 -0.1388 -0.9316
10339SOL    HW231917   2.047   3.250   2.588 -0.2234  1.2331 -0.4960
10340SOL     OW31918   3.154   6.458   3.994 -0.5912  0.3423 -0.3697
10340SOL    HW131919   3.137   6.501   3.905 -2.1539  1.4764  0.4465
10340SOL    HW231920   3.227   6.390   3.984  0.0052  1.1957 -2.2842
10341SOL     OW31921   6.227   1.436   3.810  0.0124  0.2946  0.1230
10341SOL    HW131922   6.179   1.416   3.725  0.0806  1.6247 -0.2408
10341SOL    HW231923   6.326   1.432   3.795  0.0760 -2.0402  0.7773
10342SOL     OW31924   3.068   0.451   4.613  0.2530 -0.1172 -0.2865
10342SOL    HW131925   3.109   0.402   4.536 -0.5017 -1.2436 -0.0004
10342SOL    HW231926   3.093   0.547   4.609 -0.0575 -0.0791 -2.1391
10343SOL     OW31927   6.178   0.448   6.480  0.1943 -0.3934 -0.3076
10343SOL    HW131928   6.251   0.441   6.412 -0.7701 -0.6459 -1.3538
10343SOL    HW231929   6.095   0.404   6.445 -1.2586  2.1106 -0.2868
10344SOL     OW31930   3.150   0.828   5.989 -0.4531  0.9949 -0.1691
10344SOL    HW131931   3.154   0.836   5.889  0.6799 -3.7355 -0.7079
10344SOL    HW231932   3.242   0.820   6.026 -0.9527  0.2263  0.9590
10345SOL     OW31933   3.669   1.051   4.595 -0.4981 -0.7635 -0.0899
10345SOL    HW131934   3.604   0.983   4.629 -0.0917 -0.7089  0.8573
10345SOL    HW231935   3.760   1.030   4.632 -0.7074  1.3715  1.8536
10346SOL     OW31936   0.521   2.580   1.161  0.2305  0.2307  0.3217
10346SOL    HW131937   0.482   2.501   1.207  0.6000 -1.0554 -1.4676
10346SOL    HW231938   0.621   2.569   1.155  0.3331  1.0381  0.4265
10347SOL     OW31939   0.009   6.579   2.036  0.6991  0.6607 -0.3711
10347SOL    HW131940   0.045   6.598   1.944  0.9144 -1.2481 -0.7202
10347SOL    HW231941  -0.091   6.580   2.034  0.7038  0.8330 -0.5724
10348SOL     OW31942   0.436   2.156   2.546 -0.2665  0.2407 -0.2896
10348SOL    HW131943   0.385   2.237   2.577  0.4408  1.2102 -1.5611
10348SOL    HW231944   0.372   2.089   2.508 -0.9910 -0.3603  1.8483
10349SOL     OW31945   1.863   2.734   5.383 -0.1123  0.4620 -0.7162
10349SOL    HW131946   1.850   2.640   5.351  1.2613  0.7186 -2.2149
10349SOL    HW231947   1.886   2.734   5.480  0.1462 -0.7827 -0.7595
10350SOL     OW31948   0.613   1.445   3.346  0.1583 -0.3980 -0.4277
10350SOL    HW131949   0.693   1.440   3.406 -0.1076  0.1379 -0.0171
10350SOL    HW231950   0.540   1.496   3.392  0.6190  1.7401 -1.9142
10351SOL     OW31951   1.912   0.137   2.884  0.2756  1.1456 -0.1558
10351SOL    HW131952   1.919   0.038   2.895 -0.4241  0.9117 -1.6687
10351SOL    HW231953   1.824   0.169   2.919  0.0523  1.0757 -0.6482
10352SOL     OW31954   3.320   5.218   0.957 -0.7254 -0.0973 -0.4756
10352SOL    HW131955   3.366   5.302   0.928  1.0223 -1.3240 -1.4207
10352SOL    HW231956   3.268   5.236   1.040  0.8869  1.5591  0.2440
10353SOL     OW31957   0.659   3.985   0.822 -0.2061 -0.2117 -0.6012
10353SOL    HW131958   0.689   3.891   0.841  0.6509 -0.3662 -2.5465
10353SOL    HW231959   0.647   4.033   0.909  0.8353 -1.6562  0.4034
10354SOL     OW31960   0.741   4.653   0.464 -0.5609 -0.4345  0.9961
10354SOL    HW131961   0.659   4.637   0.519 -0.7832 -0.3640  0.6830
10354SOL    HW231962   0.822   4.641   0.522 -0.5948 -4.1597  0.5180
10355SOL     OW31963   5.105   2.308   6.611 -0.2220  0.6874 -0.3678
10355SOL    HW131964   5.108   2.306   6.511 -0.3680  1.5354 -0.3943
10355SOL    HW231965   5.197   2.326   6.646 -0.3547  1.4317 -0.3878
10356SOL     OW31966   2.469   1.919   6.919 -0.3995 -0.3536 -0.1806
10356SOL    HW131967   2.551   1.943   6.972 -1.2525 -0.5421  1.2848
10356SOL    HW231968   2.490   1.841   6.859  0.7067  0.1219 -0.4323
10357SOL     OW31969   5.423   2.993   6.864  0.0231 -0.2450 -0.1417
10357SOL    HW131970   5.440   2.988   6.962  1.1733  0.6265 -0.2707
10357SOL    HW231971   5.510   2.984   6.815 -0.4837 -0.2652 -1.0613
10358SOL     OW31972   3.999   4.852   3.591  0.3392 -0.4188  0.2947
10358SOL    HW131973   3.977   4.885   3.683  0.9522  0.1113  0.2580
10358SOL    HW231974   3.959   4.913   3.523  0.5174 -0.3853  0.2177
10359SOL     OW31975   0.726   5.446   2.922  0.9679 -0.7225 -0.0610
10359SOL    HW131976   0.695   5.528   2.970  1.3101 -0.2665 -0.6001
10359SOL    HW231977   0.671   5.367   2.950 -1.0550  0.1399 -1.3767
10360SOL     OW31978   6.370   2.458   6.229 -0.1592 -0.1402  0.0370
10360SOL    HW131979   6.378   2.362   6.201 -0.9036 -0.1325 -0.2361
10360SOL    HW231980   6.274   2.478   6.250 -0.1800  0.7945 -0.8756
10361SOL     OW31981   1.814   5.340   6.974  0.4750 -0.3076 -0.6422
10361SOL    HW131982   1.718   5.324   6.997 -0.0152  2.3025 -0.5557
10361SOL    HW231983   1.830   5.314   6.879 -0.1709 -1.2430 -0.5053
10362SOL     OW31984   3.795   5.872   1.797 -0.2019  0.0891  0.7050
10362SOL    HW131985   3.759   5.835   1.883 -2.2761 -0.0493 -0.1510
10362SOL    HW231986   3.790   5.802   1.726  0.8769  0.4017  0.3139
10363SOL     OW31987   1.152   0.114   0.581 -0.2542  0.5178 -0.0274
10363SOL    HW131988   1.088   0.077   0.513  1.3387 -0.1944 -1.2024
10363SOL    HW231989   1.221   0.045   0.602 -0.7325  0.7141  2.3987
10364SOL     OW31990   3.304   1.825   1.389  0.1627  0.3049 -0.2741
10364SOL    HW131991   3.348   1.903   1.432 -1.4845  0.7225  0.7491
10364SOL    HW231992   3.293   1.751   1.456 -0.0678 -0.0512 -0.6929
10365SOL     OW31993   0.844   3.290   1.330 -0.1576 -0.0065 -0.8537
10365SOL    HW131994   0.857   3.201   1.374  3.1056 -1.1012 -3.5732
10365SOL    HW231995   0.874   3.363   1.392 -3.1571 -0.6310  1.5288
10366SOL     OW31996   5.313   3.651   5.259 -0.1237  0.3417 -0.0198
10366SOL    HW131997   5.260   3.678   5.339  0.9833  1.8772  0.2395
10366SOL    HW231998   5.259   3.665   5.177 -0.9117 -0.2794  0.3812
10367SOL     OW31999   4.466   0.699   1.971  0.2010  0.0751 -0.3839
10367SOL    HW132000   4.540   0.667   1.911 -1.1571 -1.7163 -1.1760
10367SOL    HW232001   4.503   0.766   2.035  3.1186 -2.5123  0.9223
10368SOL     OW32002   3.419   5.693   3.113 -0.1522 -0.3411 -0.7747
10368SOL    HW132003   3.383   5.779   3.149  0.1420 -0.7434  0.5592
10368SOL    HW232004   3.420   5.696   3.013 -2.0039  0.4400 -0.8062
10369SOL     OW32005   6.911   3.569   1.042 -0.2267 -0.4712  0.0201
10369SOL    HW132006   6.906   3.665   1.016  1.3377 -0.6307 -0.9755
10369SOL    HW232007   6.878   3.512   0.968 -2.2606 -0.7041  1.0407
10370SOL     OW32008   0.198   5.527   0.069 -0.2400  0.2394  0.0265
10370SOL    HW132009   0.224   5.517   0.165 -1.6792  0.0893  0.4263
10370SOL    HW232010   0.151   5.615   0.056  1.9202  1.2999 -1.0287
10371SOL     OW32011   5.172   2.814   0.504  0.0975  0.3731  0.6950
10371SOL    HW132012   5.116   2.739   0.538 -0.5675  1.1371  1.3254
10371SOL    HW232013   5.169   2.890   0.569 -1.1127  1.8418 -0.9783
10372SOL     OW32014   4.591   5.953   1.391  0.2053  0.5334  0.0237
10372SOL    HW132015   4.544   5.990   1.310 -0.1397  1.3136  0.5686
10372SOL    HW232016   4.669   6.011   1.413  0.3342  0.2856  0.2140
10373SOL     OW32017   5.579   0.188   6.576  0.3573 -0.2980  0.1104
10373SOL    HW132018   5.602   0.280   6.606  0.1562 -0.2979  0.2672
10373SOL    HW232019   5.517   0.146   6.643 -0.5143 -0.1143 -0.5782
10374SOL     OW32020   6.771   0.695   2.198  0.0822  0.1596  0.4540
10374SOL    HW132021   6.693   0.633   2.192 -1.3203  1.8828  0.1729
10374SOL    HW232022   6.745   0.777   2.248  1.7133  0.8008  0.3103
10375SOL     OW32023   5.986   2.205   3.681 -0.5814 -0.4287  0.1220
10375SOL    HW132024   6.005   2.290   3.730 -0.1109 -1.9985  2.8799
10375SOL    HW232025   5.888   2.185   3.685 -0.5050 -0.7111  0.7714
10376SOL     OW32026   1.852   0.905   2.370 -0.4948 -0.7871 -0.0603
10376SOL    HW132027   1.878   0.994   2.333 -0.3702 -0.3700  0.9861
10376SOL    HW232028   1.753   0.893   2.362 -1.0041  0.8272  2.5466
10377SOL     OW32029   5.231   3.656   1.394 -0.4942 -0.3983 -0.1611
10377SOL    HW132030   5.209   3.738   1.342  1.6332  1.4845  1.7193
10377SOL    HW232031   5.284   3.593   1.337  1.3841  1.4019 -0.5329
10378SOL     OW32032   1.513   6.898   2.744  0.2107  0.0107  0.0871
10378SOL    HW132033   1.581   6.854   2.802  1.9072 -0.3934 -2.0579
10378SOL    HW232034   1.519   6.997   2.753  0.1946 -0.0552  0.8410
10379SOL     OW32035   6.457   6.780   4.609 -0.3142  0.6692  0.7237
10379SOL    HW132036   6.359   6.798   4.623 -1.6224 -2.3584 -2.9679
10379SOL    HW232037   6.481   6.692   4.649 -0.7052 -1.3047 -2.9318
10380SOL     OW32038   4.167   4.721   2.248 -0.1324  0.1636 -0.1267
10380SOL    HW132039   4.217   4.689   2.168 -1.8446  0.3871 -1.3563
10380SOL    HW232040   4.113   4.802   2.223 -1.4338 -0.3195  0.9833
10381SOL     OW32041   1.652   3.213   0.026  0.6917  0.2379  0.5827
10381SOL    HW132042   1.667   3.195  -0.072  2.7714 -2.8730  1.3294
10381SOL    HW232043   1.598   3.139   0.066 -2.9851  3.0329  1.3546
10382SOL     OW32044   1.773   5.766   6.048  0.8439 -0.1213  0.4087
10382SOL    HW132045   1.796   5.802   5.958  2.5302  1.2707  1.3340
10382SOL    HW232046   1.835   5.690   6.071 -1.1940 -2.2076 -0.5648
10383SOL     OW32047   3.224   0.885   1.414  0.4537  0.2616  0.2683
10383SOL    HW132048   3.152   0.840   1.361  0.3081  1.0827 -0.2453
10383SOL    HW232049   3.204   0.982   1.423  1.3566  0.4513  0.3656
10384SOL     OW32050   0.650   1.898   6.338 -0.1059  0.7799  0.0982
10384SOL    HW132051   0.661   1.815   6.393  1.4088  0.8858 -0.0073
10384SOL    HW232052   0.589   1.878   6.261  0.5300 -0.3524 -0.1305
10385SOL     OW32053   5.417   5.889   5.754  0.5534 -0.4041 -0.3089
10385SOL    HW132054   5.426   5.984   5.783 -0.2920 -0.4234  0.0425
10385SOL    HW232055   5.426   5.884   5.654 -2.4364  0.4954 -0.7139
10386SOL     OW32056   5.977   6.677   5.203  0.1227 -0.5187  0.5156
10386SOL    HW132057   6.047   6.747   5.217  1.3528 -1.5718 -0.1859
10386SOL    HW232058   5.980   6.645   5.108 -0.3241 -1.6217  0.8609
10387SOL     OW32059   2.224   1.634   3.010  0.1659 -0.2330 -0.4453
10387SOL    HW132060   2.206   1.680   2.923  0.2622 -0.3229 -0.5139
10387SOL    HW232061   2.191   1.690   3.085 -1.0102 -0.6950 -0.5950
10388SOL     OW32062   5.629   4.344   6.629 -0.2064  0.4828  0.6553
10388SOL    HW132063   5.709   4.292   6.660  1.4411  0.7388 -2.6975
10388SOL    HW232064   5.649   4.442   6.633  0.2814  0.5225 -1.4270
10389SOL     OW32065   2.672   0.015   6.438 -0.3752  0.6115 -0.1241
10389SOL    HW132066   2.644  -0.030   6.354 -1.5975  1.7399 -0.3361
10389SOL    HW232067   2.666  -0.050   6.514 -0.4792 -0.0477 -0.6889
10390SOL     OW32068   2.782   6.195   6.277  0.3070 -0.9335 -0.0692
10390SOL    HW132069   2.825   6.247   6.202  1.5991  1.0401  1.9140
10390SOL    HW232070   2.683   6.197   6.266  0.4119  0.4067 -1.0711
10391SOL     OW32071   6.957   2.748   4.538 -0.1323 -0.6963  0.3673
10391SOL    HW132072   6.865   2.744   4.499 -0.3034 -2.6252  0.8688
10391SOL    HW232073   7.021   2.780   4.468 -0.9401 -0.8639 -0.4719
10392SOL     OW32074   1.909   0.631   2.243 -0.1521 -0.3898  0.3368
10392SOL    HW132075   1.915   0.703   2.311  0.4087  0.2894 -0.4187
10392SOL    HW232076   1.993   0.576   2.244 -0.4685 -0.8855  0.7257
10393SOL     OW32077   1.327   4.486   3.492  0.6241  0.4819 -0.1141
10393SOL    HW132078   1.357   4.417   3.558 -1.1639 -0.7214 -0.4950
10393SOL    HW232079   1.362   4.463   3.402 -0.6264 -0.4266 -0.3929
10394SOL     OW32080   2.594   2.096   2.124 -0.1859  0.3396 -0.6832
10394SOL    HW132081   2.653   2.089   2.043  0.9940 -0.6514  0.2152
10394SOL    HW232082   2.639   2.152   2.193 -0.9904  0.8232 -0.5459
10395SOL     OW32083   2.828   5.426   1.426 -0.2987  0.5449  0.1686
10395SOL    HW132084   2.795   5.383   1.341  1.4846 -0.4579 -0.0617
10395SOL    HW232085   2.906   5.375   1.461  0.2355  2.1077  1.3626
10396SOL     OW32086   6.587   1.340   2.448 -0.0702  0.1627  0.2749
10396SOL    HW132087   6.602   1.351   2.350  3.5048  1.2050  0.7884
10396SOL    HW232088   6.574   1.244   2.470  1.0373 -0.3214 -1.0533
10397SOL     OW32089   3.134   2.192   4.566 -0.0272 -0.3643  0.6988
10397SOL    HW132090   3.185   2.216   4.483  0.8112  2.3039  1.8941
10397SOL    HW232091   3.189   2.128   4.620  1.9686  1.9924  1.6707
10398SOL     OW32092   5.200   6.420   1.521  0.1980 -0.2559  0.0033
10398SOL    HW132093   5.284   6.369   1.538 -0.7156 -1.4529  1.1027
10398SOL    HW232094   5.152   6.381   1.443 -0.3772 -0.9621  0.6921
10399SOL     OW32095   7.007   2.322   1.478 -0.3660 -0.4001 -0.8663
10399SOL    HW132096   6.939   2.258   1.442 -1.7749  1.1488 -1.0364
10399SOL    HW232097   7.027   2.392   1.409  0.9385 -0.4499 -0.5773
10400SOL     OW32098   0.720   2.620   0.283 -0.2014  0.3160 -0.5545
10400SOL    HW132099   0.769   2.535   0.301 -1.9735 -1.0455 -1.8171
10400SOL    HW232100   0.773   2.697   0.318  1.4608 -1.2811  0.6302
10401SOL     OW32101   0.562   0.198   3.046 -0.9764 -0.5037  0.6811
10401SOL    HW132102   0.642   0.255   3.064 -1.0122 -0.4638  0.7129
10401SOL    HW232103   0.588   0.122   2.986 -1.4842  1.0672 -1.7017
10402SOL     OW32104   4.522   5.217   6.216  0.6668 -0.1203  0.2924
10402SOL    HW132105   4.468   5.293   6.252 -0.5660 -0.9052  0.1649
10402SOL    HW232106   4.466   5.165   6.151  1.2135 -1.6091  0.9809
10403SOL     OW32107   5.643   6.604   5.881  0.2867  0.0378 -0.2176
10403SOL    HW132108   5.623   6.508   5.902 -0.7729  0.3748  0.3492
10403SOL    HW232109   5.604   6.663   5.952 -0.8581  1.0249 -1.6207
10404SOL     OW32110   5.691   2.794   1.779 -0.2094  0.8752 -0.4542
10404SOL    HW132111   5.620   2.851   1.820 -0.2371  0.7996 -0.3964
10404SOL    HW232112   5.775   2.848   1.768  0.1434  0.6038  0.7249
10405SOL     OW32113   2.541   1.734   5.285  0.8051  0.7697  0.1816
10405SOL    HW132114   2.543   1.793   5.205  0.4484  0.1210 -0.3187
10405SOL    HW232115   2.489   1.779   5.358 -0.1493  0.7553 -0.4644
10406SOL     OW32116   3.472   3.643   4.279 -0.0571 -0.0330 -0.5546
10406SOL    HW132117   3.522   3.564   4.243  0.3312 -0.7308  1.3491
10406SOL    HW232118   3.380   3.644   4.240  0.1764 -1.0066 -1.1790
10407SOL     OW32119   5.019   0.047   1.924  0.0241 -0.0371 -0.2425
10407SOL    HW132120   5.085   0.112   1.963 -0.2422 -0.8609  1.7067
10407SOL    HW232121   5.012  -0.033   1.984 -3.7744  0.6438  0.4629
10408SOL     OW32122   4.769   6.549   4.518  0.5691  0.1183  0.6838
10408SOL    HW132123   4.723   6.638   4.516  0.5201  0.0840  0.1452
10408SOL    HW232124   4.711   6.483   4.565  0.1963  0.1472  0.2687
10409SOL     OW32125   4.434   6.712   4.195  0.2241 -0.3663 -0.0210
10409SOL    HW132126   4.523   6.736   4.233 -0.2196 -0.5197  1.1583
10409SOL    HW232127   4.442   6.699   4.096  1.2545  0.8147 -0.1122
10410SOL     OW32128   6.153   0.944   1.009  0.1360  0.1193 -0.6248
10410SOL    HW132129   6.092   0.864   1.005 -3.1161  2.3228  0.4506
10410SOL    HW232130   6.207   0.940   1.092 -0.2134 -0.8158 -0.4219
10411SOL     OW32131   1.222   5.247   3.368  0.3917  0.1464  0.1185
10411SOL    HW132132   1.320   5.269   3.369  0.5251 -0.2141 -1.4307
10411SOL    HW232133   1.192   5.222   3.460  1.4399  1.5524  0.8853
10412SOL     OW32134   1.923   4.136   5.907 -0.0477  0.0100 -0.7220
10412SOL    HW132135   1.915   4.222   5.856 -0.3513 -0.7823 -2.0586
10412SOL    HW232136   1.868   4.066   5.862 -2.0856 -0.2286  1.9183
10413SOL     OW32137   3.418   5.068   3.835 -0.0905  0.1463  0.3079
10413SOL    HW132138   3.335   5.087   3.887  0.8506  1.2101  1.4965
10413SOL    HW232139   3.494   5.050   3.897  0.8050  0.2194 -0.7163
10414SOL     OW32140   3.492   0.983   3.131  0.2066  0.2155 -0.4601
10414SOL    HW132141   3.483   1.054   3.061 -1.2086 -0.2167 -0.7557
10414SOL    HW232142   3.459   0.896   3.094 -3.7713  0.5839  1.6319
10415SOL     OW32143   4.338   6.812   6.894 -0.1580 -1.1737  0.2137
10415SOL    HW132144   4.396   6.872   6.949  0.8086 -0.5243 -1.4211
10415SOL    HW232145   4.395   6.762   6.828 -1.0880 -3.0383  0.7412
10416SOL     OW32146   5.372   6.095   1.037 -0.6002 -0.5469 -0.1479
10416SOL    HW132147   5.445   6.027   1.042 -1.0117 -0.9722  0.2046
10416SOL    HW232148   5.381   6.148   0.953  0.1879 -0.5067 -0.0469
10417SOL     OW32149   6.695   3.985   0.529  0.4338 -0.2698 -0.4144
10417SOL    HW132150   6.620   3.925   0.500  0.0427  0.8297 -1.8039
10417SOL    HW232151   6.685   4.073   0.484 -0.9369  2.1388  4.0208
10418SOL     OW32152   6.944   5.334   4.939  0.5534  0.3914  0.0499
10418SOL    HW132153   6.846   5.348   4.958  0.0453 -0.2832 -1.8023
10418SOL    HW232154   6.998   5.392   5.000 -0.9926  0.8424  1.0763
10419SOL     OW32155   3.207   5.611   0.560 -0.3836  0.7657  0.0964
10419SOL    HW132156   3.230   5.560   0.477 -1.2344 -1.2933  1.0632
10419SOL    HW232157   3.266   5.581   0.634 -2.4227 -0.5990  1.2561
10420SOL     OW32158   4.147   5.105   5.412 -0.9003 -0.4155  0.0130
10420SOL    HW132159   4.186   5.181   5.360 -1.8855 -0.2065 -0.4457
10420SOL    HW232160   4.115   5.034   5.348 -0.2293 -1.1021  0.4261
10421SOL     OW32161   3.666   5.424   4.821 -0.5137  0.8663 -0.3319
10421SOL    HW132162   3.580   5.375   4.832  0.1901 -0.4575 -0.4124
10421SOL    HW232163   3.707   5.401   4.732  0.0909  1.1906 -0.1478
10422SOL     OW32164   3.584   6.026   1.627 -0.0300 -0.0231 -0.3484
10422SOL    HW132165   3.642   5.991   1.700 -0.3858 -0.4048 -0.2453
10422SOL    HW232166   3.490   5.997   1.642 -0.1282  0.0052 -0.8888
10423SOL     OW32167   1.621   2.576   3.667  0.6391 -0.1404  0.3626
10423SOL    HW132168   1.710   2.598   3.707  0.4022 -0.5319  1.1085
10423SOL    HW232169   1.634   2.538   3.575  1.0665  4.7153 -1.9344
10424SOL     OW32170   4.572   1.216   5.710 -0.0911  0.2818 -0.2747
10424SOL    HW132171   4.559   1.192   5.806  1.8906  0.3514  0.0517
10424SOL    HW232172   4.564   1.315   5.699  1.4719  0.4908  0.1905
10425SOL     OW32173   3.526   6.818   1.060 -0.5821 -0.1626  0.2122
10425SOL    HW132174   3.494   6.912   1.069  2.0262  0.8945 -0.7349
10425SOL    HW232175   3.527   6.793   0.963 -0.0522 -0.7231  0.3597
10426SOL     OW32176   6.319   3.717   1.542 -0.5310 -0.2451 -0.1891
10426SOL    HW132177   6.292   3.691   1.449 -0.6556  1.2124 -0.5893
10426SOL    HW232178   6.319   3.817   1.550 -1.0283 -0.3565  1.5435
10427SOL     OW32179   4.931   4.893   5.411 -0.5766  0.4238  0.6451
10427SOL    HW132180   4.843   4.940   5.403 -1.4474 -1.0601  0.9125
10427SOL    HW232181   4.930   4.838   5.495 -0.2651 -1.3110 -0.4516
10428SOL     OW32182   0.065   6.807   4.232  0.1017  0.3308 -0.2010
10428SOL    HW132183   0.053   6.904   4.212  1.6396  0.5777 -0.0352
10428SOL    HW232184  -0.016   6.772   4.279 -0.0321  1.7833  0.6951
10429SOL     OW32185   5.318   6.754   4.440  0.0133 -0.3228  0.2065
10429SOL    HW132186   5.378   6.824   4.401  1.4076 -1.0520  0.9656
10429SOL    HW232187   5.311   6.766   4.539  0.2864 -1.2456  0.3504
10430SOL     OW32188   5.132   2.847   3.378  0.0476 -0.3200  0.2221
10430SOL    HW132189   5.196   2.886   3.312 -1.5824 -0.8267 -1.7814
10430SOL    HW232190   5.084   2.921   3.425  1.2088  0.0535  0.8411
10431SOL     OW32191   0.622   1.054   0.296  0.0365 -0.1200  0.7018
10431SOL    HW132192   0.614   0.977   0.232  0.1694  0.5914 -0.1950
10431SOL    HW232193   0.667   1.130   0.250 -2.0946  1.2936  0.8407
10432SOL     OW32194   1.648   0.549   5.245 -0.1140 -0.1168  0.0960
10432SOL    HW132195   1.746   0.533   5.234 -0.1836 -1.3348  1.0156
10432SOL    HW232196   1.632   0.608   5.324 -0.1465 -0.7641  0.5883
10433SOL     OW32197   6.735   6.332   5.452  0.3458 -0.2157  0.0607
10433SOL    HW132198   6.681   6.416   5.445 -0.7532 -0.8729  0.4601
10433SOL    HW232199   6.688   6.267   5.512 -0.9615 -2.6887 -3.3339
10434SOL     OW32200   6.866   3.258   6.919  0.2556  0.3984 -0.6520
10434SOL    HW132201   6.917   3.309   6.988  0.0126  1.3339 -1.1499
10434SOL    HW232202   6.922   3.183   6.885 -0.2368 -1.1828  1.7792
10435SOL     OW32203   0.568   2.238   1.124  0.9093 -0.1735 -0.6439
10435SOL    HW132204   0.478   2.274   1.150  0.8903 -0.1593 -0.7311
10435SOL    HW232205   0.556   2.149   1.078  0.9623 -0.3411 -0.3358
10436SOL     OW32206   0.276   1.169   4.998  0.1521 -0.3218 -0.0849
10436SOL    HW132207   0.365   1.126   4.980  0.6175  0.9341 -1.0358
10436SOL    HW232208   0.285   1.268   4.984 -1.3725 -0.1640 -0.0635
10437SOL     OW32209   2.582   5.002   3.845  0.5818  0.5824 -0.0618
10437SOL    HW132210   2.504   4.976   3.901  0.5332 -0.9408 -0.7973
10437SOL    HW232211   2.572   4.963   3.753  2.1994  0.3472 -0.1737
10438SOL     OW32212   1.273   4.408   2.747  0.5380 -0.0363 -0.3356
10438SOL    HW132213   1.282   4.309   2.754  0.4449 -0.2239 -2.2476
10438SOL    HW232214   1.239   4.432   2.656 -0.3869  1.7082  0.4214
10439SOL     OW32215   2.037   5.248   3.823 -0.2136  0.5511 -0.3786
10439SOL    HW132216   2.117   5.192   3.801  0.1391  0.2329  1.5916
10439SOL    HW232217   2.040   5.332   3.768  1.7144  0.7457 -0.0569
10440SOL     OW32218   6.183   1.189   0.582  0.0675  0.2331 -0.0623
10440SOL    HW132219   6.269   1.234   0.560  1.7902 -2.8663 -0.2769
10440SOL    HW232220   6.191   1.142   0.670 -1.0300 -0.8891 -0.5250
10441SOL     OW32221   1.272   3.338   0.892  0.2148  0.0099  0.4609
10441SOL    HW132222   1.280   3.279   0.812  2.4757  1.7714 -0.7193
10441SOL    HW232223   1.197   3.403   0.878  0.1063 -0.1834  0.1308
10442SOL     OW32224   1.934   6.372   4.114  0.0949 -0.5474  0.6251
10442SOL    HW132225   2.027   6.338   4.130 -0.0392 -1.3063 -0.1123
10442SOL    HW232226   1.906   6.348   4.021  0.7823  3.5429 -0.8345
10443SOL     OW32227   1.215   2.211   2.434 -0.8385  0.0331 -0.1317
10443SOL    HW132228   1.193   2.195   2.531 -0.1582  0.7361  0.1549
10443SOL    HW232229   1.228   2.123   2.388 -0.6786 -0.3089  0.5414
10444SOL     OW32230   4.356   5.534   5.964  0.7255 -0.7508 -0.0017
10444SOL    HW132231   4.399   5.462   5.910  1.0143  1.1369 -2.4961
10444SOL    HW232232   4.417   5.560   6.039  2.0853 -0.9745 -0.9787
10445SOL     OW32233   1.844   4.562   3.956  0.2048 -0.6624 -0.2993
10445SOL    HW132234   1.751   4.541   3.985  0.7563  0.2983  2.5568
10445SOL    HW232235   1.901   4.481   3.968 -0.0288 -0.9272 -0.9532
10446SOL     OW32236   3.598   1.812   3.557 -0.0475  0.5349 -0.0135
10446SOL    HW132237   3.570   1.847   3.647 -0.7815  0.4116 -0.1878
10446SOL    HW232238   3.692   1.779   3.562 -0.6367 -1.1449  1.2221
10447SOL     OW32239   3.206   3.994   4.918 -0.5140 -0.0282 -0.2706
10447SOL    HW132240   3.287   3.950   4.880  0.0210  0.4583  0.3029
10447SOL    HW232241   3.224   4.090   4.935 -0.6813 -0.2429  1.3214
10448SOL     OW32242   2.629   6.538   6.485 -0.2778 -0.1755 -0.5355
10448SOL    HW132243   2.552   6.485   6.522 -0.5413 -1.9711 -3.3582
10448SOL    HW232244   2.594   6.609   6.423  0.2402 -1.6489 -2.6345
10449SOL     OW32245   4.769   0.184   1.286  0.5153  0.5759 -0.9728
10449SOL    HW132246   4.774   0.225   1.377 -0.1954 -2.8389  0.7926
10449SOL    HW232247   4.689   0.218   1.237 -1.0638  0.0714  1.1144
10450SOL     OW32248   1.049   2.607   6.531  0.2048 -0.2242  0.9474
10450SOL    HW132249   1.140   2.634   6.562 -0.0111  0.3326  1.1188
10450SOL    HW232250   1.013   2.678   6.470 -0.3004 -0.2078  1.2568
10451SOL     OW32251   2.206   5.929   1.026 -0.1624 -0.4381 -0.2647
10451SOL    HW132252   2.260   5.985   1.088  0.4312 -1.6078  0.3036
10451SOL    HW232253   2.180   5.983   0.946 -1.3454  1.2443  1.1949
10452SOL     OW32254   3.258   1.485   3.675 -0.1182 -0.1522 -0.0737
10452SOL    HW132255   3.333   1.551   3.675  0.4295 -0.7562 -0.9537
10452SOL    HW232256   3.278   1.412   3.610 -1.2846 -0.5424 -0.0135
10453SOL     OW32257   6.460   4.057   6.905 -0.3087 -0.0349  0.7845
10453SOL    HW132258   6.557   4.081   6.918  0.1622 -0.3449 -1.7403
10453SOL    HW232259   6.437   3.981   6.966  1.1756 -0.3032  1.0622
10454SOL     OW32260   2.846   0.398   0.402  0.6783 -0.2772  0.1044
10454SOL    HW132261   2.943   0.371   0.397  0.8573 -0.0176  1.6954
10454SOL    HW232262   2.837   0.494   0.378  0.7466 -0.3936 -0.4151
10455SOL     OW32263   3.026   3.152   1.504  0.1614  0.1040 -0.6547
10455SOL    HW132264   3.115   3.196   1.510  0.5499 -0.8433  1.4784
10455SOL    HW232265   3.037   3.058   1.472 -0.0780  0.0151 -0.4797
10456SOL     OW32266   5.067   5.571   2.075 -0.5012  0.4032  0.4770
10456SOL    HW132267   5.116   5.621   2.147 -0.7395 -0.2638  1.1164
10456SOL    HW232268   4.972   5.601   2.072 -0.9786 -0.8529  1.7191
10457SOL     OW32269   5.829   6.412   2.129 -0.1482 -0.1327 -0.4818
10457SOL    HW132270   5.830   6.416   2.029  0.7141 -0.2485 -0.4854
10457SOL    HW232271   5.801   6.501   2.165  0.1576  0.1032 -0.8198
10458SOL     OW32272   0.560   6.499   4.347  0.0327  0.3994 -0.1245
10458SOL    HW132273   0.588   6.594   4.362 -0.5793  0.4167  1.0263
10458SOL    HW232274   0.489   6.496   4.276  0.1686  0.7860 -0.2789
10459SOL     OW32275   6.351   1.950   6.300  0.0089  0.6481  0.0187
10459SOL    HW132276   6.356   1.948   6.400 -0.2409 -0.7241  0.0132
10459SOL    HW232277   6.440   1.924   6.262 -0.0412  0.6936 -0.1296
10460SOL     OW32278   1.364   0.838   3.456 -0.2130  0.0479 -0.6898
10460SOL    HW132279   1.279   0.826   3.406 -0.5514 -1.7703  0.2775
10460SOL    HW232280   1.435   0.871   3.393 -1.9343  3.2130 -1.2046
10461SOL     OW32281   0.474   1.260   3.654  0.2725 -0.0997  0.0590
10461SOL    HW132282   0.544   1.189   3.645  1.6309  1.2829 -0.7077
10461SOL    HW232283   0.428   1.273   3.567 -0.0909 -0.1542  0.2418
10462SOL     OW32284   1.999   5.791   6.313  0.2673  0.1388  0.0986
10462SOL    HW132285   2.094   5.822   6.321  0.0927  1.0760 -1.2382
10462SOL    HW232286   1.971   5.749   6.400  1.1423  1.9609  1.3355
10463SOL     OW32287   1.235   1.542   0.918  0.0879 -0.1976 -0.1700
10463SOL    HW132288   1.172   1.521   0.842  0.3300  2.2423 -1.1480
10463SOL    HW232289   1.248   1.641   0.923  3.2106 -0.5522  0.5467
10464SOL     OW32290   2.562   2.203   0.687 -0.3305  0.2650  0.4458
10464SOL    HW132291   2.661   2.203   0.678 -0.1801 -1.9192  1.4538
10464SOL    HW232292   2.520   2.188   0.598  0.1892  1.5837 -0.0501
10465SOL     OW32293   6.111   6.856   0.938  0.2557 -0.3598 -0.0202
10465SOL    HW132294   6.032   6.890   0.988  2.4519  3.1879  1.3815
10465SOL    HW232295   6.171   6.806   1.000  0.8781  0.2055 -0.1540
10466SOL     OW32296   6.297   2.977   4.042 -0.3588 -0.3600  0.2732
10466SOL    HW132297   6.334   2.885   4.029  1.8689  0.6459 -1.4065
10466SOL    HW232298   6.365   3.034   4.089 -1.1171  0.7589  0.0657
10467SOL     OW32299   0.522   5.338   0.530 -0.6307 -0.3282  0.0930
10467SOL    HW132300   0.610   5.385   0.524 -1.3926  1.1819  0.2534
10467SOL    HW232301   0.511   5.279   0.450  0.1537  0.1188 -0.3653
10468SOL     OW32302   3.691   0.268   0.042  0.5246 -0.5925 -0.2339
10468SOL    HW132303   3.596   0.267   0.072  0.9983 -1.1632  1.3708
10468SOL    HW232304   3.707   0.194  -0.024  0.0501 -1.0208  0.1314
10469SOL     OW32305   1.945   4.675   0.335  0.2726 -0.0336  0.1861
10469SOL    HW132306   1.964   4.682   0.433  0.5863 -1.6384  0.2535
10469SOL    HW232307   1.999   4.601   0.295 -1.5260 -0.8971 -0.7579
10470SOL     OW32308   6.496   3.006   4.795 -0.2392  0.2371 -0.0860
10470SOL    HW132309   6.579   3.060   4.809  0.7900 -1.3389  0.0370
10470SOL    HW232310   6.483   2.944   4.872 -1.8893  0.8728  0.1978
10471SOL     OW32311   4.746   0.457   5.032 -0.2865  0.2004  0.3782
10471SOL    HW132312   4.813   0.415   5.092  1.2307  1.5380 -0.2767
10471SOL    HW232313   4.662   0.404   5.032  0.6863 -1.4127  1.4195
10472SOL     OW32314   5.450   4.389   0.808 -0.1701 -0.0075  0.2772
10472SOL    HW132315   5.491   4.467   0.856 -0.5990 -0.2729  1.0805
10472SOL    HW232316   5.523   4.328   0.777  0.0768 -0.8743  2.3735
10473SOL     OW32317   3.097   5.628   2.514  0.3210  0.3239 -0.7352
10473SOL    HW132318   3.030   5.632   2.440  0.2839  0.5676 -0.6890
10473SOL    HW232319   3.188   5.612   2.476 -0.0304 -2.2167 -0.6594
10474SOL     OW32320   2.569   2.508   6.457  0.3966 -0.9428 -0.0169
10474SOL    HW132321   2.524   2.504   6.367  1.2979  0.4179 -0.5691
10474SOL    HW232322   2.500   2.498   6.529 -1.0155  1.9169 -0.8189
10475SOL     OW32323   3.842   6.194   3.064 -0.2620 -0.3341 -0.0477
10475SOL    HW132324   3.850   6.273   3.002  1.5569 -1.1967 -1.0167
10475SOL    HW232325   3.861   6.223   3.158  0.0101  0.4526 -0.3379
10476SOL     OW32326   0.149   0.668   6.723  0.4361 -0.0600  0.1657
10476SOL    HW132327   0.200   0.730   6.663 -1.3575  2.6286  1.2005
10476SOL    HW232328   0.201   0.652   6.807  1.9320 -1.9696 -1.0350
10477SOL     OW32329   3.967   6.307   2.233  0.3391 -0.5583 -0.2165
10477SOL    HW132330   3.949   6.219   2.190  0.5920 -0.6552 -0.1314
10477SOL    HW232331   3.904   6.376   2.198  0.1364 -0.7750 -0.2787
10478SOL     OW32332   5.233   2.880   4.035 -0.7821 -0.0817  0.2018
10478SOL    HW132333   5.192   2.794   4.004 -0.0886 -0.8314  1.3172
10478SOL    HW232334   5.326   2.888   3.998 -0.4908 -0.2753  0.8911
10479SOL     OW32335   4.544   1.623   6.227 -0.4377  0.5995  0.0261
10479SOL    HW132336   4.515   1.591   6.137 -2.1268 -0.1316  0.7978
10479SOL    HW232337   4.569   1.720   6.221  0.5586  0.2911 -1.4331
10480SOL     OW32338   6.249   1.964   0.151  0.9215  0.1351 -0.8466
10480SOL    HW132339   6.272   1.904   0.074  1.1002  0.1901 -0.8355
10480SOL    HW232340   6.176   2.027   0.123 -1.4996 -2.0573  0.0163
10481SOL     OW32341   5.430   6.742   1.076  0.4445  0.0440  0.1061
10481SOL    HW132342   5.375   6.720   1.157  1.0970  0.3732  0.6470
10481SOL    HW232343   5.369   6.761   0.999 -0.1932  0.0092  0.5912
10482SOL     OW32344   2.955   0.702   1.524 -0.4318  0.4456  0.0474
10482SOL    HW132345   2.988   0.701   1.430  0.9766  1.7246  0.4748
10482SOL    HW232346   3.029   0.671   1.585 -0.9086  0.7947  0.8176
10483SOL     OW32347   6.986   0.891   3.607  0.6002 -0.7463 -0.0604
10483SOL    HW132348   7.053   0.839   3.660 -0.2144 -0.6977  1.0538
10483SOL    HW232349   7.014   0.987   3.604  0.6481 -0.7435  0.3153
10484SOL     OW32350   0.506   1.338   4.981 -0.3140  0.5482 -0.4056
10484SOL    HW132351   0.502   1.438   4.990  0.9483  0.9445 -3.0887
10484SOL    HW232352   0.566   1.300   5.051 -1.0995  1.5969  0.8838
10485SOL     OW32353   0.852   6.319   5.496  0.3800 -0.0042 -0.2759
10485SOL    HW132354   0.799   6.268   5.429  0.7044 -0.5800 -0.1032
10485SOL    HW232355   0.807   6.405   5.516  0.3709  0.2580 -1.3686
10486SOL     OW32356   4.652   2.629   4.957  0.1040  0.4437  0.4308
10486SOL    HW132357   4.569   2.585   4.990 -0.1508 -0.5903 -1.4689
10486SOL    HW232358   4.674   2.707   5.016 -0.8981 -0.6275  2.3234
10487SOL     OW32359   2.989   1.030   1.059 -0.1694  0.0801 -0.0531
10487SOL    HW132360   2.955   0.936   1.062 -2.0995  0.7368  0.4541
10487SOL    HW232361   2.912   1.092   1.043  0.9363  1.6468  0.4627
10488SOL     OW32362   6.846   1.375   1.468 -0.3986 -0.2514  0.1194
10488SOL    HW132363   6.768   1.420   1.513 -1.2508 -2.2773  0.7646
10488SOL    HW232364   6.813   1.330   1.385  0.3977  0.0922 -0.3897
10489SOL     OW32365   3.613   2.192   6.121 -0.4732 -0.2745  0.6944
10489SOL    HW132366   3.676   2.247   6.066  0.1036 -0.7458  0.8786
10489SOL    HW232367   3.578   2.116   6.067  0.1799 -0.8026  0.9951
10490SOL     OW32368   5.504   2.559   1.097 -0.2306  0.2120  0.2926
10490SOL    HW132369   5.468   2.481   1.147  0.1269  0.3475  0.7734
10490SOL    HW232370   5.457   2.568   1.009  0.1551 -0.9175 -0.0445
10491SOL     OW32371   5.522   3.198   2.761  0.8354  0.6698 -0.2118
10491SOL    HW132372   5.613   3.227   2.730  0.5862  1.5822 -0.1106
10491SOL    HW232373   5.514   3.099   2.751  1.6151  0.6553 -0.8105
10492SOL     OW32374   4.017   1.161   2.408 -0.4901  0.2907  0.2896
10492SOL    HW132375   3.991   1.065   2.416  0.6279 -0.0609 -0.2234
10492SOL    HW232376   4.052   1.179   2.316  2.1326  0.4769  1.2590
10493SOL     OW32377   3.686   0.344   6.688  0.7701  0.1605 -0.1854
10493SOL    HW132378   3.638   0.430   6.671 -0.7013 -0.8465 -1.4387
10493SOL    HW232379   3.716   0.305   6.601  2.6420  0.0493  0.4722
10494SOL     OW32380   5.359   6.154   6.818 -0.3427 -0.4070 -0.2448
10494SOL    HW132381   5.372   6.110   6.906 -0.5083 -0.3782 -0.2062
10494SOL    HW232382   5.328   6.248   6.832  2.1161  0.5012 -0.2435
10495SOL     OW32383   4.928   0.860   1.234  0.3259  0.0064  0.0426
10495SOL    HW132384   4.987   0.784   1.209 -1.4026 -1.3371 -0.1541
10495SOL    HW232385   4.861   0.876   1.162 -2.3804 -1.4959  2.0100
10496SOL     OW32386   0.556   1.251   1.270 -0.2153  0.3780  0.1839
10496SOL    HW132387   0.510   1.241   1.182 -0.5840  2.8328  0.0442
10496SOL    HW232388   0.653   1.272   1.254 -0.5538  2.1284  0.2937
10497SOL     OW32389   2.596   5.970   2.699 -0.6714  0.2675  0.2901
10497SOL    HW132390   2.603   5.876   2.665  1.4107 -0.3640  2.1747
10497SOL    HW232391   2.515   5.979   2.758 -1.7363  0.1259 -1.1125
10498SOL     OW32392   0.335   5.473   4.713 -0.4763 -0.3860 -0.9664
10498SOL    HW132393   0.285   5.477   4.800 -2.1530 -0.5254 -1.8722
10498SOL    HW232394   0.328   5.381   4.675  1.6967 -0.8003 -0.4799
10499SOL     OW32395   2.148   4.167   1.862 -0.5252  0.0542 -0.3059
10499SOL    HW132396   2.145   4.100   1.936 -0.3483  0.2475 -0.1212
10499SOL    HW232397   2.234   4.156   1.811 -1.0879 -0.7323 -1.1018
10500SOL     OW32398   4.993   5.125   6.916  0.0584  0.7015  0.1078
10500SOL    HW132399   4.942   5.080   6.990  1.3123 -0.2558  0.4450
10500SOL    HW232400   5.091   5.112   6.932  0.3672  1.0291 -1.3965
10501SOL     OW32401   1.961   0.712   2.523  0.0155  0.1904 -0.4809
10501SOL    HW132402   1.929   0.681   2.613  0.8613 -0.6844 -0.4693
10501SOL    HW232403   1.898   0.782   2.488 -0.1251  0.8072  0.9395
10502SOL     OW32404   5.742   1.249   5.374 -0.6069  0.7226  0.6709
10502SOL    HW132405   5.831   1.209   5.396 -2.3868 -3.2176  1.5341
10502SOL    HW232406   5.717   1.226   5.280 -0.7923  1.7725  0.4449
10503SOL     OW32407   3.173   5.839   1.288  0.0343  0.0715 -0.6925
10503SOL    HW132408   3.227   5.912   1.329  1.1253 -1.5933  1.0180
10503SOL    HW232409   3.112   5.800   1.357 -0.1186 -0.9858 -1.4003
10504SOL     OW32410   3.395   5.253   0.468 -0.1767  0.5106  0.2744
10504SOL    HW132411   3.484   5.297   0.481 -0.4737  1.7165 -1.5073
10504SOL    HW232412   3.334   5.314   0.418 -1.5746 -0.8352  0.2590
10505SOL     OW32413   6.231   4.029   5.780  0.4047  0.0151  0.2111
10505SOL    HW132414   6.205   3.932   5.786 -2.3124  0.6446 -0.0557
10505SOL    HW232415   6.278   4.056   5.863  0.7146 -1.3930  0.5237
10506SOL     OW32416   0.679   0.137   4.064  0.9222  0.0313  0.2031
10506SOL    HW132417   0.647   0.147   3.970  0.0711 -1.0580  0.3592
10506SOL    HW232418   0.765   0.087   4.065  1.5002  0.9777 -0.0504
10507SOL     OW32419   2.674   0.577   2.671  0.2483 -0.4396 -0.7211
10507SOL    HW132420   2.662   0.659   2.728  0.0027 -1.0562  0.1427
10507SOL    HW232421   2.765   0.538   2.688 -0.0972 -1.0356 -0.1871
10508SOL     OW32422   5.010   3.108   6.461  0.1354 -0.7677 -0.1449
10508SOL    HW132423   5.094   3.082   6.413  0.3853 -0.5350  0.1575
10508SOL    HW232424   5.017   3.080   6.557  1.0567  1.7051  0.5790
10509SOL     OW32425   0.640   0.303   4.473 -0.1044 -0.5823 -0.3165
10509SOL    HW132426   0.588   0.340   4.551 -0.4853  0.2745 -0.9644
10509SOL    HW232427   0.734   0.285   4.501 -0.1832 -0.0801  0.2849
10510SOL     OW32428   1.669   1.190   0.179  0.3723 -0.2671 -0.1011
10510SOL    HW132429   1.674   1.177   0.080  0.4007 -0.1848 -0.1100
10510SOL    HW232430   1.727   1.266   0.206  1.1427 -0.9095  0.0974
10511SOL     OW32431   2.912   2.597   1.340  0.5194  0.3622 -0.3371
10511SOL    HW132432   2.979   2.545   1.393 -0.0321  0.7369  0.7756
10511SOL    HW232433   2.840   2.535   1.307  1.4432 -0.0528 -1.6095
10512SOL     OW32434   1.546   5.673   6.566  0.0041  0.1639 -0.3889
10512SOL    HW132435   1.453   5.708   6.574  0.1696  0.5583 -0.1429
10512SOL    HW232436   1.549   5.600   6.498 -1.0781 -1.8634  1.5915
10513SOL     OW32437   3.461   0.948   5.888  0.7329 -0.3338  0.1502
10513SOL    HW132438   3.457   0.851   5.865  1.4582 -0.8394  1.9374
10513SOL    HW232439   3.449   0.959   5.987 -3.3596  1.7216 -0.3554
10514SOL     OW32440   1.235   6.982   3.292  0.1503 -0.1412 -0.2508
10514SOL    HW132441   1.313   6.926   3.322 -0.1368 -1.3054 -1.5534
10514SOL    HW232442   1.242   6.997   3.193 -1.1880 -0.1253 -0.3539
10515SOL     OW32443   0.716   0.813   2.477 -0.7134 -0.4143 -0.1272
10515SOL    HW132444   0.784   0.743   2.457 -0.7266 -0.7815  1.0172
10515SOL    HW232445   0.625   0.778   2.457 -0.8168 -1.1994  1.5979
10516SOL     OW32446   2.175   1.125   4.055 -0.0361 -0.3917  0.4036
10516SOL    HW132447   2.251   1.190   4.058 -1.2719  1.1376 -0.1099
10516SOL    HW232448   2.206   1.040   4.012  1.3455  0.2441  0.0803
10517SOL     OW32449   1.045   0.545   0.819  0.2718 -0.0086 -0.4045
10517SOL    HW132450   1.076   0.498   0.737 -0.3999 -1.0251 -0.0914
10517SOL    HW232451   1.107   0.621   0.839  0.3080  0.4043 -1.9757
10518SOL     OW32452   6.298   4.938   2.363  0.0988  0.9407 -0.4674
10518SOL    HW132453   6.327   4.879   2.287  0.0057  1.3047 -0.7897
10518SOL    HW232454   6.378   4.970   2.413  0.1103 -0.2536  0.3287
10519SOL     OW32455   0.111   0.651   4.510 -0.6205  0.5748  0.6786
10519SOL    HW132456   0.095   0.567   4.562  2.5474  1.2216  3.0021
10519SOL    HW232457   0.070   0.729   4.558 -1.3593  0.6983 -0.1244
10520SOL     OW32458   5.762   4.503   0.064 -0.2007  0.2677  0.0320
10520SOL    HW132459   5.789   4.480  -0.029  1.2564  0.7960  0.2878
10520SOL    HW232460   5.725   4.422   0.109  1.8584 -0.8112 -0.0883
10521SOL     OW32461   2.151   4.868   1.061  0.4642 -0.0356  0.1990
10521SOL    HW132462   2.096   4.887   1.142  0.7902 -0.2787  0.4828
10521SOL    HW232463   2.091   4.844   0.985  0.0513  1.8666 -0.1217
10522SOL     OW32464   4.785   3.504   5.833 -0.2842  0.7234  0.6273
10522SOL    HW132465   4.693   3.521   5.870 -0.8655  0.9449 -0.8504
10522SOL    HW232466   4.812   3.579   5.773 -1.0335 -1.2678 -2.4494
10523SOL     OW32467   0.546   3.267   4.129  0.0557  0.4089  0.7967
10523SOL    HW132468   0.530   3.174   4.097 -0.1357  0.8421 -0.4180
10523SOL    HW232469   0.600   3.264   4.213  0.3412 -0.7824  0.5925
10524SOL     OW32470   3.332   5.596   4.017 -1.2417 -0.1133  0.1964
10524SOL    HW132471   3.241   5.636   4.027 -1.4752 -0.7350  0.5843
10524SOL    HW232472   3.384   5.610   4.101 -1.0822 -0.0401  0.0879
10525SOL     OW32473   1.427   4.458   6.655 -0.0907  0.6631 -0.4244
10525SOL    HW132474   1.448   4.524   6.583  0.1210 -0.2276 -1.1922
10525SOL    HW232475   1.329   4.462   6.675 -0.1404  0.9684 -0.7117
10526SOL     OW32476   1.810   2.146   0.523 -0.0789 -0.2512 -0.1273
10526SOL    HW132477   1.895   2.166   0.571 -0.6506 -0.6067  1.0912
10526SOL    HW232478   1.748   2.098   0.585 -0.7350 -1.0212 -1.3406
10527SOL     OW32479   2.493   2.244   5.467  0.1613 -0.1779  0.2398
10527SOL    HW132480   2.491   2.144   5.474  0.5065 -0.2158 -0.1562
10527SOL    HW232481   2.557   2.271   5.396  0.4542  0.3460  0.6937
10528SOL     OW32482   6.539   1.736   0.418  1.0852 -1.0044  0.4803
10528SOL    HW132483   6.614   1.799   0.439 -0.5250  1.6152 -1.1308
10528SOL    HW232484   6.510   1.749   0.323 -2.2226 -0.9220  1.3844
10529SOL     OW32485   0.464   0.797   1.731 -0.1357  0.4269 -0.6016
10529SOL    HW132486   0.398   0.795   1.806  0.0043  2.2213 -0.3890
10529SOL    HW232487   0.454   0.882   1.679  0.9856  0.0405 -1.5040
10530SOL     OW32488   5.039   5.000   1.211 -0.7185 -0.2099 -0.0139
10530SOL    HW132489   5.030   4.900   1.212  2.2261 -0.5772 -0.2850
10530SOL    HW232490   5.083   5.030   1.295 -0.7023  0.7360 -0.3519
10531SOL     OW32491   1.224   5.501   4.770  0.5082 -0.2409  0.3317
10531SOL    HW132492   1.140   5.469   4.725  1.8706 -0.8635 -1.9670
10531SOL    HW232493   1.253   5.433   4.838 -0.9381  0.1058  1.3423
10532SOL     OW32494   6.291   5.843   1.658  0.2050  0.6890  0.1820
10532SOL    HW132495   6.312   5.761   1.712 -2.2238 -1.9345 -2.5230
10532SOL    HW232496   6.193   5.860   1.661  0.5065  2.7898 -0.4000
10533SOL     OW32497   6.131   4.221   5.379  0.1887 -0.4011  0.0370
10533SOL    HW132498   6.144   4.175   5.292  1.0092  2.2166 -1.3282
10533SOL    HW232499   6.138   4.320   5.366 -2.1952  0.2457  2.6478
10534SOL     OW32500   1.155   2.229   3.457 -0.0410 -0.0101 -0.5954
10534SOL    HW132501   1.099   2.282   3.393 -1.8816 -1.8424 -0.6324
10534SOL    HW232502   1.207   2.160   3.407  0.3280  0.0751 -0.3308
10535SOL     OW32503   0.389   2.949   0.546  0.0927  0.2171 -0.4435
10535SOL    HW132504   0.382   2.854   0.577  0.9425  0.3375  0.1872
10535SOL    HW232505   0.315   2.970   0.483 -0.6388 -0.5909  0.1307
10536SOL     OW32506   2.745   4.529   5.592  0.0272 -0.7001  0.4164
10536SOL    HW132507   2.736   4.504   5.495 -0.3120  0.3416  0.1661
10536SOL    HW232508   2.841   4.525   5.618  0.1917 -0.4597 -0.1262
10537SOL     OW32509   6.914   6.366   3.674 -0.3983  0.5914  0.0672
10537SOL    HW132510   6.975   6.316   3.735  0.6321  2.2439  0.4842
10537SOL    HW232511   6.967   6.438   3.627 -1.5579  0.5590 -1.3656
10538SOL     OW32512   6.089   2.545   0.456 -0.2802 -0.7063  0.1606
10538SOL    HW132513   6.028   2.468   0.471  0.7270 -1.2025  2.1819
10538SOL    HW232514   6.146   2.558   0.538  1.6515  0.3068 -1.2579
10539SOL     OW32515   3.143   1.049   6.574  0.2024  0.4637  0.2511
10539SOL    HW132516   3.228   1.005   6.603  1.4030  2.3974 -0.1586
10539SOL    HW232517   3.094   1.083   6.654 -0.2496 -0.7242  0.4947
10540SOL     OW32518   2.823   2.136   1.553  0.4532 -0.4097 -0.2777
10540SOL    HW132519   2.870   2.223   1.568  0.0880 -0.2083 -0.2857
10540SOL    HW232520   2.726   2.153   1.537  0.6044 -0.7232 -1.6209
10541SOL     OW32521   0.554   6.250   4.500 -0.1843  0.1237  0.6510
10541SOL    HW132522   0.505   6.197   4.431  0.3064  0.8801 -0.2977
10541SOL    HW232523   0.578   6.340   4.463 -0.1915  0.6734  1.9174
10542SOL     OW32524   3.486   4.780   6.711  0.2879 -0.3493  0.0122
10542SOL    HW132525   3.550   4.824   6.774  1.1694  0.8723 -1.6729
10542SOL    HW232526   3.427   4.850   6.669 -0.3138 -1.1467 -0.5044
10543SOL     OW32527   5.333   3.178   5.600 -0.2690  0.0642 -0.1937
10543SOL    HW132528   5.362   3.254   5.658  1.4541  0.3736 -1.3877
10543SOL    HW232529   5.242   3.197   5.564 -1.8877 -0.6096  3.1129
10544SOL     OW32530   1.043   4.161   0.074  0.2450  0.2326 -0.1342
10544SOL    HW132531   1.091   4.080   0.042  0.3176  0.4393 -0.5437
10544SOL    HW232532   1.011   4.214  -0.004 -0.9322 -0.0671  0.1190
10545SOL     OW32533   4.602   1.584   0.426  0.0406  0.2178  0.5281
10545SOL    HW132534   4.528   1.525   0.396 -0.8200  1.1335  0.8065
10545SOL    HW232535   4.617   1.572   0.524  0.3469 -0.0471  0.4520
10546SOL     OW32536   0.470   3.191   0.051  0.3063 -0.9093  0.6876
10546SOL    HW132537   0.395   3.173  -0.013  0.2124 -0.5952  0.7096
10546SOL    HW232538   0.447   3.270   0.108 -0.1252 -1.8583  1.8971
10547SOL     OW32539   5.760   4.790   6.319 -0.5152 -0.4272 -0.2765
10547SOL    HW132540   5.665   4.805   6.344 -0.0374  0.2466  1.2613
10547SOL    HW232541   5.814   4.871   6.341  0.5036 -0.9757 -0.6635
10548SOL     OW32542   2.662   5.686   1.671 -0.2730  0.9756 -0.4166
10548SOL    HW132543   2.604   5.736   1.735 -0.0360  1.2391 -0.4066
10548SOL    HW232544   2.704   5.607   1.717  0.3483  1.4906 -0.0916
10549SOL     OW32545   3.365   5.342   5.824  0.3131  0.1324  0.2938
10549SOL    HW132546   3.288   5.369   5.882  0.2702 -0.0233  0.3087
10549SOL    HW232547   3.396   5.251   5.849  1.2655  0.6590  1.0768
10550SOL     OW32548   5.946   4.781   2.708  0.3810 -0.2057 -0.0013
10550SOL    HW132549   5.965   4.742   2.798  0.0611  0.0600  0.1848
10550SOL    HW232550   5.988   4.872   2.701 -0.8301  0.4161  0.4394
10551SOL     OW32551   3.453   3.260   0.361 -0.1851 -0.2665  0.2404
10551SOL    HW132552   3.538   3.274   0.413 -1.3242  1.2990  1.8142
10551SOL    HW232553   3.390   3.204   0.414 -0.3677 -0.9250 -0.6584
10552SOL     OW32554   0.483   6.966   5.218 -0.3922 -0.3026  0.0837
10552SOL    HW132555   0.480   6.999   5.124  0.6782  0.7586  0.4035
10552SOL    HW232556   0.412   7.012   5.272 -1.5956 -1.5664 -0.3881
10553SOL     OW32557   0.198   2.532   0.432  0.6931 -0.6482 -0.2380
10553SOL    HW132558   0.191   2.599   0.358 -1.7754 -0.1792  0.3481
10553SOL    HW232559   0.148   2.449   0.408 -0.9612 -0.1374  1.2010
10554SOL     OW32560   5.155   6.630   4.976 -0.1889 -0.3601 -0.1379
10554SOL    HW132561   5.138   6.691   5.053 -1.5781 -1.9953  0.9176
10554SOL    HW232562   5.073   6.576   4.956  1.0228 -2.0660 -0.8407
10555SOL     OW32563   5.119   2.539   5.139  0.4266  0.0149 -0.3492
10555SOL    HW132564   5.117   2.606   5.213 -0.1832  0.2179 -0.5486
10555SOL    HW232565   5.071   2.575   5.059 -1.9918 -1.5247  0.2988
10556SOL     OW32566   5.858   4.567   1.141 -0.0085 -0.2578 -0.1987
10556SOL    HW132567   5.817   4.542   1.229 -1.5351 -1.7081 -1.2612
10556SOL    HW232568   5.947   4.524   1.133 -1.4338 -3.3534 -0.8313
10557SOL     OW32569   5.325   0.478   2.407 -0.1277 -0.0203 -0.2545
10557SOL    HW132570   5.422   0.486   2.431  0.3947  0.3815 -2.3144
10557SOL    HW232571   5.269   0.510   2.483  1.4106  1.9015  0.1421
10558SOL     OW32572   0.643   4.086   1.062 -0.1841 -0.2429  0.2174
10558SOL    HW132573   0.558   4.139   1.063  0.5025  0.9134  1.0936
10558SOL    HW232574   0.651   4.036   1.148 -0.3127 -0.9142 -0.1617
10559SOL     OW32575   3.487   1.604   4.823  0.1504  0.2664 -0.4494
10559SOL    HW132576   3.517   1.645   4.910  0.5932 -0.7825 -0.0866
10559SOL    HW232577   3.525   1.512   4.815  0.3360  0.4450 -1.8965
10560SOL     OW32578   6.687   5.817   2.197  0.5854  0.2260 -1.1988
10560SOL    HW132579   6.705   5.897   2.139  2.2184 -0.3819 -1.5882
10560SOL    HW232580   6.766   5.757   2.195  0.7247  0.1893  1.7291
10561SOL     OW32581   4.557   3.566   0.748  0.0566 -0.8852  0.3017
10561SOL    HW132582   4.499   3.494   0.786 -1.0427 -0.1407  0.0828
10561SOL    HW232583   4.651   3.555   0.782 -0.6179 -0.9561  2.2899
10562SOL     OW32584   1.811   1.043   6.950  0.0355  0.1314 -0.2660
10562SOL    HW132585   1.774   1.003   6.866  4.4820  0.3302 -2.6211
10562SOL    HW232586   1.871   1.120   6.927  1.1245  0.4629  3.1491
10563SOL     OW32587   3.236   5.944   1.894  0.1653  0.1686 -0.0507
10563SOL    HW132588   3.200   6.029   1.934  2.5471  1.2500  0.0058
10563SOL    HW232589   3.254   5.878   1.966 -2.3681 -0.7454 -0.1578
10564SOL     OW32590   4.197   5.049   1.964 -0.2585 -0.6855 -0.0350
10564SOL    HW132591   4.282   5.002   1.942  0.6173  0.7007  0.3000
10564SOL    HW232592   4.166   5.021   2.054  1.1462  0.5456  0.8793
10565SOL     OW32593   1.406   4.204   6.353 -0.4093  0.0064  0.8259
10565SOL    HW132594   1.393   4.158   6.266  0.3734 -0.0036  0.7046
10565SOL    HW232595   1.418   4.302   6.338 -0.9083  0.0916  0.9789
10566SOL     OW32596   3.222   4.814   1.591 -0.0440  0.4298 -0.5118
10566SOL    HW132597   3.177   4.754   1.657  0.4276  0.8677  0.2204
10566SOL    HW232598   3.165   4.894   1.573  0.8864  1.5352  1.2552
10567SOL     OW32599   2.400   5.159   3.284  0.3440 -0.0159  0.0833
10567SOL    HW132600   2.455   5.110   3.216 -0.0516  0.3188 -0.4887
10567SOL    HW232601   2.362   5.242   3.243 -0.5538 -0.2212  0.4768
10568SOL     OW32602   3.285   6.506   0.551 -0.0308 -0.1880 -0.5015
10568SOL    HW132603   3.195   6.536   0.582  0.2592 -0.0931  0.2769
10568SOL    HW232604   3.284   6.494   0.452 -0.9434 -0.3500 -0.4792
10569SOL     OW32605   3.357   6.993   2.185 -0.2136  0.3338 -0.1780
10569SOL    HW132606   3.396   7.037   2.104 -1.1066  0.5600 -0.4993
10569SOL    HW232607   3.427   6.939   2.231  0.1898 -0.2148 -1.3901
10570SOL     OW32608   1.352   0.843   5.273  1.0380 -0.0662  0.8023
10570SOL    HW132609   1.402   0.864   5.189 -0.7995  0.8580 -0.1202
10570SOL    HW232610   1.315   0.750   5.268  0.9848 -0.0349  0.6289
10571SOL     OW32611   1.302   6.995   6.819  0.2485 -0.1061 -0.2829
10571SOL    HW132612   1.348   7.069   6.869  0.0694 -0.2941  0.1618
10571SOL    HW232613   1.277   6.922   6.883  1.1912 -0.9507 -0.8328
10572SOL     OW32614   4.479   5.423   1.684  0.1535  0.2203 -0.2260
10572SOL    HW132615   4.416   5.346   1.670 -0.4765  0.8062 -0.6575
10572SOL    HW232616   4.428   5.506   1.704  0.8873  0.2985  1.4537
10573SOL     OW32617   1.461   0.615   0.832 -0.3176 -0.1986 -0.1159
10573SOL    HW132618   1.424   0.688   0.775  0.0105  0.6134  0.6888
10573SOL    HW232619   1.512   0.654   0.909  0.9466 -1.2844 -0.3635
10574SOL     OW32620   3.682   6.781   3.929 -0.2963  0.0761  0.6226
10574SOL    HW132621   3.642   6.759   4.018 -0.6297 -0.2336  0.3946
10574SOL    HW232622   3.646   6.870   3.898  0.4371  0.5791  1.1660
10575SOL     OW32623   3.183   1.053   3.766 -0.5540  0.2745 -0.1008
10575SOL    HW132624   3.170   1.099   3.854  0.7132 -0.1234  0.3154
10575SOL    HW232625   3.265   1.088   3.722 -0.5398 -0.3552 -0.5865
10576SOL     OW32626   1.599   6.817   6.132  0.1402  0.7835 -0.1259
10576SOL    HW132627   1.632   6.763   6.208  1.8353 -0.4215 -1.6333
10576SOL    HW232628   1.595   6.761   6.049 -0.9160  2.2171 -1.1151
10577SOL     OW32629   3.832   1.680   6.811 -0.4853 -0.3079  0.1174
10577SOL    HW132630   3.793   1.694   6.902 -1.4865  2.1377 -0.6173
10577SOL    HW232631   3.924   1.719   6.808 -0.3041 -0.7288  0.1830
10578SOL     OW32632   3.019   6.913   6.789  0.0154  0.0866  0.3266
10578SOL    HW132633   3.044   6.848   6.717  1.6031 -0.0296  0.9379
10578SOL    HW232634   3.083   6.990   6.788 -2.4522  2.2646 -1.0873
10579SOL     OW32635   0.008   2.375   1.750 -0.3943 -0.1815  0.1107
10579SOL    HW132636  -0.012   2.286   1.791 -0.7718  0.7780  2.1452
10579SOL    HW232637   0.014   2.366   1.651  2.0787 -2.9327  0.3805
10580SOL     OW32638   6.224   5.221   6.163  0.4712  0.6280 -0.4156
10580SOL    HW132639   6.157   5.288   6.194  0.5734  0.5481 -0.0220
10580SOL    HW232640   6.182   5.130   6.160  0.1945  0.7784 -1.4054
10581SOL     OW32641   4.794   1.398   3.220  0.3070  0.2456 -0.1813
10581SOL    HW132642   4.872   1.353   3.177  1.6498  1.7399  0.5818
10581SOL    HW232643   4.711   1.345   3.203  1.4805 -1.4068 -0.9835
10582SOL     OW32644   2.220   2.262   0.228  0.7304  0.0107 -0.1925
10582SOL    HW132645   2.241   2.269   0.130 -0.2136  1.1768 -0.3289
10582SOL    HW232646   2.288   2.204   0.272 -0.0963 -2.5083 -1.9515
10583SOL     OW32647   6.537   3.324   4.890  0.1349  0.7720  0.1236
10583SOL    HW132648   6.593   3.398   4.852  2.6523 -0.9134  0.3161
10583SOL    HW232649   6.489   3.277   4.816 -1.3954  2.4378 -0.0135
10584SOL     OW32650   0.595   2.546   2.737  0.2430  0.6035 -0.1315
10584SOL    HW132651   0.599   2.641   2.767 -2.1359  0.7091 -0.0082
10584SOL    HW232652   0.599   2.542   2.637 -2.7759  1.1548 -0.3563
10585SOL     OW32653   0.789   6.525   3.898  0.2986 -0.0285 -0.2266
10585SOL    HW132654   0.885   6.548   3.889  0.5784 -0.5010  1.2505
10585SOL    HW232655   0.756   6.483   3.813  0.5285  2.9153 -1.9259
10586SOL     OW32656   1.216   3.161   1.911  0.6026  0.2940  0.2064
10586SOL    HW132657   1.247   3.071   1.879 -0.3377  0.0534 -0.0864
10586SOL    HW232658   1.294   3.220   1.928  1.2235 -0.4838  0.0948
10587SOL     OW32659   2.457   6.701   1.119 -0.3026 -0.1497 -0.4688
10587SOL    HW132660   2.519   6.625   1.100 -0.6429 -0.3903 -0.6293
10587SOL    HW232661   2.470   6.733   1.213 -1.6273 -1.7938  0.3189
10588SOL     OW32662   6.052   3.734   4.469  0.5202 -0.4109 -0.3503
10588SOL    HW132663   6.092   3.658   4.521  0.4326 -2.2122 -2.7783
10588SOL    HW232664   5.973   3.701   4.418  0.4910  1.3174 -1.4896
10589SOL     OW32665   1.048   3.247   6.424  0.7973 -0.1523  0.3865
10589SOL    HW132666   1.084   3.335   6.396  0.1586 -0.0185 -0.0428
10589SOL    HW232667   1.101   3.211   6.501  1.0286  0.6201  0.5877
10590SOL     OW32668   3.716   5.988   4.370  0.0664  0.0509  1.0821
10590SOL    HW132669   3.695   5.895   4.339  0.6933  0.2127  0.1290
10590SOL    HW232670   3.815   5.997   4.384  0.1729  0.9466 -0.1246
10591SOL     OW32671   3.306   0.821   2.936 -0.0900 -0.2189 -0.2535
10591SOL    HW132672   3.295   0.786   3.029  0.6554 -1.0812 -0.4732
10591SOL    HW232673   3.267   0.913   2.930 -0.6929 -0.3924  0.7471
10592SOL     OW32674   2.462   3.092   6.721 -0.3086  0.1499  0.2223
10592SOL    HW132675   2.516   3.175   6.741 -0.2563  0.1660  0.0145
10592SOL    HW232676   2.404   3.109   6.641 -0.8283  0.2252  0.6076
10593SOL     OW32677   2.272   5.800   6.815  0.3207 -0.3399  0.3942
10593SOL    HW132678   2.217   5.805   6.899  1.7582 -0.8517  1.3984
10593SOL    HW232679   2.367   5.779   6.838  0.6775 -0.8726 -1.4020
10594SOL     OW32680   6.506   2.458   2.256  0.0260  0.1665 -0.2915
10594SOL    HW132681   6.530   2.378   2.200  1.3722  0.2230  0.1679
10594SOL    HW232682   6.543   2.446   2.348  0.3393  1.3729 -0.2565
10595SOL     OW32683   3.427   0.101   6.580 -0.3580  0.4789  0.3092
10595SOL    HW132684   3.364   0.179   6.579 -1.0762 -0.0662 -1.6866
10595SOL    HW232685   3.509   0.124   6.528 -0.5653 -0.0917 -0.2727
10596SOL     OW32686   1.793   3.912   2.946 -0.2471 -0.6417  0.6245
10596SOL    HW132687   1.854   3.991   2.938 -0.7236 -0.4120 -1.2288
10596SOL    HW232688   1.821   3.841   2.880 -1.6975 -0.6978  0.0286
10597SOL     OW32689   6.512   5.551   5.881 -0.0169  0.1302 -0.3764
10597SOL    HW132690   6.414   5.571   5.878 -0.2348 -0.9961 -1.7003
10597SOL    HW232691   6.526   5.452   5.872  1.1802  0.0419  1.7910
10598SOL     OW32692   5.967   5.875   2.963 -0.0133  0.3305  0.4189
10598SOL    HW132693   5.999   5.782   2.980 -1.2283  0.1324  1.8460
10598SOL    HW232694   5.931   5.881   2.870 -1.7112 -1.1943  0.9205
10599SOL     OW32695   1.625   2.416   6.065  0.2806 -0.1338  0.6526
10599SOL    HW132696   1.555   2.428   5.995  1.0871  2.7019  0.1924
10599SOL    HW232697   1.693   2.349   6.034 -0.6629 -0.7452 -0.1470
10600SOL     OW32698   1.018   4.043   6.554  0.1601  0.1155 -0.1215
10600SOL    HW132699   1.085   3.970   6.540  0.6686  0.3532  0.9790
10600SOL    HW232700   1.065   4.131   6.562 -0.2635  0.2874  0.6520
10601SOL     OW32701   2.207   4.206   3.438  0.3918  0.0956 -0.3782
10601SOL    HW132702   2.109   4.189   3.425  0.4609 -1.6363  1.0480
10601SOL    HW232703   2.246   4.241   3.352 -1.4095  0.6356 -1.0268
10602SOL     OW32704   6.880   6.848   0.593 -0.1630 -0.0780  0.4060
10602SOL    HW132705   6.812   6.865   0.521  0.0765 -0.6092  0.0455
10602SOL    HW232706   6.940   6.774   0.564  0.6324  0.4522  0.6811
10603SOL     OW32707   5.657   6.980   6.460  0.0222  0.2970 -0.1868
10603SOL    HW132708   5.625   7.059   6.511  3.3321  1.2949  0.5593
10603SOL    HW232709   5.725   7.009   6.392  0.9220 -1.8280 -0.2742
10604SOL     OW32710   2.835   6.564   4.621 -0.1278  0.7164  0.4883
10604SOL    HW132711   2.839   6.561   4.521 -0.3774  1.3470  0.4520
10604SOL    HW232712   2.859   6.474   4.658  1.4678  0.8781 -0.0833
10605SOL     OW32713   0.482   4.616   3.929 -0.0581 -0.2277 -0.1157
10605SOL    HW132714   0.519   4.572   3.847  1.6652  2.8117 -1.1354
10605SOL    HW232715   0.556   4.629   3.996 -0.9161 -0.3949  0.8967
10606SOL     OW32716   1.187   2.282   1.472  0.0704 -0.2519 -0.5289
10606SOL    HW132717   1.264   2.238   1.518 -0.0973  1.1555  1.2198
10606SOL    HW232718   1.112   2.217   1.465 -0.1536 -0.3860  1.9401
10607SOL     OW32719   5.092   4.881   4.783 -0.0643  0.5543 -0.2634
10607SOL    HW132720   5.146   4.940   4.843 -1.4818  2.0620 -0.4117
10607SOL    HW232721   5.129   4.787   4.786  1.1429  1.0458  1.3347
10608SOL     OW32722   5.485   6.545   4.692  0.5900  0.0177  0.1566
10608SOL    HW132723   5.464   6.533   4.595  0.5137 -0.3299  0.2134
10608SOL    HW232724   5.553   6.476   4.719  1.8341  1.1339 -0.0347
10609SOL     OW32725   5.198   6.476   5.628  0.3797  0.1680  0.3471
10609SOL    HW132726   5.259   6.431   5.563  1.3969  0.2362  1.2320
10609SOL    HW232727   5.160   6.409   5.692 -2.5174 -0.3309 -1.6823
10610SOL     OW32728   2.578   6.926   5.197  0.0724  0.2725 -0.2088
10610SOL    HW132729   2.500   6.894   5.142  0.8700  2.2336 -2.7091
10610SOL    HW232730   2.663   6.905   5.149  1.0231 -0.1802  1.5852
10611SOL     OW32731   5.936   6.838   6.148 -0.0201  0.2557  0.0156
10611SOL    HW132732   5.896   6.752   6.179 -1.3805  1.0344  0.4974
10611SOL    HW232733   5.956   6.833   6.050  0.6772 -0.8789  0.2050
10612SOL     OW32734   6.314   3.967   3.438 -0.3490 -0.2432 -0.8112
10612SOL    HW132735   6.388   3.930   3.382 -1.1369 -2.0944 -0.6748
10612SOL    HW232736   6.332   4.064   3.456  1.5334 -0.4045 -1.5782
10613SOL     OW32737   1.573   2.085   4.939  0.2461 -0.1521  0.2315
10613SOL    HW132738   1.650   2.080   5.004 -0.0008  0.9388  0.6350
10613SOL    HW232739   1.601   2.047   4.851  1.1726 -0.0070  0.4520
10614SOL     OW32740   1.031   0.816   5.314 -0.0698 -0.2674  0.0992
10614SOL    HW132741   1.004   0.760   5.236 -0.1629  0.3587 -0.3296
10614SOL    HW232742   1.051   0.909   5.282 -2.7319  0.7474  1.1843
10615SOL     OW32743   5.585   0.924   4.100  0.2040 -0.5159  0.3552
10615SOL    HW132744   5.595   1.020   4.128 -1.9359  0.1729 -1.0499
10615SOL    HW232745   5.608   0.914   4.004 -1.6666 -0.9411 -0.0920
10616SOL     OW32746   5.396   3.527   5.470 -0.4176 -0.2057 -0.2083
10616SOL    HW132747   5.448   3.442   5.466  1.6440  1.0001 -0.6371
10616SOL    HW232748   5.371   3.556   5.378 -0.1131  0.2074 -0.1662
10617SOL     OW32749   5.108   0.199   6.444 -0.0024  0.0784 -0.0805
10617SOL    HW132750   5.036   0.245   6.495 -0.1225  0.8661 -0.9441
10617SOL    HW232751   5.069   0.123   6.392  0.4768 -2.4375  2.9136
10618SOL     OW32752   2.587   6.922   4.017  0.8255 -0.4968  0.3007
10618SOL    HW132753   2.557   7.006   3.972 -0.0621 -0.1301  1.4845
10618SOL    HW232754   2.578   6.845   3.955  1.2350  0.2180 -0.6623
10619SOL     OW32755   0.770   0.076   6.544 -0.1267 -0.2777  0.6697
10619SOL    HW132756   0.865   0.061   6.519  0.0336  0.0647  1.0613
10619SOL    HW232757   0.712   0.066   6.463  0.4783  1.8167 -0.0973
10620SOL     OW32758   0.353   4.489   0.399  0.2483  0.2132 -0.6092
10620SOL    HW132759   0.336   4.574   0.349 -1.1920 -0.5744 -1.5399
10620SOL    HW232760   0.401   4.424   0.339  1.1891  0.2979  0.0375
10621SOL     OW32761   1.771   4.095   0.096  0.4688 -0.5975 -0.0765
10621SOL    HW132762   1.752   4.165   0.165 -0.1468  0.9493 -1.7070
10621SOL    HW232763   1.870   4.082   0.088  0.6430  0.6348 -0.2031
10622SOL     OW32764   0.441   1.179   5.359 -0.3376 -0.0789  0.3709
10622SOL    HW132765   0.376   1.255   5.360 -1.2962 -0.7530 -2.1639
10622SOL    HW232766   0.528   1.210   5.321 -0.7966 -0.2343 -0.8651
10623SOL     OW32767   4.736   2.572   0.730 -0.2588 -0.5736  0.3839
10623SOL    HW132768   4.689   2.645   0.681 -0.4400 -0.9172  0.0438
10623SOL    HW232769   4.750   2.494   0.669  0.4511 -0.6044  0.5776
10624SOL     OW32770   4.474   6.227   5.306  0.4164 -0.5615 -0.3019
10624SOL    HW132771   4.434   6.286   5.235  0.2172  0.0380  0.2931
10624SOL    HW232772   4.471   6.132   5.276  0.6574 -0.2814 -1.2454
10625SOL     OW32773   0.256   0.274   2.254 -0.4423  0.4110 -0.4192
10625SOL    HW132774   0.248   0.184   2.213  1.0024  0.7014 -1.4129
10625SOL    HW232775   0.317   0.331   2.199  0.5465  1.2471  1.4485
10626SOL     OW32776   4.598   0.293   1.020  0.5470  0.2586  0.4700
10626SOL    HW132777   4.552   0.335   0.943  1.1639  0.9325  0.4645
10626SOL    HW232778   4.683   0.251   0.989  0.1352 -0.6668  0.5458
10627SOL     OW32779   3.134   3.519   1.668  0.3233  0.4047  0.1703
10627SOL    HW132780   3.211   3.521   1.732 -0.1803  0.6559  0.7785
10627SOL    HW232781   3.052   3.489   1.715  0.3708 -1.4401 -0.8440
10628SOL     OW32782   6.310   0.854   2.561  0.1930 -0.0883  0.5391
10628SOL    HW132783   6.281   0.938   2.606 -2.5050 -2.4961  3.8353
10628SOL    HW232784   6.403   0.831   2.591  0.6487  1.2547  0.2204
10629SOL     OW32785   0.488   3.157   6.524  0.0395  0.0970 -0.1759
10629SOL    HW132786   0.502   3.175   6.427 -0.2667 -0.2235 -0.2807
10629SOL    HW232787   0.468   3.242   6.572 -1.7068  0.0102 -0.7083
10630SOL     OW32788   0.308   0.059   1.350  0.1331 -0.4283 -0.1428
10630SOL    HW132789   0.356  -0.028   1.356  2.4470  0.8160  0.8488
10630SOL    HW232790   0.338   0.108   1.268 -1.1979 -0.5372 -0.7290
10631SOL     OW32791   2.859   4.044   0.555  0.0718 -0.1405  0.3107
10631SOL    HW132792   2.794   4.112   0.522  0.1629 -0.2564 -0.1041
10631SOL    HW232793   2.900   4.077   0.641 -0.6582 -0.1487  0.6653
10632SOL     OW32794   3.254   3.022   6.107 -0.2844  0.9708  0.1855
10632SOL    HW132795   3.223   3.117   6.115 -0.2061  1.1111 -1.0736
10632SOL    HW232796   3.199   2.974   6.039  1.4485  0.9110 -1.2634
10633SOL     OW32797   0.020   0.909   0.897  0.6191  0.4707 -0.4326
10633SOL    HW132798   0.119   0.920   0.907  0.4498  1.6093  0.2052
10633SOL    HW232799  -0.009   0.948   0.810  0.4072  2.6728  0.5605
10634SOL     OW32800   5.731   5.974   4.665  0.4294 -0.5286 -0.1479
10634SOL    HW132801   5.684   5.911   4.603  1.8924 -0.6408 -1.2000
10634SOL    HW232802   5.717   6.068   4.634 -2.9516 -0.0809  2.2281
10635SOL     OW32803   0.828   0.600   1.256  0.1674 -0.2754  0.1069
10635SOL    HW132804   0.740   0.557   1.235  0.2092 -0.0484 -0.5314
10635SOL    HW232805   0.812   0.694   1.287 -0.1128 -1.2861  3.5235
10636SOL     OW32806   1.698   5.027   2.016 -0.8144 -0.8208 -0.5234
10636SOL    HW132807   1.637   5.065   2.086 -0.4067 -2.4573  0.7911
10636SOL    HW232808   1.656   4.946   1.977  0.2515 -1.6497  0.0050
10637SOL     OW32809   1.563   1.141   4.742 -0.3615 -0.2163 -0.0935
10637SOL    HW132810   1.576   1.220   4.681 -0.0869 -0.6411 -0.5927
10637SOL    HW232811   1.465   1.122   4.751 -0.4538  0.4566  0.3902
10638SOL     OW32812   3.570   0.156   2.899 -0.2208 -0.0104 -0.6392
10638SOL    HW132813   3.560   0.063   2.933 -2.3495 -0.6513 -2.7387
10638SOL    HW232814   3.491   0.211   2.929 -0.6212  0.1930 -1.9872
10639SOL     OW32815   5.263   0.472   5.641 -0.0953  0.2873  0.0763
10639SOL    HW132816   5.261   0.373   5.653 -0.0166  0.4699  1.7879
10639SOL    HW232817   5.267   0.493   5.543 -1.9680 -1.3514 -0.4221
10640SOL     OW32818   6.409   6.659   6.184  0.5836  0.2116  0.6700
10640SOL    HW132819   6.421   6.603   6.103 -0.1767 -0.7461  1.1899
10640SOL    HW232820   6.497   6.696   6.213  0.8515  0.6281 -0.6108
10641SOL     OW32821   5.393   1.162   3.851 -0.0053  0.1086 -0.4664
10641SOL    HW132822   5.412   1.110   3.768 -2.0340 -0.0015 -0.9161
10641SOL    HW232823   5.430   1.255   3.842  3.2717 -1.0250  0.1717
10642SOL     OW32824   1.619   1.353   0.861 -0.3807  0.3955 -0.5110
10642SOL    HW132825   1.694   1.354   0.928 -0.2909  0.3692 -0.6103
10642SOL    HW232826   1.567   1.438   0.868 -0.8228  0.0789  0.0963
10643SOL     OW32827   3.045   3.686   4.936  0.6443 -0.1227 -0.4016
10643SOL    HW132828   2.970   3.749   4.917  0.4720 -0.1336  0.2188
10643SOL    HW232829   3.088   3.658   4.850  0.0375  0.0050 -0.7519
10644SOL     OW32830   3.345   3.356   4.378  0.7920  0.4063 -0.8426
10644SOL    HW132831   3.290   3.436   4.354  0.0320 -0.5814 -2.6051
10644SOL    HW232832   3.439   3.368   4.345  1.2969  1.4455  0.8301
10645SOL     OW32833   3.488   6.874   5.901  0.2092 -0.1831 -0.0760
10645SOL    HW132834   3.447   6.823   5.825  0.5317  1.1937 -1.2117
10645SOL    HW232835   3.585   6.851   5.908  0.8633  1.6990 -1.9233
10646SOL     OW32836   4.360   1.392   0.360  0.4897 -0.1155  0.2405
10646SOL    HW132837   4.406   1.308   0.388  1.4120  0.1688 -0.3757
10646SOL    HW232838   4.308   1.375   0.276  0.3495 -0.1679  0.3378
10647SOL     OW32839   6.532   4.590   4.885 -0.3251 -0.5489  0.4612
10647SOL    HW132840   6.494   4.511   4.835  1.0066  0.0405 -1.6239
10647SOL    HW232841   6.504   4.674   4.838  1.1136  0.0224  0.5932
10648SOL     OW32842   4.028   2.209   2.698  0.0652  0.2210  0.3671
10648SOL    HW132843   4.021   2.128   2.756 -0.7384  1.3010  1.8583
10648SOL    HW232844   4.120   2.216   2.661  1.2369  0.5251  3.1304
10649SOL     OW32845   6.506   1.173   3.540  0.4947 -0.7455  0.0094
10649SOL    HW132846   6.604   1.189   3.544  0.2015  1.2014  0.4008
10649SOL    HW232847   6.462   1.216   3.618 -0.7316 -1.1323 -0.4423
10650SOL     OW32848   1.754   4.266   0.929  0.0230 -0.7977 -0.1660
10650SOL    HW132849   1.791   4.300   0.843 -0.2150  0.0087  0.0391
10650SOL    HW232850   1.662   4.302   0.943  0.5895  0.2836  1.0946
10651SOL     OW32851   6.509   2.952   5.081  0.2249  0.2219 -0.0775
10651SOL    HW132852   6.521   3.049   5.102  0.6325  0.3747 -0.9932
10651SOL    HW232853   6.594   2.903   5.100  0.1645  0.1233 -0.0605
10652SOL     OW32854   0.441   5.573   2.608 -0.7792 -0.1538  0.0240
10652SOL    HW132855   0.520   5.615   2.652 -1.0035  0.5552 -0.2343
10652SOL    HW232856   0.364   5.572   2.673 -0.5132 -0.9935  0.3297
10653SOL     OW32857   6.092   3.776   4.980  0.7366 -0.3815  0.5168
10653SOL    HW132858   6.095   3.843   5.054  0.4088 -0.2142  0.3788
10653SOL    HW232859   6.184   3.764   4.942  0.5188  1.3641 -0.6779
10654SOL     OW32860   4.968   1.187   1.037  0.5641 -0.4881  0.7223
10654SOL    HW132861   5.046   1.181   0.975 -0.0341 -0.8144 -0.0023
10654SOL    HW232862   4.973   1.273   1.089 -1.4020  2.2724 -3.1785
10655SOL     OW32863   0.242   1.637   1.447 -0.1648 -0.6503  0.0522
10655SOL    HW132864   0.327   1.621   1.397  0.5204 -0.5563  1.1418
10655SOL    HW232865   0.227   1.562   1.512 -0.0627  0.1222  0.9915
10656SOL     OW32866   4.432   2.516   1.814  0.0312  0.3874  0.1585
10656SOL    HW132867   4.340   2.484   1.790  0.3862 -0.4314 -0.1694
10656SOL    HW232868   4.439   2.526   1.913  0.0501 -1.0982  0.3332
10657SOL     OW32869   4.097   6.610   5.635  0.1932  0.7142 -1.0950
10657SOL    HW132870   4.191   6.638   5.617  0.1817  0.5840 -1.3761
10657SOL    HW232871   4.049   6.682   5.683  0.9241  0.1193  0.6326
10658SOL     OW32872   0.136   1.477   0.925  0.8995  0.3008 -0.4918
10658SOL    HW132873   0.189   1.457   0.843 -1.0178 -1.6813 -1.3568
10658SOL    HW232874   0.093   1.393   0.958 -0.7294  1.5872  0.8426
10659SOL     OW32875   5.430   2.479   1.430 -0.1471 -0.1236  0.0404
10659SOL    HW132876   5.493   2.556   1.437 -0.9146  0.8625 -2.5581
10659SOL    HW232877   5.408   2.445   1.521  1.4810  1.6635  1.1751
10660SOL     OW32878   0.068   1.208   3.373 -0.1389 -0.2733  0.0392
10660SOL    HW132879   0.165   1.230   3.371 -0.0375 -0.7072  0.1400
10660SOL    HW232880   0.041   1.183   3.466 -0.3808 -0.0107  0.0411
10661SOL     OW32881   0.898   0.371   3.642 -0.3718  0.1841 -0.4199
10661SOL    HW132882   0.944   0.421   3.715  0.1844 -0.1859 -0.5188
10661SOL    HW232883   0.950   0.289   3.618 -1.0176 -0.1797 -0.6075
10662SOL     OW32884   3.161   2.424   5.714  0.0130 -0.0488  0.3614
10662SOL    HW132885   3.226   2.442   5.787  0.5181  0.5027 -0.2128
10662SOL    HW232886   3.132   2.510   5.672  0.9968 -0.4206 -1.1653
10663SOL     OW32887   4.900   6.550   3.224 -0.0599 -0.0735  0.0797
10663SOL    HW132888   4.931   6.645   3.235  2.4471 -0.7939 -0.0957
10663SOL    HW232889   4.830   6.530   3.293 -1.8739  2.3326 -0.9206
10664SOL     OW32890   1.187   3.756   5.840  0.0611 -0.2677  0.5475
10664SOL    HW132891   1.104   3.704   5.821 -2.7225  2.9834  2.6236
10664SOL    HW232892   1.199   3.826   5.771  0.1822  0.2177  1.0514
10665SOL     OW32893   3.688   5.480   0.714  0.9946  0.1484  0.5082
10665SOL    HW132894   3.628   5.560   0.716  1.2063  0.3380 -0.2003
10665SOL    HW232895   3.677   5.432   0.627  2.2782  0.5173  0.1259
10666SOL     OW32896   4.855   2.572   2.907  0.4547 -0.1213  0.2589
10666SOL    HW132897   4.809   2.495   2.953  1.4979 -1.8693 -1.4597
10666SOL    HW232898   4.937   2.538   2.861  1.0749  2.1193 -0.3748
10667SOL     OW32899   2.090   1.574   5.802 -0.3718 -0.2157 -0.4087
10667SOL    HW132900   2.002   1.619   5.820 -0.8229 -1.3185  0.2368
10667SOL    HW232901   2.075   1.477   5.784  0.5559 -0.0744 -2.1408
10668SOL     OW32902   0.707   3.688   6.548  0.0119  0.1332 -0.2547
10668SOL    HW132903   0.645   3.763   6.526  0.2364  1.1724  2.3357
10668SOL    HW232904   0.685   3.652   6.639  0.1741 -2.7150 -1.2532
10669SOL     OW32905   3.293   3.242   5.722 -0.0839  0.4772  0.3410
10669SOL    HW132906   3.249   3.202   5.802  0.2023 -1.6910 -0.5126
10669SOL    HW232907   3.257   3.199   5.639  1.6135  0.6535 -0.5456
10670SOL     OW32908   4.004   3.843   4.382  0.0857  0.1902  0.2085
10670SOL    HW132909   4.011   3.870   4.287  1.9618 -0.7843  0.0269
10670SOL    HW232910   4.037   3.749   4.393  0.2251  0.3936  1.8748
10671SOL     OW32911   3.080   5.673   5.434 -0.3598  0.6707  0.2037
10671SOL    HW132912   3.085   5.653   5.337 -0.6375  0.9966  0.1224
10671SOL    HW232913   3.143   5.748   5.455  1.9063 -1.2454  0.7802
10672SOL     OW32914   5.837   2.421   0.518  0.0893  0.0036  0.0776
10672SOL    HW132915   5.797   2.351   0.459 -1.5812 -0.3248  1.5264
10672SOL    HW232916   5.794   2.418   0.608 -1.1136  3.8273 -0.1899
10673SOL     OW32917   2.007   5.304   5.610 -0.3466  0.5202 -0.0097
10673SOL    HW132918   1.938   5.235   5.589 -0.8333  0.8073  0.5965
10673SOL    HW232919   2.068   5.316   5.532  0.2821 -1.2033  0.1723
10674SOL     OW32920   3.779   5.529   2.922 -0.0308  0.2942  0.0520
10674SOL    HW132921   3.776   5.459   2.850  1.5439 -1.0111  1.1764
10674SOL    HW232922   3.872   5.563   2.931 -0.3481  0.9527  1.0033
10675SOL     OW32923   5.340   4.012   3.789  0.0318 -0.1575 -0.3004
10675SOL    HW132924   5.366   3.929   3.740  1.9225  0.5106 -0.5242
10675SOL    HW232925   5.284   3.988   3.868  1.6908 -1.8199  0.4387
10676SOL     OW32926   5.234   0.727   5.244  0.2292 -0.2346  0.0808
10676SOL    HW132927   5.204   0.728   5.148 -1.1227 -0.4425  0.4784
10676SOL    HW232928   5.167   0.776   5.300 -0.1481 -1.9928  1.2300
10677SOL     OW32929   2.175   2.581   6.710  0.2889 -0.2487 -0.5855
10677SOL    HW132930   2.253   2.612   6.764 -1.1098  0.6364  1.0686
10677SOL    HW232931   2.201   2.501   6.656  2.0088 -0.7059  0.8144
10678SOL     OW32932   6.649   2.385   2.465 -0.3260 -0.7051 -0.2901
10678SOL    HW132933   6.740   2.362   2.430 -1.4380 -1.7590 -2.7648
10678SOL    HW232934   6.647   2.373   2.564  2.1186 -0.9490 -0.2007
10679SOL     OW32935   5.431   2.802   5.998  0.2088  0.1014 -0.0969
10679SOL    HW132936   5.470   2.736   6.063  0.6664  0.2373 -0.2292
10679SOL    HW232937   5.430   2.761   5.906  0.3998  0.2405 -0.1614
10680SOL     OW32938   4.746   5.676   6.623 -0.4069  0.1282 -1.5436
10680SOL    HW132939   4.833   5.640   6.590  0.6401  1.1636 -0.0271
10680SOL    HW232940   4.741   5.774   6.604 -0.5474  0.3830 -0.2748
10681SOL     OW32941   2.404   5.520   0.974  0.1589 -0.1153  0.2657
10681SOL    HW132942   2.334   5.573   1.020  0.5923  0.0832  0.7037
10681SOL    HW232943   2.472   5.490   1.041  0.2149 -0.7460 -0.0674
10682SOL     OW32944   5.978   0.132   2.761 -0.1845  0.2683  0.5155
10682SOL    HW132945   5.892   0.082   2.773  0.2386 -0.4020  0.7812
10682SOL    HW232946   5.968   0.225   2.798 -0.7310  0.1318  0.7168
10683SOL     OW32947   2.094   5.329   3.448  0.3002  0.0601  0.0006
10683SOL    HW132948   2.135   5.396   3.510 -0.1547  2.5439 -2.2258
10683SOL    HW232949   2.053   5.376   3.370  1.6552 -2.9125 -2.7252
10684SOL     OW32950   5.232   6.538   2.888  0.6994  0.0496  0.0006
10684SOL    HW132951   5.310   6.589   2.851  0.5796  0.4206  0.2567
10684SOL    HW232952   5.185   6.491   2.813 -0.0749  1.5127 -0.4758
10685SOL     OW32953   5.805   4.534   5.355 -0.0072 -0.0196  0.6630
10685SOL    HW132954   5.765   4.446   5.329 -1.2465 -0.1296  2.7352
10685SOL    HW232955   5.732   4.602   5.362  1.1172  1.7453 -2.6970
10686SOL     OW32956   6.496   3.407   3.010 -0.1671 -0.1506  0.0942
10686SOL    HW132957   6.535   3.315   3.020 -1.9328 -1.2697 -2.2844
10686SOL    HW232958   6.555   3.461   2.950 -0.1413 -0.3886 -0.0960
10687SOL     OW32959   0.240   6.055   0.889  0.2980  0.3361  0.5540
10687SOL    HW132960   0.170   5.999   0.935 -0.2665 -0.1168 -0.8123
10687SOL    HW232961   0.307   6.086   0.957 -0.8347  0.2046  1.7879
10688SOL     OW32962   5.060   4.684   5.278 -1.3207  0.0041  0.4737
10688SOL    HW132963   5.009   4.763   5.311 -1.1063  0.0700  0.6525
10688SOL    HW232964   5.051   4.677   5.179 -0.5680  0.8073  0.3368
10689SOL     OW32965   6.167   4.408   4.385 -0.4868 -0.0314 -0.0883
10689SOL    HW132966   6.256   4.447   4.407 -0.2096 -0.7581  0.0800
10689SOL    HW232967   6.163   4.313   4.416 -0.8979 -0.3694 -1.1443
10690SOL     OW32968   3.521   1.562   2.878  0.2738  0.2329  0.8195
10690SOL    HW132969   3.552   1.540   2.970  1.4508 -0.8291  0.2048
10690SOL    HW232970   3.422   1.571   2.877  0.1946 -0.3157  2.0853
10691SOL     OW32971   0.320   2.896   1.017  0.0693 -0.4298 -0.0939
10691SOL    HW132972   0.223   2.907   1.039  0.1725  0.2027  0.0702
10691SOL    HW232973   0.357   2.984   0.985  0.6149 -0.6374 -0.0479
10692SOL     OW32974   2.433   2.280   2.663 -0.1693  0.2231  0.3636
10692SOL    HW132975   2.502   2.276   2.736 -0.5919  2.9056  1.0289
10692SOL    HW232976   2.343   2.296   2.704 -0.6089  0.4531 -0.6724
10693SOL     OW32977   2.621   4.910   0.485  0.1596 -0.2274 -0.3550
10693SOL    HW132978   2.641   4.957   0.399  1.8575  0.1947  0.2397
10693SOL    HW232979   2.527   4.930   0.512 -0.0073  0.6415 -1.4800
10694SOL     OW32980   0.800   2.472   6.021 -0.4463  0.2121  0.3550
10694SOL    HW132981   0.879   2.492   5.963 -1.0222  0.1013 -0.4682
10694SOL    HW232982   0.817   2.386   6.070  0.2479  0.5586  0.7451
10695SOL     OW32983   0.580   5.400   1.106 -0.0082  0.4890  0.1222
10695SOL    HW132984   0.659   5.352   1.145  0.0278  1.1015  0.8213
10695SOL    HW232985   0.511   5.415   1.178 -1.0498 -0.5819 -0.5996
10696SOL     OW32986   6.016   4.878   2.361 -0.6980 -0.2255  0.1680
10696SOL    HW132987   5.961   4.961   2.374 -1.4492 -0.4783 -1.1308
10696SOL    HW232988   6.072   4.888   2.279  0.4370 -0.3894  0.9071
10697SOL     OW32989   6.180   4.734   3.784 -0.2384 -0.1865  0.1119
10697SOL    HW132990   6.254   4.743   3.718 -0.5185 -1.8663 -0.4816
10697SOL    HW232991   6.178   4.815   3.844  1.5998  0.2037 -0.3066
10698SOL     OW32992   0.613   2.357   3.513  0.5552  0.0527 -0.5176
10698SOL    HW132993   0.584   2.281   3.454  0.9751  0.6056 -1.4438
10698SOL    HW232994   0.710   2.374   3.500  0.4160  0.9010 -0.4867
10699SOL     OW32995   0.026   5.684   6.561 -0.3329  0.7154  0.1479
10699SOL    HW132996  -0.003   5.593   6.529  1.1703 -0.4448  1.8473
10699SOL    HW232997  -0.053   5.736   6.591 -1.1175 -0.5349  0.3215
10700SOL     OW32998   2.741   6.397   5.775  0.2131 -0.8552 -0.7259
10700SOL    HW132999   2.804   6.371   5.848 -1.4962 -0.3702  1.0148
10700SOL    HW233000   2.789   6.396   5.687  2.1341 -2.2798  0.2621
10701SOL     OW33001   0.753   6.159   4.673  0.2053 -0.3982  0.2035
10701SOL    HW133002   0.673   6.169   4.613  1.1589 -0.7690 -1.1798
10701SOL    HW233003   0.836   6.163   4.618  1.1749  0.4376  1.6754
10702SOL     OW33004   1.472   5.648   4.082  0.0093 -0.0574 -0.1207
10702SOL    HW133005   1.543   5.695   4.135  0.1704 -0.3573 -0.0664
10702SOL    HW233006   1.395   5.709   4.068  1.0237  0.9295 -1.7481
10703SOL     OW33007   3.609   2.798   1.745 -0.1388  0.3748 -0.2332
10703SOL    HW133008   3.610   2.889   1.704 -0.8822  0.9168  0.9158
10703SOL    HW233009   3.691   2.748   1.716 -0.0030  1.1872 -1.3244
10704SOL     OW33010   1.958   3.272   5.847  0.0198  0.5967 -0.0868
10704SOL    HW133011   1.891   3.199   5.859  0.6318  0.3699  2.3549
10704SOL    HW233012   1.947   3.340   5.920  0.6910  1.9988 -1.2320
10705SOL     OW33013   5.332   0.048   1.108  0.2566  0.1476  0.1908
10705SOL    HW133014   5.417  -0.004   1.119  0.5754  0.4774 -0.6216
10705SOL    HW233015   5.299   0.077   1.198  1.1568  0.2584  0.4942
10706SOL     OW33016   3.169   3.082   6.798 -0.6637  0.8869  0.2368
10706SOL    HW133017   3.076   3.118   6.809 -0.2988  1.4845  1.5289
10706SOL    HW233018   3.164   2.985   6.772 -1.6372  1.1253 -0.5267
10707SOL     OW33019   4.611   1.956   1.585  0.1547  0.3272 -0.6130
10707SOL    HW133020   4.694   2.004   1.613 -0.2628  1.3232 -1.0516
10707SOL    HW233021   4.633   1.891   1.512  0.9016 -0.9054  0.6520
10708SOL     OW33022   6.334   1.071   5.910 -0.6561  0.0222  0.1862
10708SOL    HW133023   6.258   1.136   5.915 -0.4688  0.2362  0.2675
10708SOL    HW233024   6.409   1.111   5.857 -1.1619 -0.7604 -1.1649
10709SOL     OW33025   6.045   2.447   5.033  0.5255 -0.3087  0.6719
10709SOL    HW133026   6.009   2.365   4.989 -0.1503 -0.0741  0.7816
10709SOL    HW233027   5.970   2.502   5.069  0.9343  0.6026  0.1864
10710SOL     OW33028   4.005   1.971   2.846  0.2368  0.1585 -0.0362
10710SOL    HW133029   3.995   1.900   2.916  0.5302 -0.0806 -0.2310
10710SOL    HW233030   3.973   1.935   2.758  2.0874 -0.3894 -0.5337
10711SOL     OW33031   0.653   4.673   5.534 -0.1633 -0.1195 -0.1387
10711SOL    HW133032   0.626   4.733   5.609 -1.1688  0.1854 -0.7278
10711SOL    HW233033   0.572   4.637   5.489  0.3057  1.8302 -2.7850
10712SOL     OW33034   6.130   1.902   0.428 -0.1433 -0.1940 -0.3792
10712SOL    HW133035   6.149   1.845   0.508  1.0628 -0.3228 -0.7363
10712SOL    HW233036   6.157   1.852   0.345  1.9501  1.2637 -0.6432
10713SOL     OW33037   5.934   3.719   3.584  0.3763 -0.4671 -0.1362
10713SOL    HW133038   5.890   3.772   3.656 -2.8455 -0.6879 -1.7507
10713SOL    HW233039   5.914   3.622   3.598 -0.2765 -0.5134 -1.2395
10714SOL     OW33040   2.666   5.863   2.950  0.3237  0.0809 -0.5130
10714SOL    HW133041   2.690   5.856   2.853 -0.0429  0.6618 -0.6509
10714SOL    HW233042   2.689   5.954   2.983 -0.4947  0.2179 -0.3176
10715SOL     OW33043   1.718   5.993   3.387  0.6971  0.1080  0.8201
10715SOL    HW133044   1.682   5.901   3.401  1.8929 -0.0983  2.9398
10715SOL    HW233045   1.795   5.990   3.324 -0.9667  0.1337 -1.3512
10716SOL     OW33046   1.304   1.826   3.581 -0.2420 -0.3879 -0.6197
10716SOL    HW133047   1.396   1.866   3.580  0.3823 -1.7024  0.4893
10716SOL    HW233048   1.289   1.775   3.496 -0.1371  0.2076 -1.0039
10717SOL     OW33049   0.038   4.153   4.997  0.3995 -0.2625  0.0582
10717SOL    HW133050   0.020   4.252   4.994  3.7247  0.4405 -1.3307
10717SOL    HW233051   0.086   4.131   5.081 -1.1205 -0.9414  0.7905
10718SOL     OW33052   3.726   3.041   6.769 -0.3609  0.3434  0.1398
10718SOL    HW133053   3.798   3.080   6.826 -1.0228 -2.0273  2.8468
10718SOL    HW233054   3.637   3.072   6.802 -0.7092  0.7606 -1.1534
10719SOL     OW33055   1.915   1.823   2.085 -0.5414  0.6626 -0.0226
10719SOL    HW133056   1.949   1.800   2.176  1.6469  0.4261 -0.8238
10719SOL    HW233057   1.829   1.873   2.093 -0.7709  0.0381  2.1187
10720SOL     OW33058   2.513   1.147   2.394  0.0642 -0.0308 -0.0598
10720SOL    HW133059   2.467   1.165   2.481  0.4449  0.6851  0.0060
10720SOL    HW233060   2.452   1.169   2.319 -0.5025 -1.2865  0.0141
10721SOL     OW33061   5.584   0.471   0.126 -0.1549  0.7664  0.2627
10721SOL    HW133062   5.683   0.479   0.116 -0.2726  3.7862  0.7207
10721SOL    HW233063   5.539   0.492   0.040 -0.4399  2.3313  0.7644
10722SOL     OW33064   6.797   0.933   6.420 -1.0409  0.0874  0.0241
10722SOL    HW133065   6.881   0.952   6.471 -1.8081 -2.0091  2.2468
10722SOL    HW233066   6.797   0.837   6.391 -2.9381 -0.1247  0.6225
10723SOL     OW33067   3.980   2.342   6.261 -0.3376  0.0825 -0.4952
10723SOL    HW133068   3.893   2.390   6.269 -0.2432  0.0793  0.7696
10723SOL    HW233069   3.964   2.243   6.261 -0.3983  0.0931 -1.1679
10724SOL     OW33070   5.426   1.857   0.458  0.0920  0.0575  1.1305
10724SOL    HW133071   5.337   1.830   0.421 -0.3277  2.8054 -0.0840
10724SOL    HW233072   5.481   1.775   0.475 -0.5542 -1.6272 -3.4550
10725SOL     OW33073   6.001   0.718   1.001  0.0575  0.0740  0.6237
10725SOL    HW133074   5.905   0.690   1.000 -0.0790  0.5378  0.5362
10725SOL    HW233075   6.054   0.652   1.055  0.2150 -1.7781 -1.6568
10726SOL     OW33076   4.856   2.994   0.636 -0.4821 -0.3207 -0.2143
10726SOL    HW133077   4.881   2.923   0.701 -1.1094  0.5942  1.0705
10726SOL    HW233078   4.856   2.956   0.544 -1.7883 -2.2587  0.5240
10727SOL     OW33079   3.013   3.976   1.252  0.1234  0.5865 -0.4083
10727SOL    HW133080   3.050   3.883   1.239 -1.1816 -0.1925  1.1385
10727SOL    HW233081   3.089   4.040   1.266  1.0305 -0.3029 -1.0818
10728SOL     OW33082   0.146   3.920   1.524  0.2236  0.3128  0.2050
10728SOL    HW133083   0.163   3.874   1.438 -1.9822 -2.7918  1.2649
10728SOL    HW233084   0.150   4.019   1.510  3.2012 -0.0255 -2.6322
10729SOL     OW33085   2.147   4.530   4.175  0.3089 -0.0111 -0.1290
10729SOL    HW133086   2.055   4.535   4.214 -0.0742  0.3284 -1.0558
10729SOL    HW233087   2.175   4.434   4.170  0.9555 -0.0194  2.2619
10730SOL     OW33088   0.129   0.933   6.339  0.4667  0.2202 -0.6008
10730SOL    HW133089   0.066   0.956   6.264 -0.5453  0.4358  0.2963
10730SOL    HW233090   0.083   0.947   6.427  1.1643 -1.3929  0.0533
10731SOL     OW33091   2.312   5.095   5.644  0.0783 -0.2978  0.3688
10731SOL    HW133092   2.280   5.087   5.739 -0.6309  0.5315  0.2168
10731SOL    HW233093   2.239   5.069   5.582  0.3903 -0.3928  0.0417
10732SOL     OW33094   4.237   2.770   1.209  0.0814 -0.0993  0.0925
10732SOL    HW133095   4.256   2.768   1.307 -2.1289 -0.4552  0.5645
10732SOL    HW233096   4.300   2.708   1.162  1.0587 -0.0557  1.2870
10733SOL     OW33097   4.919   0.418   4.325  0.7445  0.0097  0.1273
10733SOL    HW133098   4.877   0.336   4.364  1.8077 -0.8496 -0.4564
10733SOL    HW233099   4.875   0.499   4.362  1.5743 -0.7462  2.9844
10734SOL     OW33100   1.352   0.515   6.110 -0.2287 -0.0722 -0.2030
10734SOL    HW133101   1.332   0.612   6.126  0.3239  0.2531 -1.3814
10734SOL    HW233102   1.439   0.492   6.154  1.2017  0.7770 -2.4100
10735SOL     OW33103   4.076   1.998   3.822 -0.1859 -0.2720 -0.8442
10735SOL    HW133104   3.990   2.020   3.867  0.4492 -0.2047  0.3838
10735SOL    HW233105   4.108   2.077   3.769  1.0089  1.1589  1.8007
10736SOL     OW33106   1.564   1.379   3.422 -0.3253  0.0147 -0.0553
10736SOL    HW133107   1.651   1.412   3.459  0.3531 -2.1733  0.4229
10736SOL    HW233108   1.495   1.377   3.494  0.2144 -1.5522  0.4417
10737SOL     OW33109   6.195   0.296   0.937  0.7366 -0.0504 -0.2734
10737SOL    HW133110   6.243   0.237   1.001 -2.2227 -0.4509  1.7996
10737SOL    HW233111   6.144   0.240   0.872  0.1201  0.2629 -0.0642
10738SOL     OW33112   5.125   4.252   3.532 -0.7428 -0.2333  0.2901
10738SOL    HW133113   5.124   4.152   3.535  2.8678 -0.4413 -0.4052
10738SOL    HW233114   5.172   4.287   3.614  0.7342  0.6264 -0.8675
10739SOL     OW33115   6.375   4.467   2.195  0.1168 -0.0418 -0.3107
10739SOL    HW133116   6.451   4.408   2.168  0.3796 -0.5861  1.4913
10739SOL    HW233117   6.299   4.411   2.228  0.0288  0.5754  0.5691
10740SOL     OW33118   5.824   5.371   0.900 -0.1345  0.1401  0.0762
10740SOL    HW133119   5.775   5.449   0.938 -1.4711 -0.8733  0.4756
10740SOL    HW233120   5.905   5.352   0.955  0.5642  1.6145 -0.3942
10741SOL     OW33121   0.282   1.405   5.195  0.1754  0.0636  0.2705
10741SOL    HW133122   0.219   1.416   5.118 -0.6059  0.7111  0.9823
10741SOL    HW233123   0.374   1.392   5.160 -0.2558 -0.2770 -0.7886
10742SOL     OW33124   6.532   3.299   1.369 -0.2881 -0.6361  0.4050
10742SOL    HW133125   6.568   3.311   1.462  0.4806 -0.2528  0.0710
10742SOL    HW233126   6.478   3.215   1.365  0.1393 -0.9567  1.0577
10743SOL     OW33127   0.896   6.109   2.925 -0.3475 -0.0607  0.1860
10743SOL    HW133128   0.921   6.142   3.016  0.8986  1.4210 -0.6520
10743SOL    HW233129   0.822   6.165   2.888 -1.4080 -1.1671  0.5844
10744SOL     OW33130   3.375   0.954   6.680  0.0136 -0.0210 -0.0140
10744SOL    HW133131   3.331   1.005   6.754  1.0821  0.9407 -0.0096
10744SOL    HW233132   3.439   0.888   6.720  0.5403  0.4511 -0.0623
10745SOL     OW33133   6.464   6.745   0.524 -1.0426  0.1576  0.5658
10745SOL    HW133134   6.385   6.754   0.463 -0.8416 -0.9496  0.1128
10745SOL    HW233135   6.433   6.750   0.619 -1.6118  0.0843  0.3890
10746SOL     OW33136   0.654   2.065   3.524 -0.2165 -0.0347 -0.0199
10746SOL    HW133137   0.637   2.049   3.427  0.8233 -0.1895 -0.1781
10746SOL    HW233138   0.748   2.096   3.538 -0.4451  0.2918  0.9070
10747SOL     OW33139   1.972   2.546   3.380  0.5194  0.4695 -0.1858
10747SOL    HW133140   1.905   2.514   3.312  0.6081 -1.6737  0.6481
10747SOL    HW233141   1.999   2.469   3.438  1.5894  1.9250  1.3177
10748SOL     OW33142   2.432   6.704   6.363  0.3111 -0.1468  0.5393
10748SOL    HW133143   2.369   6.767   6.408  0.4033 -0.4175  1.0580
10748SOL    HW233144   2.511   6.754   6.329  0.2627  0.0563  0.7237
10749SOL     OW33145   2.673   4.989   5.078  0.6085  0.5977 -0.4621
10749SOL    HW133146   2.623   5.005   4.993  0.9375  2.8397 -0.2866
10749SOL    HW233147   2.608   4.972   5.153  0.2283  0.7506 -0.7537
10750SOL     OW33148   6.713   5.314   5.833 -0.1344 -0.6377 -0.4072
10750SOL    HW133149   6.808   5.317   5.804 -0.3940 -1.1682 -1.3400
10750SOL    HW233150   6.664   5.244   5.781 -0.9995 -0.4835  0.1731
10751SOL     OW33151   2.199   4.744   2.539 -0.2595 -0.0843  0.2011
10751SOL    HW133152   2.238   4.674   2.599  0.3470 -0.0907 -0.1972
10751SOL    HW233153   2.267   4.771   2.470 -1.0556 -0.3216 -0.6989
10752SOL     OW33154   5.331   4.031   1.309  0.4580 -0.0519  0.2676
10752SOL    HW133155   5.249   3.981   1.281 -0.1478  0.5436  0.9473
10752SOL    HW233156   5.327   4.049   1.407  0.9979  0.7411  0.1528
10753SOL     OW33157   3.548   6.932   3.022 -0.2503  0.6547  0.9295
10753SOL    HW133158   3.568   6.867   2.949 -1.1249  2.6763 -1.2300
10753SOL    HW233159   3.618   6.925   3.093  2.0288  0.2293 -1.2296
10754SOL     OW33160   4.386   6.316   3.968 -0.2862 -0.0841  0.1887
10754SOL    HW133161   4.479   6.334   4.000 -0.5324  2.2739 -0.2451
10754SOL    HW233162   4.329   6.286   4.045  0.0790  1.6025  1.1630
10755SOL     OW33163   3.755   1.177   4.994  0.4500 -0.3547 -0.0942
10755SOL    HW133164   3.768   1.269   5.029  0.6684 -0.2326 -0.4886
10755SOL    HW233165   3.667   1.141   5.026 -1.5679  1.4877 -3.0573
10756SOL     OW33166   2.390   5.916   4.791  0.3941 -0.4963  0.4084
10756SOL    HW133167   2.361   6.002   4.834 -0.4131 -0.1568 -0.7771
10756SOL    HW233168   2.484   5.926   4.759  0.4070 -0.1674  0.5410
10757SOL     OW33169   2.555   1.155   4.870  0.3064  0.0057 -0.6704
10757SOL    HW133170   2.496   1.235   4.860 -1.2037 -0.8078  1.1005
10757SOL    HW233171   2.629   1.177   4.934  0.6967  0.3709 -1.2345
10758SOL     OW33172   3.319   2.620   6.365 -0.4678 -0.0134 -0.0183
10758SOL    HW133173   3.220   2.622   6.358 -0.4469 -2.2121 -1.8223
10758SOL    HW233174   3.360   2.625   6.274  0.9414 -2.5679  0.3922
10759SOL     OW33175   0.420   4.890   6.037  0.2940 -0.1905 -0.3056
10759SOL    HW133176   0.431   4.869   6.134  0.5271  1.0865 -0.0429
10759SOL    HW233177   0.500   4.858   5.987  0.9536  0.6496  0.1869
10760SOL     OW33178   0.716   0.195   6.789 -0.4890  0.3733 -0.0819
10760SOL    HW133179   0.748   0.181   6.696 -0.8574  0.8149 -0.2819
10760SOL    HW233180   0.775   0.146   6.853  0.5659  1.1344 -0.4390
10761SOL     OW33181   2.424   2.700   6.746  0.2244  0.9563 -0.3737
10761SOL    HW133182   2.444   2.770   6.814  0.1931 -0.2032  0.8765
10761SOL    HW233183   2.503   2.638   6.738 -1.4430 -1.7777  2.2558
10762SOL     OW33184   3.696   5.496   1.571 -0.1878 -0.6667 -0.5074
10762SOL    HW133185   3.727   5.428   1.505 -0.5749 -1.2188 -0.1365
10762SOL    HW233186   3.763   5.569   1.579 -0.5648 -0.1012 -2.1938
10763SOL     OW33187   1.005   0.975   2.787  0.1201  0.4341 -0.0531
10763SOL    HW133188   1.063   0.894   2.796 -1.5185 -0.9027 -0.8038
10763SOL    HW233189   1.012   1.011   2.694 -0.9698 -0.3451 -0.4532
10764SOL     OW33190   1.132   4.453   6.658 -0.6068 -0.5513  0.1670
10764SOL    HW133191   1.135   4.550   6.635  0.2469 -0.5936  0.0444
10764SOL    HW233192   1.122   4.399   6.574  0.7173 -0.6319  0.0377
10765SOL     OW33193   0.622   3.332   3.262 -0.1618 -0.5986  0.3610
10765SOL    HW133194   0.684   3.372   3.329 -1.0763 -2.0817  2.1910
10765SOL    HW233195   0.620   3.390   3.180  0.7097  1.5145  1.7326
10766SOL     OW33196   6.184   5.002   5.095  0.2428  0.0083 -0.1430
10766SOL    HW133197   6.148   4.922   5.142 -1.0316  0.3421 -0.5162
10766SOL    HW233198   6.141   5.010   5.005  0.3284  1.1379 -0.0934
10767SOL     OW33199   6.890   0.587   1.481 -0.7481 -0.6845 -0.8287
10767SOL    HW133200   6.822   0.635   1.426  0.4602 -0.2714 -2.0374
10767SOL    HW233201   6.977   0.636   1.477  0.0043 -1.9243 -0.4865
10768SOL     OW33202   5.249   3.130   3.015  0.0137 -0.2342  0.1591
10768SOL    HW133203   5.171   3.095   2.962  0.3437  0.1056 -0.5733
10768SOL    HW233204   5.267   3.225   2.988  1.7690 -0.8386 -0.9829
10769SOL     OW33205   4.027   0.698   6.418  0.1567  0.1386  0.1708
10769SOL    HW133206   3.972   0.771   6.378 -1.1645  0.0004  1.6449
10769SOL    HW233207   3.994   0.610   6.386 -0.5066  0.0546  1.0672
10770SOL     OW33208   5.524   5.766   6.666  0.1274 -0.3891 -0.1325
10770SOL    HW133209   5.490   5.750   6.758 -0.6148 -1.2118 -0.5283
10770SOL    HW233210   5.530   5.864   6.649 -2.5175 -0.1652 -0.1730
10771SOL     OW33211   1.854   3.248   4.273 -0.0582  0.2748 -0.3711
10771SOL    HW133212   1.855   3.252   4.373 -0.3115 -1.6982 -0.2555
10771SOL    HW233213   1.948   3.242   4.238  0.0180  0.7169 -0.2487
10772SOL     OW33214   1.863   5.609   4.865  0.0989  0.1386  0.2230
10772SOL    HW133215   1.944   5.553   4.846 -0.6973 -0.5347 -1.4368
10772SOL    HW233216   1.785   5.549   4.881 -0.4710  0.7756 -0.1198
10773SOL     OW33217   4.389   3.250   0.618  0.1117 -0.1354 -0.0554
10773SOL    HW133218   4.347   3.340   0.628 -1.1019 -0.4882 -1.5704
10773SOL    HW233219   4.477   3.260   0.571  0.2995  0.3076  0.3758
10774SOL     OW33220   1.948   0.241   2.084  0.4738  0.1468  0.2275
10774SOL    HW133221   1.962   0.254   2.182  1.2267  0.0531  0.1383
10774SOL    HW233222   1.932   0.330   2.041 -2.4609 -0.0176  0.7923
10775SOL     OW33223   3.626   5.188   2.137 -0.0449  0.5098 -0.4761
10775SOL    HW133224   3.712   5.215   2.094  0.9236 -0.7165  0.6193
10775SOL    HW233225   3.611   5.090   2.123 -0.0447  0.2122  1.3415
10776SOL     OW33226   5.024   2.464   2.262 -0.3826 -0.2987  0.4646
10776SOL    HW133227   5.075   2.514   2.192  1.0553 -0.9995  0.9711
10776SOL    HW233228   4.936   2.508   2.277  0.4852  1.5775  0.3144
10777SOL     OW33229   6.514   5.314   3.625  0.0825 -0.6824 -0.2015
10777SOL    HW133230   6.564   5.289   3.543  1.7774 -0.7213  0.8006
10777SOL    HW233231   6.487   5.411   3.620  3.9950  0.6621  0.9354
10778SOL     OW33232   0.132   0.096   5.504 -0.4744 -0.6785 -0.0957
10778SOL    HW133233   0.060   0.164   5.511  1.9919  2.0358  1.3350
10778SOL    HW233234   0.169   0.096   5.411 -1.2465 -0.9362 -0.4083
10779SOL     OW33235   3.872   3.357   4.509 -0.1800  0.2808  0.5068
10779SOL    HW133236   3.907   3.332   4.419 -0.7823  1.2721 -0.0221
10779SOL    HW233237   3.940   3.334   4.579  0.7973  0.5643 -0.3250
10780SOL     OW33238   4.317   2.507   0.737  0.3055  0.3199  0.0713
10780SOL    HW133239   4.298   2.605   0.726 -0.5071  0.3907  1.7195
10780SOL    HW233240   4.349   2.469   0.650 -0.5473  1.7872 -0.9333
10781SOL     OW33241   5.094   5.881   0.039  0.1232  0.3826  0.2232
10781SOL    HW133242   5.059   5.877  -0.055 -0.2167 -2.5919  0.3816
10781SOL    HW233243   5.192   5.860   0.039  0.1033  0.2863  0.5473
10782SOL     OW33244   6.445   4.871   5.031  0.2399  0.6796 -0.4701
10782SOL    HW133245   6.461   4.875   4.932 -0.9115 -0.1679 -0.7166
10782SOL    HW233246   6.390   4.950   5.059  0.7888  1.0610 -0.4480
10783SOL     OW33247   0.889   0.748   2.069  0.5343  0.3019 -0.4481
10783SOL    HW133248   0.848   0.806   2.139 -1.3514 -0.1068 -1.1693
10783SOL    HW233249   0.855   0.775   1.979  0.5048 -1.1840 -0.9063
10784SOL     OW33250   2.880   3.555   1.408 -0.2044 -0.9681 -0.4495
10784SOL    HW133251   2.837   3.497   1.478 -1.6187  0.1687 -0.3101
10784SOL    HW233252   2.969   3.518   1.384  0.5564 -1.1426  2.3269
10785SOL     OW33253   4.866   4.527   2.771 -0.0705 -0.1382  0.0974
10785SOL    HW133254   4.924   4.502   2.848 -0.4814  1.1141  0.8510
10785SOL    HW233255   4.826   4.618   2.788 -1.4925 -0.5624 -0.8280
10786SOL     OW33256   4.214   5.529   3.062  0.0753  0.2048 -0.0569
10786SOL    HW133257   4.234   5.475   3.144 -2.7855 -2.1276 -0.7307
10786SOL    HW233258   4.225   5.472   2.980  0.9171  1.8859 -1.1819
10787SOL     OW33259   3.559   5.058   1.487 -0.3180 -0.1513 -0.4804
10787SOL    HW133260   3.540   4.969   1.530  0.9788  0.2868  1.0906
10787SOL    HW233261   3.648   5.053   1.440  1.2848  1.1295  2.2279
10788SOL     OW33262   3.168   6.967   3.420 -0.2896  0.2780 -0.6965
10788SOL    HW133263   3.260   6.943   3.389 -0.3130 -0.9616  0.1204
10788SOL    HW233264   3.106   6.889   3.405 -1.3401  1.2611 -1.6909
10789SOL     OW33265   4.698   5.919   3.396 -0.1695 -0.2561 -0.0817
10789SOL    HW133266   4.663   5.956   3.483  0.5010 -1.0157  0.5225
10789SOL    HW233267   4.641   5.953   3.321  0.2742  1.8031  0.4624
10790SOL     OW33268   0.961   5.420   5.933  0.3628  0.1957  0.1987
10790SOL    HW133269   0.952   5.516   5.906 -0.8372 -0.0618 -0.4171
10790SOL    HW233270   0.992   5.415   6.028 -0.4200  1.2162  0.5353
10791SOL     OW33271   5.830   3.519   1.794 -0.1192  0.2336 -0.6092
10791SOL    HW133272   5.826   3.616   1.818 -0.6271  0.3067 -0.9657
10791SOL    HW233273   5.883   3.508   1.710  1.0276  0.0579  0.1198
10792SOL     OW33274   0.165   0.104   6.075 -0.0671 -0.4239 -0.0543
10792SOL    HW133275   0.206   0.187   6.113 -1.0484  0.2151 -0.3588
10792SOL    HW233276   0.097   0.067   6.138 -0.8992  0.0106 -0.6800
10793SOL     OW33277   0.509   1.439   1.571 -0.3680 -0.5213 -0.0835
10793SOL    HW133278   0.431   1.392   1.530 -2.0022  1.6500  0.3559
10793SOL    HW233279   0.528   1.400   1.661 -1.6426 -0.4223  0.2450
10794SOL     OW33280   4.479   6.384   5.063  0.0787  0.2335 -0.5609
10794SOL    HW133281   4.560   6.358   5.011  0.1816 -0.1728 -0.2034
10794SOL    HW233282   4.482   6.482   5.082 -0.3088  0.5342 -1.9181
10795SOL     OW33283   3.318   1.758   5.144  0.4013 -0.1480  0.3673
10795SOL    HW133284   3.385   1.739   5.215  3.0701  1.6981 -1.4496
10795SOL    HW233285   3.323   1.855   5.118 -1.6343 -0.3732 -1.2054
10796SOL     OW33286   4.998   4.874   1.568 -0.4015 -0.2744 -0.4625
10796SOL    HW133287   4.970   4.854   1.662  2.2028  1.0430  0.7042
10796SOL    HW233288   5.035   4.791   1.526  1.2280 -0.2671  0.8216
10797SOL     OW33289   5.791   3.454   2.829  0.2767 -0.5914 -0.0238
10797SOL    HW133290   5.823   3.375   2.880 -0.9602 -1.9489 -1.2482
10797SOL    HW233291   5.801   3.437   2.731  1.1020  1.2843 -0.3186
10798SOL     OW33292   2.722   1.097   1.037 -0.1769 -0.3632 -0.1277
10798SOL    HW133293   2.687   1.036   0.965  0.1846 -0.5347 -0.1598
10798SOL    HW233294   2.741   1.187   0.998  2.3221 -1.1057 -0.8435
10799SOL     OW33295   3.410   3.682   4.962  0.5061 -0.0882  0.3704
10799SOL    HW133296   3.374   3.602   4.913  0.6025  0.8538 -1.3143
10799SOL    HW233297   3.440   3.750   4.895  1.2211  1.0066  1.7803
10800SOL     OW33298   4.527   6.972   0.028  0.4328 -0.0240 -0.0229
10800SOL    HW133299   4.565   6.906   0.093  0.9040 -0.7850 -1.0424
10800SOL    HW233300   4.522   7.062   0.071 -0.9062 -0.8390  1.6381
10801SOL     OW33301   0.738   0.999   2.722 -0.2852 -0.0546  0.0264
10801SOL    HW133302   0.831   0.989   2.755 -0.3451 -0.4621  0.0686
10801SOL    HW233303   0.721   0.934   2.648 -0.6869 -0.3052  0.3361
10802SOL     OW33304   6.178   1.104   5.201 -0.3695 -0.2641 -0.8648
10802SOL    HW133305   6.119   1.108   5.281 -1.1310  2.2283 -1.4970
10802SOL    HW233306   6.175   1.191   5.151  1.1457 -1.2569 -2.8587
10803SOL     OW33307   2.495   5.668   3.046  0.1950 -0.0090  0.2901
10803SOL    HW133308   2.537   5.577   3.043  2.1971  0.7339  2.4749
10803SOL    HW233309   2.561   5.736   3.015 -0.2568  0.9467  1.3429
10804SOL     OW33310   4.688   5.234   5.996 -0.6842  0.0310  0.9421
10804SOL    HW133311   4.609   5.247   5.936 -1.3587  1.1421  2.0419
10804SOL    HW233312   4.662   5.251   6.091  0.9741  0.8866  1.2782
10805SOL     OW33313   2.935   1.432   1.707  0.1323  0.2141  0.0115
10805SOL    HW133314   2.883   1.383   1.637 -1.0776  0.8398  0.4405
10805SOL    HW233315   2.931   1.530   1.689 -1.6193  0.5423  1.8289
10806SOL     OW33316   4.316   2.168   5.079 -0.1438 -0.4183  0.3734
10806SOL    HW133317   4.258   2.246   5.057  0.4141 -0.6122 -2.0827
10806SOL    HW233318   4.260   2.088   5.099 -0.7253 -0.1864 -0.3151
10807SOL     OW33319   2.246   3.828   6.358 -0.7256 -0.2546  0.1770
10807SOL    HW133320   2.206   3.832   6.449 -0.8039 -1.0162  0.1834
10807SOL    HW233321   2.190   3.770   6.299  0.3254 -1.3085  0.1724
10808SOL     OW33322   1.719   1.231   4.951  0.4378 -0.2241 -0.7292
10808SOL    HW133323   1.769   1.146   4.967  1.3647  0.3929 -0.2525
10808SOL    HW233324   1.656   1.219   4.874 -1.6068 -2.2327  1.1382
10809SOL     OW33325   2.384   4.207   0.820 -0.4022 -0.1170 -0.1142
10809SOL    HW133326   2.421   4.295   0.851 -0.6143  0.5702 -1.7382
10809SOL    HW233327   2.452   4.136   0.835  0.0528  0.4348  0.5455
10810SOL     OW33328   3.342   6.272   3.920  0.7198 -0.2410 -0.3237
10810SOL    HW133329   3.325   6.176   3.943 -0.6495  0.7728  3.9067
10810SOL    HW233330   3.437   6.295   3.940 -0.0294  0.1885  3.6245
10811SOL     OW33331   4.662   1.831   5.647 -0.3224  0.2477  0.2699
10811SOL    HW133332   4.684   1.908   5.587 -2.3070  1.1174  0.5761
10811SOL    HW233333   4.740   1.813   5.707  0.9235  0.6998 -1.1308
10812SOL     OW33334   0.714   1.134   3.821 -0.0046  0.2553 -0.2871
10812SOL    HW133335   0.645   1.098   3.883 -0.0903  1.1716  0.1723
10812SOL    HW233336   0.707   1.088   3.733 -0.4199 -0.4865  0.1245
10813SOL     OW33337   4.003   0.758   0.685  0.6818 -0.5134  0.0657
10813SOL    HW133338   3.949   0.747   0.768  0.3097 -2.2352 -0.3599
10813SOL    HW233339   4.099   0.770   0.708  0.3373  1.1120  0.7813
10814SOL     OW33340   1.958   3.685   5.914  0.4699  0.1942 -0.4595
10814SOL    HW133341   2.031   3.752   5.927 -0.1632  0.4495  2.5052
10814SOL    HW233342   1.981   3.625   5.837  2.2923  2.1519 -1.5426
10815SOL     OW33343   0.300   1.119   1.338  0.0275  0.0327 -0.7336
10815SOL    HW133344   0.214   1.069   1.353  0.8333 -0.5684  2.9960
10815SOL    HW233345   0.372   1.054   1.314  0.4440 -0.2892  1.2083
10816SOL     OW33346   4.274   1.525   3.427  1.4418 -0.6189  0.1914
10816SOL    HW133347   4.259   1.443   3.372  2.1342 -0.8162  0.2794
10816SOL    HW233348   4.241   1.605   3.377 -1.0559 -1.1280  0.9248
10817SOL     OW33349   6.387   6.885   6.940  0.3545  0.0491  0.6819
10817SOL    HW133350   6.438   6.909   7.023  0.3278  0.0425  0.7005
10817SOL    HW233351   6.381   6.785   6.932  1.2108  0.0334  0.1488
10818SOL     OW33352   3.400   3.941   2.810  0.1004  0.2467 -0.6084
10818SOL    HW133353   3.372   3.876   2.880  2.3899 -0.5025 -0.2975
10818SOL    HW233354   3.375   3.905   2.720  0.2117 -0.4659 -0.3632
10819SOL     OW33355   5.888   6.947   1.077 -0.4825  0.5456 -0.2157
10819SOL    HW133356   5.853   6.956   1.170 -1.9997  0.3275 -0.7503
10819SOL    HW233357   5.824   6.894   1.022  1.2924 -1.0075 -0.9054
10820SOL     OW33358   5.912   4.192   2.223 -0.1705  0.2638 -0.6449
10820SOL    HW133359   5.963   4.209   2.308  0.9199 -2.1355 -0.7196
10820SOL    HW233360   5.941   4.257   2.153  1.3371  0.2448 -0.0793
10821SOL     OW33361   3.065   0.363   0.107 -0.1273  0.0148  0.2849
10821SOL    HW133362   3.039   0.339   0.200  1.8768  0.0452  0.9037
10821SOL    HW233363   3.015   0.305   0.042 -1.3390 -0.1996  1.3727
10822SOL     OW33364   6.481   4.069   2.964  0.8717  0.0789  0.3960
10822SOL    HW133365   6.480   4.148   2.903  0.7978  0.5424  0.9858
10822SOL    HW233366   6.455   4.098   3.056 -1.1365 -0.9885  0.2102
10823SOL     OW33367   0.977   6.292   5.774 -0.2646 -0.0666 -0.0806
10823SOL    HW133368   1.068   6.319   5.741  0.0229 -1.2055 -0.2777
10823SOL    HW233369   0.910   6.308   5.702 -0.1608  0.4070 -0.0769
10824SOL     OW33370   3.796   3.748   2.726  0.7580  0.4910 -0.3047
10824SOL    HW133371   3.775   3.846   2.734  2.1118  0.9345 -1.5189
10824SOL    HW233372   3.719   3.701   2.682  0.1704  1.0496  0.1075
10825SOL     OW33373   4.522   2.615   5.477 -0.1163  0.0108 -0.1447
10825SOL    HW133374   4.482   2.537   5.428 -0.5123  0.3315 -0.3427
10825SOL    HW233375   4.610   2.638   5.436 -1.4019  1.6681 -2.2106
10826SOL     OW33376   4.118   0.003   4.547 -0.4775 -0.1707 -0.0933
10826SOL    HW133377   4.165   0.088   4.572  0.2700 -0.3109 -0.9393
10826SOL    HW233378   4.182  -0.056   4.497 -1.5665 -0.3698 -1.2912
10827SOL     OW33379   5.030   2.490   5.778  0.1424 -0.1035  0.7639
10827SOL    HW133380   4.985   2.520   5.694  1.4097 -1.1119 -0.2987
10827SOL    HW233381   5.051   2.393   5.772  0.0393 -0.2462  2.3608
10828SOL     OW33382   3.470   5.559   5.957 -0.0319 -0.0881  0.2497
10828SOL    HW133383   3.452   5.493   5.885 -0.8591 -1.5840  1.7688
10828SOL    HW233384   3.502   5.512   6.039  1.0504  1.5767  0.8524
10829SOL     OW33385   2.529   2.192   4.865  0.2638  0.0578  0.2847
10829SOL    HW133386   2.558   2.146   4.949  0.4227  2.1667  1.4522
10829SOL    HW233387   2.440   2.157   4.837  0.6759 -1.4025  0.7351
10830SOL     OW33388   2.194   5.581   2.980 -0.1176  0.3735  0.1663
10830SOL    HW133389   2.099   5.560   2.958 -1.0157  3.0932  0.9436
10830SOL    HW233390   2.231   5.644   2.912  0.1796  1.4946  1.3190
10831SOL     OW33391   6.625   3.019   6.426 -0.2740 -0.4663 -0.2850
10831SOL    HW133392   6.585   3.088   6.487 -2.4161 -1.2135 -0.7443
10831SOL    HW233393   6.652   3.062   6.340  0.8161  0.2164  0.3732
10832SOL     OW33394   3.122   0.836   4.248  0.6163  0.1528 -0.5358
10832SOL    HW133395   3.035   0.810   4.206  1.6144 -0.1869 -2.5016
10832SOL    HW233396   3.107   0.910   4.313 -0.9331  1.1355 -1.9577
10833SOL     OW33397   2.080   1.229   4.438 -0.2157  0.1392  0.3744
10833SOL    HW133398   2.027   1.148   4.461 -0.6700  0.3309  0.0270
10833SOL    HW233399   2.176   1.213   4.459 -0.6303  0.4378  2.7265
10834SOL     OW33400   2.665   6.788   0.650  0.0341  0.1490 -0.1893
10834SOL    HW133401   2.644   6.707   0.594  1.7706 -0.2337 -0.3554
10834SOL    HW233402   2.715   6.759   0.732 -0.9608  0.8935  0.7058
10835SOL     OW33403   1.323   2.856   3.260  0.2681 -0.4875 -0.0968
10835SOL    HW133404   1.360   2.944   3.291  0.0479 -0.3955 -0.0927
10835SOL    HW233405   1.337   2.787   3.331 -0.3933 -0.2359  0.2854
10836SOL     OW33406   0.329   6.755   4.551 -0.6103 -0.3428  0.5161
10836SOL    HW133407   0.428   6.764   4.557 -0.4898 -0.4963 -0.8678
10836SOL    HW233408   0.303   6.738   4.456 -2.0708  1.0403  0.6184
10837SOL     OW33409   0.765   5.924   5.624 -0.2264  0.4606 -0.4403
10837SOL    HW133410   0.818   5.921   5.709  0.6852 -2.3355 -0.9926
10837SOL    HW233411   0.805   5.991   5.562  0.1367  1.3018  0.6639
10838SOL     OW33412   6.732   1.492   3.238 -0.5979  0.0660  0.0513
10838SOL    HW133413   6.663   1.488   3.310 -0.3730  1.3611  0.3727
10838SOL    HW233414   6.822   1.475   3.277 -0.4542  0.9521  0.1325
10839SOL     OW33415   4.830   1.563   0.297 -0.4703  0.3828 -0.0876
10839SOL    HW133416   4.892   1.497   0.340  0.8864  0.7319 -1.4050
10839SOL    HW233417   4.758   1.589   0.362 -1.4860 -2.8769  0.2812
10840SOL     OW33418   2.492   0.105   0.220  0.0765 -0.0781  0.8495
10840SOL    HW133419   2.562   0.160   0.174  0.8616  0.0426  2.1187
10840SOL    HW233420   2.419   0.083   0.156  1.2373 -0.1387 -0.5174
10841SOL     OW33421   0.701   3.299   0.061 -0.1096  0.2678  0.6756
10841SOL    HW133422   0.668   3.384   0.102 -0.4281 -0.4215  1.8847
10841SOL    HW233423   0.624   3.251   0.019 -0.1003  0.1224  0.8245
10842SOL     OW33424   4.134   5.905   2.707  0.1897  0.1848  0.0260
10842SOL    HW133425   4.076   5.924   2.786 -0.1636  0.4918 -0.3020
10842SOL    HW233426   4.085   5.844   2.644  0.2593  0.3738 -0.2112
10843SOL     OW33427   6.023   3.213   1.245  0.2697  0.2979 -0.6464
10843SOL    HW133428   6.080   3.290   1.275  4.1182 -2.2854 -0.5841
10843SOL    HW233429   6.025   3.207   1.145 -0.1903  0.3933 -0.6614
10844SOL     OW33430   0.636   6.768   1.171  0.4079  0.1481  0.1054
10844SOL    HW133431   0.682   6.831   1.235  0.8640 -0.6404  0.5704
10844SOL    HW233432   0.694   6.755   1.091  0.4155  0.1437  0.1117
10845SOL     OW33433   4.918   3.822   0.587  0.2211 -0.2514 -0.1841
10845SOL    HW133434   4.866   3.853   0.507  1.0770 -0.7282 -0.9385
10845SOL    HW233435   4.896   3.726   0.606 -0.1483 -0.0777  0.3060
10846SOL     OW33436   4.125   0.672   3.146 -0.2802  0.2282  0.0553
10846SOL    HW133437   4.096   0.600   3.082 -3.9802  0.7091  0.9835
10846SOL    HW233438   4.140   0.757   3.095  1.8662 -0.5318 -0.7259
10847SOL     OW33439   2.219   1.089   1.859 -0.6983 -0.3564 -0.3916
10847SOL    HW133440   2.253   1.112   1.768 -1.5396 -0.7377 -0.8167
10847SOL    HW233441   2.155   1.160   1.889 -1.3972 -0.8679 -0.6497
10848SOL     OW33442   5.125   2.230   3.039  0.2838 -0.5038 -0.5799
10848SOL    HW133443   5.153   2.265   3.129 -0.8020  2.0350 -1.1477
10848SOL    HW233444   5.035   2.187   3.047  0.4143 -0.7447 -0.3760
10849SOL     OW33445   5.616   3.763   4.417  0.1040 -0.6741  0.3222
10849SOL    HW133446   5.612   3.702   4.495 -0.9048 -0.3688  0.5313
10849SOL    HW233447   5.697   3.743   4.362  1.7573  0.1670  2.2923
10850SOL     OW33448   4.495   1.222   6.007  0.1433 -0.2930  0.2436
10850SOL    HW133449   4.551   1.193   6.085  0.1167  0.8440  0.7098
10850SOL    HW233450   4.490   1.322   6.005 -1.2098 -0.3467 -0.2658
10851SOL     OW33451   4.218   1.754   2.652  0.1101 -0.3996  0.4148
10851SOL    HW133452   4.223   1.827   2.585  2.7927  0.5096  1.4622
10851SOL    HW233453   4.216   1.792   2.744 -0.6940 -1.6412  0.9455
10852SOL     OW33454   1.814   2.356   4.453  0.0983 -0.0906 -0.3548
10852SOL    HW133455   1.880   2.432   4.453  1.1798 -1.0083 -0.2767
10852SOL    HW233456   1.742   2.374   4.386 -0.6495  1.8289  0.8763
10853SOL     OW33457   5.035   0.556   6.595 -0.2642  0.2392 -0.4002
10853SOL    HW133458   5.050   0.503   6.678 -1.9151  0.3489  0.0011
10853SOL    HW233459   5.049   0.653   6.614  1.1704  0.1173 -0.7339
10854SOL     OW33460   0.873   6.909   4.793 -0.6747 -0.5508 -0.0515
10854SOL    HW133461   0.842   6.832   4.849 -1.0238 -0.1413  0.3244
10854SOL    HW233462   0.883   6.879   4.698  0.1828 -1.3206  0.2678
10855SOL     OW33463   4.121   3.520   2.059 -0.7611 -0.0058 -0.2446
10855SOL    HW133464   4.076   3.603   2.025 -1.0231  0.2975  0.7860
10855SOL    HW233465   4.090   3.503   2.153  0.4555 -0.4087  0.0901
10856SOL     OW33466   3.826   5.494   6.111 -0.0181  1.0753 -0.7845
10856SOL    HW133467   3.918   5.533   6.117  0.7015 -0.6354  0.2239
10856SOL    HW233468   3.795   5.467   6.203 -0.4767 -0.6182 -1.3937
10857SOL     OW33469   1.688   4.296   6.867 -0.1304  0.1662 -0.1315
10857SOL    HW133470   1.755   4.354   6.820  0.1608  0.7235  0.9350
10857SOL    HW233471   1.735   4.226   6.921 -0.3887  0.5827  0.6536
10858SOL     OW33472   5.217   3.624   3.696  0.0238 -0.0082  0.2106
10858SOL    HW133473   5.294   3.680   3.664  1.3465 -2.0141 -0.3387
10858SOL    HW233474   5.243   3.527   3.693 -0.9512 -0.5841  4.2556
10859SOL     OW33475   4.499   5.618   5.708  0.0775  0.1709  0.6248
10859SOL    HW133476   4.544   5.585   5.790  0.0636 -0.3991  0.4105
10859SOL    HW233477   4.400   5.622   5.723 -0.2434 -2.4398 -0.1394
10860SOL     OW33478   5.781   5.728   5.657 -0.5880  0.0684 -0.3554
10860SOL    HW133479   5.847   5.783   5.605 -2.0587  1.2241 -1.0838
10860SOL    HW233480   5.785   5.754   5.754  0.8531 -0.7575 -0.1626
10861SOL     OW33481   1.197   4.441   4.207 -0.1860 -0.4408  0.2037
10861SOL    HW133482   1.209   4.341   4.208 -1.3298 -0.5980 -0.2540
10861SOL    HW233483   1.276   4.484   4.250  0.9056 -1.4882 -0.6829
10862SOL     OW33484   1.495   6.864   3.121  0.7457  0.1236 -0.3036
10862SOL    HW133485   1.489   6.885   3.219 -2.1461  1.3725 -0.6327
10862SOL    HW233486   1.587   6.885   3.089  1.1255  1.9714  1.7026
10863SOL     OW33487   6.612   0.095   3.953  0.4871 -0.0274 -0.4779
10863SOL    HW133488   6.587   0.123   4.046  1.6896  2.1342 -0.7574
10863SOL    HW233489   6.658   0.170   3.906  0.3464 -1.2383 -2.6867
10864SOL     OW33490   1.435   6.706   1.847  0.2476  0.0229 -0.0657
10864SOL    HW133491   1.448   6.634   1.915 -2.0861 -0.6152 -0.1983
10864SOL    HW233492   1.376   6.673   1.774  0.8080  1.4405 -1.2094
10865SOL     OW33493   1.221   6.151   3.324  0.5379  0.0755 -0.3398
10865SOL    HW133494   1.203   6.157   3.423 -0.6355  0.0765 -0.5394
10865SOL    HW233495   1.319   6.142   3.309  0.8963  1.7120  0.7475
10866SOL     OW33496   3.647   2.315   0.659 -0.2050 -0.1641 -0.3471
10866SOL    HW133497   3.687   2.397   0.618 -0.5928 -0.0804 -0.5654
10866SOL    HW233498   3.662   2.316   0.757  0.5248 -0.2449 -0.4501
10867SOL     OW33499   5.005   1.648   3.376 -0.1585 -0.2445 -0.0789
10867SOL    HW133500   4.922   1.612   3.419  0.7667 -1.4299  0.7298
10867SOL    HW233501   5.061   1.573   3.343  0.8450  0.5357 -0.1818
10868SOL     OW33502   2.740   2.371   4.792  0.7246 -0.6984  0.3097
10868SOL    HW133503   2.657   2.317   4.805  1.1068 -1.6834 -1.2027
10868SOL    HW233504   2.718   2.468   4.805 -0.0894 -1.1101  2.4872
10869NA      NA33505   6.681   2.545   5.342 -0.2342  0.4671  0.5676
10870NA      NA33506   4.827   5.662   0.880  0.2421  0.4646  0.3569
10871NA      NA33507   5.262   2.925   4.705 -0.3378  0.4792 -0.6561
10872NA      NA33508   2.009   3.807   2.039  0.1386  0.0089  0.2231
10873NA      NA33509   2.147   2.699   6.208  0.3380  0.1100 -0.5560
10874NA      NA33510   3.131   3.890   5.128  0.7708  0.2825 -0.8029
10875NA      NA33511   3.431   6.183   1.212  0.1461 -0.0105  0.1436
10876NA      NA33512   4.658   4.453   1.485 -0.3688  0.1159  0.2562
10877NA      NA33513   0.855   6.328   5.089  0.2218 -0.5894  0.3201
10878NA      NA33514   2.353   2.587   1.339  0.2061 -0.4842 -0.2766
10879NA      NA33515   4.409   4.637   5.192  0.1913  0.6524 -0.0445
10880NA      NA33516   5.299   2.063   2.393 -0.0778  0.4971  0.2290
10881NA      NA33517   4.169   3.182   1.771 -0.4496  0.0804 -0.1396
10882NA      NA33518   4.143   5.421   4.521 -0.5588  0.4672 -0.1617
   7.01232   7.01232   7.01232
