CNT in water
33518
    1C        C    1   2.842   2.771   4.745 -0.2058  0.3657 -0.2289
    1C        C    2   2.894   2.716   4.864  0.2245  0.2730 -0.4533
    1C        C    3   2.835   2.768   4.980 -0.0590  0.1735 -0.5517
    1C        C    4   2.847   2.774   4.258 -0.3790 -0.2614 -0.5616
    1C        C    5   2.899   2.723   4.379  0.1133  0.2295 -0.5530
    1C        C    6   2.844   2.770   4.501  0.6981  0.3745 -0.3371
    1C        C    7   3.018   2.651   4.624 -0.1619 -0.0832  0.1874
    1C        C    8   2.901   2.729   4.624  0.1459  0.3846 -0.0696
    1C        C    9   3.074   2.608   4.746 -0.1147  0.4795  0.3683
    1C        C   10   3.005   2.629   4.867 -0.3324 -0.4305  0.4135
    1C        C   11   3.178   2.495   4.974  0.0797  0.5683  0.0446
    1C        C   12   3.056   2.563   4.979 -0.2074  0.0218  0.6249
    1C        C   13   2.851   2.769   3.771 -0.0398 -0.2064 -0.0615
    1C        C   14   2.900   2.724   3.895 -0.1720 -0.2946 -0.0377
    1C        C   15   2.844   2.771   4.016 -0.0404 -0.0414 -0.0699
    1C        C   16   3.024   2.656   4.135  0.2763 -0.2139 -0.0133
    1C        C   17   2.906   2.733   4.137  0.2116 -0.2973 -0.2729
    1C        C   18   3.080   2.614   4.258  0.0245  0.0152  0.1885
    1C        C   19   3.018   2.647   4.380  0.3696  0.6155  0.2090
    1C        C   20   3.210   2.560   4.501 -0.0047 -0.2049  0.0006
    1C        C   21   3.080   2.614   4.502  0.3036  0.5421  0.2277
    1C        C   22   3.278   2.540   4.623  0.1269 -0.2145 -0.0714
    1C        C   23   3.206   2.555   4.743 -0.2064  0.2714 -0.3248
    1C        C   24   3.408   2.482   4.863 -0.4123 -0.3219  0.0773
    1C        C   25   3.268   2.511   4.864 -0.2053  0.7014 -0.1676
    1C        C   26   3.487   2.476   4.979 -0.1247 -0.6102 -0.1297
    1C        C   27   2.851   2.769   3.282  0.5096  0.2952 -0.0324
    1C        C   28   2.909   2.730   3.405 -0.1950 -0.0465  0.1986
    1C        C   29   2.851   2.771   3.527  0.5194  0.5323  0.3491
    1C        C   30   3.021   2.643   3.648  0.0169 -0.7662 -0.1324
    1C        C   31   2.907   2.726   3.649  0.5758  0.0116  0.1361
    1C        C   32   3.077   2.605   3.772  0.2387 -0.5182 -0.1526
    1C        C   33   3.011   2.637   3.893  0.1742  0.1448 -0.3506
    1C        C   34   3.209   2.555   4.012  0.0032 -0.1421 -0.3153
    1C        C   35   3.079   2.610   4.014  0.2990  0.5854 -0.3162
    1C        C   36   3.275   2.529   4.134 -0.3721 -1.0826 -0.3003
    1C        C   37   3.210   2.557   4.256  0.0177 -0.0046 -0.3197
    1C        C   38   3.417   2.514   4.380 -0.2766 -0.1281  0.3808
    1C        C   39   3.279   2.545   4.379 -0.1741  0.3450 -0.1683
    1C        C   40   3.488   2.513   4.502 -0.0390  0.0185  0.2487
    1C        C   41   3.417   2.517   4.624  0.1459 -0.1084  0.3643
    1C        C   42   3.627   2.487   4.741  0.0413 -0.0281  0.1186
    1C        C   43   3.485   2.490   4.745  0.0325 -0.4636  0.3520
    1C        C   44   3.703   2.491   4.860 -0.1447  0.1893  0.2333
    1C        C   45   3.625   2.470   4.975 -0.0794  0.0274  0.2502
    1C        C   46   2.835   2.750   2.793 -0.3682 -0.7608  0.0400
    1C        C   47   2.895   2.714   2.915 -0.3765 -0.5859  0.0944
    1C        C   48   2.840   2.757   3.038  0.2171  0.1068  0.1256
    1C        C   49   3.019   2.642   3.159  0.1461 -0.3197 -0.1944
    1C        C   50   2.902   2.722   3.160  0.0552 -0.4496  0.0545
    1C        C   51   3.081   2.609   3.281 -0.0397 -0.1642 -0.0534
    1C        C   52   3.023   2.647   3.404  0.3019  0.6258 -0.1243
    1C        C   53   3.214   2.556   3.523  0.1002 -0.1425 -0.1747
    1C        C   54   3.083   2.609   3.526  0.0434 -0.2688 -0.2609
    1C        C   55   3.277   2.529   3.647  0.1515 -0.1313 -0.1942
    1C        C   56   3.207   2.551   3.767  0.0009 -1.1114 -0.0888
    1C        C   57   3.417   2.520   3.892  0.3037 -0.1035  0.2929
    1C        C   58   3.277   2.541   3.890  0.3242  0.0154 -0.1634
    1C        C   59   3.487   2.507   4.014  0.1556 -0.4842  0.3466
    1C        C   60   3.414   2.506   4.135 -0.3059 -0.7233  0.0750
    1C        C   61   3.626   2.513   4.258 -0.5188  0.1430  0.3942
    1C        C   62   3.485   2.505   4.257 -0.5198  0.0901  0.2218
    1C        C   63   3.701   2.512   4.378 -0.0628 -0.0192  0.1189
    1C        C   64   3.629   2.508   4.500 -0.0329  0.1093  0.1462
    1C        C   65   3.836   2.540   4.622 -0.0736  0.3966 -0.1310
    1C        C   66   3.701   2.500   4.621  0.0260  0.0373  0.1122
    1C        C   67   3.904   2.559   4.744 -0.3539  0.8478 -0.0371
    1C        C   68   3.840   2.522   4.865 -0.1218  0.1595 -0.1187
    1C        C   69   4.048   2.584   4.974 -0.0991 -0.0339  0.4225
    1C        C   70   3.922   2.523   4.979 -0.1329 -0.0137 -0.1046
    1C        C   71   2.824   2.734   2.309  0.0548 -0.2467 -0.0487
    1C        C   72   2.880   2.693   2.432  0.0827  0.3401  0.1337
    1C        C   73   2.823   2.742   2.551  0.1278 -0.2870  0.4157
    1C        C   74   3.007   2.627   2.673  0.0026 -0.9255 -0.2496
    1C        C   75   2.891   2.708   2.670  0.5275 -0.1383  0.2287
    1C        C   76   3.074   2.600   2.794 -0.0312 -0.0753 -0.0294
    1C        C   77   3.016   2.642   2.915 -0.1863 -0.2670 -0.0362
    1C        C   78   3.210   2.554   3.036  0.0562 -0.5699 -0.0075
    1C        C   79   3.080   2.608   3.037  0.2578 -0.0710 -0.2103
    1C        C   80   3.277   2.525   3.157 -0.1253 -0.5378  0.1031
    1C        C   81   3.208   2.548   3.278 -0.0402 -0.1784  0.0895
    1C        C   82   3.415   2.502   3.403  0.1246 -1.0576  0.3029
    1C        C   83   3.277   2.528   3.400  0.3098 -0.0730 -0.0864
    1C        C   84   3.487   2.494   3.525  0.1900 -1.1327  0.2633
    1C        C   85   3.416   2.505   3.647  0.2071  0.1626  0.1761
    1C        C   86   3.626   2.502   3.770  0.2286 -0.8744  0.3877
    1C        C   87   3.484   2.501   3.770  0.2042  0.1940  0.1843
    1C        C   88   3.700   2.508   3.890  0.5957 -0.7357  0.1619
    1C        C   89   3.629   2.509   4.012  0.1582 -0.6244 -0.0842
    1C        C   90   3.833   2.555   4.137 -0.4835 -0.8528  0.3807
    1C        C   91   3.696   2.520   4.136 -0.5664 -0.5584  0.3186
    1C        C   92   3.905   2.570   4.257  0.3010 -0.4221 -0.1285
    1C        C   93   3.839   2.540   4.378  0.0299 -0.4392 -0.2723
    1C        C   94   4.027   2.633   4.497 -0.1638  0.0603  0.2780
    1C        C   95   3.905   2.562   4.500 -0.1293 -0.0417 -0.2493
    1C        C   96   4.084   2.676   4.619 -0.1824  0.1162  0.2738
    1C        C   97   4.029   2.626   4.739  0.2436 -0.1954  0.3517
    1C        C   98   4.187   2.767   4.859 -0.0854 -0.0341 -0.1551
    1C        C   99   4.095   2.658   4.861  0.3171 -0.3773  0.3638
    1C        C  100   4.213   2.845   4.973 -0.3644  0.3702 -0.3622
    1C        C  101   2.819   2.730   2.072 -0.2402  0.2862  0.2520
    1C        C  102   2.988   2.588   2.190 -0.1826 -0.4937  0.0620
    1C        C  103   2.875   2.676   2.189  0.1412 -0.0758 -0.0943
    1C        C  104   3.060   2.574   2.312  0.1133  0.2786 -0.0207
    1C        C  105   2.998   2.616   2.432 -0.1110  0.0433 -0.0558
    1C        C  106   3.201   2.542   2.551  0.0915 -0.5831 -0.2667
    1C        C  107   3.069   2.593   2.551  0.0479 -0.6979 -0.2886
    1C        C  108   3.270   2.520   2.672 -0.0203 -0.3571 -0.1611
    1C        C  109   3.203   2.541   2.794 -0.0398 -0.0957 -0.2169
    1C        C  110   3.412   2.490   2.915 -0.1770 -1.0101  0.4957
    1C        C  111   3.274   2.520   2.914  0.0992  0.2939 -0.2307
    1C        C  112   3.484   2.485   3.036  0.1161 -1.1824  0.3172
    1C        C  113   3.416   2.500   3.159 -0.2154 -1.0437  0.1192
    1C        C  114   3.627   2.492   3.279 -0.1862 -0.8174  0.0713
    1C        C  115   3.486   2.495   3.281 -0.1898 -0.9176  0.1110
    1C        C  116   3.697   2.503   3.401 -0.0391 -0.2875 -0.0552
    1C        C  117   3.628   2.497   3.524  0.1937 -1.2016  0.0410
    1C        C  118   3.833   2.538   3.646 -0.3376  0.0300 -0.2033
    1C        C  119   3.696   2.506   3.648 -0.0916 -1.0630  0.1917
    1C        C  120   3.902   2.564   3.766 -0.0534 -0.6347 -0.2158
    1C        C  121   3.835   2.549   3.889  0.4436 -0.2077  0.1204
    1C        C  122   4.026   2.633   4.012 -0.3284 -0.3816 -0.1582
    1C        C  123   3.897   2.576   4.013 -0.0284 -1.0863  0.5649
    1C        C  124   4.096   2.661   4.131 -0.2950 -0.0515 -0.2433
    1C        C  125   4.034   2.628   4.254  0.0841  0.0905 -0.0022
    1C        C  126   4.205   2.753   4.375 -0.3603  0.1853 -0.1377
    1C        C  127   4.090   2.670   4.376 -0.4862  0.3461  0.1862
    1C        C  128   4.253   2.807   4.496 -0.4573  0.4052 -0.1892
    1C        C  129   4.193   2.766   4.617 -0.5962  0.6232 -0.1775
    1C        C  130   4.323   2.935   4.738 -0.4139  0.1775 -0.1035
    1C        C  131   4.244   2.817   4.738  0.1300 -0.1946 -0.1236
    1C        C  132   4.345   3.009   4.856 -0.2966  0.1275 -0.0905
    1C        C  133   4.276   2.969   4.971 -0.0102  0.2027  0.1083
    1C        C  134   3.173   2.470   2.082 -0.0300 -0.5428 -0.1255
    1C        C  135   3.039   2.510   2.082 -0.0314 -0.5442  0.1703
    1C        C  136   3.257   2.485   2.194 -0.2148 -0.2388 -0.0274
    1C        C  137   3.194   2.526   2.313 -0.0441 -0.1565  0.0342
    1C        C  138   3.407   2.482   2.428  0.3375 -0.1618 -0.1728
    1C        C  139   3.270   2.516   2.431  0.2462 -0.5375 -0.1864
    1C        C  140   3.480   2.479   2.549 -0.2923 -1.0463  0.1934
    1C        C  141   3.409   2.493   2.670 -0.0315 -0.4518  0.2802
    1C        C  142   3.621   2.484   2.792 -0.3897 -0.6557  0.0641
    1C        C  143   3.480   2.480   2.791 -0.3757 -1.2171  0.4017
    1C        C  144   3.695   2.494   2.912 -0.1979 -0.6773 -0.0519
    1C        C  145   3.624   2.498   3.034  0.0501 -0.4858  0.0850
    1C        C  146   3.833   2.531   3.157  0.1520 -1.5102 -0.0543
    1C        C  147   3.696   2.498   3.156 -0.0571 -0.6558  0.1496
    1C        C  148   3.903   2.553   3.277  0.2497 -0.6486 -0.2636
    1C        C  149   3.835   2.532   3.399  0.0514 -0.7118 -0.3822
    1C        C  150   4.022   2.627   3.522 -0.6915  0.3596  0.3943
    1C        C  151   3.899   2.557   3.522 -0.3355 -0.2947 -0.2569
    1C        C  152   4.085   2.665   3.642  0.0204  0.3077  0.0504
    1C        C  153   4.026   2.633   3.766 -0.3118 -0.1538 -0.2207
    1C        C  154   4.197   2.756   3.887 -0.9164  0.5144 -0.0055
    1C        C  155   4.083   2.672   3.889 -0.5410 -0.0148 -0.1512
    1C        C  156   4.256   2.796   4.009 -0.6850  0.1977 -0.0049
    1C        C  157   4.209   2.745   4.132 -0.1926 -0.1763  0.0415
    1C        C  158   4.334   2.917   4.249  0.5196 -0.0849 -0.0554
    1C        C  159   4.259   2.798   4.253 -0.6131  0.6036 -0.1074
    1C        C  160   4.371   2.980   4.370  0.1083 -0.1002  0.0884
    1C        C  161   4.333   2.923   4.494 -0.0313  0.1313  0.1571
    1C        C  162   4.443   3.107   4.610  0.0236  0.2620  0.1204
    1C        C  163   4.367   2.989   4.615  0.1777  0.1574  0.0906
    1C        C  164   4.472   3.177   4.729  0.0968 -0.0142  0.2660
    1C        C  165   4.428   3.123   4.852  0.0545 -0.1133  0.2091
    1C        C  166   4.517   3.315   4.964 -0.1042 -0.0542 -0.0963
    1C        C  167   4.472   3.183   4.970 -0.2691  0.0171  0.2643
    1C        C  168   3.472   2.428   2.075 -0.1164 -0.5100 -0.3968
    1C        C  169   3.396   2.459   2.188 -0.2042 -0.0807 -0.5705
    1C        C  170   3.616   2.473   2.307 -0.3767  0.4022  0.0965
    1C        C  171   3.475   2.460   2.306 -0.3072 -0.3289 -0.5007
    1C        C  172   3.692   2.481   2.425 -0.3573 -0.7443  0.1682
    1C        C  173   3.621   2.481   2.547 -0.2902 -1.2949  0.2080
    1C        C  174   3.827   2.529   2.668 -0.4785  0.1436  0.0434
    1C        C  175   3.691   2.494   2.669 -0.2643 -0.6979  0.1333
    1C        C  176   3.897   2.551   2.789 -0.2493  0.1196 -0.0857
    1C        C  177   3.833   2.523   2.912 -0.3350 -0.0181 -0.1633
    1C        C  178   4.022   2.618   3.031 -0.4093 -0.3552 -0.0214
    1C        C  179   3.900   2.547   3.033 -0.0954 -0.9081 -0.1100
    1C        C  180   4.082   2.658   3.153 -0.5117  0.1190 -0.1216
    1C        C  181   4.024   2.626   3.278 -0.0647 -0.1184  0.0283
    1C        C  182   4.197   2.747   3.397 -0.9699  0.4463  0.1197
    1C        C  183   4.082   2.666   3.400 -0.8970  0.3424  0.2823
    1C        C  184   4.250   2.795   3.519 -0.5921  0.4670 -0.0447
    1C        C  185   4.202   2.744   3.642  0.2111  0.0339  0.1037
    1C        C  186   4.330   2.914   3.764 -0.1763  0.3944 -0.0586
    1C        C  187   4.249   2.799   3.763 -0.7214  0.7622  0.1517
    1C        C  188   4.370   2.975   3.884  0.0347 -0.0671  0.1164
    1C        C  189   4.331   2.915   4.006 -0.7065  0.2221  0.0345
    1C        C  190   4.433   3.104   4.124  0.0368  0.1235 -0.0908
    1C        C  191   4.368   2.979   4.127 -0.3652  0.3211 -0.1099
    1C        C  192   4.454   3.173   4.245 -0.7651  0.0875  0.0856
    1C        C  193   4.429   3.109   4.368 -0.3431  0.1097  0.1923
    1C        C  194   4.504   3.310   4.484 -0.2441  0.2081  0.1514
    1C        C  195   4.465   3.174   4.488  0.2353  0.0636  0.0470
    1C        C  196   4.520   3.382   4.605  0.1647 -0.0152  0.2342
    1C        C  197   4.516   3.312   4.727  0.9769 -0.2893  0.1137
    1C        C  198   4.540   3.531   4.844 -0.2307 -0.0015 -0.0515
    1C        C  199   4.534   3.388   4.846  0.6121 -0.0405  0.0112
    1C        C  200   4.568   3.610   4.959 -0.2976 -0.1238  0.0474
    1C        C  201   3.611   2.417   2.075 -0.1191 -0.5344  0.3036
    1C        C  202   3.826   2.506   2.182 -0.2345 -0.2163  0.2045
    1C        C  203   3.688   2.468   2.184 -0.3270  0.1275  0.1414
    1C        C  204   3.893   2.539   2.303 -0.5282  0.5898  0.1426
    1C        C  205   3.830   2.512   2.426 -0.6334  0.5276  0.0717
    1C        C  206   4.018   2.618   2.541 -0.8890  0.9789 -0.0997
    1C        C  207   3.896   2.548   2.546 -0.5016  0.3147  0.0600
    1C        C  208   4.078   2.655   2.664 -0.7953  0.6226 -0.0418
    1C        C  209   4.020   2.621   2.787 -0.5690  0.6899  0.0821
    1C        C  210   4.192   2.745   2.905 -0.5721  0.3913  0.1354
    1C        C  211   4.083   2.655   2.909 -0.4194  0.2057  0.1391
    1C        C  212   4.246   2.791   3.027 -0.2848  0.1595  0.0978
    1C        C  213   4.194   2.743   3.150 -0.7209  0.4005  0.0097
    1C        C  214   4.334   2.901   3.271 -0.7601  0.3939  0.3153
    1C        C  215   4.249   2.789   3.272 -1.1909  0.7108  0.1118
    1C        C  216   4.369   2.963   3.393 -0.7518  0.6364  0.1965
    1C        C  217   4.335   2.907   3.518 -0.6374  0.5100  0.1785
    1C        C  218   4.424   3.100   3.637 -0.0077  0.4612  0.2655
    1C        C  219   4.370   2.969   3.640  0.1670  0.3737  0.0334
    1C        C  220   4.455   3.167   3.757 -0.0502  0.6497  0.1794
    1C        C  221   4.437   3.100   3.880 -0.6955  0.3353 -0.0690
    1C        C  222   4.494   3.304   3.999 -0.0888  0.1060  0.2873
    1C        C  223   4.464   3.167   4.001  0.3475 -0.0054 -0.0868
    1C        C  224   4.498   3.377   4.120 -0.1791 -0.0490  0.3892
    1C        C  225   4.491   3.309   4.243  0.0249 -0.1131  0.3684
    1C        C  226   4.515   3.523   4.358  0.0615  0.2402 -0.2329
    1C        C  227   4.509   3.382   4.363 -0.2374  0.2646  0.1831
    1C        C  228   4.518   3.594   4.480  0.0882  0.0783 -0.1402
    1C        C  229   4.519   3.523   4.603  0.6309 -0.0162 -0.2000
    1C        C  230   4.489   3.739   4.725  0.0654 -0.1716 -0.1547
    1C        C  231   4.509   3.598   4.722 -0.3672 -0.2328 -0.1429
    1C        C  232   4.486   3.815   4.844 -0.3519 -0.5662  0.0897
    1C        C  233   4.538   3.747   4.955 -0.3029 -0.1161  0.3430
    1C        C  234   4.008   2.612   2.060 -0.3888  0.0603  0.4049
    1C        C  235   3.887   2.545   2.062 -0.5011  0.2615  0.2281
    1C        C  236   4.082   2.640   2.176 -0.0689 -0.0969  0.2360
    1C        C  237   4.021   2.601   2.297  0.1137 -0.7122  0.1332
    1C        C  238   4.190   2.736   2.417 -0.2401  0.1029  0.2685
    1C        C  239   4.077   2.651   2.417 -0.4783  0.4222 -0.0491
    1C        C  240   4.241   2.787   2.539 -0.6142  0.6654  0.1924
    1C        C  241   4.193   2.737   2.662 -0.6160  0.3691  0.0704
    1C        C  242   4.330   2.903   2.781 -0.0969 -0.2084  0.0024
    1C        C  243   4.245   2.790   2.783 -0.1218 -0.1865  0.1088
    1C        C  244   4.367   2.961   2.904 -1.0708  0.5114 -0.0304
    1C        C  245   4.334   2.901   3.027 -0.5658  0.3862  0.0481
    1C        C  246   4.437   3.086   3.148  0.1584 -0.3496 -0.0975
    1C        C  247   4.371   2.961   3.149 -0.1198 -0.2066  0.2096
    1C        C  248   4.441   3.160   3.268  0.7725 -0.0142 -0.3184
    1C        C  249   4.420   3.095   3.391 -0.2097  0.4325 -0.2385
    1C        C  250   4.483   3.299   3.511  0.2260 -0.0951  0.0740
    1C        C  251   4.443   3.163   3.512 -0.2602  0.0407  0.0017
    1C        C  252   4.498   3.370   3.632  0.9223  0.2473 -0.1995
    1C        C  253   4.481   3.306   3.756 -0.1631  0.6766 -0.1052
    1C        C  254   4.511   3.516   3.873 -0.5012  0.0504  0.1670
    1C        C  255   4.502   3.375   3.877  0.1601  0.0037  0.2379
    1C        C  256   4.497   3.588   3.993 -0.6740  0.1778  0.0734
    1C        C  257   4.499   3.518   4.116  0.3650 -0.0616 -0.0736
    1C        C  258   4.483   3.732   4.238  0.3902  0.1453 -0.1988
    1C        C  259   4.508   3.593   4.236  0.9143  0.2379 -0.2935
    1C        C  260   4.465   3.799   4.361 -0.1790 -0.0818 -0.1587
    1C        C  261   4.492   3.733   4.483  0.6198  0.1754 -0.1975
    1C        C  262   4.422   3.937   4.598  0.4115 -0.0356 -0.3978
    1C        C  263   4.473   3.806   4.602  0.4527 -0.0086 -0.1145
    1C        C  264   4.399   4.008   4.718 -0.2251 -0.3837 -0.3110
    1C        C  265   4.435   3.947   4.840  0.1969 -0.3648 -0.4256
    1C        C  266   4.311   4.127   4.953  0.3273  0.1061  0.2480
    1C        C  267   4.394   4.015   4.955 -0.6242 -0.6298 -0.5554
    1C        C  268   4.252   2.778   2.058 -0.2655  0.1225  0.1559
    1C        C  269   4.192   2.728   2.175 -0.4173  0.3335  0.1657
    1C        C  270   4.347   2.880   2.296 -0.5167  0.2960 -0.1654
    1C        C  271   4.246   2.779   2.295 -0.4221  0.1999  0.2218
    1C        C  272   4.379   2.945   2.416 -0.3303  0.1002 -0.1114
    1C        C  273   4.335   2.892   2.539 -0.0039  0.1207  0.0135
    1C        C  274   4.440   3.081   2.659 -0.2923  0.2634  0.0492
    1C        C  275   4.379   2.954   2.658 -0.5238  0.3766  0.0697
    1C        C  276   4.464   3.147   2.781  0.3618  0.0754  0.0302
    1C        C  277   4.441   3.082   2.904 -0.7367  0.3101 -0.0414
    1C        C  278   4.491   3.289   3.023 -0.2138  0.0010 -0.1195
    1C        C  279   4.463   3.151   3.025  0.0001 -0.0414  0.0267
    1C        C  280   4.492   3.363   3.143 -0.2274 -0.0277 -0.0983
    1C        C  281   4.473   3.298   3.267  0.8803 -0.0310  0.0898
    1C        C  282   4.505   3.509   3.387  0.6008  0.0196  0.3995
    1C        C  283   4.493   3.368   3.388  0.3798  0.0292  0.1491
    1C        C  284   4.508   3.582   3.508  1.1467  0.2091  0.2794
    1C        C  285   4.511   3.511   3.630  0.3955  0.3175  0.3741
    1C        C  286   4.501   3.726   3.748  0.3355  0.3401 -0.2179
    1C        C  287   4.513   3.585   3.750  0.6255  0.3648  0.3478
    1C        C  288   4.476   3.796   3.868  0.0856  0.2113 -0.1908
    1C        C  289   4.480   3.729   3.993 -0.6376  0.1829 -0.1795
    1C        C  290   4.423   3.932   4.110 -0.2640  0.1050 -0.4032
    1C        C  291   4.471   3.799   4.115 -0.0783  0.1809 -0.1355
    1C        C  292   4.397   3.998   4.232  0.9843  0.1875 -0.1670
    1C        C  293   4.417   3.932   4.355  0.9325  0.3277 -0.0825
    1C        C  294   4.317   4.121   4.472 -0.9190 -0.3623  0.2046
    1C        C  295   4.382   3.996   4.475  0.2497  0.2220 -0.2217
    1C        C  296   4.280   4.184   4.593 -0.4853 -0.3167  0.3137
    1C        C  297   4.329   4.132   4.715 -0.5465 -0.5533  0.2358
    1C        C  298   4.200   4.311   4.833 -0.0372 -0.1207 -0.0323
    1C        C  299   4.286   4.197   4.834 -0.0822 -0.1506  0.1850
    1C        C  300   4.171   4.397   4.944 -0.1268 -0.2718  0.0610
    1C        C  301   4.354   2.872   2.058 -0.0172 -0.1429  0.0865
    1C        C  302   4.461   3.064   2.173 -0.2876  0.2523 -0.0307
    1C        C  303   4.399   2.934   2.175 -0.1012  0.1641 -0.0446
    1C        C  304   4.468   3.137   2.294 -0.2194  0.1124  0.0474
    1C        C  305   4.445   3.071   2.416  0.1190 -0.1347 -0.0238
    1C        C  306   4.501   3.280   2.535  0.4324 -0.0585 -0.0090
    1C        C  307   4.470   3.142   2.535 -0.5157  0.1502 -0.0596
    1C        C  308   4.507   3.352   2.657  0.4097 -0.1650  0.0536
    1C        C  309   4.496   3.285   2.780  0.3722  0.0744  0.1799
    1C        C  310   4.511   3.499   2.897  0.9457  0.2186  0.3901
    1C        C  311   4.507   3.358   2.900  0.4316  0.2238  0.0843
    1C        C  312   4.509   3.571   3.018  0.3736  0.0875  0.4622
    1C        C  313   4.510   3.503   3.142  0.2400 -0.0744  0.3764
    1C        C  314   4.491   3.715   3.261  0.2699  0.1270 -0.0708
    1C        C  315   4.512   3.575   3.263 -0.3942  0.0235  0.3355
    1C        C  316   4.478   3.788   3.381  0.4815  0.2560 -0.1221
    1C        C  317   4.491   3.722   3.506  0.2665  0.1069 -0.1727
    1C        C  318   4.429   3.925   3.623  0.4638  0.3291 -0.0372
    1C        C  319   4.483   3.795   3.626  0.3585  0.2751 -0.2626
    1C        C  320   4.397   3.992   3.743  0.4941  0.7939 -0.2815
    1C        C  321   4.419   3.925   3.865  0.5991  0.4365 -0.4948
    1C        C  322   4.316   4.111   3.985 -0.1223 -0.0471 -0.1476
    1C        C  323   4.394   3.993   3.986  0.4919  0.3510 -0.4678
    1C        C  324   4.280   4.174   4.107  1.0107  0.2559  0.0430
    1C        C  325   4.324   4.119   4.229  0.3039 -0.2158  0.0900
    1C        C  326   4.181   4.281   4.347  0.2927  0.0773  0.4056
    1C        C  327   4.273   4.174   4.349 -0.2550 -0.4065 -0.0562
    1C        C  328   4.135   4.337   4.468  0.1271  0.6220  0.0918
    1C        C  329   4.193   4.295   4.590 -0.1785 -0.0835 -0.0039
    1C        C  330   4.022   4.428   4.709 -0.1210 -0.1024 -0.3398
    1C        C  331   4.139   4.346   4.709  0.0621  0.1599 -0.0012
    1C        C  332   3.971   4.493   4.823  0.1213 -0.4377 -0.0383
    1C        C  333   4.058   4.479   4.932  0.2454  0.2339 -0.0430
    1C        C  334   4.555   3.260   2.062 -0.4298  0.3234  0.1813
    1C        C  335   4.537   3.122   2.067 -0.2611  0.2963  0.0147
    1C        C  336   4.529   3.342   2.172 -0.5204  0.0563  0.3553
    1C        C  337   4.502   3.275   2.294 -0.2973  0.1304  0.4413
    1C        C  338   4.517   3.491   2.406 -0.6170  0.4307 -0.3306
    1C        C  339   4.510   3.350   2.413  0.0299  0.4208  0.2361
    1C        C  340   4.515   3.564   2.527  0.3600 -0.3301  0.1610
    1C        C  341   4.506   3.493   2.649  0.2357 -0.1576  0.2509
    1C        C  342   4.483   3.702   2.770  0.4495 -0.0825 -0.2661
    1C        C  343   4.509   3.563   2.771  0.2446 -0.1186  0.2274
    1C        C  344   4.469   3.775   2.890  0.9940 -0.1708 -0.1502
    1C        C  345   4.489   3.711   3.015  0.1989  0.0550  0.0989
    1C        C  346   4.425   3.912   3.136  0.2578  0.3216 -0.2529
    1C        C  347   4.476   3.780   3.137 -0.0881  0.1854 -0.0030
    1C        C  348   4.394   3.980   3.256  0.7874  0.6909 -0.3203
    1C        C  349   4.425   3.919   3.379  0.4323  0.2353 -0.4511
    1C        C  350   4.321   4.106   3.499  0.6289  0.0030 -0.5960
    1C        C  351   4.394   3.986   3.500  0.4198 -0.1230 -0.2516
    1C        C  352   4.278   4.168   3.618 -0.3571 -0.5871 -0.6389
    1C        C  353   4.319   4.110   3.740  0.0011  0.4772 -0.2423
    1C        C  354   4.167   4.257   3.862 -0.5296 -0.3918 -0.1009
    1C        C  355   4.273   4.164   3.862 -0.1390  0.0511 -0.1009
    1C        C  356   4.117   4.309   3.984  0.0177 -0.2983  0.0839
    1C        C  357   4.179   4.272   4.105 -0.0194 -0.7761 -0.0390
    1C        C  358   4.006   4.401   4.223  0.2978 -0.7930 -0.1705
    1C        C  359   4.121   4.318   4.225  0.5430 -0.4500  0.1151
    1C        C  360   3.950   4.444   4.345  0.1982 -0.1021 -0.4524
    1C        C  361   4.018   4.417   4.466  0.0635  0.5243 -0.2347
    1C        C  362   3.825   4.508   4.587 -0.0117  0.4440 -0.1952
    1C        C  363   3.957   4.458   4.587  0.0312  0.5587 -0.2628
    1C        C  364   3.761   4.542   4.709  0.4471  0.5008  0.0311
    1C        C  365   3.837   4.536   4.828  0.2797  0.0460  0.1167
    1C        C  366   3.631   4.594   4.945 -0.1352 -0.0609 -0.0846
    1C        C  367   3.770   4.582   4.942 -0.1388 -0.1023 -0.0691
    1C        C  368   4.504   3.557   2.047 -0.4213 -0.0810 -0.2640
    1C        C  369   4.518   3.483   2.165 -0.3950  0.0356 -0.1973
    1C        C  370   4.485   3.698   2.285 -0.3726  0.3441 -0.0775
    1C        C  371   4.513   3.560   2.283 -0.5210  0.3217 -0.3915
    1C        C  372   4.467   3.770   2.405  0.2886  0.0227  0.2172
    1C        C  373   4.496   3.704   2.527  0.2083 -0.3541  0.0298
    1C        C  374   4.426   3.905   2.648  0.3204  0.0158 -0.2637
    1C        C  375   4.474   3.772   2.648  0.5524  0.1023 -0.1649
    1C        C  376   4.395   3.974   2.768  0.0201 -0.2535 -0.1857
    1C        C  377   4.420   3.907   2.889  0.4813 -0.3630 -0.3385
    1C        C  378   4.316   4.089   3.009  0.1371 -0.2281 -0.0676
    1C        C  379   4.393   3.971   3.012  0.2369 -0.1754 -0.4891
    1C        C  380   4.271   4.147   3.130  0.3401  0.4967 -0.3347
    1C        C  381   4.317   4.098   3.254  0.8944  0.7607 -0.4328
    1C        C  382   4.173   4.255   3.374 -0.1738 -0.2349  0.3125
    1C        C  383   4.272   4.154   3.375  0.2464  0.1575 -0.3855
    1C        C  384   4.118   4.306   3.494 -0.3675  0.0070  0.1212
    1C        C  385   4.171   4.260   3.616 -0.4372 -0.6643 -0.0995
    1C        C  386   3.997   4.381   3.737  0.0006  0.1641  0.0407
    1C        C  387   4.112   4.299   3.739 -0.3191 -0.2938 -0.1616
    1C        C  388   3.937   4.418   3.859  0.0422  0.3397  0.0061
    1C        C  389   3.998   4.385   3.981  0.2140  0.0085 -0.1705
    1C        C  390   3.816   4.493   4.102  0.5076  0.3239  0.1093
    1C        C  391   3.946   4.438   4.101  0.2164 -0.3644 -0.0017
    1C        C  392   3.749   4.510   4.225  0.3243  0.0570  0.0465
    1C        C  393   3.818   4.494   4.347  0.4404  0.5273  0.0435
    1C        C  394   3.613   4.553   4.468 -0.2154 -0.1424  0.3059
    1C        C  395   3.752   4.524   4.468 -0.2107 -0.1153 -0.1498
    1C        C  396   3.547   4.565   4.592 -0.0787 -0.0228  0.3649
    1C        C  397   3.623   4.568   4.711  0.4942  0.7542 -0.0133
    1C        C  398   3.412   4.549   4.835  0.0778  0.0284 -0.0570
    1C        C  399   3.551   4.569   4.833  0.1397 -0.4253 -0.2003
    1C        C  400   3.345   4.510   4.952  0.3123 -0.1838  0.0039
    1C        C  401   4.497   3.695   2.048  0.0112 -0.0635  0.3809
    1C        C  402   4.444   3.908   2.164  0.5157  0.5351  0.0151
    1C        C  403   4.483   3.772   2.165  0.6385  0.5735  0.0408
    1C        C  404   4.411   3.975   2.283  0.7788  0.4858  0.1140
    1C        C  405   4.433   3.907   2.404  0.2881  0.0179 -0.0583
    1C        C  406   4.328   4.091   2.523 -0.5058 -0.2740 -0.0684
    1C        C  407   4.404   3.972   2.526  0.1701  0.1486 -0.1604
    1C        C  408   4.281   4.148   2.643  0.3495 -0.0511  0.1712
    1C        C  409   4.317   4.091   2.766 -0.1149 -0.3401  0.1751
    1C        C  410   4.173   4.248   2.886 -0.0676 -0.1393  0.1639
    1C        C  411   4.272   4.147   2.888  0.1907  0.1142  0.0785
    1C        C  412   4.115   4.293   3.007 -0.5145 -0.4186  0.0578
    1C        C  413   4.172   4.248   3.128  0.0241  0.1960  0.0409
    1C        C  414   4.003   4.376   3.248  0.0099 -0.3694 -0.5223
    1C        C  415   4.120   4.297   3.250  0.3010  0.0678  0.2097
    1C        C  416   3.940   4.412   3.369 -0.4145 -0.9061 -0.5825
    1C        C  417   4.001   4.386   3.493 -0.7640 -0.5698 -0.3371
    1C        C  418   3.805   4.470   3.616 -0.0596 -0.2031  0.0714
    1C        C  419   3.936   4.416   3.615 -0.1260 -0.3516 -0.0431
    1C        C  420   3.739   4.500   3.737  0.1421  0.2559  0.0700
    1C        C  421   3.806   4.473   3.859 -0.0925  0.0165  0.1450
    1C        C  422   3.606   4.530   3.983  0.0620 -0.5769  0.2509
    1C        C  423   3.745   4.509   3.981  0.1479 -0.0234  0.2757
    1C        C  424   3.536   4.535   4.106  0.2457 -0.3306  0.3423
    1C        C  425   3.610   4.534   4.226  0.3358  0.1081  0.2899
    1C        C  426   3.399   4.552   4.349 -0.0423 -0.1313 -0.2154
    1C        C  427   3.540   4.555   4.347 -0.0297 -0.4978  0.1870
    1C        C  428   3.333   4.543   4.473  0.1981 -0.4196 -0.1094
    1C        C  429   3.406   4.554   4.594 -0.0834  0.0104  0.0194
    1C        C  430   3.198   4.510   4.719 -0.0687 -0.1638  0.3080
    1C        C  431   3.336   4.541   4.716  0.0335 -0.6473  0.0158
    1C        C  432   3.130   4.487   4.841  0.3953 -0.5262  0.4962
    1C        C  433   3.208   4.487   4.958  0.3179 -0.0871  0.5483
    1C        C  434   4.377   4.117   2.047 -0.2213  0.0332 -0.3744
    1C        C  435   4.442   3.992   2.052 -0.3870 -0.0527 -0.4193
    1C        C  436   4.298   4.157   2.159  0.0833 -0.2434 -0.0602
    1C        C  437   4.327   4.090   2.282  0.0360 -0.0516  0.0530
    1C        C  438   4.184   4.250   2.402  0.4623  0.6014  0.0265
    1C        C  439   4.282   4.148   2.402 -0.0175  0.1397 -0.0615
    1C        C  440   4.123   4.294   2.522 -0.0070 -0.1312  0.0607
    1C        C  441   4.179   4.246   2.643  0.0379 -0.3751 -0.0558
    1C        C  442   4.010   4.380   2.763  0.0629 -0.3687 -0.0351
    1C        C  443   4.124   4.297   2.763 -0.1633 -0.6833 -0.0169
    1C        C  444   3.945   4.412   2.884  0.1407  0.2660 -0.1572
    1C        C  445   4.000   4.374   3.009 -0.1506  0.1065 -0.0774
    1C        C  446   3.809   4.472   3.125 -0.4354 -0.1688 -0.1063
    1C        C  447   3.937   4.413   3.129 -0.1520  0.4415 -0.1868
    1C        C  448   3.744   4.494   3.248 -0.0955 -0.2350  0.0842
    1C        C  449   3.810   4.468   3.370 -0.1937 -0.3980  0.1014
    1C        C  450   3.604   4.518   3.489 -0.0570 -0.2554  0.0472
    1C        C  451   3.743   4.494   3.492  0.0058  0.1179  0.1019
    1C        C  452   3.535   4.530   3.612  0.0564 -0.7731  0.1607
    1C        C  453   3.601   4.528   3.737  0.1002  0.0441  0.1502
    1C        C  454   3.393   4.536   3.862  0.0732 -0.7262  0.2227
    1C        C  455   3.535   4.536   3.861  0.0731 -1.1679  0.2171
    1C        C  456   3.323   4.528   3.984 -0.1049 -1.2182  0.0874
    1C        C  457   3.395   4.530   4.105  0.2596 -0.6054 -0.1408
    1C        C  458   3.188   4.508   4.232  0.1120 -0.4892  0.0170
    1C        C  459   3.327   4.532   4.229  0.0766 -0.3473 -0.2487
    1C        C  460   3.126   4.488   4.357  0.4893 -0.6697  0.1746
    1C        C  461   3.196   4.511   4.478  0.2155 -0.4200  0.2817
    1C        C  462   2.997   4.432   4.599 -0.0704  0.1843 -0.4240
    1C        C  463   3.125   4.491   4.599  0.0227 -0.0197  0.2337
    1C        C  464   2.934   4.398   4.721  0.4396 -0.0871 -0.2413
    1C        C  465   2.996   4.435   4.843  0.4849 -0.7762 -0.0531
    1C        C  466   2.804   4.330   4.958  0.0810  0.1970  0.0274
    1C        C  467   2.914   4.417   4.959  0.0039  0.2949 -0.2149
    1C        C  468   4.124   4.289   2.042  0.5338  0.0288 -0.3301
    1C        C  469   4.186   4.246   2.160 -0.0641 -0.4310 -0.1814
    1C        C  470   4.011   4.374   2.277  0.5059  0.3277  0.0347
    1C        C  471   4.130   4.295   2.280  0.0853 -0.3251 -0.1556
    1C        C  472   3.940   4.400   2.396  0.0401  0.1160 -0.1916
    1C        C  473   4.002   4.365   2.519  0.2253  0.2502 -0.2454
    1C        C  474   3.811   4.454   2.641  0.3096 -0.1843  0.3410
    1C        C  475   3.943   4.405   2.641  0.5088  0.3391 -0.1368
    1C        C  476   3.742   4.477   2.762 -0.1206 -0.5726  0.1750
    1C        C  477   3.811   4.455   2.883 -0.0224 -0.2188  0.1845
    1C        C  478   3.605   4.520   3.005 -0.3186  0.6808  0.1193
    1C        C  479   3.743   4.491   3.001 -0.5191 -0.2761 -0.0782
    1C        C  480   3.533   4.532   3.126 -0.2662  0.0218  0.2180
    1C        C  481   3.606   4.523   3.247 -0.0659 -0.0975  0.0909
    1C        C  482   3.392   4.537   3.373 -0.1250 -0.6477 -0.1488
    1C        C  483   3.533   4.530   3.368 -0.0879 -0.1282  0.0782
    1C        C  484   3.322   4.531   3.495 -0.1477  0.0674 -0.1196
    1C        C  485   3.394   4.535   3.616  0.0781  0.3679 -0.2638
    1C        C  486   3.186   4.498   3.740  0.4692 -0.1635  0.0091
    1C        C  487   3.324   4.528   3.739  0.5181 -0.3849 -0.0510
    1C        C  488   3.119   4.477   3.863 -0.0612 -0.0971 -0.2659
    1C        C  489   3.185   4.498   3.986 -0.3150 -0.2611 -0.1030
    1C        C  490   2.992   4.426   4.111 -0.3415  0.3893  0.2226
    1C        C  491   3.120   4.486   4.111 -0.0016 -0.3192  0.0534
    1C        C  492   2.941   4.384   4.235 -0.4400  0.1889  0.1116
    1C        C  493   3.000   4.424   4.357  0.1419  0.0110 -0.1156
    1C        C  494   2.834   4.294   4.480  0.0646 -0.3027  0.1847
    1C        C  495   2.937   4.391   4.478 -0.1141 -0.1258 -0.2903
    1C        C  496   2.778   4.249   4.601 -0.2674  0.3531  0.2692
    1C        C  497   2.829   4.303   4.721  0.0996  0.2931  0.1362
    1C        C  498   2.670   4.159   4.839  0.0284  0.2762 -0.1872
    1C        C  499   2.761   4.267   4.840 -0.3266  0.5733 -0.0241
    1C        C  500   2.595   4.117   4.949  0.0761  0.0581 -0.2410
    1C        C  501   4.007   4.364   2.038  0.3581 -0.2507 -0.3946
    1C        C  502   3.810   4.452   2.154  0.5713 -0.4545  0.2337
    1C        C  503   3.942   4.402   2.157  0.5635 -0.5056 -0.1990
    1C        C  504   3.738   4.462   2.275  0.4704 -0.2978  0.1633
    1C        C  505   3.807   4.446   2.397  0.0430  0.1223  0.4622
    1C        C  506   3.603   4.504   2.518  0.0066 -0.1703 -0.2830
    1C        C  507   3.741   4.473   2.519  0.0006 -0.1923  0.5129
    1C        C  508   3.534   4.512   2.641  0.1123 -0.2890 -0.2110
    1C        C  509   3.604   4.506   2.763 -0.1386 -0.6257 -0.0818
    1C        C  510   3.391   4.521   2.885 -0.0180  0.3507  0.3169
    1C        C  511   3.532   4.513   2.885 -0.0126  0.3887 -0.0530
    1C        C  512   3.320   4.525   3.007 -0.4187 -0.0058  0.0994
    1C        C  513   3.392   4.526   3.128 -0.2911  0.4907  0.0234
    1C        C  514   3.186   4.487   3.252 -0.2979 -0.5776  0.1947
    1C        C  515   3.322   4.525   3.251 -0.3988 -0.2174 -0.0367
    1C        C  516   3.120   4.463   3.375 -0.2324 -0.6829  0.2113
    1C        C  517   3.185   4.495   3.496 -0.1262 -0.0152 -0.0142
    1C        C  518   2.990   4.415   3.622 -0.2675  0.9918  0.3000
    1C        C  519   3.118   4.476   3.618  0.0788  0.2757  0.1461
    1C        C  520   2.929   4.379   3.744 -0.7429  1.0436  0.0801
    1C        C  521   2.991   4.418   3.864  0.0596 -0.3508  0.1348
    1C        C  522   2.834   4.283   3.991  0.0931 -0.0170 -0.1940
    1C        C  523   2.936   4.381   3.989 -0.2926  0.3951  0.1997
    1C        C  524   2.788   4.235   4.116 -0.1255  0.1613 -0.2076
    1C        C  525   2.835   4.290   4.237 -0.1650 -0.1231 -0.0667
    1C        C  526   2.703   4.125   4.361 -0.5227  0.4128  0.2862
    1C        C  527   2.784   4.240   4.359 -0.0031  0.0416  0.0653
    1C        C  528   2.653   4.073   4.482 -0.2851 -0.2858  0.0825
    1C        C  529   2.689   4.139   4.602 -0.0379  0.1683 -0.2475
    1C        C  530   2.587   3.954   4.727 -0.0968  0.2520 -0.2882
    1C        C  531   2.644   4.084   4.723  0.6493 -0.0696 -0.1036
    1C        C  532   2.536   3.898   4.848 -0.2753  0.1420 -0.4169
    1C        C  533   2.530   3.993   4.955 -0.0923  0.1400 -0.4076
    1C        C  534   3.617   4.552   2.045 -0.0153  0.0969 -0.0308
    1C        C  535   3.752   4.515   2.043 -0.0075  0.0737  0.8280
    1C        C  536   3.531   4.526   2.155  0.2269 -0.5061  0.0208
    1C        C  537   3.601   4.497   2.276  0.4274 -0.4463 -0.0791
    1C        C  538   3.389   4.508   2.396  0.1207 -1.2116 -0.0549
    1C        C  539   3.530   4.512   2.397  0.1066  0.1497 -0.3276
    1C        C  540   3.321   4.502   2.519  0.6598 -0.4536  0.2958
    1C        C  541   3.393   4.509   2.640  0.1032 -0.2639  0.6236
    1C        C  542   3.182   4.493   2.764 -0.1701 -0.0316 -0.2624
    1C        C  543   3.322   4.512   2.762 -0.2302  0.5289  0.4191
    1C        C  544   3.115   4.466   2.885 -0.1095 -0.5055 -0.3277
    1C        C  545   3.183   4.489   3.007 -0.4454  0.0847 -0.2426
    1C        C  546   2.992   4.405   3.133 -0.1632  0.3263 -0.1674
    1C        C  547   3.116   4.472   3.130 -0.0889  0.1981 -0.0296
    1C        C  548   2.928   4.369   3.254 -0.1307  0.2958 -0.1566
    1C        C  549   2.990   4.408   3.375 -0.3044 -0.5149  0.2020
    1C        C  550   2.832   4.275   3.502 -0.4897  0.5204  0.0743
    1C        C  551   2.933   4.374   3.499 -0.0541  0.0918  0.4930
    1C        C  552   2.785   4.223   3.625 -1.0908  0.7438 -0.0552
    1C        C  553   2.826   4.282   3.746 -0.2740  0.5281 -0.2171
    1C        C  554   2.700   4.117   3.871  0.0260  0.1822  0.1431
    1C        C  555   2.782   4.232   3.871  0.0334  0.1764 -0.2502
    1C        C  556   2.669   4.058   3.995 -0.3137  0.3055  0.1178
    1C        C  557   2.711   4.117   4.116 -0.0616  0.1229  0.1193
    1C        C  558   2.603   3.939   4.239  0.0907  0.2727 -0.0306
    1C        C  559   2.666   4.065   4.239 -0.2141  0.4240  0.1901
    1C        C  560   2.569   3.876   4.361 -0.2983 -0.2867 -0.4239
    1C        C  561   2.589   3.946   4.481 -0.3570 -0.2447 -0.4405
    1C        C  562   2.536   3.746   4.609 -0.4573  0.2381  0.2384
    1C        C  563   2.567   3.884   4.606 -0.3567  0.2035 -0.2165
    1C        C  564   2.518   3.677   4.731 -0.7408  0.1480  0.1446
    1C        C  565   2.511   3.757   4.849 -0.5694  0.1952  0.1197
    1C        C  566   2.528   3.542   4.973 -0.4362  0.2187 -0.1817
    1C        C  567   2.528   3.681   4.965 -0.5076  0.2390  0.1386
    1C        C  568   3.326   4.460   2.040 -0.2998  0.0099  0.0957
    1C        C  569   3.390   4.508   2.155  0.1846 -0.1956 -0.0815
    1C        C  570   3.177   4.471   2.278  0.1255  0.0011 -0.1256
    1C        C  571   3.315   4.505   2.276  0.1249  0.0102 -0.1107
    1C        C  572   3.111   4.457   2.402 -0.0314  0.2330 -0.1825
    1C        C  573   3.183   4.473   2.522  0.5855 -0.1885 -0.4879
    1C        C  574   2.986   4.401   2.647  0.2131  0.2956 -0.1303
    1C        C  575   3.115   4.458   2.645  0.4986 -0.3483 -0.5539
    1C        C  576   2.927   4.360   2.768  0.2098 -0.2649 -0.3179
    1C        C  577   2.990   4.399   2.888  0.2373 -1.1522 -0.0312
    1C        C  578   2.827   4.269   3.015 -0.3389 -0.1017  0.5287
    1C        C  579   2.934   4.361   3.012 -0.1268 -0.3614  0.0567
    1C        C  580   2.773   4.221   3.137 -0.5278  0.2000  0.5682
    1C        C  581   2.826   4.272   3.257 -0.3776  0.5651  0.3517
    1C        C  582   2.702   4.105   3.382 -0.4347  0.1974 -0.3179
    1C        C  583   2.783   4.220   3.381 -0.3977  0.1803  0.1881
    1C        C  584   2.663   4.048   3.506  0.1686  0.0400 -0.1981
    1C        C  585   2.703   4.108   3.627 -0.1847  0.0869 -0.1019
    1C        C  586   2.600   3.927   3.751  0.5850  0.0780 -0.4925
    1C        C  587   2.673   4.048   3.751  0.6998  0.0144  0.0866
    1C        C  588   2.573   3.866   3.876  1.0502  0.0895 -0.3854
    1C        C  589   2.598   3.936   3.996 -0.8238  0.5977 -0.2651
    1C        C  590   2.541   3.733   4.122  0.3340  0.4879 -0.0085
    1C        C  591   2.576   3.870   4.119 -0.4514  0.6885 -0.1497
    1C        C  592   2.526   3.666   4.246 -0.4350  0.2743 -0.2126
    1C        C  593   2.533   3.740   4.366 -0.1076 -0.3150  0.1306
    1C        C  594   2.508   3.532   4.493  0.1412  0.0026  0.1661
    1C        C  595   2.520   3.673   4.490 -0.0711  0.0238  0.3188
    1C        C  596   2.506   3.461   4.616 -0.1880 -0.0716  0.1205
    1C        C  597   2.513   3.535   4.736 -0.7589  0.1450  0.0193
    1C        C  598   2.535   3.323   4.860 -0.2436  0.0713 -0.1515
    1C        C  599   2.528   3.464   4.857 -0.2819  0.0716 -0.0837
    1C        C  600   2.529   3.246   4.977 -0.2212  0.1653 -0.0870
    1C        C  601   3.194   4.422   2.043 -0.2348 -0.2206  0.0512
    1C        C  602   2.978   4.385   2.162 -0.2336  0.2790  0.1063
    1C        C  603   3.113   4.433   2.157 -0.2792  0.3911 -0.0383
    1C        C  604   2.914   4.362   2.287  0.0831 -0.2269  0.1782
    1C        C  605   2.980   4.404   2.404  0.0920 -0.0611  0.1142
    1C        C  606   2.818   4.269   2.527 -0.1758  0.2671  0.2955
    1C        C  607   2.922   4.364   2.526 -0.2102  0.3023  0.0910
    1C        C  608   2.777   4.210   2.649  0.7856 -0.5540  0.2397
    1C        C  609   2.825   4.262   2.771 -0.0647  0.0338  0.3376
    1C        C  610   2.687   4.107   2.896 -0.3805  0.3213 -0.0036
    1C        C  611   2.773   4.219   2.895 -0.1744  0.1670  0.3392
    1C        C  612   2.654   4.044   3.018 -0.2501  0.0077 -0.1277
    1C        C  613   2.692   4.105   3.139 -0.6459  0.2621 -0.1277
    1C        C  614   2.589   3.922   3.265 -0.4479 -0.0066 -0.0122
    1C        C  615   2.660   4.044   3.262 -0.6215  0.0931 -0.2039
    1C        C  616   2.559   3.861   3.389 -0.1735 -0.0199  0.0492
    1C        C  617   2.591   3.927   3.510 -0.0264  0.1595 -0.0856
    1C        C  618   2.526   3.726   3.634  0.0909 -0.0294  0.4750
    1C        C  619   2.561   3.862   3.632 -0.3170  0.0734 -0.2002
    1C        C  620   2.513   3.659   3.758 -0.2727  0.2057  0.5671
    1C        C  621   2.534   3.730   3.878  0.7607  0.1815  0.4172
    1C        C  622   2.507   3.524   4.005 -0.3576  0.0668  0.1278
    1C        C  623   2.516   3.665   4.002  0.2320  0.0352  0.2665
    1C        C  624   2.509   3.454   4.128  0.4202 -0.0829  0.0366
    1C        C  625   2.510   3.526   4.249  0.2013  0.1997 -0.1254
    1C        C  626   2.531   3.319   4.373 -0.3154  0.2937 -0.2867
    1C        C  627   2.515   3.459   4.373  0.0041  0.3335 -0.0441
    1C        C  628   2.543   3.250   4.496 -0.1784  0.2010 -0.3502
    1C        C  629   2.526   3.321   4.616  0.3568 -0.0007 -0.1494
    1C        C  630   2.599   3.121   4.740 -0.7827 -0.3068 -0.0570
    1C        C  631   2.552   3.255   4.738  0.3389  0.0978 -0.0893
    1C        C  632   2.614   3.050   4.862  0.2061  0.3704  0.2254
    1C        C  633   2.561   3.110   4.981 -0.1977  0.1767  0.1476
    1C        C  634   2.782   4.302   2.055  0.0382  0.2725  0.6946
    1C        C  635   2.894   4.385   2.047 -0.0553  0.3395 -0.0249
    1C        C  636   2.742   4.229   2.168 -0.2375 -0.1147  0.3524
    1C        C  637   2.803   4.272   2.287 -0.3348  0.2826  0.2606
    1C        C  638   2.680   4.100   2.407  0.5581 -0.1983  0.2326
    1C        C  639   2.760   4.216   2.410 -0.4559  0.5124  0.3231
    1C        C  640   2.643   4.041   2.530  0.5303 -0.5214  0.0693
    1C        C  641   2.688   4.101   2.650  0.6090 -0.4126 -0.0146
    1C        C  642   2.591   3.917   2.775 -0.4906  0.3214 -0.0736
    1C        C  643   2.652   4.044   2.774 -0.3621  0.2619  0.0209
    1C        C  644   2.561   3.853   2.898 -1.1156  0.5938 -0.0769
    1C        C  645   2.592   3.917   3.020 -0.7220  0.2369  0.0128
    1C        C  646   2.527   3.719   3.147 -0.1826 -0.0117  0.0962
    1C        C  647   2.564   3.855   3.144 -0.7061  0.1283 -0.0364
    1C        C  648   2.510   3.652   3.270  0.5730  0.0084  0.2200
    1C        C  649   2.524   3.724   3.391 -0.5768  0.0829  0.3251
    1C        C  650   2.509   3.513   3.517  0.1721  0.1396  0.3579
    1C        C  651   2.515   3.654   3.513 -0.2861  0.1610  0.3953
    1C        C  652   2.516   3.447   3.641  0.2553  0.0588  0.3115
    1C        C  653   2.498   3.519   3.762  0.1610  0.1449  0.2475
    1C        C  654   2.532   3.312   3.887  0.0852 -0.0959 -0.1761
    1C        C  655   2.503   3.450   3.885  0.4416 -0.0133  0.1478
    1C        C  656   2.551   3.245   4.010 -0.6669 -0.1783 -0.0955
    1C        C  657   2.538   3.316   4.131 -0.4821 -0.2832 -0.0110
    1C        C  658   2.606   3.116   4.257 -0.4039 -0.2450  0.0206
    1C        C  659   2.558   3.249   4.253 -0.5089 -0.2803 -0.0027
    1C        C  660   2.633   3.054   4.380  0.2243 -0.0323 -0.0065
    1C        C  661   2.594   3.118   4.500 -0.5220  0.0676 -0.3000
    1C        C  662   2.708   2.936   4.624 -0.6559  0.0864 -0.3099
    1C        C  663   2.634   3.056   4.620 -0.7113  0.0588 -0.2384
    1C        C  664   2.743   2.873   4.746  0.1209  0.6913 -0.2089
    1C        C  665   2.694   2.931   4.866 -0.3361 -0.0076 -0.0506
    1C        C  666   2.730   2.860   4.981 -0.1374  0.0820 -0.0555
    1C        C  667   2.673   4.026   2.047  0.1909 -0.0540 -0.1816
    1C        C  668   2.675   4.105   2.163 -0.0431 -0.2055 -0.0721
    1C        C  669   2.588   3.910   2.290 -0.2064  0.3507  0.1525
    1C        C  670   2.643   4.041   2.284 -0.0944  0.3056  0.1845
    1C        C  671   2.558   3.845   2.412 -0.4367  0.2286  0.0321
    1C        C  672   2.581   3.914   2.534 -0.2319 -0.1509  0.2106
    1C        C  673   2.515   3.714   2.657 -1.1021  0.0885 -0.0164
    1C        C  674   2.561   3.847   2.656 -0.9213  0.0290  0.2025
    1C        C  675   2.504   3.646   2.781 -0.6119  0.2224  0.1033
    1C        C  676   2.529   3.716   2.901 -0.1566  0.3629 -0.0717
    1C        C  677   2.503   3.509   3.027  0.4308  0.2579 -0.2713
    1C        C  678   2.518   3.649   3.025 -0.4554  0.3602 -0.0985
    1C        C  679   2.505   3.438   3.149  0.5135  0.2456 -0.2791
    1C        C  680   2.502   3.511   3.269  0.7652 -0.0017 -0.1220
    1C        C  681   2.526   3.304   3.398  0.0596  0.4281 -0.1194
    1C        C  682   2.511   3.444   3.393  0.5921  0.4959  0.1620
    1C        C  683   2.541   3.236   3.520  0.4757  0.2667 -0.2601
    1C        C  684   2.535   3.307   3.642  0.0927  0.0329 -0.1381
    1C        C  685   2.598   3.108   3.765  0.0230 -0.0990  0.0572
    1C        C  686   2.555   3.243   3.766 -0.0981 -0.1341 -0.1923
    1C        C  687   2.629   3.048   3.889 -0.1536 -0.2603  0.0269
    1C        C  688   2.603   3.114   4.011  0.8153  0.3901 -0.1093
    1C        C  689   2.714   2.935   4.136  0.0884  0.1021 -0.1259
    1C        C  690   2.640   3.055   4.134 -0.2120 -0.0764 -0.0147
    1C        C  691   2.756   2.882   4.260 -0.4263 -0.3000 -0.1175
    1C        C  692   2.709   2.935   4.382  0.2930  0.0078  0.0310
    1C        C  693   2.754   2.879   4.503  0.5582  0.2581  0.0546
    1C        C  694   2.624   3.895   2.054 -0.2450  0.1362  0.4042
    1C        C  695   2.532   3.701   2.171  0.9024 -0.4244 -0.3179
    1C        C  696   2.579   3.834   2.172  0.8148 -0.3919  0.5466
    1C        C  697   2.512   3.635   2.295  0.1792  0.0411 -0.1807
    1C        C  698   2.522   3.709   2.415  0.1316  0.0695 -0.1929
    1C        C  699   2.487   3.501   2.539 -0.1356  0.1933  0.0445
    1C        C  700   2.499   3.642   2.537 -0.3177  0.2067 -0.1983
    1C        C  701   2.491   3.431   2.662  0.1193 -0.0501 -0.1007
    1C        C  702   2.496   3.505   2.782  0.0880  0.1739 -0.2357
    1C        C  703   2.532   3.299   2.909  0.0040  0.1823  0.0460
    1C        C  704   2.503   3.437   2.905  0.0586  0.1861 -0.2272
    1C        C  705   2.549   3.229   3.031  0.3166  0.3669  0.1101
    1C        C  706   2.526   3.298   3.152  0.2243  0.2110  0.1812
    1C        C  707   2.591   3.102   3.279  0.0639  0.0791 -0.0172
    1C        C  708   2.537   3.233   3.276 -0.1078  0.0105  0.1066
    1C        C  709   2.625   3.039   3.401  0.3597  0.2542 -0.0068
    1C        C  710   2.597   3.106   3.522  0.0373  0.0769  0.0214
    1C        C  711   2.708   2.925   3.648 -0.1268 -0.0522 -0.1636
    1C        C  712   2.630   3.043   3.644 -0.2406 -0.1198 -0.0040
    1C        C  713   2.756   2.874   3.770  0.3548  0.1599 -0.2588
    1C        C  714   2.712   2.934   3.889  0.4820  0.1966 -0.2269
    1C        C  715   2.750   2.877   4.013  0.2460  0.2174 -0.1396
    1C        C  716   2.449   3.497   2.057  0.2466 -0.2092 -0.0454
    1C        C  717   2.489   3.632   2.057  0.7787 -0.3635 -0.3100
    1C        C  718   2.461   3.423   2.179  0.0544  0.0529  0.1365
    1C        C  719   2.481   3.496   2.298  0.1469  0.0553  0.1203
    1C        C  720   2.510   3.287   2.422 -0.5250 -0.0345 -0.0217
    1C        C  721   2.483   3.425   2.420 -0.0766  0.0598  0.1270
    1C        C  722   2.531   3.219   2.544  0.8344  0.1799 -0.1197
    1C        C  723   2.519   3.293   2.664  0.5660  0.0392 -0.0603
    1C        C  724   2.588   3.095   2.793  0.6360  0.2677 -0.0430
    1C        C  725   2.543   3.229   2.787  0.6427  0.2732  0.0473
    1C        C  726   2.616   3.027   2.914  0.7371  0.5878  0.1127
    1C        C  727   2.595   3.096   3.036  0.2966  0.3627  0.1667
    1C        C  728   2.698   2.915   3.159  0.4144  0.1359 -0.2018
    1C        C  729   2.621   3.034   3.160  0.4583  0.1623  0.0320
    1C        C  730   2.750   2.868   3.281  0.4367  0.2199 -0.1784
    1C        C  731   2.704   2.923   3.402  0.2584  0.1808 -0.2268
    1C        C  732   2.753   2.872   3.525  0.5583  0.5639 -0.1863
    1C        C  733   2.495   3.201   2.068 -0.0341 -0.6693  0.3486
    1C        C  734   2.489   3.282   2.182  0.7719  0.1821 -0.2070
    1C        C  735   2.578   3.083   2.304  0.0020  0.0493 -0.1507
    1C        C  736   2.521   3.213   2.302  0.2643  0.1651 -0.0808
    1C        C  737   2.608   3.020   2.427  0.1054 -0.0827 -0.2455
    1C        C  738   2.585   3.089   2.548  0.0694 -0.1413 -0.2210
    1C        C  739   2.694   2.911   2.672  0.1292  0.1392  0.1451
    1C        C  740   2.619   3.030   2.672  0.1492  0.1501 -0.1055
    1C        C  741   2.743   2.857   2.793  0.3827 -0.1130 -0.0698
    1C        C  742   2.695   2.911   2.914  0.6677  0.5395 -0.2425
    1C        C  743   2.747   2.863   3.037  0.6895  0.5229 -0.2594
    1C        C  744   2.546   3.072   2.074  0.3404 -0.5441 -0.1375
    1C        C  745   2.686   2.896   2.185 -0.0333 -0.4326  0.3443
    1C        C  746   2.607   3.013   2.185 -0.0057 -0.4177  0.1193
    1C        C  747   2.729   2.839   2.307  0.4646  0.1324  0.4382
    1C        C  748   2.688   2.903   2.426  0.4332  0.1376  0.4218
    1C        C  749   2.733   2.851   2.550  0.2047 -0.2278  0.3493
    1C        C  750   2.726   2.833   2.067 -0.8830 -0.3026 -0.0160
    1C        C  751   3.664   2.302   1.998 -0.2765 -0.5391  0.2033
    1C        O  752   3.689   2.188   2.048  0.0784 -0.6630 -0.2501
    1C        O  753   3.660   2.310   1.859 -0.4152 -0.4792  0.2112
    1C        C  754   4.638   3.048   1.987 -0.3132 -0.3185  0.5106
    1C        O  755   4.747   3.015   2.041  0.0679 -0.2928 -0.2323
    1C        O  756   4.622   3.037   1.848 -0.4381 -0.7672  0.5580
    1C        C  757   4.457   4.220   1.977  0.1266  0.1853  0.2364
    1C        O  758   4.555   4.275   2.034  0.0851 -0.2772  0.7601
    1C        O  759   4.467   4.240   1.839 -1.1000  0.0914  0.1271
    1C        C  760   3.577   4.655   1.946 -0.4105  0.3414  0.3801
    1C        O  761   3.537   4.631   1.829  0.3138  0.1303  0.1666
    1C        O  762   3.623   4.786   1.964  0.6234  0.0560 -0.0642
    1C        C  763   2.883   4.500   1.954 -0.1932  0.1173 -0.2852
    1C        O  764   2.862   4.480   1.832  0.0929  0.2470 -0.3564
    1C        O  765   2.877   4.637   1.983  0.4988  0.0755  0.0808
    1C        C  766   2.324   3.481   1.980 -0.0430 -0.0290  0.3885
    1C        O  767   2.223   3.551   2.011  0.1378  0.4404 -0.0636
    1C        O  768   2.302   3.425   1.854 -0.1133 -0.0605  0.4146
    1C        C  769   4.676   3.576   5.055 -0.0015  0.4939 -0.0601
    1C        O  770   4.797   3.584   5.021 -0.0281 -0.2692 -0.3589
    1C        O  771   4.669   3.609   5.191  0.4044  0.1223  0.0522
    1C        C  772   4.263   4.408   5.060  0.4293 -0.1897 -0.3827
    1C        O  773   4.242   4.350   5.169  0.3074  0.4407 -0.0680
    1C        O  774   4.345   4.520   5.078  0.3106 -0.1747  0.0652
    1C        C  775   4.143   2.512   5.061 -0.4521 -0.5781  0.3625
    1C        O  776   4.200   2.406   5.022 -0.3217 -0.6740  0.8045
    1C        O  777   4.155   2.540   5.197  0.0659  0.2786  0.1515
    1C        C  778   2.913   4.511   5.073 -0.2108 -0.0513  0.0686
    1C        O  779   2.856   4.623   5.064  0.3087  0.1843 -0.3729
    1C        O  780   2.930   4.446   5.197 -0.1189 -0.3905 -0.1205
    1C        C  781   2.463   3.035   5.063 -0.5379  0.7291  0.2552
    1C        O  782   2.383   2.953   5.010  0.6296 -0.2615 -0.0307
    1C        O  783   2.467   3.027   5.201 -0.3893 -0.1055  0.2110
    1C        C  784   2.428   3.990   5.062 -0.0726 -0.1714 -0.3979
    1C        O  785   2.306   3.988   5.030 -0.0263 -0.3247 -0.5652
    1C        O  786   2.445   3.950   5.195  0.5194  0.5036 -0.2685
    1C        C  787   2.954   2.439   1.983 -0.7213  0.3342  0.1229
    1C        O  788   2.954   2.462   1.859  0.1599 -0.0358  0.0457
    1C        O  789   2.900   2.315   2.015 -0.1398  0.0962  0.1900
    1C        C  790   3.155   2.360   5.030 -0.1251  0.3923 -0.4654
    1C        O  791   3.116   2.267   4.954 -0.1283 -0.0510  0.0699
    1C        O  792   3.219   2.322   5.148 -0.1053  0.6737 -0.3853
    1C        H  793   4.293   3.020   5.063 -0.4306  1.3640 -0.4331
    1C        H  794   4.146   2.831   5.055  1.5276 -1.4954  0.9700
    1C        H  795   4.518   3.116   5.039  1.2463 -0.5683 -1.2597
    1C        H  796   4.527   3.367   5.057 -0.5508  0.2193 -0.1992
    1C        H  797   4.530   3.802   5.046 -1.5058  0.7806 -0.2596
    1C        H  798   4.468   4.018   5.032 -1.1707 -0.9921 -0.0121
    1C        H  799   4.235   4.131   5.028  0.7390  1.8936  0.6037
    1C        H  800   4.030   4.533   5.020 -0.3592 -1.0966  0.6131
    1C        H  801   3.823   4.607   5.031 -0.9814 -0.6834  0.6148
    1C        H  802   3.593   4.662   5.018 -1.5750 -1.4737  0.5319
    1C        H  803   3.405   4.473   5.033  0.0959  1.5760  1.0240
    1C        H  804   3.173   4.424   5.036 -0.4537  0.4655  0.6534
    1C        H  805   3.885   2.500   5.076 -0.2822  1.9332  0.3384
    1C        H  806   3.675   2.465   5.070 -0.9010  1.0947  0.7478
    1C        H  807   2.984   2.543   5.056  1.2086  0.4608  2.1378
    1C        H  808   3.441   2.441   5.070 -0.9713  0.9868  0.0891
    1C        H  809   2.857   2.724   5.075 -0.5104  0.6254 -0.2278
    1C        H  810   2.657   2.848   5.058  1.9733  2.9176  2.6557
    1C        H  811   2.482   3.286   5.064 -0.0540 -1.1775  0.6419
    1C        H  812   2.496   3.498   5.065  0.8969 -0.2150  0.0993
    1C        H  813   2.518   3.735   5.057 -0.9234  1.7342 -0.7574
    1C        H  814   2.589   4.179   5.036  0.1147  0.7377 -0.7243
    1C        H  815   2.766   4.294   5.051  0.7190 -1.2113 -0.2244
    1C        H  816   2.735   2.899   1.983  0.0240  0.2779  0.5122
    1C        H  817   2.874   2.721   1.981 -0.8823  2.9258 -0.4918
    1C        H  818   3.217   2.456   1.986 -1.2914 -1.1307 -0.6394
    1C        H  819   3.420   2.388   1.990  0.2316 -2.0340  0.0910
    1C        H  820   3.834   2.540   1.969  0.7907  0.2866 -0.5300
    1C        H  821   4.068   2.601   1.972 -0.4908 -0.6554  0.4248
    1C        H  822   4.240   2.721   1.968 -1.2395  1.2851 -0.4784
    1C        H  823   4.384   2.909   1.962 -0.5036 -1.0355 -0.4203
    1C        H  824   4.576   3.311   1.970  0.2846  2.3487  1.3881
    1C        H  825   4.539   3.517   1.954  2.0526  0.7841  0.2374
    1C        H  826   4.510   3.751   1.958 -0.4586 -0.9664 -0.2578
    1C        H  827   3.815   4.571   1.977 -1.8133 -0.5990 -1.5632
    1C        H  828   3.966   4.390   1.943  0.2834 -2.8387 -1.1509
    1C        H  829   4.162   4.248   1.950  0.8087  1.6949 -1.0038
    1C        H  830   4.509   3.972   1.971  1.0425  1.1744  0.4000
    1C        H  831   2.671   3.828   1.986 -1.8869 -0.6336 -0.0052
    1C        H  832   2.758   4.038   1.984 -0.1112  1.1664 -0.4008
    1C        H  833   2.701   4.333   1.991  0.4472  0.7369  0.3927
    1C        H  834   3.387   4.424   1.959 -1.2020  1.1168 -1.1316
    1C        H  835   3.151   4.383   1.952 -1.2544 -0.4287  0.6053
    1C        H  836   2.518   3.000   1.999  1.6818 -2.0441  0.7406
    1C        H  837   2.419   3.214   1.993 -2.3625 -0.8179  2.5291
    1C        H  838   2.470   3.687   1.968 -2.1653  0.4175  0.6917
    2V3OU   H29  839   2.800   3.540   0.555  0.2007 -3.3784 -1.2908
    2V3OU   C27  840   2.775   3.495   0.655 -0.0662  0.2885  0.4618
    2V3OU   H27  841   2.722   3.564   0.725  2.4300  0.5736  2.2158
    2V3OU   H28  842   2.726   3.395   0.642  3.1645 -1.7704  2.4733
    2V3OU   O11  843   2.901   3.467   0.717 -0.0209 -0.1754  0.1653
    2V3OU   C15  844   2.913   3.404   0.839 -0.2854  0.7181  0.6595
    2V3OU   C13  845   3.044   3.390   0.888 -0.1649  0.4795  0.2680
    2V3OU   C14  846   3.073   3.279   0.968 -0.4718  0.1913 -0.0180
    2V3OU   C16  847   2.980   3.185   1.011  0.0443  0.0814  0.8915
    2V3OU    H6  848   2.998   3.094   1.070  0.1066 -1.9267 -2.0191
    2V3OU   C12  849   3.211   3.226   0.985 -0.4054  0.4428  0.2276
    2V3OU    O2  850   3.240   3.124   1.050 -0.5508  0.5920  0.5269
    2V3OU   C10  851   3.318   3.302   0.919 -0.0495 -0.2802 -0.0358
    2V3OU    C8  852   3.450   3.263   0.936 -0.0408 -0.1459  0.2066
    2V3OU   O10  853   3.481   3.138   0.981 -0.1238 -0.4835 -0.6585
    2V3OU   H26  854   3.395   3.106   1.011  0.4035 -1.1898  0.1350
    2V3OU    C6  855   3.561   3.343   0.892 -0.5064 -0.0437 -0.8043
    2V3OU    C5  856   3.531   3.463   0.829 -0.0617  0.2077 -0.5435
    2V3OU    C4  857   3.700   3.292   0.889 -0.3672  0.2535  0.0779
    2V3OU    H4  858   3.716   3.228   0.981 -0.5798 -0.1310 -0.1482
    2V3OU    H5  859   3.714   3.225   0.798 -0.6619  1.3070 -0.7627
    2V3OU    C2  860   3.814   3.394   0.899  0.0512 -0.1525 -0.4393
    2V3OU    O6  861   3.806   3.470   1.020  0.2789 -0.8091 -0.0079
    2V3OU   H21  862   3.756   3.550   0.995 -1.7773 -2.0927 -0.2098
    2V3OU    C3  863   3.773   3.488   0.784 -0.2547  0.3017  0.0361
    2V3OU    H2  864   3.854   3.564   0.774 -0.3027  0.4380  0.6238
    2V3OU    H3  865   3.777   3.431   0.688  0.3972  1.5336 -0.6849
    2V3OU   C25  866   3.949   3.324   0.888  0.0474 -0.1814 -0.3125
    2V3OU    O7  867   4.001   3.301   0.779 -0.1368  0.3586 -0.5201
    2V3OU   C26  868   4.028   3.297   1.015 -0.3984 -0.0583 -0.0059
    2V3OU   H22  869   4.056   3.387   1.076 -0.7521  0.6152 -0.8103
    2V3OU   H23  870   4.118   3.235   0.992 -1.0544 -1.3622  0.8179
    2V3OU    O8  871   3.961   3.208   1.101 -0.4450 -0.3688 -0.3607
    2V3OU   H24  872   3.932   3.255   1.181 -3.3361 -1.1125 -0.8414
    2V3OU    C1  873   3.639   3.560   0.791 -0.1283  0.5345  0.0766
    2V3OU    H1  874   3.623   3.615   0.693  0.1209  0.8093  0.1895
    2V3OU    O3  875   3.656   3.650   0.900 -0.3230 -0.0777  0.6149
    2V3OU   C19  876   3.615   3.787   0.891  0.0933  0.0385  0.4881
    2V3OU    H9  877   3.521   3.801   0.829  2.3905 -0.0345 -3.3747
    2V3OU    O4  878   3.710   3.854   0.811 -0.0128 -0.1822  0.1752
    2V3OU   C20  879   3.845   3.868   0.856  0.0225  0.2841 -0.0723
    2V3OU   H10  880   3.887   3.765   0.875  1.1117  0.9915  1.4977
    2V3OU   C24  881   3.612   3.849   1.030  0.0529  0.6246  0.2289
    2V3OU   H16  882   3.550   3.784   1.097  1.2156  1.2692  2.0275
    2V3OU   H17  883   3.565   3.950   1.026 -1.8766  0.0107  3.4728
    2V3OU   C23  884   3.750   3.871   1.093  0.2915 -0.1963  0.0078
    2V3OU   H15  885   3.791   3.769   1.125 -1.4542 -1.1342 -0.6484
    2V3OU    N1  886   3.735   3.950   1.214 -0.0902  0.1245 -0.2439
    2V3OU   H19  887   3.811   3.913   1.269  1.3297  2.9576 -0.1279
    2V3OU   H20  888   3.642   3.934   1.247  0.9950 -2.6396  1.8484
    2V3OU   C21  889   3.846   3.940   0.991  0.1328  0.0736  0.0398
    2V3OU   H11  890   3.949   3.924   1.033 -0.0093  0.1622  0.4239
    2V3OU    O5  891   3.820   4.079   0.983  0.1240  0.0701 -0.0047
    2V3OU   H18  892   3.780   4.107   1.067 -1.9269 -0.8100 -0.6067
    2V3OU   C22  893   3.912   3.940   0.740 -0.0303 -0.2346 -0.4298
    2V3OU   H12  894   3.863   4.039   0.722 -1.1576 -0.7118 -0.0357
    2V3OU   H13  895   3.900   3.883   0.644 -0.0972  0.2079 -0.6869
    2V3OU   H14  896   4.018   3.965   0.766 -0.8671  2.2557  0.9181
    2V3OU   C11  897   3.152   3.472   0.832  0.1158 -0.6401 -0.8727
    2V3OU    O1  898   3.131   3.583   0.777  0.3803  0.0139  0.3274
    2V3OU    C9  899   3.291   3.424   0.852  0.1318 -0.3035 -0.1527
    2V3OU    C7  900   3.396   3.502   0.804 -0.1647  0.0019 -0.3111
    2V3OU    O9  901   3.381   3.611   0.721  0.3009  0.3113  0.0089
    2V3OU   H25  902   3.288   3.628   0.702  0.4184  2.2829  0.9952
    2V3OU   C17  903   2.816   3.317   0.894 -0.3891  0.3880 -0.0298
    2V3OU    H7  904   2.713   3.337   0.867 -0.9413 -1.6757  0.3770
    2V3OU   C18  905   2.847   3.212   0.980  0.3638  0.5541 -0.0935
    2V3OU    H8  906   2.774   3.158   1.041  3.4651 -0.9141  2.6139
    3SOL     OW  907   4.223   6.159   0.640  0.1519  0.3557 -0.2410
    3SOL    HW1  908   4.290   6.175   0.713  0.1131 -2.0358  0.4065
    3SOL    HW2  909   4.270   6.143   0.554  0.3111  0.6319 -0.2076
    4SOL     OW  910   2.908   0.511   0.969 -0.0834 -0.1179  0.5656
    4SOL    HW1  911   2.815   0.509   1.005 -1.1587 -0.0700 -1.9579
    4SOL    HW2  912   2.938   0.606   0.961 -0.3202 -0.0632  0.2734
    5SOL     OW  913   0.305   3.080   1.778  0.2960  0.2662  0.5875
    5SOL    HW1  914   0.213   3.052   1.807  0.3614 -1.0835 -0.3678
    5SOL    HW2  915   0.373   3.039   1.839  0.2978  0.6815  0.8689
    6SOL     OW  916   3.445   5.709   3.295  0.1933 -0.0430 -0.5404
    6SOL    HW1  917   3.458   5.611   3.276 -0.7782  0.0207 -1.6199
    6SOL    HW2  918   3.450   5.724   3.394 -0.0783 -1.2466 -0.3270
    7SOL     OW  919   4.809   1.500   5.266  0.1754 -0.1644  0.6566
    7SOL    HW1  920   4.902   1.467   5.247  0.6517  1.8783 -0.9003
    7SOL    HW2  921   4.751   1.422   5.293  1.9584 -1.7068  0.2752
    8SOL     OW  922   5.780   2.921   3.949  0.3891  0.3339  0.0496
    8SOL    HW1  923   5.780   3.000   4.010  1.0692 -0.0685  0.5815
    8SOL    HW2  924   5.846   2.936   3.875 -0.5174  0.8721 -0.6821
    9SOL     OW  925   3.366   5.508   0.753  0.5999 -0.1517  0.1694
    9SOL    HW1  926   3.406   5.538   0.666  0.5138 -0.4141  0.0362
    9SOL    HW2  927   3.284   5.562   0.772 -1.1530 -2.0648 -1.4476
   10SOL     OW  928   3.211   3.190   6.554  0.0656 -0.5742  0.3218
   10SOL    HW1  929   3.167   3.100   6.554 -0.4813 -0.3215 -0.5980
   10SOL    HW2  930   3.142   3.261   6.567  0.5140 -0.2812  1.1871
   11SOL     OW  931   6.383   0.122   1.719  0.3115  0.1986 -0.5180
   11SOL    HW1  932   6.480   0.106   1.703 -0.2284 -0.3691 -3.9046
   11SOL    HW2  933   6.337   0.138   1.632 -2.4825  1.6127  1.0768
   12SOL     OW  934   3.828   5.334   3.421 -0.3508 -0.6163  0.1834
   12SOL    HW1  935   3.748   5.275   3.412 -0.0817 -0.8520 -0.8716
   12SOL    HW2  936   3.812   5.403   3.491 -0.7033 -1.8879  1.3933
   13SOL     OW  937   2.955   4.675   0.042 -0.2633  0.2968 -0.4512
   13SOL    HW1  938   3.007   4.744  -0.009 -0.2328  0.4775 -0.1765
   13SOL    HW2  939   2.885   4.636  -0.018  2.6019 -2.8010 -2.1775
   14SOL     OW  940   1.601   6.163   4.810  0.1274  0.5335  0.1499
   14SOL    HW1  941   1.695   6.134   4.826  0.5378  2.1779  0.9533
   14SOL    HW2  942   1.540   6.121   4.877  0.4040  0.1067  0.1355
   15SOL     OW  943   5.746   5.537   2.657 -0.0309  0.4979  0.0178
   15SOL    HW1  944   5.649   5.543   2.634  0.3611 -0.3467 -2.1155
   15SOL    HW2  945   5.762   5.458   2.715 -0.5430  0.3161 -0.0842
   16SOL     OW  946   3.695   6.861   2.289  0.8802 -0.8878 -0.3374
   16SOL    HW1  947   3.694   6.898   2.382  2.1740 -1.3665 -0.1086
   16SOL    HW2  948   3.623   6.792   2.280  2.3652 -2.7597  1.1763
   17SOL     OW  949   5.767   5.879   6.560 -0.9340  0.2005  0.2280
   17SOL    HW1  950   5.721   5.952   6.610 -1.6554 -0.1489  0.0920
   17SOL    HW2  951   5.700   5.827   6.508 -0.2480  0.2882 -0.7652
   18SOL     OW  952   3.777   1.479   6.718  0.4479 -0.4754  0.1063
   18SOL    HW1  953   3.720   1.398   6.720  0.3840 -0.4243  0.5029
   18SOL    HW2  954   3.728   1.554   6.673  0.2421 -0.4624  0.3490
   19SOL     OW  955   1.566   6.723   0.573  0.2229 -0.4247 -0.3094
   19SOL    HW1  956   1.591   6.745   0.667 -2.0437 -3.5012  1.2166
   19SOL    HW2  957   1.500   6.789   0.539  1.0072  0.6754  0.2642
   20SOL     OW  958   6.634   4.188   4.164  0.1539  0.1648  0.1970
   20SOL    HW1  959   6.693   4.266   4.144 -0.5271  0.2901 -1.5294
   20SOL    HW2  960   6.666   4.108   4.113  1.7898 -1.2105  3.1414
   21SOL     OW  961   2.275   5.055   2.449 -0.3432  0.4635  0.1807
   21SOL    HW1  962   2.356   5.018   2.403 -1.5785 -2.6628  0.2948
   21SOL    HW2  963   2.228   5.117   2.386  0.9559  0.6435 -0.6736
   22SOL     OW  964   5.500   3.601   3.294  0.4596  0.0866 -0.1856
   22SOL    HW1  965   5.411   3.579   3.254 -0.6361  2.6593  0.6077
   22SOL    HW2  966   5.570   3.541   3.255 -1.6800 -2.5077 -0.3093
   23SOL     OW  967   0.199   2.152   6.327 -0.1972  0.1003  0.4277
   23SOL    HW1  968   0.295   2.175   6.309 -0.8609  1.4046 -1.9914
   23SOL    HW2  969   0.182   2.058   6.300 -0.0911  0.6185 -1.6333
   24SOL     OW  970   2.661   0.640   1.936 -0.0781 -0.3654 -0.9781
   24SOL    HW1  971   2.573   0.682   1.914  0.1475 -0.3971 -1.9935
   24SOL    HW2  972   2.654   0.541   1.923 -0.6625 -0.7364  1.5792
   25SOL     OW  973   6.504   2.356   6.513 -0.4375  0.2697  0.1001
   25SOL    HW1  974   6.551   2.419   6.452 -0.0567 -0.3551 -0.2621
   25SOL    HW2  975   6.462   2.407   6.588  0.4252  0.8856  0.1752
   26SOL     OW  976   5.065   1.145   3.108 -0.3912  0.1450  0.2683
   26SOL    HW1  977   4.977   1.190   3.096 -1.0904 -0.5083  2.5609
   26SOL    HW2  978   5.067   1.060   3.055 -0.8625  0.4888 -0.3113
   27SOL     OW  979   0.496   1.022   4.113  0.2276 -0.2147 -0.8424
   27SOL    HW1  980   0.459   1.012   4.021  0.1179 -2.6941 -0.6067
   27SOL    HW2  981   0.495   1.118   4.139 -0.4473  0.4662 -3.1166
   28SOL     OW  982   0.744   0.126   6.599 -0.0163  0.4569  0.2392
   28SOL    HW1  983   0.773   0.068   6.523 -0.0770 -0.8796  1.1851
   28SOL    HW2  984   0.678   0.076   6.656 -0.5605  1.7027  0.7538
   29SOL     OW  985   2.895   4.174   6.321 -0.4419 -0.3403  0.1131
   29SOL    HW1  986   2.898   4.179   6.221 -1.6444  0.0510  0.0838
   29SOL    HW2  987   2.927   4.084   6.351 -1.5031 -1.0220 -0.7219
   30SOL     OW  988   0.936   2.152   1.005  0.0093  0.3727  0.4637
   30SOL    HW1  989   0.908   2.246   0.987  0.1917  0.2236 -0.6805
   30SOL    HW2  990   0.930   2.133   1.103 -0.3604  1.4635  0.6602
   31SOL     OW  991   0.220   3.057   3.207 -0.0154  0.2817 -0.0269
   31SOL    HW1  992   0.189   3.127   3.271 -2.5957 -0.3628 -0.4564
   31SOL    HW2  993   0.166   2.973   3.221  0.1907 -0.2740 -2.2048
   32SOL     OW  994   2.942   5.565   2.974  0.0293  0.6554  0.0879
   32SOL    HW1  995   2.851   5.605   2.961  0.1303  1.1435  0.8230
   32SOL    HW2  996   2.935   5.465   2.966  0.1692  0.8042 -4.1160
   33SOL     OW  997   3.564   3.503   0.023  0.2292 -0.0455  0.4010
   33SOL    HW1  998   3.532   3.412   0.049  0.1852 -0.5936 -1.4829
   33SOL    HW2  999   3.553   3.517  -0.075  0.5581  1.8793  0.5834
   34SOL     OW 1000   6.493   0.762   5.051 -0.6149 -0.0735 -0.5288
   34SOL    HW1 1001   6.544   0.786   4.968 -1.0206 -1.0036 -1.0663
   34SOL    HW2 1002   6.424   0.832   5.068 -0.0028  0.5359 -0.5185
   35SOL     OW 1003   0.818   1.485   6.091  0.4270 -0.3214 -0.1497
   35SOL    HW1 1004   0.814   1.432   6.176  1.2623 -0.4043 -0.1568
   35SOL    HW2 1005   0.786   1.578   6.108  2.3509  0.2332  0.7196
   36SOL     OW 1006   2.906   0.797   5.095  0.2890 -0.9088 -0.0156
   36SOL    HW1 1007   3.000   0.768   5.108  0.3803  0.0692  1.8841
   36SOL    HW2 1008   2.855   0.725   5.047  1.3180 -2.6691  1.4167
   37SOL     OW 1009   3.726   5.466   0.702  0.2591  0.0256  0.6303
   37SOL    HW1 1010   3.636   5.511   0.698  0.0673 -0.4358 -0.5490
   37SOL    HW2 1011   3.781   5.508   0.775 -0.8557  0.4048  1.2824
   38SOL     OW 1012   3.685   3.763   5.397  0.0303 -0.4267  0.1570
   38SOL    HW1 1013   3.745   3.841   5.379  0.9624 -1.3706 -0.9200
   38SOL    HW2 1014   3.688   3.699   5.320 -1.6102 -0.9884  0.5075
   39SOL     OW 1015   6.879   2.980   2.181  0.0531  0.0235 -0.4719
   39SOL    HW1 1016   6.852   2.997   2.276  0.1638  1.9204 -0.7384
   39SOL    HW2 1017   6.926   3.061   2.145  2.1749 -1.5285 -1.4103
   40SOL     OW 1018   4.313   6.033   4.723 -0.0833 -0.1726 -0.0396
   40SOL    HW1 1019   4.354   6.035   4.632  1.2566 -1.7210  0.4861
   40SOL    HW2 1020   4.250   5.955   4.729 -1.4449  0.8772 -0.1190
   41SOL     OW 1021   1.195   4.201   5.984 -0.3718 -0.0365  0.4454
   41SOL    HW1 1022   1.266   4.160   6.041 -0.4128 -0.6943  0.0464
   41SOL    HW2 1023   1.223   4.196   5.888 -1.0434 -0.5188  0.2627
   42SOL     OW 1024   6.851   5.655   1.371  0.3205 -0.1816  0.0926
   42SOL    HW1 1025   6.931   5.628   1.318  0.5432  1.6035 -0.5460
   42SOL    HW2 1026   6.784   5.697   1.311 -0.6584 -0.6965  0.7994
   43SOL     OW 1027   2.617   6.702   4.175 -0.4629  0.7781  0.4013
   43SOL    HW1 1028   2.655   6.611   4.165 -1.2785  0.3134  1.3091
   43SOL    HW2 1029   2.600   6.742   4.085 -0.9811 -0.3521 -0.0211
   44SOL     OW 1030   5.418   1.833   4.792 -0.7105  0.1207  0.0067
   44SOL    HW1 1031   5.427   1.829   4.692  1.2714  0.7048  0.1075
   44SOL    HW2 1032   5.495   1.784   4.833  0.1305  2.2976  1.2044
   45SOL     OW 1033   1.174   5.217   1.677  0.4018 -0.3795 -0.7208
   45SOL    HW1 1034   1.142   5.255   1.764 -0.7633 -0.1458 -1.2392
   45SOL    HW2 1035   1.273   5.202   1.682  0.4607  0.2676  0.4019
   46SOL     OW 1036   6.938   1.751   6.192  0.1537 -0.0438 -0.2032
   46SOL    HW1 1037   6.888   1.670   6.221  1.8706 -1.5184 -1.1933
   46SOL    HW2 1038   6.939   1.818   6.266 -1.5224 -0.7809  0.5320
   47SOL     OW 1039   3.839   4.450   5.876  0.3477  0.2384  0.0424
   47SOL    HW1 1040   3.879   4.508   5.947 -0.4953  0.9416 -0.0448
   47SOL    HW2 1041   3.745   4.478   5.859 -0.5562 -2.0388  0.9421
   48SOL     OW 1042   5.769   2.632   1.466  0.6262 -0.0521 -0.4678
   48SOL    HW1 1043   5.813   2.660   1.381  1.3209  1.5105  0.3447
   48SOL    HW2 1044   5.699   2.699   1.491  0.5606 -0.3832  0.2733
   49SOL     OW 1045   4.886   2.598   3.301 -0.0565 -0.0138 -0.4760
   49SOL    HW1 1046   4.842   2.679   3.339 -0.7041 -0.7176  0.2959
   49SOL    HW2 1047   4.844   2.574   3.214 -1.1093 -0.5772  0.1716
   50SOL     OW 1048   6.001   4.423   0.141 -0.0220 -0.7557  0.0613
   50SOL    HW1 1049   6.093   4.387   0.158  1.2815  1.5172 -1.6825
   50SOL    HW2 1050   5.981   4.494   0.208 -0.0667 -0.4833 -0.2430
   51SOL     OW 1051   5.013   4.559   5.250 -0.4013 -0.3767  0.2471
   51SOL    HW1 1052   5.073   4.621   5.199  0.5249 -1.7540 -0.4304
   51SOL    HW2 1053   4.943   4.611   5.298  0.5727  1.1983  0.0271
   52SOL     OW 1054   3.629   1.173   2.533 -0.6489 -0.3696  0.1405
   52SOL    HW1 1055   3.666   1.188   2.625  0.5862  0.6322 -0.4883
   52SOL    HW2 1056   3.620   1.261   2.486 -0.5485 -0.9400 -0.9689
   53SOL     OW 1057   5.327   0.836   0.452  0.4556 -0.2503 -0.1330
   53SOL    HW1 1058   5.369   0.839   0.543 -0.3699 -0.7120  0.2794
   53SOL    HW2 1059   5.392   0.798   0.386  0.7602 -0.7635  0.4534
   54SOL     OW 1060   1.315   3.774   5.322 -0.2380 -0.1801 -0.0768
   54SOL    HW1 1061   1.239   3.745   5.381 -0.0020 -1.8635 -0.5280
   54SOL    HW2 1062   1.307   3.730   5.233  0.9193  0.1096 -0.3493
   55SOL     OW 1063   0.900   1.605   5.405 -0.2296  0.3855 -0.0411
   55SOL    HW1 1064   0.992   1.595   5.443  0.2322  1.9076 -0.6735
   55SOL    HW2 1065   0.889   1.697   5.367 -1.2114 -0.5119 -2.1117
   56SOL     OW 1066   0.366   1.636   3.455 -0.1438 -0.0020  0.6825
   56SOL    HW1 1067   0.340   1.637   3.552  1.1146  0.8230  1.0262
   56SOL    HW2 1068   0.402   1.725   3.429 -0.5918 -0.1701 -0.6047
   57SOL     OW 1069   1.677   4.631   1.187 -0.3898  0.3780  0.1581
   57SOL    HW1 1070   1.591   4.599   1.226  0.5768  0.1110  2.2413
   57SOL    HW2 1071   1.716   4.560   1.129 -0.2738 -0.6428  1.4316
   58SOL     OW 1072   6.820   1.705   5.390  0.7278 -0.9306  0.1672
   58SOL    HW1 1073   6.845   1.762   5.468 -0.3235 -2.4818  1.7107
   58SOL    HW2 1074   6.732   1.736   5.353  0.8434 -0.6966  0.0807
   59SOL     OW 1075   2.412   1.188   5.448 -0.3693  0.3751 -0.3696
   59SOL    HW1 1076   2.445   1.101   5.485  0.2131 -0.1542 -2.0331
   59SOL    HW2 1077   2.437   1.262   5.510  2.3436 -0.2237 -0.6194
   60SOL     OW 1078   1.099   3.784   4.010  0.1896  0.3091  0.0824
   60SOL    HW1 1079   1.024   3.740   3.961 -1.1085  0.8015  1.5511
   60SOL    HW2 1080   1.069   3.872   4.045  1.3603  0.3743  0.9932
   61SOL     OW 1081   6.686   2.953   2.863 -0.1108  0.0090 -0.3734
   61SOL    HW1 1082   6.745   2.981   2.938 -1.7223 -0.9984  1.3625
   61SOL    HW2 1083   6.651   2.861   2.881 -0.3584 -0.3534 -2.4996
   62SOL     OW 1084   6.843   0.276   5.903  0.1757  0.5061  0.0810
   62SOL    HW1 1085   6.747   0.249   5.911 -0.1639  1.2452 -1.1899
   62SOL    HW2 1086   6.902   0.203   5.936 -0.7610 -0.9153 -1.2711
   63SOL     OW 1087   0.499   3.403   2.267  0.2714 -0.6932 -0.3504
   63SOL    HW1 1088   0.412   3.361   2.239  0.3867 -1.5944  0.6211
   63SOL    HW2 1089   0.560   3.408   2.188 -0.3407 -0.8385 -0.8462
   64SOL     OW 1090   1.486   4.278   5.442 -0.3814  0.6201  1.0336
   64SOL    HW1 1091   1.427   4.203   5.414 -0.1680  0.7974  0.0739
   64SOL    HW2 1092   1.435   4.339   5.504 -0.7381  0.0139  1.3449
   65SOL     OW 1093   2.593   5.190   4.826 -0.3760 -1.0433  0.3225
   65SOL    HW1 1094   2.501   5.191   4.865 -1.2529 -2.5965 -1.5183
   65SOL    HW2 1095   2.587   5.196   4.727  1.3387 -3.3021  0.0003
   66SOL     OW 1096   6.023   0.544   3.136  0.0332 -0.0686 -0.6035
   66SOL    HW1 1097   6.034   0.472   3.205  0.8936  0.7322  0.1297
   66SOL    HW2 1098   6.087   0.528   3.061 -0.1805 -0.3796 -0.7212
   67SOL     OW 1099   2.269   4.449   4.875 -0.1356  0.0015 -0.0534
   67SOL    HW1 1100   2.354   4.432   4.924 -1.7753 -1.4136  2.5184
   67SOL    HW2 1101   2.199   4.482   4.939 -2.2095 -1.2657 -1.5207
   68SOL     OW 1102   2.866   2.317   6.724 -0.0645 -0.1313  0.3907
   68SOL    HW1 1103   2.815   2.307   6.809 -0.0945 -1.6081  0.2328
   68SOL    HW2 1104   2.912   2.406   6.722 -0.4381  0.1065  1.7330
   69SOL     OW 1105   6.938   4.394   6.929  0.1825  0.4838  0.2698
   69SOL    HW1 1106   6.854   4.345   6.951  0.4205  0.1399  0.4185
   69SOL    HW2 1107   7.002   4.333   6.883  0.6515  0.5247  0.8491
   70SOL     OW 1108   1.961   6.155   0.414  1.0363 -0.1501 -0.6173
   70SOL    HW1 1109   1.986   6.169   0.510  0.8279  5.3624 -1.0293
   70SOL    HW2 1110   1.865   6.180   0.401  1.1264 -0.5628 -2.3055
   71SOL     OW 1111   6.892   3.908   6.944  0.0494  0.6008  0.0023
   71SOL    HW1 1112   6.882   4.001   6.980  0.1056  0.6943 -0.2215
   71SOL    HW2 1113   6.837   3.898   6.861  3.4482  1.8552 -2.6426
   72SOL     OW 1114   6.076   6.765   0.401  0.7654  0.2107 -0.0731
   72SOL    HW1 1115   6.165   6.748   0.361  0.5120  0.2761 -0.6663
   72SOL    HW2 1116   6.066   6.709   0.484  1.3350  0.1722 -0.0300
   73SOL     OW 1117   4.421   6.465   2.888 -0.3166  0.2050 -0.1133
   73SOL    HW1 1118   4.326   6.480   2.915 -1.1175 -0.3832 -2.4250
   73SOL    HW2 1119   4.460   6.550   2.854 -0.0618  0.3851  0.5987
   74SOL     OW 1120   6.128   3.654   2.688  0.7087 -0.6738  0.1784
   74SOL    HW1 1121   6.085   3.576   2.642  1.4862 -1.4035  0.6578
   74SOL    HW2 1122   6.228   3.645   2.683  0.9104  1.7844 -2.2702
   75SOL     OW 1123   1.949   4.954   6.561  0.2148 -0.3606 -0.0634
   75SOL    HW1 1124   1.932   5.041   6.607  1.9766  0.6989 -1.3089
   75SOL    HW2 1125   2.042   4.924   6.581  0.0788 -1.2705 -0.7569
   76SOL     OW 1126   4.324   0.511   2.833 -0.3190  0.0234 -0.5665
   76SOL    HW1 1127   4.312   0.561   2.919 -0.4646 -0.2134 -0.4483
   76SOL    HW2 1128   4.244   0.455   2.815 -0.1573 -0.1662 -0.7017
   77SOL     OW 1129   1.131   6.256   4.106 -0.1127  0.0559 -0.3607
   77SOL    HW1 1130   1.140   6.346   4.149  0.2229  0.0672 -0.4575
   77SOL    HW2 1131   1.036   6.243   4.077 -1.0490 -1.0643  2.8074
   78SOL     OW 1132   3.123   1.113   1.945  0.2250 -0.0789  0.8739
   78SOL    HW1 1133   3.171   1.066   2.019  0.8259  0.2334  0.6867
   78SOL    HW2 1134   3.098   1.205   1.975 -1.0066 -0.5171  1.2629
   79SOL     OW 1135   2.106   3.699   3.963  0.3416 -0.0921  0.0090
   79SOL    HW1 1136   2.105   3.630   4.036  0.2386 -0.6355 -0.5053
   79SOL    HW2 1137   2.103   3.655   3.874 -0.5959  0.6085 -0.3205
   80SOL     OW 1138   6.242   5.768   0.004 -0.4103 -0.3780 -0.4567
   80SOL    HW1 1139   6.299   5.805   0.078 -0.1307 -0.6837 -0.5157
   80SOL    HW2 1140   6.267   5.812  -0.082 -1.5890  0.8961 -0.1933
   81SOL     OW 1141   5.006   2.086   6.736  0.2088  0.2200 -0.4093
   81SOL    HW1 1142   5.047   2.022   6.801  1.8043  1.2103 -0.4116
   81SOL    HW2 1143   4.908   2.066   6.728  0.9961 -4.1618 -2.5696
   82SOL     OW 1144   6.373   4.475   5.866 -0.1322 -0.3214 -0.0946
   82SOL    HW1 1145   6.439   4.452   5.938 -0.3308  0.1637  0.2495
   82SOL    HW2 1146   6.281   4.455   5.898 -0.1900 -0.5479 -0.3980
   83SOL     OW 1147   2.415   6.671   0.666 -0.8434  0.1190  0.2223
   83SOL    HW1 1148   2.400   6.767   0.689 -0.3164 -0.0919  1.5316
   83SOL    HW2 1149   2.377   6.652   0.575 -0.8824  1.5725 -0.0875
   84SOL     OW 1150   0.041   5.746   4.276 -0.5060  0.3811 -0.3045
   84SOL    HW1 1151   0.130   5.730   4.234  0.0271  1.7269  0.2554
   84SOL    HW2 1152  -0.027   5.760   4.205 -0.5435 -1.8039 -0.7654
   85SOL     OW 1153   6.836   1.482   6.988  0.1952 -0.7559 -0.2948
   85SOL    HW1 1154   6.800   1.395   6.955 -0.1693 -1.0520  0.8317
   85SOL    HW2 1155   6.930   1.493   6.957  0.5122 -1.9243  0.1992
   86SOL     OW 1156   6.872   6.292   4.657  0.8622  0.1116  0.2070
   86SOL    HW1 1157   6.924   6.258   4.735  1.6322  2.0298  0.5845
   86SOL    HW2 1158   6.906   6.249   4.573  1.1032 -0.7681  0.7392
   87SOL     OW 1159   4.017   4.173   1.210  0.2200 -0.0982 -0.1859
   87SOL    HW1 1160   4.078   4.119   1.151  0.1832 -0.4925  0.1359
   87SOL    HW2 1161   4.001   4.262   1.167 -1.0418 -0.9289 -1.5496
   88SOL     OW 1162   5.190   0.857   6.383 -0.3517 -0.4313  0.7809
   88SOL    HW1 1163   5.109   0.798   6.377 -0.6135 -0.0084 -0.0148
   88SOL    HW2 1164   5.271   0.801   6.399 -0.4272 -1.1626 -1.1237
   89SOL     OW 1165   4.519   3.844   1.098  0.0262  0.3889  0.2052
   89SOL    HW1 1166   4.615   3.818   1.083 -0.4154 -2.3274  1.3449
   89SOL    HW2 1167   4.508   3.942   1.083  3.0417  0.8559  0.3646
   90SOL     OW 1168   4.664   1.193   2.759  0.0868 -0.5015  0.3458
   90SOL    HW1 1169   4.729   1.263   2.729  0.1793  0.2821  2.1932
   90SOL    HW2 1170   4.576   1.208   2.716 -0.3393  1.7775  1.8364
   91SOL     OW 1171   2.237   1.176   5.945 -0.3034  0.2161 -0.6963
   91SOL    HW1 1172   2.223   1.271   5.916 -0.9740  1.0054  1.9143
   91SOL    HW2 1173   2.183   1.159   6.028  0.2558 -2.2989 -0.7919
   92SOL     OW 1174   5.734   3.441   4.839 -0.1532 -0.3171  0.3393
   92SOL    HW1 1175   5.712   3.345   4.855 -1.3894 -0.2690 -0.8876
   92SOL    HW2 1176   5.653   3.488   4.802 -0.1811  1.6317  2.5827
   93SOL     OW 1177   5.196   4.451   5.771  0.1261  0.2147  0.2379
   93SOL    HW1 1178   5.169   4.468   5.677  2.2045 -0.2698 -0.4839
   93SOL    HW2 1179   5.240   4.362   5.778 -1.1172 -0.3250  1.9434
   94SOL     OW 1180   4.721   1.574   3.440  0.4578  0.1666  0.0390
   94SOL    HW1 1181   4.649   1.587   3.371 -1.0057  2.1401  1.8207
   94SOL    HW2 1182   4.737   1.476   3.453  0.9153 -0.2955 -3.1562
   95SOL     OW 1183   0.048   2.238   0.158  0.3016  0.0232  0.1895
   95SOL    HW1 1184   0.111   2.192   0.221  0.4275  1.1041  0.8825
   95SOL    HW2 1185  -0.028   2.277   0.210 -1.0922 -1.4466 -0.6603
   96SOL     OW 1186   1.065   3.890   2.514  0.4644  0.5946  0.0865
   96SOL    HW1 1187   1.006   3.956   2.469  2.6597  1.9899 -0.8980
   96SOL    HW2 1188   1.057   3.801   2.470 -0.3397  0.9524 -0.4917
   97SOL     OW 1189   0.883   5.702   4.341  0.2796 -0.1995 -0.4722
   97SOL    HW1 1190   0.959   5.638   4.336  1.2928  1.0401 -2.2301
   97SOL    HW2 1191   0.841   5.698   4.432  1.0311 -2.4628 -0.1723
   98SOL     OW 1192   1.409   2.903   4.788 -0.5714  0.1212  0.2366
   98SOL    HW1 1193   1.480   2.832   4.783  0.4236  1.1774 -1.1198
   98SOL    HW2 1194   1.342   2.887   4.716 -1.8527 -0.9506  1.5959
   99SOL     OW 1195   3.223   3.013   2.256 -0.1454 -0.2411 -0.7210
   99SOL    HW1 1196   3.246   3.106   2.283  2.9210 -1.3716  0.9741
   99SOL    HW2 1197   3.290   2.980   2.189  0.2407 -2.0004  0.4805
  100SOL     OW 1198   0.125   5.051   3.413 -0.1433  0.0989  0.1045
  100SOL    HW1 1199   0.104   5.042   3.511  0.3534 -1.0026  0.1218
  100SOL    HW2 1200   0.211   5.099   3.402  0.6049 -1.1441  0.2932
  101SOL     OW 1201   1.613   2.028   6.597  0.5326 -0.3182 -0.3160
  101SOL    HW1 1202   1.560   2.097   6.646  1.4722  1.0411 -1.1480
  101SOL    HW2 1203   1.631   1.950   6.657  1.9307  1.4096  1.6646
  102SOL     OW 1204   5.535   2.745   3.125 -0.3728  0.3857 -0.2558
  102SOL    HW1 1205   5.552   2.823   3.186  0.9373 -0.2713  0.2549
  102SOL    HW2 1206   5.596   2.751   3.046  1.1990 -1.1448  0.7785
  103SOL     OW 1207   1.414   5.437   5.740 -0.2981 -0.4320 -0.4669
  103SOL    HW1 1208   1.360   5.376   5.798  1.0775  0.1000  1.4709
  103SOL    HW2 1209   1.414   5.529   5.778  3.0751 -0.6945  0.5120
  104SOL     OW 1210   5.711   3.206   4.152 -0.1112  0.1141 -0.5003
  104SOL    HW1 1211   5.651   3.278   4.120 -0.2285  0.4263  0.3878
  104SOL    HW2 1212   5.681   3.175   4.243  1.5711  0.9169  0.3798
  105SOL     OW 1213   5.314   5.444   6.790 -0.1898  0.2856  0.1983
  105SOL    HW1 1214   5.367   5.419   6.709 -1.4747 -1.9563 -0.0244
  105SOL    HW2 1215   5.335   5.380   6.865 -0.8636  0.7960  0.8426
  106SOL     OW 1216   6.446   0.627   0.608 -0.0190 -0.2050 -0.2361
  106SOL    HW1 1217   6.473   0.721   0.587  0.8017 -0.0873  1.2293
  106SOL    HW2 1218   6.483   0.601   0.698 -1.0513 -1.5979 -0.1907
  107SOL     OW 1219   6.621   2.123   1.212 -0.6179 -0.0835 -0.3263
  107SOL    HW1 1220   6.591   2.218   1.209  0.5335  0.2863 -0.9165
  107SOL    HW2 1221   6.717   2.118   1.182  0.2662 -1.0480  2.3785
  108SOL     OW 1222   4.097   6.874   6.860  0.3712 -0.3421  0.3072
  108SOL    HW1 1223   4.122   6.960   6.815 -0.9131 -0.1016  0.0205
  108SOL    HW2 1224   4.031   6.893   6.933 -0.8404 -1.1933 -0.5277
  109SOL     OW 1225   5.189   1.697   1.390 -0.6271 -0.3580  0.2925
  109SOL    HW1 1226   5.204   1.602   1.363 -2.0495 -0.8831  1.2929
  109SOL    HW2 1227   5.276   1.737   1.420 -0.2000 -1.6461  0.8271
  110SOL     OW 1228   6.648   5.717   2.094  0.0318 -0.1932  0.3537
  110SOL    HW1 1229   6.633   5.630   2.142 -0.4248 -0.1541  0.2896
  110SOL    HW2 1230   6.635   5.703   1.996  1.9151 -0.4947  0.1051
  111SOL     OW 1231   0.101   6.299   4.478 -0.3843  0.5099 -0.1734
  111SOL    HW1 1232   0.147   6.322   4.564 -0.4894 -0.7551  0.2522
  111SOL    HW2 1233   0.136   6.356   4.404  2.0278 -0.5314  0.0950
  112SOL     OW 1234   0.150   2.553   0.374 -0.8783 -0.0485 -0.4134
  112SOL    HW1 1235   0.234   2.576   0.326  0.5956  1.5969  2.6474
  112SOL    HW2 1236   0.096   2.636   0.389 -0.2046 -0.0067  2.4724
  113SOL     OW 1237   1.055   1.304   1.382  0.1290 -0.1020 -0.1587
  113SOL    HW1 1238   1.072   1.312   1.480 -1.7671  1.5477  0.0989
  113SOL    HW2 1239   1.139   1.325   1.332  0.2990  2.6567  1.0865
  114SOL     OW 1240   3.031   5.569   3.348  0.4791 -0.2956  0.0291
  114SOL    HW1 1241   3.014   5.665   3.372  0.4953 -0.5005  0.8648
  114SOL    HW2 1242   2.957   5.512   3.383  1.0462 -0.7339  0.5307
  115SOL     OW 1243   6.445   3.716   0.435  0.3098 -0.0580 -0.0390
  115SOL    HW1 1244   6.431   3.804   0.481  1.1540 -0.1499  0.4063
  115SOL    HW2 1245   6.386   3.647   0.476 -0.9101  0.4450 -0.8763
  116SOL     OW 1246   5.195   6.679   2.222  0.4633 -0.3941 -0.4395
  116SOL    HW1 1247   5.217   6.605   2.158 -0.6572 -1.3745  0.2798
  116SOL    HW2 1248   5.139   6.643   2.296  2.0812  0.6113  1.3522
  117SOL     OW 1249   3.271   4.064   1.943  0.3910 -0.8384  0.1027
  117SOL    HW1 1250   3.300   4.064   2.039 -0.4974  0.2886  0.3951
  117SOL    HW2 1251   3.333   4.122   1.890 -1.9353  2.8330  1.0070
  118SOL     OW 1252   2.053   0.666   1.717  0.0736 -0.1225 -0.1817
  118SOL    HW1 1253   2.123   0.630   1.778 -0.0133  1.2636  0.7733
  118SOL    HW2 1254   1.963   0.660   1.761 -0.1242  0.0139 -0.5600
  119SOL     OW 1255   6.338   6.697   2.504 -0.1752  0.0148  0.1156
  119SOL    HW1 1256   6.268   6.747   2.453 -0.9798 -0.7551  0.4201
  119SOL    HW2 1257   6.323   6.599   2.491  0.1689 -0.1710  1.0851
  120SOL     OW 1258   2.404   6.130   1.254 -0.5900 -0.5160 -0.0203
  120SOL    HW1 1259   2.331   6.116   1.188  0.3627 -0.4129 -1.1183
  120SOL    HW2 1260   2.485   6.166   1.208  0.3688 -1.2029  1.0544
  121SOL     OW 1261   1.616   0.191   2.017 -0.1984  0.2797  0.5051
  121SOL    HW1 1262   1.617   0.185   1.917 -1.8776  0.1389  0.4602
  121SOL    HW2 1263   1.678   0.122   2.055 -0.8513 -0.8766 -0.4302
  122SOL     OW 1264   4.777   1.923   3.148  0.6249 -0.3022 -0.5225
  122SOL    HW1 1265   4.712   1.921   3.223  0.0328 -2.6089 -1.0414
  122SOL    HW2 1266   4.772   2.012   3.102 -1.8197 -0.2386 -0.2527
  123SOL     OW 1267   3.069   3.985   4.699  0.1139  0.1232  0.2687
  123SOL    HW1 1268   3.040   4.028   4.614 -0.6853  1.2469  1.0796
  123SOL    HW2 1269   3.014   3.903   4.716 -1.4774  1.2844  0.9244
  124SOL     OW 1270   1.519   1.187   6.568 -0.5887  0.0035 -0.2384
  124SOL    HW1 1271   1.530   1.104   6.623  1.2674  0.4209  0.0864
  124SOL    HW2 1272   1.570   1.262   6.609  1.8445  0.0503 -3.0349
  125SOL     OW 1273   2.724   5.010   5.241  0.1649 -0.7580 -0.0225
  125SOL    HW1 1274   2.766   5.003   5.331 -0.2952 -1.4333  0.1457
  125SOL    HW2 1275   2.793   4.997   5.170  0.8692  1.4596  0.1777
  126SOL     OW 1276   4.943   4.118   3.729  0.0965 -0.2567  0.0142
  126SOL    HW1 1277   4.965   4.027   3.765 -1.5760 -0.9361 -0.5631
  126SOL    HW2 1278   4.846   4.121   3.705  0.0546  1.7888  0.2796
  127SOL     OW 1279   0.006   4.041   1.111  0.0297  0.2924 -0.0272
  127SOL    HW1 1280   0.095   4.000   1.091  0.7756  1.6758  0.3203
  127SOL    HW2 1281  -0.005   4.050   1.210 -1.3474 -1.6256  0.0385
  128SOL     OW 1282   5.786   5.648   3.102 -0.0273 -0.4511 -0.2386
  128SOL    HW1 1283   5.791   5.620   3.006 -0.7707 -4.5642  0.7226
  128SOL    HW2 1284   5.877   5.648   3.142 -0.0072 -1.9094 -0.2395
  129SOL     OW 1285   5.713   5.314   4.120 -0.3834 -0.1340 -0.8484
  129SOL    HW1 1286   5.659   5.364   4.052  2.2046  2.0375 -1.4666
  129SOL    HW2 1287   5.721   5.369   4.203  1.5850  0.0494 -1.1184
  130SOL     OW 1288   5.667   0.159   3.222 -0.3035 -0.3699 -0.0899
  130SOL    HW1 1289   5.585   0.215   3.229 -1.0779 -1.0846 -2.4112
  130SOL    HW2 1290   5.664   0.107   3.137  1.2312 -2.5851  1.1110
  131SOL     OW 1291   3.300   1.863   4.270 -0.4138  0.2160 -0.0718
  131SOL    HW1 1292   3.269   1.795   4.336  1.5589  0.5364  1.2856
  131SOL    HW2 1293   3.278   1.955   4.304  0.5168  0.3783  0.1425
  132SOL     OW 1294   0.575   5.393   0.802 -0.4628 -0.5619 -0.5253
  132SOL    HW1 1295   0.563   5.487   0.769  0.8704 -0.7856 -1.7724
  132SOL    HW2 1296   0.643   5.346   0.745 -0.4017 -1.9931  0.6567
  133SOL     OW 1297   6.828   6.049   6.835 -0.2340 -0.1663 -0.7621
  133SOL    HW1 1298   6.863   6.038   6.928  0.8907 -0.4075 -1.1901
  133SOL    HW2 1299   6.901   6.083   6.776 -0.6051 -1.0757 -1.7918
  134SOL     OW 1300   5.207   6.367   0.075  0.0115  0.1739 -0.2498
  134SOL    HW1 1301   5.161   6.364  -0.013 -0.9897  0.5719  0.2487
  134SOL    HW2 1302   5.172   6.444   0.129  1.1970  0.4396  0.1819
  135SOL     OW 1303   2.645   5.526   0.425 -0.0998  0.4080  0.0639
  135SOL    HW1 1304   2.641   5.437   0.380 -0.7159 -0.1231  1.1339
  135SOL    HW2 1305   2.737   5.563   0.417  0.3153 -0.5888  0.0908
  136SOL     OW 1306   5.280   4.272   1.795 -0.0812 -0.2878 -0.5402
  136SOL    HW1 1307   5.294   4.236   1.887  1.5434 -1.0728 -1.0664
  136SOL    HW2 1308   5.240   4.202   1.736 -1.9884  0.4818 -0.2720
  137SOL     OW 1309   1.983   6.537   1.222 -0.0989 -0.0100  0.5726
  137SOL    HW1 1310   2.009   6.460   1.281 -1.6207 -1.8169 -0.9803
  137SOL    HW2 1311   1.886   6.558   1.236  0.1235  1.1611  0.4293
  138SOL     OW 1312   0.823   5.389   6.530  0.1072  0.1349 -0.6894
  138SOL    HW1 1313   0.866   5.479   6.519 -3.0849  2.0786  1.0270
  138SOL    HW2 1314   0.811   5.347   6.440  3.0772  0.6232 -1.4028
  139SOL     OW 1315   1.346   5.107   2.003 -0.2205 -0.3014  0.2693
  139SOL    HW1 1316   1.283   5.051   1.947 -0.6484 -0.6615  1.0889
  139SOL    HW2 1317   1.305   5.122   2.093  0.0444  1.0734  0.1722
  140SOL     OW 1318   3.523   6.531   4.228 -0.1754 -0.1807  0.1441
  140SOL    HW1 1319   3.556   6.600   4.292  0.2602  0.9031 -1.2048
  140SOL    HW2 1320   3.459   6.573   4.164 -1.1540 -1.3987  0.2930
  141SOL     OW 1321   5.553   1.764   2.656  0.2728 -0.5380 -0.4949
  141SOL    HW1 1322   5.624   1.774   2.586  0.8737 -2.2276 -0.1697
  141SOL    HW2 1323   5.537   1.852   2.699  1.6402  0.0424 -1.1011
  142SOL     OW 1324   6.362   4.237   3.676  1.0747  0.1972 -0.0850
  142SOL    HW1 1325   6.290   4.175   3.644  1.2171  1.1946 -2.5079
  142SOL    HW2 1326   6.415   4.191   3.747  0.3912 -1.9781 -0.8811
  143SOL     OW 1327   2.960   6.126   4.290  0.1478  0.3409 -0.4179
  143SOL    HW1 1328   2.903   6.064   4.346  0.2633  0.4017 -0.2314
  143SOL    HW2 1329   2.945   6.220   4.319  0.1436  0.3808 -0.5497
  144SOL     OW 1330   0.395   3.306   3.976 -0.0725 -0.5388  0.1514
  144SOL    HW1 1331   0.373   3.229   4.037  0.7407 -0.9178 -0.0217
  144SOL    HW2 1332   0.444   3.272   3.896  1.3740  0.3027  0.6474
  145SOL     OW 1333   6.956   3.412   3.530 -0.0889  0.0457 -0.6267
  145SOL    HW1 1334   6.938   3.336   3.468 -0.4684  0.6207 -1.2252
  145SOL    HW2 1335   6.879   3.475   3.529 -0.8253 -0.7046  1.5975
  146SOL     OW 1336   3.425   6.029   1.161  0.2480  0.3393  0.7315
  146SOL    HW1 1337   3.368   6.080   1.224 -2.0989 -1.4054  0.1401
  146SOL    HW2 1338   3.434   6.081   1.075 -1.7817  0.0169  0.2713
  147SOL     OW 1339   6.800   3.855   0.601  0.1391 -0.6006 -0.6684
  147SOL    HW1 1340   6.725   3.909   0.640  0.4472  1.0238 -2.1893
  147SOL    HW2 1341   6.821   3.778   0.662 -2.1752 -0.6293  0.2230
  148SOL     OW 1342   3.863   0.321   4.298  0.4649 -0.9236  0.0082
  148SOL    HW1 1343   3.914   0.404   4.274  1.3491 -1.0834  1.2245
  148SOL    HW2 1344   3.916   0.241   4.269 -0.1139 -1.0840 -0.6339
  149SOL     OW 1345   2.401   2.748   7.016 -0.0056  0.2101  0.6393
  149SOL    HW1 1346   2.404   2.691   6.934 -0.5661  0.7504  0.2304
  149SOL    HW2 1347   2.308   2.784   7.028 -0.1712 -0.6239  2.0462
  150SOL     OW 1348   1.182   6.931   2.434 -0.1768  0.9094 -0.5939
  150SOL    HW1 1349   1.215   6.907   2.525 -0.3485  1.2749 -0.4299
  150SOL    HW2 1350   1.191   6.853   2.373  0.3565  0.7963 -0.3782
  151SOL     OW 1351   4.589   0.426   3.517  0.1925 -0.5606 -0.1967
  151SOL    HW1 1352   4.568   0.519   3.487  3.1243  1.4175  3.0061
  151SOL    HW2 1353   4.675   0.396   3.476  0.8275 -0.5527  1.0920
  152SOL     OW 1354   0.596   2.790   6.836  0.3773 -0.3307  0.4682
  152SOL    HW1 1355   0.692   2.771   6.815  0.3260 -0.0861  0.0109
  152SOL    HW2 1356   0.540   2.712   6.808  0.4213 -0.4065  0.5885
  153SOL     OW 1357   1.467   5.481   1.082 -0.0179  0.3622 -0.2602
  153SOL    HW1 1358   1.461   5.556   1.016 -1.2957 -0.1850 -0.8087
  153SOL    HW2 1359   1.375   5.453   1.108  0.4410 -1.0550 -0.1042
  154SOL     OW 1360   0.511   6.079   6.476  0.1843  0.5224  0.4542
  154SOL    HW1 1361   0.545   6.012   6.542  1.1430  0.9129  0.3760
  154SOL    HW2 1362   0.586   6.109   6.418 -0.2210  1.7000  0.5115
  155SOL     OW 1363   0.930   6.390   1.221  0.1436 -0.5965 -0.0797
  155SOL    HW1 1364   0.991   6.449   1.276  0.3785 -0.7414 -0.1823
  155SOL    HW2 1365   0.846   6.440   1.200 -0.2666 -0.7923  1.0404
  156SOL     OW 1366   0.604   0.721   1.547  0.1134 -0.2325 -0.2988
  156SOL    HW1 1367   0.521   0.667   1.531 -2.4015  3.6050 -1.7673
  156SOL    HW2 1368   0.633   0.763   1.461  0.5212  2.3922  1.0186
  157SOL     OW 1369   3.062   6.842   5.336 -0.2457 -0.2672 -0.8979
  157SOL    HW1 1370   3.064   6.941   5.348  1.3155 -0.4498  0.7343
  157SOL    HW2 1371   3.152   6.804   5.356 -0.2944 -1.8665 -3.2944
  158SOL     OW 1372   6.784   0.641   0.027 -0.4476 -0.0468  0.1078
  158SOL    HW1 1373   6.807   0.737   0.013 -0.4275 -0.1072 -0.2887
  158SOL    HW2 1374   6.836   0.584  -0.037  1.3599 -0.5447  1.9092
  159SOL     OW 1375   4.866   4.417   0.477 -0.7693  0.0915 -0.2659
  159SOL    HW1 1376   4.958   4.387   0.501 -0.5518  2.1230  1.7778
  159SOL    HW2 1377   4.864   4.448   0.382  1.1866  1.8025  0.1906
  160SOL     OW 1378   0.134   4.028   0.815  0.5266  0.6874 -0.9004
  160SOL    HW1 1379   0.183   3.964   0.874 -0.9076  1.9322  1.8201
  160SOL    HW2 1380   0.177   4.119   0.822 -1.0284  1.3866  0.1827
  161SOL     OW 1381   5.456   0.203   5.214  0.0963 -0.2117  0.1683
  161SOL    HW1 1382   5.398   0.278   5.185 -0.3188 -0.7253 -0.3498
  161SOL    HW2 1383   5.493   0.222   5.305 -1.4444 -0.1957  0.8158
  162SOL     OW 1384   3.162   4.829   6.934 -0.3897 -0.2693  0.0410
  162SOL    HW1 1385   3.244   4.780   6.903 -1.9810 -3.5118  0.5522
  162SOL    HW2 1386   3.184   4.881   7.016  1.3832 -0.1866 -0.4413
  163SOL     OW 1387   0.378   4.089   1.268 -0.1299  0.4004 -0.7814
  163SOL    HW1 1388   0.356   4.156   1.338 -0.0786  1.0176 -1.3473
  163SOL    HW2 1389   0.392   4.000   1.310 -1.6137  0.4371 -0.1804
  164SOL     OW 1390   2.118   0.003   3.709 -0.3237  0.1130  0.0515
  164SOL    HW1 1391   2.179  -0.036   3.639  1.5141 -0.2632  1.7762
  164SOL    HW2 1392   2.117   0.103   3.699 -0.9776  0.0128 -1.1672
  165SOL     OW 1393   6.457   1.378   3.289 -0.0033  0.5633  0.8985
  165SOL    HW1 1394   6.392   1.304   3.308  0.0223  0.4487  0.5544
  165SOL    HW2 1395   6.482   1.423   3.375 -0.4035  0.4972  1.0541
  166SOL     OW 1396   4.799   0.986   1.760  0.4849  0.0774  0.5933
  166SOL    HW1 1397   4.726   0.920   1.777 -0.7735  1.7410  2.0381
  166SOL    HW2 1398   4.815   1.040   1.843  1.2542  1.7573 -0.5909
  167SOL     OW 1399   4.440   1.890   4.236  0.4666  0.3180 -0.4725
  167SOL    HW1 1400   4.400   1.975   4.203 -0.4622  0.1393  0.1478
  167SOL    HW2 1401   4.472   1.903   4.330  1.2466  0.2604 -0.7235
  168SOL     OW 1402   6.312   1.202   4.365 -0.3894  0.4752 -0.1300
  168SOL    HW1 1403   6.262   1.261   4.302 -2.4477 -1.0660 -0.0341
  168SOL    HW2 1404   6.408   1.198   4.337 -1.0031  0.7313 -2.4984
  169SOL     OW 1405   3.791   0.569   0.015  0.0362  0.1015 -0.5564
  169SOL    HW1 1406   3.761   0.583   0.110  2.4490 -0.5276  0.3797
  169SOL    HW2 1407   3.789   0.472  -0.006  0.9824  0.0881 -0.6043
  170SOL     OW 1408   6.444   5.039   0.140  0.2825 -0.3139 -0.0301
  170SOL    HW1 1409   6.394   5.053   0.225 -0.4155  1.1988 -0.6598
  170SOL    HW2 1410   6.493   4.952   0.145 -0.0727 -0.4580  1.7382
  171SOL     OW 1411   1.223   1.841   0.661  0.0617 -0.1202  0.6844
  171SOL    HW1 1412   1.277   1.760   0.685 -1.8893 -2.3999 -1.9765
  171SOL    HW2 1413   1.136   1.839   0.711  0.3778  0.9091  1.3107
  172SOL     OW 1414   4.845   2.334   1.580 -0.1003  0.5014 -0.3554
  172SOL    HW1 1415   4.795   2.262   1.629  1.3621 -0.6965 -0.5328
  172SOL    HW2 1416   4.842   2.419   1.632 -0.4344 -0.1508  0.7169
  173SOL     OW 1417   6.460   1.297   1.998 -0.3382 -0.4315  0.1924
  173SOL    HW1 1418   6.386   1.361   1.979  0.5606  0.9692  1.1855
  173SOL    HW2 1419   6.515   1.285   1.915 -0.6349 -0.0606 -0.0635
  174SOL     OW 1420   2.720   2.218   0.781  0.0465 -0.0705 -0.0209
  174SOL    HW1 1421   2.797   2.170   0.822 -0.5782  0.0103  1.3162
  174SOL    HW2 1422   2.683   2.163   0.706  0.5191 -0.7935  0.2586
  175SOL     OW 1423   0.034   5.576   2.492  0.5451  0.4617  0.0796
  175SOL    HW1 1424  -0.064   5.588   2.508  0.1638 -1.1344 -0.8746
  175SOL    HW2 1425   0.081   5.570   2.579 -0.8604 -3.4752  0.7732
  176SOL     OW 1426   3.879   4.300   0.045  0.0697  0.5293 -0.6659
  176SOL    HW1 1427   3.814   4.343   0.106  0.7198 -0.4188  0.7374
  176SOL    HW2 1428   3.951   4.255   0.098  0.5904 -0.4389 -2.1116
  177SOL     OW 1429   1.796   6.921   1.789 -0.2371  0.6594  0.7882
  177SOL    HW1 1430   1.812   6.878   1.700 -2.3178  0.5439  0.4151
  177SOL    HW2 1431   1.731   6.866   1.842 -1.7761  2.5056  0.9278
  178SOL     OW 1432   5.407   0.069   0.497  0.2039  0.3066  0.2235
  178SOL    HW1 1433   5.399   0.141   0.567 -0.5275 -0.2584  0.7422
  178SOL    HW2 1434   5.352  -0.009   0.524 -1.5729  0.7465 -1.8702
  179SOL     OW 1435   6.050   6.034   5.534 -0.0495 -0.1460  0.0502
  179SOL    HW1 1436   6.135   6.041   5.586  0.9816 -2.7456 -1.0983
  179SOL    HW2 1437   6.058   5.960   5.468 -3.5174 -1.0343  0.4513
  180SOL     OW 1438   4.264   6.824   3.014 -0.3440  0.1542 -0.4552
  180SOL    HW1 1439   4.243   6.851   2.920  0.8945  0.6175 -0.6189
  180SOL    HW2 1440   4.361   6.837   3.032 -0.2329 -1.5214  0.3850
  181SOL     OW 1441   3.586   3.400   2.529  0.0762 -0.2860 -0.2675
  181SOL    HW1 1442   3.509   3.393   2.592 -0.0324  0.5907 -0.3024
  181SOL    HW2 1443   3.608   3.309   2.494 -0.1516 -0.7185  0.6833
  182SOL     OW 1444   1.087   3.862   2.801 -0.4708  0.1765 -0.6093
  182SOL    HW1 1445   1.104   3.865   2.702 -0.0034  2.4285 -0.5099
  182SOL    HW2 1446   1.164   3.904   2.849 -1.7322  1.2317  0.5523
  183SOL     OW 1447   5.096   5.885   5.658 -0.0719 -0.6462  0.0970
  183SOL    HW1 1448   5.004   5.924   5.649  0.1118  0.0684  1.0759
  183SOL    HW2 1449   5.158   5.931   5.595 -0.1179 -0.2167  0.3616
  184SOL     OW 1450   6.396   6.672   3.090  0.4469 -0.3652 -0.4711
  184SOL    HW1 1451   6.372   6.746   3.154 -0.5634 -0.5060 -0.6746
  184SOL    HW2 1452   6.480   6.628   3.121  0.9184  0.6896 -0.1912
  185SOL     OW 1453   3.844   6.174   6.985  0.6241  0.1736  0.0369
  185SOL    HW1 1454   3.861   6.135   6.895  1.0472 -0.7288  0.4874
  185SOL    HW2 1455   3.750   6.206   6.991 -0.2713 -2.2514  0.1367
  186SOL     OW 1456   2.031   5.804   4.480 -0.3367 -0.5612 -0.6301
  186SOL    HW1 1457   2.067   5.720   4.440  0.0480 -0.4230 -0.5749
  186SOL    HW2 1458   1.932   5.795   4.493 -0.3184 -0.9491 -0.7581
  187SOL     OW 1459   4.591   5.449   3.135 -0.0886  0.3434  0.5589
  187SOL    HW1 1460   4.602   5.401   3.048 -0.5717  0.3416  0.4930
  187SOL    HW2 1461   4.634   5.396   3.208 -0.9997 -0.4327  0.5622
  188SOL     OW 1462   3.879   0.634   2.807 -0.3037  0.0759  0.2659
  188SOL    HW1 1463   3.816   0.610   2.734  0.5530  0.0540 -0.4788
  188SOL    HW2 1464   3.869   0.730   2.830 -2.7606 -0.5691  2.2946
  189SOL     OW 1465   1.704   1.600   3.625 -1.1434  0.3734 -0.6152
  189SOL    HW1 1466   1.654   1.619   3.541 -1.5563  3.2743  0.1815
  189SOL    HW2 1467   1.797   1.636   3.618 -1.2574  0.8693  0.2385
  190SOL     OW 1468   1.833   6.931   3.752  0.2584 -0.1984 -0.1992
  190SOL    HW1 1469   1.823   6.913   3.850 -3.5575  1.6804 -0.0799
  190SOL    HW2 1470   1.912   6.990   3.737 -0.6235  1.7199  2.1365
  191SOL     OW 1471   6.470   0.297   0.848 -1.0596  0.2372  0.5789
  191SOL    HW1 1472   6.486   0.260   0.939 -0.6692 -0.8584  0.0798
  191SOL    HW2 1473   6.373   0.292   0.826 -1.1665  0.5934  0.9706
  192SOL     OW 1474   2.507   2.255   4.236  0.4387  0.2842 -0.1781
  192SOL    HW1 1475   2.456   2.336   4.207 -0.8993  0.3229  2.1057
  192SOL    HW2 1476   2.491   2.180   4.171 -2.4553  0.3369  0.3535
  193SOL     OW 1477   4.641   1.546   6.046 -0.2902 -0.2306  0.2600
  193SOL    HW1 1478   4.644   1.546   5.946 -0.4406 -0.9333  0.2446
  193SOL    HW2 1479   4.667   1.455   6.079  2.8834  0.8273  0.9929
  194SOL     OW 1480   3.070   1.077   3.493  0.0106 -0.0533  0.1817
  194SOL    HW1 1481   2.999   1.097   3.560  1.4898  2.3286  1.1457
  194SOL    HW2 1482   3.159   1.075   3.538  0.8229 -0.7091 -1.3583
  195SOL     OW 1483   1.217   2.599   5.384 -0.4824 -0.2858 -0.2999
  195SOL    HW1 1484   1.303   2.597   5.434 -0.1757  1.3277 -0.7039
  195SOL    HW2 1485   1.215   2.679   5.324 -1.4500 -1.3563 -1.7731
  196SOL     OW 1486   0.259   0.925   3.083 -0.1258  0.0638  0.5891
  196SOL    HW1 1487   0.161   0.908   3.068 -0.2600 -0.0632  1.5658
  196SOL    HW2 1488   0.278   1.021   3.065 -0.6005  0.2803  1.2131
  197SOL     OW 1489   2.058   2.343   4.720  0.2853  0.5756 -0.2471
  197SOL    HW1 1490   2.033   2.377   4.630  0.6955  0.5577 -0.3684
  197SOL    HW2 1491   2.012   2.398   4.790 -0.2655  0.4045 -0.4698
  198SOL     OW 1492   6.577   4.639   3.766 -0.2734 -0.5159 -0.5598
  198SOL    HW1 1493   6.538   4.554   3.802  0.1759 -0.4123  0.1942
  198SOL    HW2 1494   6.624   4.688   3.840  0.1750 -0.0136 -1.1696
  199SOL     OW 1495   2.296   0.555   5.952  0.3493  0.6435  0.3290
  199SOL    HW1 1496   2.353   0.513   6.023 -0.7676 -3.0590 -0.7263
  199SOL    HW2 1497   2.202   0.562   5.985  0.1314  0.3555 -0.2197
  200SOL     OW 1498   5.816   5.186   4.583  0.3009 -0.1866  0.1078
  200SOL    HW1 1499   5.831   5.151   4.675 -0.9598 -0.5071  0.2096
  200SOL    HW2 1500   5.902   5.183   4.532  0.8256 -0.8132  0.9989
  201SOL     OW 1501   1.623   3.744   5.851 -0.1347  0.0759 -0.6334
  201SOL    HW1 1502   1.560   3.740   5.773  1.0772 -2.5456 -1.5788
  201SOL    HW2 1503   1.654   3.652   5.874 -0.1636  0.7706  2.7976
  202SOL     OW 1504   0.414   5.082   5.743  0.3519 -0.3246  0.2851
  202SOL    HW1 1505   0.391   5.138   5.664  3.1773  0.4778 -0.0972
  202SOL    HW2 1506   0.420   5.140   5.824 -0.4421 -0.7754  0.6743
  203SOL     OW 1507   5.475   5.545   2.620 -0.4025  0.3735  0.5569
  203SOL    HW1 1508   5.403   5.493   2.665 -1.6171  1.7113  0.2504
  203SOL    HW2 1509   5.454   5.643   2.625  1.7362  0.8628  1.0142
  204SOL     OW 1510   6.043   0.576   4.892 -0.2685 -0.5884  0.3054
  204SOL    HW1 1511   6.054   0.574   4.992 -0.3579  0.5758  0.3456
  204SOL    HW2 1512   6.001   0.662   4.865  0.4737 -0.5632 -0.8148
  205SOL     OW 1513   2.751   4.227   1.262  0.2437  0.0809  0.1881
  205SOL    HW1 1514   2.814   4.301   1.238  0.8842 -0.3023  0.6346
  205SOL    HW2 1515   2.771   4.147   1.205  0.2253 -0.0673  0.3859
  206SOL     OW 1516   6.457   0.590   2.143  0.4674 -0.0730  0.4924
  206SOL    HW1 1517   6.545   0.546   2.127  0.4960  0.2062 -0.1498
  206SOL    HW2 1518   6.423   0.630   2.057  0.5013  1.2670  1.0851
  207SOL     OW 1519   0.147   3.139   4.692 -0.4424  0.1354  0.4677
  207SOL    HW1 1520   0.117   3.173   4.603  0.0414 -1.6197 -0.4199
  207SOL    HW2 1521   0.247   3.141   4.697 -0.4748  0.5779  1.1390
  208SOL     OW 1522   2.134   2.959   1.799 -0.1293  0.5126 -0.3322
  208SOL    HW1 1523   2.108   3.049   1.836 -0.0163 -0.0230  1.1309
  208SOL    HW2 1524   2.194   2.972   1.720 -1.1487  1.7273 -0.9405
  209SOL     OW 1525   2.381   5.542   0.278 -0.0634  0.0835 -0.3627
  209SOL    HW1 1526   2.460   5.528   0.338 -0.7018 -0.3152  0.4027
  209SOL    HW2 1527   2.351   5.454   0.240 -0.7296  0.0940  0.1230
  210SOL     OW 1528   3.000   0.689   6.005  0.2821 -0.1122  1.0463
  210SOL    HW1 1529   3.016   0.643   6.092  0.9521 -0.5027  0.7245
  210SOL    HW2 1530   3.085   0.733   5.974  0.2738 -0.6460  0.2159
  211SOL     OW 1531   3.954   4.503   6.260  0.1738 -0.0859 -0.0179
  211SOL    HW1 1532   4.054   4.500   6.263  0.2245 -0.1848 -1.2674
  211SOL    HW2 1533   3.919   4.417   6.222 -0.2897  0.6094 -1.2187
  212SOL     OW 1534   6.141   1.689   5.858 -0.1604 -0.2279  0.2229
  212SOL    HW1 1535   6.104   1.648   5.942 -0.4247 -1.3778 -0.4271
  212SOL    HW2 1536   6.158   1.617   5.791 -2.0499  0.8411 -1.5251
  213SOL     OW 1537   0.077   1.483   3.555  0.0630 -0.6327  0.2982
  213SOL    HW1 1538   0.111   1.500   3.463 -1.8674  0.8008 -0.2187
  213SOL    HW2 1539   0.140   1.524   3.622  0.5582 -0.1137 -0.4673
  214SOL     OW 1540   0.044   2.755   0.737  0.4072 -0.6426 -0.2659
  214SOL    HW1 1541  -0.051   2.736   0.714 -0.8998  2.0488  2.3142
  214SOL    HW2 1542   0.073   2.840   0.694  1.1121 -0.6169  0.2302
  215SOL     OW 1543   1.536   5.480   3.370  0.1727 -0.4927  0.0214
  215SOL    HW1 1544   1.563   5.418   3.296 -0.6258 -0.4115 -0.3531
  215SOL    HW2 1545   1.457   5.441   3.418  0.5653 -0.4486  0.7073
  216SOL     OW 1546   4.957   3.658   4.825  0.2814 -0.4988 -0.3896
  216SOL    HW1 1547   4.890   3.650   4.899 -0.4413 -3.0794 -1.2265
  216SOL    HW2 1548   4.956   3.752   4.789  1.0875  1.0266  3.1477
  217SOL     OW 1549   2.168   5.960   0.575  0.0075  0.0604  0.4148
  217SOL    HW1 1550   2.225   6.027   0.527 -0.7492  0.9652  0.7298
  217SOL    HW2 1551   2.120   5.903   0.509  0.9725 -0.4600  0.1448
  218SOL     OW 1552   3.242   1.418   4.330 -0.1949  0.1194  0.3930
  218SOL    HW1 1553   3.338   1.392   4.323 -0.5483 -0.8660 -1.4217
  218SOL    HW2 1554   3.235   1.516   4.347  1.1315  0.4144 -0.6306
  219SOL     OW 1555   0.615   5.807   2.207 -0.2051 -0.4971 -0.3490
  219SOL    HW1 1556   0.529   5.838   2.166  0.8199  1.1380 -1.4045
  219SOL    HW2 1557   0.689   5.867   2.176  1.1932 -1.3845  1.1574
  220SOL     OW 1558   4.360   0.976   5.725  0.0489  0.0112  0.1611
  220SOL    HW1 1559   4.453   0.963   5.693 -0.8661 -0.5797 -2.4862
  220SOL    HW2 1560   4.331   0.895   5.777  0.9293  0.1445  0.8822
  221SOL     OW 1561   2.474   6.709   1.015  0.0780 -0.1053  0.7832
  221SOL    HW1 1562   2.520   6.742   0.933 -2.5444 -1.1133 -1.2403
  221SOL    HW2 1563   2.529   6.636   1.056  0.8450 -0.4986 -0.8486
  222SOL     OW 1564   2.935   2.867   1.194  0.4321 -0.2798 -0.3478
  222SOL    HW1 1565   2.918   2.775   1.230 -1.3839 -0.6198 -1.9464
  222SOL    HW2 1566   2.968   2.860   1.099  0.3287  0.7224 -0.4703
  223SOL     OW 1567   5.237   1.909   4.187  0.0478 -0.0182  0.2623
  223SOL    HW1 1568   5.233   1.858   4.274 -0.0887 -0.2904  0.0983
  223SOL    HW2 1569   5.202   2.002   4.201 -1.4660 -0.5439  0.1573
  224SOL     OW 1570   0.950   0.865   2.880 -0.0710  0.0077 -0.7758
  224SOL    HW1 1571   1.033   0.921   2.885 -0.9204  1.5080 -2.4651
  224SOL    HW2 1572   0.975   0.773   2.850  1.0616  0.1914 -0.4614
  225SOL     OW 1573   1.920   0.527   2.197 -0.2877 -0.1335  0.2705
  225SOL    HW1 1574   1.852   0.595   2.171  0.5043  0.6271  0.1485
  225SOL    HW2 1575   1.929   0.459   2.124  0.0017  0.4960 -0.2938
  226SOL     OW 1576   3.527   0.951   1.199 -0.1526 -0.5470  0.5637
  226SOL    HW1 1577   3.504   0.870   1.145  0.1616 -0.8647  0.9116
  226SOL    HW2 1578   3.624   0.972   1.188 -0.5241  0.6879 -0.7517
  227SOL     OW 1579   3.998   1.461   0.867  0.6848 -0.7573 -0.4029
  227SOL    HW1 1580   4.017   1.403   0.946 -1.1612  0.0215  0.6704
  227SOL    HW2 1581   4.044   1.549   0.879 -0.7686 -0.0937  0.5757
  228SOL     OW 1582   5.121   4.062   4.952  0.3366  0.6277  0.3169
  228SOL    HW1 1583   5.138   4.146   5.004 -0.4125  0.3948  0.9617
  228SOL    HW2 1584   5.115   4.084   4.855 -0.2396  1.3968  0.5100
  229SOL     OW 1585   0.868   0.045   3.701  0.4774  0.3314  0.1147
  229SOL    HW1 1586   0.779   0.050   3.745  0.9372  1.5324  0.9640
  229SOL    HW2 1587   0.930  -0.009   3.757  0.7894  1.0567  0.4925
  230SOL     OW 1588   1.334   6.810   2.623  0.5224 -0.0190 -0.2692
  230SOL    HW1 1589   1.317   6.713   2.639  0.1326  0.1621  0.4882
  230SOL    HW2 1590   1.358   6.854   2.710  1.7922  0.3503 -0.7874
  231SOL     OW 1591   6.932   1.898   3.902  0.7374  0.2940 -0.5475
  231SOL    HW1 1592   7.024   1.871   3.874  0.4356  0.0599 -1.3430
  231SOL    HW2 1593   6.934   1.926   3.998  1.6876  0.5464 -0.6251
  232SOL     OW 1594   4.520   1.817   3.574  0.2319 -0.3884  0.6683
  232SOL    HW1 1595   4.447   1.749   3.576  0.5366 -0.7268  0.5027
  232SOL    HW2 1596   4.522   1.866   3.661 -0.9279  0.4262  0.2474
  233SOL     OW 1597   5.763   1.094   4.369  0.3004  0.6266 -0.0028
  233SOL    HW1 1598   5.854   1.068   4.401  0.8690  1.6055 -0.7381
  233SOL    HW2 1599   5.755   1.071   4.272 -1.0103 -1.3460  0.5112
  234SOL     OW 1600   3.671   1.699   2.533  0.5026  0.5258 -0.8284
  234SOL    HW1 1601   3.665   1.759   2.453  1.6679  1.0617 -0.5445
  234SOL    HW2 1602   3.676   1.755   2.616  1.1118  0.0322 -0.5229
  235SOL     OW 1603   4.922   4.554   4.089  0.1752  0.0701 -0.5167
  235SOL    HW1 1604   4.839   4.552   4.145  1.0785 -1.4188  0.8700
  235SOL    HW2 1605   4.929   4.468   4.037  1.9134 -0.8623  1.1263
  236SOL     OW 1606   1.729   2.941   3.415 -0.0529 -0.0113  0.2871
  236SOL    HW1 1607   1.633   2.971   3.416  0.2295  0.9090  1.1887
  236SOL    HW2 1608   1.780   2.990   3.486  1.5026  0.8535 -1.3412
  237SOL     OW 1609   1.455   6.837   5.725 -0.0382 -0.4627 -0.0779
  237SOL    HW1 1610   1.553   6.852   5.737 -0.2243  0.1709  0.7203
  237SOL    HW2 1611   1.418   6.794   5.807 -0.9682  2.0851  0.9529
  238SOL     OW 1612   5.346   6.055   1.793  0.0123 -0.3080  0.0451
  238SOL    HW1 1613   5.431   6.054   1.740 -0.0067  2.5821 -0.2025
  238SOL    HW2 1614   5.277   6.109   1.745 -1.5358 -1.4076  0.9254
  239SOL     OW 1615   6.514   0.384   4.206 -0.0403  0.4640  0.0388
  239SOL    HW1 1616   6.419   0.375   4.237 -0.1080 -1.5021 -0.5884
  239SOL    HW2 1617   6.517   0.444   4.127 -0.8520  0.2064 -0.2015
  240SOL     OW 1618   4.992   4.518   4.504  0.2967  0.3788 -0.1229
  240SOL    HW1 1619   4.991   4.536   4.603 -0.3951  0.5713 -0.1598
  240SOL    HW2 1620   5.084   4.534   4.468  0.0596  2.5384  0.1053
  241SOL     OW 1621   2.317   6.957   3.524  0.4356  0.6012  0.0616
  241SOL    HW1 1622   2.305   7.023   3.449  0.5274  0.4056 -0.1259
  241SOL    HW2 1623   2.414   6.953   3.549  0.7991 -1.0786 -1.4204
  242SOL     OW 1624   2.503   5.733   0.855 -0.5257 -0.8713  0.9162
  242SOL    HW1 1625   2.417   5.779   0.877  0.1222  1.1221 -0.4355
  242SOL    HW2 1626   2.506   5.714   0.757  1.0804  0.2604  0.7073
  243SOL     OW 1627   3.321   1.934   5.035 -0.1811 -0.1470  0.2625
  243SOL    HW1 1628   3.253   1.998   5.001  2.0166  1.0969 -2.2154
  243SOL    HW2 1629   3.341   1.866   4.965  0.6079 -0.9217  1.2012
  244SOL     OW 1630   1.457   0.832   1.586  0.0383  0.0551  0.0481
  244SOL    HW1 1631   1.432   0.920   1.625 -0.9749 -0.7681  1.3497
  244SOL    HW2 1632   1.525   0.787   1.644 -0.1863 -0.4416 -0.0629
  245SOL     OW 1633   1.923   2.703   2.053  0.1924  0.5671 -0.0341
  245SOL    HW1 1634   2.002   2.743   2.099 -0.6889  2.2922  0.0706
  245SOL    HW2 1635   1.931   2.717   1.955  0.4822 -0.1586 -0.1207
  246SOL     OW 1636   6.608   6.360   4.533  0.2146  0.2231 -0.3017
  246SOL    HW1 1637   6.670   6.345   4.611 -1.5930  1.3203  1.4539
  246SOL    HW2 1638   6.602   6.458   4.515  0.9169 -0.0327 -2.1765
  247SOL     OW 1639   0.217   0.934   4.512  0.0631 -0.1930  0.2936
  247SOL    HW1 1640   0.197   1.001   4.583  0.0862  1.0312 -0.8205
  247SOL    HW2 1641   0.294   0.877   4.541 -0.5055 -0.3217  1.6189
  248SOL     OW 1642   6.830   4.696   3.941 -0.4917 -0.5963 -0.3012
  248SOL    HW1 1643   6.800   4.704   4.036 -1.3138 -1.4390 -0.4798
  248SOL    HW2 1644   6.880   4.610   3.929  2.1517  0.7793  0.0055
  249SOL     OW 1645   4.205   6.035   2.527  0.5003 -0.8198  0.1271
  249SOL    HW1 1646   4.267   5.958   2.511  2.8026  0.8289  0.5943
  249SOL    HW2 1647   4.152   6.019   2.611  1.2898 -1.6704  0.4783
  250SOL     OW 1648   3.354   1.659   4.686 -0.0526  0.1696 -0.0936
  250SOL    HW1 1649   3.430   1.717   4.716 -0.9290  1.0752  0.4586
  250SOL    HW2 1650   3.376   1.563   4.703  0.1215  0.5448  2.0785
  251SOL     OW 1651   1.907   1.334   1.886  0.0210  0.0869 -0.2480
  251SOL    HW1 1652   1.994   1.312   1.930  0.8975  1.6380 -1.1144
  251SOL    HW2 1653   1.888   1.267   1.814  1.4502  0.7564 -1.2892
  252SOL     OW 1654   5.211   5.016   2.108  0.2542 -0.2024  0.5455
  252SOL    HW1 1655   5.302   4.975   2.098  0.0370 -0.6962  0.5594
  252SOL    HW2 1656   5.218   5.115   2.100  1.0174 -0.1084  2.0419
  253SOL     OW 1657   4.646   5.965   3.508  0.1033 -0.0405  0.0880
  253SOL    HW1 1658   4.580   5.912   3.562  0.8203 -0.8268  0.2155
  253SOL    HW2 1659   4.630   6.062   3.522  0.0897 -0.2255  1.5153
  254SOL     OW 1660   4.413   1.422   1.541 -0.3046  0.2601 -0.2111
  254SOL    HW1 1661   4.382   1.448   1.632 -1.7480  1.2271 -0.9348
  254SOL    HW2 1662   4.493   1.476   1.516  0.6389 -0.6393  0.8082
  255SOL     OW 1663   5.968   4.785   5.333  0.3641  0.0720 -0.0198
  255SOL    HW1 1664   5.880   4.833   5.327 -0.2157 -0.5847  2.0992
  255SOL    HW2 1665   5.957   4.692   5.297  0.1833  0.0091  0.1899
  256SOL     OW 1666   2.785   3.396   0.299 -0.2741 -0.2936 -0.5403
  256SOL    HW1 1667   2.862   3.420   0.358  1.1948 -1.0038 -2.0677
  256SOL    HW2 1668   2.786   3.298   0.282 -2.0294 -0.4413  0.0446
  257SOL     OW 1669   0.830   4.506   4.259  0.3248  0.2768  0.7104
  257SOL    HW1 1670   0.759   4.569   4.292 -1.4478  0.6693 -3.1799
  257SOL    HW2 1671   0.787   4.420   4.232  1.7586 -0.4061  0.5239
  258SOL     OW 1672   5.294   6.050   6.634  0.4662 -0.7058 -0.1316
  258SOL    HW1 1673   5.277   6.041   6.732  1.7979 -3.6289 -0.0642
  258SOL    HW2 1674   5.206   6.054   6.585 -0.2127  0.6992  1.1266
  259SOL     OW 1675   1.421   5.382   1.998  0.3103 -0.0532  0.0629
  259SOL    HW1 1676   1.510   5.369   2.042 -0.0597 -0.8776  0.6021
  259SOL    HW2 1677   1.373   5.294   1.995 -0.3512  0.3236 -0.5168
  260SOL     OW 1678   6.022   3.025   0.839  0.6137 -0.0578 -0.0853
  260SOL    HW1 1679   6.002   2.929   0.824 -1.1686  0.1771  0.4783
  260SOL    HW2 1680   6.000   3.077   0.756 -1.4488  0.2123  0.5625
  261SOL     OW 1681   0.079   3.129   5.195  0.3341  0.1841  1.1554
  261SOL    HW1 1682   0.105   3.158   5.287  1.5611  1.1479  0.5340
  261SOL    HW2 1683   0.133   3.180   5.127 -1.0774  0.0529 -0.1237
  262SOL     OW 1684   5.028   0.788   5.455 -0.4616  0.3975 -0.0769
  262SOL    HW1 1685   5.013   0.886   5.441  0.9741  0.9050  1.5817
  262SOL    HW2 1686   5.066   0.773   5.546 -2.2211 -1.9069  0.3632
  263SOL     OW 1687   3.100   0.526   3.208 -0.0531 -0.6353 -0.3789
  263SOL    HW1 1688   3.137   0.436   3.183  0.1008 -1.2875  1.9711
  263SOL    HW2 1689   3.166   0.573   3.267 -0.7960  0.3596 -0.3328
  264SOL     OW 1690   3.780   6.980   1.206 -0.1473  0.1801  0.0167
  264SOL    HW1 1691   3.829   7.060   1.242  0.3940  0.6837 -1.7356
  264SOL    HW2 1692   3.831   6.897   1.230  0.0250  0.4655  0.6694
  265SOL     OW 1693   2.070   1.350   2.129 -0.2962  0.0335 -0.1498
  265SOL    HW1 1694   1.990   1.318   2.180  0.3429  0.4503  1.1705
  265SOL    HW2 1695   2.139   1.277   2.127  1.1106  1.1215  2.7503
  266SOL     OW 1696   6.652   6.204   2.232  0.0913  0.4102 -0.3128
  266SOL    HW1 1697   6.664   6.142   2.154 -0.5853 -1.6191  1.1002
  266SOL    HW2 1698   6.729   6.194   2.295  0.9479  2.4927 -0.9277
  267SOL     OW 1699   1.549   2.719   0.358 -0.0750 -0.6371 -0.1952
  267SOL    HW1 1700   1.467   2.773   0.378  0.9397  1.4307 -1.2633
  267SOL    HW2 1701   1.551   2.638   0.416 -1.3991  0.7763  1.9616
  268SOL     OW 1702   2.867   2.251   1.354 -0.2770  0.1348  0.5811
  268SOL    HW1 1703   2.948   2.211   1.397  1.2569  2.1015 -0.3539
  268SOL    HW2 1704   2.785   2.221   1.404  0.9857 -1.8436  1.5928
  269SOL     OW 1705   6.312   5.975   0.513 -0.0885 -0.2531 -0.3359
  269SOL    HW1 1706   6.356   6.064   0.527 -0.8812  0.5237 -2.3689
  269SOL    HW2 1707   6.285   5.937   0.601  0.9590  1.1496  0.6457
  270SOL     OW 1708   1.878   2.078   0.333  0.2396 -0.1957  0.1022
  270SOL    HW1 1709   1.840   2.161   0.291  0.0596  0.6884  1.9302
  270SOL    HW2 1710   1.804   2.021   0.368  0.4246 -0.3946  0.1684
  271SOL     OW 1711   2.524   1.818   0.206  0.0291  0.7021  0.1784
  271SOL    HW1 1712   2.447   1.871   0.241  0.1010  1.0673 -0.2168
  271SOL    HW2 1713   2.510   1.798   0.109  0.8793  1.5895 -0.1421
  272SOL     OW 1714   1.638   5.353   2.741 -0.0690 -0.2170  0.0567
  272SOL    HW1 1715   1.632   5.451   2.758 -1.3515 -0.6139  2.2582
  272SOL    HW2 1716   1.728   5.331   2.704 -0.0566  1.8634 -1.3678
  273SOL     OW 1717   4.161   3.172   1.846  0.5647  0.1971 -0.5104
  273SOL    HW1 1718   4.126   3.263   1.825  1.9193  0.6781 -0.8038
  273SOL    HW2 1719   4.137   3.147   1.940  1.0788  1.3100 -0.0655
  274SOL     OW 1720   4.901   3.444   0.891 -0.4269  0.3536  0.5643
  274SOL    HW1 1721   4.834   3.375   0.865 -0.4660 -0.1392  1.9171
  274SOL    HW2 1722   4.945   3.481   0.809 -0.2946 -1.3782 -0.1740
  275SOL     OW 1723   5.770   0.719   6.100 -0.2629  0.0251  0.0378
  275SOL    HW1 1724   5.705   0.652   6.064  0.9415  0.1465 -2.5948
  275SOL    HW2 1725   5.840   0.738   6.031  0.0408  3.2387  1.0770
  276SOL     OW 1726   6.145   3.947   4.690  0.0528  0.3854  0.3384
  276SOL    HW1 1727   6.212   3.880   4.659  0.7565 -0.1456  2.7857
  276SOL    HW2 1728   6.178   3.991   4.774 -1.4522  2.1271  0.0789
  277SOL     OW 1729   6.116   6.355   2.223 -0.5315  0.1452 -0.0569
  277SOL    HW1 1730   6.173   6.290   2.274 -1.4145 -1.0026 -0.4701
  277SOL    HW2 1731   6.163   6.443   2.216  1.0032 -0.6427 -0.0618
  278SOL     OW 1732   1.174   3.547   4.505 -0.6557 -0.5899  0.3473
  278SOL    HW1 1733   1.113   3.591   4.439 -1.5774  0.3271  1.7531
  278SOL    HW2 1734   1.252   3.605   4.523 -0.4767 -0.7757  0.1755
  279SOL     OW 1735   5.731   0.503   5.782 -0.4765 -0.1531  0.5619
  279SOL    HW1 1736   5.830   0.490   5.789 -0.3459 -0.0747 -0.8291
  279SOL    HW2 1737   5.711   0.589   5.736 -1.1359 -1.1863 -1.1764
  280SOL     OW 1738   1.245   3.988   6.398 -0.2809 -0.2022  0.7556
  280SOL    HW1 1739   1.168   3.949   6.449  0.7425 -0.6885  1.9963
  280SOL    HW2 1740   1.331   3.956   6.439  0.6079 -0.8778 -1.5146
  281SOL     OW 1741   5.944   5.630   3.922 -0.4991 -0.0765 -0.1491
  281SOL    HW1 1742   6.022   5.633   3.985 -0.8572 -1.0488  0.3691
  281SOL    HW2 1743   5.909   5.723   3.908  1.5267  0.5806 -1.4299
  282SOL     OW 1744   4.087   0.055   3.759  0.6178  0.1502 -0.2130
  282SOL    HW1 1745   4.173   0.059   3.811  0.1079 -0.4469  0.7101
  282SOL    HW2 1746   4.095   0.110   3.676  1.8359  0.2330 -0.0549
  283SOL     OW 1747   1.637   3.335   5.252  0.5684  0.1025 -0.2406
  283SOL    HW1 1748   1.670   3.399   5.183  0.7928  0.9565  0.6402
  283SOL    HW2 1749   1.619   3.246   5.209  3.0245 -0.1187 -0.9415
  284SOL     OW 1750   6.580   0.393   5.106  0.6395  0.3627  0.3268
  284SOL    HW1 1751   6.633   0.470   5.071  2.0378 -0.3803  0.7277
  284SOL    HW2 1752   6.584   0.393   5.206 -0.7171  0.6867  0.3932
  285SOL     OW 1753   2.034   5.655   2.201  0.5490  0.2304 -0.3153
  285SOL    HW1 1754   2.129   5.656   2.172  0.3247  0.1015 -1.0770
  285SOL    HW2 1755   2.028   5.631   2.298  1.3910  1.7071  0.1325
  286SOL     OW 1756   3.181   5.098   5.407  0.3417  0.3669  0.1756
  286SOL    HW1 1757   3.096   5.146   5.429  0.0326 -0.6509  1.3686
  286SOL    HW2 1758   3.240   5.157   5.352 -0.3938  1.7534  0.8237
  287SOL     OW 1759   2.052   0.450   6.745  0.0406  0.2560  0.1456
  287SOL    HW1 1760   2.035   0.366   6.797 -0.4745 -1.3017 -2.3655
  287SOL    HW2 1761   2.123   0.504   6.790 -0.4363 -0.9448  2.4369
  288SOL     OW 1762   5.886   1.789   1.280 -0.6779 -0.3040 -0.5925
  288SOL    HW1 1763   5.831   1.706   1.274 -0.4627 -0.4795 -0.1411
  288SOL    HW2 1764   5.826   1.867   1.299 -0.6512 -0.6659  1.0943
  289SOL     OW 1765   5.550   0.749   4.896  0.1857 -0.0233  0.4229
  289SOL    HW1 1766   5.466   0.721   4.851  0.5014 -1.0322  0.4219
  289SOL    HW2 1767   5.615   0.672   4.895  1.1292  0.7623  0.3477
  290SOL     OW 1768   5.505   6.889   1.613 -0.3217 -0.1665 -0.3905
  290SOL    HW1 1769   5.552   6.859   1.696  0.2080 -0.2783 -0.7278
  290SOL    HW2 1770   5.426   6.945   1.638  0.0760  0.1507  0.1800
  291SOL     OW 1771   4.996   5.009   3.217 -0.7565 -0.7024 -0.5027
  291SOL    HW1 1772   4.986   5.053   3.306  0.3588 -1.0581 -0.1883
  291SOL    HW2 1773   4.991   5.077   3.145  1.6654  0.1050  0.0045
  292SOL     OW 1774   4.985   6.446   5.306 -0.5608  0.5360 -0.3458
  292SOL    HW1 1775   5.078   6.483   5.302 -0.2014 -0.4061 -1.6763
  292SOL    HW2 1776   4.976   6.387   5.386  0.6946 -1.0031 -1.2579
  293SOL     OW 1777   1.668   5.220   1.406  0.5372  0.3846  0.0184
  293SOL    HW1 1778   1.733   5.280   1.453 -0.1227 -0.2763  1.8322
  293SOL    HW2 1779   1.688   5.125   1.429  1.4759 -0.1853 -2.7026
  294SOL     OW 1780   4.048   1.116   0.464 -0.1930  0.0481 -0.0324
  294SOL    HW1 1781   4.019   1.161   0.549  2.8307  0.6216  0.8149
  294SOL    HW2 1782   4.102   1.035   0.486  0.1701 -0.1109 -1.4387
  295SOL     OW 1783   3.924   6.603   3.025  0.1472  0.3871 -0.5402
  295SOL    HW1 1784   3.934   6.699   2.995 -0.1035  0.2641 -1.0309
  295SOL    HW2 1785   3.933   6.543   2.946 -1.5352  0.1033 -0.5367
  296SOL     OW 1786   3.280   2.939   2.854  0.3777 -0.1198 -0.1906
  296SOL    HW1 1787   3.209   3.001   2.821 -0.1770 -1.3151 -1.3187
  296SOL    HW2 1788   3.315   2.885   2.778  3.3490  1.2118  0.1049
  297SOL     OW 1789   1.834   1.078   0.341 -0.2339  0.1400  0.4660
  297SOL    HW1 1790   1.899   1.076   0.418  1.6892 -1.9178 -1.0679
  297SOL    HW2 1791   1.885   1.073   0.255 -2.3137  2.5202 -1.0380
  298SOL     OW 1792   5.111   2.810   3.861  0.4245 -0.4677  0.1330
  298SOL    HW1 1793   5.152   2.763   3.940  1.2577  0.5165  0.3014
  298SOL    HW2 1794   5.183   2.836   3.797  0.0741  1.1865  0.3725
  299SOL     OW 1795   1.378   4.977   3.414 -0.0979 -0.3904 -0.4377
  299SOL    HW1 1796   1.332   5.043   3.354 -1.2873  0.0033  0.8624
  299SOL    HW2 1797   1.312   4.941   3.480  1.0189 -1.3562  0.1702
  300SOL     OW 1798   5.917   2.701   1.250  0.0774  0.1493 -0.1937
  300SOL    HW1 1799   6.001   2.754   1.263 -1.2792  2.6943 -0.9396
  300SOL    HW2 1800   5.903   2.685   1.152 -0.3127 -0.2610 -0.0724
  301SOL     OW 1801   1.217   5.436   1.199 -0.1188  0.3565 -0.3005
  301SOL    HW1 1802   1.236   5.346   1.239  3.6663  1.0518 -0.1539
  301SOL    HW2 1803   1.129   5.470   1.233 -0.4127 -2.1207  1.7345
  302SOL     OW 1804   2.375   2.961   5.486  0.6054  0.1224 -0.7293
  302SOL    HW1 1805   2.448   3.022   5.516  0.3470 -0.1757  0.5904
  302SOL    HW2 1806   2.383   2.945   5.388  1.5460  1.1001 -0.8315
  303SOL     OW 1807   1.788   2.630   1.573 -0.5477 -0.2647  0.4387
  303SOL    HW1 1808   1.851   2.669   1.640  1.4053 -0.9020 -0.9207
  303SOL    HW2 1809   1.695   2.657   1.595 -0.0377 -0.6229  3.5205
  304SOL     OW 1810   5.057   2.367   5.939 -0.4698  0.3485  0.0132
  304SOL    HW1 1811   5.022   2.289   5.887 -1.2469  0.8724 -0.2771
  304SOL    HW2 1812   5.001   2.448   5.919  0.8174  1.1818 -0.3248
  305SOL     OW 1813   3.530   6.893   1.895  0.4222  0.1587 -0.3373
  305SOL    HW1 1814   3.554   6.800   1.865  0.3521 -0.2757  0.9244
  305SOL    HW2 1815   3.433   6.895   1.921  0.6059  0.4150  0.3257
  306SOL     OW 1816   1.495   1.235   5.469 -0.4239 -0.2804  0.0512
  306SOL    HW1 1817   1.421   1.301   5.462  0.1396  0.8557  3.2113
  306SOL    HW2 1818   1.551   1.239   5.387 -2.9887 -0.1941 -1.8177
  307SOL     OW 1819   0.927   6.591   5.046  0.2243  0.0110 -0.2520
  307SOL    HW1 1820   0.961   6.520   5.108 -1.2087 -2.3320 -1.9489
  307SOL    HW2 1821   0.827   6.588   5.044  0.1978  0.6271 -1.9248
  308SOL     OW 1822   2.413   2.139   6.208  0.0371  0.0624  0.6142
  308SOL    HW1 1823   2.511   2.122   6.196 -0.2435 -1.8393  0.6417
  308SOL    HW2 1824   2.400   2.200   6.286  1.1934  0.0557  0.8390
  309SOL     OW 1825   6.755   2.842   6.541  0.1252 -0.1218 -0.0264
  309SOL    HW1 1826   6.734   2.754   6.583 -1.4978  0.2355 -0.0078
  309SOL    HW2 1827   6.721   2.916   6.599 -0.7558  0.4257 -1.1854
  310SOL     OW 1828   4.831   2.510   2.077 -0.3684 -0.3706 -0.2028
  310SOL    HW1 1829   4.750   2.567   2.062 -1.5063 -1.6206  1.0126
  310SOL    HW2 1830   4.814   2.418   2.043  0.6028 -0.6180 -0.0540
  311SOL     OW 1831   0.546   5.189   3.135  0.3936 -0.1580 -0.3626
  311SOL    HW1 1832   0.518   5.097   3.107  1.6872 -0.4844 -0.6755
  311SOL    HW2 1833   0.643   5.188   3.158  0.1026  0.8239  1.0562
  312SOL     OW 1834   5.784   6.526   3.469  0.5599  0.6890 -0.5078
  312SOL    HW1 1835   5.760   6.594   3.400 -1.0334  0.0507 -0.6199
  312SOL    HW2 1836   5.883   6.529   3.486  0.9344  1.1142 -2.5419
  313SOL     OW 1837   5.691   2.990   2.107 -0.3397  0.3641 -0.4046
  313SOL    HW1 1838   5.628   2.913   2.100 -0.0820  0.1175 -0.0394
  313SOL    HW2 1839   5.652   3.070   2.060 -0.0784 -0.3158 -1.8344
  314SOL     OW 1840   1.703   1.515   2.974  0.1229 -0.2359 -0.4388
  314SOL    HW1 1841   1.789   1.543   3.019 -0.2008  1.0722 -0.6016
  314SOL    HW2 1842   1.627   1.568   3.012 -0.3279  0.0299 -1.6841
  315SOL     OW 1843   1.362   4.034   6.111 -0.2308  0.2215 -0.1338
  315SOL    HW1 1844   1.297   3.986   6.171  0.9690 -0.3552  0.7472
  315SOL    HW2 1845   1.431   4.081   6.167  1.2881 -0.8402 -1.0470
  316SOL     OW 1846   1.096   5.347   3.582 -0.3825 -0.2295  0.3490
  316SOL    HW1 1847   1.188   5.380   3.560 -0.3257  0.3307  1.3520
  316SOL    HW2 1848   1.033   5.425   3.589 -0.8882 -0.5883 -0.0930
  317SOL     OW 1849   0.297   0.216   1.536  0.4087  0.0460 -0.4269
  317SOL    HW1 1850   0.323   0.310   1.557  0.9461 -0.3748  0.8785
  317SOL    HW2 1851   0.216   0.191   1.589 -0.2836  0.0430 -1.4528
  318SOL     OW 1852   2.611   2.696   6.290  0.2686  0.1446  1.0155
  318SOL    HW1 1853   2.639   2.602   6.267 -0.1711  0.0506  0.8609
  318SOL    HW2 1854   2.638   2.758   6.217  0.0595  0.0515  0.8594
  319SOL     OW 1855   2.981   6.516   3.376  0.8929 -0.2229  0.1267
  319SOL    HW1 1856   2.953   6.595   3.321  0.1422 -0.3417  0.3367
  319SOL    HW2 1857   2.970   6.433   3.322 -0.3334 -0.3929  0.6177
  320SOL     OW 1858   3.430   7.006   0.166  0.5450  0.5911 -1.0595
  320SOL    HW1 1859   3.439   7.104   0.149 -1.4183  0.9473 -0.2109
  320SOL    HW2 1860   3.477   6.956   0.093  0.8154  2.1389 -1.9946
  321SOL     OW 1861   0.792   5.785   6.986 -0.0623  0.4316  0.2286
  321SOL    HW1 1862   0.782   5.687   7.002 -0.0187  0.5764  1.2098
  321SOL    HW2 1863   0.806   5.802   6.888  3.5374 -0.8465  0.3815
  322SOL     OW 1864   6.172   0.093   5.695 -0.6259 -0.3368  0.0756
  322SOL    HW1 1865   6.238   0.133   5.631 -0.2148 -0.9288  0.1197
  322SOL    HW2 1866   6.137   0.008   5.657 -1.7410  0.2075 -0.1664
  323SOL     OW 1867   1.744   5.484   1.153  0.3495 -0.3792 -0.2874
  323SOL    HW1 1868   1.753   5.481   1.252 -0.1424 -0.3309 -0.2376
  323SOL    HW2 1869   1.647   5.487   1.128  0.4696 -0.3182 -0.7670
  324SOL     OW 1870   2.105   1.040   5.746  0.2045 -0.2494 -0.3231
  324SOL    HW1 1871   2.117   1.097   5.665 -0.7282  0.6632  0.1668
  324SOL    HW2 1872   2.171   1.067   5.816 -1.3999  1.4972  0.5801
  325SOL     OW 1873   0.489   5.914   3.393  0.1973  0.0473 -0.1065
  325SOL    HW1 1874   0.428   5.988   3.364 -0.8709 -0.9063 -0.3311
  325SOL    HW2 1875   0.582   5.951   3.404 -0.5682  1.7496  1.1963
  326SOL     OW 1876   0.640   4.059   5.126 -0.3352  0.2051 -0.2644
  326SOL    HW1 1877   0.571   4.093   5.062  0.7655  0.9150 -1.1281
  326SOL    HW2 1878   0.731   4.069   5.085  0.2200 -1.7508  0.3759
  327SOL     OW 1879   0.456   6.137   3.934 -0.1996 -0.1191  0.0422
  327SOL    HW1 1880   0.415   6.169   3.848  0.7486  1.5376  0.1564
  327SOL    HW2 1881   0.439   6.205   4.006  2.2726  0.3966  0.2015
  328SOL     OW 1882   0.208   2.031   2.975  0.5970  0.4151  0.5209
  328SOL    HW1 1883   0.117   2.034   3.015  0.5702 -1.3061  0.6986
  328SOL    HW2 1884   0.247   1.939   2.989  1.6573  0.5888 -1.0490
  329SOL     OW 1885   4.823   1.580   2.620  0.0626  0.0595  0.6635
  329SOL    HW1 1886   4.852   1.484   2.622  0.2788  0.0919 -0.3160
  329SOL    HW2 1887   4.903   1.639   2.621  0.0524  0.1668 -1.0381
  330SOL     OW 1888   5.987   2.863   3.344  1.1712 -0.0868  0.4944
  330SOL    HW1 1889   6.063   2.880   3.406  1.0497 -0.7490  0.8294
  330SOL    HW2 1890   6.021   2.824   3.259  0.9806 -3.7191  1.9053
  331SOL     OW 1891   1.261   3.798   0.351  0.2087 -0.6259  0.1453
  331SOL    HW1 1892   1.277   3.796   0.450  2.5560  1.1167 -0.1122
  331SOL    HW2 1893   1.183   3.858   0.331  2.1999  2.3925  0.8123
  332SOL     OW 1894   5.738   6.136   1.461 -0.0787  0.2247 -0.4713
  332SOL    HW1 1895   5.818   6.100   1.414  0.0247 -0.3738  0.1393
  332SOL    HW2 1896   5.680   6.185   1.396  1.5894  2.1466 -0.6310
  333SOL     OW 1897   1.870   2.316   6.323  0.7795  0.0979 -0.1628
  333SOL    HW1 1898   1.841   2.225   6.295 -0.1019  0.7610 -1.5530
  333SOL    HW2 1899   1.970   2.322   6.320  0.9277 -1.2095  1.3136
  334SOL     OW 1900   2.535   0.786   5.898 -0.2024  0.2385  0.8515
  334SOL    HW1 1901   2.539   0.850   5.821  0.5049  2.6311  2.7587
  334SOL    HW2 1902   2.463   0.718   5.881 -2.5551  2.8252 -0.3749
  335SOL     OW 1903   4.317   4.021   6.633  0.2943 -0.9853  0.6310
  335SOL    HW1 1904   4.363   4.089   6.575 -0.8061 -0.7284  0.0260
  335SOL    HW2 1905   4.340   4.039   6.728 -2.0012  2.0104  0.8008
  336SOL     OW 1906   0.862   3.351   0.963  0.5101  0.4000  0.1281
  336SOL    HW1 1907   0.925   3.277   0.985 -0.9959 -0.8692  0.3133
  336SOL    HW2 1908   0.888   3.392   0.875 -1.0036 -3.2184 -2.2372
  337SOL     OW 1909   2.178   1.741   3.888  0.4728 -1.0291  0.7350
  337SOL    HW1 1910   2.242   1.818   3.883 -2.0883  1.2425  0.2319
  337SOL    HW2 1911   2.197   1.677   3.814  1.4626  0.1416 -0.0655
  338SOL     OW 1912   4.476   1.801   1.598 -0.8425  0.2103 -0.1467
  338SOL    HW1 1913   4.464   1.831   1.693  0.7842  1.6795 -0.3597
  338SOL    HW2 1914   4.478   1.880   1.538  1.5008 -0.4043 -0.9947
  339SOL     OW 1915   4.516   6.134   5.401 -0.1341 -0.0149 -0.6178
  339SOL    HW1 1916   4.416   6.139   5.396 -0.2628 -0.7599  0.8096
  339SOL    HW2 1917   4.549   6.065   5.336 -0.5126  0.4210 -1.2841
  340SOL     OW 1918   2.655   2.556   5.148 -0.9501 -0.1157  0.0233
  340SOL    HW1 1919   2.724   2.484   5.158 -0.7326  0.2515  1.3272
  340SOL    HW2 1920   2.663   2.620   5.224 -2.2247  0.3740 -0.2383
  341SOL     OW 1921   5.795   0.284   6.436  0.2787 -0.3105  0.3993
  341SOL    HW1 1922   5.792   0.328   6.346 -0.1535 -0.9917  0.0787
  341SOL    HW2 1923   5.881   0.308   6.481 -0.1827  1.3315  0.4747
  342SOL     OW 1924   6.456   6.886   3.689  0.3458  0.7725 -0.0591
  342SOL    HW1 1925   6.449   6.812   3.622  1.3230  1.2900 -0.7645
  342SOL    HW2 1926   6.426   6.972   3.647 -0.8173  0.7929  0.7625
  343SOL     OW 1927   4.250   2.804   0.185 -0.3130 -0.0511  0.0432
  343SOL    HW1 1928   4.166   2.858   0.184  0.3501  1.0096  0.1280
  343SOL    HW2 1929   4.317   2.845   0.122  0.3832 -0.4698  0.4956
  344SOL     OW 1930   5.644   6.517   0.070  0.6656 -0.1654 -0.1652
  344SOL    HW1 1931   5.568   6.504   0.134 -0.4412  0.3091 -1.3486
  344SOL    HW2 1932   5.693   6.602   0.093 -0.5177  0.6820 -0.7154
  345SOL     OW 1933   5.875   5.423   3.383  0.2890  0.0319 -0.5532
  345SOL    HW1 1934   5.837   5.360   3.451  0.5108  0.2836 -0.1944
  345SOL    HW2 1935   5.870   5.516   3.418 -2.5338  0.5940 -2.1420
  346SOL     OW 1936   5.240   2.350   3.822 -0.6316  0.3216 -0.3826
  346SOL    HW1 1937   5.252   2.276   3.756  1.5454  0.4380 -0.1742
  346SOL    HW2 1938   5.183   2.317   3.898  1.2957 -1.6020  0.3250
  347SOL     OW 1939   5.421   1.945   5.235  0.6323  0.9244  0.8053
  347SOL    HW1 1940   5.458   2.001   5.161  2.2592 -1.1328 -0.0454
  347SOL    HW2 1941   5.462   1.972   5.322  1.0101  1.3787  0.4868
  348SOL     OW 1942   0.441   4.369   5.354 -1.0377 -0.4209 -0.3145
  348SOL    HW1 1943   0.446   4.400   5.259 -0.3910  0.1037 -0.1223
  348SOL    HW2 1944   0.527   4.391   5.401 -0.4775 -2.6474 -0.1796
  349SOL     OW 1945   3.140   6.793   2.150 -0.0200  0.1073  0.5993
  349SOL    HW1 1946   3.211   6.807   2.219  0.0329  0.0263  0.5616
  349SOL    HW2 1947   3.055   6.835   2.180  0.1795  0.6462  0.4183
  350SOL     OW 1948   2.727   2.764   0.292 -0.2126  0.1772  0.0180
  350SOL    HW1 1949   2.771   2.775   0.381 -0.4848  1.9933 -0.0406
  350SOL    HW2 1950   2.659   2.836   0.279 -0.4194 -0.2634 -1.5278
  351SOL     OW 1951   3.329   3.881   2.687 -0.5480 -0.0157 -0.5357
  351SOL    HW1 1952   3.309   3.817   2.613 -0.0192 -0.2612 -0.4704
  351SOL    HW2 1953   3.428   3.881   2.705 -0.3043  1.9961 -1.6128
  352SOL     OW 1954   3.124   3.628   1.531 -0.2183 -0.1111  0.5874
  352SOL    HW1 1955   3.184   3.685   1.588  0.3602  0.0360 -0.1638
  352SOL    HW2 1956   3.179   3.580   1.463 -1.0231  0.5816 -0.5878
  353SOL     OW 1957   0.903   3.071   1.617  0.9156 -0.3017 -0.4392
  353SOL    HW1 1958   0.952   3.067   1.704  0.8362 -0.3938 -0.3977
  353SOL    HW2 1959   0.835   2.997   1.614 -0.6469  1.0337  0.3646
  354SOL     OW 1960   1.046   3.630   7.001  0.0354 -0.0624  0.2060
  354SOL    HW1 1961   1.084   3.551   7.050  0.8884  0.7609  0.9090
  354SOL    HW2 1962   0.987   3.682   7.062 -0.5015 -0.1346 -0.2491
  355SOL     OW 1963   0.156   2.632   2.948 -0.7700  0.4185  0.1908
  355SOL    HW1 1964   0.104   2.682   3.016 -1.7022  0.7098 -0.7123
  355SOL    HW2 1965   0.111   2.639   2.859  1.3953  1.6373 -0.8835
  356SOL     OW 1966   4.828   4.720   5.361  0.5032 -0.6676  0.0123
  356SOL    HW1 1967   4.790   4.740   5.451  0.2261  3.0978 -0.7643
  356SOL    HW2 1968   4.760   4.671   5.306 -1.2500  1.2026  0.3900
  357SOL     OW 1969   4.030   5.710   4.115  0.2073 -0.1980  0.4133
  357SOL    HW1 1970   3.941   5.739   4.082 -0.5271 -2.2453  0.4500
  357SOL    HW2 1971   4.039   5.732   4.213  0.1669  0.8943  0.1817
  358SOL     OW 1972   4.630   6.961   0.757  0.6736  0.1467 -0.0160
  358SOL    HW1 1973   4.640   7.010   0.844 -0.2207  1.8846 -0.8481
  358SOL    HW2 1974   4.676   6.873   0.763  0.7618  0.2992  2.1627
  359SOL     OW 1975   0.186   3.287   0.643 -0.4647 -0.3275  0.4000
  359SOL    HW1 1976   0.207   3.224   0.718 -0.1230 -1.9753 -1.0184
  359SOL    HW2 1977   0.197   3.239   0.555 -1.1014  1.4650 -0.7052
  360SOL     OW 1978   5.172   3.887   2.303  0.2460  0.5717  0.4008
  360SOL    HW1 1979   5.080   3.884   2.344 -0.6223  0.6650 -1.4628
  360SOL    HW2 1980   5.185   3.807   2.245  0.0665  2.1312 -1.9076
  361SOL     OW 1981   4.802   4.125   0.628  0.2211  0.2896 -0.0250
  361SOL    HW1 1982   4.794   4.120   0.528 -1.7081 -1.0240  0.1621
  361SOL    HW2 1983   4.769   4.215   0.659 -0.5380  0.1737 -0.4690
  362SOL     OW 1984   1.608   1.144   2.759  0.2546  0.3188  0.0283
  362SOL    HW1 1985   1.583   1.059   2.806  0.6985  0.2936  0.2215
  362SOL    HW2 1986   1.645   1.122   2.669  0.3611  0.3061  0.0748
  363SOL     OW 1987   5.914   2.395   5.892  0.1382  0.7606  0.3962
  363SOL    HW1 1988   5.911   2.405   5.992  0.8665  2.3223  0.2892
  363SOL    HW2 1989   6.004   2.362   5.865 -0.2271 -0.1669  0.2700
  364SOL     OW 1990   2.638   1.362   6.534 -0.5969  0.2739  0.0198
  364SOL    HW1 1991   2.621   1.440   6.473  1.1455 -0.2530 -1.2085
  364SOL    HW2 1992   2.705   1.301   6.492 -3.5666 -3.2079 -0.2536
  365SOL     OW 1993   6.987   1.497   0.201  0.1626 -0.2384  0.1323
  365SOL    HW1 1994   7.032   1.583   0.224  0.0237 -0.3175  0.7193
  365SOL    HW2 1995   6.945   1.504   0.111  0.2584  0.2621  0.1254
  366SOL     OW 1996   3.862   5.481   2.165  0.5188  0.8638 -0.3621
  366SOL    HW1 1997   3.827   5.403   2.114 -0.3870 -0.4465  2.0726
  366SOL    HW2 1998   3.961   5.474   2.173  0.5542  0.5401 -1.0632
  367SOL     OW 1999   6.832   3.702   3.924  0.3737 -0.0487  0.1823
  367SOL    HW1 2000   6.852   3.676   3.830 -0.1923 -0.6458  0.2210
  367SOL    HW2 2001   6.836   3.802   3.933  0.3692  0.0117 -0.4819
  368SOL     OW 2002   3.604   1.435   4.286 -0.1882  0.2919 -0.2632
  368SOL    HW1 2003   3.537   1.499   4.251 -1.5348 -0.7142  0.3597
  368SOL    HW2 2004   3.658   1.398   4.211 -1.4107 -0.0573 -0.9893
  369SOL     OW 2005   3.842   1.290   1.814  0.1312 -0.0210  0.0812
  369SOL    HW1 2006   3.742   1.295   1.819 -0.0841 -2.8227 -0.0410
  369SOL    HW2 2007   3.871   1.310   1.720 -0.4899 -0.9676 -0.3252
  370SOL     OW 2008   6.056   3.492   6.439 -0.6427 -0.4809 -0.2992
  370SOL    HW1 2009   6.139   3.521   6.391  0.4489  0.1269  1.8515
  370SOL    HW2 2010   6.006   3.572   6.472  0.7164 -0.8309  2.9131
  371SOL     OW 2011   3.159   3.570   3.492  0.2739  0.4851 -0.0526
  371SOL    HW1 2012   3.253   3.571   3.527  0.0494 -0.8043  0.6138
  371SOL    HW2 2013   3.121   3.662   3.500  1.5074  1.0614 -0.4455
  372SOL     OW 2014   5.861   2.860   6.010  0.4323  0.2575  0.7606
  372SOL    HW1 2015   5.948   2.898   5.978  0.5912 -0.5059  0.2544
  372SOL    HW2 2016   5.785   2.916   5.976  0.6921  0.5249  0.6227
  373SOL     OW 2017   4.960   0.021   1.109  0.3821 -0.1495  0.2391
  373SOL    HW1 2018   5.026   0.046   1.039  2.0075 -1.4115  1.2359
  373SOL    HW2 2019   4.998  -0.052   1.166 -1.4591 -0.1730  1.5334
  374SOL     OW 2020   4.104   4.230   6.887  0.2675  0.2779 -0.6773
  374SOL    HW1 2021   4.127   4.161   6.956  1.7609 -1.6001 -2.8676
  374SOL    HW2 2022   4.047   4.301   6.928 -0.0385 -1.4124  2.1062
  375SOL     OW 2023   1.455   6.028   3.856  0.1744 -0.3995 -0.3734
  375SOL    HW1 2024   1.440   5.938   3.896 -0.5828 -1.0149 -1.9457
  375SOL    HW2 2025   1.377   6.052   3.797  0.5351  1.1263 -0.2867
  376SOL     OW 2026   6.363   4.406   3.102  0.1493  0.3926 -0.5651
  376SOL    HW1 2027   6.364   4.464   3.184 -1.5374 -0.6061  0.2254
  376SOL    HW2 2028   6.334   4.461   3.023  1.6512  1.3319 -0.5096
  377SOL     OW 2029   1.123   2.385   0.463  0.0718 -0.6889  0.4697
  377SOL    HW1 2030   1.057   2.316   0.434 -0.9863  1.2863 -2.2296
  377SOL    HW2 2031   1.075   2.460   0.507  0.9227 -0.5539  1.2014
  378SOL     OW 2032   4.940   2.687   4.602  0.5307  0.7840  0.3137
  378SOL    HW1 2033   4.896   2.629   4.534  0.9960  1.9995 -1.0626
  378SOL    HW2 2034   4.876   2.759   4.631 -0.0993 -0.4208  2.1237
  379SOL     OW 2035   0.405   0.514   1.460 -0.6987  0.0495  0.1633
  379SOL    HW1 2036   0.311   0.546   1.453 -0.0835  1.6670 -1.6998
  379SOL    HW2 2037   0.444   0.503   1.368  1.0100 -0.3261  0.8815
  380SOL     OW 2038   5.222   2.310   4.835  0.6864  0.6005  0.4313
  380SOL    HW1 2039   5.296   2.243   4.843  0.8229  0.9420  3.0206
  380SOL    HW2 2040   5.180   2.303   4.745  2.3952 -1.1440 -0.3037
  381SOL     OW 2041   5.216   1.505   0.440 -0.1711 -0.1670 -0.6173
  381SOL    HW1 2042   5.309   1.484   0.468 -0.6436 -2.0727 -0.2764
  381SOL    HW2 2043   5.156   1.506   0.520 -0.5649  0.3533 -0.9095
  382SOL     OW 2044   5.109   0.174   0.927  0.0462  0.0262  0.3524
  382SOL    HW1 2045   5.058   0.212   1.004 -0.2102 -1.3278  0.8852
  382SOL    HW2 2046   5.206   0.191   0.939 -0.0808  0.7397  0.4217
  383SOL     OW 2047   1.918   3.444   1.295  0.5019 -0.3191 -0.1102
  383SOL    HW1 2048   1.870   3.366   1.256  2.8686 -2.1983  0.5462
  383SOL    HW2 2049   1.851   3.512   1.326 -1.6128 -1.8518 -1.1013
  384SOL     OW 2050   7.015   3.066   3.785  0.2477 -1.0671  0.9091
  384SOL    HW1 2051   7.045   3.034   3.875  0.5926 -0.9121  0.8508
  384SOL    HW2 2052   6.999   3.164   3.789 -1.3623 -1.3164  1.2402
  385SOL     OW 2053   0.792   4.380   5.654  0.7544  0.0641  0.1097
  385SOL    HW1 2054   0.735   4.311   5.699 -0.3909 -0.5624 -2.1415
  385SOL    HW2 2055   0.873   4.397   5.710  0.2026 -1.7964  1.6054
  386SOL     OW 2056   5.459   4.822   0.193 -0.3869 -0.2222  0.7820
  386SOL    HW1 2057   5.370   4.855   0.225 -0.7380 -1.4547  1.1242
  386SOL    HW2 2058   5.448   4.778   0.104  0.0872  0.5900  0.3055
  387SOL     OW 2059   6.384   0.471   2.532  0.1760  0.0665 -0.2313
  387SOL    HW1 2060   6.332   0.512   2.457  0.8358 -0.7064 -1.1347
  387SOL    HW2 2061   6.454   0.536   2.563  0.9206 -0.1802 -1.3482
  388SOL     OW 2062   4.550   3.742   0.755  0.2152 -0.9575 -0.0064
  388SOL    HW1 2063   4.548   3.829   0.707  1.3091  0.0547  1.6932
  388SOL    HW2 2064   4.463   3.728   0.802  0.5372 -0.0883  0.8687
  389SOL     OW 2065   2.947   6.319   2.567 -0.4576 -0.3823 -0.0317
  389SOL    HW1 2066   2.891   6.354   2.641  1.3405  0.2348  1.1026
  389SOL    HW2 2067   3.036   6.289   2.602  0.0347 -1.1440 -1.7697
  390SOL     OW 2068   4.879   5.131   0.105 -0.5900 -0.0365  0.3759
  390SOL    HW1 2069   4.828   5.211   0.138  1.1305  1.0952  0.4285
  390SOL    HW2 2070   4.976   5.142   0.127  0.3219 -0.3545 -2.9184
  391SOL     OW 2071   3.929   3.205   1.537 -0.1396  0.0041 -0.3098
  391SOL    HW1 2072   3.902   3.265   1.463 -1.3747  0.5214  0.5173
  391SOL    HW2 2073   3.857   3.136   1.552  0.0455 -0.0339  0.4571
  392SOL     OW 2074   1.873   4.155   5.196 -0.6304 -0.0789 -0.3094
  392SOL    HW1 2075   1.903   4.092   5.125 -1.9729 -0.8699 -0.2008
  392SOL    HW2 2076   1.894   4.117   5.286  0.6120  0.6934 -0.2477
  393SOL     OW 2077   1.128   2.925   1.220  0.7725  0.1565  0.3467
  393SOL    HW1 2078   1.113   3.024   1.225  3.0566  0.8614 -3.0410
  393SOL    HW2 2079   1.204   2.900   1.280  0.2593  0.4496  1.1339
  394SOL     OW 2080   3.495   5.454   0.310  0.0165  0.6006  0.4237
  394SOL    HW1 2081   3.511   5.356   0.320 -0.7122  0.2848 -1.1348
  394SOL    HW2 2082   3.412   5.469   0.256  0.7036  2.0551 -0.3005
  395SOL     OW 2083   6.939   1.744   5.921  0.0546  0.3160 -0.1221
  395SOL    HW1 2084   6.977   1.777   6.008  0.5785  0.5660 -0.4400
  395SOL    HW2 2085   6.849   1.705   5.937  0.6953 -0.8627  0.7587
  396SOL     OW 2086   6.965   3.585   2.263  0.0258  0.6638 -0.2003
  396SOL    HW1 2087   6.914   3.500   2.253 -0.6992  1.0351  0.3152
  396SOL    HW2 2088   6.972   3.631   2.174 -4.0702  2.6200  0.2618
  397SOL     OW 2089   0.097   2.112   0.659  0.8149  0.3209  0.0140
  397SOL    HW1 2090   0.071   2.182   0.592  1.4096  0.2691 -0.2827
  397SOL    HW2 2091   0.034   2.035   0.654 -0.0032  0.9446  0.5239
  398SOL     OW 2092   6.433   5.633   3.675  0.2356 -0.1117  0.3447
  398SOL    HW1 2093   6.480   5.664   3.758  0.6373 -0.8492  0.4016
  398SOL    HW2 2094   6.335   5.627   3.692  0.4446 -1.5346  1.1969
  399SOL     OW 2095   1.928   5.497   4.726 -0.4466 -0.4793  0.1761
  399SOL    HW1 2096   2.021   5.484   4.691 -0.2410  1.3277 -0.0499
  399SOL    HW2 2097   1.864   5.503   4.649 -0.6263 -0.7863  0.2974
  400SOL     OW 2098   1.218   0.105   5.851 -0.3445 -0.1911  0.2238
  400SOL    HW1 2099   1.316   0.083   5.847  0.1272  1.7704 -0.4782
  400SOL    HW2 2100   1.171   0.037   5.907  1.8582  0.2264  2.8212
  401SOL     OW 2101   3.355   3.441   0.314  0.2937 -0.4759 -0.2128
  401SOL    HW1 2102   3.305   3.374   0.258  0.6784 -1.7920  0.9482
  401SOL    HW2 2103   3.310   3.530   0.308 -1.7413 -1.4251  0.1607
  402SOL     OW 2104   5.517   1.523   4.265  0.6832 -0.5570 -0.0324
  402SOL    HW1 2105   5.584   1.468   4.216  1.4975 -1.1071  1.6016
  402SOL    HW2 2106   5.518   1.498   4.362 -1.9206 -0.5839  0.0528
  403SOL     OW 2107   3.962   3.502   3.275  0.0323 -0.4433 -0.3012
  403SOL    HW1 2108   4.026   3.499   3.199 -0.1231 -2.6480 -0.4251
  403SOL    HW2 2109   3.870   3.519   3.240  0.3002  1.0877 -0.3019
  404SOL     OW 2110   6.556   4.394   6.052  0.0374  0.2839 -0.2420
  404SOL    HW1 2111   6.511   4.366   6.137  0.3332 -0.9492 -0.4635
  404SOL    HW2 2112   6.654   4.402   6.068 -0.0130  0.9441 -0.2538
  405SOL     OW 2113   5.427   1.621   5.295  0.8312  0.0810 -0.2990
  405SOL    HW1 2114   5.437   1.688   5.368  1.9014 -0.6543  0.2457
  405SOL    HW2 2115   5.463   1.658   5.209  1.8970  0.0241  0.1166
  406SOL     OW 2116   5.223   3.628   0.378 -0.1438 -0.2186 -0.2140
  406SOL    HW1 2117   5.169   3.557   0.423 -3.0324 -0.7175 -3.9483
  406SOL    HW2 2118   5.176   3.716   0.385 -0.2837 -0.1678 -1.5500
  407SOL     OW 2119   6.015   0.030   0.625 -0.1965  0.3041  0.3083
  407SOL    HW1 2120   6.032   0.028   0.527  1.0058  1.8153  0.4441
  407SOL    HW2 2121   5.944   0.097   0.646 -1.5017 -1.0386  0.3833
  408SOL     OW 2122   2.950   6.989   5.719  0.4406 -0.2859  0.4738
  408SOL    HW1 2123   2.940   6.978   5.818 -2.7730 -0.7441  0.1867
  408SOL    HW2 2124   2.948   7.087   5.696  0.9317 -0.1911  0.8088
  409SOL     OW 2125   5.315   4.732   3.370  0.5053  0.4075  0.0482
  409SOL    HW1 2126   5.249   4.788   3.420  0.3935 -0.4480  0.8830
  409SOL    HW2 2127   5.406   4.741   3.412  0.3665 -0.4853  0.5522
  410SOL     OW 2128   1.095   6.884   0.739 -0.8478  0.2065 -0.2583
  410SOL    HW1 2129   1.062   6.796   0.704 -2.0505  1.1022 -1.4739
  410SOL    HW2 2130   1.057   6.958   0.684  1.4687  1.4426 -0.2963
  411SOL     OW 2131   4.306   1.159   4.016 -0.3713  0.0483 -0.4443
  411SOL    HW1 2132   4.395   1.114   4.016 -0.9586 -1.3934  2.5100
  411SOL    HW2 2133   4.284   1.191   3.924  1.1404 -3.6505 -2.2688
  412SOL     OW 2134   0.392   2.676   1.301 -0.8510 -0.0305 -0.1077
  412SOL    HW1 2135   0.463   2.737   1.337 -0.4088 -1.5625  1.7763
  412SOL    HW2 2136   0.371   2.701   1.207  0.0367  2.3517  0.2711
  413SOL     OW 2137   4.734   6.477   5.595 -0.2682  0.2529 -0.1923
  413SOL    HW1 2138   4.831   6.452   5.596 -0.2359  0.3855  0.5071
  413SOL    HW2 2139   4.715   6.539   5.671 -1.0843 -0.4417  0.1744
  414SOL     OW 2140   5.719   1.918   6.172  0.5085 -0.4385 -0.3960
  414SOL    HW1 2141   5.626   1.927   6.137 -0.0352 -2.1964  0.4728
  414SOL    HW2 2142   5.726   1.969   6.258  0.5369  0.1873 -0.7620
  415SOL     OW 2143   5.776   1.685   3.021  0.0756 -0.3840 -0.6737
  415SOL    HW1 2144   5.871   1.685   2.989 -0.2918  0.0766 -1.8250
  415SOL    HW2 2145   5.744   1.590   3.029  0.3089 -0.5258 -1.3160
  416SOL     OW 2146   6.981   2.955   1.436 -0.6767 -0.4513 -0.3329
  416SOL    HW1 2147   7.079   2.960   1.456 -0.8740 -2.1395  1.3258
  416SOL    HW2 2148   6.968   2.930   1.340  0.5171 -0.2188 -0.5724
  417SOL     OW 2149   6.316   6.026   5.699 -0.2974 -0.2451  0.1078
  417SOL    HW1 2150   6.413   6.008   5.718 -0.2714  0.9172  1.1795
  417SOL    HW2 2151   6.260   5.953   5.737  0.0460  0.0138  1.1348
  418SOL     OW 2152   4.851   1.888   1.057  0.0653  0.1758  0.0670
  418SOL    HW1 2153   4.911   1.850   1.127 -0.4505 -0.6291  0.0832
  418SOL    HW2 2154   4.872   1.985   1.044  1.1447 -0.0160  0.2917
  419SOL     OW 2155   5.855   2.195   6.980  0.8789  0.2426  0.0209
  419SOL    HW1 2156   5.838   2.287   7.016 -2.2686 -0.2666  0.0881
  419SOL    HW2 2157   5.815   2.127   7.042  0.3149 -0.9754 -1.6209
  420SOL     OW 2158   0.584   5.133   2.754  0.6366  0.0210  0.3674
  420SOL    HW1 2159   0.596   5.101   2.848  1.7707 -0.5977  0.0406
  420SOL    HW2 2160   0.560   5.055   2.696 -1.1933  0.5859  0.3106
  421SOL     OW 2161   6.273   2.718   1.371 -1.1077  0.2798 -0.0905
  421SOL    HW1 2162   6.221   2.649   1.422 -0.5321  0.5150  0.8582
  421SOL    HW2 2163   6.322   2.777   1.436  1.9093 -1.1181 -0.9041
  422SOL     OW 2164   4.658   2.496   0.829 -0.2465 -0.0496  0.1809
  422SOL    HW1 2165   4.659   2.439   0.746 -1.5945 -0.8358  0.6681
  422SOL    HW2 2166   4.570   2.544   0.835 -0.7422 -1.0935  1.8552
  423SOL     OW 2167   6.966   3.330   3.793  0.4745  0.4093  0.6974
  423SOL    HW1 2168   7.060   3.348   3.821  1.2602 -1.8654 -0.1714
  423SOL    HW2 2169   6.944   3.384   3.712  0.5477  1.9109  1.6428
  424SOL     OW 2170   0.707   1.991   0.846 -0.4930  0.3171 -0.1549
  424SOL    HW1 2171   0.768   2.017   0.921 -0.0828  0.2516 -0.4565
  424SOL    HW2 2172   0.613   2.012   0.870 -0.3396  0.5153  0.2822
  425SOL     OW 2173   5.948   2.707   6.202  0.1300 -0.1348 -0.3937
  425SOL    HW1 2174   5.970   2.619   6.159  0.1693 -0.0124 -0.6285
  425SOL    HW2 2175   5.913   2.769   6.132 -0.5616 -0.1913 -0.1041
  426SOL     OW 2176   6.736   4.146   1.690 -0.1816  0.1618  0.1510
  426SOL    HW1 2177   6.795   4.112   1.763  0.3001  1.0140  0.1695
  426SOL    HW2 2178   6.739   4.246   1.689 -0.1376  0.1600 -1.0812
  427SOL     OW 2179   1.082   0.080   5.104  0.4108  0.1715 -0.5012
  427SOL    HW1 2180   1.017   0.017   5.146  0.6146 -0.6039 -1.2999
  427SOL    HW2 2181   1.047   0.173   5.111  0.7349  0.1586  1.8866
  428SOL     OW 2182   0.390   1.022   3.863  0.0137  0.0969  0.0951
  428SOL    HW1 2183   0.313   0.989   3.917  0.3474 -0.7464  0.0706
  428SOL    HW2 2184   0.412   0.956   3.791  0.1399  0.7903 -0.5189
  429SOL     OW 2185   5.360   5.803   5.327  0.4616  0.4754 -0.0620
  429SOL    HW1 2186   5.283   5.747   5.358  0.5822  0.5175  0.3318
  429SOL    HW2 2187   5.398   5.852   5.406  1.2108  0.0567 -0.1499
  430SOL     OW 2188   4.928   1.056   2.050  0.0440 -0.2513  0.6184
  430SOL    HW1 2189   4.944   0.957   2.048 -2.7838 -0.8341 -2.5832
  430SOL    HW2 2190   4.840   1.074   2.094 -1.1008  0.4131 -1.8189
  431SOL     OW 2191   0.753   5.920   0.511  0.4089 -0.5176 -0.0007
  431SOL    HW1 2192   0.749   5.837   0.456  1.0642 -1.5062  1.3873
  431SOL    HW2 2193   0.776   5.896   0.605  1.2305  1.3046  0.2938
  432SOL     OW 2194   4.686   5.130   6.270 -0.3179  0.0314 -0.0018
  432SOL    HW1 2195   4.749   5.203   6.298 -0.7403  0.8215 -1.0606
  432SOL    HW2 2196   4.721   5.042   6.304  0.3377  0.6729  1.0617
  433SOL     OW 2197   3.646   3.947   1.770  0.2968 -0.1596  0.2884
  433SOL    HW1 2198   3.720   3.918   1.830  0.9012  0.8631  0.0524
  433SOL    HW2 2199   3.682   4.002   1.695 -0.4827 -1.1988 -0.8906
  434SOL     OW 2200   2.345   5.193   4.943  0.1304 -0.6392 -0.8203
  434SOL    HW1 2201   2.300   5.179   5.031  0.8938 -0.4964 -0.3994
  434SOL    HW2 2202   2.277   5.189   4.869 -0.1102 -3.9373 -0.5394
  435SOL     OW 2203   3.172   2.202   1.439  0.5392  0.1377 -0.7896
  435SOL    HW1 2204   3.213   2.230   1.526 -0.7347  2.0680 -0.7598
  435SOL    HW2 2205   3.240   2.155   1.383  1.7487  0.0561  0.7023
  436SOL     OW 2206   2.653   7.010   5.905  0.3981 -0.3561  0.4198
  436SOL    HW1 2207   2.667   6.994   5.807 -0.6543  0.7439  0.0687
  436SOL    HW2 2208   2.631   6.923   5.949  0.6241 -0.8253 -0.3540
  437SOL     OW 2209   3.709   4.224   0.558  0.4795  0.1816 -0.6930
  437SOL    HW1 2210   3.681   4.150   0.497 -1.5063 -0.1929  0.5708
  437SOL    HW2 2211   3.661   4.215   0.645  0.6458  2.6334 -0.2751
  438SOL     OW 2212   0.281   1.645   4.490 -0.3721  0.1903 -0.6285
  438SOL    HW1 2213   0.344   1.671   4.416 -0.6136  1.8935 -0.2692
  438SOL    HW2 2214   0.287   1.712   4.564 -1.7563 -0.2731 -0.0657
  439SOL     OW 2215   3.294   4.557   5.496  0.8295  0.1381 -0.3235
  439SOL    HW1 2216   3.292   4.590   5.590 -0.0006 -2.2858  0.5735
  439SOL    HW2 2217   3.205   4.573   5.453  0.6157 -0.4092 -0.0841
  440SOL     OW 2218   1.032   3.262   2.926  0.2983  0.1621  0.6205
  440SOL    HW1 2219   1.106   3.208   2.885 -0.7889 -0.6679 -0.3168
  440SOL    HW2 2220   1.049   3.359   2.910  1.4262  0.0202  0.8541
  441SOL     OW 2221   3.085   6.029   5.625  0.1114 -0.5965 -0.8092
  441SOL    HW1 2222   3.121   5.940   5.597  0.3065  0.0485 -2.7763
  441SOL    HW2 2223   3.149   6.072   5.689  0.1137 -1.7533  0.0009
  442SOL     OW 2224   0.507   3.295   6.307  0.6486  0.8347 -0.0258
  442SOL    HW1 2225   0.493   3.236   6.386  1.0981 -1.3918 -1.5061
  442SOL    HW2 2226   0.569   3.249   6.242  1.5978  3.2691 -0.9536
  443SOL     OW 2227   0.182   3.884   1.495 -0.5839 -0.2781 -0.1206
  443SOL    HW1 2228   0.210   3.937   1.575  0.6176 -1.1479  0.0470
  443SOL    HW2 2229   0.100   3.831   1.518 -0.9159  0.3405  0.1691
  444SOL     OW 2230   4.533   2.082   3.256  0.3727  0.2915 -0.3163
  444SOL    HW1 2231   4.539   2.169   3.207 -1.4723 -0.4296 -1.9401
  444SOL    HW2 2232   4.613   2.071   3.314  0.0431  3.7112  1.0269
  445SOL     OW 2233   1.864   1.973   1.445 -0.5561 -0.1017 -0.1340
  445SOL    HW1 2234   1.929   1.904   1.414  0.0021 -0.3891  1.5868
  445SOL    HW2 2235   1.912   2.058   1.464 -0.7656 -0.1226  0.5295
  446SOL     OW 2236   5.166   0.028   6.939 -0.2397  0.0941 -0.0674
  446SOL    HW1 2237   5.217   0.010   7.024 -0.8588 -0.2254  0.2453
  446SOL    HW2 2238   5.114  -0.054   6.914 -1.0134  0.5903 -0.0946
  447SOL     OW 2239   5.402   3.673   2.456 -0.5529  0.0565 -0.5699
  447SOL    HW1 2240   5.426   3.705   2.548  1.4578  0.1207 -1.0655
  447SOL    HW2 2241   5.330   3.604   2.462 -0.4203  0.0174  1.0514
  448SOL     OW 2242   2.354   1.574   5.090  0.6510  0.4756  0.2687
  448SOL    HW1 2243   2.440   1.626   5.087  1.4116 -0.7206  0.5334
  448SOL    HW2 2244   2.374   1.479   5.113 -0.5744 -0.2518 -1.4736
  449SOL     OW 2245   6.299   5.795   0.855  0.8617 -0.3571 -0.0821
  449SOL    HW1 2246   6.284   5.841   0.943 -0.8256  0.4881 -0.7671
  449SOL    HW2 2247   6.212   5.783   0.809  1.7942 -0.0213 -2.0327
  450SOL     OW 2248   1.288   2.723   1.352 -0.6331 -0.0507  0.5006
  450SOL    HW1 2249   1.333   2.658   1.291  0.1243 -1.0146  2.0149
  450SOL    HW2 2250   1.191   2.703   1.356 -0.5472 -0.5281  0.2633
  451SOL     OW 2251   0.763   0.065   3.155  0.0366  0.2422 -0.5619
  451SOL    HW1 2252   0.702   0.005   3.207  0.0684 -0.6487 -1.5232
  451SOL    HW2 2253   0.817   0.120   3.218  0.3826 -1.1150  0.3676
  452SOL     OW 2254   5.269   0.149   1.366  0.3933 -0.2469  0.4123
  452SOL    HW1 2255   5.358   0.179   1.401  0.5490  1.0877 -1.0011
  452SOL    HW2 2256   5.219   0.229   1.332 -0.6876 -1.1926 -0.2785
  453SOL     OW 2257   0.101   2.858   5.098 -0.0231  0.1700 -0.3308
  453SOL    HW1 2258   0.078   2.954   5.111 -1.1077  0.2496 -2.3285
  453SOL    HW2 2259   0.025   2.811   5.052  1.0342 -1.3002 -0.6759
  454SOL     OW 2260   1.000   0.127   6.758  0.0749  0.1085  0.2356
  454SOL    HW1 2261   1.041   0.038   6.744 -3.6762 -2.1796  2.1396
  454SOL    HW2 2262   0.930   0.143   6.688  1.1640  1.9426 -0.4942
  455SOL     OW 2263   1.712   4.758   3.276 -0.0894 -0.0542  0.5623
  455SOL    HW1 2264   1.768   4.753   3.359 -0.1648  1.1958  0.7108
  455SOL    HW2 2265   1.735   4.682   3.215  1.1433 -0.0554  1.0088
  456SOL     OW 2266   0.208   1.467   3.314 -0.2476 -0.3624 -0.3514
  456SOL    HW1 2267   0.270   1.541   3.342  0.5026 -1.2324  0.3577
  456SOL    HW2 2268   0.238   1.382   3.356 -1.4915 -0.9528 -0.6328
  457SOL     OW 2269   6.950   6.609   4.602 -0.1897  0.6360  0.3344
  457SOL    HW1 2270   6.966   6.699   4.642  0.2335  0.2201  1.1320
  457SOL    HW2 2271   6.981   6.538   4.666 -0.7988 -0.0849 -0.1517
  458SOL     OW 2272   2.907   5.340   3.423  0.2225 -0.8019  0.1699
  458SOL    HW1 2273   2.987   5.335   3.362 -0.2133 -1.8174 -0.3447
  458SOL    HW2 2274   2.826   5.360   3.368 -0.3273 -2.6458  0.2487
  459SOL     OW 2275   0.863   2.158   6.168 -0.0730 -0.1080 -0.1234
  459SOL    HW1 2276   0.797   2.219   6.210 -0.8353 -0.2546 -1.0731
  459SOL    HW2 2277   0.930   2.211   6.117  1.0832  0.0975  1.5185
  460SOL     OW 2278   0.941   2.946   4.199 -0.3136  0.2234  0.5254
  460SOL    HW1 2279   1.006   3.013   4.162  0.6406 -1.3514 -0.8226
  460SOL    HW2 2280   0.874   2.922   4.129 -1.9067  1.2246  1.6481
  461SOL     OW 2281   4.571   0.319   6.779 -0.1640  0.4266  0.2166
  461SOL    HW1 2282   4.657   0.358   6.811 -0.5567 -0.2308  2.2427
  461SOL    HW2 2283   4.516   0.291   6.858 -1.8573  0.0144 -1.0540
  462SOL     OW 2284   1.917   1.299   0.017 -0.1023 -0.3851 -0.1727
  462SOL    HW1 2285   1.903   1.227  -0.051 -2.2580 -1.2838  1.1427
  462SOL    HW2 2286   1.839   1.362   0.015  0.1540 -0.0135  0.9956
  463SOL     OW 2287   6.788   5.133   2.557  0.3932  0.2776  0.2162
  463SOL    HW1 2288   6.752   5.129   2.651 -0.1128  0.8262  0.0496
  463SOL    HW2 2289   6.807   5.228   2.533  1.3732  0.0557  0.0702
  464SOL     OW 2290   5.586   3.597   1.446 -0.5842  0.3364  0.0719
  464SOL    HW1 2291   5.627   3.506   1.452  1.3432  1.1227 -0.5117
  464SOL    HW2 2292   5.529   3.603   1.365  0.2673  0.0081 -0.5622
  465SOL     OW 2293   1.036   6.908   0.449 -0.0076  0.2048 -0.5403
  465SOL    HW1 2294   1.028   6.912   0.349 -1.0158 -0.6214 -0.5026
  465SOL    HW2 2295   1.010   6.996   0.488  1.1477  0.7884 -1.0364
  466SOL     OW 2296   2.046   4.572   3.298 -0.2013 -0.2370  0.1655
  466SOL    HW1 2297   1.967   4.542   3.351 -0.7672  0.4942 -0.2608
  466SOL    HW2 2298   2.056   4.671   3.304  1.6185 -0.4465  1.5040
  467SOL     OW 2299   3.594   6.846   7.004 -0.5882 -0.0421 -0.1236
  467SOL    HW1 2300   3.672   6.789   6.978  1.4251  1.6741  1.7982
  467SOL    HW2 2301   3.564   6.899   6.924  1.3583  0.5391 -0.5079
  468SOL     OW 2302   4.025   1.093   3.443 -0.5889 -0.0982 -0.2018
  468SOL    HW1 2303   4.055   1.063   3.533 -0.0050  1.0620  0.0176
  468SOL    HW2 2304   4.085   1.053   3.373  2.0828  2.6677  0.2673
  469SOL     OW 2305   4.237   3.829   1.423  0.4802  0.3126 -0.2013
  469SOL    HW1 2306   4.337   3.836   1.425  0.4327  0.9923  1.0892
  469SOL    HW2 2307   4.203   3.820   1.517 -0.6883  0.4787 -0.6001
  470SOL     OW 2308   1.561   1.941   3.611 -0.0732  0.1227 -0.3888
  470SOL    HW1 2309   1.546   1.844   3.590 -0.3166  0.2494 -0.7932
  470SOL    HW2 2310   1.613   1.948   3.697 -0.7771 -0.3548  0.0914
  471SOL     OW 2311   1.301   3.788   3.155 -0.1810 -0.1060 -1.0558
  471SOL    HW1 2312   1.208   3.765   3.125 -0.6295  1.4355 -0.9065
  471SOL    HW2 2313   1.299   3.817   3.250  0.8220 -2.1711 -0.3341
  472SOL     OW 2314   1.500   4.918   1.584  0.3185  1.2789 -0.2455
  472SOL    HW1 2315   1.595   4.922   1.552  0.2767  0.6825 -0.4600
  472SOL    HW2 2316   1.494   4.858   1.663 -0.1979 -0.3696 -1.4753
  473SOL     OW 2317   3.812   3.095   0.328 -0.2871  0.1461 -0.3720
  473SOL    HW1 2318   3.829   3.184   0.371  0.3074 -0.1842  0.1051
  473SOL    HW2 2319   3.796   3.108   0.230 -0.9175  0.8429 -0.1865
  474SOL     OW 2320   3.429   6.077   5.980 -0.3514  0.4736  0.2349
  474SOL    HW1 2321   3.423   6.001   5.916 -0.8919  1.0426 -0.3911
  474SOL    HW2 2322   3.339   6.097   6.018 -0.1949  0.7488  0.4721
  475SOL     OW 2323   6.214   0.009   4.755 -0.2396 -0.1711 -0.6909
  475SOL    HW1 2324   6.301  -0.011   4.800  0.2499  2.0572 -0.5805
  475SOL    HW2 2325   6.144   0.026   4.824 -0.2780  0.0181 -0.7747
  476SOL     OW 2326   3.904   5.456   5.157 -0.2668 -0.2172  0.1393
  476SOL    HW1 2327   3.956   5.466   5.073 -0.7777 -0.6284 -0.2310
  476SOL    HW2 2328   3.967   5.437   5.233  0.0407 -2.2028 -0.5593
  477SOL     OW 2329   5.557   5.418   3.905 -0.0002 -0.2336  0.1060
  477SOL    HW1 2330   5.494   5.474   3.851  0.8881  0.5019 -0.1849
  477SOL    HW2 2331   5.508   5.339   3.942 -1.0580  0.2608 -0.2164
  478SOL     OW 2332   3.134   0.267   0.668 -0.4554  0.0670 -0.5101
  478SOL    HW1 2333   3.120   0.338   0.599 -3.0592 -0.8001 -0.9733
  478SOL    HW2 2334   3.048   0.250   0.716  0.2820 -2.2414  0.1068
  479SOL     OW 2335   0.534   5.273   1.820  0.1727  0.6424  0.1406
  479SOL    HW1 2336   0.519   5.369   1.843 -2.0903  0.1092  1.1818
  479SOL    HW2 2337   0.445   5.228   1.806  1.1575 -1.4334  0.2236
  480SOL     OW 2338   6.916   4.953   1.985 -0.0372 -0.1369  0.1049
  480SOL    HW1 2339   6.884   5.039   1.946  0.8159  0.2162  0.1635
  480SOL    HW2 2340   6.880   4.877   1.932 -2.5235  0.1274  1.2647
  481SOL     OW 2341   1.805   2.477   0.336  0.1571 -0.1579 -0.1385
  481SOL    HW1 2342   1.752   2.548   0.289  1.5519  0.5856 -0.6521
  481SOL    HW2 2343   1.896   2.512   0.356 -0.3767 -0.3771  3.2981
  482SOL     OW 2344   1.968   6.240   4.316 -0.1765 -0.2035  0.9856
  482SOL    HW1 2345   2.062   6.263   4.342  0.2918 -0.7759 -0.1043
  482SOL    HW2 2346   1.933   6.168   4.376 -0.7158  1.4542  2.7552
  483SOL     OW 2347   4.766   1.951   6.780 -0.6828  0.0267 -0.0772
  483SOL    HW1 2348   4.713   1.867   6.773 -0.1092 -0.3406 -0.1145
  483SOL    HW2 2349   4.745   1.998   6.866 -1.0924 -0.0920 -0.1133
  484SOL     OW 2350   0.241   5.420   6.733  0.0534  0.5081  0.6866
  484SOL    HW1 2351   0.192   5.498   6.772  1.8874  1.7436  0.6675
  484SOL    HW2 2352   0.296   5.376   6.805 -0.1301 -0.0916  0.4648
  485SOL     OW 2353   5.912   1.335   6.929  0.4167 -0.1410 -0.1136
  485SOL    HW1 2354   5.815   1.342   6.951  0.6366  1.5420  0.4546
  485SOL    HW2 2355   5.943   1.241   6.944 -0.2619  0.0997  3.4831
  486SOL     OW 2356   1.961   5.743   5.664  0.1924  0.3711 -0.6010
  486SOL    HW1 2357   1.932   5.704   5.751  0.9471 -0.3301 -0.6484
  486SOL    HW2 2358   1.900   5.711   5.591 -0.1634  0.5864 -0.3978
  487SOL     OW 2359   0.311   5.623   6.227  0.3248  0.6733  0.2112
  487SOL    HW1 2360   0.305   5.569   6.311 -1.7470 -0.4415 -0.5780
  487SOL    HW2 2361   0.255   5.705   6.236 -0.3505  0.2753 -0.2367
  488SOL     OW 2362   3.421   3.643   4.245  0.4199  0.1892 -0.1343
  488SOL    HW1 2363   3.342   3.703   4.232  0.6725  0.3875 -0.7755
  488SOL    HW2 2364   3.483   3.652   4.167  0.3062 -1.1363 -0.4037
  489SOL     OW 2365   2.877   1.128   1.322 -0.6436  0.3929  0.4614
  489SOL    HW1 2366   2.804   1.060   1.333 -1.2181  1.0992  1.1067
  489SOL    HW2 2367   2.963   1.090   1.354 -1.4015  0.7639  3.2046
  490SOL     OW 2368   5.237   5.011   6.966  0.2329 -0.4056 -0.1392
  490SOL    HW1 2369   5.204   5.047   6.879  1.6469  1.8996  0.1837
  490SOL    HW2 2370   5.329   4.974   6.953  0.2716 -0.4552  0.2710
  491SOL     OW 2371   1.688   3.573   1.787  0.4867 -0.0731  0.4315
  491SOL    HW1 2372   1.780   3.533   1.788  0.9675  0.9866  1.1238
  491SOL    HW2 2373   1.684   3.647   1.855 -0.8700 -0.0766  0.3733
  492SOL     OW 2374   1.844   6.072   4.515  0.2476  0.0128  0.2044
  492SOL    HW1 2375   1.852   6.038   4.609  0.1152  0.5344  0.4094
  492SOL    HW2 2376   1.778   6.017   4.464 -1.0357  0.8123  0.9414
  493SOL     OW 2377   5.548   5.053   6.870  0.1497 -0.4547  0.3633
  493SOL    HW1 2378   5.583   5.144   6.847 -0.3548 -0.3928 -0.1524
  493SOL    HW2 2379   5.624   4.997   6.905  0.0478  0.8643  2.8937
  494SOL     OW 2380   3.775   6.477   0.203  0.6102  0.2476 -0.7708
  494SOL    HW1 2381   3.863   6.429   0.206  1.4543  1.7363 -0.9645
  494SOL    HW2 2382   3.762   6.528   0.287  0.2526  0.5870 -1.0321
  495SOL     OW 2383   6.685   2.172   6.388 -0.0735  0.0401  0.0351
  495SOL    HW1 2384   6.598   2.191   6.434 -0.6759 -0.2037 -0.9685
  495SOL    HW2 2385   6.707   2.248   6.326 -1.0026 -1.1129 -1.7929
  496SOL     OW 2386   3.061   1.550   1.402 -0.1907 -0.7486  0.1416
  496SOL    HW1 2387   3.046   1.535   1.304  3.1651  1.5278 -0.9137
  496SOL    HW2 2388   3.096   1.466   1.443  0.1290 -1.2354 -1.0728
  497SOL     OW 2389   2.872   2.252   4.813  0.1533 -0.6085 -0.3874
  497SOL    HW1 2390   2.965   2.242   4.849  0.6187  1.2994 -0.9617
  497SOL    HW2 2391   2.864   2.339   4.764 -1.0792 -2.0586 -2.9648
  498SOL     OW 2392   4.087   1.875   2.679  0.4129  0.5892 -0.1298
  498SOL    HW1 2393   4.054   1.896   2.587 -1.4649 -0.2486  0.3136
  498SOL    HW2 2394   4.061   1.948   2.741  0.2643  0.4032  0.0294
  499SOL     OW 2395   2.558   1.044   1.829  0.8793 -0.0502 -0.2983
  499SOL    HW1 2396   2.603   1.107   1.894  1.8257  0.2833 -1.2476
  499SOL    HW2 2397   2.559   1.084   1.738 -0.7833 -0.3487 -0.4848
  500SOL     OW 2398   5.658   3.183   4.806 -0.0575  0.7765  0.0413
  500SOL    HW1 2399   5.721   3.132   4.748 -2.1956 -0.5432 -1.2557
  500SOL    HW2 2400   5.650   3.138   4.895  0.3276  0.5999 -0.0109
  501SOL     OW 2401   3.478   4.121   2.686  0.5888  0.1713 -0.1328
  501SOL    HW1 2402   3.406   4.056   2.664 -1.4081  2.1287  0.2675
  501SOL    HW2 2403   3.487   4.129   2.785  0.3982  0.9113 -0.1693
  502SOL     OW 2404   5.141   0.213   6.413 -0.3939 -0.7050 -0.0093
  502SOL    HW1 2405   5.135   0.274   6.492 -0.4089  0.2644 -0.7431
  502SOL    HW2 2406   5.075   0.139   6.424  0.5816 -1.3981  1.5563
  503SOL     OW 2407   5.772   3.918   2.728  0.2309  0.6724 -0.1959
  503SOL    HW1 2408   5.836   3.885   2.658  1.8885  1.7233  0.7921
  503SOL    HW2 2409   5.715   3.990   2.689  1.1086  1.2164 -0.4875
  504SOL     OW 2410   3.378   0.621   1.984 -0.3267  0.7067 -0.5243
  504SOL    HW1 2411   3.372   0.522   1.990 -0.0771  0.4122 -3.5726
  504SOL    HW2 2412   3.454   0.646   1.924  0.0645  2.8193  0.7329
  505SOL     OW 2413   2.712   1.192   2.075 -0.1048 -0.3180 -0.2349
  505SOL    HW1 2414   2.662   1.255   2.134  1.1651 -1.6748  2.4594
  505SOL    HW2 2415   2.672   1.100   2.082  0.2928 -0.5898 -1.2606
  506SOL     OW 2416   6.681   5.413   1.976 -0.1462  0.6886  0.3802
  506SOL    HW1 2417   6.585   5.439   1.984  0.3709  2.4000  1.6409
  506SOL    HW2 2418   6.708   5.359   2.055 -0.2269 -0.4683 -0.3505
  507SOL     OW 2419   1.321   0.478   6.188 -0.0595  0.2351  0.2800
  507SOL    HW1 2420   1.382   0.518   6.120 -2.0755  1.4182 -0.9525
  507SOL    HW2 2421   1.264   0.408   6.145 -1.4404  1.0767  0.6539
  508SOL     OW 2422   0.826   1.396   5.755  0.5394 -0.1645 -0.2007
  508SOL    HW1 2423   0.821   1.489   5.720  0.4056 -0.3319 -0.6435
  508SOL    HW2 2424   0.878   1.394   5.840 -1.7052  0.7192  1.2616
  509SOL     OW 2425   6.546   2.484   6.035 -0.0431  0.1636  0.0766
  509SOL    HW1 2426   6.511   2.574   6.008 -0.0552 -0.3215 -1.6534
  509SOL    HW2 2427   6.472   2.417   6.033  0.2230 -0.1358  0.1014
  510SOL     OW 2428   0.860   1.586   4.039 -0.1284  0.7069 -0.2673
  510SOL    HW1 2429   0.954   1.565   4.012  0.4108  3.2812 -0.6846
  510SOL    HW2 2430   0.798   1.558   3.966  0.2100 -1.4042  0.1865
  511SOL     OW 2431   3.563   1.359   1.799  0.2512 -0.9236 -0.4146
  511SOL    HW1 2432   3.569   1.454   1.769  1.8654 -0.8727 -0.0222
  511SOL    HW2 2433   3.526   1.303   1.725  0.0434 -0.1144 -0.9327
  512SOL     OW 2434   0.679   4.930   2.981 -0.6048  0.7559  0.0387
  512SOL    HW1 2435   0.775   4.955   2.993 -0.7930  0.6366  2.4705
  512SOL    HW2 2436   0.655   4.859   3.048 -2.4498  0.9579 -0.3589
  513SOL     OW 2437   0.174   5.881   2.695  0.4186 -0.8094  0.6995
  513SOL    HW1 2438   0.168   5.941   2.775 -1.2626 -1.9814  1.5253
  513SOL    HW2 2439   0.083   5.872   2.654  0.9727 -1.4469 -0.4333
  514SOL     OW 2440   4.982   3.249   2.913 -0.5206 -0.3978 -0.3831
  514SOL    HW1 2441   4.982   3.280   2.818  0.0125 -0.3538 -0.3722
  514SOL    HW2 2442   4.940   3.320   2.971  0.1327  0.0499 -0.4427
  515SOL     OW 2443   0.613   6.762   1.667  0.1627 -0.1730  0.1309
  515SOL    HW1 2444   0.695   6.706   1.659  0.4505  0.0286  1.5473
  515SOL    HW2 2445   0.627   6.835   1.734 -0.7433  0.6587 -0.5339
  516SOL     OW 2446   0.935   4.372   6.379 -0.1532  0.3453  0.7349
  516SOL    HW1 2447   0.986   4.458   6.385 -1.1241  1.3612 -3.0659
  516SOL    HW2 2448   0.840   4.387   6.404 -0.9221  1.1248 -2.3418
  517SOL     OW 2449   0.554   3.462   4.798 -0.2253 -0.9770 -0.0219
  517SOL    HW1 2450   0.477   3.503   4.749 -0.4245  1.0720  1.8777
  517SOL    HW2 2451   0.522   3.424   4.885  0.9430  0.5109  1.1087
  518SOL     OW 2452   4.604   4.394   3.837  0.4960  0.1948  0.4782
  518SOL    HW1 2453   4.701   4.420   3.846  1.1648 -0.4951 -3.2748
  518SOL    HW2 2454   4.554   4.468   3.793 -0.1527 -0.3724  0.2473
  519SOL     OW 2455   2.942   1.601   3.100  0.1113 -0.4465  0.0697
  519SOL    HW1 2456   2.938   1.654   3.015 -1.3865  2.0390  1.5548
  519SOL    HW2 2457   2.853   1.604   3.145  0.8570 -1.7186  1.7347
  520SOL     OW 2458   4.852   4.568   1.143  0.0229 -0.0869  0.2986
  520SOL    HW1 2459   4.947   4.569   1.173 -0.2853 -0.9758  1.3456
  520SOL    HW2 2460   4.799   4.633   1.197 -0.8831 -2.8773  3.0633
  521SOL     OW 2461   3.837   5.735   1.974  0.6233  0.4391  0.6566
  521SOL    HW1 2462   3.796   5.727   2.065 -2.0389 -1.2712 -0.5496
  521SOL    HW2 2463   3.833   5.646   1.928  3.0507  0.9584 -0.7309
  522SOL     OW 2464   4.436   1.158   1.233  0.5824 -0.0765 -0.3077
  522SOL    HW1 2465   4.371   1.213   1.180  0.4272 -0.7967 -0.8986
  522SOL    HW2 2466   4.529   1.183   1.208  0.5226  0.3156 -0.1442
  523SOL     OW 2467   5.959   4.721   1.507 -0.5340 -0.1606  0.3198
  523SOL    HW1 2468   6.041   4.774   1.530 -0.4154 -0.2916  0.2050
  523SOL    HW2 2469   5.958   4.703   1.409 -0.7911 -0.0107  0.2946
  524SOL     OW 2470   3.451   1.202   1.616  0.4517 -0.0859 -0.0859
  524SOL    HW1 2471   3.352   1.193   1.602  0.8350 -0.2379 -3.5129
  524SOL    HW2 2472   3.498   1.124   1.575  2.0579  0.1459  1.2005
  525SOL     OW 2473   0.133   5.505   1.881  0.3748  0.1884 -0.1895
  525SOL    HW1 2474   0.041   5.542   1.898 -0.3857 -2.2957  1.6564
  525SOL    HW2 2475   0.192   5.528   1.959  1.0879  0.9978 -0.9530
  526SOL     OW 2476   5.711   5.033   2.627  0.4914  0.3138 -0.8487
  526SOL    HW1 2477   5.616   5.023   2.599  0.3314  1.3102 -0.7279
  526SOL    HW2 2478   5.759   4.946   2.619 -0.7456 -0.5062  0.2663
  527SOL     OW 2479   2.056   3.444   6.738  0.1467  0.2106 -0.1768
  527SOL    HW1 2480   2.002   3.515   6.784 -0.4141 -0.4397  0.2088
  527SOL    HW2 2481   2.109   3.394   6.806 -2.9836 -2.7516  0.3498
  528SOL     OW 2482   5.144   4.105   6.679  0.2964 -0.3785 -0.4827
  528SOL    HW1 2483   5.152   4.069   6.587  0.6699 -0.7805 -0.2965
  528SOL    HW2 2484   5.057   4.076   6.719 -1.1872  2.0709 -1.6768
  529SOL     OW 2485   4.343   5.801   2.475 -0.2051  0.0433  0.3884
  529SOL    HW1 2486   4.308   5.714   2.509  1.0542 -0.4600  0.4583
  529SOL    HW2 2487   4.375   5.790   2.381 -0.4892  0.5578  0.2275
  530SOL     OW 2488   3.636   1.697   0.700 -0.0503 -0.4420 -0.6846
  530SOL    HW1 2489   3.718   1.753   0.692 -1.8980  2.3544 -1.8531
  530SOL    HW2 2490   3.590   1.719   0.786 -0.1555 -1.1460 -0.5574
  531SOL     OW 2491   1.788   2.190   3.508  0.0151  0.3008  0.2350
  531SOL    HW1 2492   1.720   2.200   3.581 -0.4238  1.1284 -0.2642
  531SOL    HW2 2493   1.839   2.276   3.499 -0.4430  0.4749 -0.9086
  532SOL     OW 2494   4.524   6.800   2.649  1.0215 -0.5020  0.1180
  532SOL    HW1 2495   4.491   6.892   2.671 -1.4935 -1.2975 -0.0109
  532SOL    HW2 2496   4.521   6.742   2.730 -1.0104 -1.4029 -0.5202
  533SOL     OW 2497   6.178   5.650   6.668  0.0605  0.7938  0.2704
  533SOL    HW1 2498   6.214   5.742   6.686 -0.2735  0.8564  0.6140
  533SOL    HW2 2499   6.091   5.637   6.716 -0.5255  0.7350 -0.7670
  534SOL     OW 2500   4.559   6.692   5.305  0.8374 -0.1944 -0.4420
  534SOL    HW1 2501   4.522   6.727   5.392  0.7874  0.7189 -0.8221
  534SOL    HW2 2502   4.558   6.592   5.307  0.7745 -0.1876  0.5844
  535SOL     OW 2503   4.524   2.086   6.104  0.2435  0.1927  0.7406
  535SOL    HW1 2504   4.583   2.166   6.088 -1.7500  1.2321 -2.2289
  535SOL    HW2 2505   4.439   2.117   6.147 -0.6440 -0.2183 -0.6503
  536SOL     OW 2506   4.493   1.690   5.466  0.3251 -0.0188 -0.0171
  536SOL    HW1 2507   4.471   1.757   5.537 -1.3005 -1.6531  1.1184
  536SOL    HW2 2508   4.427   1.699   5.390  0.7489  0.3265 -0.3507
  537SOL     OW 2509   4.467   0.250   1.023  0.8854 -0.3918 -0.2523
  537SOL    HW1 2510   4.441   0.210   0.935  0.8634 -0.7639 -0.0783
  537SOL    HW2 2511   4.391   0.306   1.058  0.7746 -0.4986 -0.3201
  538SOL     OW 2512   0.889   4.144   0.183  0.1932 -0.1541  0.2504
  538SOL    HW1 2513   0.948   4.217   0.218  0.4658 -0.0409 -0.4229
  538SOL    HW2 2514   0.895   4.141   0.083  0.9054 -1.6964  0.3038
  539SOL     OW 2515   1.644   4.150   3.165  0.0520  0.1915  0.5024
  539SOL    HW1 2516   1.572   4.189   3.107  1.0845 -2.1754 -2.6591
  539SOL    HW2 2517   1.729   4.201   3.151 -0.1229  0.7469  1.4129
  540SOL     OW 2518   4.382   5.549   4.695  0.1207  0.3906  0.3089
  540SOL    HW1 2519   4.464   5.520   4.745 -0.6390  1.1477  2.0505
  540SOL    HW2 2520   4.303   5.496   4.726  0.0254 -0.9541 -1.9686
  541SOL     OW 2521   5.293   1.822   2.572  0.0520  0.1551 -0.6183
  541SOL    HW1 2522   5.277   1.918   2.592  1.5987  0.7018 -1.7699
  541SOL    HW2 2523   5.383   1.795   2.608 -0.0555 -0.6571 -0.9336
  542SOL     OW 2524   0.531   2.495   3.384  0.7064  0.2346  0.3856
  542SOL    HW1 2525   0.607   2.518   3.324 -0.2215  0.0393 -0.9123
  542SOL    HW2 2526   0.531   2.557   3.463  0.8083  1.8337 -0.8180
  543SOL     OW 2527   6.440   5.129   5.740 -0.5141  0.1364  0.1236
  543SOL    HW1 2528   6.475   5.068   5.811 -0.3055  0.5315  0.3588
  543SOL    HW2 2529   6.426   5.076   5.656  2.5386  0.3105 -0.6052
  544SOL     OW 2530   2.011   1.635   2.855 -0.3073  0.3285  0.0410
  544SOL    HW1 2531   1.978   1.649   2.949  0.1462  0.2370  0.2171
  544SOL    HW2 2532   2.103   1.673   2.846 -0.1974 -0.0001 -0.2631
  545SOL     OW 2533   6.851   5.499   4.044 -0.1144  0.1171 -0.1733
  545SOL    HW1 2534   6.837   5.598   4.046  0.4212  0.2023 -0.5661
  545SOL    HW2 2535   6.818   5.462   3.958  0.2693  0.0480 -0.2937
  546SOL     OW 2536   4.326   6.087   4.997  0.3482  0.1905 -0.2936
  546SOL    HW1 2537   4.300   5.992   5.015  1.7721 -0.3775 -1.0360
  546SOL    HW2 2538   4.331   6.102   4.898  0.0539  1.0666 -0.1816
  547SOL     OW 2539   2.649   3.210   1.377  0.5002  0.7463 -0.3696
  547SOL    HW1 2540   2.668   3.113   1.360 -0.7945  0.0926  1.5506
  547SOL    HW2 2541   2.553   3.229   1.358  0.1822  1.0823  1.3516
  548SOL     OW 2542   2.424   0.875   0.573 -0.1087 -0.1989  0.5653
  548SOL    HW1 2543   2.454   0.903   0.664 -0.1047  0.7818  0.2802
  548SOL    HW2 2544   2.409   0.957   0.516  2.1226 -0.8144 -1.0483
  549SOL     OW 2545   3.896   0.860   3.902 -0.5680 -0.6783 -0.2043
  549SOL    HW1 2546   3.822   0.848   3.836 -3.0662  1.9589  1.8658
  549SOL    HW2 2547   3.912   0.773   3.949 -2.1143 -1.4206 -0.9461
  550SOL     OW 2548   0.864   5.097   0.825  0.0158  0.2749  0.0798
  550SOL    HW1 2549   0.829   5.019   0.773 -0.9882  0.9086 -0.2206
  550SOL    HW2 2550   0.933   5.145   0.770  0.2265 -0.0663  0.0400
  551SOL     OW 2551   2.931   1.864   6.438  0.2120 -0.6151  0.2370
  551SOL    HW1 2552   2.980   1.933   6.492 -1.4379 -1.5397  3.1215
  551SOL    HW2 2553   2.993   1.789   6.415  1.1518  0.1866  0.0820
  552SOL     OW 2554   2.252   1.594   6.593 -0.1851  0.4261 -0.2918
  552SOL    HW1 2555   2.306   1.510   6.581 -0.3533  0.5260 -2.0279
  552SOL    HW2 2556   2.160   1.579   6.558 -0.4555  1.1055  0.1197
  553SOL     OW 2557   6.272   5.708   4.722  0.6760 -0.6451 -0.2656
  553SOL    HW1 2558   6.289   5.725   4.625  0.7869 -0.4415 -0.2108
  553SOL    HW2 2559   6.197   5.767   4.754 -0.2680 -1.6686 -0.5499
  554SOL     OW 2560   4.210   3.405   1.369  0.2763 -0.1184  0.2899
  554SOL    HW1 2561   4.176   3.329   1.424 -0.0234 -0.2318 -0.0458
  554SOL    HW2 2562   4.290   3.446   1.413 -1.2784  1.2515  2.0206
  555SOL     OW 2563   6.399   4.326   4.816 -0.3766 -0.7613  0.3491
  555SOL    HW1 2564   6.454   4.364   4.742  0.6958 -0.4052  1.3107
  555SOL    HW2 2565   6.458   4.278   4.881 -1.4271 -2.0181  0.4209
  556SOL     OW 2566   2.533   5.691   0.587 -0.0821  0.1712  0.3641
  556SOL    HW1 2567   2.576   5.618   0.535  0.3823  0.4110  0.4002
  556SOL    HW2 2568   2.561   5.780   0.549  0.9245  0.3710  1.5017
  557SOL     OW 2569   5.186   3.519   1.967 -0.0038  0.1105  0.0624
  557SOL    HW1 2570   5.250   3.477   2.030 -0.5144  1.1867  1.3357
  557SOL    HW2 2571   5.228   3.600   1.925 -0.8271  1.4605  1.7181
  558SOL     OW 2572   1.000   6.279   3.468 -0.0090  0.2140 -0.2694
  558SOL    HW1 2573   0.910   6.304   3.431  0.5579  0.9560 -1.2074
  558SOL    HW2 2574   0.990   6.199   3.527 -1.0160 -1.0305 -1.9838
  559SOL     OW 2575   6.027   6.851   6.425  0.1895 -0.0048 -0.7052
  559SOL    HW1 2576   6.064   6.943   6.417 -0.9784  0.5194 -0.3126
  559SOL    HW2 2577   5.979   6.827   6.341 -0.2717  0.1037 -0.4768
  560SOL     OW 2578   0.426   2.649   2.513  0.1235  0.2631  0.1687
  560SOL    HW1 2579   0.472   2.707   2.447 -0.6285  0.1925 -0.4286
  560SOL    HW2 2580   0.349   2.601   2.469  1.2571 -1.8959  0.3935
  561SOL     OW 2581   3.731   2.897   0.505  0.2572  0.0896 -0.1309
  561SOL    HW1 2582   3.740   2.965   0.433 -0.0709  1.5439  1.1521
  561SOL    HW2 2583   3.641   2.905   0.548  0.2024 -1.1773  0.0282
  562SOL     OW 2584   1.598   6.911   2.557  0.1934 -0.3681 -0.2316
  562SOL    HW1 2585   1.502   6.883   2.553 -0.1596  0.6590  0.6586
  562SOL    HW2 2586   1.615   6.961   2.642  1.2091  0.6058 -0.9704
  563SOL     OW 2587   5.517   6.348   0.272  0.1835 -0.2278 -0.2012
  563SOL    HW1 2588   5.452   6.399   0.327  1.0560 -0.2156  0.8450
  563SOL    HW2 2589   5.469   6.302   0.197 -1.0916 -0.6683  0.8547
  564SOL     OW 2590   6.317   4.801   3.161 -1.0319  0.1805  0.2667
  564SOL    HW1 2591   6.217   4.796   3.162 -0.9807 -1.5286  0.4404
  564SOL    HW2 2592   6.350   4.799   3.067 -1.1789  2.6166  0.1053
  565SOL     OW 2593   5.027   0.555   6.918  0.0798 -0.1447  0.0808
  565SOL    HW1 2594   4.994   0.587   7.007 -0.3415  1.3961 -0.5823
  565SOL    HW2 2595   5.125   0.535   6.923  0.1629  0.4082  0.7872
  566SOL     OW 2596   1.090   2.765   5.195 -0.6945  0.0330  0.3045
  566SOL    HW1 2597   1.036   2.816   5.261  0.5412  0.9796  0.6147
  566SOL    HW2 2598   1.029   2.718   5.131 -1.8795  0.9924  0.6960
  567SOL     OW 2599   1.707   2.386   6.112 -0.4473  0.2425 -0.8827
  567SOL    HW1 2600   1.752   2.387   6.201 -0.9506  2.1883 -0.6010
  567SOL    HW2 2601   1.748   2.314   6.055  1.3293  0.3289  0.1956
  568SOL     OW 2602   5.084   4.898   1.892  0.8687  0.2071 -0.3893
  568SOL    HW1 2603   5.106   4.910   1.989  0.8632 -1.1256 -0.2135
  568SOL    HW2 2604   5.166   4.916   1.837  0.9069  0.8375 -0.1376
  569SOL     OW 2605   3.950   0.822   1.315  0.1566  0.3290 -0.1760
  569SOL    HW1 2606   4.010   0.809   1.236 -1.7921  1.3469 -1.9282
  569SOL    HW2 2607   3.993   0.885   1.379  0.6336  1.7114 -1.7853
  570SOL     OW 2608   0.804   1.139   0.520 -0.3541 -0.2251 -0.7884
  570SOL    HW1 2609   0.743   1.147   0.599 -0.4180 -0.7386 -0.7827
  570SOL    HW2 2610   0.893   1.179   0.543  0.6759 -3.0690  0.6523
  571SOL     OW 2611   6.382   5.571   0.125 -0.5017 -0.3807  0.1387
  571SOL    HW1 2612   6.314   5.629   0.080 -0.7063 -0.2243  0.6356
  571SOL    HW2 2613   6.430   5.515   0.057 -1.2350 -0.6018 -0.2052
  572SOL     OW 2614   4.880   3.110   4.159 -0.4177  0.5710 -0.2456
  572SOL    HW1 2615   4.848   3.204   4.166 -1.5257  0.4443 -2.5299
  572SOL    HW2 2616   4.918   3.095   4.067 -0.5675 -1.2780 -0.0371
  573SOL     OW 2617   0.598   2.876   4.424 -0.2122  0.2595 -0.0105
  573SOL    HW1 2618   0.652   2.960   4.421 -1.4061  1.0405  0.0651
  573SOL    HW2 2619   0.608   2.827   4.338  1.7897 -0.3800  0.5264
  574SOL     OW 2620   3.952   5.774   1.296  0.3764  0.2558  0.8883
  574SOL    HW1 2621   3.899   5.839   1.242 -1.6596 -0.6804  1.6649
  574SOL    HW2 2622   3.919   5.774   1.390  1.6877 -0.4805  1.3764
  575SOL     OW 2623   3.562   6.226   5.270  0.5422 -0.0167 -0.0651
  575SOL    HW1 2624   3.467   6.231   5.302  0.2286  1.0913 -1.0605
  575SOL    HW2 2625   3.604   6.316   5.280  0.9906 -0.1049 -1.0476
  576SOL     OW 2626   4.213   1.376   2.164 -0.4725  0.3973  0.3064
  576SOL    HW1 2627   4.217   1.294   2.106  0.0193  0.5395  0.1359
  576SOL    HW2 2628   4.279   1.443   2.131  0.1031  0.3209  1.2800
  577SOL     OW 2629   4.580   5.929   2.895  0.0754  0.0869  0.0708
  577SOL    HW1 2630   4.579   5.864   2.819 -0.0559  0.5632 -0.3376
  577SOL    HW2 2631   4.560   5.880   2.980  1.7637 -0.7300  0.0309
  578SOL     OW 2632   1.906   1.101   3.149 -0.5790  0.4232 -0.0734
  578SOL    HW1 2633   1.932   1.170   3.081  0.1990  0.7271  0.5237
  578SOL    HW2 2634   1.890   1.145   3.237  0.7224 -0.2448  0.5103
  579SOL     OW 2635   3.699   6.589   6.973  0.1010  0.8745 -0.8746
  579SOL    HW1 2636   3.755   6.519   6.929 -0.9542 -0.7924  0.3091
  579SOL    HW2 2637   3.723   6.595   7.070 -2.0344 -0.2726 -0.2039
  580SOL     OW 2638   5.658   3.990   6.573  0.0703 -0.6559  0.4249
  580SOL    HW1 2639   5.736   3.953   6.521 -0.2941  2.4559 -2.6909
  580SOL    HW2 2640   5.683   4.078   6.612 -1.5636 -0.1044  0.3005
  581SOL     OW 2641   3.759   1.619   0.153 -0.6079  0.1929 -0.4121
  581SOL    HW1 2642   3.766   1.641   0.250  0.7283  0.5015 -0.5619
  581SOL    HW2 2643   3.796   1.527   0.137 -2.0694 -0.4065 -0.4427
  582SOL     OW 2644   0.182   5.342   1.558  0.6127 -0.8847  0.5954
  582SOL    HW1 2645   0.089   5.378   1.568  0.7253 -0.4596  0.1740
  582SOL    HW2 2646   0.247   5.416   1.573  0.8376 -0.7388 -0.9240
  583SOL     OW 2647   0.167   5.696   5.474 -0.3755 -0.1776 -0.2357
  583SOL    HW1 2648   0.128   5.753   5.401 -0.2955  0.0430 -0.1055
  583SOL    HW2 2649   0.254   5.735   5.504 -0.3550 -0.3294 -0.0953
  584SOL     OW 2650   3.956   6.329   1.669  0.1588  0.4324  0.6470
  584SOL    HW1 2651   4.038   6.281   1.702  0.4498  1.6954  1.8584
  584SOL    HW2 2652   3.880   6.265   1.665  0.6527 -0.2647  1.7481
  585SOL     OW 2653   5.619   5.237   0.234 -0.1407 -0.0362 -0.0847
  585SOL    HW1 2654   5.610   5.316   0.295 -1.7970  0.4747 -0.9204
  585SOL    HW2 2655   5.677   5.262   0.157  0.0947  0.0549  0.1196
  586SOL     OW 2656   2.090   0.048   0.586 -0.6250 -0.5364  0.0399
  586SOL    HW1 2657   2.116   0.141   0.561 -1.8922 -0.2407 -0.2482
  586SOL    HW2 2658   2.067   0.045   0.683  0.8318 -0.8900  0.3917
  587SOL     OW 2659   3.898   1.790   0.709  0.3744 -0.0142 -0.5244
  587SOL    HW1 2660   3.909   1.799   0.808 -1.5938  1.8601 -0.4048
  587SOL    HW2 2661   3.894   1.880   0.667  0.3563 -0.7685 -2.2217
  588SOL     OW 2662   3.639   6.112   1.332 -0.5267 -0.4359  0.3266
  588SOL    HW1 2663   3.600   6.182   1.391 -2.1454  0.3811 -1.6233
  588SOL    HW2 2664   3.569   6.077   1.270  1.1191 -1.1803 -1.2017
  589SOL     OW 2665   0.978   6.393   2.792 -0.7991 -0.0665 -0.0797
  589SOL    HW1 2666   0.980   6.331   2.871 -2.0957  0.1766  0.1607
  589SOL    HW2 2667   1.037   6.356   2.720  0.9144  0.0119  1.1990
  590SOL     OW 2668   6.832   6.241   6.597  0.3815  0.1996  0.0930
  590SOL    HW1 2669   6.753   6.208   6.648  0.2252 -0.5455 -0.6024
  590SOL    HW2 2670   6.802   6.272   6.506  0.9924 -0.9058 -0.5024
  591SOL     OW 2671   3.148   3.071   3.346  0.7651  0.6048  0.2731
  591SOL    HW1 2672   3.118   2.996   3.405  0.7393  0.0445 -0.4393
  591SOL    HW2 2673   3.181   3.033   3.259 -0.2786  1.4900 -0.5286
  592SOL     OW 2674   6.060   4.224   1.760  0.0055  0.2183 -0.4178
  592SOL    HW1 2675   6.160   4.216   1.757  0.1401  0.7181  1.5022
  592SOL    HW2 2676   6.035   4.319   1.777 -0.8792  0.3240 -2.0844
  593SOL     OW 2677   5.119   1.870   6.461 -0.3960 -0.1849  0.0490
  593SOL    HW1 2678   5.036   1.922   6.480 -0.4023 -0.6337  1.2883
  593SOL    HW2 2679   5.181   1.927   6.407 -0.9666  0.6176  0.2091
  594SOL     OW 2680   4.789   5.613   6.101 -0.4484 -0.4941 -0.1925
  594SOL    HW1 2681   4.847   5.580   6.027 -0.3050  0.9832 -0.7741
  594SOL    HW2 2682   4.696   5.579   6.088 -1.1185  1.8940 -2.6895
  595SOL     OW 2683   1.626   2.688   6.651  0.6442 -0.5329  0.5839
  595SOL    HW1 2684   1.541   2.687   6.599  0.2460  0.6774  1.1719
  595SOL    HW2 2685   1.634   2.774   6.700  1.6722 -1.0918  1.4422
  596SOL     OW 2686   2.996   5.313   2.575  0.1341 -0.1287  0.1321
  596SOL    HW1 2687   2.991   5.398   2.627  0.6536 -0.2935  0.4542
  596SOL    HW2 2688   3.031   5.239   2.633  1.2443 -0.1907 -0.5821
  597SOL     OW 2689   1.111   4.471   3.738 -0.3540  0.0967  0.2481
  597SOL    HW1 2690   1.166   4.529   3.677 -0.3664 -0.9365 -0.7832
  597SOL    HW2 2691   1.172   4.418   3.797 -0.3413  1.0854  1.1470
  598SOL     OW 2692   1.178   6.113   3.789 -0.2120 -0.5572  0.2122
  598SOL    HW1 2693   1.131   6.201   3.795  0.4238 -0.1578 -0.4696
  598SOL    HW2 2694   1.133   6.057   3.719  0.4919 -0.0534 -0.6650
  599SOL     OW 2695   6.293   6.300   0.030 -0.2227  0.0627 -0.4160
  599SOL    HW1 2696   6.211   6.357   0.036 -0.7801 -0.8802  1.9948
  599SOL    HW2 2697   6.314   6.283  -0.066 -2.1736  1.2760 -1.1234
  600SOL     OW 2698   4.010   5.442   4.443 -0.0179  0.1619 -0.0975
  600SOL    HW1 2699   3.915   5.418   4.462  0.1544 -1.3534 -1.0396
  600SOL    HW2 2700   4.041   5.396   4.360  1.6943  0.2417  0.4448
  601SOL     OW 2701   6.470   1.484   4.475  0.3156  0.4997 -0.8927
  601SOL    HW1 2702   6.461   1.518   4.569  0.8183 -0.4041 -0.4997
  601SOL    HW2 2703   6.562   1.447   4.462 -0.1470 -0.5239 -1.3568
  602SOL     OW 2704   3.805   1.237   0.918 -0.2559  0.2303 -0.4817
  602SOL    HW1 2705   3.758   1.322   0.944 -1.0937 -0.0682 -0.9895
  602SOL    HW2 2706   3.819   1.236   0.819 -2.4968 -1.2978 -0.8596
  603SOL     OW 2707   5.167   5.402   0.621  0.1603  0.0810  0.3042
  603SOL    HW1 2708   5.193   5.472   0.555 -0.1352  1.2941  1.4351
  603SOL    HW2 2709   5.074   5.371   0.602 -1.0502  2.5020  1.7714
  604SOL     OW 2710   5.028   0.114   0.421  0.1814  0.4579 -0.4995
  604SOL    HW1 2711   4.960   0.171   0.466  0.1822  0.9943 -1.1691
  604SOL    HW2 2712   5.103   0.171   0.388  1.1970 -0.1665  0.6304
  605SOL     OW 2713   5.024   2.704   2.135 -0.1048  0.3262  0.1078
  605SOL    HW1 2714   4.949   2.640   2.121  0.0662  0.2671 -0.5721
  605SOL    HW2 2715   5.082   2.706   2.053  0.2319  0.8993  0.3534
  606SOL     OW 2716   5.093   1.142   4.609  0.0909  0.0821  0.0541
  606SOL    HW1 2717   5.014   1.093   4.573  0.9094 -0.3790 -1.1732
  606SOL    HW2 2718   5.064   1.203   4.683 -1.4081 -0.0359 -0.4118
  607SOL     OW 2719   0.321   1.372   5.170 -0.8152 -0.0488 -0.4001
  607SOL    HW1 2720   0.395   1.307   5.187 -0.8064  0.7061  3.1666
  607SOL    HW2 2721   0.264   1.381   5.251 -2.9570  1.8065 -1.9516
  608SOL     OW 2722   5.635   0.909   1.760 -0.3288  0.5981 -0.1800
  608SOL    HW1 2723   5.629   0.916   1.860  0.7129  0.7592 -0.1190
  608SOL    HW2 2724   5.568   0.843   1.727  0.0026 -0.2272  0.7327
  609SOL     OW 2725   3.727   0.510   3.983 -0.5142 -0.1004  0.3788
  609SOL    HW1 2726   3.809   0.558   4.014 -0.6352 -1.8128  3.8288
  609SOL    HW2 2727   3.746   0.413   3.975 -1.4769 -0.1605 -1.8715
  610SOL     OW 2728   5.103   2.206   0.054  0.4264  0.6024  0.0471
  610SOL    HW1 2729   5.161   2.125   0.065 -0.3597 -0.4007 -2.5613
  610SOL    HW2 2730   5.080   2.243   0.144  0.9474 -1.9681  1.3151
  611SOL     OW 2731   6.263   1.763   1.019 -0.0360 -0.3915 -0.1749
  611SOL    HW1 2732   6.219   1.819   1.089 -0.4805  0.3993 -1.0698
  611SOL    HW2 2733   6.292   1.821   0.943  3.8679 -0.5830  0.9342
  612SOL     OW 2734   0.616   4.449   3.915  0.3586 -0.0277  0.3330
  612SOL    HW1 2735   0.632   4.395   3.997 -1.7973  0.2042  0.9720
  612SOL    HW2 2736   0.693   4.511   3.899  0.4915  0.4721  2.6250
  613SOL     OW 2737   5.697   5.720   6.810  0.0884  0.3850  0.4780
  613SOL    HW1 2738   5.782   5.673   6.836 -0.3222 -0.4725  0.3065
  613SOL    HW2 2739   5.706   5.756   6.717  0.3947  0.6246  0.5980
  614SOL     OW 2740   0.925   4.378   3.018  0.1944 -0.4059 -0.1150
  614SOL    HW1 2741   0.930   4.455   2.954 -1.3245  1.4065  1.8043
  614SOL    HW2 2742   0.835   4.335   3.011 -1.3273  1.8840  2.8321
  615SOL     OW 2743   1.746   5.625   5.903 -0.5582  0.7314  0.6886
  615SOL    HW1 2744   1.706   5.716   5.917 -1.7882  0.3072  0.1075
  615SOL    HW2 2745   1.691   5.557   5.951 -1.5979 -0.0703 -1.4837
  616SOL     OW 2746   1.220   0.076   3.082 -0.1664 -0.0291  0.1673
  616SOL    HW1 2747   1.154   0.001   3.088  0.0225 -0.2185 -0.1393
  616SOL    HW2 2748   1.173   0.163   3.095 -0.5700 -0.1252 -0.6050
  617SOL     OW 2749   6.895   5.333   3.779 -0.4929  0.5152 -0.0210
  617SOL    HW1 2750   6.917   5.237   3.763 -0.0284  0.4903  0.7149
  617SOL    HW2 2751   6.796   5.346   3.779 -0.6111 -0.2439  1.3810
  618SOL     OW 2752   0.843   6.140   0.832 -0.1866 -0.1756 -0.5637
  618SOL    HW1 2753   0.897   6.139   0.916 -2.0235  1.1367  0.7024
  618SOL    HW2 2754   0.805   6.231   0.817 -1.1985 -0.7803 -1.9395
  619SOL     OW 2755   0.088   4.281   3.738 -0.3795 -0.3005 -0.5203
  619SOL    HW1 2756   0.145   4.199   3.727  1.5088  1.0221 -1.2579
  619SOL    HW2 2757   0.012   4.261   3.799  0.8468 -2.1962  0.4970
  620SOL     OW 2758   1.993   2.213   5.978 -0.1060 -0.2646 -0.0191
  620SOL    HW1 2759   2.049   2.197   6.059 -0.6968  0.0508  0.4676
  620SOL    HW2 2760   2.049   2.250   5.905  0.3976 -0.3562  0.3153
  621SOL     OW 2761   0.584   0.191   5.790  0.0469 -0.6727 -0.0977
  621SOL    HW1 2762   0.679   0.218   5.774 -0.4199  0.8983 -0.3231
  621SOL    HW2 2763   0.576   0.153   5.882  0.7816 -0.2430  0.1519
  622SOL     OW 2764   2.730   0.949   5.268 -0.0329  0.2858 -0.3089
  622SOL    HW1 2765   2.803   0.918   5.208  2.0687  2.2609  1.0932
  622SOL    HW2 2766   2.644   0.905   5.242  1.1113 -0.1958 -3.6179
  623SOL     OW 2767   5.237   1.356   3.589 -0.0797  0.8583  0.2799
  623SOL    HW1 2768   5.226   1.330   3.493  0.2672  1.3080  0.1162
  623SOL    HW2 2769   5.279   1.447   3.595  0.4011  0.6056  0.8619
  624SOL     OW 2770   0.321   0.563   3.902  0.1557 -0.0768 -0.0680
  624SOL    HW1 2771   0.283   0.649   3.868 -0.5165  0.1857  1.2911
  624SOL    HW2 2772   0.248   0.504   3.935  0.7737 -0.2467  1.0592
  625SOL     OW 2773   5.745   0.756   4.542 -0.0342 -0.3202 -0.5707
  625SOL    HW1 2774   5.667   0.697   4.521  0.7330 -1.4869 -0.2275
  625SOL    HW2 2775   5.776   0.801   4.458 -0.2342 -0.9208 -0.9753
  626SOL     OW 2776   6.637   5.729   4.306 -0.2035  0.1565  0.0347
  626SOL    HW1 2777   6.630   5.812   4.362 -1.1506 -0.2251  0.5072
  626SOL    HW2 2778   6.563   5.728   4.239  0.2371  0.0383 -0.4587
  627SOL     OW 2779   5.704   4.265   6.379 -0.0069 -0.1870 -0.1483
  627SOL    HW1 2780   5.742   4.200   6.313  0.2270  1.6857 -1.9648
  627SOL    HW2 2781   5.768   4.277   6.455  1.6854  0.6108 -1.6266
  628SOL     OW 2782   3.393   4.883   2.061  0.7939 -0.3444 -0.0998
  628SOL    HW1 2783   3.324   4.810   2.058 -0.5500  0.8809 -0.4396
  628SOL    HW2 2784   3.479   4.850   2.022 -0.6635 -0.8782 -3.1845
  629SOL     OW 2785   0.152   3.185   6.822 -0.5932 -0.1827  0.1783
  629SOL    HW1 2786   0.222   3.155   6.756  1.0180  1.0406  1.2477
  629SOL    HW2 2787   0.099   3.259   6.782 -1.0191 -0.8307 -0.4890
  630SOL     OW 2788   0.629   2.861   3.808 -0.1833 -0.6573 -0.2935
  630SOL    HW1 2789   0.617   2.766   3.779 -1.3861 -0.7282  0.3602
  630SOL    HW2 2790   0.585   2.922   3.742  0.2549 -0.5693 -0.5102
  631SOL     OW 2791   5.509   4.420   5.531 -0.5827  0.4270 -0.3661
  631SOL    HW1 2792   5.475   4.441   5.623 -1.3317 -0.0533 -0.5289
  631SOL    HW2 2793   5.441   4.449   5.464 -0.7147 -0.6345 -0.6952
  632SOL     OW 2794   3.505   6.248   1.551  0.2924  0.5696  0.0329
  632SOL    HW1 2795   3.506   6.341   1.513 -0.5221  0.8156  0.5846
  632SOL    HW2 2796   3.411   6.224   1.577  0.6860  0.1010  1.0938
  633SOL     OW 2797   1.126   3.087   5.004 -0.3196  0.4867  0.4431
  633SOL    HW1 2798   1.113   3.104   4.906 -0.6631  2.8605  0.8335
  633SOL    HW2 2799   1.223   3.092   5.027 -0.2441 -0.0226  0.2387
  634SOL     OW 2800   1.288   2.869   3.235  0.2270 -0.4957  0.2713
  634SOL    HW1 2801   1.195   2.869   3.199 -0.1183 -1.0321  1.1414
  634SOL    HW2 2802   1.349   2.825   3.168 -0.1691 -0.2811 -0.2334
  635SOL     OW 2803   4.124   4.873   2.697  0.0818 -0.2176  0.1821
  635SOL    HW1 2804   4.173   4.836   2.775  0.6992  0.4499  0.1240
  635SOL    HW2 2805   4.147   4.970   2.686 -1.0045  0.0282 -0.0476
  636SOL     OW 2806   6.203   0.223   1.910 -0.5028  0.5617 -0.1609
  636SOL    HW1 2807   6.134   0.151   1.916  0.2214 -0.0649  1.1684
  636SOL    HW2 2808   6.282   0.189   1.859 -0.9340  1.0945 -1.2121
  637SOL     OW 2809   4.714   6.674   5.823 -0.3656 -0.7996 -0.1667
  637SOL    HW1 2810   4.787   6.719   5.771 -0.9544  0.7112  0.2651
  637SOL    HW2 2811   4.733   6.682   5.921 -1.0261 -0.5183 -0.0588
  638SOL     OW 2812   0.479   2.009   3.658  0.1049  0.1337  0.2462
  638SOL    HW1 2813   0.572   1.985   3.631  0.1344  1.2632 -0.7849
  638SOL    HW2 2814   0.420   2.006   3.577 -0.7975 -0.7189  0.9214
  639SOL     OW 2815   4.177   0.626   1.230 -0.6750  0.2798  0.1194
  639SOL    HW1 2816   4.229   0.587   1.154 -1.5228  2.1450 -1.4974
  639SOL    HW2 2817   4.147   0.552   1.291  3.5540 -0.9737  1.0850
  640SOL     OW 2818   0.017   4.987   5.806 -0.2012  0.1825 -0.4292
  640SOL    HW1 2819   0.087   5.055   5.786 -3.5494  3.3906 -2.6536
  640SOL    HW2 2820  -0.072   5.021   5.775 -2.4744 -4.6174 -0.0881
  641SOL     OW 2821   2.947   3.426   5.052 -0.4904 -0.2261 -0.6016
  641SOL    HW1 2822   2.921   3.432   4.956 -2.1200  1.1755 -0.1337
  641SOL    HW2 2823   2.976   3.516   5.085  0.1981 -0.7175  0.1914
  642SOL     OW 2824   6.375   3.012   0.037 -0.6610 -1.0616 -0.0909
  642SOL    HW1 2825   6.292   3.053   0.077 -1.1526 -1.3935 -0.7410
  642SOL    HW2 2826   6.434   2.979   0.110 -1.6576 -1.8923  0.3640
  643SOL     OW 2827   1.997   1.538   6.487  0.3630 -0.3061  0.0531
  643SOL    HW1 2828   1.914   1.538   6.431 -0.0997 -2.4621  0.6519
  643SOL    HW2 2829   1.980   1.590   6.571  0.1656  0.6277 -0.5530
  644SOL     OW 2830   0.559   5.579   2.680 -0.5999 -0.1911  0.1527
  644SOL    HW1 2831   0.603   5.638   2.613 -1.8775 -0.2946 -0.8113
  644SOL    HW2 2832   0.621   5.566   2.758  0.7859  0.1940 -0.8318
  645SOL     OW 2833   4.547   4.768   1.013  0.1030  1.1114 -0.0818
  645SOL    HW1 2834   4.586   4.807   0.929 -0.3822  1.3434 -0.2051
  645SOL    HW2 2835   4.619   4.721   1.064  0.0808 -0.5174 -1.4577
  646SOL     OW 2836   2.756   4.711   1.096 -0.2561 -0.4553 -0.0270
  646SOL    HW1 2837   2.754   4.640   1.167 -0.3290 -1.8330 -1.3633
  646SOL    HW2 2838   2.851   4.731   1.073 -0.2457 -0.6592 -0.1652
  647SOL     OW 2839   0.511   4.648   5.007  0.0876 -0.1076 -0.0487
  647SOL    HW1 2840   0.535   4.722   4.943 -0.3715  0.7740  0.7786
  647SOL    HW2 2841   0.591   4.625   5.062  0.2592 -0.2923 -0.3760
  648SOL     OW 2842   4.672   6.549   4.898 -0.3899 -0.4317 -0.6231
  648SOL    HW1 2843   4.593   6.606   4.918  1.1676  1.1225  1.6066
  648SOL    HW2 2844   4.740   6.560   4.971  1.8184 -1.8168 -2.3465
  649SOL     OW 2845   0.451   0.847   2.879  0.5606  0.1132 -0.0448
  649SOL    HW1 2846   0.379   0.842   2.948 -0.9697 -0.3964 -1.6230
  649SOL    HW2 2847   0.523   0.910   2.911 -0.2054  0.0904  1.8711
  650SOL     OW 2848   1.533   2.681   1.947 -0.2078 -0.0236 -0.3258
  650SOL    HW1 2849   1.629   2.653   1.956 -0.3174 -0.3218 -0.0803
  650SOL    HW2 2850   1.527   2.780   1.961  0.1694  0.1240 -1.1380
  651SOL     OW 2851   1.233   6.830   1.490  0.4378 -0.4674 -0.2934
  651SOL    HW1 2852   1.175   6.831   1.572 -0.4655  0.2243 -0.9227
  651SOL    HW2 2853   1.197   6.894   1.423  1.4468 -0.6733 -1.0552
  652SOL     OW 2854   4.340   2.715   5.965  0.5018  0.5643 -0.5482
  652SOL    HW1 2855   4.398   2.722   5.883  0.4583  0.4239 -0.5905
  652SOL    HW2 2856   4.263   2.778   5.957  0.5448  0.6129 -0.5775
  653SOL     OW 2857   6.637   6.211   1.396 -0.5768 -0.2752  0.0716
  653SOL    HW1 2858   6.647   6.178   1.302  1.1431 -2.3328  0.9016
  653SOL    HW2 2859   6.632   6.133   1.458  2.6532  0.9373  2.0645
  654SOL     OW 2860   2.257   0.964   3.394 -0.0262  0.4412 -0.0753
  654SOL    HW1 2861   2.180   0.924   3.345 -0.0155 -0.1456  0.3845
  654SOL    HW2 2862   2.225   1.040   3.450 -0.1494  0.6675 -0.4504
  655SOL     OW 2863   0.911   4.944   4.955  0.0633  0.5366  0.9224
  655SOL    HW1 2864   0.990   4.884   4.949 -0.1076  0.2492  1.4633
  655SOL    HW2 2865   0.934   5.034   4.918  0.4624  0.2773  0.5434
  656SOL     OW 2866   6.113   4.374   5.108 -0.0225 -0.1025 -0.3219
  656SOL    HW1 2867   6.201   4.338   5.138 -0.1634 -0.8541 -0.7814
  656SOL    HW2 2868   6.128   4.452   5.047  0.4137 -1.4930 -2.0702
  657SOL     OW 2869   6.920   0.007   0.864  0.5726  0.9541  0.1060
  657SOL    HW1 2870   6.984   0.084   0.872  2.5652 -0.7098  0.8694
  657SOL    HW2 2871   6.845   0.020   0.930  0.0690  2.9178 -0.7810
  658SOL     OW 2872   2.813   0.271   6.427  0.5015  0.0917 -0.1964
  658SOL    HW1 2873   2.882   0.201   6.443  0.5420  0.0809 -0.4115
  658SOL    HW2 2874   2.769   0.254   6.338  0.5315  0.3546 -0.2627
  659SOL     OW 2875   1.038   2.740   1.633 -0.0588 -0.8291  0.3613
  659SOL    HW1 2876   1.072   2.650   1.607  1.4564  0.0104 -0.7307
  659SOL    HW2 2877   1.113   2.806   1.630 -0.7688  0.1964  2.7168
  660SOL     OW 2878   1.510   4.535   2.034 -0.0501  0.2764  0.2317
  660SOL    HW1 2879   1.576   4.548   2.108  0.1899  1.5431 -0.1624
  660SOL    HW2 2880   1.499   4.622   1.985 -0.3140 -0.4892 -1.1159
  661SOL     OW 2881   0.059   2.790   3.142 -0.0767  0.2291  0.2114
  661SOL    HW1 2882   0.118   2.778   3.223 -0.1624  1.0278  0.4025
  661SOL    HW2 2883   0.009   2.876   3.150  0.0447  0.4012 -0.7838
  662SOL     OW 2884   6.360   2.025   3.733  0.0528 -0.1563 -0.1698
  662SOL    HW1 2885   6.260   2.026   3.742  0.1478 -0.0353  0.9397
  662SOL    HW2 2886   6.394   1.932   3.747  0.2369  0.1066  1.3121
  663SOL     OW 2887   5.655   0.386   0.155  0.3286  0.3870 -0.0807
  663SOL    HW1 2888   5.602   0.308   0.122  3.3926 -0.8216 -2.6978
  663SOL    HW2 2889   5.627   0.468   0.104 -1.3880  0.6234  1.1414
  664SOL     OW 2890   6.041   4.211   6.041  0.0647 -0.0056  0.1473
  664SOL    HW1 2891   6.062   4.281   6.109  1.8918  0.7131 -1.0812
  664SOL    HW2 2892   6.034   4.254   5.950  1.0582 -1.3671 -0.6152
  665SOL     OW 2893   1.968   6.541   3.459  0.4702  0.0881 -0.2763
  665SOL    HW1 2894   1.968   6.451   3.503  0.1040 -0.4234 -1.3065
  665SOL    HW2 2895   2.059   6.583   3.471  0.4219 -0.0777  0.8493
  666SOL     OW 2896   3.419   5.876   6.782 -0.5915 -0.3197 -0.1880
  666SOL    HW1 2897   3.325   5.902   6.760 -0.3719 -0.3285 -1.1822
  666SOL    HW2 2898   3.432   5.779   6.763 -0.8978 -0.7884  1.7763
  667SOL     OW 2899   6.672   5.229   4.686 -0.0343 -0.1863 -0.1623
  667SOL    HW1 2900   6.621   5.300   4.733  0.2788  0.7426 -1.1739
  667SOL    HW2 2901   6.642   5.224   4.590  1.4831  0.1430 -0.6902
  668SOL     OW 2902   5.965   4.463   1.769 -0.1511  0.0127  0.0377
  668SOL    HW1 2903   5.921   4.461   1.679  0.5285  2.4560 -0.4123
  668SOL    HW2 2904   5.896   4.486   1.838 -0.1613  1.0457 -0.2885
  669SOL     OW 2905   0.459   4.170   4.955 -0.1565  0.0438 -0.1682
  669SOL    HW1 2906   0.397   4.100   4.919  1.0988 -2.0006  1.4806
  669SOL    HW2 2907   0.405   4.244   4.995 -1.5372 -0.9847 -0.0419
  670SOL     OW 2908   1.049   3.156   1.010 -0.2038  0.1220 -0.3996
  670SOL    HW1 2909   1.116   3.209   1.062 -0.8454  0.6016 -0.0493
  670SOL    HW2 2910   1.075   3.156   0.913 -0.4019  1.4490 -0.4850
  671SOL     OW 2911   3.456   2.251   6.554 -0.0347 -0.8900 -0.7201
  671SOL    HW1 2912   3.542   2.202   6.574  0.6915  0.7286  0.3177
  671SOL    HW2 2913   3.450   2.268   6.456  1.4266 -0.0227 -0.6850
  672SOL     OW 2914   5.912   0.290   0.147  0.2110 -0.2359  0.3989
  672SOL    HW1 2915   5.829   0.347   0.144  0.8078  0.7478  1.8137
  672SOL    HW2 2916   5.964   0.304   0.063  1.1487  2.6225  1.3499
  673SOL     OW 2917   6.959   3.253   3.310  0.2056 -0.2899  0.0734
  673SOL    HW1 2918   7.044   3.289   3.269 -0.1351  1.6311  0.9299
  673SOL    HW2 2919   6.881   3.300   3.270 -0.4610 -1.8015 -0.4546
  674SOL     OW 2920   5.530   5.295   4.845  0.2380 -0.1008 -0.6808
  674SOL    HW1 2921   5.565   5.365   4.783 -1.0133  0.2980 -0.9688
  674SOL    HW2 2922   5.578   5.302   4.933  0.4992  0.7914 -0.8777
  675SOL     OW 2923   1.065   1.877   0.905 -0.1055  0.3998 -0.4751
  675SOL    HW1 2924   0.967   1.879   0.929 -0.3121 -0.6978 -1.1655
  675SOL    HW2 2925   1.096   1.969   0.884 -1.2276  0.6409 -1.1518
  676SOL     OW 2926   3.980   4.315   5.667 -0.2950  0.2896 -0.4082
  676SOL    HW1 2927   3.946   4.383   5.731 -1.3492 -0.5939 -0.0037
  676SOL    HW2 2928   3.915   4.306   5.591 -0.6774 -0.9868  0.0612
  677SOL     OW 2929   4.807   4.012   1.084  0.1371 -0.0865 -0.5136
  677SOL    HW1 2930   4.848   3.966   1.163 -0.6287  0.6681  0.3445
  677SOL    HW2 2931   4.864   3.996   1.004 -0.7325 -3.5915 -0.5895
  678SOL     OW 2932   2.547   6.163   6.567  0.1177  0.1776  0.3733
  678SOL    HW1 2933   2.613   6.220   6.617  2.6024 -1.1577 -1.1620
  678SOL    HW2 2934   2.593   6.081   6.532 -2.0751 -0.2154 -1.9124
  679SOL     OW 2935   2.043   4.985   4.504 -0.2316  0.3312  0.3611
  679SOL    HW1 2936   2.049   4.910   4.569  0.3998  0.2368  0.1948
  679SOL    HW2 2937   2.004   5.065   4.550  1.8025  0.8152  1.3570
  680SOL     OW 2938   4.321   3.244   6.076  0.3311  0.8872  0.0893
  680SOL    HW1 2939   4.359   3.165   6.123 -2.9202 -0.0809  1.3664
  680SOL    HW2 2940   4.324   3.323   6.137 -1.4724  0.2864  1.0249
  681SOL     OW 2941   6.114   4.028   0.160 -0.0992  0.2204  0.2413
  681SOL    HW1 2942   6.038   4.070   0.111 -1.7326  0.9383  3.1706
  681SOL    HW2 2943   6.103   3.928   0.159 -0.7025  0.2860  0.0644
  682SOL     OW 2944   5.955   2.030   3.232  0.4504 -0.2903 -0.2723
  682SOL    HW1 2945   5.859   2.055   3.243  0.5398 -0.1793  0.3275
  682SOL    HW2 2946   5.976   2.018   3.135  0.1076  0.8011 -0.4972
  683SOL     OW 2947   2.477   3.079   6.513  0.3759  0.2934  0.1753
  683SOL    HW1 2948   2.569   3.109   6.488 -0.3081  2.4279  0.0409
  683SOL    HW2 2949   2.473   3.062   6.612  0.6111  1.4525  0.3980
  684SOL     OW 2950   6.415   1.043   0.161  0.4924 -0.1303  0.2775
  684SOL    HW1 2951   6.448   1.012   0.250  0.9394  1.2975  0.6474
  684SOL    HW2 2952   6.401   1.142   0.164  0.2248 -0.1052 -1.1562
  685SOL     OW 2953   4.145   4.703   3.904 -0.4291 -0.1435  0.3096
  685SOL    HW1 2954   4.216   4.684   3.972  0.2501  0.6963 -0.1569
  685SOL    HW2 2955   4.178   4.678   3.813 -1.2550 -1.0536  0.2390
  686SOL     OW 2956   4.237   6.835   1.935 -0.1898  0.2503 -0.3667
  686SOL    HW1 2957   4.147   6.798   1.957  0.1924 -1.1143 -0.9701
  686SOL    HW2 2958   4.263   6.805   1.843  0.9145  0.5636 -0.1665
  687SOL     OW 2959   6.186   3.143   3.213  0.0022  0.5346 -0.0693
  687SOL    HW1 2960   6.089   3.166   3.210 -0.0620  0.5764  1.5140
  687SOL    HW2 2961   6.237   3.204   3.153 -0.8466  1.0490 -0.2821
  688SOL     OW 2962   0.956   5.548   3.038  0.3257  0.1493  0.0467
  688SOL    HW1 2963   0.890   5.623   3.050  1.1308  1.0933 -1.1736
  688SOL    HW2 2964   1.021   5.573   2.966 -0.7818 -2.7139 -2.1323
  689SOL     OW 2965   6.456   2.151   3.526  0.2223 -0.0437 -0.8348
  689SOL    HW1 2966   6.537   2.201   3.554  0.1658  0.6693 -1.8862
  689SOL    HW2 2967   6.421   2.097   3.603  0.6903  0.9749  0.1074
  690SOL     OW 2968   5.573   4.770   4.313  0.8321 -0.2054  0.4942
  690SOL    HW1 2969   5.601   4.691   4.366  1.1738 -0.7463 -0.4649
  690SOL    HW2 2970   5.632   4.779   4.232  0.1417  0.4135  0.0402
  691SOL     OW 2971   0.723   4.662   2.209 -0.3489  0.2675 -0.1265
  691SOL    HW1 2972   0.805   4.680   2.155 -0.0268 -1.5005 -0.2963
  691SOL    HW2 2973   0.683   4.748   2.239  2.6664  1.2353  1.6208
  692SOL     OW 2974   4.550   6.137   0.152 -0.5389  0.4704 -0.7457
  692SOL    HW1 2975   4.631   6.194   0.161 -1.6580  1.7456  2.4749
  692SOL    HW2 2976   4.577   6.040   0.152  0.9794  0.7911  2.2445
  693SOL     OW 2977   6.364   5.275   2.030 -0.4385 -1.2140 -0.2234
  693SOL    HW1 2978   6.371   5.346   2.100 -2.5905 -0.7039 -0.4399
  693SOL    HW2 2979   6.429   5.202   2.049  1.9271  0.8248 -0.0427
  694SOL     OW 2980   3.769   1.656   3.017 -0.3451 -0.1865  0.2626
  694SOL    HW1 2981   3.853   1.662   2.963 -1.2772  0.2191 -1.1961
  694SOL    HW2 2982   3.764   1.566   3.061  0.4190 -0.5580 -0.3786
  695SOL     OW 2983   6.862   6.764   6.975  0.1355 -0.6003  0.0027
  695SOL    HW1 2984   6.943   6.706   6.972 -0.3406 -1.2340 -0.7507
  695SOL    HW2 2985   6.841   6.786   7.071  0.4433 -1.4862  0.2867
  696SOL     OW 2986   3.319   6.636   6.288 -0.1164  0.3736  0.2803
  696SOL    HW1 2987   3.385   6.691   6.237  0.1226 -0.0010  0.1786
  696SOL    HW2 2988   3.331   6.539   6.263  0.3824  0.1179  1.4470
  697SOL     OW 2989   2.159   0.518   5.354 -1.0916 -0.3200 -0.3562
  697SOL    HW1 2990   2.142   0.455   5.430  0.1292 -0.1486  0.0935
  697SOL    HW2 2991   2.079   0.575   5.338 -0.9991  0.3998  1.5454
  698SOL     OW 2992   5.204   4.904   0.198  0.0728 -0.5259  0.4332
  698SOL    HW1 2993   5.162   4.972   0.258 -0.7414  0.4038 -1.1185
  698SOL    HW2 2994   5.199   4.936   0.104  0.1807 -2.5001 -0.2851
  699SOL     OW 2995   4.901   6.703   6.016  0.4560 -0.3029 -0.2665
  699SOL    HW1 2996   4.899   6.797   6.050 -0.1746  0.3999 -2.1184
  699SOL    HW2 2997   4.867   6.641   6.086 -0.0833  0.9703  0.6264
  700SOL     OW 2998   2.829   1.844   4.321  0.1870  0.1130  0.5688
  700SOL    HW1 2999   2.914   1.882   4.359  0.1044  0.7434  0.1425
  700SOL    HW2 3000   2.755   1.856   4.387  0.4174 -0.4178  0.9327
  701SOL     OW 3001   3.579   1.771   0.962  0.0917  0.3916  0.5752
  701SOL    HW1 3002   3.651   1.830   1.000 -0.3471  1.1331  0.2792
  701SOL    HW2 3003   3.491   1.798   1.000 -0.2690  0.7095 -0.4665
  702SOL     OW 3004   1.059   1.157   4.343  0.3823  0.4855  0.0601
  702SOL    HW1 3005   1.042   1.205   4.257  2.0281  0.9705 -0.0469
  702SOL    HW2 3006   1.072   1.225   4.416  0.5262  0.1399  0.3593
  703SOL     OW 3007   1.888   6.626   7.009 -0.3039 -0.1066 -0.3449
  703SOL    HW1 3008   1.988   6.620   7.015 -0.3567 -0.1765  0.5838
  703SOL    HW2 3009   1.862   6.720   6.986 -0.0823  0.5127  1.6840
  704SOL     OW 3010   6.395   5.058   1.098 -0.1127 -0.5293 -0.0605
  704SOL    HW1 3011   6.422   5.118   1.022 -0.4428  1.9830  1.7004
  704SOL    HW2 3012   6.303   5.023   1.081 -0.2047  0.0402 -0.8098
  705SOL     OW 3013   5.729   0.949   3.041 -0.5639  0.6746 -0.1161
  705SOL    HW1 3014   5.688   1.018   3.101 -0.1434  2.7283 -2.0428
  705SOL    HW2 3015   5.679   0.947   2.954  1.9663  1.6684 -1.7039
  706SOL     OW 3016   3.282   0.484   4.195 -0.1869 -0.3003  0.0671
  706SOL    HW1 3017   3.228   0.548   4.250  1.0054  0.5748  0.2482
  706SOL    HW2 3018   3.262   0.390   4.223 -0.8566  0.0567  0.8152
  707SOL     OW 3019   1.623   5.821   4.132 -0.6037 -0.0399 -0.2339
  707SOL    HW1 3020   1.680   5.887   4.084  2.7499 -1.1961  1.8427
  707SOL    HW2 3021   1.607   5.853   4.226  0.5282 -1.7407  0.5992
  708SOL     OW 3022   5.839   4.996   6.017 -0.0647 -0.3862  0.1196
  708SOL    HW1 3023   5.906   4.936   6.061 -0.3458 -0.0180  1.0783
  708SOL    HW2 3024   5.877   5.088   6.008 -0.3752 -0.2148  0.5248
  709SOL     OW 3025   2.479   5.135   0.905 -0.3519 -0.2930  0.1505
  709SOL    HW1 3026   2.493   5.099   0.813 -0.3869  0.1231 -0.0199
  709SOL    HW2 3027   2.523   5.074   0.972  1.4083  0.4531 -0.2901
  710SOL     OW 3028   6.810   4.042   3.687  0.3403 -0.0116  0.3020
  710SOL    HW1 3029   6.806   4.135   3.723 -0.0851  1.6741 -3.5552
  710SOL    HW2 3030   6.719   4.000   3.692 -0.5970  1.5869 -1.8502
  711SOL     OW 3031   2.099   1.181   6.243 -0.7092  0.0924 -0.1011
  711SOL    HW1 3032   2.046   1.102   6.212 -0.1985 -0.1645 -0.3235
  711SOL    HW2 3033   2.095   1.187   6.343 -0.8589 -0.1294 -0.0942
  712SOL     OW 3034   4.074   6.695   3.441  0.2702  0.7292  0.0070
  712SOL    HW1 3035   4.071   6.611   3.387 -2.0405  1.3076 -0.8829
  712SOL    HW2 3036   4.139   6.684   3.516  0.5225 -1.5967 -0.4718
  713SOL     OW 3037   0.623   3.099   6.543  0.6120 -0.1103  0.4724
  713SOL    HW1 3038   0.594   3.186   6.582  0.4829  1.2723 -2.3957
  713SOL    HW2 3039   0.722   3.090   6.550  0.4096 -1.1041  3.1903
  714SOL     OW 3040   0.771   2.158   5.836 -0.3199 -0.3638  0.2751
  714SOL    HW1 3041   0.680   2.117   5.827 -0.2826 -0.1360 -1.3169
  714SOL    HW2 3042   0.826   2.136   5.756  0.3515  1.1593  0.2833
  715SOL     OW 3043   6.226   5.367   3.584 -0.2920  0.4490 -0.4962
  715SOL    HW1 3044   6.240   5.328   3.493  1.2991  1.5611 -0.7692
  715SOL    HW2 3045   6.206   5.294   3.649  2.1494 -0.8493 -1.0680
  716SOL     OW 3046   1.810   0.027   2.070  0.9151 -0.1167 -0.5714
  716SOL    HW1 3047   1.867  -0.029   2.010  0.3041 -0.8436 -0.4938
  716SOL    HW2 3048   1.808  -0.014   2.162 -0.8012 -0.8776 -0.9156
  717SOL     OW 3049   6.682   1.696   6.950  0.3338 -0.3723 -0.4145
  717SOL    HW1 3050   6.586   1.679   6.929  0.2444  1.5957 -1.8404
  717SOL    HW2 3051   6.731   1.609   6.956 -1.6762 -1.4940  1.3417
  718SOL     OW 3052   5.572   0.530   6.016 -0.4795 -0.0413  0.0353
  718SOL    HW1 3053   5.486   0.569   5.984  0.7701  1.1433 -2.0977
  718SOL    HW2 3054   5.617   0.483   5.940  1.5547  0.8760  0.6167
  719SOL     OW 3055   1.539   3.783   0.226  0.4279 -0.0409  0.1698
  719SOL    HW1 3056   1.442   3.762   0.239  0.7800 -2.0203 -0.0291
  719SOL    HW2 3057   1.581   3.802   0.314 -0.1652  1.0390  0.2361
  720SOL     OW 3058   4.126   6.786   3.799 -0.1651 -0.0764  0.7008
  720SOL    HW1 3059   4.104   6.879   3.770  1.4983  0.3510  0.7285
  720SOL    HW2 3060   4.086   6.768   3.889 -2.7693 -0.3557 -0.4162
  721SOL     OW 3061   2.910   0.012   3.467 -0.2878 -0.1853 -0.3965
  721SOL    HW1 3062   2.941   0.027   3.561 -0.1048  0.2233 -0.5194
  721SOL    HW2 3063   2.883  -0.084   3.455 -0.1607 -0.2747  0.0265
  722SOL     OW 3064   5.346   2.355   6.278 -0.1783  0.5884 -0.0744
  722SOL    HW1 3065   5.255   2.330   6.244 -0.3147  1.1391 -0.1290
  722SOL    HW2 3066   5.336   2.412   6.359  0.1310  0.2774  0.1866
  723SOL     OW 3067   3.512   4.959   4.568  0.1539 -0.2769  0.4828
  723SOL    HW1 3068   3.493   5.056   4.554 -3.1859 -0.6968  1.1798
  723SOL    HW2 3069   3.506   4.937   4.665 -1.3898 -1.4823  0.1644
  724SOL     OW 3070   2.028   5.247   0.236  0.3890 -0.7733 -0.3639
  724SOL    HW1 3071   1.948   5.307   0.229  1.9707  1.9468  2.3302
  724SOL    HW2 3072   2.022   5.194   0.320  1.7505  0.1271  0.3347
  725SOL     OW 3073   4.192   3.249   0.053 -0.0632 -0.0766 -0.5031
  725SOL    HW1 3074   4.214   3.268  -0.042  0.0310 -0.8955 -0.6495
  725SOL    HW2 3075   4.276   3.249   0.107 -0.1836  1.0259 -0.2958
  726SOL     OW 3076   3.261   2.936   3.126  0.5531  0.0611 -0.4171
  726SOL    HW1 3077   3.242   2.932   3.028  0.5755 -0.6613 -0.3963
  726SOL    HW2 3078   3.322   2.861   3.152  0.6118  0.2907  0.1380
  727SOL     OW 3079   6.467   1.347   0.206  0.3287  0.4660  0.5433
  727SOL    HW1 3080   6.452   1.295   0.290  0.4093  0.4831  0.5683
  727SOL    HW2 3081   6.563   1.376   0.201  1.0352 -1.8775 -0.8753
  728SOL     OW 3082   5.025   6.526   0.217  0.5036 -0.0590 -0.2478
  728SOL    HW1 3083   4.929   6.546   0.235  0.5835 -1.5003  2.3992
  728SOL    HW2 3084   5.080   6.556   0.295  1.8254 -1.5904 -0.5334
  729SOL     OW 3085   1.776   6.993   0.027  0.0512  0.5511  0.8005
  729SOL    HW1 3086   1.754   7.003   0.125  1.3285  1.2392  1.0321
  729SOL    HW2 3087   1.835   7.069  -0.002 -0.3201  0.3626 -0.5221
  730SOL     OW 3088   3.116   1.066   3.989 -0.2269  0.2255  0.0863
  730SOL    HW1 3089   3.058   1.049   3.910  0.1892 -1.6893  0.1234
  730SOL    HW2 3090   3.096   1.156   4.027 -0.8746  0.9205 -1.7974
  731SOL     OW 3091   5.714   1.369   4.198 -0.3453 -0.1383  0.5350
  731SOL    HW1 3092   5.646   1.297   4.183 -0.3313 -0.1495  0.5247
  731SOL    HW2 3093   5.774   1.374   4.119  0.9760 -1.5472  1.3858
  732SOL     OW 3094   5.673   3.053   5.453  0.3185 -0.3168 -0.6005
  732SOL    HW1 3095   5.767   3.085   5.462  0.0886 -0.0862  1.4297
  732SOL    HW2 3096   5.662   3.007   5.365  1.2913  2.9448 -2.5952
  733SOL     OW 3097   6.974   4.637   6.810 -0.0326  0.4540  0.6270
  733SOL    HW1 3098   6.949   4.558   6.866 -0.3393 -0.3691 -0.6302
  733SOL    HW2 3099   6.977   4.719   6.867 -0.9458 -0.2448  1.7112
  734SOL     OW 3100   3.798   5.314   2.656  0.4323  0.5037 -0.6981
  734SOL    HW1 3101   3.735   5.246   2.694 -1.2597  1.7873 -1.0959
  734SOL    HW2 3102   3.852   5.354   2.730 -0.6619  0.8039 -0.0331
  735SOL     OW 3103   3.977   1.047   1.866  0.3487 -0.1257 -0.1052
  735SOL    HW1 3104   3.952   1.143   1.881  0.4380 -0.4394  2.6054
  735SOL    HW2 3105   4.072   1.041   1.835  1.1639  0.6426  2.0636
  736SOL     OW 3106   1.599   1.682   1.673  0.1952 -0.3426  0.0028
  736SOL    HW1 3107   1.651   1.599   1.654 -0.2014 -0.4020 -0.8734
  736SOL    HW2 3108   1.524   1.660   1.736 -0.1956 -0.7612 -0.5955
  737SOL     OW 3109   3.052   3.975   2.650 -0.3047  0.1645 -0.3061
  737SOL    HW1 3110   3.015   4.007   2.737 -1.2688 -0.8172 -0.3291
  737SOL    HW2 3111   3.144   3.939   2.664  0.0456  1.1657  0.0560
  738SOL     OW 3112   5.385   4.664   3.981 -0.2277 -0.4284  0.2238
  738SOL    HW1 3113   5.460   4.603   4.006 -0.1333 -1.0650 -1.4852
  738SOL    HW2 3114   5.325   4.618   3.917 -2.5476 -0.2014  2.0927
  739SOL     OW 3115   3.370   1.130   1.318 -0.4979  0.2896  0.6292
  739SOL    HW1 3116   3.438   1.064   1.286 -0.6766  0.5958 -0.4039
  739SOL    HW2 3117   3.417   1.212   1.352 -0.3409  0.6620 -0.4405
  740SOL     OW 3118   3.571   6.206   4.607 -0.0580  0.4073  0.0918
  740SOL    HW1 3119   3.515   6.234   4.528  1.3121 -1.6206 -1.7112
  740SOL    HW2 3120   3.666   6.235   4.592  0.7614 -2.2828 -0.3686
  741SOL     OW 3121   4.705   1.837   5.065  0.3358  0.6469  0.1463
  741SOL    HW1 3122   4.714   1.750   5.016  0.1545  0.9500 -0.4368
  741SOL    HW2 3123   4.740   1.827   5.158 -0.0710 -0.1725  0.2220
  742SOL     OW 3124   6.085   0.734   6.368  0.2643 -0.0033  0.1744
  742SOL    HW1 3125   6.080   0.798   6.292  0.2066  0.8863  0.9096
  742SOL    HW2 3126   6.042   0.775   6.449 -0.1170 -1.1198  0.5605
  743SOL     OW 3127   2.155   3.481   1.421 -0.2028 -0.1146  0.1176
  743SOL    HW1 3128   2.132   3.511   1.513 -0.1169 -0.8133  0.3781
  743SOL    HW2 3129   2.072   3.470   1.368 -0.2104  0.9624 -0.1145
  744SOL     OW 3130   1.396   3.406   0.925  0.3387 -0.0778 -0.1344
  744SOL    HW1 3131   1.488   3.408   0.965  0.7529 -0.6809 -1.0052
  744SOL    HW2 3132   1.353   3.318   0.947 -0.3229  0.4898  0.8806
  745SOL     OW 3133   1.484   0.267   4.972 -0.4317  0.3225 -0.6091
  745SOL    HW1 3134   1.403   0.325   4.957 -0.5035  1.1572  2.4164
  745SOL    HW2 3135   1.566   0.325   4.974 -0.0084 -0.2309 -1.3474
  746SOL     OW 3136   0.371   2.278   5.367  0.3088 -0.0972  0.4487
  746SOL    HW1 3137   0.337   2.306   5.278 -1.6276  1.8678  1.7118
  746SOL    HW2 3138   0.469   2.298   5.373  0.4241 -0.0650 -1.1447
  747SOL     OW 3139   0.288   4.401   4.258 -0.5588 -0.1363 -0.2594
  747SOL    HW1 3140   0.362   4.351   4.303 -1.7158 -0.7155  1.0730
  747SOL    HW2 3141   0.285   4.375   4.161  1.3172  0.3458 -0.4802
  748SOL     OW 3142   4.273   2.259   5.274  0.5837  0.5559  0.4557
  748SOL    HW1 3143   4.239   2.242   5.367 -2.6701  1.2623 -0.4697
  748SOL    HW2 3144   4.261   2.356   5.252 -1.9266 -0.1322 -1.7548
  749SOL     OW 3145   4.339   3.629   6.764 -0.0886  0.3508 -0.4280
  749SOL    HW1 3146   4.241   3.635   6.779 -0.0876 -0.8321  0.1471
  749SOL    HW2 3147   4.385   3.608   6.850  0.5397 -0.3062 -0.9049
  750SOL     OW 3148   0.869   0.475   6.478  0.1906 -0.5301 -0.1894
  750SOL    HW1 3149   0.934   0.407   6.443 -1.2959 -2.6567  0.9737
  750SOL    HW2 3150   0.779   0.459   6.438 -0.2236  0.7266  0.2017
  751SOL     OW 3151   3.682   2.902   3.852  0.5022  0.1217  0.3876
  751SOL    HW1 3152   3.739   2.899   3.771  0.4172  0.3928  0.3168
  751SOL    HW2 3153   3.618   2.979   3.845 -0.7498 -0.9310 -0.1254
  752SOL     OW 3154   6.499   4.593   5.651 -0.3455  0.2779  0.4434
  752SOL    HW1 3155   6.447   4.558   5.729 -0.3446 -0.8675 -0.0544
  752SOL    HW2 3156   6.505   4.523   5.580  2.5566  0.0435  0.7808
  753SOL     OW 3157   1.879   3.392   5.404  0.5317 -0.1343 -0.2687
  753SOL    HW1 3158   1.804   3.406   5.340  0.2967 -2.3723 -0.5649
  753SOL    HW2 3159   1.865   3.306   5.454  2.2261  0.0674  0.6319
  754SOL     OW 3160   6.426   2.367   3.766 -0.2520  0.7238 -0.5779
  754SOL    HW1 3161   6.380   2.300   3.707  1.3176 -0.6161 -0.3431
  754SOL    HW2 3162   6.447   2.326   3.854  0.9112  1.4537 -0.4921
  755SOL     OW 3163   6.471   3.374   2.633 -0.5376 -0.4261 -0.6478
  755SOL    HW1 3164   6.501   3.299   2.693  0.0952 -0.4293 -0.9595
  755SOL    HW2 3165   6.532   3.380   2.554  1.7149  2.6751  1.0945
  756SOL     OW 3166   0.027   6.208   6.270 -0.6640 -0.3748  0.0786
  756SOL    HW1 3167   0.032   6.304   6.298  0.7497 -0.6619  0.9427
  756SOL    HW2 3168   0.042   6.201   6.171 -0.5869  0.2839  0.0407
  757SOL     OW 3169   6.356   2.896   0.454  0.7586  0.0870  0.3450
  757SOL    HW1 3170   6.383   2.987   0.424  1.9721 -0.0580  0.9687
  757SOL    HW2 3171   6.423   2.829   0.422 -0.8150 -0.8130 -1.2885
  758SOL     OW 3172   4.179   3.449   6.447  0.6703 -0.2116  0.3808
  758SOL    HW1 3173   4.143   3.355   6.449  0.4489 -0.1688 -0.6961
  758SOL    HW2 3174   4.121   3.508   6.502  0.5156 -0.6178  0.6554
  759SOL     OW 3175   4.032   3.585   7.011  0.4131 -0.0184  0.7528
  759SOL    HW1 3176   4.000   3.679   6.999  1.3642  0.5131  2.2368
  759SOL    HW2 3177   4.113   3.584   7.069  0.5654 -1.7428  0.5575
  760SOL     OW 3178   6.305   2.480   2.469 -0.3082  0.1275  0.1327
  760SOL    HW1 3179   6.371   2.421   2.516 -2.1005 -2.4032 -0.3604
  760SOL    HW2 3180   6.216   2.436   2.468 -1.4966  2.3983 -1.2864
  761SOL     OW 3181   1.236   4.597   0.689  0.0498  0.4542 -0.1069
  761SOL    HW1 3182   1.151   4.545   0.679  0.2159  0.3229 -0.9533
  761SOL    HW2 3183   1.225   4.665   0.761 -0.5123 -0.0782  0.3188
  762SOL     OW 3184   3.449   5.369   5.460 -0.2696 -0.4739  0.7795
  762SOL    HW1 3185   3.520   5.343   5.395 -0.1487 -0.2330  0.8146
  762SOL    HW2 3186   3.448   5.303   5.536 -1.0505 -1.3133  0.0679
  763SOL     OW 3187   0.434   3.007   6.761 -0.3535 -0.2345 -0.2857
  763SOL    HW1 3188   0.493   2.927   6.755  1.4446  1.1222 -2.3105
  763SOL    HW2 3189   0.467   3.068   6.832  0.5371  0.3739 -1.2016
  764SOL     OW 3190   4.588   6.547   0.455  0.0661 -0.2844 -0.4586
  764SOL    HW1 3191   4.601   6.645   0.446  0.3139  0.0081  2.2878
  764SOL    HW2 3192   4.491   6.525   0.440 -0.3693  0.6780  0.7634
  765SOL     OW 3193   4.528   4.493   2.251  0.0210 -0.3735  0.4236
  765SOL    HW1 3194   4.550   4.415   2.193  3.1601 -1.3592  2.6957
  765SOL    HW2 3195   4.598   4.564   2.240 -0.5827  0.3923  1.3402
  766SOL     OW 3196   2.250   1.432   4.712  0.4037 -0.1239 -0.1095
  766SOL    HW1 3197   2.168   1.405   4.762  0.3468 -1.7479 -1.0253
  766SOL    HW2 3198   2.257   1.380   4.627  2.8698 -0.7681  0.3894
  767SOL     OW 3199   0.009   2.359   6.370 -0.1634  0.2423  0.5159
  767SOL    HW1 3200   0.035   2.453   6.350 -1.8727  0.8044  0.8000
  767SOL    HW2 3201   0.084   2.298   6.345  1.4174  1.7552  1.3735
  768SOL     OW 3202   4.797   3.015   1.660 -0.6459  0.1070  0.4776
  768SOL    HW1 3203   4.872   3.080   1.671  0.4115 -1.1404  0.8328
  768SOL    HW2 3204   4.731   3.027   1.735 -0.1452  0.3567  0.8809
  769SOL     OW 3205   5.710   1.493   1.022 -0.2020 -0.1945 -0.0527
  769SOL    HW1 3206   5.739   1.463   0.931 -0.3959  1.0615 -0.5482
  769SOL    HW2 3207   5.685   1.590   1.019  0.8303  0.1663  1.5666
  770SOL     OW 3208   2.173   3.224   2.394  0.0370 -0.2131  0.0526
  770SOL    HW1 3209   2.075   3.204   2.398  0.1588 -0.7457  0.5255
  770SOL    HW2 3210   2.192   3.284   2.316 -0.4856 -1.1619 -0.8311
  771SOL     OW 3211   6.779   4.653   5.696  0.7431 -0.1557  0.2784
  771SOL    HW1 3212   6.846   4.618   5.631 -1.4547 -0.0140 -2.2360
  771SOL    HW2 3213   6.687   4.624   5.668 -0.4675  1.4068  2.3520
  772SOL     OW 3214   0.513   0.448   1.216 -0.2098  0.2678 -0.5096
  772SOL    HW1 3215   0.601   0.491   1.236 -0.4787  0.4999  0.1909
  772SOL    HW2 3216   0.523   0.349   1.217 -0.2357  0.2641  0.9283
  773SOL     OW 3217   3.004   5.503   5.658  0.1396 -0.2985  0.5461
  773SOL    HW1 3218   3.076   5.464   5.601 -1.6715 -0.6065 -1.6797
  773SOL    HW2 3219   2.966   5.584   5.614 -2.8607 -1.8234  0.0276
  774SOL     OW 3220   0.962   6.471   6.756 -0.4313 -0.5976  0.2380
  774SOL    HW1 3221   0.902   6.547   6.729  0.8023  0.7727  1.2393
  774SOL    HW2 3222   0.983   6.478   6.853  0.7417 -1.4952  0.0679
  775SOL     OW 3223   6.904   2.398   5.817 -1.3926 -0.1262  0.4947
  775SOL    HW1 3224   6.853   2.482   5.835 -1.6817 -0.0382 -0.6680
  775SOL    HW2 3225   6.907   2.342   5.900  0.1816  1.7356  1.7757
  776SOL     OW 3226   3.455   2.788   0.177 -0.1806  0.3414  0.3407
  776SOL    HW1 3227   3.544   2.744   0.165 -0.6841 -0.1232 -2.2503
  776SOL    HW2 3228   3.397   2.730   0.234 -0.0925 -1.3787 -1.2222
  777SOL     OW 3229   1.184   5.471   0.143  0.9827  0.1009  0.6492
  777SOL    HW1 3230   1.187   5.566   0.113  1.1948 -0.3721 -0.8933
  777SOL    HW2 3231   1.112   5.422   0.093  1.0376 -0.6171  1.2495
  778SOL     OW 3232   6.141   0.463   5.152 -0.6491 -0.6450  0.5117
  778SOL    HW1 3233   6.209   0.483   5.081 -1.7710 -1.3363 -0.7808
  778SOL    HW2 3234   6.151   0.530   5.226 -0.9358  1.5413 -1.3279
  779SOL     OW 3235   5.543   0.461   4.710 -0.0531 -0.5098  0.7437
  779SOL    HW1 3236   5.527   0.543   4.654  0.0192 -1.1252 -0.1834
  779SOL    HW2 3237   5.476   0.391   4.687  0.0613 -0.8165  1.3331
  780SOL     OW 3238   5.081   0.469   1.013 -0.1388 -0.2205 -0.4379
  780SOL    HW1 3239   5.023   0.544   0.980 -0.7976 -1.2299 -1.6623
  780SOL    HW2 3240   5.142   0.439   0.941  0.5496 -0.4752  0.2357
  781SOL     OW 3241   5.433   3.909   0.772 -0.6437 -0.4410 -0.2575
  781SOL    HW1 3242   5.468   3.986   0.824  0.2034 -0.6233 -0.5328
  781SOL    HW2 3243   5.386   3.845   0.833 -0.4530 -0.2070  0.1357
  782SOL     OW 3244   1.905   3.750   1.146  0.1005  0.0427  0.0731
  782SOL    HW1 3245   1.871   3.827   1.199  1.3957  0.4061  0.4142
  782SOL    HW2 3246   1.997   3.726   1.177  0.2497 -0.7827 -0.9356
  783SOL     OW 3247   0.063   1.545   0.830 -0.2139 -0.0434 -0.0030
  783SOL    HW1 3248   0.127   1.523   0.903 -0.7451 -2.0630 -0.0882
  783SOL    HW2 3249   0.081   1.486   0.751 -1.5502  0.0390 -0.3950
  784SOL     OW 3250   5.254   5.778   5.965 -0.2919  0.3689 -0.1118
  784SOL    HW1 3251   5.212   5.823   6.043 -0.1315  0.2364  0.0513
  784SOL    HW2 3252   5.209   5.691   5.947 -0.9923  0.8522 -0.7914
  785SOL     OW 3253   4.238   3.270   6.790  0.0104  0.2867  0.0420
  785SOL    HW1 3254   4.274   3.308   6.705 -0.2757  0.0298 -0.1978
  785SOL    HW2 3255   4.144   3.240   6.775  0.2777 -0.6384  0.1888
  786SOL     OW 3256   0.807   1.571   1.483 -0.1529 -0.0666 -0.0871
  786SOL    HW1 3257   0.791   1.529   1.573 -0.2929  0.6099  0.2139
  786SOL    HW2 3258   0.719   1.593   1.441 -0.1134 -1.3346 -0.8590
  787SOL     OW 3259   0.494   0.799   1.783 -0.5313 -0.0365 -0.3959
  787SOL    HW1 3260   0.503   0.702   1.806 -1.7620 -0.2897 -0.9038
  787SOL    HW2 3261   0.517   0.813   1.687  2.6901  0.7084  0.3969
  788SOL     OW 3262   3.865   0.993   6.420  0.1975  0.2435  0.2009
  788SOL    HW1 3263   3.811   1.045   6.486  0.2939 -0.4078  0.8045
  788SOL    HW2 3264   3.928   1.055   6.373  1.4268  0.4704  2.0332
  789SOL     OW 3265   6.273   3.337   2.424 -0.0527 -0.1295  0.0116
  789SOL    HW1 3266   6.328   3.339   2.508 -0.1216 -2.0619  0.1546
  789SOL    HW2 3267   6.314   3.397   2.356  0.4658  0.8477  1.1548
  790SOL     OW 3268   6.493   4.630   4.758  0.4585 -0.1898  0.1690
  790SOL    HW1 3269   6.434   4.610   4.836  2.3713 -0.7384  1.5521
  790SOL    HW2 3270   6.485   4.726   4.734 -1.5565 -0.4049 -0.2311
  791SOL     OW 3271   3.255   6.489   3.363  0.1218  0.0888 -0.3178
  791SOL    HW1 3272   3.248   6.390   3.373  0.1640  0.0889 -0.2890
  791SOL    HW2 3273   3.164   6.529   3.363  0.0987  0.0384 -0.4503
  792SOL     OW 3274   4.632   5.221   6.785 -0.4999  0.2160 -0.3568
  792SOL    HW1 3275   4.727   5.219   6.815 -0.6952 -0.9650  0.2364
  792SOL    HW2 3276   4.581   5.285   6.843  0.1012  1.5459 -1.2606
  793SOL     OW 3277   5.623   1.809   1.599  0.1469 -0.4232  0.3520
  793SOL    HW1 3278   5.660   1.717   1.596  0.8026 -0.1366 -0.9843
  793SOL    HW2 3279   5.685   1.868   1.651  1.0193 -0.2105 -0.8769
  794SOL     OW 3280   5.979   0.490   2.476  0.4205 -0.5561 -0.2065
  794SOL    HW1 3281   5.910   0.486   2.403  1.5473  2.2681 -1.5656
  794SOL    HW2 3282   5.946   0.551   2.549  1.4441  0.8804 -0.9062
  795SOL     OW 3283   0.595   2.904   6.315 -0.0282 -0.5908 -0.0234
  795SOL    HW1 3284   0.635   2.951   6.236  0.4411 -1.9495 -0.6254
  795SOL    HW2 3285   0.574   2.971   6.387 -1.9651  0.9100 -1.8751
  796SOL     OW 3286   0.130   5.499   4.639 -0.3225  0.1996 -0.1767
  796SOL    HW1 3287   0.053   5.436   4.651 -0.3597  0.2569 -0.1087
  796SOL    HW2 3288   0.156   5.502   4.543  0.3126 -0.6567 -0.0472
  797SOL     OW 3289   3.736   6.267   0.995 -0.1892  0.5804  0.3183
  797SOL    HW1 3290   3.702   6.356   0.964  1.0556  0.4269 -1.6640
  797SOL    HW2 3291   3.804   6.233   0.930 -1.8911 -2.6591  0.0332
  798SOL     OW 3292   0.292   5.332   3.790 -0.0816  0.3220 -0.2125
  798SOL    HW1 3293   0.307   5.234   3.802  0.7210  0.5724  0.9409
  798SOL    HW2 3294   0.310   5.380   3.876  1.6580  1.7325 -1.2834
  799SOL     OW 3295   4.711   3.392   5.636 -0.1169  0.0926 -0.1433
  799SOL    HW1 3296   4.754   3.467   5.685  1.6919 -0.5487 -0.6783
  799SOL    HW2 3297   4.682   3.423   5.545  0.2612  0.2510 -0.2113
  800SOL     OW 3298   1.122   4.886   3.553 -0.4294 -0.0746  0.1424
  800SOL    HW1 3299   1.113   4.931   3.464  0.8950  4.2785  1.9282
  800SOL    HW2 3300   1.057   4.926   3.617 -0.6087 -2.3274  1.4807
  801SOL     OW 3301   3.643   4.612   5.543  0.4497 -0.6709 -0.4105
  801SOL    HW1 3302   3.618   4.561   5.625  0.8637  0.9205  0.7398
  801SOL    HW2 3303   3.601   4.568   5.463 -0.7966 -1.6692  0.7424
  802SOL     OW 3304   4.359   6.883   2.204  0.1124 -0.4518 -0.3331
  802SOL    HW1 3305   4.364   6.802   2.262 -1.1726  0.1861  0.7322
  802SOL    HW2 3306   4.321   6.857   2.114 -0.2917 -1.0326 -0.0047
  803SOL     OW 3307   2.346   3.941   6.743  0.9192  0.5166  0.0675
  803SOL    HW1 3308   2.336   3.898   6.833  2.0981 -3.7820 -1.6077
  803SOL    HW2 3309   2.273   3.910   6.682  1.3148  1.6529 -1.0323
  804SOL     OW 3310   3.072   2.495   6.025 -0.5282  0.3961  0.0045
  804SOL    HW1 3311   2.973   2.497   6.038 -0.8373 -3.2797 -0.5462
  804SOL    HW2 3312   3.093   2.499   5.927 -0.3924 -1.4833 -0.0777
  805SOL     OW 3313   4.633   5.486   2.756  0.0530  0.3415  0.1606
  805SOL    HW1 3314   4.621   5.412   2.822  0.4987 -0.9184 -1.1138
  805SOL    HW2 3315   4.696   5.554   2.793 -0.4801  0.1788  1.4231
  806SOL     OW 3316   3.286   2.361   0.639 -0.4360 -0.3719 -0.0410
  806SOL    HW1 3317   3.247   2.452   0.628  0.6849  0.1731  0.2858
  806SOL    HW2 3318   3.231   2.294   0.590 -1.7454  0.3508  0.3999
  807SOL     OW 3319   4.959   1.973   4.002 -0.1474  0.3166  0.0481
  807SOL    HW1 3320   4.965   1.874   4.018  0.2383  0.4281  0.6353
  807SOL    HW2 3321   4.964   1.992   3.904  0.1118 -0.2258 -0.0468
  808SOL     OW 3322   1.783   5.899   5.033 -0.3929 -0.5082  0.4614
  808SOL    HW1 3323   1.851   5.959   4.991  0.0289 -1.0518  0.3591
  808SOL    HW2 3324   1.721   5.954   5.089 -1.8287  0.4544 -1.9126
  809SOL     OW 3325   5.530   0.171   0.038 -0.4703 -0.0520  0.3623
  809SOL    HW1 3326   5.596   0.100   0.011  0.4800  0.9117  0.0897
  809SOL    HW2 3327   5.461   0.181  -0.033  1.1951  1.4608 -1.1453
  810SOL     OW 3328   3.795   6.806   6.807 -0.0430 -0.1624  0.0162
  810SOL    HW1 3329   3.847   6.721   6.813  1.6429  0.8001 -0.1536
  810SOL    HW2 3330   3.730   6.800   6.731 -1.0912 -1.8423  0.9936
  811SOL     OW 3331   4.764   4.320   2.888 -0.6809 -0.2918  0.0265
  811SOL    HW1 3332   4.857   4.355   2.898 -1.5022  2.0216  0.3742
  811SOL    HW2 3333   4.733   4.283   2.975 -0.2902 -0.5299  0.0668
  812SOL     OW 3334   6.515   2.155   1.794  0.0642 -0.3816  0.4295
  812SOL    HW1 3335   6.607   2.187   1.772  0.4220 -0.8408  1.2285
  812SOL    HW2 3336   6.470   2.123   1.710  1.7774 -3.0997  0.4332
  813SOL     OW 3337   3.834   0.989   4.909 -0.6271 -0.1801  0.0595
  813SOL    HW1 3338   3.879   1.003   4.997 -0.2633  0.5663 -0.2393
  813SOL    HW2 3339   3.867   0.903   4.869  0.2565  0.1585  0.0219
  814SOL     OW 3340   6.505   2.939   4.506  0.1497  0.1010 -0.5108
  814SOL    HW1 3341   6.581   2.957   4.444 -0.0847  0.3018 -0.7373
  814SOL    HW2 3342   6.540   2.932   4.600  0.5615 -0.6515 -0.7155
  815SOL     OW 3343   6.285   5.349   4.451  0.0820  0.6432 -0.1992
  815SOL    HW1 3344   6.350   5.344   4.376  3.3326 -2.9510  2.4765
  815SOL    HW2 3345   6.332   5.379   4.534 -2.6873  1.6878  1.1096
  816SOL     OW 3346   2.443   0.775   6.379 -0.3029  0.2799  0.2130
  816SOL    HW1 3347   2.439   0.875   6.372  1.8910  0.5626  2.0945
  816SOL    HW2 3348   2.538   0.745   6.374 -0.9755 -1.8171 -1.0012
  817SOL     OW 3349   5.668   0.075   0.411 -0.4646  0.3801 -0.0245
  817SOL    HW1 3350   5.571   0.066   0.435 -0.7321 -0.3535 -1.3117
  817SOL    HW2 3351   5.716  -0.010   0.430 -0.0225  0.7854  0.7416
  818SOL     OW 3352   1.635   1.246   3.073 -0.1357  0.0305 -0.3025
  818SOL    HW1 3353   1.656   1.320   3.008 -1.0307  0.8036  0.2521
  818SOL    HW2 3354   1.713   1.184   3.080  0.4098  0.5903 -1.2369
  819SOL     OW 3355   2.279   0.551   4.264  0.2988  0.0008  0.0764
  819SOL    HW1 3356   2.239   0.469   4.306  0.0814  1.2264  2.4305
  819SOL    HW2 3357   2.294   0.621   4.334  0.3822  2.0476 -1.8573
  820SOL     OW 3358   3.363   1.479   2.334 -0.2792  0.3488 -0.9762
  820SOL    HW1 3359   3.391   1.450   2.243 -0.8487  0.2651 -1.1247
  820SOL    HW2 3360   3.441   1.469   2.397 -0.0834 -0.2537 -1.2992
  821SOL     OW 3361   3.803   0.026   6.352 -0.2325 -0.6172 -0.6129
  821SOL    HW1 3362   3.890   0.071   6.332 -0.3334  0.5810  1.4021
  821SOL    HW2 3363   3.821  -0.061   6.397 -0.0125  0.1559  0.8820
  822SOL     OW 3364   4.076   5.258   5.234  0.3432  0.0859 -1.0255
  822SOL    HW1 3365   4.146   5.222   5.172 -0.1618 -1.6134 -0.6689
  822SOL    HW2 3366   4.055   5.190   5.304  0.4167  1.6945  0.6489
  823SOL     OW 3367   5.543   1.664   3.978 -0.3553 -0.1329 -0.2714
  823SOL    HW1 3368   5.444   1.678   3.980 -0.4747 -0.5135 -1.7980
  823SOL    HW2 3369   5.582   1.686   4.067 -1.5331  2.0736 -0.2395
  824SOL     OW 3370   0.310   2.655   3.602  0.7169 -0.2329 -0.0504
  824SOL    HW1 3371   0.408   2.650   3.619  0.6802  0.4196  0.3612
  824SOL    HW2 3372   0.294   2.679   3.506  0.9414 -1.3167 -0.3732
  825SOL     OW 3373   2.705   0.737   4.696 -0.1320  0.1053 -0.0715
  825SOL    HW1 3374   2.804   0.722   4.707 -0.2523 -1.3604 -0.7284
  825SOL    HW2 3375   2.676   0.699   4.608 -1.5635 -1.0698  0.8600
  826SOL     OW 3376   4.246   5.045   7.002 -0.0395  0.4033 -0.2369
  826SOL    HW1 3377   4.190   5.044   7.085  0.0700  2.4522 -0.0921
  826SOL    HW2 3378   4.204   5.103   6.933  1.6107  1.6260 -0.2875
  827SOL     OW 3379   3.286   5.627   3.756  0.4969 -0.4864 -0.3095
  827SOL    HW1 3380   3.225   5.610   3.834  1.6924 -2.2357  0.2834
  827SOL    HW2 3381   3.265   5.564   3.682  1.3351 -0.8455 -0.2468
  828SOL     OW 3382   4.117   2.871   5.946  1.0946 -0.0526  0.8875
  828SOL    HW1 3383   4.083   2.946   5.889  3.5708  1.5123  1.2797
  828SOL    HW2 3384   4.087   2.884   6.040  1.1920  0.2312  0.8792
  829SOL     OW 3385   1.470   6.039   4.576  0.2436 -0.4824  0.5243
  829SOL    HW1 3386   1.511   6.114   4.628 -1.5267 -0.3419  1.8104
  829SOL    HW2 3387   1.450   5.963   4.637 -1.0494 -0.6791 -0.1108
  830SOL     OW 3388   5.205   4.416   1.317 -0.2641 -0.3580  0.2976
  830SOL    HW1 3389   5.162   4.507   1.325 -1.0314 -0.7525  0.7608
  830SOL    HW2 3390   5.140   4.352   1.278 -0.1688 -1.0185  1.1946
  831SOL     OW 3391   1.289   5.823   3.598 -0.1115 -0.5795  0.0163
  831SOL    HW1 3392   1.264   5.913   3.560 -1.4552 -0.3945  1.2474
  831SOL    HW2 3393   1.388   5.812   3.593 -0.1243 -0.1731 -2.5971
  832SOL     OW 3394   0.632   6.647   5.945 -0.0753  0.1370  0.0213
  832SOL    HW1 3395   0.546   6.597   5.953 -0.9147  1.2192 -1.6184
  832SOL    HW2 3396   0.632   6.726   6.006 -0.4816  0.4271 -0.3481
  833SOL     OW 3397   6.977   4.772   2.508 -0.1148 -0.2484  0.0524
  833SOL    HW1 3398   6.953   4.732   2.597 -1.4374 -1.2345 -0.7158
  833SOL    HW2 3399   6.964   4.871   2.512 -1.2424 -0.3929  0.6613
  834SOL     OW 3400   3.276   6.962   3.406 -0.6987 -0.2439 -0.0022
  834SOL    HW1 3401   3.317   7.053   3.400 -0.8737 -0.1800 -0.2335
  834SOL    HW2 3402   3.238   6.949   3.497  2.0914 -1.2671  1.1505
  835SOL     OW 3403   2.850   6.234   1.750 -0.0564  0.4103  0.2058
  835SOL    HW1 3404   2.780   6.241   1.679 -0.1012  0.9927  0.2972
  835SOL    HW2 3405   2.906   6.153   1.735 -0.3254  0.3090 -0.2585
  836SOL     OW 3406   6.947   6.113   4.439  0.4508 -0.3781  0.0882
  836SOL    HW1 3407   6.951   6.071   4.348  0.4438  0.1910 -0.1823
  836SOL    HW2 3408   7.027   6.172   4.452  0.2913 -0.2123  0.3293
  837SOL     OW 3409   4.191   1.040   2.280  0.0037  0.5194 -0.0079
  837SOL    HW1 3410   4.100   1.058   2.318 -0.1016 -1.4855  0.8031
  837SOL    HW2 3411   4.259   1.040   2.353  0.4065  0.3475 -0.3770
  838SOL     OW 3412   5.674   1.268   0.035 -0.0507  0.2115  0.2116
  838SOL    HW1 3413   5.579   1.254   0.006 -1.0175 -0.0045  3.1746
  838SOL    HW2 3414   5.727   1.184   0.018 -1.2079 -0.7809  1.3557
  839SOL     OW 3415   1.093   3.415   4.729 -0.4256 -0.0141  0.2085
  839SOL    HW1 3416   0.998   3.436   4.751 -0.9412  0.3690 -2.1241
  839SOL    HW2 3417   1.128   3.482   4.663  1.2448 -0.5732  0.4571
  840SOL     OW 3418   4.643   1.608   1.474  0.9186 -0.6928  0.0943
  840SOL    HW1 3419   4.603   1.695   1.504  2.0285  0.1676 -0.8404
  840SOL    HW2 3420   4.672   1.555   1.554 -0.5234 -0.5919  0.7081
  841SOL     OW 3421   1.515   1.877   3.269  0.2740  0.0495  0.7886
  841SOL    HW1 3422   1.589   1.944   3.258  0.0354  0.3874  1.2018
  841SOL    HW2 3423   1.430   1.924   3.291 -0.9663  0.0073 -3.1225
  842SOL     OW 3424   4.084   6.781   4.863 -0.0834 -0.2551  0.4426
  842SOL    HW1 3425   4.141   6.761   4.783  0.9231  0.8324  0.8643
  842SOL    HW2 3426   4.002   6.829   4.835 -0.2267 -0.7672 -0.0373
  843SOL     OW 3427   6.591   2.827   1.104 -0.5716 -0.2861 -0.1600
  843SOL    HW1 3428   6.598   2.835   1.204 -0.4105  1.6612 -0.2787
  843SOL    HW2 3429   6.652   2.755   1.072  1.7165  1.0219  0.9207
  844SOL     OW 3430   0.215   2.488   5.517  0.0809  0.0732 -0.0244
  844SOL    HW1 3431   0.189   2.553   5.446  0.0251 -1.3703 -1.3842
  844SOL    HW2 3432   0.302   2.446   5.493  0.3310 -0.0492  1.0499
  845SOL     OW 3433   6.964   2.992   0.550 -0.0708 -0.0078 -0.5043
  845SOL    HW1 3434   6.895   3.064   0.561 -1.4988 -1.4540  0.3166
  845SOL    HW2 3435   6.925   2.914   0.502  0.8449 -1.0234  0.3278
  846SOL     OW 3436   6.520   2.669   0.367 -0.0953 -0.3528 -0.7772
  846SOL    HW1 3437   6.463   2.632   0.295 -0.5637  0.5853 -0.8977
  846SOL    HW2 3438   6.543   2.596   0.432  0.6486 -1.3027 -2.0424
  847SOL     OW 3439   0.019   0.738   0.227 -0.3401  0.7054  0.2471
  847SOL    HW1 3440  -0.080   0.730   0.217 -0.2385  0.5113 -0.6758
  847SOL    HW2 3441   0.044   0.725   0.323 -1.2091  0.8171  0.4972
  848SOL     OW 3442   1.299   2.220   2.383 -0.2254 -0.5998  0.2416
  848SOL    HW1 3443   1.322   2.130   2.419 -0.5378 -0.4391  0.8448
  848SOL    HW2 3444   1.295   2.286   2.457  0.5848  0.0429 -0.2660
  849SOL     OW 3445   6.776   2.645   6.258  0.0655  0.2806 -0.6011
  849SOL    HW1 3446   6.685   2.604   6.263  0.3787 -0.4569 -0.8364
  849SOL    HW2 3447   6.801   2.682   6.347  0.1485 -0.8557 -0.1371
  850SOL     OW 3448   0.492   6.968   0.798 -0.5402 -0.2484  0.1338
  850SOL    HW1 3449   0.532   7.047   0.752 -3.1333  1.2597  0.3210
  850SOL    HW2 3450   0.561   6.896   0.805  1.6038  1.5673 -0.9802
  851SOL     OW 3451   3.071   4.041   5.025 -0.7552  0.2393  0.6549
  851SOL    HW1 3452   3.083   3.974   4.952 -1.3947 -0.5140  1.2316
  851SOL    HW2 3453   2.991   4.098   5.006 -0.0097  1.0990 -0.0130
  852SOL     OW 3454   2.643   1.753   2.944 -0.0915  0.2047 -0.5082
  852SOL    HW1 3455   2.574   1.795   2.884 -0.2455  1.4822  0.5184
  852SOL    HW2 3456   2.733   1.789   2.922 -0.0957  0.3858 -0.2356
  853SOL     OW 3457   0.452   6.010   6.099  0.2742  0.1208 -0.2320
  853SOL    HW1 3458   0.439   6.027   6.196  2.1559 -0.0684  0.0919
  853SOL    HW2 3459   0.449   6.097   6.049  1.0930  0.4465  0.2538
  854SOL     OW 3460   1.435   0.826   3.316  0.3600  0.2571  0.0892
  854SOL    HW1 3461   1.352   0.780   3.282 -0.4029  0.9212  0.9885
  854SOL    HW2 3462   1.511   0.761   3.315 -0.2503 -0.4779 -0.4111
  855SOL     OW 3463   4.831   0.132   6.689  0.2250 -0.0851 -0.2122
  855SOL    HW1 3464   4.783   0.057   6.643 -0.0168 -0.1005  0.0628
  855SOL    HW2 3465   4.787   0.151   6.777 -0.9647  1.7279 -1.1503
  856SOL     OW 3466   6.082   0.199   2.288  0.0273 -0.9934 -0.3827
  856SOL    HW1 3467   6.119   0.184   2.380  0.5818  0.2782 -0.3820
  856SOL    HW2 3468   6.134   0.271   2.243 -0.7042 -1.1087 -1.4339
  857SOL     OW 3469   3.972   1.875   5.081  0.1238 -0.0264  0.6897
  857SOL    HW1 3470   3.939   1.968   5.065  2.1440  0.9680  1.8466
  857SOL    HW2 3471   3.902   1.823   5.130 -0.5362  1.3196  1.2330
  858SOL     OW 3472   3.780   2.518   1.079  0.1672  0.1485  0.0289
  858SOL    HW1 3473   3.840   2.559   1.148 -0.1078  1.7721 -0.6479
  858SOL    HW2 3474   3.686   2.517   1.113  0.1733  0.0840  0.0441
  859SOL     OW 3475   0.569   1.296   5.977  0.0930 -0.2069 -0.1766
  859SOL    HW1 3476   0.580   1.377   6.035  2.0109 -0.8448  0.4216
  859SOL    HW2 3477   0.485   1.248   6.003 -0.4991  0.9823  0.1978
  860SOL     OW 3478   1.278   5.015   6.859 -0.0266 -0.4990  0.0282
  860SOL    HW1 3479   1.342   5.072   6.808 -0.1477  0.0097  0.4360
  860SOL    HW2 3480   1.324   4.976   6.939 -0.7208  1.5144  1.4838
  861SOL     OW 3481   2.507   0.017   1.649  0.1147 -0.3086 -0.3000
  861SOL    HW1 3482   2.432   0.041   1.587  1.8011 -0.1850 -2.3863
  861SOL    HW2 3483   2.532   0.097   1.704  0.1419  0.2774 -1.1541
  862SOL     OW 3484   5.959   2.645   0.999 -0.2582  0.2317  0.3380
  862SOL    HW1 3485   5.982   2.548   1.006 -1.3842  0.0589  2.4660
  862SOL    HW2 3486   6.027   2.691   0.942  0.1678 -1.8146 -0.9212
  863SOL     OW 3487   2.190   2.947   7.006 -0.8833  0.4814 -0.0565
  863SOL    HW1 3488   2.121   2.982   7.069 -0.2402  1.7329 -0.0074
  863SOL    HW2 3489   2.177   2.988   6.916 -3.5432 -3.3602 -1.6838
  864SOL     OW 3490   0.214   2.737   1.512  0.0786 -0.0854  0.3499
  864SOL    HW1 3491   0.245   2.681   1.435 -0.2123 -0.4894  0.5240
  864SOL    HW2 3492   0.220   2.834   1.488  0.5179 -0.1909  0.0205
  865SOL     OW 3493   0.034   5.545   6.172 -0.2079  0.0029  0.1633
  865SOL    HW1 3494   0.133   5.557   6.158 -0.4004  1.4701 -0.1458
  865SOL    HW2 3495   0.008   5.590   6.258 -0.7624  0.5778 -0.2950
  866SOL     OW 3496   2.472   5.428   0.686  0.6031  0.0394 -0.5286
  866SOL    HW1 3497   2.552   5.423   0.746 -1.1586  1.7935  2.1550
  866SOL    HW2 3498   2.469   5.517   0.641  1.0990 -0.7217 -2.1665
  867SOL     OW 3499   2.378   5.229   0.521  0.2826  0.0838 -0.4524
  867SOL    HW1 3500   2.442   5.246   0.447 -0.6636  1.8034 -0.9266
  867SOL    HW2 3501   2.405   5.282   0.602  0.8293 -1.1171  0.1722
  868SOL     OW 3502   2.693   4.716   4.642  0.2022 -0.6595 -0.3281
  868SOL    HW1 3503   2.731   4.808   4.641 -0.1097 -0.4932  1.0956
  868SOL    HW2 3504   2.635   4.703   4.562  0.9564  0.0681 -1.0041
  869SOL     OW 3505   2.320   5.622   6.971 -0.3177  0.2770  0.5030
  869SOL    HW1 3506   2.258   5.602   7.046  0.6173  1.3823  1.6082
  869SOL    HW2 3507   2.341   5.538   6.922 -1.3226 -0.3793  1.1671
  870SOL     OW 3508   6.531   5.551   6.392  0.0373  0.0870 -0.1057
  870SOL    HW1 3509   6.446   5.601   6.406  0.3115  0.2679  1.0446
  870SOL    HW2 3510   6.558   5.555   6.296 -0.2431  1.6538 -0.1319
  871SOL     OW 3511   1.264   5.617   3.771  0.0385 -0.4474  0.6182
  871SOL    HW1 3512   1.183   5.560   3.781 -0.0313 -0.2562  1.1662
  871SOL    HW2 3513   1.249   5.683   3.698  0.4227 -1.6350 -0.5762
  872SOL     OW 3514   0.173   4.089   3.339  0.1250 -0.0748 -0.0366
  872SOL    HW1 3515   0.202   4.007   3.388  1.1253 -1.3987 -2.6455
  872SOL    HW2 3516   0.083   4.118   3.372 -0.3324 -2.3355  0.8641
  873SOL     OW 3517   0.776   2.702   2.003 -0.0572  0.3413 -0.4904
  873SOL    HW1 3518   0.791   2.762   1.925  0.2702  0.3601 -0.4131
  873SOL    HW2 3519   0.856   2.703   2.063 -1.0299  1.8766  0.8931
  874SOL     OW 3520   5.635   6.406   1.507 -0.0424 -0.6278  0.5710
  874SOL    HW1 3521   5.667   6.319   1.543  1.3252 -1.2097 -1.8733
  874SOL    HW2 3522   5.707   6.475   1.515 -0.1063 -0.4816 -0.0778
  875SOL     OW 3523   6.289   2.583   1.768 -0.0682 -0.6006  0.1362
  875SOL    HW1 3524   6.236   2.549   1.846 -0.5575 -2.9436 -1.1310
  875SOL    HW2 3525   6.357   2.649   1.801  1.5279 -3.4072  2.9787
  876SOL     OW 3526   6.173   6.307   6.153 -0.2232  0.1911  0.0656
  876SOL    HW1 3527   6.087   6.342   6.190 -0.9353 -0.7865 -0.6445
  876SOL    HW2 3528   6.246   6.373   6.172 -0.9296  0.5921  1.5229
  877SOL     OW 3529   2.931   6.002   5.167 -0.4826  0.0478  0.0927
  877SOL    HW1 3530   2.912   6.039   5.077  0.5826  0.2748 -0.0558
  877SOL    HW2 3531   2.891   5.911   5.175 -1.5618  0.4871 -0.1885
  878SOL     OW 3532   3.662   4.797   0.693  0.0694  0.6297 -0.6122
  878SOL    HW1 3533   3.614   4.884   0.677 -0.0555  0.5997 -0.4092
  878SOL    HW2 3534   3.606   4.722   0.658 -1.0673  0.3942  1.5382
  879SOL     OW 3535   0.155   1.718   0.328  0.7454  0.3760 -0.4894
  879SOL    HW1 3536   0.105   1.777   0.391 -0.1120  0.2027 -0.9784
  879SOL    HW2 3537   0.221   1.772   0.277 -0.0252  0.9325 -0.9258
  880SOL     OW 3538   6.878   5.586   6.392 -0.3125  0.3857  0.5020
  880SOL    HW1 3539   6.896   5.658   6.459 -1.8718  1.2579  0.0356
  880SOL    HW2 3540   6.826   5.624   6.315  2.5065 -0.2941 -1.8859
  881SOL     OW 3541   1.552   6.428   3.221  0.3556  0.5512 -0.4399
  881SOL    HW1 3542   1.537   6.455   3.316  3.8999  0.5871  0.2577
  881SOL    HW2 3543   1.485   6.358   3.195 -1.8647  1.8490  1.3971
  882SOL     OW 3544   5.210   3.089   3.990 -0.1177 -0.5386 -0.3920
  882SOL    HW1 3545   5.243   3.100   3.897 -1.0782 -1.1293 -0.8166
  882SOL    HW2 3546   5.247   3.162   4.047 -1.9252  1.6587 -1.8876
  883SOL     OW 3547   6.039   2.576   3.778  0.4026  0.3259 -0.4523
  883SOL    HW1 3548   6.087   2.587   3.865  0.6264  1.8090 -0.7397
  883SOL    HW2 3549   6.087   2.628   3.707  0.5824 -1.3475 -1.6263
  884SOL     OW 3550   0.726   5.022   6.307  0.1055 -0.1251  0.0334
  884SOL    HW1 3551   0.792   4.950   6.287 -0.3303  0.2709 -3.4731
  884SOL    HW2 3552   0.633   4.986   6.298 -0.1540  0.2297  1.1422
  885SOL     OW 3553   0.360   1.823   5.565  0.3245 -0.5219 -0.1711
  885SOL    HW1 3554   0.331   1.918   5.547 -1.3671 -1.0805 -0.5842
  885SOL    HW2 3555   0.354   1.804   5.663  2.3750  0.2936  0.1602
  886SOL     OW 3556   1.051   3.696   2.285 -0.3263 -0.7348  0.3349
  886SOL    HW1 3557   1.003   3.609   2.273  1.3865 -1.5137 -1.2565
  886SOL    HW2 3558   1.149   3.679   2.296  0.4673  1.0624 -2.7914
  887SOL     OW 3559   4.893   3.128   3.659  0.6366  0.3341 -0.0489
  887SOL    HW1 3560   4.949   3.140   3.577 -1.0197 -1.2557 -1.5213
  887SOL    HW2 3561   4.848   3.038   3.656  0.6558  0.1300  2.7210
  888SOL     OW 3562   2.660   3.911   6.803 -0.2735  0.0902  0.3379
  888SOL    HW1 3563   2.562   3.904   6.787 -0.4441 -1.4905  1.7814
  888SOL    HW2 3564   2.707   3.835   6.758  0.3190  0.8543 -0.3687
  889SOL     OW 3565   4.768   2.434   6.209 -0.8720 -0.7626  0.4696
  889SOL    HW1 3566   4.698   2.504   6.225  0.9574  1.0626  0.8211
  889SOL    HW2 3567   4.797   2.396   6.296  1.9490  2.0145  0.9230
  890SOL     OW 3568   1.082   5.291   3.938  0.1706  0.2633 -0.3557
  890SOL    HW1 3569   1.067   5.370   3.879 -0.2053 -0.6366 -1.4963
  890SOL    HW2 3570   1.138   5.223   3.891  1.1742  0.1703  0.9122
  891SOL     OW 3571   3.448   0.613   1.319 -0.7235  0.1975 -0.4334
  891SOL    HW1 3572   3.541   0.644   1.298 -0.5143  0.0979  0.3442
  891SOL    HW2 3573   3.391   0.692   1.343 -0.1490  0.0151  1.7076
  892SOL     OW 3574   6.602   0.032   6.475 -0.3161  0.5476 -0.2970
  892SOL    HW1 3575   6.686   0.005   6.521 -0.8419  1.9855  1.6441
  892SOL    HW2 3576   6.624   0.081   6.391  0.9264  2.3495  0.9884
  893SOL     OW 3577   3.769   1.315   5.581  0.4507 -0.0555  0.0834
  893SOL    HW1 3578   3.833   1.392   5.583  0.6917 -0.2619  1.4126
  893SOL    HW2 3579   3.680   1.346   5.546 -0.1503  1.4278  2.6580
  894SOL     OW 3580   1.247   0.322   2.243 -0.1555  0.2397  0.0268
  894SOL    HW1 3581   1.193   0.239   2.229  2.5264 -1.7471  0.7019
  894SOL    HW2 3582   1.278   0.327   2.338  3.3264 -0.4671 -0.9193
  895SOL     OW 3583   6.291   1.765   2.889  0.4751 -0.4169 -0.5628
  895SOL    HW1 3584   6.367   1.715   2.849  1.0502  1.1551 -1.5644
  895SOL    HW2 3585   6.304   1.863   2.873  0.1526  0.2364  2.5707
  896SOL     OW 3586   0.160   2.332   3.627  0.1458 -0.0935  0.2834
  896SOL    HW1 3587   0.139   2.371   3.537 -0.3275  0.7514  0.7426
  896SOL    HW2 3588   0.259   2.336   3.642  0.2816 -0.7203 -0.4057
  897SOL     OW 3589   0.617   3.389   3.547 -0.1456  0.0212 -0.0656
  897SOL    HW1 3590   0.700   3.430   3.508  0.0125  0.4921  0.7470
  897SOL    HW2 3591   0.551   3.373   3.474  0.5648 -0.1261 -0.6871
  898SOL     OW 3592   0.122   5.108   4.985 -0.1197 -0.6649  0.1517
  898SOL    HW1 3593   0.122   5.095   4.886 -1.6086  0.3845 -0.0247
  898SOL    HW2 3594   0.081   5.028   5.029 -0.8702 -0.4850 -0.2078
  899SOL     OW 3595   3.162   3.424   4.200 -0.4597 -0.0440  0.1785
  899SOL    HW1 3596   3.095   3.350   4.207  2.3362 -2.6664  4.4435
  899SOL    HW2 3597   3.133   3.501   4.256 -1.4489  0.3880 -0.8890
  900SOL     OW 3598   3.000   5.376   0.238  0.0774 -0.3714  0.2627
  900SOL    HW1 3599   3.005   5.280   0.263 -0.8920 -0.3791  0.4615
  900SOL    HW2 3600   2.998   5.433   0.320 -0.7865 -0.2688  0.1815
  901SOL     OW 3601   2.422   2.202   2.936  0.5920  0.0307  0.1932
  901SOL    HW1 3602   2.478   2.252   2.871  1.6843 -1.1054  0.2193
  901SOL    HW2 3603   2.471   2.193   3.023  0.3158 -0.8501  0.2731
  902SOL     OW 3604   5.236   1.836   2.002  0.0189 -0.0905  0.7437
  902SOL    HW1 3605   5.260   1.918   2.054 -0.7415  1.0788 -0.6643
  902SOL    HW2 3606   5.305   1.820   1.932 -1.3556  1.2404 -1.0284
  903SOL     OW 3607   3.170   6.142   2.633 -0.5622 -0.1810 -0.2845
  903SOL    HW1 3608   3.126   6.088   2.705 -2.1450  1.7151  0.2874
  903SOL    HW2 3609   3.266   6.154   2.655 -0.8766 -0.1568  1.2193
  904SOL     OW 3610   6.903   1.855   6.871  0.5783  0.2183  1.4386
  904SOL    HW1 3611   6.969   1.789   6.908  0.7843  1.1915  2.8903
  904SOL    HW2 3612   6.811   1.830   6.900  0.7063  0.8045  2.3893
  905SOL     OW 3613   4.033   6.984   0.475 -0.0410  0.5764  0.6016
  905SOL    HW1 3614   3.971   7.010   0.549  0.4207  3.6767  0.0459
  905SOL    HW2 3615   4.124   7.020   0.494  0.9343 -1.5138  0.0856
  906SOL     OW 3616   1.918   3.078   6.132  0.0190  0.7793  0.4124
  906SOL    HW1 3617   1.930   3.131   6.048 -2.3445 -0.3940 -0.7431
  906SOL    HW2 3618   1.906   3.140   6.209 -0.5278  1.9042 -0.5527
  907SOL     OW 3619   3.762   6.732   5.135 -0.2249 -0.2707 -0.3723
  907SOL    HW1 3620   3.842   6.672   5.133  0.2157  0.3021 -0.0776
  907SOL    HW2 3621   3.788   6.824   5.105 -1.0033 -0.3355 -1.3079
  908SOL     OW 3622   3.032   0.776   1.350  0.7618  0.0663  0.4560
  908SOL    HW1 3623   3.057   0.856   1.406 -0.7082  0.0135  1.2394
  908SOL    HW2 3624   3.044   0.693   1.404 -1.8628  0.0958  1.2196
  909SOL     OW 3625   6.901   0.275   3.956 -0.0925 -0.0926  0.0138
  909SOL    HW1 3626   7.000   0.282   3.956  0.0035 -1.1212 -0.6513
  909SOL    HW2 3627   6.862   0.334   4.027  0.9368  0.9509 -0.2675
  910SOL     OW 3628   5.050   5.450   5.692 -0.1976  0.0695 -0.2804
  910SOL    HW1 3629   4.992   5.382   5.738  0.5588  1.1773  2.5055
  910SOL    HW2 3630   5.042   5.438   5.593 -0.7256 -3.5128  0.0460
  911SOL     OW 3631   1.305   5.905   6.726 -0.4569 -0.3073  0.1856
  911SOL    HW1 3632   1.318   5.890   6.824 -0.1413  0.5475  0.2779
  911SOL    HW2 3633   1.211   5.937   6.710 -0.2450  0.4002  0.3147
  912SOL     OW 3634   1.889   0.571   5.035 -0.2843  0.5481 -0.2042
  912SOL    HW1 3635   1.920   0.652   5.085 -1.9574  0.7305  0.6006
  912SOL    HW2 3636   1.945   0.493   5.060  0.6147  1.2052 -0.1050
  913SOL     OW 3637   2.161   3.818   4.899  0.4013  0.4850 -0.8957
  913SOL    HW1 3638   2.159   3.724   4.933 -0.9469  0.7092 -0.3179
  913SOL    HW2 3639   2.229   3.871   4.950  0.3783  0.1076 -0.4704
  914SOL     OW 3640   0.335   0.122   6.111 -0.2209  0.4710  0.3520
  914SOL    HW1 3641   0.303   0.055   6.043  0.2762  1.0563 -0.4835
  914SOL    HW2 3642   0.275   0.202   6.109 -1.3937 -0.2996  2.0258
  915SOL     OW 3643   5.224   3.782   6.736 -0.0393  0.0230  0.2085
  915SOL    HW1 3644   5.292   3.831   6.682 -1.4958  1.7225 -0.1951
  915SOL    HW2 3645   5.222   3.818   6.829 -1.3701  1.0864 -0.1884
  916SOL     OW 3646   1.779   1.530   1.512  0.6723  0.2529  0.5265
  916SOL    HW1 3647   1.734   1.444   1.536  1.2350 -0.2529 -0.1933
  916SOL    HW2 3648   1.824   1.568   1.592 -0.8643  0.6803  1.2292
  917SOL     OW 3649   5.025   0.808   2.067 -0.4199  0.1971  0.1200
  917SOL    HW1 3650   4.971   0.723   2.066  0.5890 -0.4735  1.0905
  917SOL    HW2 3651   5.087   0.808   2.145  0.9106  1.0119 -0.8849
  918SOL     OW 3652   4.938   1.227   4.271 -0.0235 -0.0124 -0.2082
  918SOL    HW1 3653   4.886   1.271   4.198 -1.3313 -0.5472  0.3691
  918SOL    HW2 3654   5.006   1.292   4.306 -0.3202  0.7272 -0.9534
  919SOL     OW 3655   6.573   0.375   5.384 -0.7716  0.2725 -0.1355
  919SOL    HW1 3656   6.483   0.335   5.404 -0.7496  0.5777  0.6364
  919SOL    HW2 3657   6.623   0.389   5.470  1.1570 -2.4630 -0.6930
  920SOL     OW 3658   0.241   3.972   1.850 -0.0033 -1.0935  0.5530
  920SOL    HW1 3659   0.339   3.985   1.860 -0.1125  2.7147 -1.4103
  920SOL    HW2 3660   0.193   4.006   1.931  0.2193 -0.4333  0.4094
  921SOL     OW 3661   0.188   6.966   1.821  0.3365 -0.4284  0.4505
  921SOL    HW1 3662   0.227   6.874   1.813 -0.2053 -0.5443 -1.2101
  921SOL    HW2 3663   0.088   6.960   1.822  0.2968  0.1444  0.1719
  922SOL     OW 3664   2.175   0.779   5.054 -0.8238 -0.3293 -0.3507
  922SOL    HW1 3665   2.162   0.710   4.984  1.0422  0.4004 -1.4971
  922SOL    HW2 3666   2.175   0.870   5.012  0.8846  0.0926  0.4534
  923SOL     OW 3667   3.339   1.191   0.849  0.5239  0.0663  0.1419
  923SOL    HW1 3668   3.368   1.271   0.902  0.3976 -0.1512  0.5491
  923SOL    HW2 3669   3.323   1.114   0.912 -1.5704  0.3545  0.0220
  924SOL     OW 3670   2.119   3.401   6.428  0.0552  0.4099  0.0019
  924SOL    HW1 3671   2.059   3.322   6.411 -0.6013  0.4512  1.9203
  924SOL    HW2 3672   2.149   3.400   6.523 -0.1925  2.6501  0.1433
  925SOL     OW 3673   1.052   4.590   1.767 -0.1745 -0.1137 -0.0679
  925SOL    HW1 3674   1.140   4.578   1.720 -1.4003 -0.3058 -2.4930
  925SOL    HW2 3675   1.005   4.669   1.729  0.1841  1.9181  3.3694
  926SOL     OW 3676   1.682   4.106   2.850  0.8321 -0.1506  0.1360
  926SOL    HW1 3677   1.701   4.083   2.946 -0.2584  1.3603  0.7461
  926SOL    HW2 3678   1.604   4.053   2.818 -1.0483  1.8196  1.2291
  927SOL     OW 3679   1.052   1.193   2.492  0.8961  0.0060 -0.5553
  927SOL    HW1 3680   1.050   1.142   2.406  0.3050  1.5570 -1.5154
  927SOL    HW2 3681   1.003   1.279   2.480  0.4968  0.0990  1.4643
  928SOL     OW 3682   6.022   0.942   4.413  0.0218 -0.3910  0.3453
  928SOL    HW1 3683   6.113   0.927   4.453  0.8252  0.3043 -1.1182
  928SOL    HW2 3684   6.002   0.867   4.349 -0.6299 -0.7672  0.9876
  929SOL     OW 3685   4.988   6.348   3.776 -0.5630 -0.2582 -0.3260
  929SOL    HW1 3686   5.073   6.346   3.829 -0.3787 -1.1217 -0.6437
  929SOL    HW2 3687   4.913   6.313   3.832 -1.0331  1.8575  0.4652
  930SOL     OW 3688   2.073   1.462   6.157 -0.0864 -0.1397  0.1347
  930SOL    HW1 3689   2.037   1.379   6.199  2.0297 -0.9369  0.4698
  930SOL    HW2 3690   2.074   1.452   6.057  1.2926 -1.0342  0.2219
  931SOL     OW 3691   1.976   2.040   5.303 -0.4957  0.1619  0.0684
  931SOL    HW1 3692   2.013   2.042   5.210  0.3335  1.1463  0.4123
  931SOL    HW2 3693   1.906   2.111   5.312  0.6981  1.2790  0.7077
  932SOL     OW 3694   4.823   1.766   6.062 -0.3380 -0.0926 -0.1994
  932SOL    HW1 3695   4.753   1.695   6.057  0.3778 -0.7618 -1.1778
  932SOL    HW2 3696   4.879   1.752   6.143  0.1996 -1.0592 -0.7182
  933SOL     OW 3697   5.773   5.937   3.266 -0.1067  0.0532  0.7386
  933SOL    HW1 3698   5.759   6.026   3.310  0.0735  0.3979  0.1196
  933SOL    HW2 3699   5.685   5.900   3.237 -0.2941 -0.4602  1.9005
  934SOL     OW 3700   3.170   5.198   1.570  0.2220 -0.3123  0.8230
  934SOL    HW1 3701   3.198   5.123   1.631 -1.6830 -0.1974  1.9177
  934SOL    HW2 3702   3.226   5.278   1.588  0.3294 -0.5845  1.7688
  935SOL     OW 3703   6.143   2.988   3.814 -0.0206  0.2847  0.2026
  935SOL    HW1 3704   6.192   2.961   3.896 -1.2452 -2.2027  0.1885
  935SOL    HW2 3705   6.062   3.040   3.839  0.2922  0.6554  0.4655
  936SOL     OW 3706   3.365   4.538   6.385  0.7961  0.3458  0.1335
  936SOL    HW1 3707   3.344   4.590   6.467  0.5872 -0.7127  0.7756
  936SOL    HW2 3708   3.282   4.491   6.353  1.0901 -0.0130 -0.1146
  937SOL     OW 3709   5.391   3.227   5.414 -0.9297  0.3356 -0.4098
  937SOL    HW1 3710   5.449   3.278   5.350 -0.5399  3.7305  2.3761
  937SOL    HW2 3711   5.295   3.238   5.389 -0.7053 -0.0987 -1.5129
  938SOL     OW 3712   2.384   4.259   1.476 -0.8664  0.4090 -0.9706
  938SOL    HW1 3713   2.412   4.199   1.552 -0.3817  0.2987 -1.2348
  938SOL    HW2 3714   2.419   4.222   1.390 -0.5239  1.0932 -1.1329
  939SOL     OW 3715   2.713   0.377   0.458 -0.0749  0.0051  0.4886
  939SOL    HW1 3716   2.701   0.464   0.506  1.5777 -0.1324  1.2268
  939SOL    HW2 3717   2.784   0.387   0.388  0.9090 -0.9835  1.2985
  940SOL     OW 3718   1.265   1.287   5.793 -0.5728  0.0337  0.0102
  940SOL    HW1 3719   1.202   1.346   5.843 -0.3703  0.6212 -0.4152
  940SOL    HW2 3720   1.213   1.229   5.730 -0.7454 -0.0421  0.2173
  941SOL     OW 3721   6.794   5.417   6.871 -0.4122 -0.5883 -0.4956
  941SOL    HW1 3722   6.809   5.385   6.777 -3.1369 -0.6761 -0.9651
  941SOL    HW2 3723   6.750   5.345   6.924  0.6226 -0.3487  0.7448
  942SOL     OW 3724   0.386   1.618   6.464 -0.1148 -0.2136  0.5357
  942SOL    HW1 3725   0.431   1.646   6.549 -0.4232 -1.2103  1.0424
  942SOL    HW2 3726   0.288   1.635   6.471 -0.1260 -0.1945  0.3386
  943SOL     OW 3727   4.990   0.793   1.721  0.2103 -0.1698 -0.3191
  943SOL    HW1 3728   4.916   0.860   1.736  0.6226  0.3773 -0.6791
  943SOL    HW2 3729   4.986   0.760   1.626  1.0040  0.5853 -0.6266
  944SOL     OW 3730   0.603   2.476   0.410 -0.3830 -0.1353  0.3447
  944SOL    HW1 3731   0.533   2.406   0.404 -1.2749  0.6185  1.4456
  944SOL    HW2 3732   0.676   2.445   0.471 -0.3179 -0.4777  0.0922
  945SOL     OW 3733   4.315   5.423   6.893  0.0715  0.3380 -0.0153
  945SOL    HW1 3734   4.288   5.382   6.806 -1.4596 -1.6561  1.3041
  945SOL    HW2 3735   4.235   5.465   6.935  0.7343  1.0305  0.5737
  946SOL     OW 3736   0.429   6.472   6.030  0.0405 -0.8072  0.2163
  946SOL    HW1 3737   0.426   6.471   6.129 -1.8363  1.1718  0.2518
  946SOL    HW2 3738   0.350   6.422   5.993 -0.7850  0.7005 -0.1728
  947SOL     OW 3739   3.780   5.345   1.913  0.6043 -0.3228  0.1634
  947SOL    HW1 3740   3.810   5.255   1.880 -0.0524 -0.2988 -0.5221
  947SOL    HW2 3741   3.702   5.334   1.974  0.7404 -0.2405  0.3533
  948SOL     OW 3742   6.650   2.941   6.018  0.4529 -0.1733 -0.1622
  948SOL    HW1 3743   6.648   3.032   5.976  0.8024 -0.3897 -0.6688
  948SOL    HW2 3744   6.744   2.920   6.048  0.0491  0.3344  1.5552
  949SOL     OW 3745   3.977   6.036   3.108  0.2124  0.2865  0.3253
  949SOL    HW1 3746   4.046   6.026   3.180  0.4898  2.0442  0.3568
  949SOL    HW2 3747   3.951   5.946   3.074  0.4890 -0.5643  2.2233
  950SOL     OW 3748   1.227   3.880   3.622 -0.3037 -0.2341 -0.0288
  950SOL    HW1 3749   1.168   3.953   3.657  0.0425 -0.6809  1.5804
  950SOL    HW2 3750   1.294   3.856   3.691 -0.4363 -2.1096 -0.4975
  951SOL     OW 3751   1.112   0.589   4.734 -0.6540 -0.1198 -0.8134
  951SOL    HW1 3752   1.020   0.607   4.701 -0.6087  0.8183 -0.4553
  951SOL    HW2 3753   1.125   0.634   4.823  0.8647  1.7085 -1.8876
  952SOL     OW 3754   4.911   2.550   5.751  0.3178 -0.2579  0.0225
  952SOL    HW1 3755   4.868   2.628   5.797  0.2248  0.4283 -1.1899
  952SOL    HW2 3756   4.948   2.580   5.662  2.3069 -1.0717  0.5163
  953SOL     OW 3757   5.757   6.086   5.725  0.0328  0.5017  0.5685
  953SOL    HW1 3758   5.850   6.090   5.762 -0.0895 -0.8449  1.1018
  953SOL    HW2 3759   5.754   6.133   5.637  1.5131 -0.4376 -0.0291
  954SOL     OW 3760   0.293   3.866   2.170 -1.0509 -0.3615 -0.2088
  954SOL    HW1 3761   0.345   3.874   2.085 -1.8011  0.5485 -0.6085
  954SOL    HW2 3762   0.330   3.791   2.225 -0.4920 -0.9099 -1.2890
  955SOL     OW 3763   3.727   0.325   3.261 -0.2892 -0.2593 -0.7411
  955SOL    HW1 3764   3.741   0.408   3.206  2.0364  0.2163  0.4586
  955SOL    HW2 3765   3.738   0.347   3.358  0.6510 -1.9949 -0.4197
  956SOL     OW 3766   0.717   2.127   2.978 -0.2684  0.3897  0.2066
  956SOL    HW1 3767   0.672   2.203   2.930 -0.5924  0.8295  1.1915
  956SOL    HW2 3768   0.714   2.045   2.921 -2.2818  0.4119  0.2208
  957SOL     OW 3769   0.206   2.043   0.374  0.0813  0.3486 -0.0840
  957SOL    HW1 3770   0.286   2.071   0.426  3.2873 -3.2457 -2.5043
  957SOL    HW2 3771   0.152   1.978   0.427  1.4680 -0.7717  0.0042
  958SOL     OW 3772   2.194   0.317   2.743  0.4197 -0.0085 -0.7982
  958SOL    HW1 3773   2.289   0.333   2.771  0.4340  1.7016 -1.6779
  958SOL    HW2 3774   2.155   0.402   2.708 -1.5896 -0.5727 -0.0860
  959SOL     OW 3775   4.907   6.752   6.668  0.7222  0.7385  0.2675
  959SOL    HW1 3776   4.882   6.664   6.708 -1.2359  1.5089  0.8384
  959SOL    HW2 3777   4.826   6.810   6.661  2.0824  2.7829  0.5839
  960SOL     OW 3778   0.667   4.547   0.083 -0.0330 -0.2983  0.3596
  960SOL    HW1 3779   0.650   4.483   0.159  1.8863 -0.7407  0.4534
  960SOL    HW2 3780   0.731   4.506   0.019  0.8706  1.3338  0.1678
  961SOL     OW 3781   1.289   3.083   2.563 -0.3135  0.2429 -0.1283
  961SOL    HW1 3782   1.348   3.014   2.606  0.9172  1.9130  1.0535
  961SOL    HW2 3783   1.331   3.115   2.478  0.1372  0.8986  0.3295
  962SOL     OW 3784   5.040   0.019   2.376 -0.0537  0.6036 -0.1949
  962SOL    HW1 3785   5.116   0.016   2.441 -1.3709  3.1948  1.6620
  962SOL    HW2 3786   4.960   0.059   2.420 -1.2563  1.8995 -3.2505
  963SOL     OW 3787   6.381   4.742   5.058  0.3716 -0.2603  0.4953
  963SOL    HW1 3788   6.296   4.694   5.040  0.2700  0.7028 -2.1297
  963SOL    HW2 3789   6.364   4.818   5.121 -1.1447  0.8854 -1.1736
  964SOL     OW 3790   1.730   0.715   3.672 -0.4744  0.5429  0.0581
  964SOL    HW1 3791   1.672   0.644   3.712 -0.3023  0.6091  0.4279
  964SOL    HW2 3792   1.717   0.717   3.573  1.1350 -1.4743 -0.2610
  965SOL     OW 3793   2.870   6.143   6.091 -0.2088 -0.3426 -0.1786
  965SOL    HW1 3794   2.876   6.235   6.052  0.5367 -0.5735 -0.6326
  965SOL    HW2 3795   2.796   6.093   6.047 -1.0288  0.2382  0.5108
  966SOL     OW 3796   6.803   0.996   1.229  0.0502 -0.0532  0.3263
  966SOL    HW1 3797   6.884   1.033   1.184 -0.6258 -0.5849 -1.4152
  966SOL    HW2 3798   6.821   0.903   1.260 -0.1380 -0.5011 -0.8624
  967SOL     OW 3799   6.617   6.392   3.457  0.0525 -0.1682 -0.3555
  967SOL    HW1 3800   6.566   6.307   3.440  0.3456 -0.3428 -0.3748
  967SOL    HW2 3801   6.581   6.437   3.539  0.1997 -0.5509 -0.0779
  968SOL     OW 3802   5.374   5.685   3.495  0.3130  0.8151 -0.3016
  968SOL    HW1 3803   5.278   5.675   3.469  0.1518  1.7117 -0.0714
  968SOL    HW2 3804   5.426   5.719   3.417  0.2251  1.4519 -0.0841
  969SOL     OW 3805   5.409   5.857   1.975  0.0122 -0.4924 -0.3457
  969SOL    HW1 3806   5.409   5.935   1.913 -0.3038 -0.5493 -0.4196
  969SOL    HW2 3807   5.369   5.884   2.063  0.7630 -0.3218 -0.0441
  970SOL     OW 3808   5.050   5.515   1.451  0.8933 -0.4289 -0.0963
  970SOL    HW1 3809   5.066   5.613   1.464  2.1907 -0.6308 -0.0595
  970SOL    HW2 3810   4.981   5.502   1.380  0.0946  0.5141  0.4719
  971SOL     OW 3811   4.415   6.165   5.877  0.1964 -1.0087 -0.5369
  971SOL    HW1 3812   4.446   6.220   5.955 -1.7897  0.1419 -0.4755
  971SOL    HW2 3813   4.470   6.188   5.796 -0.1513  0.6643 -0.3498
  972SOL     OW 3814   2.577   5.805   3.227 -0.1448  0.6500 -0.3055
  972SOL    HW1 3815   2.660   5.822   3.174  0.4249 -0.1827  0.3089
  972SOL    HW2 3816   2.540   5.893   3.259  1.0140  0.9728  0.1933
  973SOL     OW 3817   0.301   3.603   1.488  0.3439 -0.1643  0.0006
  973SOL    HW1 3818   0.297   3.654   1.574  0.9305 -1.9662  1.1363
  973SOL    HW2 3819   0.223   3.542   1.482 -0.3954  0.8517 -1.3922
  974SOL     OW 3820   0.399   0.812   0.211 -0.4809 -0.0265 -0.5883
  974SOL    HW1 3821   0.389   0.790   0.114  1.0040  0.9511 -1.0004
  974SOL    HW2 3822   0.415   0.728   0.263  1.3298 -0.3479 -1.5773
  975SOL     OW 3823   4.254   4.667   6.471  0.6157 -0.1527 -0.4636
  975SOL    HW1 3824   4.320   4.617   6.415  0.6955 -0.4996 -0.0617
  975SOL    HW2 3825   4.202   4.602   6.527  1.9184  0.3180  1.3773
  976SOL     OW 3826   2.227   4.505   4.414 -0.5555  0.2434  0.1848
  976SOL    HW1 3827   2.200   4.569   4.342 -1.0860  1.0104  1.0445
  976SOL    HW2 3828   2.290   4.551   4.477 -1.3542  0.0843  1.1062
  977SOL     OW 3829   0.864   3.413   2.591 -0.5504  0.0171  0.0982
  977SOL    HW1 3830   0.872   3.470   2.673  1.2440  0.7587 -0.5449
  977SOL    HW2 3831   0.771   3.377   2.584 -0.8596  0.3256  2.1882
  978SOL     OW 3832   2.513   4.915   5.009  0.1614 -0.0434 -0.1371
  978SOL    HW1 3833   2.529   4.825   4.968 -1.0676 -0.3766  0.0933
  978SOL    HW2 3834   2.442   4.963   4.958  2.4617  1.8551 -1.8098
  979SOL     OW 3835   6.551   0.811   1.449  0.3894 -0.1211  0.3577
  979SOL    HW1 3836   6.562   0.734   1.512  0.0645  0.3739  1.0309
  979SOL    HW2 3837   6.475   0.868   1.479  0.0122 -0.0514 -0.6782
  980SOL     OW 3838   4.094   1.279   0.258  0.1196  0.4910 -0.2220
  980SOL    HW1 3839   4.136   1.364   0.292 -0.3422 -0.0514  1.8382
  980SOL    HW2 3840   4.096   1.210   0.330 -2.6034 -0.1524 -0.6680
  981SOL     OW 3841   6.535   3.519   2.060 -0.1039  0.4056 -0.3247
  981SOL    HW1 3842   6.623   3.480   2.032 -0.5778 -0.9280 -0.0325
  981SOL    HW2 3843   6.522   3.608   2.015  0.9046  0.1220 -1.2187
  982SOL     OW 3844   4.142   3.336   0.568  0.6073 -0.3759  0.0392
  982SOL    HW1 3845   4.219   3.285   0.606  2.5639  3.2523  1.4675
  982SOL    HW2 3846   4.070   3.344   0.638  1.3706  0.8092  0.7151
  983SOL     OW 3847   0.338   1.725   1.882  0.5541  0.3787 -0.1275
  983SOL    HW1 3848   0.326   1.811   1.931  0.6390 -1.1703  2.8933
  983SOL    HW2 3849   0.434   1.698   1.885  0.9023  1.0712 -2.8390
  984SOL     OW 3850   6.008   0.821   2.770 -0.4662  0.2947  0.1027
  984SOL    HW1 3851   6.008   0.916   2.803  0.4951  0.6575 -0.8909
  984SOL    HW2 3852   6.061   0.815   2.686 -0.0311 -1.2452  0.4563
  985SOL     OW 3853   5.519   4.322   2.785 -0.1426 -0.5849  0.1963
  985SOL    HW1 3854   5.507   4.378   2.703  0.7386 -1.6254 -0.6767
  985SOL    HW2 3855   5.615   4.318   2.810 -0.4746  0.3090  1.7420
  986SOL     OW 3856   6.867   3.591   1.253 -0.0966  0.0008 -0.0805
  986SOL    HW1 3857   6.945   3.642   1.218  0.1957  1.5179  2.5928
  986SOL    HW2 3858   6.888   3.493   1.249  0.5449  0.1502 -2.4322
  987SOL     OW 3859   2.129   6.770   5.115 -0.0070  0.1841 -0.1322
  987SOL    HW1 3860   2.123   6.869   5.105  0.4348  0.3130  0.8151
  987SOL    HW2 3861   2.196   6.747   5.186 -1.2240 -0.7463  0.7481
  988SOL     OW 3862   5.435   2.553   6.548 -0.1276  0.2621  0.0878
  988SOL    HW1 3863   5.428   2.607   6.464  2.1419  2.2480  1.0410
  988SOL    HW2 3864   5.527   2.515   6.555 -0.5984 -0.7301  1.1802
  989SOL     OW 3865   4.618   0.403   4.046 -0.0162  0.2073 -0.0517
  989SOL    HW1 3866   4.649   0.441   3.959 -0.1960  0.2198 -0.1094
  989SOL    HW2 3867   4.671   0.443   4.120  1.2847 -0.9959 -0.2786
  990SOL     OW 3868   4.509   5.041   3.358  0.5627  0.1216  0.0196
  990SOL    HW1 3869   4.584   5.011   3.298 -0.7135 -0.2945 -1.4309
  990SOL    HW2 3870   4.428   5.062   3.302 -0.5427  0.1746  1.5820
  991SOL     OW 3871   6.122   3.005   5.956 -0.1975  0.5380  0.0492
  991SOL    HW1 3872   6.082   3.004   5.864 -1.7658  1.0785  0.6877
  991SOL    HW2 3873   6.217   3.035   5.951  0.7870 -2.5052 -1.7332
  992SOL     OW 3874   2.728   1.549   4.745 -0.2479 -1.1279 -0.3178
  992SOL    HW1 3875   2.695   1.638   4.712  1.1576 -0.0444  1.0220
  992SOL    HW2 3876   2.654   1.482   4.739 -0.9761 -0.2246 -2.5599
  993SOL     OW 3877   4.897   3.782   4.547 -0.8499  0.2873  0.4894
  993SOL    HW1 3878   4.862   3.816   4.459 -0.9340  0.0338  0.4237
  993SOL    HW2 3879   4.881   3.684   4.553  0.4899  0.0259  0.1539
  994SOL     OW 3880   3.055   6.448   0.667 -0.3036 -0.1767  0.3619
  994SOL    HW1 3881   3.129   6.382   0.683  0.7434  1.0775  0.8468
  994SOL    HW2 3882   3.078   6.535   0.711  0.6253  2.0954 -4.0604
  995SOL     OW 3883   1.742   2.127   1.080 -0.3498  0.0471 -0.1001
  995SOL    HW1 3884   1.840   2.144   1.073 -0.5069  1.0123 -0.1088
  995SOL    HW2 3885   1.693   2.215   1.084 -1.2472 -0.4176 -0.5579
  996SOL     OW 3886   1.771   3.007   1.896 -0.8327 -0.7808 -0.6293
  996SOL    HW1 3887   1.828   2.985   1.816  1.1769  0.3406  0.4181
  996SOL    HW2 3888   1.758   3.106   1.901 -3.2440 -1.0138 -1.0111
  997SOL     OW 3889   1.849   5.961   2.353 -0.4886  0.3427 -0.2354
  997SOL    HW1 3890   1.781   6.001   2.414  1.2473  0.7959  1.5136
  997SOL    HW2 3891   1.911   6.033   2.320  0.0534 -0.2611 -0.5560
  998SOL     OW 3892   3.076   2.827   0.963 -0.1495  0.2909 -0.7124
  998SOL    HW1 3893   3.128   2.831   1.048 -1.1551  1.8608 -0.1190
  998SOL    HW2 3894   3.134   2.852   0.886  0.0361  1.9997 -0.0642
  999SOL     OW 3895   0.199   2.432   1.348 -0.3239 -0.2592 -0.2677
  999SOL    HW1 3896   0.150   2.357   1.392 -1.0012  0.8234  0.8805
  999SOL    HW2 3897   0.290   2.441   1.389  0.8763 -2.1644 -2.2887
 1000SOL     OW 3898   0.447   1.339   0.035 -0.1649  0.4385  0.5815
 1000SOL    HW1 3899   0.468   1.350   0.132 -0.5419  1.1570  0.5880
 1000SOL    HW2 3900   0.529   1.356  -0.019 -0.5861  2.9620  0.6210
 1001SOL     OW 3901   6.999   6.374   2.213  0.0784 -0.2324  1.1973
 1001SOL    HW1 3902   6.986   6.308   2.139  1.3055 -0.5782  1.2766
 1001SOL    HW2 3903   7.055   6.333   2.285  1.0181  0.9441  1.1640
 1002SOL     OW 3904   4.813   2.087   4.246  0.1689  0.1324  0.3755
 1002SOL    HW1 3905   4.850   2.057   4.334 -0.9729 -0.4186  0.6773
 1002SOL    HW2 3906   4.863   2.042   4.172  1.3051  0.7922  0.7222
 1003SOL     OW 3907   1.471   4.001   2.466  1.1625  0.0817  0.2894
 1003SOL    HW1 3908   1.498   3.999   2.562  3.5475  0.5009 -0.2982
 1003SOL    HW2 3909   1.467   3.908   2.430 -0.0575 -0.0960  0.8497
 1004SOL     OW 3910   3.775   0.292   1.155  0.4854  0.3107 -0.2608
 1004SOL    HW1 3911   3.778   0.382   1.111  0.5076  0.1452 -0.6010
 1004SOL    HW2 3912   3.687   0.249   1.138  0.2070  0.5634  0.5024
 1005SOL     OW 3913   6.752   3.857   2.273 -0.4455  0.0390 -0.5382
 1005SOL    HW1 3914   6.765   3.850   2.371  2.4406  1.0050 -0.7494
 1005SOL    HW2 3915   6.787   3.775   2.228 -0.9347 -0.0222 -0.8146
 1006SOL     OW 3916   0.519   5.839   1.351 -0.4046  0.2386  0.4857
 1006SOL    HW1 3917   0.478   5.930   1.363  0.4190  0.5875  0.7036
 1006SOL    HW2 3918   0.518   5.814   1.254 -1.0211  0.2894  0.4745
 1007SOL     OW 3919   6.344   6.156   4.991 -0.6583  0.9123 -0.0586
 1007SOL    HW1 3920   6.305   6.203   5.069 -0.3946  1.1857 -0.0915
 1007SOL    HW2 3921   6.412   6.214   4.946 -1.2280  0.9835 -0.8386
 1008SOL     OW 3922   3.212   6.845   1.427 -0.4013 -0.1043  0.6362
 1008SOL    HW1 3923   3.205   6.786   1.507  0.8400 -1.0546  0.0818
 1008SOL    HW2 3924   3.164   6.931   1.444  1.4056  0.5330  3.1479
 1009SOL     OW 3925   6.002   6.152   5.270  0.6969  0.0811  0.0789
 1009SOL    HW1 3926   6.021   6.109   5.358  1.5778  0.4368  0.0718
 1009SOL    HW2 3927   5.916   6.115   5.233  1.5220 -1.8670 -0.0459
 1010SOL     OW 3928   3.445   5.661   6.628  0.2940  0.0156  0.2130
 1010SOL    HW1 3929   3.524   5.617   6.587  0.5235  0.7312 -0.1231
 1010SOL    HW2 3930   3.414   5.736   6.570  1.1774  1.6509  1.7398
 1011SOL     OW 3931   6.785   5.775   0.980 -0.0472  0.3317  0.1871
 1011SOL    HW1 3932   6.854   5.715   0.938  0.1292  0.6855 -0.0262
 1011SOL    HW2 3933   6.826   5.823   1.058 -0.4327 -0.4946  0.9302
 1012SOL     OW 3934   1.402   2.373   4.322 -0.5243 -0.0256 -0.4983
 1012SOL    HW1 3935   1.328   2.308   4.303 -0.0603 -0.4024 -1.0104
 1012SOL    HW2 3936   1.446   2.348   4.408 -1.7413  0.8902  0.4366
 1013SOL     OW 3937   0.791   2.016   2.149  0.3982  0.3654 -0.2098
 1013SOL    HW1 3938   0.812   1.977   2.239  0.6863 -0.8688 -0.8001
 1013SOL    HW2 3939   0.722   2.088   2.160  2.1767  1.9550  1.3034
 1014SOL     OW 3940   1.799   3.703   2.770  0.1113 -0.0527  0.0498
 1014SOL    HW1 3941   1.723   3.731   2.829 -0.0136  0.2056 -0.2262
 1014SOL    HW2 3942   1.879   3.682   2.826  0.1336  0.6286  0.2894
 1015SOL     OW 3943   4.750   6.250   4.151  0.3162  0.7466  1.0252
 1015SOL    HW1 3944   4.812   6.324   4.123  0.4884 -0.1097 -0.9839
 1015SOL    HW2 3945   4.770   6.226   4.246  0.9570  2.5585  1.4013
 1016SOL     OW 3946   5.526   4.047   5.698 -0.0632  0.4394 -0.1860
 1016SOL    HW1 3947   5.591   4.079   5.629  0.8332  0.2341  0.5498
 1016SOL    HW2 3948   5.574   4.030   5.784 -1.0828  0.2063  0.3500
 1017SOL     OW 3949   3.887   6.965   0.925 -0.3792  0.3864 -0.0041
 1017SOL    HW1 3950   3.842   6.970   1.014  1.0400  1.2708  0.7018
 1017SOL    HW2 3951   3.982   6.996   0.934 -0.4746  1.4400 -2.0079
 1018SOL     OW 3952   3.283   6.727   1.925  0.1802 -0.4217 -0.6791
 1018SOL    HW1 3953   3.324   6.639   1.950 -1.5154 -2.1659 -3.5218
 1018SOL    HW2 3954   3.218   6.754   1.996 -1.6612 -3.1763 -1.1531
 1019SOL     OW 3955   4.024   6.412   0.282 -0.2754  0.2661 -0.1040
 1019SOL    HW1 3956   4.110   6.462   0.285  0.8896 -1.6399  2.2491
 1019SOL    HW2 3957   4.034   6.332   0.224 -0.6711  0.3767 -0.3283
 1020SOL     OW 3958   1.060   1.055   6.427 -0.4247  0.5943 -0.6330
 1020SOL    HW1 3959   1.116   0.989   6.377  0.5878  0.2833  0.8456
 1020SOL    HW2 3960   1.016   1.009   6.504 -1.8753  1.0816 -1.1367
 1021SOL     OW 3961   5.029   2.406   2.406  0.2026  0.4965  0.3897
 1021SOL    HW1 3962   4.986   2.341   2.344  1.6431 -0.3164  0.1880
 1021SOL    HW2 3963   5.031   2.367   2.499 -0.3020  0.9164  0.5791
 1022SOL     OW 3964   2.548   5.222   0.321  0.4871 -0.3102 -0.5051
 1022SOL    HW1 3965   2.563   5.201   0.224  2.4491 -0.0829 -0.2945
 1022SOL    HW2 3966   2.611   5.167   0.377  0.7764  1.0102  0.5019
 1023SOL     OW 3967   3.378   4.972   2.334 -0.2559  0.4557  0.1324
 1023SOL    HW1 3968   3.379   4.944   2.238 -0.8461  0.4255  0.1328
 1023SOL    HW2 3969   3.464   5.019   2.356  0.4671 -0.7403 -0.0451
 1024SOL     OW 3970   4.435   4.472   6.612 -0.5148  0.3030 -0.0379
 1024SOL    HW1 3971   4.500   4.422   6.670  0.1261 -0.5528 -1.4305
 1024SOL    HW2 3972   4.342   4.456   6.643 -0.1850 -0.2287  0.6873
 1025SOL     OW 3973   3.906   1.147   1.148 -0.4652 -0.5787 -0.0803
 1025SOL    HW1 3974   3.866   1.175   1.061 -0.1956 -1.7569 -0.6037
 1025SOL    HW2 3975   3.952   1.059   1.137 -0.0640 -0.5464  1.1569
 1026SOL     OW 3976   1.659   2.446   6.935  0.4879  0.0239  0.4236
 1026SOL    HW1 3977   1.731   2.426   6.868 -0.0848  1.6041 -0.7210
 1026SOL    HW2 3978   1.687   2.525   6.991 -0.2240  0.4697  0.1597
 1027SOL     OW 3979   1.353   2.660   4.964 -0.0098 -0.2335 -0.0253
 1027SOL    HW1 3980   1.282   2.600   5.000  2.0265 -2.1995  0.9387
 1027SOL    HW2 3981   1.374   2.731   5.031 -2.7203  2.0391 -1.3368
 1028SOL     OW 3982   4.478   6.616   3.848 -0.5742  0.2626  0.1455
 1028SOL    HW1 3983   4.529   6.610   3.933 -2.7498  0.1117  1.5237
 1028SOL    HW2 3984   4.467   6.712   3.822 -0.1827  0.3238  0.2034
 1029SOL     OW 3985   4.519   2.591   3.908  0.8336 -0.0042 -0.0676
 1029SOL    HW1 3986   4.533   2.493   3.914  0.6214  0.0614  2.3514
 1029SOL    HW2 3987   4.605   2.636   3.884  1.0167 -0.7409 -0.8179
 1030SOL     OW 3988   5.576   2.711   6.287 -0.0141  0.1781 -0.6305
 1030SOL    HW1 3989   5.607   2.630   6.236 -1.5457 -1.6688  1.1770
 1030SOL    HW2 3990   5.652   2.750   6.339  0.3967 -1.2446 -0.1214
 1031SOL     OW 3991   5.865   3.768   0.893  0.1468 -1.1894  0.4685
 1031SOL    HW1 3992   5.772   3.760   0.929 -0.6635  1.9057 -0.6180
 1031SOL    HW2 3993   5.912   3.842   0.940  1.6095 -1.8253  0.0545
 1032SOL     OW 3994   5.883   4.342   2.128  0.0011  0.3383 -0.3043
 1032SOL    HW1 3995   5.866   4.415   2.062 -0.3115  0.1334 -0.4528
 1032SOL    HW2 3996   5.921   4.380   2.212 -0.8759  0.7646 -0.0910
 1033SOL     OW 3997   6.522   4.165   3.881 -0.0646  0.1525 -0.0704
 1033SOL    HW1 3998   6.608   4.211   3.861 -1.0505  2.2544  0.2835
 1033SOL    HW2 3999   6.496   4.182   3.976 -1.0785 -0.1057 -0.2901
 1034SOL     OW 4000   5.991   6.377   4.048 -0.3949 -0.1925 -0.3262
 1034SOL    HW1 4001   5.918   6.308   4.046 -0.1244 -0.5030  0.1803
 1034SOL    HW2 4002   5.964   6.457   3.995  0.3569 -1.7521 -3.2442
 1035SOL     OW 4003   1.088   2.707   3.458 -0.5722 -1.0807 -0.4361
 1035SOL    HW1 4004   1.152   2.778   3.486 -0.1385 -0.4573 -2.7862
 1035SOL    HW2 4005   0.995   2.734   3.484 -0.2018 -0.6407  0.4764
 1036SOL     OW 4006   3.879   0.908   2.564  0.1010 -0.3528 -0.0108
 1036SOL    HW1 4007   3.805   0.901   2.496 -2.2833 -1.2106  2.4809
 1036SOL    HW2 4008   3.839   0.922   2.655  3.1288  0.2868  1.3289
 1037SOL     OW 4009   2.514   1.312   3.442  0.1217  0.2184 -0.6358
 1037SOL    HW1 4010   2.586   1.376   3.416  0.6280 -0.1180 -0.1012
 1037SOL    HW2 4011   2.502   1.314   3.541  0.8014 -1.1865 -0.5041
 1038SOL     OW 4012   3.001   5.879   6.047 -0.3135 -0.0859 -0.1187
 1038SOL    HW1 4013   2.905   5.866   6.023 -1.3953 -0.3822  3.5875
 1038SOL    HW2 4014   3.027   5.974   6.032 -2.0734  0.6717  1.1758
 1039SOL     OW 4015   5.405   6.381   2.387 -0.1036 -0.2404 -0.6558
 1039SOL    HW1 4016   5.483   6.395   2.326  1.4828  0.6655  1.4566
 1039SOL    HW2 4017   5.388   6.464   2.439 -2.1755 -0.6134 -0.6625
 1040SOL     OW 4018   6.691   1.077   4.514 -0.2450  0.0555 -0.1971
 1040SOL    HW1 4019   6.754   1.066   4.591 -0.7818  0.0253  0.2426
 1040SOL    HW2 4020   6.611   1.128   4.543 -0.5482 -0.1334 -0.6845
 1041SOL     OW 4021   5.073   4.161   4.682  0.0537 -0.0612  0.4295
 1041SOL    HW1 4022   5.040   4.162   4.587  1.6252  0.9168 -0.1445
 1041SOL    HW2 4023   5.169   4.190   4.684  1.1776 -3.3617  1.9111
 1042SOL     OW 4024   5.523   0.204   6.037  0.2261 -0.3661  0.5347
 1042SOL    HW1 4025   5.516   0.303   6.022  1.3655  0.0463  2.3642
 1042SOL    HW2 4026   5.602   0.168   5.987 -1.8566 -1.0061 -2.5987
 1043SOL     OW 4027   4.369   5.653   3.604 -0.8207  1.0023 -0.4083
 1043SOL    HW1 4028   4.296   5.680   3.542 -0.5921  2.6607 -0.0086
 1043SOL    HW2 4029   4.337   5.660   3.699 -0.2462  1.5033 -0.2386
 1044SOL     OW 4030   1.696   5.123   5.803 -0.0088 -0.4543 -0.2670
 1044SOL    HW1 4031   1.728   5.155   5.892  0.8994 -1.8233 -0.0803
 1044SOL    HW2 4032   1.596   5.131   5.799  0.0045  0.3787  0.5478
 1045SOL     OW 4033   2.840   4.870   2.392  0.2703 -0.0205  0.1637
 1045SOL    HW1 4034   2.937   4.891   2.380  0.3622 -0.7018 -0.3312
 1045SOL    HW2 4035   2.828   4.819   2.478  0.4898 -0.8074 -0.2674
 1046SOL     OW 4036   5.109   6.606   5.909 -0.1767  0.6317  0.1584
 1046SOL    HW1 4037   5.027   6.647   5.949 -0.1224  0.6047  0.2973
 1046SOL    HW2 4038   5.184   6.672   5.912  0.1858  0.1917  1.2816
 1047SOL     OW 4039   2.165   5.331   3.922 -0.0234  0.3279 -0.3974
 1047SOL    HW1 4040   2.080   5.377   3.897 -0.4828 -0.9605 -1.2592
 1047SOL    HW2 4041   2.231   5.342   3.847 -0.0948 -0.2969 -0.5557
 1048SOL     OW 4042   0.014   0.513   3.763  0.2901  0.2617 -0.1510
 1048SOL    HW1 4043  -0.015   0.424   3.797  0.4071 -0.2753 -1.4127
 1048SOL    HW2 4044  -0.002   0.518   3.664  0.2643  1.6491 -0.0924
 1049SOL     OW 4045   6.226   6.307   5.244  0.4433  0.4244  0.3803
 1049SOL    HW1 4046   6.161   6.232   5.258  0.7361  0.0357 -0.3128
 1049SOL    HW2 4047   6.200   6.385   5.301 -2.9865  1.7797 -2.6318
 1050SOL     OW 4048   0.109   3.684   6.267 -0.2906 -0.4204  0.4257
 1050SOL    HW1 4049   0.130   3.780   6.249 -1.4857 -0.3379 -0.6210
 1050SOL    HW2 4050   0.193   3.637   6.294  0.5013  0.7069  0.0256
 1051SOL     OW 4051   6.888   2.365   4.065  0.0685 -0.0493 -0.4123
 1051SOL    HW1 4052   6.793   2.351   4.093 -0.5225  1.4631 -1.5879
 1051SOL    HW2 4053   6.899   2.456   4.026  2.0830 -0.0869 -0.0477
 1052SOL     OW 4054   5.804   3.624   5.580  0.3415 -1.0539  0.2800
 1052SOL    HW1 4055   5.716   3.583   5.604 -0.0953 -0.6429 -0.6080
 1052SOL    HW2 4056   5.844   3.666   5.662 -0.2064 -1.3668  0.7158
 1053SOL     OW 4057   3.637   5.800   2.894  0.1675  0.0361  0.0979
 1053SOL    HW1 4058   3.657   5.877   2.833 -2.8046  0.9006  0.0735
 1053SOL    HW2 4059   3.555   5.820   2.947 -0.4325 -2.9236  0.4680
 1054SOL     OW 4060   4.864   6.277   3.476  0.1826 -0.4111 -0.1284
 1054SOL    HW1 4061   4.777   6.288   3.525  0.2731 -1.4808  0.2934
 1054SOL    HW2 4062   4.938   6.268   3.541  0.3624 -1.3930 -0.4486
 1055SOL     OW 4063   3.951   0.805   5.185 -0.4012  0.1780  0.0445
 1055SOL    HW1 4064   3.997   0.879   5.234  1.1007  0.0345 -1.0846
 1055SOL    HW2 4065   4.018   0.737   5.156 -1.5343 -0.7767 -0.4188
 1056SOL     OW 4066   6.350   2.733   3.137  0.0138 -0.6699 -0.5916
 1056SOL    HW1 4067   6.307   2.644   3.124  0.3309 -0.7316 -1.2567
 1056SOL    HW2 4068   6.381   2.742   3.231 -0.0315 -1.2553 -0.5173
 1057SOL     OW 4069   3.401   4.467   1.054 -0.5538 -0.1508  0.5838
 1057SOL    HW1 4070   3.371   4.396   0.991  0.7897  0.3225 -0.6630
 1057SOL    HW2 4071   3.441   4.542   1.002  0.4555  0.3424  2.0103
 1058SOL     OW 4072   0.142   1.299   4.329 -0.9459  0.3329 -0.2087
 1058SOL    HW1 4073   0.178   1.371   4.271 -0.8176  0.3246 -0.1380
 1058SOL    HW2 4074   0.161   1.210   4.287 -3.7933  0.4021 -1.9100
 1059SOL     OW 4075   4.480   3.403   0.877 -0.1145 -0.2384  0.5860
 1059SOL    HW1 4076   4.434   3.488   0.854 -0.0636 -0.0831  1.0577
 1059SOL    HW2 4077   4.440   3.364   0.959 -0.2198 -0.7364  0.3038
 1060SOL     OW 4078   5.914   3.339   5.894 -0.3152  0.1337  0.0816
 1060SOL    HW1 4079   5.905   3.420   5.953  0.1610  2.1113 -2.3771
 1060SOL    HW2 4080   5.995   3.287   5.922 -0.3084  0.7899  1.3745
 1061SOL     OW 4081   3.574   5.899   4.131  0.1594 -0.5838  0.2212
 1061SOL    HW1 4082   3.529   5.930   4.047 -0.5964 -2.5581 -0.1749
 1061SOL    HW2 4083   3.625   5.974   4.172  0.4591  0.4608 -1.9386
 1062SOL     OW 4084   2.117   2.155   6.229 -0.3967 -0.0491  0.3290
 1062SOL    HW1 4085   2.108   2.102   6.313  0.5787  0.3889  0.7319
 1062SOL    HW2 4086   2.214   2.170   6.209 -0.6355  1.1338 -0.0439
 1063SOL     OW 4087   4.346   4.889   0.813  0.0758 -0.1950 -0.5532
 1063SOL    HW1 4088   4.395   4.810   0.776  0.3002 -0.2983 -0.0380
 1063SOL    HW2 4089   4.352   4.889   0.913 -2.4165 -1.1890 -0.3156
 1064SOL     OW 4090   2.391   5.811   0.350 -0.3639 -0.0745 -0.1806
 1064SOL    HW1 4091   2.366   5.855   0.264  0.4829  0.7615 -0.0166
 1064SOL    HW2 4092   2.360   5.716   0.349  2.3012 -1.0528 -2.6833
 1065SOL     OW 4093   3.072   1.278   6.231  0.3358 -0.2894 -0.3045
 1065SOL    HW1 4094   3.047   1.326   6.147 -2.8700 -1.4861 -0.1589
 1065SOL    HW2 4095   3.149   1.218   6.213  0.4356  0.3131 -2.0876
 1066SOL     OW 4096   2.999   6.734   3.229 -0.0973 -0.2607 -0.4400
 1066SOL    HW1 4097   3.081   6.790   3.214 -1.3625  2.3725  1.5171
 1066SOL    HW2 4098   2.963   6.704   3.141  1.8252  0.2301 -1.4579
 1067SOL     OW 4099   0.495   5.952   4.132  0.4488  0.2292 -0.1214
 1067SOL    HW1 4100   0.404   5.910   4.138  0.9917 -1.5804 -2.8811
 1067SOL    HW2 4101   0.495   6.021   4.060  0.7054  2.0379  1.5237
 1068SOL     OW 4102   1.052   3.687   3.162 -0.2197  0.0606 -0.5990
 1068SOL    HW1 4103   1.037   3.618   3.233 -1.7182  2.0147  1.1459
 1068SOL    HW2 4104   0.963   3.722   3.132  0.4960  1.7485 -0.8447
 1069SOL     OW 4105   0.597   5.673   0.738 -0.8407  0.3397  0.9104
 1069SOL    HW1 4106   0.539   5.754   0.743  0.1447  1.0672  0.9930
 1069SOL    HW2 4107   0.679   5.687   0.794 -1.1288 -1.1325  1.7385
 1070SOL     OW 4108   3.077   6.248   6.868  0.2750 -0.0579  0.0666
 1070SOL    HW1 4109   3.109   6.155   6.888  1.6672  0.3904 -0.0030
 1070SOL    HW2 4110   3.150   6.299   6.824 -0.3002  1.2429  0.5852
 1071SOL     OW 4111   3.803   4.297   5.464 -0.0978 -0.6308 -0.0984
 1071SOL    HW1 4112   3.841   4.326   5.376 -0.3189 -0.0056  0.0089
 1071SOL    HW2 4113   3.705   4.281   5.454  0.0396 -1.4753 -0.1844
 1072SOL     OW 4114   1.211   6.819   3.479  0.2308 -0.2463 -0.1475
 1072SOL    HW1 4115   1.121   6.775   3.486  0.0949  0.1368  0.6088
 1072SOL    HW2 4116   1.200   6.911   3.440  0.5748 -1.0418 -2.2362
 1073SOL     OW 4117   5.729   4.637   2.983  0.3979 -0.4284 -0.3882
 1073SOL    HW1 4118   5.639   4.675   2.961  0.4907  0.1027  0.1407
 1073SOL    HW2 4119   5.736   4.544   2.946 -0.6899 -0.8049  0.3370
 1074SOL     OW 4120   5.682   0.407   1.196 -0.0680 -0.0643 -0.3044
 1074SOL    HW1 4121   5.677   0.319   1.148  1.5686  0.3419 -1.3219
 1074SOL    HW2 4122   5.657   0.480   1.133 -0.7328  0.2584  0.3279
 1075SOL     OW 4123   3.234   3.877   1.056 -0.5714 -0.0334  0.3651
 1075SOL    HW1 4124   3.217   3.782   1.083 -2.7545 -0.0050 -0.7459
 1075SOL    HW2 4125   3.206   3.938   1.130 -1.2420 -0.1615  0.2148
 1076SOL     OW 4126   3.169   5.599   5.108 -0.0606 -0.3459 -0.0288
 1076SOL    HW1 4127   3.209   5.644   5.188 -0.2339 -1.3973  0.6555
 1076SOL    HW2 4128   3.220   5.627   5.026  1.5418 -0.9775  0.7138
 1077SOL     OW 4129   1.412   0.592   6.419 -0.6157 -0.3830  0.0303
 1077SOL    HW1 4130   1.388   0.559   6.328  0.5014 -1.3336  0.0573
 1077SOL    HW2 4131   1.418   0.515   6.482  1.2365 -0.0633  0.2982
 1078SOL     OW 4132   5.184   3.125   0.851 -0.1967  0.2002  0.3143
 1078SOL    HW1 4133   5.271   3.092   0.812  0.1563 -0.7952  1.8450
 1078SOL    HW2 4134   5.120   3.143   0.777  1.3903  1.2444 -0.8909
 1079SOL     OW 4135   6.035   5.160   2.247  0.4771 -0.0163  0.0353
 1079SOL    HW1 4136   5.974   5.095   2.293 -0.9884  0.3735 -1.2634
 1079SOL    HW2 4137   5.997   5.252   2.256  2.2412  0.6414  1.3824
 1080SOL     OW 4138   4.606   4.402   3.474 -0.0234 -0.2452 -0.2798
 1080SOL    HW1 4139   4.539   4.441   3.537  0.3284  0.6732 -0.4707
 1080SOL    HW2 4140   4.691   4.454   3.478  0.8821 -1.6853  0.3279
 1081SOL     OW 4141   3.351   1.450   3.645 -0.0070 -0.5464  0.4597
 1081SOL    HW1 4142   3.378   1.516   3.715  0.1603  0.1943 -0.2968
 1081SOL    HW2 4143   3.251   1.444   3.642 -0.0943  0.9093 -0.5772
 1082SOL     OW 4144   0.284   0.159   1.928  0.2825 -0.3408 -0.4058
 1082SOL    HW1 4145   0.275   0.065   1.898  0.9778 -0.4535 -0.2741
 1082SOL    HW2 4146   0.375   0.194   1.904  0.4293 -0.0599  0.5143
 1083SOL     OW 4147   3.281   5.871   6.470 -0.6672 -1.0639  0.0528
 1083SOL    HW1 4148   3.305   5.937   6.400  0.2073 -0.1191  1.2074
 1083SOL    HW2 4149   3.238   5.918   6.547 -0.1295 -1.8446  0.8446
 1084SOL     OW 4150   3.653   1.794   2.811 -0.2808  0.1603 -0.6685
 1084SOL    HW1 4151   3.709   1.743   2.876  0.7869 -0.1558 -1.7993
 1084SOL    HW2 4152   3.671   1.892   2.822  1.1871  0.0227 -1.5966
 1085SOL     OW 4153   6.769   2.558   4.322 -0.2924 -0.5369  0.0432
 1085SOL    HW1 4154   6.728   2.624   4.260  2.9354  0.6909 -0.9756
 1085SOL    HW2 4155   6.755   2.465   4.288 -1.3090 -0.0965 -0.7563
 1086SOL     OW 4156   4.734   0.718   3.908  0.0568 -0.5165 -0.3259
 1086SOL    HW1 4157   4.749   0.624   3.877  1.7452 -0.2390 -0.4432
 1086SOL    HW2 4158   4.822   0.765   3.918 -0.7701  1.6080 -1.9880
 1087SOL     OW 4159   5.462   6.321   3.866  0.5066 -0.9565 -0.2726
 1087SOL    HW1 4160   5.491   6.400   3.921  0.3612 -1.4081  0.4655
 1087SOL    HW2 4161   5.521   6.313   3.787  0.5185 -0.0957 -0.3650
 1088SOL     OW 4162   3.493   1.878   6.082  0.2244  0.3245 -0.1967
 1088SOL    HW1 4163   3.515   1.892   5.985 -0.9324  0.6179 -0.4349
 1088SOL    HW2 4164   3.469   1.782   6.096  0.5915  0.2382 -0.1603
 1089SOL     OW 4165   4.931   0.733   2.768 -0.2352 -0.8028  0.3674
 1089SOL    HW1 4166   4.877   0.710   2.849 -1.3787 -0.1824 -0.1940
 1089SOL    HW2 4167   4.907   0.824   2.736  0.2153 -1.0259 -0.6686
 1090SOL     OW 4168   0.417   4.951   6.877  0.0396  0.0995  0.3426
 1090SOL    HW1 4169   0.497   4.898   6.902 -1.2179 -1.8257  0.4666
 1090SOL    HW2 4170   0.415   4.965   6.778  1.6353  2.1272  0.5197
 1091SOL     OW 4171   5.460   2.804   0.500 -0.2150  0.1062  0.2211
 1091SOL    HW1 4172   5.534   2.789   0.566  0.0956 -2.8178 -0.6576
 1091SOL    HW2 4173   5.492   2.867   0.429  1.5797 -1.2789 -0.2660
 1092SOL     OW 4174   5.406   4.870   3.138 -0.3277 -0.7083  0.3311
 1092SOL    HW1 4175   5.352   4.806   3.192 -1.6353 -1.1419 -1.3839
 1092SOL    HW2 4176   5.359   4.958   3.134 -0.2554 -0.6876 -0.1038
 1093SOL     OW 4177   1.717   0.437   6.918  0.1935 -0.2627 -0.5183
 1093SOL    HW1 4178   1.644   0.398   6.975 -0.4721 -0.2194 -1.3353
 1093SOL    HW2 4179   1.795   0.460   6.977  0.0399 -1.4417  0.2000
 1094SOL     OW 4180   1.822   3.672   3.783  0.0231 -0.2293 -0.6827
 1094SOL    HW1 4181   1.826   3.752   3.723  0.7556 -0.4381 -0.9211
 1094SOL    HW2 4182   1.784   3.698   3.872 -0.4202  0.2276 -1.0022
 1095SOL     OW 4183   3.946   0.652   0.808  0.1709  0.1392  0.0100
 1095SOL    HW1 4184   4.003   0.689   0.882 -0.5126 -0.3454  0.8073
 1095SOL    HW2 4185   3.905   0.728   0.757  1.1523  0.4831 -0.2766
 1096SOL     OW 4186   1.619   5.495   0.790 -0.1493  0.3941 -0.1115
 1096SOL    HW1 4187   1.705   5.546   0.785 -0.4168  0.7170 -2.7092
 1096SOL    HW2 4188   1.633   5.411   0.843  2.0079  0.0736 -1.0715
 1097SOL     OW 4189   2.803   1.785   0.704 -0.4303 -0.0082  0.0999
 1097SOL    HW1 4190   2.745   1.721   0.652  0.0795 -1.3990  1.1725
 1097SOL    HW2 4191   2.899   1.770   0.679 -0.3714  1.0336 -0.3404
 1098SOL     OW 4192   3.871   3.446   5.782 -0.4897 -0.4415  0.7384
 1098SOL    HW1 4193   3.837   3.366   5.733 -0.6100  0.0871 -0.0517
 1098SOL    HW2 4194   3.824   3.452   5.871  0.8377 -2.2706  1.6391
 1099SOL     OW 4195   6.516   2.379   1.192  0.0208 -0.3351  0.0959
 1099SOL    HW1 4196   6.465   2.348   1.272  0.1074 -0.1921  0.2070
 1099SOL    HW2 4197   6.457   2.437   1.136 -0.5989 -1.8286 -0.8507
 1100SOL     OW 4198   4.628   6.770   6.099 -0.0657 -0.0709  0.2637
 1100SOL    HW1 4199   4.665   6.800   6.187  0.3653  0.4084 -0.0745
 1100SOL    HW2 4200   4.560   6.836   6.067  1.2097  0.8150 -0.6960
 1101SOL     OW 4201   1.267   0.688   5.482 -0.0072 -0.5650 -0.4001
 1101SOL    HW1 4202   1.330   0.754   5.441 -0.7889 -0.1704 -0.9896
 1101SOL    HW2 4203   1.319   0.611   5.519  1.0293  0.8844  1.3142
 1102SOL     OW 4204   1.880   5.450   4.447  0.0798  0.1396  0.0369
 1102SOL    HW1 4205   1.833   5.456   4.358  0.7629  3.1739 -0.2506
 1102SOL    HW2 4206   1.975   5.479   4.436 -0.3856  2.8046  2.0276
 1103SOL     OW 4207   3.605   6.546   2.466 -0.7211 -0.4108  0.3504
 1103SOL    HW1 4208   3.601   6.454   2.429  0.4985 -0.3031 -0.0811
 1103SOL    HW2 4209   3.690   6.590   2.438 -0.9717  0.6055  1.1144
 1104SOL     OW 4210   1.461   5.554   4.356  0.2786 -0.8015  0.3142
 1104SOL    HW1 4211   1.425   5.644   4.382 -0.3316 -1.1875  0.8536
 1104SOL    HW2 4212   1.391   5.504   4.305 -0.0850 -1.6483  1.5741
 1105SOL     OW 4213   2.592   4.627   0.535  0.4225 -0.2707 -0.2026
 1105SOL    HW1 4214   2.636   4.606   0.448 -2.0971 -0.1071 -1.6267
 1105SOL    HW2 4215   2.595   4.546   0.594  1.3489 -0.7004 -0.8161
 1106SOL     OW 4216   3.956   6.902   2.115 -0.1581 -0.0992  0.3702
 1106SOL    HW1 4217   3.864   6.888   2.152 -0.4799  1.9356  0.4988
 1106SOL    HW2 4218   4.022   6.853   2.171 -1.0446 -0.4829  1.1106
 1107SOL     OW 4219   0.872   7.005   1.711  0.0654 -0.1645 -0.2177
 1107SOL    HW1 4220   0.801   6.975   1.774  2.0499 -0.0282  2.2157
 1107SOL    HW2 4221   0.899   7.099   1.733  1.4457 -0.4321 -0.6568
 1108SOL     OW 4222   0.308   3.511   4.402  0.0420 -0.3772  0.1058
 1108SOL    HW1 4223   0.318   3.610   4.414  3.0286 -0.7822  2.0890
 1108SOL    HW2 4224   0.322   3.488   4.306  0.1706  1.0449 -0.2440
 1109SOL     OW 4225   0.077   5.243   5.630  0.1362 -0.1174 -0.5543
 1109SOL    HW1 4226   0.017   5.306   5.578 -0.0131  1.0958  1.0195
 1109SOL    HW2 4227   0.140   5.199   5.567  0.9013  2.3524 -1.6576
 1110SOL     OW 4228   0.104   1.072   6.403  0.0507  0.8592  0.4422
 1110SOL    HW1 4229   0.086   1.169   6.388  1.3471  1.0669  0.0656
 1110SOL    HW2 4230   0.165   1.038   6.331 -1.3474 -0.5442 -0.1272
 1111SOL     OW 4231   5.942   5.674   4.628  0.6456 -0.1753 -0.3667
 1111SOL    HW1 4232   5.912   5.692   4.534 -0.0736  0.6343  0.0025
 1111SOL    HW2 4233   5.947   5.760   4.678 -0.6584 -0.7528  0.8240
 1112SOL     OW 4234   2.031   6.154   2.678 -0.4154  0.9730 -0.3928
 1112SOL    HW1 4235   1.950   6.119   2.724 -0.0720  1.6058  0.7385
 1112SOL    HW2 4236   2.007   6.235   2.625 -0.9279 -0.1028 -1.8392
 1113SOL     OW 4237   1.945   5.778   0.433  0.2487  0.0613 -0.4520
 1113SOL    HW1 4238   1.847   5.797   0.431  0.1043 -0.6682 -1.1116
 1113SOL    HW2 4239   1.959   5.679   0.437  0.9593  0.1864  0.3993
 1114SOL     OW 4240   3.476   6.777   6.118  0.2336  0.4959 -0.2888
 1114SOL    HW1 4241   3.446   6.868   6.093 -0.5909  0.4840  0.6019
 1114SOL    HW2 4242   3.575   6.770   6.106  0.2229  1.3097 -0.9196
 1115SOL     OW 4243   6.301   4.750   2.509 -0.2675  0.5799 -0.2389
 1115SOL    HW1 4244   6.246   4.779   2.430 -0.8297  1.1357  0.3439
 1115SOL    HW2 4245   6.358   4.827   2.539  0.6455  0.0870 -0.6699
 1116SOL     OW 4246   7.016   1.480   2.414  0.3439  0.2396  0.2641
 1116SOL    HW1 4247   6.981   1.493   2.321  0.0737  1.4138  0.5119
 1116SOL    HW2 4248   6.949   1.515   2.479  1.3724  1.2631  0.8124
 1117SOL     OW 4249   4.824   2.028   4.885 -0.1005  0.1271 -0.1095
 1117SOL    HW1 4250   4.822   1.967   4.965 -2.9463  0.6200  0.3026
 1117SOL    HW2 4251   4.786   1.980   4.806  0.4595  0.4279 -0.5697
 1118SOL     OW 4252   3.151   2.588   6.961 -0.0027  0.5813  0.1683
 1118SOL    HW1 4253   3.156   2.678   7.004  0.1415  1.2411 -1.1513
 1118SOL    HW2 4254   3.241   2.545   6.964 -0.3659 -0.1145  1.9675
 1119SOL     OW 4255   4.448   2.869   1.050 -0.3252  0.1841  0.0086
 1119SOL    HW1 4256   4.391   2.916   0.982  0.2291  1.6101  0.5006
 1119SOL    HW2 4257   4.542   2.864   1.016 -0.5799 -1.6405 -0.5414
 1120SOL     OW 4258   0.083   0.434   0.074 -0.4547  0.2793  0.1683
 1120SOL    HW1 4259   0.069   0.510   0.138 -1.3413  0.3504 -0.0971
 1120SOL    HW2 4260  -0.001   0.419   0.021 -0.5436 -1.3762  0.7241
 1121SOL     OW 4261   6.297   2.536   2.195 -0.0813  0.0723  0.0799
 1121SOL    HW1 4262   6.208   2.497   2.174  0.7089 -1.9586  0.2432
 1121SOL    HW2 4263   6.311   2.537   2.294 -0.7463  2.4361  0.2044
 1122SOL     OW 4264   4.870   2.384   5.551  0.1224 -0.0039 -0.1523
 1122SOL    HW1 4265   4.862   2.426   5.642 -0.8463  0.4168 -0.4228
 1122SOL    HW2 4266   4.853   2.285   5.559 -0.5960  0.1264  0.0412
 1123SOL     OW 4267   4.768   0.638   1.329 -0.0759 -0.2839  0.1125
 1123SOL    HW1 4268   4.813   0.593   1.252  0.1816 -2.2094  1.3194
 1123SOL    HW2 4269   4.679   0.595   1.345 -0.0043 -0.0979  1.0505
 1124SOL     OW 4270   4.983   3.277   6.545  0.2148  0.2082  0.3776
 1124SOL    HW1 4271   4.964   3.227   6.629 -1.1360  0.1876  0.0740
 1124SOL    HW2 4272   5.081   3.300   6.542  0.7260 -1.6797  0.9047
 1125SOL     OW 4273   4.412   6.754   5.514  0.4499 -0.0898  0.1483
 1125SOL    HW1 4274   4.431   6.706   5.600  1.9491 -0.1002 -0.1626
 1125SOL    HW2 4275   4.462   6.841   5.512 -0.2242  0.2942 -0.3722
 1126SOL     OW 4276   5.815   4.393   2.890  0.1633 -0.2738  0.2054
 1126SOL    HW1 4277   5.850   4.404   2.797 -0.6793 -1.1176 -0.2172
 1126SOL    HW2 4278   5.886   4.351   2.947 -0.1076 -1.9802 -0.6510
 1127SOL     OW 4279   3.174   0.903   2.375  0.4604 -0.4850  0.1827
 1127SOL    HW1 4280   3.136   0.834   2.436 -1.2537  1.6953  1.7238
 1127SOL    HW2 4281   3.244   0.956   2.423  1.4344 -0.7985 -0.8317
 1128SOL     OW 4282   0.633   0.658   3.605 -0.0600  0.4052 -0.0291
 1128SOL    HW1 4283   0.603   0.615   3.521 -1.2293  0.5704  0.2819
 1128SOL    HW2 4284   0.696   0.597   3.654  1.6371  0.8217 -1.5941
 1129SOL     OW 4285   1.938   2.858   3.700 -0.4568  0.0700  0.2158
 1129SOL    HW1 4286   1.909   2.767   3.731  0.0309  0.5051  2.0670
 1129SOL    HW2 4287   1.887   2.928   3.750  1.3065  0.8175  1.0453
 1130SOL     OW 4288   6.639   2.316   4.652 -0.3460 -0.1127 -0.1490
 1130SOL    HW1 4289   6.679   2.381   4.716 -2.3577  0.1221  0.9455
 1130SOL    HW2 4290   6.611   2.364   4.568 -0.3458  0.1352 -0.0083
 1131SOL     OW 4291   1.779   3.398   2.661 -0.2831 -0.1574  0.0262
 1131SOL    HW1 4292   1.768   3.495   2.681  0.6456 -0.3836  1.9155
 1131SOL    HW2 4293   1.859   3.385   2.602 -0.2513  0.2107 -0.0150
 1132SOL     OW 4294   5.050   6.810   6.958  0.7194  0.2920  0.3084
 1132SOL    HW1 4295   5.005   6.810   7.047  1.2326 -1.7193  0.6026
 1132SOL    HW2 4296   4.988   6.770   6.889  1.6618 -1.6514  0.5389
 1133SOL     OW 4297   5.488   0.637   5.526  0.6189  0.5010 -0.4656
 1133SOL    HW1 4298   5.475   0.539   5.542 -1.9130  0.6896 -0.8819
 1133SOL    HW2 4299   5.537   0.651   5.440 -0.1244 -0.4207 -1.0607
 1134SOL     OW 4300   3.837   6.127   3.462  0.2118 -0.4243 -0.2425
 1134SOL    HW1 4301   3.805   6.134   3.368 -0.7507 -2.9864 -0.1720
 1134SOL    HW2 4302   3.803   6.042   3.503 -1.1734  1.5114  3.1024
 1135SOL     OW 4303   4.838   3.663   0.389  0.0347  0.1457 -0.1311
 1135SOL    HW1 4304   4.852   3.746   0.335  0.7986  0.5999  0.7514
 1135SOL    HW2 4305   4.847   3.684   0.486  1.0710 -1.1249  0.0731
 1136SOL     OW 4306   3.876   1.084   4.320 -0.0280 -0.4078 -0.6375
 1136SOL    HW1 4307   3.808   1.158   4.317  0.5220  0.4056  3.0156
 1136SOL    HW2 4308   3.934   1.090   4.239 -0.7688  2.4248 -1.0790
 1137SOL     OW 4309   2.714   5.315   5.542 -0.4092 -0.0627 -0.1818
 1137SOL    HW1 4310   2.646   5.379   5.577  0.1464 -0.4528  1.6887
 1137SOL    HW2 4311   2.669   5.231   5.511 -1.0903  0.9928 -2.2155
 1138SOL     OW 4312   1.474   2.109   0.655  0.1554  0.4957  0.5032
 1138SOL    HW1 4313   1.400   2.060   0.701  0.1594 -2.1359 -1.9841
 1138SOL    HW2 4314   1.437   2.160   0.577  0.8653 -0.5541 -0.5525
 1139SOL     OW 4315   1.072   1.593   4.309 -0.1229  0.0170  0.2970
 1139SOL    HW1 4316   0.981   1.633   4.322 -0.1147  0.5329 -1.0666
 1139SOL    HW2 4317   1.114   1.576   4.398 -0.8437  1.4232  0.9345
 1140SOL     OW 4318   1.688   3.975   4.277 -0.1817  0.2079 -0.0845
 1140SOL    HW1 4319   1.723   4.068   4.282  1.4240 -0.3980  0.8131
 1140SOL    HW2 4320   1.632   3.956   4.357  1.9305 -0.4726  1.3216
 1141SOL     OW 4321   2.142   4.256   6.486 -0.3178 -0.2196  0.4782
 1141SOL    HW1 4322   2.075   4.229   6.555 -1.7943  0.1791 -0.7528
 1141SOL    HW2 4323   2.185   4.342   6.514 -1.4728  0.3552  0.5550
 1142SOL     OW 4324   6.249   6.047   6.239 -0.2189  0.1162  0.0092
 1142SOL    HW1 4325   6.340   6.065   6.201 -0.0531  2.6951  1.4225
 1142SOL    HW2 4326   6.188   6.124   6.219 -1.2037 -0.1757  1.6805
 1143SOL     OW 4327   4.973   6.774   4.178 -0.5023  0.6349  0.3746
 1143SOL    HW1 4328   4.891   6.717   4.173  0.6309 -1.0094 -2.5089
 1143SOL    HW2 4329   5.031   6.743   4.253 -0.5083 -1.2821 -0.3556
 1144SOL     OW 4330   1.742   3.565   0.223 -0.4010 -0.2776 -0.5362
 1144SOL    HW1 4331   1.718   3.659   0.198 -0.9616 -0.4535 -0.6536
 1144SOL    HW2 4332   1.660   3.508   0.223 -0.8336  0.0759  3.4866
 1145SOL     OW 4333   0.249   0.675   2.145 -0.0725  0.5822 -0.2099
 1145SOL    HW1 4334   0.335   0.705   2.187 -0.2238  2.5498 -1.1604
 1145SOL    HW2 4335   0.173   0.692   2.208  0.0691  0.1512  0.0844
 1146SOL     OW 4336   5.459   6.900   0.074 -0.6431  0.4743 -0.1567
 1146SOL    HW1 4337   5.536   6.929   0.016 -0.0824  0.1199  0.3952
 1146SOL    HW2 4338   5.417   6.981   0.116  0.0558  0.6054  0.3097
 1147SOL     OW 4339   1.412   5.785   3.938  0.0783  0.3089 -0.1200
 1147SOL    HW1 4340   1.372   5.708   3.888 -0.8766  0.3295  0.5786
 1147SOL    HW2 4341   1.500   5.757   3.976  0.4342  0.0383 -1.1117
 1148SOL     OW 4342   6.141   2.308   5.234  0.2162 -0.3158  0.0322
 1148SOL    HW1 4343   6.097   2.367   5.302  0.0424  1.2144 -1.3633
 1148SOL    HW2 4344   6.197   2.364   5.172  1.3594 -1.8198 -0.3550
 1149SOL     OW 4345   0.333   1.241   3.475 -0.0414  0.1054 -0.4058
 1149SOL    HW1 4346   0.279   1.171   3.428  1.0341 -0.9092 -0.1761
 1149SOL    HW2 4347   0.428   1.210   3.484  0.2926  1.2768  0.3764
 1150SOL     OW 4348   5.784   1.137   5.537  0.0688 -0.3399 -0.3202
 1150SOL    HW1 4349   5.749   1.112   5.627  1.8742 -0.0761  0.5190
 1150SOL    HW2 4350   5.765   1.065   5.471 -1.1340 -0.6098  0.3112
 1151SOL     OW 4351   2.770   2.211   5.899 -0.0106 -0.6192  0.1890
 1151SOL    HW1 4352   2.714   2.275   5.952 -0.4811 -0.8800  0.0132
 1151SOL    HW2 4353   2.713   2.135   5.868  0.4320 -0.8594 -0.0411
 1152SOL     OW 4354   1.092   5.438   2.232  0.5239  0.0224 -0.4437
 1152SOL    HW1 4355   1.106   5.530   2.193 -1.4603  0.6285  0.1371
 1152SOL    HW2 4356   1.009   5.439   2.288  0.6889 -2.0521 -0.1183
 1153SOL     OW 4357   4.882   6.791   2.441  0.4910  0.0595  0.4711
 1153SOL    HW1 4358   4.845   6.824   2.528  0.1352 -0.2189  0.4265
 1153SOL    HW2 4359   4.946   6.858   2.404 -2.2344  2.0351 -0.9857
 1154SOL     OW 4360   4.970   2.364   6.834  0.0750  0.1487 -0.6197
 1154SOL    HW1 4361   5.003   2.288   6.777 -1.1548  0.8406 -2.3136
 1154SOL    HW2 4362   4.989   2.343   6.930  0.7437 -1.8053 -1.1238
 1155SOL     OW 4363   3.297   0.150   1.755 -0.7718 -0.6015  0.0987
 1155SOL    HW1 4364   3.228   0.191   1.695 -0.8300 -0.5441  0.2043
 1155SOL    HW2 4365   3.253   0.092   1.823 -0.7071 -0.6556  0.0949
 1156SOL     OW 4366   3.305   3.950   6.886  0.2143 -0.5514  0.3460
 1156SOL    HW1 4367   3.211   3.968   6.859  0.6901 -1.7364 -2.4310
 1156SOL    HW2 4368   3.350   4.037   6.909 -1.1785  0.1700  0.4102
 1157SOL     OW 4369   4.007   6.997   5.358  0.1749 -0.6738  0.2107
 1157SOL    HW1 4370   3.921   7.041   5.332  0.1636 -0.3535  0.7652
 1157SOL    HW2 4371   3.987   6.908   5.399 -0.2846  0.9966  4.0656
 1158SOL     OW 4372   5.033   6.521   5.652 -0.2336  0.3746  0.0624
 1158SOL    HW1 4373   5.074   6.522   5.743  0.8771 -0.6965 -0.3928
 1158SOL    HW2 4374   5.035   6.614   5.613 -0.7481  0.8400  1.1189
 1159SOL     OW 4375   0.972   1.930   3.348  0.5839 -0.1868  0.4013
 1159SOL    HW1 4376   1.013   1.849   3.307  1.3342  1.6020 -2.7283
 1159SOL    HW2 4377   0.873   1.922   3.348  0.6169 -0.7817 -0.7168
 1160SOL     OW 4378   2.110   0.362   5.129  0.0873 -0.3759 -0.1460
 1160SOL    HW1 4379   2.154   0.400   5.048  0.2223 -1.3969 -0.5647
 1160SOL    HW2 4380   2.145   0.407   5.211  1.7534 -0.9946 -0.4841
 1161SOL     OW 4381   1.898   6.703   3.018  0.4392 -0.2086  0.4878
 1161SOL    HW1 4382   1.808   6.669   3.047  0.9142 -2.8663 -0.8755
 1161SOL    HW2 4383   1.906   6.799   3.044 -3.3692  0.5868 -0.5875
 1162SOL     OW 4384   5.199   0.287   6.122  0.3494 -0.7092  0.0391
 1162SOL    HW1 4385   5.203   0.257   6.217 -1.3374 -0.5293  0.1905
 1162SOL    HW2 4386   5.147   0.372   6.116  3.4473  1.3107 -0.6266
 1163SOL     OW 4387   3.074   0.662   4.313  0.0139 -0.4231 -0.4018
 1163SOL    HW1 4388   3.099   0.716   4.232 -0.1031 -2.0400 -1.5570
 1163SOL    HW2 4389   3.094   0.715   4.395 -0.0102  1.3389 -1.4663
 1164SOL     OW 4390   6.300   1.995   0.138 -0.2930 -0.2571  0.0678
 1164SOL    HW1 4391   6.261   1.946   0.060 -2.5848  1.8713 -0.2326
 1164SOL    HW2 4392   6.268   1.952   0.223  1.1014 -1.7500 -0.1323
 1165SOL     OW 4393   2.155   0.552   2.631  0.0594  1.0785  0.0694
 1165SOL    HW1 4394   2.161   0.632   2.690  2.2406  0.7004  0.4772
 1165SOL    HW2 4395   2.205   0.569   2.546  1.1599 -0.0394  0.4524
 1166SOL     OW 4396   0.933   1.824   5.254  0.4973 -0.8546 -0.2435
 1166SOL    HW1 4397   0.854   1.878   5.283 -0.9513 -3.2468  0.5251
 1166SOL    HW2 4398   0.920   1.792   5.160  0.7938 -0.8261 -0.2950
 1167SOL     OW 4399   5.879   2.588   5.341  0.3295  0.0356  0.0937
 1167SOL    HW1 4400   5.873   2.508   5.401 -1.0018 -0.6975 -0.9399
 1167SOL    HW2 4401   5.962   2.582   5.286 -0.4495 -1.4499 -0.9981
 1168SOL     OW 4402   3.697   5.958   0.956  0.0993 -0.4185 -0.1957
 1168SOL    HW1 4403   3.614   5.929   0.908  0.8878 -0.2718 -1.7425
 1168SOL    HW2 4404   3.685   6.050   0.991 -0.6084 -0.6381  0.1619
 1169SOL     OW 4405   2.375   6.359   5.017  0.5054  0.8229  0.6595
 1169SOL    HW1 4406   2.383   6.379   5.115  1.5769 -0.5359  0.8757
 1169SOL    HW2 4407   2.466   6.359   4.975  0.2172 -0.1713  0.0043
 1170SOL     OW 4408   6.442   1.088   3.157  0.3941 -0.3890 -0.6992
 1170SOL    HW1 4409   6.439   1.003   3.209 -0.3596  0.3029  0.4461
 1170SOL    HW2 4410   6.530   1.097   3.111  0.9229 -1.2211  0.1268
 1171SOL     OW 4411   2.573   2.242   3.483 -0.1741 -0.9155  0.3170
 1171SOL    HW1 4412   2.671   2.247   3.501  0.4798  4.0060 -2.6515
 1171SOL    HW2 4413   2.526   2.318   3.529 -2.4901 -2.5364  0.8210
 1172SOL     OW 4414   0.513   0.937   2.014 -0.0445 -0.1225  0.0394
 1172SOL    HW1 4415   0.453   1.015   1.997 -0.4628 -0.3571  0.4185
 1172SOL    HW2 4416   0.502   0.870   1.940  0.1580  0.0783 -0.1751
 1173SOL     OW 4417   0.183   4.903   7.005  0.2801 -0.2734 -0.2430
 1173SOL    HW1 4418   0.259   4.914   6.941 -0.3756 -0.0665 -1.0040
 1173SOL    HW2 4419   0.219   4.901   7.098  1.2221 -0.2309 -0.5851
 1174SOL     OW 4420   6.770   4.228   5.635 -0.5014 -0.1563  0.3523
 1174SOL    HW1 4421   6.870   4.232   5.641 -0.3857  0.5375 -1.3096
 1174SOL    HW2 4422   6.730   4.228   5.726  1.0259 -0.8119  1.0413
 1175SOL     OW 4423   3.022   1.273   2.829 -0.8379 -0.0943  0.5567
 1175SOL    HW1 4424   3.047   1.176   2.824 -0.6487 -0.1760  2.4498
 1175SOL    HW2 4425   2.923   1.283   2.812 -0.6605 -0.4529 -0.8187
 1176SOL     OW 4426   3.407   1.866   3.149 -0.3898  0.2080 -0.1149
 1176SOL    HW1 4427   3.329   1.929   3.149  0.2344  0.9959  0.1637
 1176SOL    HW2 4428   3.387   1.788   3.090 -2.2544 -0.6755  1.5274
 1177SOL     OW 4429   5.240   3.640   4.882  0.1827  0.0942 -0.0371
 1177SOL    HW1 4430   5.288   3.728   4.885 -0.9181  0.7048  1.1872
 1177SOL    HW2 4431   5.147   3.654   4.848  0.2453 -0.7459 -0.5852
 1178SOL     OW 4432   5.401   5.948   5.802 -0.0143  0.5598  0.5265
 1178SOL    HW1 4433   5.329   5.893   5.845 -1.6897  2.7394  0.6515
 1178SOL    HW2 4434   5.469   5.975   5.871 -0.8943  1.2614  1.1374
 1179SOL     OW 4435   0.525   3.428   3.239  0.1337  1.0444 -0.2599
 1179SOL    HW1 4436   0.507   3.408   3.143  0.7168 -1.4192  0.0692
 1179SOL    HW2 4437   0.607   3.379   3.269 -1.8491 -1.0908  2.2942
 1180SOL     OW 4438   3.251   6.730   4.375  0.3736  0.0296  0.2106
 1180SOL    HW1 4439   3.288   6.663   4.440 -0.8720  0.0498  0.9802
 1180SOL    HW2 4440   3.184   6.787   4.422 -1.2211 -0.5357 -1.3065
 1181SOL     OW 4441   3.101   2.199   0.469 -0.5308  1.0917  0.2730
 1181SOL    HW1 4442   3.005   2.172   0.468  0.3227 -2.5171 -0.1831
 1181SOL    HW2 4443   3.126   2.236   0.380 -1.1027  0.3718 -0.1961
 1182SOL     OW 4444   6.925   1.060   4.365  0.2085  0.2483  0.2794
 1182SOL    HW1 4445   7.007   1.081   4.417  0.9876 -1.2820 -0.2649
 1182SOL    HW2 4446   6.846   1.061   4.426  0.9560 -0.5236  1.3112
 1183SOL     OW 4447   0.784   1.656   7.010  0.5500 -0.6262 -0.6469
 1183SOL    HW1 4448   0.694   1.633   7.048  1.1093 -4.1309 -1.1084
 1183SOL    HW2 4449   0.800   1.601   6.928  4.4737 -2.9558  1.3800
 1184SOL     OW 4450   5.972   5.569   0.641  0.2920  0.2409  0.5008
 1184SOL    HW1 4451   5.961   5.470   0.648  0.2740  0.2770  0.9689
 1184SOL    HW2 4452   6.049   5.590   0.580 -0.1364 -0.0485 -0.1587
 1185SOL     OW 4453   1.996   0.172   6.896  0.0364 -0.4637  0.4699
 1185SOL    HW1 4454   1.980   0.211   6.987 -1.0459  1.5293 -0.5106
 1185SOL    HW2 4455   2.058   0.094   6.904  0.9746  0.4088  2.7694
 1186SOL     OW 4456   3.043   4.582   5.388 -0.1144 -0.0141  0.2909
 1186SOL    HW1 4457   2.983   4.602   5.465 -0.0780  0.9943  0.0699
 1186SOL    HW2 4458   2.990   4.542   5.313 -0.8888  2.4689 -0.5655
 1187SOL     OW 4459   5.776   0.292   4.085 -0.5137  0.3841  0.0384
 1187SOL    HW1 4460   5.692   0.318   4.132  0.1687 -0.1528  1.6126
 1187SOL    HW2 4461   5.820   0.216   4.132  0.5345  0.2125 -1.1322
 1188SOL     OW 4462   6.082   4.528   5.943 -0.6671  0.0676 -0.3110
 1188SOL    HW1 4463   6.060   4.616   5.901 -0.0339  0.4177  0.0737
 1188SOL    HW2 4464   6.086   4.538   6.043 -0.2516 -0.3189 -0.2836
 1189SOL     OW 4465   6.163   1.593   2.282  0.2036 -0.4871 -0.0859
 1189SOL    HW1 4466   6.129   1.504   2.311 -1.5991 -0.1358 -0.9611
 1189SOL    HW2 4467   6.152   1.602   2.183 -1.7830  1.5309  0.2546
 1190SOL     OW 4468   5.511   3.425   6.932  0.0160 -0.5656 -0.7658
 1190SOL    HW1 4469   5.578   3.382   6.991  0.2010  0.1396 -0.4634
 1190SOL    HW2 4470   5.471   3.504   6.978 -1.3959 -1.2681 -0.7324
 1191SOL     OW 4471   6.362   0.156   5.204  0.1158  0.2789 -0.3739
 1191SOL    HW1 4472   6.426   0.215   5.156  0.7798  0.0836  0.2489
 1191SOL    HW2 4473   6.292   0.122   5.140  1.7896 -1.1209 -1.5530
 1192SOL     OW 4474   1.797   1.543   3.904  0.1915 -0.0595  0.6337
 1192SOL    HW1 4475   1.867   1.575   3.967 -1.0885  1.5414  1.3131
 1192SOL    HW2 4476   1.814   1.579   3.813 -0.7726  1.9920  1.2151
 1193SOL     OW 4477   0.341   0.672   3.444 -0.3433  0.2155 -0.0895
 1193SOL    HW1 4478   0.397   0.708   3.370 -0.4382  0.3039 -0.1179
 1193SOL    HW2 4479   0.274   0.608   3.407 -0.1431 -0.0275 -0.0334
 1194SOL     OW 4480   5.759   5.391   1.987 -0.2574  0.1867  0.3126
 1194SOL    HW1 4481   5.810   5.336   1.921  1.7514  1.0101  1.0919
 1194SOL    HW2 4482   5.802   5.481   1.995 -0.1581 -0.0062  3.0096
 1195SOL     OW 4483   1.923   5.755   3.254 -0.1618 -0.1366 -0.0229
 1195SOL    HW1 4484   1.988   5.737   3.328  1.6079 -1.9437 -1.8741
 1195SOL    HW2 4485   1.944   5.696   3.176 -1.2490  2.3798 -2.4110
 1196SOL     OW 4486   6.918   2.927   6.141  1.3025  0.0147 -0.1210
 1196SOL    HW1 4487   6.912   3.024   6.117  2.7415  0.3626  0.8409
 1196SOL    HW2 4488   7.011   2.895   6.127  0.8295 -1.2741 -0.4909
 1197SOL     OW 4489   1.199   4.818   2.396  0.0709  0.1782  0.1008
 1197SOL    HW1 4490   1.259   4.754   2.443  1.3777  0.4340 -1.1241
 1197SOL    HW2 4491   1.230   4.829   2.301 -0.3596  2.2764  0.1404
 1198SOL     OW 4492   3.835   3.421   0.059 -0.1485 -0.0284 -0.5213
 1198SOL    HW1 4493   3.746   3.454   0.030  1.1281  1.6469 -2.8477
 1198SOL    HW2 4494   3.905   3.487   0.035  1.9115 -1.8747  0.0174
 1199SOL     OW 4495   6.012   5.604   0.087  0.2446  0.4874 -0.1808
 1199SOL    HW1 4496   5.953   5.610   0.167 -0.3065 -1.1314 -0.4234
 1199SOL    HW2 4497   6.093   5.661   0.100 -0.0153  0.5294  1.3724
 1200SOL     OW 4498   1.942   0.894   3.692  0.0770  0.3044  0.7395
 1200SOL    HW1 4499   1.867   0.828   3.689  0.9702 -0.7308 -0.6209
 1200SOL    HW2 4500   2.029   0.844   3.699  0.7777  1.3179 -0.3852
 1201SOL     OW 4501   6.576   3.392   0.897 -0.7698  0.4520 -0.8190
 1201SOL    HW1 4502   6.577   3.388   0.997 -0.2925 -1.2055 -0.8511
 1201SOL    HW2 4503   6.667   3.369   0.862 -0.9337  1.0105 -1.6443
 1202SOL     OW 4504   3.335   3.518   1.342 -0.2285  0.4930  0.4199
 1202SOL    HW1 4505   3.420   3.530   1.393  0.2971  2.2972 -0.8011
 1202SOL    HW2 4506   3.323   3.421   1.320  1.1459  0.1173  1.2148
 1203SOL     OW 4507   4.908   0.010   4.744 -0.2681 -0.2350  0.4946
 1203SOL    HW1 4508   4.949   0.025   4.655  0.0048 -1.1555  0.4585
 1203SOL    HW2 4509   4.917  -0.086   4.770 -0.6042 -0.0409  1.3824
 1204SOL     OW 4510   3.884   2.580   0.397  0.1740 -0.1311  0.3033
 1204SOL    HW1 4511   3.946   2.641   0.447  1.2076 -1.4417  0.6974
 1204SOL    HW2 4512   3.802   2.564   0.452 -0.8837  2.1165 -0.4881
 1205SOL     OW 4513   3.052   1.376   2.065  0.9492 -0.5654  0.2729
 1205SOL    HW1 4514   3.121   1.414   2.126 -0.0790 -0.7431  1.6010
 1205SOL    HW2 4515   2.961   1.408   2.092  0.4074 -1.0770 -0.8415
 1206SOL     OW 4516   4.620   6.456   2.627 -0.2887 -0.1740 -0.2920
 1206SOL    HW1 4517   4.557   6.382   2.650  0.7442 -0.7032  0.9325
 1206SOL    HW2 4518   4.676   6.478   2.707 -0.2177  1.5830 -0.7830
 1207SOL     OW 4519   4.083   1.453   3.895  0.0675  0.0577 -0.2787
 1207SOL    HW1 4520   4.128   1.364   3.900 -0.5538 -0.3577 -1.5879
 1207SOL    HW2 4521   4.122   1.507   3.821  0.8111  1.1214  0.8444
 1208SOL     OW 4522   3.492   4.200   6.005 -0.3782 -0.3192  0.0420
 1208SOL    HW1 4523   3.417   4.264   6.018 -0.5707 -0.3124 -1.0474
 1208SOL    HW2 4524   3.557   4.237   5.939  2.5855  1.3833  3.5842
 1209SOL     OW 4525   6.800   2.087   1.980 -0.2107 -0.0038  0.0157
 1209SOL    HW1 4526   6.765   2.045   2.063  0.3135  0.4327  0.4676
 1209SOL    HW2 4527   6.871   2.029   1.939  1.6632  1.1172  1.5074
 1210SOL     OW 4528   2.663   5.948   1.515 -0.0366 -0.0187 -0.7216
 1210SOL    HW1 4529   2.699   6.041   1.517 -0.5791  0.2224  1.9097
 1210SOL    HW2 4530   2.734   5.885   1.484  0.0436  1.3003 -3.5235
 1211SOL     OW 4531   1.692   4.951   5.556  0.5556 -0.0381  0.1384
 1211SOL    HW1 4532   1.714   4.986   5.647 -2.0044  1.2516  0.3394
 1211SOL    HW2 4533   1.645   4.863   5.565 -0.9797  0.7465  0.2326
 1212SOL     OW 4534   5.268   1.770   3.975  0.3592  0.3514  0.0118
 1212SOL    HW1 4535   5.172   1.752   3.951 -0.0165  1.7061  0.4075
 1212SOL    HW2 4536   5.271   1.834   4.052  1.5912  1.8260 -1.2094
 1213SOL     OW 4537   1.470   3.106   3.299 -0.3650  0.6881 -0.5036
 1213SOL    HW1 4538   1.539   3.114   3.228  0.5444  0.5582  0.3482
 1213SOL    HW2 4539   1.399   3.041   3.270  1.1217 -1.0473 -0.4332
 1214SOL     OW 4540   1.081   0.885   1.465  0.2233 -0.3536 -0.2446
 1214SOL    HW1 4541   1.069   0.787   1.449 -0.3461 -0.6249  1.6488
 1214SOL    HW2 4542   1.035   0.936   1.392 -4.2553 -1.4918  1.4105
 1215SOL     OW 4543   6.014   0.764   3.977  0.5239  0.4686 -0.0179
 1215SOL    HW1 4544   5.966   0.817   3.907  0.0095 -0.6990 -0.5762
 1215SOL    HW2 4545   6.111   0.758   3.953  0.3249 -0.0614 -0.7415
 1216SOL     OW 4546   4.847   4.293   1.669 -0.2863 -0.2730  0.1762
 1216SOL    HW1 4547   4.860   4.299   1.768  1.2343  1.4657 -0.0804
 1216SOL    HW2 4548   4.878   4.203   1.637  1.1553 -0.1248  1.0541
 1217SOL     OW 4549   2.602   3.575   6.328 -0.0479  0.0160  0.2354
 1217SOL    HW1 4550   2.538   3.565   6.404 -0.2403 -1.4556 -0.0811
 1217SOL    HW2 4551   2.558   3.627   6.254 -1.1478 -1.4562 -0.2100
 1218SOL     OW 4552   3.537   6.942   4.547  0.5706 -0.5609 -0.1699
 1218SOL    HW1 4553   3.616   7.003   4.557 -0.0721  0.2908 -0.2695
 1218SOL    HW2 4554   3.472   6.981   4.483 -0.7539 -0.4008  1.2217
 1219SOL     OW 4555   6.744   1.962   4.559  0.0281  0.3875  0.2200
 1219SOL    HW1 4556   6.679   1.888   4.547  0.7169 -0.3039  0.6106
 1219SOL    HW2 4557   6.708   2.028   4.625 -0.4836  0.2725  0.0593
 1220SOL     OW 4558   6.904   1.130   5.519 -0.4191 -0.1948  0.3078
 1220SOL    HW1 4559   6.841   1.079   5.577  0.7731  0.2552  2.1102
 1220SOL    HW2 4560   6.879   1.226   5.519 -2.9386 -0.6446 -3.4530
 1221SOL     OW 4561   4.901   0.044   4.219 -0.2124  0.2461  0.3932
 1221SOL    HW1 4562   4.963   0.084   4.152 -0.0183  0.4041  0.6675
 1221SOL    HW2 4563   4.892  -0.054   4.201 -1.1148  0.4938 -0.6134
 1222SOL     OW 4564   1.026   4.417   4.401 -0.3720 -0.4134  0.1966
 1222SOL    HW1 4565   0.962   4.467   4.342  0.3891  1.2145  0.7121
 1222SOL    HW2 4566   1.075   4.349   4.346 -1.0912 -0.2947 -0.6225
 1223SOL     OW 4567   1.455   3.031   5.287  0.0736  0.6947 -0.2570
 1223SOL    HW1 4568   1.427   3.052   5.194  0.2887  0.4599 -0.3739
 1223SOL    HW2 4569   1.555   3.031   5.294  0.0622  0.4881 -0.0787
 1224SOL     OW 4570   4.296   6.549   4.759 -0.1860 -0.1158  0.6025
 1224SOL    HW1 4571   4.293   6.450   4.766  2.6153 -0.5302 -2.0153
 1224SOL    HW2 4572   4.353   6.586   4.832 -1.0485 -0.3905  1.4441
 1225SOL     OW 4573   3.332   1.558   6.010  0.3448 -0.2312 -0.2753
 1225SOL    HW1 4574   3.358   1.464   6.032  0.0837 -0.5638 -1.3458
 1225SOL    HW2 4575   3.380   1.588   5.927 -0.8245 -0.0006 -0.8850
 1226SOL     OW 4576   6.105   5.145   5.192  0.0323  0.5735 -0.0469
 1226SOL    HW1 4577   6.155   5.221   5.234  1.3648 -0.6689  0.7323
 1226SOL    HW2 4578   6.101   5.157   5.093  0.4545  1.5228  0.0484
 1227SOL     OW 4579   1.378   3.344   4.468 -0.3476  0.1708 -0.6610
 1227SOL    HW1 4580   1.297   3.399   4.486 -0.9327 -0.3982 -1.4520
 1227SOL    HW2 4581   1.403   3.352   4.371  1.1517  1.1297 -0.2294
 1228SOL     OW 4582   0.788   2.717   5.710  0.5730 -0.3312  0.2936
 1228SOL    HW1 4583   0.844   2.768   5.775  0.5501 -0.7025  0.6090
 1228SOL    HW2 4584   0.787   2.620   5.735 -0.3765 -0.3019  0.4200
 1229SOL     OW 4585   3.798   3.728   4.837 -0.0412  0.4196 -0.6889
 1229SOL    HW1 4586   3.750   3.667   4.900 -1.7651  2.1634 -0.2505
 1229SOL    HW2 4587   3.810   3.818   4.880  0.3894  1.0998 -2.1824
 1230SOL     OW 4588   1.878   1.378   4.535  0.0732  0.0089 -0.0261
 1230SOL    HW1 4589   1.941   1.344   4.465  1.9591 -1.1515  2.1071
 1230SOL    HW2 4590   1.790   1.332   4.525  0.2749 -0.0948 -1.6251
 1231SOL     OW 4591   2.895   4.797   6.415 -0.0558  0.0725 -0.1512
 1231SOL    HW1 4592   2.969   4.760   6.472  0.6416 -0.7784 -1.5468
 1231SOL    HW2 4593   2.869   4.888   6.449  1.0077  0.0003  0.9165
 1232SOL     OW 4594   2.993   5.125   0.251 -0.1355 -0.1340  0.2485
 1232SOL    HW1 4595   3.082   5.088   0.223  0.2613  0.6859  0.4173
 1232SOL    HW2 4596   2.926   5.110   0.178  0.8930  2.0070 -1.2210
 1233SOL     OW 4597   1.474   2.496   2.793 -0.4085 -0.3239  0.3031
 1233SOL    HW1 4598   1.470   2.519   2.890 -1.9096  1.4613 -0.1214
 1233SOL    HW2 4599   1.538   2.558   2.747 -0.3186 -0.6186  0.0266
 1234SOL     OW 4600   6.588   0.217   3.944 -0.0263  0.0414 -0.4647
 1234SOL    HW1 4601   6.575   0.316   3.944 -0.2559  0.0598  1.3703
 1234SOL    HW2 4602   6.686   0.197   3.944  0.0202  0.2558 -1.1827
 1235SOL     OW 4603   2.955   0.309   4.445  0.6233 -0.3888 -0.4494
 1235SOL    HW1 4604   2.989   0.398   4.473  1.2525 -0.4496 -0.9910
 1235SOL    HW2 4605   3.030   0.243   4.442 -0.0633 -1.3199  1.3752
 1236SOL     OW 4606   4.987   0.096   4.473  0.2351 -0.1841 -0.4677
 1236SOL    HW1 4607   4.953   0.082   4.380 -3.3391 -0.9538  0.7930
 1236SOL    HW2 4608   4.980   0.193   4.497 -0.3461 -0.2099 -0.5157
 1237SOL     OW 4609   5.808   6.704   3.264 -0.0315 -0.1764  0.0886
 1237SOL    HW1 4610   5.858   6.681   3.181  1.5142 -0.3881  1.0193
 1237SOL    HW2 4611   5.844   6.790   3.302 -2.1849  1.1011 -0.5689
 1238SOL     OW 4612   4.490   1.544   4.634 -0.3790  0.1537  0.0193
 1238SOL    HW1 4613   4.468   1.543   4.732 -2.9362 -1.6927 -0.4848
 1238SOL    HW2 4614   4.412   1.580   4.583 -1.0383 -3.2585 -1.6302
 1239SOL     OW 4615   3.220   3.693   2.505  0.4914 -0.8701  0.1657
 1239SOL    HW1 4616   3.316   3.667   2.496  0.3251 -0.9098 -2.1550
 1239SOL    HW2 4617   3.162   3.612   2.495  0.1719 -0.5982 -0.2375
 1240SOL     OW 4618   1.720   1.379   2.356 -0.0589 -0.0506  0.6897
 1240SOL    HW1 4619   1.792   1.348   2.418 -1.2485  0.4050  2.3545
 1240SOL    HW2 4620   1.680   1.300   2.309  1.0931 -0.3652  0.1982
 1241SOL     OW 4621   0.948   5.935   4.216 -0.7340  0.0495 -0.0842
 1241SOL    HW1 4622   0.929   5.861   4.280 -2.1730 -0.1791 -0.7429
 1241SOL    HW2 4623   1.043   5.963   4.225 -0.7825 -0.3063  1.7888
 1242SOL     OW 4624   3.391   1.619   2.917 -0.0227 -0.0029 -1.0374
 1242SOL    HW1 4625   3.490   1.611   2.905  0.1675 -0.4758  0.6218
 1242SOL    HW2 4626   3.352   1.528   2.928 -0.4880  0.2498 -0.6030
 1243SOL     OW 4627   6.566   0.288   2.280 -0.8350 -0.2512  0.1704
 1243SOL    HW1 4628   6.531   0.195   2.275  2.5246 -1.6310  0.1097
 1243SOL    HW2 4629   6.609   0.302   2.370 -0.1830  0.8119 -0.2937
 1244SOL     OW 4630   1.200   2.624   6.717  0.2487  0.0331 -0.2904
 1244SOL    HW1 4631   1.224   2.537   6.760  0.2599 -0.4841 -1.3012
 1244SOL    HW2 4632   1.108   2.651   6.744  0.5369  0.1163  0.6486
 1245SOL     OW 4633   2.850   0.472   3.326  0.5518  0.0424  0.3537
 1245SOL    HW1 4634   2.817   0.385   3.289 -0.1218 -0.6646  2.4738
 1245SOL    HW2 4635   2.938   0.494   3.284  0.5511 -1.4501 -0.5316
 1246SOL     OW 4636   4.620   4.709   1.748 -0.9545  0.1621  0.2126
 1246SOL    HW1 4637   4.606   4.769   1.827 -0.3361  1.1072 -0.3651
 1246SOL    HW2 4638   4.557   4.632   1.752 -1.7852  0.8643  0.9750
 1247SOL     OW 4639   4.084   2.906   1.483 -0.8827 -0.1797 -0.7288
 1247SOL    HW1 4640   4.065   2.878   1.578 -1.7109 -0.4647 -0.9643
 1247SOL    HW2 4641   4.141   2.837   1.439  1.2545  0.9450  0.1544
 1248SOL     OW 4642   4.288   6.575   3.146 -0.6168  0.6393  0.0985
 1248SOL    HW1 4643   4.283   6.658   3.090 -1.2180  0.1780 -0.5366
 1248SOL    HW2 4644   4.377   6.531   3.133 -0.9425  0.2562 -0.9000
 1249SOL     OW 4645   0.581   3.112   1.330 -0.2603  0.4475 -0.3279
 1249SOL    HW1 4646   0.506   3.178   1.331 -0.5265  0.1527  0.7963
 1249SOL    HW2 4647   0.668   3.162   1.329 -0.4110  0.9391  2.3580
 1250SOL     OW 4648   3.356   1.211   3.031 -0.0503 -0.2606 -0.3431
 1250SOL    HW1 4649   3.273   1.267   3.033 -1.0754 -1.6812 -0.8216
 1250SOL    HW2 4650   3.379   1.182   3.123 -0.0182  0.2376 -0.1922
 1251SOL     OW 4651   1.275   5.400   4.963  0.4867  0.1845 -0.2521
 1251SOL    HW1 4652   1.243   5.489   4.997  1.1514  0.5951 -0.6930
 1251SOL    HW2 4653   1.222   5.328   5.007  2.4389  0.5698  3.0578
 1252SOL     OW 4654   4.378   1.013   6.517  0.3483  0.1243 -0.3817
 1252SOL    HW1 4655   4.440   1.049   6.587 -2.4291  0.8094  1.9319
 1252SOL    HW2 4656   4.284   1.020   6.550 -1.0195 -0.7728 -3.7430
 1253SOL     OW 4657   0.774   4.105   3.275 -0.3285 -0.3001 -0.4276
 1253SOL    HW1 4658   0.766   4.103   3.175 -0.9776  1.2625 -0.4256
 1253SOL    HW2 4659   0.738   4.019   3.313 -2.6328  0.1693 -1.3843
 1254SOL     OW 4660   6.589   1.157   5.362  0.4256 -0.6448 -1.1999
 1254SOL    HW1 4661   6.540   1.074   5.389  0.0278 -0.4143 -1.2100
 1254SOL    HW2 4662   6.549   1.194   5.278 -1.3144  1.1453  0.2880
 1255SOL     OW 4663   2.463   4.651   6.320  0.1997  0.5071  0.0259
 1255SOL    HW1 4664   2.468   4.750   6.306 -0.4940  0.6331  0.6304
 1255SOL    HW2 4665   2.368   4.621   6.318  0.4613 -0.3951 -1.6743
 1256SOL     OW 4666   1.820   4.148   5.816  0.3195  0.3621 -0.2984
 1256SOL    HW1 4667   1.776   4.164   5.728 -0.6945 -1.1480 -0.0955
 1256SOL    HW2 4668   1.919   4.143   5.803  0.1939  0.3490 -1.3238
 1257SOL     OW 4669   4.363   1.417   6.645 -0.6209 -0.2090 -0.7488
 1257SOL    HW1 4670   4.298   1.405   6.720 -0.7727  0.4506 -0.7653
 1257SOL    HW2 4671   4.456   1.405   6.679 -0.7541 -1.4253 -0.7806
 1258SOL     OW 4672   1.727   3.830   6.711 -0.3074  0.8060 -0.4278
 1258SOL    HW1 4673   1.824   3.853   6.712 -0.3255  1.0191 -1.5604
 1258SOL    HW2 4674   1.688   3.853   6.621 -1.7393  2.0767  0.4585
 1259SOL     OW 4675   4.272   1.144   2.040  0.7493 -0.3423 -0.1105
 1259SOL    HW1 4676   4.247   1.087   2.118  0.0901 -0.9267 -0.7467
 1259SOL    HW2 4677   4.268   1.091   1.956  4.8343 -0.7430 -0.2605
 1260SOL     OW 4678   3.087   5.460   6.206  0.6887 -0.3597  0.2391
 1260SOL    HW1 4679   3.160   5.528   6.209  0.3065  0.3397 -2.9378
 1260SOL    HW2 4680   3.053   5.451   6.112 -3.8588 -0.0975  1.6146
 1261SOL     OW 4681   1.329   4.574   2.771 -0.2074  0.5627 -0.0378
 1261SOL    HW1 4682   1.342   4.588   2.869  0.7774 -0.8870  0.0714
 1261SOL    HW2 4683   1.284   4.486   2.755 -1.7369  1.4341 -0.8576
 1262SOL     OW 4684   2.363   1.266   5.180 -0.2141  0.7717 -0.0236
 1262SOL    HW1 4685   2.377   1.226   5.270  0.3809 -0.1807 -0.5195
 1262SOL    HW2 4686   2.446   1.254   5.125  0.1323  3.0183 -0.0962
 1263SOL     OW 4687   1.744   4.830   3.739 -0.1205  0.1701 -0.1684
 1263SOL    HW1 4688   1.741   4.869   3.831  1.1217  1.3296 -0.5847
 1263SOL    HW2 4689   1.651   4.813   3.707 -0.5682 -2.3105  2.1002
 1264SOL     OW 4690   0.263   2.477   2.745 -0.6131 -0.2824  0.3166
 1264SOL    HW1 4691   0.242   2.519   2.834  1.4840 -0.6931  1.0646
 1264SOL    HW2 4692   0.335   2.530   2.700 -0.0871 -1.3494 -0.1061
 1265SOL     OW 4693   3.943   3.033   2.429 -0.8479  0.2691 -0.0038
 1265SOL    HW1 4694   3.920   3.119   2.383 -0.6508  0.7555  0.7842
 1265SOL    HW2 4695   4.022   2.991   2.383  1.0624  2.0770  1.4102
 1266SOL     OW 4696   0.871   1.001   1.672  0.3977 -0.4641 -0.4225
 1266SOL    HW1 4697   0.934   0.977   1.598  1.8288  0.4445  0.4602
 1266SOL    HW2 4698   0.779   1.013   1.635  0.9813 -0.5433 -1.9588
 1267SOL     OW 4699   1.454   5.107   2.341 -0.2197  0.1684 -0.8328
 1267SOL    HW1 4700   1.361   5.096   2.307 -0.1327  3.2810 -2.4565
 1267SOL    HW2 4701   1.475   5.205   2.348  2.6208 -0.4390  0.4142
 1268SOL     OW 4702   5.859   1.598   2.301 -0.0735 -0.3910 -0.4695
 1268SOL    HW1 4703   5.949   1.633   2.274 -0.5231  0.5908 -0.7241
 1268SOL    HW2 4704   5.807   1.670   2.346 -0.6629 -1.0192 -0.1180
 1269SOL     OW 4705   4.251   6.196   5.324 -0.2303  0.1972 -0.6246
 1269SOL    HW1 4706   4.259   6.295   5.329  1.5170  0.1109 -1.0178
 1269SOL    HW2 4707   4.187   6.171   5.252 -0.9651  1.0365 -0.2729
 1270SOL     OW 4708   6.957   1.193   2.906 -0.5092  0.0005 -0.2322
 1270SOL    HW1 4709   7.037   1.171   2.850 -1.2164  1.5147 -1.9133
 1270SOL    HW2 4710   6.988   1.221   2.997  0.8307 -0.0902 -0.6378
 1271SOL     OW 4711   6.807   6.423   4.139  0.1100  0.2774 -0.2698
 1271SOL    HW1 4712   6.820   6.430   4.040  0.3254  0.6938 -0.2156
 1271SOL    HW2 4713   6.826   6.512   4.182 -0.5390  0.2537  0.0833
 1272SOL     OW 4714   2.182   1.921   2.067 -0.0663  0.1609 -0.5360
 1272SOL    HW1 4715   2.130   1.950   2.147 -1.1947  0.1250 -1.2339
 1272SOL    HW2 4716   2.125   1.862   2.009  1.0627 -0.6496 -0.8634
 1273SOL     OW 4717   3.729   5.980   3.778 -0.3731  0.2062 -0.8902
 1273SOL    HW1 4718   3.749   6.071   3.815 -0.2640  0.3353 -1.2567
 1273SOL    HW2 4719   3.701   5.989   3.682 -0.6918 -0.1157 -0.8314
 1274SOL     OW 4720   3.899   7.004   3.969  0.5099 -0.1224  0.3777
 1274SOL    HW1 4721   3.955   7.033   3.891  1.2745  0.3118  1.0578
 1274SOL    HW2 4722   3.948   6.934   4.021 -0.0010 -0.4293  0.4471
 1275SOL     OW 4723   1.212   1.778   5.192 -0.7881 -0.2760  0.4610
 1275SOL    HW1 4724   1.283   1.800   5.259  0.8299 -2.5367 -0.3542
 1275SOL    HW2 4725   1.123   1.773   5.237 -0.2119  1.1395  1.8226
 1276SOL     OW 4726   2.695   5.590   4.721 -0.0891  0.0191 -0.0333
 1276SOL    HW1 4727   2.618   5.551   4.771  0.1243 -1.9519 -1.1124
 1276SOL    HW2 4728   2.766   5.520   4.709  0.5403  0.8725 -1.6592
 1277SOL     OW 4729   1.387   1.488   5.395  0.3214  0.3523 -0.1272
 1277SOL    HW1 4730   1.452   1.531   5.457 -0.1186  2.0285 -0.7563
 1277SOL    HW2 4731   1.376   1.545   5.314 -0.9276 -0.5720 -0.6516
 1278SOL     OW 4732   0.066   2.911   5.501 -0.0321 -0.0919  0.1079
 1278SOL    HW1 4733   0.031   2.848   5.570 -0.9049 -1.3048 -1.3846
 1278SOL    HW2 4734   0.043   3.005   5.527 -1.0416 -0.5798  1.0768
 1279SOL     OW 4735   4.209   5.359   5.488  0.4621  0.8082  0.8134
 1279SOL    HW1 4736   4.294   5.408   5.507  1.0675  1.3630 -2.6106
 1279SOL    HW2 4737   4.223   5.298   5.410 -2.2016  0.6386  0.3610
 1280SOL     OW 4738   2.431   2.568   2.280  0.5522 -0.0295  0.1868
 1280SOL    HW1 4739   2.361   2.639   2.277 -0.9752 -1.4786 -1.2927
 1280SOL    HW2 4740   2.404   2.498   2.346  0.5395 -0.6182 -0.4227
 1281SOL     OW 4741   4.299   2.442   1.402 -0.0256 -0.5552 -0.4712
 1281SOL    HW1 4742   4.300   2.381   1.323  2.7640 -0.2073 -0.8276
 1281SOL    HW2 4743   4.393   2.454   1.436 -0.8848  0.9231  1.6506
 1282SOL     OW 4744   5.243   0.410   0.789 -0.3980  0.2063  0.3565
 1282SOL    HW1 4745   5.191   0.374   0.712  0.5136 -0.0151 -0.1716
 1282SOL    HW2 4746   5.251   0.509   0.781 -0.3093  0.1840  0.1621
 1283SOL     OW 4747   4.146   1.698   0.890  0.1036  0.1724  0.0717
 1283SOL    HW1 4748   4.093   1.783   0.894 -0.6161 -0.3079  2.1162
 1283SOL    HW2 4749   4.203   1.698   0.807  0.1685  2.6691  0.0230
 1284SOL     OW 4750   1.345   4.905   0.103  0.1260  0.6268  0.1457
 1284SOL    HW1 4751   1.368   5.000   0.124 -0.2913  1.0995 -1.4197
 1284SOL    HW2 4752   1.265   4.877   0.156 -1.3976  2.0325 -1.3136
 1285SOL     OW 4753   6.215   1.461   2.915  0.0716  0.6876 -0.0330
 1285SOL    HW1 4754   6.171   1.405   2.845 -0.9243  0.8065  0.4829
 1285SOL    HW2 4755   6.228   1.406   2.998 -1.5057  1.3612  0.6995
 1286SOL     OW 4756   5.162   0.713   0.130  0.3948 -0.3983  0.1247
 1286SOL    HW1 4757   5.260   0.717   0.144  0.3008  1.4706  0.6220
 1286SOL    HW2 4758   5.136   0.780   0.059 -0.5897 -0.1981  0.6501
 1287SOL     OW 4759   3.083   1.025   7.014  0.5335 -0.2107 -0.0305
 1287SOL    HW1 4760   3.096   1.120   6.986  0.1564  0.2358  1.2381
 1287SOL    HW2 4761   3.151   1.001   7.083  1.6290 -1.3726 -1.4640
 1288SOL     OW 4762   2.098   4.280   1.491  0.1272 -0.3968 -0.2486
 1288SOL    HW1 4763   2.044   4.198   1.473  0.7145 -0.9332  0.3914
 1288SOL    HW2 4764   2.195   4.257   1.491  0.3426  0.4502 -0.8214
 1289SOL     OW 4765   0.301   5.936   6.760  0.0891  0.1980  0.1206
 1289SOL    HW1 4766   0.346   5.865   6.815  1.7128  1.4665  0.5162
 1289SOL    HW2 4767   0.224   5.896   6.710  1.4248 -2.0130 -0.3068
 1290SOL     OW 4768   1.079   1.792   3.900  0.1533  0.3111 -0.0869
 1290SOL    HW1 4769   1.129   1.800   3.986  1.8913  0.4299 -1.0811
 1290SOL    HW2 4770   1.070   1.695   3.875 -0.9157  0.2352  0.5156
 1291SOL     OW 4771   6.176   6.259   4.597  0.7132  0.0066  0.2181
 1291SOL    HW1 4772   6.237   6.251   4.518 -0.4326 -2.0171 -0.5595
 1291SOL    HW2 4773   6.086   6.290   4.566  0.6825  0.7341  0.9999
 1292SOL     OW 4774   4.600   6.540   4.444 -0.2235  0.0106  0.1557
 1292SOL    HW1 4775   4.694   6.524   4.475 -0.6872  0.5091  1.8807
 1292SOL    HW2 4776   4.543   6.461   4.468 -1.1764  1.4903  3.1684
 1293SOL     OW 4777   0.301   3.019   1.046 -0.1756 -0.2080  0.5493
 1293SOL    HW1 4778   0.257   2.989   1.131  0.8677 -0.5110  0.9950
 1293SOL    HW2 4779   0.383   2.964   1.030  0.1031  0.4186 -0.2091
 1294SOL     OW 4780   3.741   5.409   4.439  0.3650 -0.3302  0.6631
 1294SOL    HW1 4781   3.671   5.351   4.397  0.0866  0.0733  0.5652
 1294SOL    HW2 4782   3.745   5.497   4.391  1.4699 -0.6260  0.1713
 1295SOL     OW 4783   2.448   1.882   3.186  0.6748  0.3230  0.4405
 1295SOL    HW1 4784   2.371   1.821   3.165  2.1264 -2.6322  2.8442
 1295SOL    HW2 4785   2.500   1.900   3.103 -1.8473  1.4075 -1.0168
 1296SOL     OW 4786   2.971   3.257   2.168  0.0829  0.0923  0.1016
 1296SOL    HW1 4787   2.897   3.283   2.107  0.7709  0.1815 -0.7076
 1296SOL    HW2 4788   3.008   3.168   2.140 -0.1438 -0.2697  0.9048
 1297SOL     OW 4789   4.197   2.031   3.169  0.2742 -0.8745 -0.1652
 1297SOL    HW1 4790   4.122   2.092   3.147  1.3070  0.9618  1.1090
 1297SOL    HW2 4791   4.258   2.023   3.091  0.6638  0.5944 -0.0332
 1298SOL     OW 4792   1.049   1.100   6.049 -0.1318  0.0751 -0.5407
 1298SOL    HW1 4793   0.968   1.114   5.991 -0.7504 -0.5144  0.1597
 1298SOL    HW2 4794   1.103   1.185   6.052  0.3298 -0.0997 -2.5747
 1299SOL     OW 4795   3.158   1.686   3.959  0.2652 -0.1318 -0.2550
 1299SOL    HW1 4796   3.102   1.683   3.876 -0.0670  1.6501 -0.1419
 1299SOL    HW2 4797   3.255   1.680   3.934  0.1419 -0.3694 -0.6927
 1300SOL     OW 4798   1.804   1.292   4.037  0.0216 -0.2270  0.1319
 1300SOL    HW1 4799   1.720   1.239   4.049 -0.7669  1.3526  2.0688
 1300SOL    HW2 4800   1.783   1.381   3.998  0.9220 -0.1400 -0.1888
 1301SOL     OW 4801   0.848   1.473   4.594 -0.0876 -0.8555 -0.3368
 1301SOL    HW1 4802   0.764   1.421   4.606  1.4323 -3.1597  1.1451
 1301SOL    HW2 4803   0.840   1.561   4.640 -1.0089 -1.8735  1.5498
 1302SOL     OW 4804   4.174   2.635   7.008 -0.0675 -0.3507  0.4401
 1302SOL    HW1 4805   4.141   2.692   6.933 -1.8416 -2.2965 -0.3639
 1302SOL    HW2 4806   4.165   2.684   7.094 -0.0994  1.1156 -0.3751
 1303SOL     OW 4807   3.047   1.109   5.955  0.6700 -0.3212  0.2623
 1303SOL    HW1 4808   3.096   1.168   5.891  1.4566 -1.2932 -0.0733
 1303SOL    HW2 4809   2.949   1.126   5.949  0.9291  1.5586  0.8300
 1304SOL     OW 4810   1.174   2.909   6.700  0.1816  0.7765  0.1180
 1304SOL    HW1 4811   1.225   2.823   6.695 -0.2556  0.5220  0.0834
 1304SOL    HW2 4812   1.234   2.980   6.738  1.0627  0.8629 -1.3371
 1305SOL     OW 4813   3.788   3.989   3.751 -0.1433 -0.4078  0.5075
 1305SOL    HW1 4814   3.802   4.073   3.803 -0.6174  0.1544 -0.2465
 1305SOL    HW2 4815   3.850   3.918   3.785 -0.5071 -0.0902  1.8771
 1306SOL     OW 4816   4.274   0.156   1.588  0.7759  0.2833 -0.3450
 1306SOL    HW1 4817   4.180   0.141   1.556  0.6724  2.0905 -0.9935
 1306SOL    HW2 4818   4.272   0.176   1.686  0.4747  0.3679 -0.3660
 1307SOL     OW 4819   0.548   1.925   6.862 -0.2706  0.1870 -0.7104
 1307SOL    HW1 4820   0.639   1.942   6.825  0.7248 -1.4182  0.8534
 1307SOL    HW2 4821   0.503   2.012   6.881  1.7949  1.0686  0.4689
 1308SOL     OW 4822   0.307   3.975   4.881  0.3784 -0.1885 -0.6854
 1308SOL    HW1 4823   0.251   3.975   4.799  1.2271  1.5099 -1.3271
 1308SOL    HW2 4824   0.325   3.881   4.910 -1.5078 -0.7839 -1.3042
 1309SOL     OW 4825   6.160   3.304   6.138  0.1915  0.0321  0.5247
 1309SOL    HW1 4826   6.102   3.236   6.183  1.5246  0.3604  2.8805
 1309SOL    HW2 4827   6.243   3.260   6.104 -0.4324 -0.0566 -0.9932
 1310SOL     OW 4828   5.743   2.156   4.190 -0.5612 -0.4808 -0.1655
 1310SOL    HW1 4829   5.677   2.214   4.237 -0.3739 -0.9460  0.6876
 1310SOL    HW2 4830   5.697   2.102   4.120 -1.2145 -1.2843  0.8608
 1311SOL     OW 4831   5.088   5.649   3.298  0.6733 -0.0731 -0.2595
 1311SOL    HW1 4832   5.064   5.720   3.364  0.1966  0.6219 -1.1595
 1311SOL    HW2 4833   5.012   5.636   3.234  1.7111  0.3734 -1.6190
 1312SOL     OW 4834   0.594   3.342   6.658  0.6953 -0.5081  0.1017
 1312SOL    HW1 4835   0.505   3.373   6.692  0.6740  0.9886 -1.1704
 1312SOL    HW2 4836   0.663   3.357   6.728  0.0810 -0.9025  0.8033
 1313SOL     OW 4837   2.640   6.531   3.478 -0.2083  0.0657 -0.3559
 1313SOL    HW1 4838   2.634   6.622   3.437 -0.5095 -0.5420 -1.7026
 1313SOL    HW2 4839   2.722   6.527   3.536 -2.1715  2.4024  2.9345
 1314SOL     OW 4840   5.364   0.694   6.732 -0.0882  0.0234 -0.8264
 1314SOL    HW1 4841   5.437   0.752   6.697 -1.4204  1.3367 -1.5614
 1314SOL    HW2 4842   5.323   0.642   6.656 -1.4261  1.0823 -0.8674
 1315SOL     OW 4843   4.095   2.113   3.792  0.4987 -0.5509 -0.5280
 1315SOL    HW1 4844   4.000   2.126   3.820  1.1258  0.1866  1.4710
 1315SOL    HW2 4845   4.109   2.152   3.701 -0.6596  1.3433  0.0383
 1316SOL     OW 4846   2.638   5.504   2.786  0.3393 -0.1788 -0.0070
 1316SOL    HW1 4847   2.654   5.534   2.692  0.7080  1.3027  0.4981
 1316SOL    HW2 4848   2.544   5.471   2.795 -0.5356  2.0173 -0.3613
 1317SOL     OW 4849   2.967   3.106   2.402 -0.6374 -0.0564 -0.6728
 1317SOL    HW1 4850   2.971   3.173   2.328 -0.3571  0.2038 -0.4299
 1317SOL    HW2 4851   3.027   3.029   2.380  1.2835  1.0754  0.2788
 1318SOL     OW 4852   4.247   3.969   5.678 -0.7418  0.4454 -0.4169
 1318SOL    HW1 4853   4.301   3.943   5.598 -1.0901  0.1428 -0.5575
 1318SOL    HW2 4854   4.303   4.025   5.739 -0.4899  0.7314 -0.8997
 1319SOL     OW 4855   4.530   2.547   0.457 -0.2706 -0.1664  0.4571
 1319SOL    HW1 4856   4.608   2.504   0.503 -0.0362 -1.3118 -0.9419
 1319SOL    HW2 4857   4.456   2.481   0.448 -0.1531 -0.1174 -1.1515
 1320SOL     OW 4858   2.918   1.585   4.146  0.2174 -0.4615 -0.0349
 1320SOL    HW1 4859   3.013   1.609   4.125  0.2708 -0.0666  0.6527
 1320SOL    HW2 4860   2.877   1.657   4.203 -1.1389  0.4419 -2.0205
 1321SOL     OW 4861   2.496   3.749   6.123 -0.3937  0.0263 -0.4755
 1321SOL    HW1 4862   2.593   3.757   6.098 -0.9331  0.7412 -2.5613
 1321SOL    HW2 4863   2.458   3.840   6.138 -0.8515 -0.2203 -0.1274
 1322SOL     OW 4864   2.600   2.169   1.469 -0.8744 -0.6615  0.5090
 1322SOL    HW1 4865   2.524   2.230   1.492 -0.0444  0.6453 -0.0763
 1322SOL    HW2 4866   2.645   2.138   1.553 -0.2245  0.9906  0.8209
 1323SOL     OW 4867   4.460   2.408   2.887  0.0556  0.5369  0.0706
 1323SOL    HW1 4868   4.470   2.507   2.877 -1.1860  0.7296  0.5567
 1323SOL    HW2 4869   4.381   2.377   2.834  0.5856 -0.2374 -0.2793
 1324SOL     OW 4870   0.541   3.815   4.313  0.1218 -0.5593  0.1668
 1324SOL    HW1 4871   0.495   3.781   4.395 -0.3770 -0.2120  0.0345
 1324SOL    HW2 4872   0.496   3.778   4.232  1.4239 -1.9653  0.0401
 1325SOL     OW 4873   3.986   1.430   6.468  0.4307  0.2899  0.3203
 1325SOL    HW1 4874   4.048   1.357   6.439  1.1338  0.6237  0.9657
 1325SOL    HW2 4875   3.969   1.423   6.566 -0.1577  0.5072  0.2414
 1326SOL     OW 4876   0.569   4.311   3.366 -0.3260 -0.0889 -0.2973
 1326SOL    HW1 4877   0.663   4.286   3.390 -0.4979 -0.0674  0.4017
 1326SOL    HW2 4878   0.540   4.255   3.288 -0.6254 -1.9805  1.0852
 1327SOL     OW 4879   4.779   1.186   5.977  0.9895  0.4683  0.1942
 1327SOL    HW1 4880   4.737   1.096   5.992  3.5410 -1.0946 -1.3444
 1327SOL    HW2 4881   4.764   1.243   6.057 -0.0930 -1.5626  1.5305
 1328SOL     OW 4882   5.470   0.851   6.055 -0.6104  0.3128 -0.4288
 1328SOL    HW1 4883   5.559   0.898   6.052 -0.5981  0.2398 -3.0018
 1328SOL    HW2 4884   5.431   0.861   6.147  1.5098  1.3386  0.4378
 1329SOL     OW 4885   0.172   5.219   0.414  0.6464  0.0039 -0.3387
 1329SOL    HW1 4886   0.155   5.211   0.512 -0.2785 -1.2000 -0.5636
 1329SOL    HW2 4887   0.085   5.227   0.365  0.7651 -3.0074 -1.2888
 1330SOL     OW 4888   1.035   5.063   3.220 -0.3556 -0.7390  0.4692
 1330SOL    HW1 4889   1.128   5.100   3.216  0.4863 -2.6342  0.9222
 1330SOL    HW2 4890   0.988   5.098   3.300  0.9088 -1.6626  1.6703
 1331SOL     OW 4891   5.806   0.209   5.582  0.1670 -0.1190  0.7901
 1331SOL    HW1 4892   5.812   0.109   5.572  1.3401  0.0881 -1.2052
 1331SOL    HW2 4893   5.898   0.248   5.582 -0.2942  1.0017  0.9672
 1332SOL     OW 4894   6.793   4.284   3.849  0.3411  0.0791  0.0903
 1332SOL    HW1 4895   6.871   4.329   3.892 -0.6795  1.8443  0.1783
 1332SOL    HW2 4896   6.761   4.339   3.772  0.3439 -1.5856 -1.1636
 1333SOL     OW 4897   5.705   5.053   3.128  0.0931  0.1748 -0.4861
 1333SOL    HW1 4898   5.671   5.147   3.131 -1.8734 -0.5161  0.5467
 1333SOL    HW2 4899   5.686   5.014   3.038  2.5021  1.2535 -1.5470
 1334SOL     OW 4900   5.188   5.189   3.870  0.3703  0.6943 -0.2106
 1334SOL    HW1 4901   5.170   5.246   3.790 -0.0765  0.6404 -0.1530
 1334SOL    HW2 4902   5.274   5.217   3.913  1.6826 -0.6027 -1.8778
 1335SOL     OW 4903   4.412   0.037   2.678 -0.3974  0.5379 -0.0310
 1335SOL    HW1 4904   4.342   0.033   2.748  0.6700 -1.4229  1.0210
 1335SOL    HW2 4905   4.463   0.123   2.685 -1.4896  1.1656  0.3592
 1336SOL     OW 4906   5.981   5.755   3.311 -0.5036 -0.6032  0.0986
 1336SOL    HW1 4907   6.025   5.776   3.398  0.0632 -1.8543  0.1363
 1336SOL    HW2 4908   5.898   5.810   3.301  0.6853  1.3398  0.3289
 1337SOL     OW 4909   0.251   3.194   0.387  0.0905  0.5963 -0.7308
 1337SOL    HW1 4910   0.207   3.120   0.336  0.8048 -1.6899  1.7680
 1337SOL    HW2 4911   0.342   3.210   0.351  0.1628 -0.1881 -0.9126
 1338SOL     OW 4912   0.425   0.678   4.868 -0.4394  0.5195  0.2035
 1338SOL    HW1 4913   0.485   0.601   4.885 -0.5304  0.4429  0.1778
 1338SOL    HW2 4914   0.457   0.758   4.919 -0.0969  0.5836 -0.1073
 1339SOL     OW 4915   4.654   4.743   1.315  0.1793 -0.1568  0.4906
 1339SOL    HW1 4916   4.577   4.799   1.347  1.2338  0.3701  2.2869
 1339SOL    HW2 4917   4.698   4.701   1.394  0.3584 -2.3384 -0.6927
 1340SOL     OW 4918   1.431   4.865   6.203  0.3136  0.1767  0.2940
 1340SOL    HW1 4919   1.528   4.883   6.219  0.4530 -0.7488  0.5842
 1340SOL    HW2 4920   1.417   4.766   6.191 -0.4174  0.4176 -1.0171
 1341SOL     OW 4921   0.103   4.137   2.322  0.4577 -1.2571  0.3512
 1341SOL    HW1 4922   0.108   4.119   2.420 -0.7831 -0.3362  0.6218
 1341SOL    HW2 4923   0.172   4.206   2.297 -1.3339  1.0176  1.2758
 1342SOL     OW 4924   6.972   1.842   6.591  0.1800  0.5832  0.3323
 1342SOL    HW1 4925   6.935   1.854   6.683  0.6331 -1.3339  0.8143
 1342SOL    HW2 4926   6.979   1.931   6.546 -0.4060  1.5221  1.9969
 1343SOL     OW 4927   0.738   2.080   3.960  0.0262 -0.5570  0.3090
 1343SOL    HW1 4928   0.788   2.158   3.997  0.0428  0.2387 -1.3116
 1343SOL    HW2 4929   0.656   2.064   4.014 -0.1353  0.7818  0.4856
 1344SOL     OW 4930   4.785   6.257   0.102  0.0535 -0.2403  0.4724
 1344SOL    HW1 4931   4.871   6.213   0.130 -0.3558 -0.4601  1.4473
 1344SOL    HW2 4932   4.804   6.350   0.071  0.9381 -1.0802 -1.6809
 1345SOL     OW 4933   5.909   2.766   1.657  0.2724  0.4617 -0.3771
 1345SOL    HW1 4934   5.844   2.751   1.731  1.3863  0.9354  0.7147
 1345SOL    HW2 4935   5.879   2.714   1.576 -0.4850 -0.7847  0.6628
 1346SOL     OW 4936   3.848   5.827   6.852  0.0913  0.3288  0.4299
 1346SOL    HW1 4937   3.822   5.730   6.849  2.9184 -0.7503  3.7006
 1346SOL    HW2 4938   3.775   5.880   6.894 -1.3022 -0.4072 -0.9524
 1347SOL     OW 4939   2.429   5.938   4.008 -0.7977 -0.1510  0.2242
 1347SOL    HW1 4940   2.342   5.890   3.993  0.0675 -0.8853 -3.2105
 1347SOL    HW2 4941   2.501   5.870   4.021 -0.2136  0.3369 -0.4571
 1348SOL     OW 4942   1.969   0.442   6.342  0.1888  0.4782  0.3080
 1348SOL    HW1 4943   1.997   0.504   6.416  0.2723  0.1719  0.5349
 1348SOL    HW2 4944   1.989   0.348   6.368  1.3189  0.4437 -0.6054
 1349SOL     OW 4945   3.488   6.654   1.670  0.3229 -0.8694  0.2589
 1349SOL    HW1 4946   3.533   6.668   1.581 -0.0594  1.2405  0.3496
 1349SOL    HW2 4947   3.410   6.715   1.677 -0.9784 -2.5585  1.2163
 1350SOL     OW 4948   4.928   0.513   2.984 -0.2432 -0.3220  0.3466
 1350SOL    HW1 4949   4.849   0.574   2.985 -0.0744 -0.1002  0.0861
 1350SOL    HW2 4950   4.909   0.435   2.926 -0.3170 -0.3300  0.3809
 1351SOL     OW 4951   0.890   0.193   6.099  0.6523 -0.2626  0.8703
 1351SOL    HW1 4952   0.827   0.244   6.158  1.7481  1.3940  0.6865
 1351SOL    HW2 4953   0.923   0.112   6.147 -0.9261 -0.6920  1.2848
 1352SOL     OW 4954   0.127   2.378   1.808 -0.1784  0.4353  0.3657
 1352SOL    HW1 4955   0.029   2.387   1.827 -0.3156  0.2414 -0.2296
 1352SOL    HW2 4956   0.141   2.302   1.743  0.4857 -0.4463  1.5019
 1353SOL     OW 4957   2.117   0.573   3.161  0.3186  0.4237  0.3076
 1353SOL    HW1 4958   2.103   0.647   3.227  1.1519  0.3839  0.5303
 1353SOL    HW2 4959   2.150   0.492   3.208  2.2319  0.7980 -0.3147
 1354SOL     OW 4960   5.551   6.437   1.011  0.5071 -0.1792 -0.5206
 1354SOL    HW1 4961   5.531   6.505   0.940 -0.9909 -0.3429 -0.2842
 1354SOL    HW2 4962   5.493   6.357   0.998  1.6286 -1.0611 -0.2638
 1355SOL     OW 4963   2.786   2.050   4.619 -0.0525 -0.5923 -0.2313
 1355SOL    HW1 4964   2.873   2.025   4.577  0.3916  1.4667 -0.6564
 1355SOL    HW2 4965   2.803   2.092   4.708 -0.4258  1.2307 -0.9693
 1356SOL     OW 4966   4.075   4.217   6.038  0.5945  0.0912 -0.4247
 1356SOL    HW1 4967   4.046   4.149   5.971 -0.9079 -0.2099  0.4849
 1356SOL    HW2 4968   3.998   4.277   6.061  1.2190  0.5279  0.6227
 1357SOL     OW 4969   0.333   0.067   4.680  0.3769 -0.1475 -0.2453
 1357SOL    HW1 4970   0.416   0.113   4.647 -0.7813  1.7843 -0.5648
 1357SOL    HW2 4971   0.304  -0.001   4.612  0.3401  0.8999 -1.3153
 1358SOL     OW 4972   0.128   6.863   4.240  0.2415 -0.3568  0.3109
 1358SOL    HW1 4973   0.072   6.943   4.218 -1.4421 -1.5703  0.0617
 1358SOL    HW2 4974   0.175   6.878   4.327 -0.7417  0.5506  0.7069
 1359SOL     OW 4975   1.511   3.567   6.524 -0.0442 -0.6428  0.0216
 1359SOL    HW1 4976   1.494   3.592   6.429 -1.3627 -1.7797 -0.0868
 1359SOL    HW2 4977   1.608   3.546   6.536 -0.0393 -1.6211 -1.3884
 1360SOL     OW 4978   4.717   4.226   4.014 -0.0036 -0.1272 -0.1430
 1360SOL    HW1 4979   4.662   4.285   3.956 -1.2000 -1.0528  0.0215
 1360SOL    HW2 4980   4.696   4.244   4.110 -0.7335 -1.1405 -0.1036
 1361SOL     OW 4981   4.853   4.138   0.360 -0.3815  0.7457  0.3600
 1361SOL    HW1 4982   4.830   4.206   0.291 -1.1795  0.4190  0.2984
 1361SOL    HW2 4983   4.946   4.155   0.394  0.3315  0.4607 -1.3401
 1362SOL     OW 4984   4.499   5.734   4.491 -0.3402  0.1941 -0.0965
 1362SOL    HW1 4985   4.459   5.667   4.553  1.3570  0.0296  0.8882
 1362SOL    HW2 4986   4.525   5.690   4.406  1.9962 -0.8007  1.0373
 1363SOL     OW 4987   2.643   2.355   2.057 -0.0109  0.5291  0.7180
 1363SOL    HW1 4988   2.742   2.341   2.056 -0.0643  0.1266  0.5505
 1363SOL    HW2 4989   2.622   2.452   2.066  0.4097  0.7223 -0.2093
 1364SOL     OW 4990   6.782   5.019   6.841  0.3700  0.0032  0.5227
 1364SOL    HW1 4991   6.859   4.988   6.898 -0.1673 -1.4827  0.4798
 1364SOL    HW2 4992   6.817   5.079   6.769  1.1655  1.2569  1.8903
 1365SOL     OW 4993   2.414   1.833   1.174  0.1899  0.2132 -0.1030
 1365SOL    HW1 4994   2.344   1.773   1.213 -0.8594  0.0032 -2.1603
 1365SOL    HW2 4995   2.405   1.924   1.213  0.5707 -0.4660  1.6606
 1366SOL     OW 4996   1.304   4.925   1.415 -0.4671 -0.0633  0.3251
 1366SOL    HW1 4997   1.249   4.842   1.410  1.8715 -1.6641 -0.2319
 1366SOL    HW2 4998   1.369   4.918   1.491 -0.9597  1.7660  0.9738
 1367SOL     OW 4999   0.836   3.097   0.275  0.1023 -0.0982  0.2967
 1367SOL    HW1 5000   0.777   3.045   0.213  0.1853 -0.7401  0.7427
 1367SOL    HW2 5001   0.807   3.192   0.276 -0.2089 -0.1810 -0.3513
 1368SOL     OW 5002   6.886   6.295   3.390 -0.2666  0.5063  0.4851
 1368SOL    HW1 5003   6.811   6.360   3.376  0.2300  0.9058 -0.4479
 1368SOL    HW2 5004   6.858   6.224   3.454 -1.2663  0.9284  0.5281
 1369SOL     OW 5005   3.178   5.995   0.762  0.1470  0.5964 -0.0208
 1369SOL    HW1 5006   3.216   5.947   0.842  2.2358  0.9102 -0.7650
 1369SOL    HW2 5007   3.148   5.928   0.695  0.6539  0.3087  0.0271
 1370SOL     OW 5008   3.824   5.818   3.085 -0.2850  0.1456 -0.9705
 1370SOL    HW1 5009   3.776   5.808   2.998 -1.7428 -1.2540 -0.0800
 1370SOL    HW2 5010   3.758   5.847   3.155  0.4205 -0.6795  0.0558
 1371SOL     OW 5011   3.071   4.823   6.186 -0.0393 -0.1630  0.0384
 1371SOL    HW1 5012   3.083   4.909   6.136  2.3899  1.6660  3.3122
 1371SOL    HW2 5013   2.994   4.833   6.250 -0.8249 -1.1186 -0.7286
 1372SOL     OW 5014   5.338   0.961   0.065 -0.2887  0.3143 -0.3547
 1372SOL    HW1 5015   5.376   1.037   0.011  2.3275  2.4432  3.9138
 1372SOL    HW2 5016   5.413   0.906   0.102 -1.8848 -0.8545  1.2949
 1373SOL     OW 5017   3.667   6.421   3.568 -0.0660  0.7571  0.2546
 1373SOL    HW1 5018   3.762   6.431   3.541  0.5864  1.7454  2.5981
 1373SOL    HW2 5019   3.621   6.355   3.509  1.9443  0.5688 -1.1789
 1374SOL     OW 5020   5.483   5.943   5.518 -0.5846  0.4023 -0.0388
 1374SOL    HW1 5021   5.454   5.964   5.612  0.4033 -2.9064  1.1571
 1374SOL    HW2 5022   5.567   5.993   5.498  0.3472 -0.3508  1.6998
 1375SOL     OW 5023   6.115   5.736   4.309  0.2417  0.3319 -0.1473
 1375SOL    HW1 5024   6.092   5.642   4.287  1.2480  0.1939 -0.7099
 1375SOL    HW2 5025   6.080   5.797   4.238  1.0591  0.1815 -0.7041
 1376SOL     OW 5026   4.750   2.946   0.581 -0.6659 -0.3227  1.1274
 1376SOL    HW1 5027   4.675   2.966   0.643 -1.5159  0.1537 -0.0171
 1376SOL    HW2 5028   4.727   2.867   0.524  0.7177 -1.7059  2.3700
 1377SOL     OW 5029   5.734   4.360   1.200  0.1179 -0.0648 -0.1029
 1377SOL    HW1 5030   5.703   4.414   1.122 -1.5385  0.1335  0.6575
 1377SOL    HW2 5031   5.657   4.340   1.260  0.8398 -2.4999  0.1263
 1378SOL     OW 5032   6.954   5.305   4.712 -0.7054  0.3422  0.6412
 1378SOL    HW1 5033   6.864   5.263   4.698  0.0828 -2.2315  2.4708
 1378SOL    HW2 5034   7.023   5.233   4.718  1.4815  2.2378 -0.3943
 1379SOL     OW 5035   0.448   5.289   0.438 -0.6887 -0.0025  0.0962
 1379SOL    HW1 5036   0.353   5.271   0.412 -1.0174 -0.8051  1.7333
 1379SOL    HW2 5037   0.455   5.382   0.473 -1.1699 -0.3677  1.1995
 1380SOL     OW 5038   1.427   1.263   3.270  0.7048  0.0759 -0.5538
 1380SOL    HW1 5039   1.464   1.267   3.363  1.9830  1.5090 -1.0723
 1380SOL    HW2 5040   1.502   1.266   3.204 -0.1896 -0.8805 -1.6443
 1381SOL     OW 5041   1.752   6.543   0.231 -0.3165 -0.0246 -0.3535
 1381SOL    HW1 5042   1.788   6.583   0.147  2.0260 -0.3249  0.4541
 1381SOL    HW2 5043   1.793   6.587   0.310 -0.1789 -1.7584  0.5968
 1382SOL     OW 5044   2.321   0.175   1.053  0.6522  0.3705  0.5093
 1382SOL    HW1 5045   2.372   0.109   0.998 -0.0867  0.8783 -0.8105
 1382SOL    HW2 5046   2.343   0.268   1.023  1.2540  0.7378  1.9833
 1383SOL     OW 5047   3.617   1.843   4.745 -0.1282  0.0726  0.2093
 1383SOL    HW1 5048   3.670   1.918   4.785 -1.2998  1.8621 -1.3744
 1383SOL    HW2 5049   3.676   1.765   4.727  0.9333  0.1616  2.9327
 1384SOL     OW 5050   6.313   2.945   2.720 -0.8305  0.2134  0.1527
 1384SOL    HW1 5051   6.301   2.847   2.703 -2.9109  0.6070 -0.9588
 1384SOL    HW2 5052   6.243   2.976   2.784  1.5386  0.4962  2.8208
 1385SOL     OW 5053   4.453   4.642   2.691 -0.1160 -0.1883  0.2710
 1385SOL    HW1 5054   4.482   4.549   2.715 -1.9373 -0.7989  0.2450
 1385SOL    HW2 5055   4.481   4.705   2.763  1.4726 -0.6563  0.1164
 1386SOL     OW 5056   4.262   4.656   3.608  0.1450 -0.4770  0.1831
 1386SOL    HW1 5057   4.308   4.677   3.522  2.1542  1.5121  1.6141
 1386SOL    HW2 5058   4.164   4.670   3.598  0.4992  1.2979 -1.3779
 1387SOL     OW 5059   1.937   6.517   0.689 -0.1987 -0.6002 -0.4797
 1387SOL    HW1 5060   2.021   6.466   0.668 -0.4495 -0.5210 -1.7160
 1387SOL    HW2 5061   1.948   6.612   0.661 -1.1430 -0.8650 -1.8655
 1388SOL     OW 5062   6.645   1.489   6.173 -0.0501  0.6201 -0.3725
 1388SOL    HW1 5063   6.712   1.457   6.106  0.0953  1.8520 -0.8271
 1388SOL    HW2 5064   6.693   1.533   6.249 -0.2628  0.0355  0.1043
 1389SOL     OW 5065   0.499   3.954   1.963 -0.0350  0.2716  0.3092
 1389SOL    HW1 5066   0.550   3.892   1.904  0.6812  1.5829 -0.4827
 1389SOL    HW2 5067   0.538   3.953   2.055  0.6645  0.3602  0.0165
 1390SOL     OW 5068   2.639   1.762   2.444  0.3792 -0.3311  0.0312
 1390SOL    HW1 5069   2.722   1.813   2.419 -0.0736 -0.0339 -0.9230
 1390SOL    HW2 5070   2.622   1.692   2.375 -0.6085  0.1547 -0.2370
 1391SOL     OW 5071   5.300   6.693   0.180 -0.0944 -0.2412  0.2583
 1391SOL    HW1 5072   5.220   6.696   0.119 -1.5756 -0.1402  2.1066
 1391SOL    HW2 5073   5.362   6.768   0.158 -0.9864  0.2772 -0.5874
 1392SOL     OW 5074   4.964   5.685   5.836 -0.3731  0.9360  0.2736
 1392SOL    HW1 5075   5.019   5.769   5.831  0.5513  0.2765 -1.4618
 1392SOL    HW2 5076   5.006   5.615   5.779 -0.8382 -0.9140  2.1088
 1393SOL     OW 5077   5.059   5.702   0.006  0.6441 -0.0837 -0.5090
 1393SOL    HW1 5078   5.050   5.610  -0.032  0.0062  0.4610 -1.7347
 1393SOL    HW2 5079   5.101   5.762  -0.062  2.5711  0.1917  0.8429
 1394SOL     OW 5080   2.213   1.013   3.987 -0.4382  0.2468  0.2460
 1394SOL    HW1 5081   2.195   0.916   3.972  0.4817  0.0419  0.4379
 1394SOL    HW2 5082   2.143   1.067   3.939 -1.9525 -0.5121  1.4892
 1395SOL     OW 5083   0.710   4.045   4.276 -0.2255 -0.2303  0.4232
 1395SOL    HW1 5084   0.653   3.965   4.258  0.4026 -0.5659 -0.1573
 1395SOL    HW2 5085   0.750   4.038   4.368 -2.2678  0.7460  1.4403
 1396SOL     OW 5086   3.663   1.063   0.452 -0.0296 -0.4177  0.0260
 1396SOL    HW1 5087   3.622   1.097   0.537 -0.3180 -1.3127  0.2534
 1396SOL    HW2 5088   3.599   1.078   0.376  0.0950  0.0850  0.0153
 1397SOL     OW 5089   3.095   5.060   6.820 -0.4557 -0.3651  0.1352
 1397SOL    HW1 5090   3.158   4.997   6.866 -2.2345 -1.3472  1.3256
 1397SOL    HW2 5091   3.001   5.033   6.838 -1.2897  2.0896 -0.1325
 1398SOL     OW 5092   3.652   0.191   6.158 -0.6187  0.1740  0.2009
 1398SOL    HW1 5093   3.669   0.270   6.100 -0.7998  0.9756  1.2186
 1398SOL    HW2 5094   3.735   0.170   6.211  0.6783 -2.5338 -2.5789
 1399SOL     OW 5095   4.930   3.412   1.433 -0.1481  0.0094 -0.5780
 1399SOL    HW1 5096   4.889   3.458   1.355 -1.6702 -0.6522 -0.2111
 1399SOL    HW2 5097   4.917   3.468   1.515 -0.6691 -0.3499 -0.4028
 1400SOL     OW 5098   1.085   0.626   2.796 -0.4516  0.2556 -0.6593
 1400SOL    HW1 5099   1.129   0.664   2.877 -3.3845  1.1764  0.6151
 1400SOL    HW2 5100   1.150   0.568   2.747  1.3268 -0.6820  2.5433
 1401SOL     OW 5101   2.012   2.562   6.454  0.3625  0.0556  0.4906
 1401SOL    HW1 5102   2.103   2.558   6.414  0.2411 -0.3355  0.2544
 1401SOL    HW2 5103   1.969   2.650   6.431  0.6104  0.1668  0.4552
 1402SOL     OW 5104   4.840   2.789   3.854  0.2144  0.2604 -0.0572
 1402SOL    HW1 5105   4.935   2.821   3.861 -0.3355  1.6892  1.2379
 1402SOL    HW2 5106   4.839   2.689   3.862  1.5377  0.2839  0.7873
 1403SOL     OW 5107   0.782   4.346   4.528  0.1026 -0.3914  0.1101
 1403SOL    HW1 5108   0.758   4.252   4.554  1.2530 -0.3844  1.2969
 1403SOL    HW2 5109   0.863   4.345   4.469 -0.5999 -0.1974 -0.8835
 1404SOL     OW 5110   4.067   1.375   4.466  0.5927 -0.2175 -0.0497
 1404SOL    HW1 5111   4.058   1.330   4.377 -1.4793 -0.1784  0.0909
 1404SOL    HW2 5112   4.073   1.474   4.453  1.0995 -0.2584 -0.1630
 1405SOL     OW 5113   3.262   4.212   5.400  0.0647 -0.2673  0.0399
 1405SOL    HW1 5114   3.230   4.184   5.490 -0.1587 -0.4561 -0.0956
 1405SOL    HW2 5115   3.184   4.222   5.338  0.0912  1.1670  0.2160
 1406SOL     OW 5116   0.720   6.095   6.298  0.2917  0.4600  0.0079
 1406SOL    HW1 5117   0.800   6.154   6.313  0.2560  0.3919  0.5076
 1406SOL    HW2 5118   0.711   6.075   6.201  0.2252  1.3958 -0.1933
 1407SOL     OW 5119   4.340   1.710   5.867  0.1143 -0.0198  0.1055
 1407SOL    HW1 5120   4.398   1.769   5.810  1.3956 -1.2018  0.1240
 1407SOL    HW2 5121   4.266   1.765   5.907  2.8576  2.3459  2.4499
 1408SOL     OW 5122   6.066   6.095   0.147 -0.3272 -0.0423 -0.0619
 1408SOL    HW1 5123   6.083   6.194   0.144 -0.2242 -0.0806 -2.6222
 1408SOL    HW2 5124   6.153   6.047   0.156 -0.4377  0.0652  2.0619
 1409SOL     OW 5125   5.857   4.507   2.371 -0.3928 -0.0330 -0.2250
 1409SOL    HW1 5126   5.791   4.560   2.318 -1.5113  0.5317  1.6493
 1409SOL    HW2 5127   5.935   4.565   2.396  0.4000 -0.4457 -1.6462
 1410SOL     OW 5128   3.717   1.102   3.228  0.5712  0.4682 -0.2538
 1410SOL    HW1 5129   3.777   1.099   3.308 -0.1793  0.3316  0.3171
 1410SOL    HW2 5130   3.624   1.126   3.256  0.1484 -0.2223 -0.9908
 1411SOL     OW 5131   3.718   0.222   3.957  0.0372  0.4845  0.2097
 1411SOL    HW1 5132   3.678   0.214   3.866  0.4614 -1.2274  0.1339
 1411SOL    HW2 5133   3.794   0.158   3.965 -0.3218  0.2293  1.9254
 1412SOL     OW 5134   0.740   5.140   1.062 -0.2543  0.3309  0.2295
 1412SOL    HW1 5135   0.656   5.087   1.063  0.1288 -0.2703  1.1880
 1412SOL    HW2 5136   0.793   5.118   0.980 -0.4406 -0.2202  0.2575
 1413SOL     OW 5137   5.490   6.774   4.167 -0.0120  0.5597  0.0174
 1413SOL    HW1 5138   5.498   6.787   4.266  0.3749 -0.1882  0.0947
 1413SOL    HW2 5139   5.581   6.768   4.127 -0.1559 -0.5923 -0.1735
 1414SOL     OW 5140   3.895   6.230   0.767  0.0952 -0.8114  0.3201
 1414SOL    HW1 5141   3.903   6.209   0.670  0.6568  0.9713 -0.0665
 1414SOL    HW2 5142   3.977   6.278   0.797  0.5577 -2.5825  2.0554
 1415SOL     OW 5143   3.350   6.045   5.267  0.3746 -0.1918 -0.4538
 1415SOL    HW1 5144   3.275   6.069   5.206  0.8331 -0.2957 -1.0662
 1415SOL    HW2 5145   3.435   6.038   5.215  0.9605  0.6853  0.3549
 1416SOL     OW 5146   2.560   2.028   5.858 -0.0003 -0.0820  0.1263
 1416SOL    HW1 5147   2.471   2.068   5.880  0.5415  0.2198  1.8742
 1416SOL    HW2 5148   2.572   1.942   5.907  0.7734  0.0132  0.1155
 1417SOL     OW 5149   5.404   3.381   1.122 -0.3738  0.1493  0.4282
 1417SOL    HW1 5150   5.305   3.380   1.140 -0.0607 -2.3225  2.4302
 1417SOL    HW2 5151   5.433   3.290   1.093  1.8232 -0.2128  3.3607
 1418SOL     OW 5152   4.625   4.634   5.196 -0.4150  0.2340 -0.1856
 1418SOL    HW1 5153   4.526   4.636   5.187 -0.5145 -0.6745  0.4759
 1418SOL    HW2 5154   4.661   4.553   5.150 -0.6595 -2.9220  4.4627
 1419SOL     OW 5155   0.397   1.503   1.703  0.3912  0.0099 -0.7825
 1419SOL    HW1 5156   0.332   1.565   1.745  0.1718 -1.2854  0.9198
 1419SOL    HW2 5157   0.355   1.459   1.623 -0.5545 -0.2574 -0.1484
 1420SOL     OW 5158   0.187   4.601   4.050 -0.5599 -0.3755  0.1911
 1420SOL    HW1 5159   0.230   4.567   4.133  0.7289 -0.9922 -0.6988
 1420SOL    HW2 5160   0.254   4.606   3.977 -1.1626  2.1549 -0.3022
 1421SOL     OW 5161   2.152   6.093   2.160  0.7342  0.5483  0.5671
 1421SOL    HW1 5162   2.191   6.162   2.100  2.3496 -0.5996  0.2460
 1421SOL    HW2 5163   2.225   6.036   2.198 -0.6174 -1.8365 -0.2221
 1422SOL     OW 5164   3.583   5.436   1.183  0.0391  0.0763  0.2664
 1422SOL    HW1 5165   3.608   5.345   1.149 -0.7312  0.0914 -0.3728
 1422SOL    HW2 5166   3.665   5.483   1.215  0.2673 -1.4476  2.1635
 1423SOL     OW 5167   2.038   6.291   5.656 -0.2102  0.0580  0.0919
 1423SOL    HW1 5168   2.137   6.297   5.646 -0.4154  2.8885 -1.3617
 1423SOL    HW2 5169   2.003   6.219   5.596  0.9131 -1.0530  0.7011
 1424SOL     OW 5170   2.256   4.896   0.845 -0.0991  0.0527  0.0404
 1424SOL    HW1 5171   2.307   4.887   0.930  0.4646  1.4549 -0.1124
 1424SOL    HW2 5172   2.305   4.957   0.783 -0.9859 -0.1583 -0.8994
 1425SOL     OW 5173   6.255   6.585   4.566 -0.3139 -0.2609  0.2096
 1425SOL    HW1 5174   6.248   6.554   4.471  0.2933 -0.0103  0.0761
 1425SOL    HW2 5175   6.235   6.509   4.627 -0.0724 -0.5940 -0.1200
 1426SOL     OW 5176   6.964   1.260   3.737  0.1997 -0.1229 -0.1264
 1426SOL    HW1 5177   7.022   1.260   3.819  0.2898 -0.8253 -0.1830
 1426SOL    HW2 5178   7.008   1.312   3.665  0.5942 -0.3381 -0.0461
 1427SOL     OW 5179   2.636   1.319   0.919 -0.0483 -0.4537 -0.5371
 1427SOL    HW1 5180   2.602   1.275   0.835  0.5628 -0.2904 -0.8722
 1427SOL    HW2 5181   2.626   1.418   0.910 -2.7068 -0.5035  0.7550
 1428SOL     OW 5182   1.574   1.021   0.769 -0.1915  0.1572 -0.2297
 1428SOL    HW1 5183   1.513   0.980   0.702 -0.1678 -0.0054 -0.1518
 1428SOL    HW2 5184   1.542   1.114   0.791 -0.6053 -0.0494  0.0625
 1429SOL     OW 5185   4.724   2.401   0.578 -0.2565  0.9524  0.3960
 1429SOL    HW1 5186   4.767   2.463   0.512 -1.0373  0.5475 -0.5156
 1429SOL    HW2 5187   4.764   2.310   0.569 -1.3620  0.5349 -0.5636
 1430SOL     OW 5188   3.010   4.341   0.681 -0.5027  0.4359  0.0435
 1430SOL    HW1 5189   2.950   4.418   0.656 -0.7023 -0.3930 -2.3513
 1430SOL    HW2 5190   3.043   4.298   0.597  0.5597 -1.3707  1.3435
 1431SOL     OW 5191   4.595   0.405   1.665 -0.4353 -0.7902 -0.4760
 1431SOL    HW1 5192   4.513   0.411   1.722 -0.9467 -0.5405 -1.2079
 1431SOL    HW2 5193   4.675   0.430   1.718 -1.0263  0.4577 -0.1383
 1432SOL     OW 5194   5.913   0.576   1.617 -0.4820  0.9435  0.1740
 1432SOL    HW1 5195   5.882   0.568   1.522 -0.5374 -0.9470  0.3106
 1432SOL    HW2 5196   5.833   0.576   1.678 -0.4351  1.9407  0.2544
 1433SOL     OW 5197   6.092   3.834   6.189 -0.1821  0.4245  0.1493
 1433SOL    HW1 5198   6.140   3.747   6.201  0.1326  0.6321  0.3981
 1433SOL    HW2 5199   5.995   3.815   6.173 -0.0879  0.0207  0.0260
 1434SOL     OW 5200   2.356   2.477   3.854  0.3134  0.2294  0.0646
 1434SOL    HW1 5201   2.279   2.434   3.901 -0.0174  1.0365  0.2848
 1434SOL    HW2 5202   2.328   2.568   3.823  0.2931 -0.4955 -2.2742
 1435SOL     OW 5203   0.588   4.386   0.291  0.3379  0.4559 -0.0200
 1435SOL    HW1 5204   0.577   4.291   0.263  1.5635 -0.1191  1.3109
 1435SOL    HW2 5205   0.518   4.409   0.358 -0.3587  0.7075 -0.8214
 1436SOL     OW 5206   3.185   0.291   3.629  0.0985  0.1901  0.1879
 1436SOL    HW1 5207   3.085   0.281   3.629 -0.0226  1.1861  1.3034
 1436SOL    HW2 5208   3.209   0.385   3.602  0.6159  0.5917  1.8897
 1437SOL     OW 5209   6.846   4.423   5.170  0.5601 -0.2740 -0.5067
 1437SOL    HW1 5210   6.929   4.368   5.160  0.0530 -1.2424  0.3267
 1437SOL    HW2 5211   6.869   4.519   5.177  1.7894 -0.6627  1.5729
 1438SOL     OW 5212   5.117   2.195   0.541 -0.8015 -0.4258 -0.0664
 1438SOL    HW1 5213   5.136   2.250   0.459 -0.5537 -0.8721 -0.3186
 1438SOL    HW2 5214   5.123   2.253   0.622 -1.0814  0.0311 -0.3669
 1439SOL     OW 5215   6.075   4.663   2.647  0.1015  0.2266 -0.1001
 1439SOL    HW1 5216   6.147   4.724   2.612 -1.0195  0.7296 -1.6491
 1439SOL    HW2 5217   6.062   4.680   2.744  1.9166  0.2745  0.1782
 1440SOL     OW 5218   1.106   0.413   0.726  0.1047  0.0638  0.6160
 1440SOL    HW1 5219   1.090   0.504   0.689  0.9446 -0.1278 -0.2425
 1440SOL    HW2 5220   1.204   0.395   0.729 -0.0729 -1.0792  0.0925
 1441SOL     OW 5221   6.961   5.458   3.397  0.4465 -0.1693 -0.4108
 1441SOL    HW1 5222   7.015   5.463   3.482  1.3140 -2.7550 -0.7249
 1441SOL    HW2 5223   7.023   5.441   3.320 -0.6438 -1.3006 -1.0563
 1442SOL     OW 5224   6.614   4.502   5.253  0.6259 -0.3381 -0.1738
 1442SOL    HW1 5225   6.696   4.463   5.211 -0.1291 -1.5627 -0.5760
 1442SOL    HW2 5226   6.600   4.595   5.220  1.4711 -0.3724 -0.6364
 1443SOL     OW 5227   0.390   3.760   0.786 -0.2200  0.2905  0.5248
 1443SOL    HW1 5228   0.370   3.831   0.718 -0.6172  0.8844  1.2399
 1443SOL    HW2 5229   0.360   3.671   0.753 -1.6392  0.7738  0.4643
 1444SOL     OW 5230   3.931   0.936   0.305 -0.0782 -0.2637 -0.1248
 1444SOL    HW1 5231   3.946   1.028   0.343 -0.1022 -0.6642  0.8947
 1444SOL    HW2 5232   4.018   0.886   0.304 -0.6259 -1.5435  2.9838
 1445SOL     OW 5233   1.117   3.186   3.615 -0.8680  0.0143  0.6769
 1445SOL    HW1 5234   1.147   3.138   3.697 -0.4930  0.4371  0.7936
 1445SOL    HW2 5235   1.017   3.192   3.614 -0.8417  2.3929  2.5284
 1446SOL     OW 5236   4.899   5.058   2.823 -0.0231 -0.3587  0.4755
 1446SOL    HW1 5237   4.965   4.995   2.864  0.6081 -0.0175  0.0137
 1446SOL    HW2 5238   4.947   5.120   2.760 -1.0982 -1.6614 -1.7676
 1447SOL     OW 5239   1.156   1.840   0.056 -0.7709  0.1049  0.0628
 1447SOL    HW1 5240   1.102   1.810  -0.023 -1.0098  0.1264  0.2162
 1447SOL    HW2 5241   1.096   1.886   0.121 -0.5714  0.0981  0.2504
 1448SOL     OW 5242   6.883   5.568   2.034 -0.2006 -0.5867 -0.3578
 1448SOL    HW1 5243   6.846   5.656   2.062 -1.0109 -1.1741  0.4861
 1448SOL    HW2 5244   6.813   5.516   1.985 -0.2299 -1.3418  0.4587
 1449SOL     OW 5245   2.477   6.333   4.757  0.0135 -0.1773  0.4553
 1449SOL    HW1 5246   2.482   6.411   4.695 -0.1549  1.4867  2.4236
 1449SOL    HW2 5247   2.387   6.290   4.749 -0.1111  0.1915 -0.2149
 1450SOL     OW 5248   4.875   6.740   4.833 -0.1143  0.6274  0.4005
 1450SOL    HW1 5249   4.809   6.666   4.820  1.4565 -0.6683 -0.5352
 1450SOL    HW2 5250   4.897   6.747   4.930 -0.1873 -0.2154  0.4873
 1451SOL     OW 5251   1.034   4.958   1.025 -0.4718  0.4165  0.7396
 1451SOL    HW1 5252   1.078   5.001   1.103 -0.5387  1.5987  0.1471
 1451SOL    HW2 5253   1.023   5.025   0.952  1.7649 -1.1671 -1.2304
 1452SOL     OW 5254   2.587   6.728   3.891 -0.6818  0.0257 -0.0918
 1452SOL    HW1 5255   2.495   6.692   3.873 -0.7744 -0.2535  0.8929
 1452SOL    HW2 5256   2.655   6.661   3.862 -0.7878  0.1843 -0.7166
 1453SOL     OW 5257   6.091   6.645   0.645  0.0805 -0.3373  0.4521
 1453SOL    HW1 5258   6.029   6.587   0.699  1.0839  1.2768  3.5328
 1453SOL    HW2 5259   6.179   6.652   0.691  1.5702 -0.0192 -2.2398
 1454SOL     OW 5260   3.946   1.260   0.681 -0.2649 -0.5803  0.0405
 1454SOL    HW1 5261   3.890   1.315   0.618  2.1562  1.9783 -0.0846
 1454SOL    HW2 5262   3.981   1.319   0.754  1.1596 -2.3661  0.8824
 1455SOL     OW 5263   0.271   0.036   4.005  0.3163  0.2134 -0.2018
 1455SOL    HW1 5264   0.300  -0.051   3.965  1.4678  0.2849  0.4411
 1455SOL    HW2 5265   0.193   0.020   4.066  0.4841 -0.3715 -0.1332
 1456SOL     OW 5266   2.691   6.840   2.287  1.0175  0.4451  0.1043
 1456SOL    HW1 5267   2.655   6.747   2.291  0.2920  0.7031 -0.2946
 1456SOL    HW2 5268   2.788   6.839   2.310  1.0708 -0.4414 -0.1337
 1457SOL     OW 5269   6.448   2.732   5.946  0.4423 -0.6426 -0.5094
 1457SOL    HW1 5270   6.381   2.778   5.887  1.1463 -0.6297 -1.3195
 1457SOL    HW2 5271   6.524   2.795   5.965 -0.1128 -0.3909  1.0268
 1458SOL     OW 5272   5.356   5.916   3.211  0.2284 -0.1017 -0.1230
 1458SOL    HW1 5273   5.424   5.925   3.139  0.6925 -1.0958  0.1698
 1458SOL    HW2 5274   5.306   6.002   3.221  1.9315  0.9027  0.1406
 1459SOL     OW 5275   4.250   0.707   5.827  0.1525 -0.4504 -0.2434
 1459SOL    HW1 5276   4.167   0.753   5.856 -2.0151 -2.7180 -2.3436
 1459SOL    HW2 5277   4.283   0.646   5.899  0.7628  1.3264  1.0411
 1460SOL     OW 5278   4.192   0.699   3.594  0.3351  0.0759  0.6266
 1460SOL    HW1 5279   4.234   0.747   3.671  1.2369  0.7109 -0.2326
 1460SOL    HW2 5280   4.095   0.722   3.588  0.9309  2.6440 -0.3499
 1461SOL     OW 5281   5.775   2.109   1.899 -0.2479 -0.2850  0.4770
 1461SOL    HW1 5282   5.809   2.049   1.827  0.4146  0.0606  0.4968
 1461SOL    HW2 5283   5.786   2.204   1.870 -0.6711 -0.1552  0.7281
 1462SOL     OW 5284   6.743   2.774   1.419  0.0097 -0.1143  0.1845
 1462SOL    HW1 5285   6.716   2.708   1.350  1.7612  1.2636 -1.9606
 1462SOL    HW2 5286   6.826   2.743   1.465 -0.1292 -0.1761  0.3981
 1463SOL     OW 5287   2.597   4.855   1.296 -0.0470 -0.4919 -0.3731
 1463SOL    HW1 5288   2.598   4.820   1.389  0.3175  0.1102 -0.1417
 1463SOL    HW2 5289   2.659   4.801   1.238 -1.8616 -2.2072 -0.7901
 1464SOL     OW 5290   6.292   6.168   2.033  0.1737  0.6705 -0.0835
 1464SOL    HW1 5291   6.367   6.205   1.977  0.5542 -1.5396 -1.1487
 1464SOL    HW2 5292   6.226   6.123   1.973 -0.5711  0.1555  1.0983
 1465SOL     OW 5293   1.207   5.275   0.357 -0.3003 -0.0926  0.3653
 1465SOL    HW1 5294   1.187   5.184   0.322  0.1256 -0.8252  1.9438
 1465SOL    HW2 5295   1.188   5.343   0.286 -0.5493 -1.4025 -0.8606
 1466SOL     OW 5296   0.168   3.671   0.417 -0.1314 -0.1285 -0.0100
 1466SOL    HW1 5297   0.125   3.760   0.425  0.7300  0.3873 -0.9163
 1466SOL    HW2 5298   0.104   3.607   0.375 -0.7239  0.0750  0.5722
 1467SOL     OW 5299   4.351   4.015   5.397 -0.5716 -0.6509 -0.4164
 1467SOL    HW1 5300   4.257   4.006   5.363 -0.8128  2.0924 -0.7600
 1467SOL    HW2 5301   4.374   4.112   5.403  1.4907 -1.1919  1.8437
 1468SOL     OW 5302   4.553   0.133   4.014  0.5201  0.3047 -0.1856
 1468SOL    HW1 5303   4.588   0.226   4.019  2.7452 -0.4535 -0.6341
 1468SOL    HW2 5304   4.575   0.084   4.098 -0.4158  0.0843 -0.0528
 1469SOL     OW 5305   1.594   6.158   0.695 -0.1852  0.5306 -0.5210
 1469SOL    HW1 5306   1.503   6.147   0.656 -0.8466 -0.2672  1.1389
 1469SOL    HW2 5307   1.594   6.234   0.759  0.4575  0.8318 -0.8715
 1470SOL     OW 5308   2.739   3.166   6.488 -0.0808 -0.1428 -0.4053
 1470SOL    HW1 5309   2.771   3.151   6.395 -1.5370 -0.5399 -0.8803
 1470SOL    HW2 5310   2.745   3.263   6.511  0.7131 -0.1070 -0.7422
 1471SOL     OW 5311   1.215   0.966   2.943 -0.0719  0.5279 -0.2367
 1471SOL    HW1 5312   1.202   1.061   2.912  1.6807 -0.1388 -3.5498
 1471SOL    HW2 5313   1.295   0.962   3.003  0.0310  1.1091 -0.3219
 1472SOL     OW 5314   6.705   0.165   1.988  0.2312  0.1974  0.1463
 1472SOL    HW1 5315   6.632   0.100   1.968  0.0138  0.2979  0.6123
 1472SOL    HW2 5316   6.705   0.187   2.085  1.7566 -0.8705  0.4322
 1473SOL     OW 5317   5.672   3.419   5.357 -0.3722  0.1988  0.4305
 1473SOL    HW1 5318   5.764   3.433   5.391 -0.7434  0.9615  1.1732
 1473SOL    HW2 5319   5.659   3.473   5.273 -0.3078  0.4970  0.6135
 1474SOL     OW 5320   1.741   1.264   0.570  0.2647 -0.6964 -0.0482
 1474SOL    HW1 5321   1.763   1.191   0.635  2.8554 -0.8152 -0.9175
 1474SOL    HW2 5322   1.781   1.242   0.481 -0.0627  1.1607 -0.7036
 1475SOL     OW 5323   0.242   3.085   6.556  0.2273 -0.7564 -0.3697
 1475SOL    HW1 5324   0.342   3.085   6.565  0.3637 -0.5824 -1.7511
 1475SOL    HW2 5325   0.206   2.995   6.581  0.8467 -1.1967 -1.0488
 1476SOL     OW 5326   5.572   3.843   0.521  0.2894 -0.1207  0.2181
 1476SOL    HW1 5327   5.664   3.841   0.561 -0.4091  1.7643  2.1387
 1476SOL    HW2 5328   5.505   3.858   0.594 -1.6099 -1.8218 -1.0819
 1477SOL     OW 5329   1.565   1.822   0.126  0.1032  0.5997  0.3262
 1477SOL    HW1 5330   1.488   1.819   0.063  0.2906  0.6996  0.0875
 1477SOL    HW2 5331   1.634   1.886   0.091  0.6571 -0.0999  0.1181
 1478SOL     OW 5332   6.995   2.498   2.126 -0.0433 -0.4517 -0.0400
 1478SOL    HW1 5333   6.913   2.440   2.118 -0.4251  0.2010 -0.9945
 1478SOL    HW2 5334   7.069   2.458   2.073  0.1067 -0.7782  0.4132
 1479SOL     OW 5335   3.277   6.176   1.324  0.3255  0.2523 -0.0151
 1479SOL    HW1 5336   3.249   6.131   1.410  0.7607 -0.7147 -0.3613
 1479SOL    HW2 5337   3.204   6.238   1.294 -0.3875 -0.3602  0.3907
 1480SOL     OW 5338   4.580   5.434   5.101 -0.3464 -0.2631  0.2933
 1480SOL    HW1 5339   4.557   5.393   5.013  0.6782 -1.1452  0.4167
 1480SOL    HW2 5340   4.617   5.364   5.162  2.5727  0.9764  0.1188
 1481SOL     OW 5341   1.692   6.284   0.376 -0.9847 -0.6104 -0.1986
 1481SOL    HW1 5342   1.723   6.359   0.316 -0.9061 -0.1154  0.4457
 1481SOL    HW2 5343   1.648   6.323   0.457 -2.4163 -1.2987 -0.6232
 1482SOL     OW 5344   4.830   0.133   1.923 -0.0435 -0.0371 -0.0208
 1482SOL    HW1 5345   4.804   0.046   1.965  0.2575 -0.7137 -1.1651
 1482SOL    HW2 5346   4.755   0.167   1.867 -0.9769  1.5796  2.0707
 1483SOL     OW 5347   1.084   0.096   4.433  0.2765 -0.2519 -0.2830
 1483SOL    HW1 5348   1.082   0.056   4.342  0.5673 -1.3074  0.1592
 1483SOL    HW2 5349   1.178   0.118   4.458  0.2706 -0.5140 -0.0163
 1484SOL     OW 5350   1.416   3.905   1.069 -0.3325 -0.4930  0.0221
 1484SOL    HW1 5351   1.330   3.953   1.050 -1.5781 -2.1062  1.2326
 1484SOL    HW2 5352   1.450   3.862   0.985 -0.6458  0.2173 -0.4813
 1485SOL     OW 5353   5.560   5.959   3.034  0.3338 -0.4238  0.8729
 1485SOL    HW1 5354   5.593   5.940   2.941 -0.0356 -1.4883  0.9453
 1485SOL    HW2 5355   5.570   6.057   3.053 -0.5548  0.0053 -0.6726
 1486SOL     OW 5356   1.627   0.667   1.739  0.4759  0.9873  0.2093
 1486SOL    HW1 5357   1.577   0.582   1.755 -0.2609  1.4949  0.7112
 1486SOL    HW2 5358   1.714   0.665   1.787 -0.6919  1.5501  2.4994
 1487SOL     OW 5359   5.361   3.739   1.916 -0.2746  0.4184 -0.1464
 1487SOL    HW1 5360   5.406   3.698   1.836  0.8278 -0.0958  0.7190
 1487SOL    HW2 5361   5.410   3.821   1.944 -0.8379  0.7676 -0.1675
 1488SOL     OW 5362   0.843   0.504   2.770  0.2978 -0.0564 -0.3179
 1488SOL    HW1 5363   0.841   0.517   2.671 -0.2569 -0.3612 -0.3501
 1488SOL    HW2 5364   0.930   0.537   2.806  0.6810 -0.3533 -0.9614
 1489SOL     OW 5365   6.684   4.908   3.829 -0.5085 -0.1611  0.0329
 1489SOL    HW1 5366   6.716   4.983   3.772 -1.5624 -0.8022 -1.4579
 1489SOL    HW2 5367   6.761   4.848   3.853  0.4530  1.6152  1.7059
 1490SOL     OW 5368   3.556   4.938   6.218 -0.1233  0.5693  0.6702
 1490SOL    HW1 5369   3.474   4.881   6.218 -0.3527  0.7133 -2.2329
 1490SOL    HW2 5370   3.632   4.887   6.176  0.5975  1.2636  1.1078
 1491SOL     OW 5371   1.332   0.967   6.212 -0.0605 -0.4117 -0.2922
 1491SOL    HW1 5372   1.300   0.914   6.290  2.0213 -1.4078 -0.0495
 1491SOL    HW2 5373   1.287   0.934   6.128  1.0646 -2.4893 -0.1236
 1492SOL     OW 5374   1.038   2.538   6.040  0.1773  0.2121 -0.4333
 1492SOL    HW1 5375   1.085   2.518   5.954  0.7074  0.1952 -0.1455
 1492SOL    HW2 5376   1.087   2.494   6.116  1.2035  2.2763  0.1884
 1493SOL     OW 5377   5.633   4.069   4.845  0.0647 -0.2394  0.2373
 1493SOL    HW1 5378   5.724   4.112   4.838 -0.0839 -0.2266 -2.3431
 1493SOL    HW2 5379   5.602   4.076   4.940  1.4629  2.4477  0.6297
 1494SOL     OW 5380   2.358   2.689   5.825 -0.3841 -0.1832  0.1538
 1494SOL    HW1 5381   2.265   2.687   5.862 -0.5964  0.5528 -0.3003
 1494SOL    HW2 5382   2.353   2.688   5.725  0.0107  1.3722  0.0891
 1495SOL     OW 5383   6.373   2.623   1.114  0.3776  0.0865 -0.0656
 1495SOL    HW1 5384   6.327   2.644   1.200  1.1394  0.8156  0.1786
 1495SOL    HW2 5385   6.436   2.697   1.091  1.4730 -0.8926 -0.3483
 1496SOL     OW 5386   5.145   0.367   4.977  0.2802  0.6769 -0.3742
 1496SOL    HW1 5387   5.223   0.311   4.947  0.3576  1.1597 -1.0938
 1496SOL    HW2 5388   5.107   0.416   4.899 -1.2953 -0.2014 -0.2073
 1497SOL     OW 5389   3.671   1.815   4.056 -0.3043 -0.2917 -0.2327
 1497SOL    HW1 5390   3.752   1.760   4.035  0.3002  0.5854 -0.2734
 1497SOL    HW2 5391   3.697   1.891   4.117 -1.7009 -1.8564  2.4972
 1498SOL     OW 5392   5.915   6.916   6.689 -0.0994 -0.1752 -0.9448
 1498SOL    HW1 5393   5.876   7.006   6.671  2.3325  1.6197  1.8236
 1498SOL    HW2 5394   5.951   6.878   6.604  0.1495  2.1620 -1.9603
 1499SOL     OW 5395   6.163   2.166   1.266 -0.3488 -0.2845  0.1759
 1499SOL    HW1 5396   6.152   2.241   1.332 -0.0287 -1.2888  1.4023
 1499SOL    HW2 5397   6.255   2.168   1.228 -0.2712 -0.1985  0.3687
 1500SOL     OW 5398   3.360   3.112   1.892  0.0464 -0.5691  0.0304
 1500SOL    HW1 5399   3.319   3.121   1.802  0.3354  0.4099 -0.0137
 1500SOL    HW2 5400   3.390   3.202   1.924  1.5002 -1.1495  0.3621
 1501SOL     OW 5401   3.391   3.433   2.183  0.8128  0.5279  0.0076
 1501SOL    HW1 5402   3.337   3.363   2.230  1.7653 -0.9842 -1.0651
 1501SOL    HW2 5403   3.338   3.518   2.178 -0.4780 -0.1642  1.1258
 1502SOL     OW 5404   4.903   5.239   6.853 -0.3545 -0.0299 -0.2548
 1502SOL    HW1 5405   4.893   5.196   6.943 -0.9741  0.3673 -0.1277
 1502SOL    HW2 5406   4.978   5.196   6.803  0.3897  0.1536  0.6881
 1503SOL     OW 5407   3.345   2.657   5.325  0.2771  0.1459  0.0149
 1503SOL    HW1 5408   3.438   2.665   5.359  0.5529 -1.8086 -0.1808
 1503SOL    HW2 5409   3.330   2.724   5.252  2.2384 -0.9180 -1.4401
 1504SOL     OW 5410   1.467   1.738   0.478 -0.1142  0.0881 -0.1263
 1504SOL    HW1 5411   1.539   1.685   0.433  1.9108  1.4159  1.3400
 1504SOL    HW2 5412   1.480   1.733   0.577 -2.0787  0.3785  0.1762
 1505SOL     OW 5413   2.453   1.005   6.035  0.2079  0.4869 -0.3867
 1505SOL    HW1 5414   2.476   0.934   5.969  0.6600  1.3973 -1.2226
 1505SOL    HW2 5415   2.421   1.087   5.987  2.3615  1.8618  0.3745
 1506SOL     OW 5416   3.888   4.699   6.718 -0.4348 -0.4817 -0.0106
 1506SOL    HW1 5417   3.906   4.636   6.794  1.1224 -0.3540 -0.2336
 1506SOL    HW2 5418   3.886   4.647   6.633 -2.8162 -0.7211  0.1209
 1507SOL     OW 5419   1.056   2.432   2.477 -0.2185  0.3424 -0.4279
 1507SOL    HW1 5420   1.119   2.405   2.549 -0.4301  0.2790 -0.2667
 1507SOL    HW2 5421   1.055   2.362   2.405 -1.0906 -0.3035  0.1925
 1508SOL     OW 5422   3.321   1.058   6.290 -0.1438  0.0146  0.1813
 1508SOL    HW1 5423   3.309   1.005   6.374  0.1449  0.4981  0.5352
 1508SOL    HW2 5424   3.375   1.140   6.310  1.7570 -0.9101 -0.8704
 1509SOL     OW 5425   6.326   2.089   1.962 -0.0320 -0.3942  0.4668
 1509SOL    HW1 5426   6.283   2.022   1.902  0.4533  0.8298 -1.3435
 1509SOL    HW2 5427   6.417   2.112   1.927 -0.1458  1.1261  1.0606
 1510SOL     OW 5428   6.833   2.396   2.661  0.0634 -0.0533  0.3249
 1510SOL    HW1 5429   6.771   2.319   2.678 -0.3058  0.5492  1.8770
 1510SOL    HW2 5430   6.928   2.362   2.661  0.0017 -0.3807  2.2928
 1511SOL     OW 5431   5.918   6.373   4.562 -0.9139  0.7898  0.0679
 1511SOL    HW1 5432   5.840   6.320   4.593  1.1173 -3.6822 -1.6134
 1511SOL    HW2 5433   5.906   6.397   4.465 -0.0903 -0.2581 -0.3066
 1512SOL     OW 5434   1.653   5.281   3.228 -0.5970  0.2000  0.2293
 1512SOL    HW1 5435   1.636   5.244   3.319 -0.6721 -0.4780 -0.0477
 1512SOL    HW2 5436   1.625   5.213   3.159 -0.2920  0.5924 -0.2916
 1513SOL     OW 5437   1.495   4.747   1.797  0.0637 -0.0189 -0.4389
 1513SOL    HW1 5438   1.530   4.793   1.879  0.2525 -0.8656 -0.0368
 1513SOL    HW2 5439   1.554   4.670   1.774 -0.5476 -0.3865 -0.7982
 1514SOL     OW 5440   1.916   3.610   6.877  0.1610  0.9698  0.0294
 1514SOL    HW1 5441   1.850   3.682   6.856 -1.2758  0.2090  1.6934
 1514SOL    HW2 5442   1.945   3.618   6.972  0.6212 -0.1648 -0.0029
 1515SOL     OW 5443   2.881   3.462   4.439  0.4247  0.6765  0.1859
 1515SOL    HW1 5444   2.900   3.547   4.487 -0.1604  0.7595  0.2767
 1515SOL    HW2 5445   2.863   3.481   4.342 -0.1370  0.7157  0.2908
 1516SOL     OW 5446   1.843   6.809   6.776 -0.1095  0.2272 -0.1507
 1516SOL    HW1 5447   1.824   6.871   6.700 -1.0407  0.7672  0.5065
 1516SOL    HW2 5448   1.786   6.728   6.768 -0.5364  0.4860  0.1982
 1517SOL     OW 5449   0.058   3.982   2.085 -0.5357  0.3673  0.1859
 1517SOL    HW1 5450   0.025   4.048   2.151  1.7378 -0.0203  1.8205
 1517SOL    HW2 5451   0.137   3.932   2.123  1.3066  0.5660 -3.0022
 1518SOL     OW 5452   2.507   5.234   2.952 -0.7423 -0.2893  0.1473
 1518SOL    HW1 5453   2.597   5.205   2.919 -0.1453  1.5638  0.0470
 1518SOL    HW2 5454   2.502   5.224   3.051  1.3805  3.7964  0.8923
 1519SOL     OW 5455   4.938   5.290   0.542  0.5113 -0.3543  0.6016
 1519SOL    HW1 5456   4.892   5.202   0.533  0.8935 -0.4267 -1.0702
 1519SOL    HW2 5457   4.877   5.356   0.586 -0.2290 -1.1153  0.7340
 1520SOL     OW 5458   3.288   0.162   2.846  0.1656  0.1372 -0.5314
 1520SOL    HW1 5459   3.373   0.147   2.897 -0.8025 -1.3150  0.7355
 1520SOL    HW2 5460   3.281   0.259   2.821  0.8293  0.8796  1.8811
 1521SOL     OW 5461   4.178   0.285   4.169  0.0204  0.0232  0.0159
 1521SOL    HW1 5462   4.263   0.263   4.218 -0.6018  0.0390  1.1250
 1521SOL    HW2 5463   4.110   0.214   4.186 -0.7971  0.9418  0.6546
 1522SOL     OW 5464   6.539   2.885   6.286  0.2556  0.5202 -0.0937
 1522SOL    HW1 5465   6.573   2.866   6.194 -0.2243  0.7500 -0.3192
 1522SOL    HW2 5466   6.535   2.984   6.300 -0.2746  0.4973 -0.0545
 1523SOL     OW 5467   5.735   3.290   2.256 -0.1518  0.0335  0.0656
 1523SOL    HW1 5468   5.823   3.281   2.305 -0.2442  0.5808  0.3430
 1523SOL    HW2 5469   5.660   3.289   2.322 -0.1902  2.4598  0.1277
 1524SOL     OW 5470   3.880   6.064   5.356 -0.6242  0.1966 -0.1674
 1524SOL    HW1 5471   3.915   6.107   5.273  1.6228 -0.5151  0.3270
 1524SOL    HW2 5472   3.780   6.068   5.357 -0.6367  1.5621 -2.1439
 1525SOL     OW 5473   3.215   5.994   3.864  0.5978  0.2882 -0.2872
 1525SOL    HW1 5474   3.151   5.998   3.940  1.2664 -0.5175  0.3228
 1525SOL    HW2 5475   3.175   5.940   3.790 -0.0973  1.1651 -0.5815
 1526SOL     OW 5476   2.895   1.499   4.933  0.3166 -0.5860 -0.0155
 1526SOL    HW1 5477   2.829   1.530   4.864 -0.7485  0.6682  1.4998
 1526SOL    HW2 5478   2.951   1.426   4.895 -0.4926 -0.1989 -2.0709
 1527SOL     OW 5479   2.055   4.621   4.211 -0.1965  0.0611 -0.3878
 1527SOL    HW1 5480   2.039   4.718   4.233  0.4617 -0.1487  1.1237
 1527SOL    HW2 5481   1.992   4.593   4.139  0.0529  1.7862 -1.3438
 1528SOL     OW 5482   1.480   3.677   5.604  0.8816  0.1981 -0.3016
 1528SOL    HW1 5483   1.513   3.658   5.511 -0.1760  1.2700 -0.9303
 1528SOL    HW2 5484   1.455   3.773   5.612  2.1571  0.4327  1.5176
 1529SOL     OW 5485   0.707   1.371   6.575  0.6788 -0.3635 -0.5968
 1529SOL    HW1 5486   0.692   1.275   6.599 -0.1327 -0.2693 -0.7082
 1529SOL    HW2 5487   0.794   1.380   6.525  1.1990 -0.9031  0.1917
 1530SOL     OW 5488   2.245   2.384   3.138 -0.5130 -0.4053 -0.6199
 1530SOL    HW1 5489   2.284   2.293   3.151 -0.6117 -0.7944 -2.6355
 1530SOL    HW2 5490   2.260   2.413   3.043 -1.1845  1.3498 -0.2322
 1531SOL     OW 5491   3.576   6.089   0.181 -0.9571 -0.0224 -0.1260
 1531SOL    HW1 5492   3.516   6.097   0.261 -0.2506 -1.6636  0.6064
 1531SOL    HW2 5493   3.579   5.994   0.151  1.4220 -0.0323 -0.0045
 1532SOL     OW 5494   1.793   4.247   4.254 -0.1208 -0.1903 -0.0749
 1532SOL    HW1 5495   1.882   4.260   4.296 -0.5484  0.6437  0.6120
 1532SOL    HW2 5496   1.731   4.319   4.284 -0.8454 -0.3746 -1.0578
 1533SOL     OW 5497   6.779   5.269   2.213 -0.0969  0.6303 -0.2871
 1533SOL    HW1 5498   6.724   5.193   2.248 -0.6721  0.2976 -1.8147
 1533SOL    HW2 5499   6.876   5.248   2.224 -0.0746 -2.0054 -3.7265
 1534SOL     OW 5500   5.627   4.416   3.967  0.1771 -0.3337 -0.3275
 1534SOL    HW1 5501   5.686   4.481   3.919  0.2469 -0.5999 -0.6035
 1534SOL    HW2 5502   5.684   4.355   4.023  0.1668 -0.5855 -0.5876
 1535SOL     OW 5503   2.951   5.047   1.755  0.1448 -0.0828  0.0274
 1535SOL    HW1 5504   2.952   5.094   1.667 -1.8596 -2.8332 -1.6038
 1535SOL    HW2 5505   3.043   5.011   1.774  0.4519 -0.0293 -1.2538
 1536SOL     OW 5506   2.684   5.110   1.215  0.5006 -0.0083 -0.2153
 1536SOL    HW1 5507   2.777   5.130   1.183 -0.3554  0.7688 -2.4053
 1536SOL    HW2 5508   2.678   5.014   1.242  2.8850  0.7337  3.7786
 1537SOL     OW 5509   0.419   0.258   5.228 -0.3672 -0.9675  0.0766
 1537SOL    HW1 5510   0.334   0.206   5.227  0.5814 -2.6385  0.9531
 1537SOL    HW2 5511   0.449   0.276   5.135 -1.8804  0.0611 -0.2508
 1538SOL     OW 5512   4.879   1.310   2.646  0.2221 -0.4175 -0.4338
 1538SOL    HW1 5513   4.963   1.360   2.668  1.8911 -2.8472 -0.9162
 1538SOL    HW2 5514   4.898   1.242   2.575 -2.4528 -0.2980 -1.3856
 1539SOL     OW 5515   0.991   5.410   6.155 -0.0139  0.2162  0.2429
 1539SOL    HW1 5516   1.057   5.417   6.230  0.6799  1.8853 -0.4611
 1539SOL    HW2 5517   0.917   5.348   6.181  1.7027 -1.6003  1.1448
 1540SOL     OW 5518   6.739   4.392   3.047 -0.1625 -0.5050  0.5603
 1540SOL    HW1 5519   6.659   4.333   3.049 -0.7483  0.1303 -1.3827
 1540SOL    HW2 5520   6.731   4.463   3.116 -3.4944  2.1752 -2.2249
 1541SOL     OW 5521   3.917   0.281   1.814  0.0648 -0.3563  0.2953
 1541SOL    HW1 5522   3.824   0.313   1.831  0.9606  2.6117  0.2944
 1541SOL    HW2 5523   3.982   0.344   1.857  2.1568  0.3560 -3.4612
 1542SOL     OW 5524   6.152   6.709   6.929  0.8579 -0.0411  0.3348
 1542SOL    HW1 5525   6.233   6.762   6.955  0.4270  0.5667  0.4394
 1542SOL    HW2 5526   6.147   6.702   6.829  1.7477 -1.1990  0.3408
 1543SOL     OW 5527   3.689   2.959   0.872  0.2762 -0.1826 -0.4348
 1543SOL    HW1 5528   3.665   3.007   0.957  0.9539  2.0681 -1.4158
 1543SOL    HW2 5529   3.781   2.920   0.882 -1.0923 -3.3197  1.1228
 1544SOL     OW 5530   2.554   2.501   2.670  0.1733 -0.2857  0.3629
 1544SOL    HW1 5531   2.498   2.507   2.587 -2.9141 -0.6363  2.2555
 1544SOL    HW2 5532   2.593   2.590   2.691  0.5010 -0.0584 -1.1203
 1545SOL     OW 5533   0.876   3.496   6.827  0.4964 -0.1724 -0.1016
 1545SOL    HW1 5534   0.938   3.543   6.889 -1.7689  1.6831  0.9011
 1545SOL    HW2 5535   0.806   3.560   6.794  0.2240 -1.6756 -2.7457
 1546SOL     OW 5536   2.196   2.155   0.133 -0.5248  0.9741 -0.1225
 1546SOL    HW1 5537   2.151   2.099   0.202 -2.2686  1.0244 -1.1751
 1546SOL    HW2 5538   2.266   2.212   0.177  0.7420 -1.3833  1.0976
 1547SOL     OW 5539   4.225   3.765   1.057  0.1576  0.5795  0.0785
 1547SOL    HW1 5540   4.169   3.710   1.120  1.4777  0.2190  0.9759
 1547SOL    HW2 5541   4.316   3.779   1.097  0.3769  2.0591 -0.8680
 1548SOL     OW 5542   6.176   0.908   6.782 -0.0673  0.6716 -0.0200
 1548SOL    HW1 5543   6.216   0.946   6.698  0.1551  2.3038  0.7778
 1548SOL    HW2 5544   6.248   0.886   6.847 -0.2065 -1.0654 -0.4029
 1549SOL     OW 5545   6.806   4.305   1.078  0.5300  1.0639  0.4249
 1549SOL    HW1 5546   6.757   4.283   1.162  1.0681  1.0263  0.7325
 1549SOL    HW2 5547   6.822   4.221   1.025  0.5370  1.0342  0.4742
 1550SOL     OW 5548   5.899   1.804   4.060 -0.1035 -0.0605 -0.1003
 1550SOL    HW1 5549   5.980   1.825   4.115  0.0755 -2.8162  0.8334
 1550SOL    HW2 5550   5.823   1.778   4.120 -0.8881 -0.0417 -1.0530
 1551SOL     OW 5551   1.914   1.584   1.717 -0.5379 -0.5083 -0.6828
 1551SOL    HW1 5552   2.007   1.620   1.730 -0.3138 -1.2644 -0.0693
 1551SOL    HW2 5553   1.907   1.495   1.762 -1.8773  0.0176  0.2232
 1552SOL     OW 5554   6.054   2.808   0.459  0.1964  0.0440 -0.7163
 1552SOL    HW1 5555   6.154   2.809   0.455  0.3548  0.7183  1.9347
 1552SOL    HW2 5556   6.023   2.854   0.542 -2.1589 -3.3015  0.4950
 1553SOL     OW 5557   1.877   4.904   3.994  0.9049 -0.2083  0.4585
 1553SOL    HW1 5558   1.882   4.809   3.965 -0.9963 -0.0134 -0.6678
 1553SOL    HW2 5559   1.908   4.963   3.919  0.5898  0.1217  0.5865
 1554SOL     OW 5560   0.404   0.086   6.498 -0.5046  0.0447 -0.1798
 1554SOL    HW1 5561   0.396  -0.009   6.529  4.8542 -0.0826  1.7820
 1554SOL    HW2 5562   0.330   0.140   6.537 -0.5843 -2.3210  3.3878
 1555SOL     OW 5563   6.311   2.631   3.715 -0.0392  0.2682  0.0858
 1555SOL    HW1 5564   6.335   2.627   3.618 -3.5174  0.4868 -0.9414
 1555SOL    HW2 5565   6.329   2.542   3.757  2.1173  0.3607 -0.5395
 1556SOL     OW 5566   6.821   1.503   1.187 -0.8153  0.4374 -0.1413
 1556SOL    HW1 5567   6.876   1.587   1.185  0.5450 -0.3515  1.4111
 1556SOL    HW2 5568   6.771   1.499   1.273 -1.1684 -0.1531 -0.3704
 1557SOL     OW 5569   4.223   0.857   0.148 -0.3446 -0.1503  0.0718
 1557SOL    HW1 5570   4.139   0.817   0.110  0.0259 -0.7087 -0.1738
 1557SOL    HW2 5571   4.301   0.829   0.092  0.1963 -0.8791  1.1657
 1558SOL     OW 5572   6.077   5.824   5.344 -0.4535  0.5635  0.1443
 1558SOL    HW1 5573   6.052   5.730   5.369  2.4807 -0.3197  0.1682
 1558SOL    HW2 5574   6.107   5.826   5.248  1.2454  1.0594  0.6612
 1559SOL     OW 5575   5.695   5.710   1.086 -0.1919  0.6275  0.4421
 1559SOL    HW1 5576   5.683   5.633   1.025  1.4064  1.0461 -0.4514
 1559SOL    HW2 5577   5.615   5.718   1.146 -1.1313 -0.6660 -0.5894
 1560SOL     OW 5578   4.321   2.791   1.680 -0.3997  0.6056  0.3200
 1560SOL    HW1 5579   4.341   2.794   1.582 -0.7856  0.3790  0.2331
 1560SOL    HW2 5580   4.227   2.823   1.696 -1.0816 -1.3090  0.3943
 1561SOL     OW 5581   5.554   3.391   2.483  0.2290  0.0679 -0.9795
 1561SOL    HW1 5582   5.578   3.484   2.455  0.3277  0.3743  0.0811
 1561SOL    HW2 5583   5.528   3.391   2.579  1.6254 -1.2342 -0.5610
 1562SOL     OW 5584   5.093   5.111   6.021  0.2934 -0.0680 -0.3586
 1562SOL    HW1 5585   5.119   5.026   6.066  1.4568  0.6547  0.3918
 1562SOL    HW2 5586   4.993   5.119   6.019  0.1630  0.1538  2.6763
 1563SOL     OW 5587   0.074   0.267   5.005 -0.1251 -0.1315  0.4462
 1563SOL    HW1 5588   0.057   0.357   5.045 -2.8273 -0.7196  0.8194
 1563SOL    HW2 5589   0.045   0.196   5.069  2.0564 -1.3241  0.1951
 1564SOL     OW 5590   5.684   6.760   5.465  0.1119  0.4399  0.4557
 1564SOL    HW1 5591   5.711   6.665   5.476  2.3093  0.9064 -0.4020
 1564SOL    HW2 5592   5.584   6.767   5.462 -0.0991 -1.7412  1.0415
 1565SOL     OW 5593   0.166   2.297   6.036  1.0633  0.1295 -0.2638
 1565SOL    HW1 5594   0.110   2.222   6.000  0.8360 -0.2092  0.7653
 1565SOL    HW2 5595   0.201   2.273   6.127  3.4186  0.0772 -1.1142
 1566SOL     OW 5596   3.412   5.894   2.089  0.0466 -0.3124  0.6690
 1566SOL    HW1 5597   3.353   5.828   2.044 -2.3432  0.1844  2.8318
 1566SOL    HW2 5598   3.365   5.933   2.168  2.4613  1.8447  1.2045
 1567SOL     OW 5599   4.506   0.028   6.357  0.4321  0.6290 -0.0636
 1567SOL    HW1 5600   4.580  -0.039   6.362 -0.5838 -0.7403 -2.0707
 1567SOL    HW2 5601   4.418  -0.019   6.352 -0.4088  2.1560 -0.3955
 1568SOL     OW 5602   1.012   0.720   5.395  0.1055 -0.2225 -0.1846
 1568SOL    HW1 5603   1.096   0.678   5.428 -1.1913 -1.7649  1.3361
 1568SOL    HW2 5604   1.026   0.752   5.301  3.1008  1.8835  0.8055
 1569SOL     OW 5605   4.712   0.976   5.365  0.8527  0.1526  0.1325
 1569SOL    HW1 5606   4.804   0.997   5.397  0.1690  1.1595  1.5512
 1569SOL    HW2 5607   4.653   0.959   5.444  0.0883 -1.7198 -0.8009
 1570SOL     OW 5608   4.193   1.890   1.324  0.1048 -0.0928  0.3873
 1570SOL    HW1 5609   4.133   1.877   1.403 -0.5492  0.2116 -0.0499
 1570SOL    HW2 5610   4.204   1.803   1.275 -1.2509  0.1444 -0.4085
 1571SOL     OW 5611   6.540   0.444   0.393  0.0988  0.5454  0.9924
 1571SOL    HW1 5612   6.497   0.497   0.467 -2.0327 -0.5271  0.6076
 1571SOL    HW2 5613   6.546   0.348   0.420 -0.7381  0.1288 -0.2059
 1572SOL     OW 5614   4.222   2.439   6.039  0.0993  0.0775 -0.1715
 1572SOL    HW1 5615   4.302   2.413   6.093 -1.6172  0.0925  2.5394
 1572SOL    HW2 5616   4.246   2.518   5.982  1.5217  1.3401  2.0249
 1573SOL     OW 5617   0.302   0.264   2.827 -0.7830 -0.2740  0.5008
 1573SOL    HW1 5618   0.213   0.282   2.868 -1.1434  2.3515 -1.1264
 1573SOL    HW2 5619   0.368   0.334   2.858  0.5019 -1.6593  1.0129
 1574SOL     OW 5620   1.141   0.696   4.985 -0.2728 -0.1561  0.4083
 1574SOL    HW1 5621   1.179   0.634   5.055 -0.4514 -0.2244  0.4441
 1574SOL    HW2 5622   1.092   0.771   5.030  1.5517  1.0798  0.4361
 1575SOL     OW 5623   3.808   6.705   3.301  0.5139  0.0769  0.8310
 1575SOL    HW1 5624   3.831   6.699   3.204 -0.8086  0.9764  0.4303
 1575SOL    HW2 5625   3.818   6.800   3.331 -1.3142  0.2538  0.9547
 1576SOL     OW 5626   4.336   6.508   4.157  0.3539 -0.7370  0.0462
 1576SOL    HW1 5627   4.280   6.449   4.099  1.0686 -0.2121 -1.2077
 1576SOL    HW2 5628   4.416   6.538   4.107  0.8649 -0.0400  1.2314
 1577SOL     OW 5629   3.725   0.637   4.961 -0.1448 -0.7880  0.3663
 1577SOL    HW1 5630   3.666   0.599   4.891 -1.8086  0.9725  0.7456
 1577SOL    HW2 5631   3.689   0.725   4.993  3.2216  0.9660 -0.1323
 1578SOL     OW 5632   2.985   2.046   1.672 -0.8437 -0.4737  0.6240
 1578SOL    HW1 5633   3.023   2.041   1.764 -0.1106  1.9172  0.5198
 1578SOL    HW2 5634   3.060   2.048   1.605 -1.1599  1.5546  0.2552
 1579SOL     OW 5635   3.951   6.452   6.907  0.7868  0.1338  0.4142
 1579SOL    HW1 5636   4.049   6.474   6.909  0.4826  1.5266  2.2049
 1579SOL    HW2 5637   3.937   6.358   6.936  1.5305  0.2112  1.0324
 1580SOL     OW 5638   4.241   3.135   1.440  0.5404  0.1555  0.1025
 1580SOL    HW1 5639   4.294   3.117   1.522  0.3306 -2.5650 -0.2619
 1580SOL    HW2 5640   4.162   3.073   1.437 -2.2981  3.4631  0.2086
 1581SOL     OW 5641   5.523   3.207   4.351  0.7422  0.1692  0.3136
 1581SOL    HW1 5642   5.494   3.286   4.406 -0.0315  0.6834 -0.8049
 1581SOL    HW2 5643   5.549   3.132   4.412  1.3658  1.2318  1.3968
 1582SOL     OW 5644   1.304   4.577   1.674  0.5423 -0.2419 -0.4141
 1582SOL    HW1 5645   1.341   4.484   1.673 -0.0928 -0.5302  0.8867
 1582SOL    HW2 5646   1.373   4.640   1.713  0.1246 -0.5862  0.9356
 1583SOL     OW 5647   3.090   2.471   1.428  0.2904 -0.0725 -0.5617
 1583SOL    HW1 5648   3.116   2.374   1.422  0.2693 -0.3957  2.7814
 1583SOL    HW2 5649   3.015   2.482   1.492 -0.7204  2.0731 -1.9921
 1584SOL     OW 5650   2.096   4.597   7.016 -0.6861  0.3905 -0.2735
 1584SOL    HW1 5651   2.003   4.588   7.050 -0.6989  1.3085 -0.0567
 1584SOL    HW2 5652   2.107   4.541   6.934 -1.7274  1.1018 -0.9182
 1585SOL     OW 5653   2.661   5.506   0.898  0.4238  0.3620  0.0995
 1585SOL    HW1 5654   2.653   5.477   0.994 -2.4289  0.3653 -0.0393
 1585SOL    HW2 5655   2.611   5.592   0.886 -0.5965 -0.4256 -1.6561
 1586SOL     OW 5656   3.494   1.882   1.648 -0.0461  0.1719  0.3973
 1586SOL    HW1 5657   3.496   1.944   1.727 -0.9328 -0.1485  0.6793
 1586SOL    HW2 5658   3.554   1.918   1.576  0.6299  0.5624  1.1370
 1587SOL     OW 5659   6.256   0.136   0.668 -0.4387 -0.0571  0.1157
 1587SOL    HW1 5660   6.291   0.168   0.579  1.2413 -1.3051  0.2860
 1587SOL    HW2 5661   6.162   0.102   0.656 -0.5095  0.4783 -1.0183
 1588SOL     OW 5662   4.364   6.572   6.388 -0.8065 -0.3014 -0.2357
 1588SOL    HW1 5663   4.429   6.539   6.320 -0.6171  1.6423 -1.0843
 1588SOL    HW2 5664   4.414   6.604   6.469 -0.5822  1.4809 -1.0104
 1589SOL     OW 5665   4.149   5.694   0.612 -0.0590  0.0060 -0.5548
 1589SOL    HW1 5666   4.174   5.715   0.517 -1.3025  2.8094 -0.3575
 1589SOL    HW2 5667   4.071   5.631   0.614  0.8811 -1.2347 -1.3063
 1590SOL     OW 5668   1.889   0.503   6.088  0.3239  0.8136  0.7392
 1590SOL    HW1 5669   1.935   0.490   6.176  1.9307 -1.8676 -0.3748
 1590SOL    HW2 5670   1.813   0.439   6.080  0.8385  0.2901 -0.1871
 1591SOL     OW 5671   1.215   2.055   1.346  0.3994  0.5292 -0.4525
 1591SOL    HW1 5672   1.214   2.037   1.444  0.1136 -1.0691 -0.7209
 1591SOL    HW2 5673   1.283   1.996   1.302  1.6991  2.3529 -1.0515
 1592SOL     OW 5674   1.493   3.677   4.891 -0.2573 -0.2479 -0.3622
 1592SOL    HW1 5675   1.567   3.732   4.853 -0.5879 -0.5440 -1.4709
 1592SOL    HW2 5676   1.461   3.612   4.821 -1.4172 -0.2662  0.1764
 1593SOL     OW 5677   2.365   6.833   2.314 -1.1878  0.3274  0.3298
 1593SOL    HW1 5678   2.328   6.847   2.406 -3.2805 -1.2569 -0.1943
 1593SOL    HW2 5679   2.303   6.874   2.247  0.2791  1.3996 -0.4259
 1594SOL     OW 5680   2.949   5.446   5.916  0.0044  1.0336 -0.2744
 1594SOL    HW1 5681   2.961   5.489   5.827 -0.6535 -0.3637 -1.0670
 1594SOL    HW2 5682   2.852   5.439   5.937  0.0625 -0.4257 -0.3790
 1595SOL     OW 5683   3.518   5.793   0.166 -0.7522  0.3005 -0.4445
 1595SOL    HW1 5684   3.578   5.713   0.163 -1.4178 -0.1888 -1.5275
 1595SOL    HW2 5685   3.505   5.822   0.260 -1.2589 -1.4573  0.0605
 1596SOL     OW 5686   0.130   0.833   3.685  0.1335  0.7516  0.0914
 1596SOL    HW1 5687   0.120   0.763   3.615  0.7718  1.5941 -0.8796
 1596SOL    HW2 5688   0.073   0.912   3.662  0.9095  1.3322  0.1108
 1597SOL     OW 5689   5.110   0.557   6.106 -0.3591 -0.3568  0.0179
 1597SOL    HW1 5690   5.093   0.593   6.197 -0.1831  1.6498 -0.6898
 1597SOL    HW2 5691   5.078   0.623   6.037  0.5156 -1.3079 -1.3635
 1598SOL     OW 5692   2.092   5.507   0.456  0.1971 -0.0696  0.0104
 1598SOL    HW1 5693   2.135   5.418   0.443  0.1053 -0.0206 -0.6752
 1598SOL    HW2 5694   2.139   5.557   0.528  1.4598  0.0916 -0.8980
 1599SOL     OW 5695   2.079   5.445   5.193  0.1096 -0.1170  0.0011
 1599SOL    HW1 5696   2.011   5.404   5.131 -0.3206 -0.1361  0.4753
 1599SOL    HW2 5697   2.104   5.377   5.263  0.5111 -0.0592 -0.0848
 1600SOL     OW 5698   6.971   3.333   1.227 -0.1426 -0.4030 -0.0958
 1600SOL    HW1 5699   6.985   3.278   1.310 -1.4588 -2.8873 -1.3964
 1600SOL    HW2 5700   6.981   3.275   1.146  1.0696  1.9365 -1.7425
 1601SOL     OW 5701   0.184   4.698   3.492  0.1821 -0.6781 -0.2646
 1601SOL    HW1 5702   0.126   4.694   3.411 -0.7509  0.9660  0.2752
 1601SOL    HW2 5703   0.175   4.612   3.543 -1.8333 -0.4716 -0.1788
 1602SOL     OW 5704   1.485   3.944   4.471  0.0588 -0.1664 -0.0303
 1602SOL    HW1 5705   1.476   3.847   4.493 -3.1706 -0.1261 -0.6513
 1602SOL    HW2 5706   1.463   3.999   4.551  1.3960  0.0621  0.1874
 1603SOL     OW 5707   5.537   5.265   2.065  0.0067 -0.0065 -0.3047
 1603SOL    HW1 5708   5.514   5.254   2.162 -0.1632 -0.3484 -0.3839
 1603SOL    HW2 5709   5.626   5.309   2.057  1.1023 -2.0452  0.0388
 1604SOL     OW 5710   0.030   6.450   5.681 -0.3206 -0.4316  0.0008
 1604SOL    HW1 5711   0.079   6.371   5.644 -0.6488 -1.9324  2.4710
 1604SOL    HW2 5712  -0.059   6.419   5.717 -0.4688  1.0682  1.0138
 1605SOL     OW 5713   6.235   1.104   1.800 -0.3494 -0.3802  0.0290
 1605SOL    HW1 5714   6.276   1.195   1.795 -1.0146  0.0124  1.3578
 1605SOL    HW2 5715   6.246   1.066   1.892 -1.0796 -1.1632 -0.1891
 1606SOL     OW 5716   4.303   6.643   3.635  0.5570 -0.0886 -0.0944
 1606SOL    HW1 5717   4.374   6.603   3.692 -0.4544 -1.3762  0.3076
 1606SOL    HW2 5718   4.249   6.708   3.689  1.3430  0.8494 -0.3859
 1607SOL     OW 5719   2.669   6.590   6.632  0.4403 -0.4298  0.7347
 1607SOL    HW1 5720   2.682   6.620   6.537 -0.3654  0.2057  0.8179
 1607SOL    HW2 5721   2.709   6.657   6.694  1.1269 -0.9331  0.8592
 1608SOL     OW 5722   3.699   5.285   5.989 -0.0732  0.1459  0.1188
 1608SOL    HW1 5723   3.785   5.235   6.001 -0.1466  0.2120  0.9749
 1608SOL    HW2 5724   3.628   5.245   6.046 -0.3662  0.6690  0.1320
 1609SOL     OW 5725   2.805   6.723   0.132  0.8593 -0.2666  0.3601
 1609SOL    HW1 5726   2.795   6.628   0.102  0.8011  0.0954 -0.8076
 1609SOL    HW2 5727   2.750   6.738   0.214  0.5454 -1.1313  0.3180
 1610SOL     OW 5728   4.985   4.518   3.195  0.0134  0.3540 -0.2536
 1610SOL    HW1 5729   4.970   4.441   3.134  0.2749  0.1033 -0.0067
 1610SOL    HW2 5730   5.061   4.497   3.257 -0.5035  0.4527  0.4159
 1611SOL     OW 5731   4.758   1.111   0.542  0.6008 -0.0372  0.1151
 1611SOL    HW1 5732   4.781   1.115   0.445 -1.9990 -0.9196 -0.6176
 1611SOL    HW2 5733   4.794   1.027   0.582  0.6512 -0.2602 -0.3962
 1612SOL     OW 5734   6.716   6.825   5.360  0.2103 -0.0118  0.0263
 1612SOL    HW1 5735   6.773   6.742   5.367 -2.1620 -1.6797  0.7380
 1612SOL    HW2 5736   6.659   6.819   5.278 -0.2231  0.7692  0.2631
 1613SOL     OW 5737   6.382   0.497   1.589  0.3696  0.4570  0.1795
 1613SOL    HW1 5738   6.379   0.493   1.489 -0.2002  2.5781  0.0623
 1613SOL    HW2 5739   6.290   0.487   1.626  0.6589 -1.0214  0.5667
 1614SOL     OW 5740   2.974   6.267   3.236 -0.3592  0.3745 -0.7576
 1614SOL    HW1 5741   2.988   6.301   3.143 -2.9424  0.1800 -1.3111
 1614SOL    HW2 5742   3.026   6.182   3.249  0.0633  0.4212 -2.0226
 1615SOL     OW 5743   4.908   5.573   5.255  0.5051 -0.2436  0.4546
 1615SOL    HW1 5744   4.858   5.585   5.169  2.1426 -1.4163 -0.7277
 1615SOL    HW2 5745   4.848   5.595   5.331 -1.4030 -0.3493 -0.9313
 1616SOL     OW 5746   6.001   3.513   0.821  0.2778 -0.1821 -0.5400
 1616SOL    HW1 5747   5.919   3.458   0.813  1.1422 -2.2694  2.8926
 1616SOL    HW2 5748   5.991   3.578   0.897  1.4570  0.2333 -0.7158
 1617SOL     OW 5749   4.100   5.550   6.607 -0.1284  0.0990 -0.4994
 1617SOL    HW1 5750   4.117   5.648   6.613  0.3143  0.1203 -1.8502
 1617SOL    HW2 5751   4.177   5.505   6.561  0.8386 -1.2599  2.2035
 1618SOL     OW 5752   3.668   3.196   4.305  0.4804 -0.7449 -0.4346
 1618SOL    HW1 5753   3.658   3.099   4.286  0.4949 -0.8837  0.2534
 1618SOL    HW2 5754   3.579   3.235   4.328  0.7917 -1.0636  1.4251
 1619SOL     OW 5755   6.277   3.312   0.299 -0.1150 -0.0618 -0.3484
 1619SOL    HW1 5756   6.290   3.215   0.279  1.3699  0.1551 -0.5507
 1619SOL    HW2 5757   6.312   3.367   0.224  1.1707  0.6672  0.7471
 1620SOL     OW 5758   1.816   6.698   6.288 -0.1264  0.1324 -0.4927
 1620SOL    HW1 5759   1.895   6.728   6.235  0.5869  0.8486  0.9174
 1620SOL    HW2 5760   1.846   6.638   6.363 -1.0906 -0.7567 -0.7863
 1621SOL     OW 5761   3.627   4.787   6.664  0.2608 -0.0679 -0.3152
 1621SOL    HW1 5762   3.620   4.812   6.567  0.0585  0.0608 -0.2698
 1621SOL    HW2 5763   3.723   4.781   6.690  0.3158  0.0185 -0.4947
 1622SOL     OW 5764   1.838   1.195   5.074  0.3033  0.0321 -0.3654
 1622SOL    HW1 5765   1.842   1.163   4.980  0.5931  0.1006 -0.3769
 1622SOL    HW2 5766   1.928   1.185   5.117  0.2367  0.2322 -0.1748
 1623SOL     OW 5767   3.452   6.096   3.638 -0.2457  0.3626 -1.0054
 1623SOL    HW1 5768   3.467   6.158   3.715 -2.2336  1.0376 -1.1114
 1623SOL    HW2 5769   3.481   6.139   3.553  3.0102 -0.8034 -0.6071
 1624SOL     OW 5770   2.293   4.380   6.920  0.6627 -0.5626  0.6144
 1624SOL    HW1 5771   2.347   4.441   6.861 -0.0926 -0.9589 -0.5108
 1624SOL    HW2 5772   2.303   4.286   6.889  1.6482 -1.0215  2.2141
 1625SOL     OW 5773   2.102   6.566   5.992  0.3642  0.0388 -0.0525
 1625SOL    HW1 5774   2.011   6.530   6.013  0.9806 -0.7180  1.5137
 1625SOL    HW2 5775   2.118   6.559   5.894 -1.0428 -0.3407 -0.2889
 1626SOL     OW 5776   1.917   6.358   0.993 -0.3533  0.7709 -0.6748
 1626SOL    HW1 5777   1.979   6.390   1.064 -0.1081 -0.6482 -0.2182
 1626SOL    HW2 5778   1.873   6.436   0.949 -1.3765  1.6924  1.7860
 1627SOL     OW 5779   0.078   4.515   0.091  0.3365  0.2445 -0.5166
 1627SOL    HW1 5780   0.010   4.458   0.046 -0.3375  0.8491 -0.2772
 1627SOL    HW2 5781   0.165   4.507   0.043 -0.0331 -0.1329 -1.1350
 1628SOL     OW 5782   6.411   2.389   2.703  0.2525 -0.0692 -0.4566
 1628SOL    HW1 5783   6.451   2.333   2.631  0.4017 -1.2852  0.5299
 1628SOL    HW2 5784   6.452   2.365   2.791  0.0405  1.3403  0.0527
 1629SOL     OW 5785   0.809   0.694   1.727 -0.0860 -0.0041  0.2235
 1629SOL    HW1 5786   0.720   0.721   1.689  0.8467  0.6224 -1.6258
 1629SOL    HW2 5787   0.839   0.763   1.793 -1.0862 -0.3881  1.1221
 1630SOL     OW 5788   5.640   2.509   4.086  0.2784  0.5141 -0.4548
 1630SOL    HW1 5789   5.619   2.588   4.028 -1.1421  0.5145  0.0175
 1630SOL    HW2 5790   5.638   2.426   4.030  0.2939  0.6610 -0.6752
 1631SOL     OW 5791   4.759   1.760   5.335 -0.2825 -0.0754 -0.3963
 1631SOL    HW1 5792   4.815   1.679   5.320  1.3193  1.1603 -1.3196
 1631SOL    HW2 5793   4.667   1.731   5.362  0.2957 -2.1801 -0.4636
 1632SOL     OW 5794   3.507   0.770   4.740  0.0326 -0.6219  1.0198
 1632SOL    HW1 5795   3.459   0.828   4.806  2.1865  0.5213  1.6732
 1632SOL    HW2 5796   3.578   0.824   4.695  0.2053 -2.0414 -0.4800
 1633SOL     OW 5797   3.013   6.830   2.606 -0.4042 -0.6262 -0.8621
 1633SOL    HW1 5798   3.095   6.840   2.663  2.2005  1.2303 -4.4912
 1633SOL    HW2 5799   2.943   6.894   2.635 -0.2406 -1.5019  1.6875
 1634SOL     OW 5800   1.644   0.366   5.219  0.3577  0.5505 -0.1587
 1634SOL    HW1 5801   1.607   0.449   5.177 -0.4204  0.1144 -0.3644
 1634SOL    HW2 5802   1.570   0.299   5.231  0.9701 -0.1130 -0.0020
 1635SOL     OW 5803   0.252   0.974   3.355 -0.7624  0.0707  0.5357
 1635SOL    HW1 5804   0.261   0.935   3.264 -1.5752 -1.0544  0.9194
 1635SOL    HW2 5805   0.344   0.990   3.393 -0.4217 -0.1055 -0.1922
 1636SOL     OW 5806   5.779   3.756   1.370 -0.2026  0.1299 -0.2722
 1636SOL    HW1 5807   5.747   3.836   1.319 -1.3021 -0.9303 -1.3183
 1636SOL    HW2 5808   5.701   3.709   1.410  0.3898 -0.6185  0.0224
 1637SOL     OW 5809   6.993   2.693   1.732 -0.4497 -0.0747 -0.7608
 1637SOL    HW1 5810   6.946   2.775   1.763 -0.8775 -1.1010  1.4718
 1637SOL    HW2 5811   7.092   2.703   1.747 -0.3052  0.6560 -2.0725
 1638SOL     OW 5812   6.835   2.355   0.279 -0.3360  0.1633 -0.2527
 1638SOL    HW1 5813   6.762   2.385   0.341  0.8955  1.5988  0.5782
 1638SOL    HW2 5814   6.833   2.409   0.195  0.5448  1.1571  0.3332
 1639SOL     OW 5815   1.437   5.551   1.396  0.6169  0.6795  0.2953
 1639SOL    HW1 5816   1.417   5.523   1.302 -0.6428 -0.3365  0.8305
 1639SOL    HW2 5817   1.425   5.650   1.405 -0.5999  0.6125 -0.3214
 1640SOL     OW 5818   1.779   4.899   0.962  0.1448  0.1667  0.4777
 1640SOL    HW1 5819   1.837   4.980   0.971 -1.0442  0.8239  3.0649
 1640SOL    HW2 5820   1.811   4.827   1.024 -0.4199 -0.3316  0.2087
 1641SOL     OW 5821   5.538   0.621   3.247  0.7904  0.1695  0.9095
 1641SOL    HW1 5822   5.461   0.667   3.201 -1.2164 -2.7557  1.0933
 1641SOL    HW2 5823   5.594   0.573   3.179  0.5296 -0.3639  1.0661
 1642SOL     OW 5824   3.870   0.058   1.684  0.2032  0.3472 -0.2009
 1642SOL    HW1 5825   3.882   0.153   1.712  0.0325  0.6313 -1.0583
 1642SOL    HW2 5826   3.785   0.049   1.633  0.7267 -0.0518 -1.0192
 1643SOL     OW 5827   3.615   6.722   4.399  0.5606 -0.3807  0.4763
 1643SOL    HW1 5828   3.589   6.805   4.449 -0.6664  0.1105 -0.8882
 1643SOL    HW2 5829   3.692   6.743   4.338  0.4360 -0.3058  0.3424
 1644SOL     OW 5830   2.699   5.064   2.651 -0.0620  0.2561  0.1628
 1644SOL    HW1 5831   2.670   5.099   2.561  1.1407 -0.4564 -0.5275
 1644SOL    HW2 5832   2.744   5.137   2.702 -1.0647  0.7655  0.3645
 1645SOL     OW 5833   3.316   2.071   6.015  0.1070 -0.0108 -0.0163
 1645SOL    HW1 5834   3.367   1.998   6.059  0.2326 -0.2501 -0.5496
 1645SOL    HW2 5835   3.366   2.157   6.023  0.1363 -0.0533  0.2847
 1646SOL     OW 5836   4.505   4.610   3.717  0.7253 -0.4319  0.1117
 1646SOL    HW1 5837   4.573   4.679   3.692 -0.2942  0.5189 -0.1074
 1646SOL    HW2 5838   4.416   4.634   3.677  0.1947 -1.5070  0.6004
 1647SOL     OW 5839   1.625   2.756   0.911 -0.7292 -0.3674  0.4196
 1647SOL    HW1 5840   1.670   2.681   0.862  0.4858 -0.6646  1.8787
 1647SOL    HW2 5841   1.691   2.828   0.929 -0.9970 -0.4613  1.9438
 1648SOL     OW 5842   5.817   5.083   4.000 -0.5385  0.2860 -0.0004
 1648SOL    HW1 5843   5.779   5.166   4.039  0.1533  0.7393 -0.2701
 1648SOL    HW2 5844   5.752   5.008   4.011 -1.5922  1.0807 -0.6520
 1649SOL     OW 5845   6.921   4.859   4.764  0.0043  0.3527 -0.9327
 1649SOL    HW1 5846   6.838   4.871   4.709 -0.3344 -1.8912 -0.9912
 1649SOL    HW2 5847   6.900   4.875   4.860 -0.4685 -0.0227 -0.9696
 1650SOL     OW 5848   2.761   1.269   2.745  0.1234 -0.7323  0.7098
 1650SOL    HW1 5849   2.790   1.246   2.652 -0.4902 -0.5930  0.4750
 1650SOL    HW2 5850   2.662   1.252   2.754 -0.5030  2.2303  0.3826
 1651SOL     OW 5851   5.428   5.749   1.200  0.1050 -0.1502  0.2373
 1651SOL    HW1 5852   5.359   5.788   1.139  2.0928 -0.7972 -2.6074
 1651SOL    HW2 5853   5.458   5.818   1.265 -0.3333  1.3765 -1.1295
 1652SOL     OW 5854   3.404   5.739   2.420  0.2559 -0.2605  0.0062
 1652SOL    HW1 5855   3.332   5.678   2.453  0.3933 -0.6940 -0.4654
 1652SOL    HW2 5856   3.445   5.700   2.337  1.2712 -0.2013  0.4621
 1653SOL     OW 5857   5.673   0.709   6.380 -0.7683 -0.6148 -0.1109
 1653SOL    HW1 5858   5.582   0.752   6.384  0.5173  2.4058 -0.5919
 1653SOL    HW2 5859   5.708   0.715   6.287  0.4952 -0.3596  0.3631
 1654SOL     OW 5860   4.274   0.551   0.367  0.0925 -0.1094 -0.7116
 1654SOL    HW1 5861   4.350   0.574   0.305  0.7917  1.6767  0.7144
 1654SOL    HW2 5862   4.303   0.562   0.462 -0.8997 -2.9780  0.0309
 1655SOL     OW 5863   1.043   4.750   0.061  0.3958 -0.0085  0.1735
 1655SOL    HW1 5864   0.944   4.760   0.074 -0.3755 -2.1972 -2.8874
 1655SOL    HW2 5865   1.080   4.694   0.135 -0.9794 -0.5798  0.4642
 1656SOL     OW 5866   1.627   6.061   5.192  0.2192 -0.2886 -0.4115
 1656SOL    HW1 5867   1.566   5.985   5.217 -1.5321  1.0026 -0.5159
 1656SOL    HW2 5868   1.680   6.089   5.271 -0.8311 -0.1489  0.2652
 1657SOL     OW 5869   6.820   0.841   6.153  0.5041 -0.1434  0.2286
 1657SOL    HW1 5870   6.850   0.776   6.083  0.7898  0.0544  0.1657
 1657SOL    HW2 5871   6.743   0.894   6.119  0.0725 -0.6579  0.3916
 1658SOL     OW 5872   1.549   1.844   4.642  0.2220  0.3516  0.4082
 1658SOL    HW1 5873   1.540   1.746   4.626  1.9699  0.0792  0.8420
 1658SOL    HW2 5874   1.588   1.860   4.733 -1.3404  1.5308  0.9324
 1659SOL     OW 5875   0.034   3.893   0.300  0.3759  0.0033 -0.0513
 1659SOL    HW1 5876  -0.065   3.879   0.298  0.4984 -1.1050  0.7000
 1659SOL    HW2 5877   0.058   3.954   0.376  0.2405  0.5847 -0.4725
 1660SOL     OW 5878   6.327   6.898   0.608 -0.2204 -0.4263  0.1360
 1660SOL    HW1 5879   6.321   6.993   0.639  1.5259 -0.0309 -0.5706
 1660SOL    HW2 5880   6.329   6.837   0.688 -1.7266  0.0703  0.5872
 1661SOL     OW 5881   1.785   0.229   6.750 -0.2385  0.0508  0.3213
 1661SOL    HW1 5882   1.741   0.301   6.803 -0.8307  1.1211 -1.5339
 1661SOL    HW2 5883   1.871   0.203   6.794  1.1145  3.4517 -0.0427
 1662SOL     OW 5884   4.112   3.602   1.643  0.4349 -0.0623  0.2881
 1662SOL    HW1 5885   4.159   3.556   1.569 -0.1550 -0.1776 -0.0244
 1662SOL    HW2 5886   4.015   3.611   1.620  0.0103 -1.1615  1.5472
 1663SOL     OW 5887   6.489   4.201   3.203  0.0384  0.4287 -0.0407
 1663SOL    HW1 5888   6.472   4.116   3.152 -3.2649 -0.4345  2.1207
 1663SOL    HW2 5889   6.436   4.275   3.162  2.0131  1.2490 -1.2327
 1664SOL     OW 5890   1.837   1.619   0.975  0.0346  0.1964 -0.4339
 1664SOL    HW1 5891   1.909   1.686   0.990  0.3399  0.1478 -1.5749
 1664SOL    HW2 5892   1.813   1.617   0.878 -0.2179 -1.0928 -0.3592
 1665SOL     OW 5893   6.560   4.419   2.405 -0.3120 -0.3731 -0.9105
 1665SOL    HW1 5894   6.519   4.480   2.473 -0.1462 -0.4581 -0.7332
 1665SOL    HW2 5895   6.562   4.326   2.441 -1.0606 -0.5812 -1.3971
 1666SOL     OW 5896   2.005   5.208   5.336 -0.0062 -0.3378  0.5195
 1666SOL    HW1 5897   1.984   5.270   5.412  0.8222 -1.0419  1.3367
 1666SOL    HW2 5898   1.921   5.190   5.285 -0.4246  0.7766  0.7672
 1667SOL     OW 5899   1.431   2.570   5.764 -0.2501 -0.2113 -0.2951
 1667SOL    HW1 5900   1.411   2.646   5.827 -0.0159 -0.4106  0.0254
 1667SOL    HW2 5901   1.419   2.601   5.670 -1.3939 -0.1325 -0.1363
 1668SOL     OW 5902   0.026   4.194   5.577 -0.3261 -0.1329  0.0992
 1668SOL    HW1 5903   0.086   4.271   5.554 -1.3809  0.8064  0.4371
 1668SOL    HW2 5904   0.077   4.109   5.566  0.7233  0.5683 -0.7585
 1669SOL     OW 5905   0.412   3.541   1.017  0.1284 -0.8223 -0.1936
 1669SOL    HW1 5906   0.478   3.476   0.980 -0.8922 -1.9071 -0.1601
 1669SOL    HW2 5907   0.433   3.633   0.984  2.2501 -0.9682  0.6166
 1670SOL     OW 5908   1.195   2.103   2.793 -0.2469 -0.7301 -0.3459
 1670SOL    HW1 5909   1.289   2.116   2.760 -0.1816  0.0953  0.1479
 1670SOL    HW2 5910   1.196   2.049   2.877 -0.0929  0.3887  0.3881
 1671SOL     OW 5911   0.133   1.113   2.711  0.3133  0.4349 -0.6769
 1671SOL    HW1 5912   0.082   1.157   2.637 -0.5855 -0.8960 -0.8765
 1671SOL    HW2 5913   0.228   1.100   2.683  0.2049  0.7891 -1.2227
 1672SOL     OW 5914   3.820   6.030   6.022 -0.0009  0.3761  0.0538
 1672SOL    HW1 5915   3.745   5.964   6.028  0.7172 -0.3948  0.8304
 1672SOL    HW2 5916   3.836   6.055   5.927  1.9702 -3.2508 -0.7285
 1673SOL     OW 5917   1.123   5.930   1.923 -0.1379  0.3744 -0.0541
 1673SOL    HW1 5918   1.196   5.889   1.867  0.0299  0.4709  0.0959
 1673SOL    HW2 5919   1.158   6.012   1.968  0.0715 -0.3470  1.1174
 1674SOL     OW 5920   6.933   4.310   0.715  0.3799  0.2057 -0.2720
 1674SOL    HW1 5921   6.953   4.277   0.623 -0.2151  1.7486 -1.0008
 1674SOL    HW2 5922   6.961   4.406   0.723  0.6421  0.0391  1.2515
 1675SOL     OW 5923   4.922   3.651   4.163 -0.7202 -0.9495  0.1445
 1675SOL    HW1 5924   5.017   3.629   4.188 -0.2281 -0.0539 -0.8726
 1675SOL    HW2 5925   4.913   3.648   4.063 -1.4530  0.2104  0.1699
 1676SOL     OW 5926   0.960   0.960   3.669 -0.3421  0.3201  0.5545
 1676SOL    HW1 5927   0.882   1.023   3.665 -1.2033 -0.7943 -2.5763
 1676SOL    HW2 5928   0.983   0.929   3.577  1.7036 -1.9850  1.7273
 1677SOL     OW 5929   2.211   3.971   3.661  0.1127 -0.9293  0.1226
 1677SOL    HW1 5930   2.195   3.938   3.568  3.0279 -0.4275 -0.6850
 1677SOL    HW2 5931   2.222   3.894   3.723 -1.4705 -1.2726  0.0221
 1678SOL     OW 5932   6.270   2.334   6.375 -0.3747 -0.5019  0.2536
 1678SOL    HW1 5933   6.347   2.357   6.434 -0.8153  2.0594 -0.0601
 1678SOL    HW2 5934   6.298   2.340   6.279 -0.2028 -2.6805  0.0972
 1679SOL     OW 5935   2.165   1.172   3.542 -0.0921  0.2485 -0.0264
 1679SOL    HW1 5936   2.169   1.261   3.497  0.2573 -0.4788 -1.5092
 1679SOL    HW2 5937   2.119   1.181   3.630 -0.5554  1.7826 -0.3900
 1680SOL     OW 5938   2.283   5.289   0.187  0.5913  0.1870 -0.5529
 1680SOL    HW1 5939   2.184   5.285   0.200  0.5976  1.3003 -0.0812
 1680SOL    HW2 5940   2.320   5.196   0.185 -0.1525 -0.2022  1.6563
 1681SOL     OW 5941   1.150   6.720   2.271  0.2513  0.5352 -0.0086
 1681SOL    HW1 5942   1.054   6.742   2.286  0.1068  0.6349 -0.9851
 1681SOL    HW2 5943   1.159   6.670   2.185  1.2884  2.3642 -1.0168
 1682SOL     OW 5944   3.209   1.778   2.022 -0.1470  0.3604 -0.2295
 1682SOL    HW1 5945   3.149   1.854   2.046  1.3471  1.0039  1.7409
 1682SOL    HW2 5946   3.189   1.748   1.929 -2.0388  1.9148 -0.3880
 1683SOL     OW 5947   0.949   5.967   4.682  0.1080  0.0602 -0.0733
 1683SOL    HW1 5948   0.853   5.959   4.655  0.3490 -0.4461 -0.8182
 1683SOL    HW2 5949   0.962   5.927   4.772 -0.4754  0.5960  0.2554
 1684SOL     OW 5950   3.829   3.056   4.779 -0.4823 -0.2039 -0.5274
 1684SOL    HW1 5951   3.821   3.156   4.775  1.2742  0.0072  0.3903
 1684SOL    HW2 5952   3.795   3.017   4.694  1.2264  1.3690 -2.0176
 1685SOL     OW 5953   4.225   6.487   6.089  0.1988 -0.5194 -0.1945
 1685SOL    HW1 5954   4.319   6.515   6.108 -0.1393 -0.4544  1.4968
 1685SOL    HW2 5955   4.216   6.388   6.100  0.4296 -0.7943 -2.0680
 1686SOL     OW 5956   3.503   3.972   5.517  0.6476  0.1036 -0.0924
 1686SOL    HW1 5957   3.575   3.935   5.576  0.4002 -1.3151 -0.6340
 1686SOL    HW2 5958   3.521   4.069   5.499  1.5860  0.1560  0.9963
 1687SOL     OW 5959   3.645   0.640   3.462  0.1486 -0.0705  0.2906
 1687SOL    HW1 5960   3.724   0.664   3.517 -0.1308  0.8868  0.2875
 1687SOL    HW2 5961   3.629   0.711   3.394  0.4179 -1.1726 -0.9635
 1688SOL     OW 5962   6.203   4.455   5.542 -0.3951  0.1742  0.3070
 1688SOL    HW1 5963   6.262   4.390   5.589  0.3706  0.7695  0.1786
 1688SOL    HW2 5964   6.255   4.503   5.472 -0.6137  1.8395  1.2419
 1689SOL     OW 5965   3.217   6.307   3.655 -0.1702 -0.1348 -0.1297
 1689SOL    HW1 5966   3.288   6.378   3.663 -0.8180  0.5171 -0.0056
 1689SOL    HW2 5967   3.260   6.217   3.655  0.7228  0.2772 -0.9674
 1690SOL     OW 5968   2.173   1.197   1.902 -0.2270  0.3727  0.1304
 1690SOL    HW1 5969   2.194   1.199   1.804  0.3494  0.2244  0.2493
 1690SOL    HW2 5970   2.215   1.117   1.944 -0.4886  0.4256  0.5016
 1691SOL     OW 5971   5.180   4.535   2.045 -0.1545  0.3768  0.0382
 1691SOL    HW1 5972   5.151   4.576   1.959  0.0979  1.9598  0.6824
 1691SOL    HW2 5973   5.118   4.460   2.069 -1.0369  0.8078 -0.8228
 1692SOL     OW 5974   1.413   5.414   4.600  0.4242  0.0382  0.1700
 1692SOL    HW1 5975   1.463   5.480   4.544  1.7761 -1.5459 -0.5685
 1692SOL    HW2 5976   1.330   5.457   4.636  0.9124  1.9153 -0.8206
 1693SOL     OW 5977   6.911   2.013   4.151  0.3047 -0.3343 -0.5541
 1693SOL    HW1 5978   6.995   2.066   4.142  0.3458 -0.0458  1.1134
 1693SOL    HW2 5979   6.836   2.074   4.178  0.2358 -1.0072  0.8689
 1694SOL     OW 5980   3.929   4.829   3.108 -0.1998 -0.0139  0.5941
 1694SOL    HW1 5981   4.014   4.786   3.077  0.3109  0.4409  1.3392
 1694SOL    HW2 5982   3.934   4.844   3.206 -1.5304 -0.8254  0.8070
 1695SOL     OW 5983   6.999   3.878   2.605 -0.0386  0.2263 -0.4730
 1695SOL    HW1 5984   7.060   3.838   2.538  3.0931 -0.1410  2.3392
 1695SOL    HW2 5985   6.904   3.855   2.582  1.0111 -1.6869 -3.4513
 1696SOL     OW 5986   2.044   5.922   0.218 -0.3005 -0.2223  1.0377
 1696SOL    HW1 5987   2.025   5.855   0.289  2.3475 -0.5256  1.5891
 1696SOL    HW2 5988   2.039   6.014   0.256  1.1387 -0.3855  1.6940
 1697SOL     OW 5989   3.704   6.627   2.072  0.0509 -0.0046 -0.0306
 1697SOL    HW1 5990   3.622   6.668   2.111 -0.9693 -2.0062  0.0589
 1697SOL    HW2 5991   3.679   6.547   2.017  1.8443  0.0787 -1.0636
 1698SOL     OW 5992   5.276   1.400   5.164 -0.2795  0.6926 -0.1317
 1698SOL    HW1 5993   5.339   1.461   5.213 -0.6155  0.7724  0.2058
 1698SOL    HW2 5994   5.279   1.309   5.206  0.7333  0.2766 -1.0607
 1699SOL     OW 5995   5.921   2.179   0.325  0.4455  0.7845  0.2092
 1699SOL    HW1 5996   5.907   2.267   0.370  0.7591  1.1081 -0.3094
 1699SOL    HW2 5997   5.987   2.190   0.251 -0.2526  0.3256 -0.4995
 1700SOL     OW 5998   5.325   4.823   4.381  0.3298  0.8320 -0.0484
 1700SOL    HW1 5999   5.309   4.900   4.443  0.4054  1.5616 -0.9179
 1700SOL    HW2 6000   5.423   4.819   4.359 -0.0430  2.2862 -2.2562
 1701SOL     OW 6001   2.263   5.070   4.354  0.2984  0.1037 -0.6011
 1701SOL    HW1 6002   2.294   4.989   4.305 -0.5873 -0.8481  0.3823
 1701SOL    HW2 6003   2.192   5.045   4.419  1.1815  1.3760  0.9247
 1702SOL     OW 6004   6.156   1.825   4.408 -0.2675 -0.4706  0.0747
 1702SOL    HW1 6005   6.129   1.869   4.322  1.0462 -1.5509 -0.9493
 1702SOL    HW2 6006   6.225   1.755   4.389  0.6326 -0.2220  2.1038
 1703SOL     OW 6007   6.503   6.348   4.899 -0.6530 -0.1276  0.4560
 1703SOL    HW1 6008   6.599   6.350   4.870 -0.5680 -1.5229  0.5857
 1703SOL    HW2 6009   6.448   6.404   4.836 -0.0035 -0.6679 -0.6160
 1704SOL     OW 6010   3.911   3.687   2.692  0.2797 -0.5595  0.0699
 1704SOL    HW1 6011   3.833   3.630   2.716  0.4074 -0.3969  0.9325
 1704SOL    HW2 6012   3.882   3.783   2.685  0.5463 -0.3610  1.3261
 1705SOL     OW 6013   6.315   0.937   1.523 -0.3923  0.0410  0.0532
 1705SOL    HW1 6014   6.308   0.991   1.607 -3.0903  0.4675 -0.3463
 1705SOL    HW2 6015   6.230   0.885   1.511  0.9085 -1.9065 -1.1954
 1706SOL     OW 6016   6.495   0.131   6.942  0.1476  0.2471 -0.5588
 1706SOL    HW1 6017   6.467   0.222   6.973  1.5300 -0.2156  2.3520
 1706SOL    HW2 6018   6.538   0.139   6.852 -0.6259  2.2821 -0.8184
 1707SOL     OW 6019   0.509   4.154   3.139  0.3064  0.4626  0.6927
 1707SOL    HW1 6020   0.416   4.164   3.104  0.4417  0.6785  0.3831
 1707SOL    HW2 6021   0.573   4.199   3.076  0.6263  0.2528  0.8640
 1708SOL     OW 6022   4.804   3.892   0.257 -0.3653  0.5323 -0.1805
 1708SOL    HW1 6023   4.828   3.983   0.292  1.1516  0.1347 -0.1129
 1708SOL    HW2 6024   4.707   3.890   0.234 -0.6307  1.8795  0.6969
 1709SOL     OW 6025   2.434   5.286   1.437 -0.0677 -0.2561 -0.1301
 1709SOL    HW1 6026   2.412   5.189   1.448  1.8575 -0.7056  0.0598
 1709SOL    HW2 6027   2.514   5.309   1.493  0.0712  1.2195 -0.8860
 1710SOL     OW 6028   4.749   6.841   3.814  0.3189  0.7627  0.6619
 1710SOL    HW1 6029   4.819   6.900   3.773  0.1570 -0.1808 -1.1119
 1710SOL    HW2 6030   4.659   6.879   3.797  0.2715  0.5735  0.4784
 1711SOL     OW 6031   0.663   5.429   4.324 -0.1892 -0.4510  0.1174
 1711SOL    HW1 6032   0.656   5.515   4.274  0.2833  0.0001  0.8276
 1711SOL    HW2 6033   0.665   5.446   4.422  3.1582 -0.9894  0.2456
 1712SOL     OW 6034   2.258   1.718   2.825 -0.6182  0.1817 -0.1910
 1712SOL    HW1 6035   2.208   1.793   2.779  0.0752  0.1416 -1.0361
 1712SOL    HW2 6036   2.332   1.686   2.766 -0.0695 -0.2861  0.7239
 1713SOL     OW 6037   0.884   5.596   5.052  0.9578 -0.1296  0.2340
 1713SOL    HW1 6038   0.884   5.630   5.146 -2.0961 -2.8631  1.3993
 1713SOL    HW2 6039   0.806   5.635   5.002 -0.4331 -2.3747  0.4986
 1714SOL     OW 6040   2.206   1.666   0.499 -0.0534  1.3057 -0.5082
 1714SOL    HW1 6041   2.132   1.732   0.484  0.7908  2.9050  1.7779
 1714SOL    HW2 6042   2.171   1.573   0.489 -2.2639  2.0288  0.0257
 1715SOL     OW 6043   0.234   4.015   3.941 -0.4436 -0.4379 -0.0102
 1715SOL    HW1 6044   0.136   4.033   3.944 -0.5193 -0.8784  0.4816
 1715SOL    HW2 6045   0.266   4.016   3.847 -0.6013  1.3263 -0.0793
 1716SOL     OW 6046   5.034   4.241   1.221  0.1488  0.1114  0.1899
 1716SOL    HW1 6047   5.074   4.268   1.133  0.0542 -0.4635 -0.0319
 1716SOL    HW2 6048   5.013   4.143   1.219  0.8179 -0.0631  1.1081
 1717SOL     OW 6049   4.325   5.839   0.159 -0.7542 -0.6738  0.5242
 1717SOL    HW1 6050   4.416   5.851   0.201 -1.3990  0.1825  1.7388
 1717SOL    HW2 6051   4.334   5.841   0.060  0.6722 -1.5241  0.6021
 1718SOL     OW 6052   1.271   1.849   2.091  0.0880 -0.4499  0.2139
 1718SOL    HW1 6053   1.368   1.869   2.079  0.2351 -1.4534 -0.4120
 1718SOL    HW2 6054   1.218   1.897   2.021  0.2306 -0.6084 -0.0044
 1719SOL     OW 6055   0.228   4.950   5.614 -0.3570  0.1784  0.4370
 1719SOL    HW1 6056   0.160   4.912   5.677  0.4127 -2.0517  0.0239
 1719SOL    HW2 6057   0.308   4.979   5.666  0.1724 -1.4238  0.5816
 1720SOL     OW 6058   6.755   1.629   6.382  0.0376  0.7081 -0.6997
 1720SOL    HW1 6059   6.763   1.723   6.414 -0.9709  0.3201  0.7875
 1720SOL    HW2 6060   6.762   1.566   6.460 -0.1851 -0.4109 -1.5544
 1721SOL     OW 6061   0.276   1.722   1.285 -0.4188 -0.5614  0.5210
 1721SOL    HW1 6062   0.310   1.724   1.378  1.0317 -0.5894  0.0149
 1721SOL    HW2 6063   0.335   1.663   1.229 -0.0339  1.0405 -0.8552
 1722SOL     OW 6064   2.539   2.003   3.575  0.4250  0.1909 -0.2151
 1722SOL    HW1 6065   2.549   2.103   3.574 -0.1159  0.2445 -0.2833
 1722SOL    HW2 6066   2.630   1.961   3.575  0.7010  0.6948  1.8332
 1723SOL     OW 6067   1.582   1.454   0.662 -0.2324  0.0763 -0.0972
 1723SOL    HW1 6068   1.514   1.396   0.707  0.2861 -1.4666 -1.2083
 1723SOL    HW2 6069   1.658   1.397   0.630  0.5231  1.4505 -0.8257
 1724SOL     OW 6070   3.869   3.944   4.957 -0.3362  0.2036  0.7368
 1724SOL    HW1 6071   3.921   3.963   4.873 -1.7870  0.2621 -0.1922
 1724SOL    HW2 6072   3.836   4.030   4.995  0.1677  0.1604  1.2921
 1725SOL     OW 6073   1.266   4.284   0.821  0.1411 -0.2796 -0.2475
 1725SOL    HW1 6074   1.261   4.228   0.739  1.3652  0.4219 -0.8198
 1725SOL    HW2 6075   1.362   4.293   0.850 -0.1099  0.8338  0.2977
 1726SOL     OW 6076   0.250   1.932   1.054 -0.2272 -0.7289 -0.8282
 1726SOL    HW1 6077   0.173   1.889   1.008 -1.6679  0.6922  0.1426
 1726SOL    HW2 6078   0.232   1.937   1.152 -0.7184  2.9612 -0.9629
 1727SOL     OW 6079   4.024   3.626   4.687 -0.0002  0.1938  0.6626
 1727SOL    HW1 6080   4.055   3.685   4.613 -2.2615 -0.4499 -0.8892
 1727SOL    HW2 6081   3.954   3.674   4.741  0.0909 -0.0990  1.0488
 1728SOL     OW 6082   1.953   0.947   1.625 -0.1145 -0.0188  0.3285
 1728SOL    HW1 6083   2.046   0.959   1.592  0.3609 -0.9062  1.2743
 1728SOL    HW2 6084   1.906   0.879   1.568 -0.1483  0.3295 -0.0652
 1729SOL     OW 6085   0.699   6.179   1.880 -0.1884 -0.1252  0.0737
 1729SOL    HW1 6086   0.607   6.141   1.870 -0.7813  1.2874 -0.0103
 1729SOL    HW2 6087   0.762   6.129   1.820 -0.3376 -2.7752  1.9532
 1730SOL     OW 6088   5.531   4.011   4.050 -0.2459  0.5988  0.2111
 1730SOL    HW1 6089   5.583   4.096   4.058  1.4729 -0.3402 -0.4112
 1730SOL    HW2 6090   5.562   3.946   4.119 -0.9083  0.1454  0.0987
 1731SOL     OW 6091   5.539   3.031   0.347  0.6452  0.0507 -0.0511
 1731SOL    HW1 6092   5.516   3.032   0.250  1.8142  0.4926 -0.3375
 1731SOL    HW2 6093   5.565   3.123   0.376  2.8438 -0.5533  0.0305
 1732SOL     OW 6094   2.228   2.773   2.277 -0.4552 -0.0734 -0.2875
 1732SOL    HW1 6095   2.165   2.698   2.296  1.8174 -2.2558 -0.8339
 1732SOL    HW2 6096   2.222   2.798   2.180  0.3573 -1.1695 -0.6409
 1733SOL     OW 6097   0.358   3.562   2.409 -1.0259  0.3752 -0.1612
 1733SOL    HW1 6098   0.420   3.517   2.345 -0.7967  1.0709 -0.4326
 1733SOL    HW2 6099   0.409   3.630   2.462 -1.6400  1.2289 -0.6631
 1734SOL     OW 6100   1.964   3.169   0.238  0.6281 -0.1932 -0.1636
 1734SOL    HW1 6101   1.932   3.245   0.295 -1.3873 -0.2665 -1.1285
 1734SOL    HW2 6102   2.035   3.118   0.287  0.6573  1.1623  1.2691
 1735SOL     OW 6103   1.523   4.088   1.830 -0.1054 -0.0892  0.4428
 1735SOL    HW1 6104   1.558   4.123   1.917 -0.2970 -0.7277  0.7886
 1735SOL    HW2 6105   1.586   4.110   1.756  0.4486 -0.2225  0.8732
 1736SOL     OW 6106   6.417   2.012   6.677  0.1259 -0.2743 -0.1534
 1736SOL    HW1 6107   6.321   2.018   6.704  0.4205  0.7885  0.7839
 1736SOL    HW2 6108   6.471   1.976   6.753  0.7401  1.1246  0.1152
 1737SOL     OW 6109   2.415   3.215   0.787 -0.3157  0.0814  0.0404
 1737SOL    HW1 6110   2.415   3.207   0.687 -0.3055 -2.1976  0.1646
 1737SOL    HW2 6111   2.320   3.222   0.819 -0.3035  1.1617 -0.1251
 1738SOL     OW 6112   0.482   2.139   4.723 -0.6958 -0.6610  0.0522
 1738SOL    HW1 6113   0.486   2.212   4.654  0.0440 -0.7451 -0.0049
 1738SOL    HW2 6114   0.396   2.147   4.774 -2.2433 -1.8054 -2.1841
 1739SOL     OW 6115   0.949   5.128   3.469  0.1859  0.2864 -0.0081
 1739SOL    HW1 6116   0.937   5.075   3.553 -0.4943 -1.4636 -1.1521
 1739SOL    HW2 6117   0.997   5.214   3.490 -2.0684  1.0694  2.5591
 1740SOL     OW 6118   4.868   0.587   0.880  0.2982 -0.1710  0.1762
 1740SOL    HW1 6119   4.808   0.526   0.933 -0.3907  2.0437  2.1087
 1740SOL    HW2 6120   4.813   0.647   0.822  0.8822 -0.3071 -0.5464
 1741SOL     OW 6121   6.653   3.450   4.501 -0.2571 -0.1131  0.0474
 1741SOL    HW1 6122   6.604   3.527   4.459 -1.1894  0.4618  2.0758
 1741SOL    HW2 6123   6.586   3.387   4.542  0.2455 -3.4324 -3.6197
 1742SOL     OW 6124   6.245   4.336   3.909 -0.2559 -0.7104  0.1698
 1742SOL    HW1 6125   6.252   4.268   3.982 -0.3981 -1.5051 -0.5377
 1742SOL    HW2 6126   6.280   4.297   3.823  0.6065  0.4492 -0.0449
 1743SOL     OW 6127   6.794   1.753   1.021  0.3478  0.1319 -0.4959
 1743SOL    HW1 6128   6.712   1.790   1.065  0.2513 -2.6872  1.9965
 1743SOL    HW2 6129   6.767   1.697   0.942 -0.0674 -0.0274 -0.2441
 1744SOL     OW 6130   3.401   0.187   3.402  0.3394 -0.2107 -0.0834
 1744SOL    HW1 6131   3.360   0.209   3.314  1.0279 -0.2524 -0.4264
 1744SOL    HW2 6132   3.389   0.263   3.465 -0.3788 -0.2828 -0.1320
 1745SOL     OW 6133   1.577   2.846   3.935  0.7780 -0.1204  0.2571
 1745SOL    HW1 6134   1.485   2.860   3.973  1.4758  0.8395  1.7044
 1745SOL    HW2 6135   1.608   2.754   3.955 -0.4432 -1.0066 -1.6238
 1746SOL     OW 6136   5.327   3.857   4.299  0.1007  0.3147 -0.5982
 1746SOL    HW1 6137   5.292   3.934   4.247  0.5037 -1.5346 -3.8589
 1746SOL    HW2 6138   5.425   3.846   4.283  0.2964 -0.2086  0.7691
 1747SOL     OW 6139   0.932   5.006   6.985  0.5156 -0.2169  0.4634
 1747SOL    HW1 6140   0.855   5.030   7.045  1.1879  1.2259  0.7771
 1747SOL    HW2 6141   1.007   4.971   7.040  1.4418  1.8750  0.6275
 1748SOL     OW 6142   5.941   0.337   6.875 -0.0476  0.2368 -0.1342
 1748SOL    HW1 6143   5.972   0.309   6.784 -1.5072  1.1172 -0.9277
 1748SOL    HW2 6144   5.842   0.340   6.878 -0.0742 -0.6949  1.8012
 1749SOL     OW 6145   3.395   5.821   3.031 -0.1694 -0.4814  0.4470
 1749SOL    HW1 6146   3.308   5.801   2.986 -0.7474  1.0700  0.8278
 1749SOL    HW2 6147   3.395   5.780   3.122 -0.5546 -0.3837  0.4939
 1750SOL     OW 6148   5.855   1.341   3.514  0.0498 -0.1298  0.3498
 1750SOL    HW1 6149   5.783   1.312   3.577 -0.1993  1.1647  0.7016
 1750SOL    HW2 6150   5.824   1.422   3.464  0.6903 -0.4556 -0.5984
 1751SOL     OW 6151   1.616   6.725   3.620  0.5455 -0.3906  0.3934
 1751SOL    HW1 6152   1.662   6.694   3.703  0.1765  0.2052  0.8395
 1751SOL    HW2 6153   1.674   6.789   3.571 -0.2669  1.4329  1.6694
 1752SOL     OW 6154   5.154   6.935   2.150  0.4450  0.4703 -0.1710
 1752SOL    HW1 6155   5.181   6.848   2.191 -2.1059 -0.9886 -1.2754
 1752SOL    HW2 6156   5.124   6.998   2.222  0.4192 -0.3315  0.5390
 1753SOL     OW 6157   0.763   5.258   2.036 -0.0821 -0.6599  0.6083
 1753SOL    HW1 6158   0.667   5.235   2.055  0.1051 -1.2645  0.8570
 1753SOL    HW2 6159   0.822   5.196   2.088  0.4549 -1.3055 -0.7250
 1754SOL     OW 6160   0.908   0.680   0.794  0.2482  0.6231  0.2774
 1754SOL    HW1 6161   0.959   0.767   0.801  1.0867  0.1220  0.5755
 1754SOL    HW2 6162   0.850   0.682   0.713 -0.1267  1.6601  0.5529
 1755SOL     OW 6163   3.902   1.559   2.504  0.3682  0.5302 -0.3439
 1755SOL    HW1 6164   3.961   1.599   2.434  0.4291 -0.2850 -0.7630
 1755SOL    HW2 6165   3.821   1.617   2.517 -0.0468  0.2638 -1.6676
 1756SOL     OW 6166   2.793   1.921   0.217  0.2225 -0.1118 -0.0972
 1756SOL    HW1 6167   2.719   1.856   0.207  0.4679 -0.3815 -0.1758
 1756SOL    HW2 6168   2.818   1.958   0.128  0.3180 -0.1735 -0.0964
 1757SOL     OW 6169   0.502   6.555   6.640 -0.3231  0.6748 -0.5903
 1757SOL    HW1 6170   0.544   6.505   6.564 -1.1041  0.7977 -1.1174
 1757SOL    HW2 6171   0.429   6.500   6.680 -1.2004  1.3861 -1.1860
 1758SOL     OW 6172   3.519   0.198   1.135  0.4456  0.0127  0.4733
 1758SOL    HW1 6173   3.453   0.272   1.126  0.5490 -0.0610 -1.0757
 1758SOL    HW2 6174   3.479   0.113   1.103  1.1708 -0.0997 -0.1451
 1759SOL     OW 6175   3.060   5.343   3.738  0.5432  0.0684  0.0306
 1759SOL    HW1 6176   2.962   5.348   3.719 -0.0175 -0.5764  2.4551
 1759SOL    HW2 6177   3.086   5.247   3.751  1.6071  0.2015 -0.9256
 1760SOL     OW 6178   6.296   3.488   2.941 -0.2036  0.4276  0.3199
 1760SOL    HW1 6179   6.349   3.405   2.925  2.0985  1.4928  2.0105
 1760SOL    HW2 6180   6.304   3.549   2.862 -1.1880 -0.5336 -0.5553
 1761SOL     OW 6181   6.683   5.292   5.647 -0.3380  0.5198  0.3863
 1761SOL    HW1 6182   6.751   5.232   5.604 -0.4013 -0.3764  1.4909
 1761SOL    HW2 6183   6.619   5.237   5.701 -1.0948  1.4852  0.5018
 1762SOL     OW 6184   6.052   3.933   6.741  0.3875  0.3212  0.2638
 1762SOL    HW1 6185   6.018   4.014   6.789  0.0276  1.8819 -2.3902
 1762SOL    HW2 6186   6.083   3.960   6.650  0.4578 -2.5320 -0.6456
 1763SOL     OW 6187   6.354   6.331   4.414 -0.2722 -0.0327  0.3448
 1763SOL    HW1 6188   6.358   6.410   4.352 -0.9201  0.0663  0.4259
 1763SOL    HW2 6189   6.444   6.317   4.455  0.0968  0.0791 -0.3969
 1764SOL     OW 6190   5.491   1.321   1.775  0.3444  0.8141 -0.0978
 1764SOL    HW1 6191   5.475   1.290   1.869  0.9828 -1.1706 -0.5911
 1764SOL    HW2 6192   5.409   1.365   1.740 -0.3381  0.4098  0.9498
 1765SOL     OW 6193   5.174   0.684   2.884  0.0580 -0.2342 -0.1593
 1765SOL    HW1 6194   5.078   0.689   2.854 -0.3993 -0.8130  1.1205
 1765SOL    HW2 6195   5.227   0.635   2.815 -0.6784 -0.3875 -0.6407
 1766SOL     OW 6196   1.688   1.875   5.245 -0.1025  0.0730  0.1339
 1766SOL    HW1 6197   1.749   1.806   5.206 -0.0657 -0.0595  0.4261
 1766SOL    HW2 6198   1.706   1.885   5.343  1.5699  2.2135 -0.3207
 1767SOL     OW 6199   0.858   1.483   1.059 -0.4564 -0.1573  0.5702
 1767SOL    HW1 6200   0.933   1.527   1.107 -0.0318  1.7326 -1.6245
 1767SOL    HW2 6201   0.775   1.538   1.069  0.0198  1.1833 -2.0084
 1768SOL     OW 6202   2.407   5.031   1.437  0.2429  0.4622  0.0769
 1768SOL    HW1 6203   2.409   4.993   1.530 -1.1377 -0.4261 -0.2434
 1768SOL    HW2 6204   2.474   4.983   1.380 -0.4171 -0.4728  0.0711
 1769SOL     OW 6205   0.526   4.970   1.125  0.1770 -0.0092  0.0238
 1769SOL    HW1 6206   0.540   5.008   1.217  0.1699  0.1511 -0.0410
 1769SOL    HW2 6207   0.449   5.017   1.082  0.2903  0.0335 -0.1299
 1770SOL     OW 6208   6.002   0.183   1.564  0.2771 -0.6106 -0.2299
 1770SOL    HW1 6209   6.015   0.089   1.595 -1.2738 -0.5442  0.7537
 1770SOL    HW2 6210   6.087   0.217   1.524  0.6299 -2.7130 -1.4431
 1771SOL     OW 6211   2.383   2.308   6.454 -0.0554 -0.5607 -0.1695
 1771SOL    HW1 6212   2.473   2.329   6.493 -1.8870  3.3373  2.5850
 1771SOL    HW2 6213   2.334   2.246   6.514 -0.6517  0.5604  0.5162
 1772SOL     OW 6214   2.827   1.479   3.905  0.2720 -0.3849  0.3082
 1772SOL    HW1 6215   2.854   1.543   3.834 -0.4762  1.2166  1.4018
 1772SOL    HW2 6216   2.842   1.520   3.995  1.3211 -2.3995  1.1259
 1773SOL     OW 6217   2.844   6.322   2.277  0.0342  0.4919 -0.3764
 1773SOL    HW1 6218   2.827   6.418   2.295  2.7190  1.0018 -0.0846
 1773SOL    HW2 6219   2.886   6.280   2.359 -1.4258 -1.0360 -0.3611
 1774SOL     OW 6220   4.501   4.897   1.544 -0.3693 -0.1644  0.0627
 1774SOL    HW1 6221   4.546   4.831   1.603  1.6515 -0.4826 -1.7106
 1774SOL    HW2 6222   4.536   4.989   1.564  0.5901 -0.3175 -0.8129
 1775SOL     OW 6223   0.179   3.196   5.439  0.4077  0.1470  0.3693
 1775SOL    HW1 6224   0.164   3.224   5.534  0.4923  2.1227 -0.1727
 1775SOL    HW2 6225   0.265   3.235   5.406 -0.4558  0.9176 -1.0397
 1776SOL     OW 6226   0.389   2.549   3.129  0.0464 -0.2772  0.0562
 1776SOL    HW1 6227   0.299   2.505   3.124 -0.1192  0.0443  0.1068
 1776SOL    HW2 6228   0.429   2.533   3.219 -1.3013  2.0678  1.1871
 1777SOL     OW 6229   0.532   4.688   2.878  0.7333 -0.2137  0.2428
 1777SOL    HW1 6230   0.435   4.712   2.866  0.5774 -0.7623  0.3514
 1777SOL    HW2 6231   0.584   4.770   2.902  0.0370 -0.1491  1.6569
 1778SOL     OW 6232   3.434   0.359   6.191 -0.0138 -0.2368  0.0822
 1778SOL    HW1 6233   3.410   0.455   6.178 -0.5483 -0.3998 -0.1866
 1778SOL    HW2 6234   3.443   0.314   6.102 -0.2684 -0.5515  0.2128
 1779SOL     OW 6235   0.556   4.431   6.423  0.0188 -0.3507 -0.3877
 1779SOL    HW1 6236   0.457   4.427   6.432 -0.1631  0.8224 -1.6045
 1779SOL    HW2 6237   0.590   4.341   6.395 -0.8636 -0.4354 -1.2365
 1780SOL     OW 6238   0.955   1.442   2.467  0.0646 -0.2265 -0.6230
 1780SOL    HW1 6239   1.033   1.504   2.479  0.1257 -0.3496 -0.3882
 1780SOL    HW2 6240   0.892   1.482   2.401 -0.5941  0.7769  0.5652
 1781SOL     OW 6241   4.023   5.647   3.133 -0.0132  0.1092 -0.5809
 1781SOL    HW1 6242   3.951   5.712   3.109 -0.2862 -0.2495 -0.7440
 1781SOL    HW2 6243   3.991   5.554   3.114  0.6758 -0.0242 -1.1360
 1782SOL     OW 6244   1.952   4.718   1.270 -0.0801  0.7005  0.4269
 1782SOL    HW1 6245   1.992   4.656   1.338 -0.2444 -0.9009 -0.8759
 1782SOL    HW2 6246   1.853   4.706   1.269  0.0986 -1.5266 -2.0549
 1783SOL     OW 6247   6.617   4.517   4.270 -0.4410  0.2057 -0.3578
 1783SOL    HW1 6248   6.655   4.476   4.353 -0.6806 -0.5803 -0.6227
 1783SOL    HW2 6249   6.663   4.604   4.252 -1.1333  0.9267  1.1846
 1784SOL     OW 6250   4.429   5.083   3.658  0.0783  1.0316  0.2121
 1784SOL    HW1 6251   4.507   5.048   3.711 -1.1678 -0.7170  1.0137
 1784SOL    HW2 6252   4.455   5.093   3.562  2.1462  3.4340  0.9338
 1785SOL     OW 6253   2.775   3.614   5.432  0.0855 -0.6465 -0.4498
 1785SOL    HW1 6254   2.815   3.676   5.365  0.0684 -0.3770 -0.2152
 1785SOL    HW2 6255   2.844   3.590   5.501  0.4333 -1.8180 -1.1774
 1786SOL     OW 6256   4.778   5.682   4.741  0.3221  1.1164  0.1593
 1786SOL    HW1 6257   4.742   5.735   4.665  0.6627  0.8390 -0.1948
 1786SOL    HW2 6258   4.785   5.585   4.715 -0.5706  0.8326  0.8904
 1787SOL     OW 6259   3.173   5.700   0.818 -0.0448  0.6524  0.1006
 1787SOL    HW1 6260   3.233   5.747   0.883  0.1035  0.4018  0.1472
 1787SOL    HW2 6261   3.124   5.627   0.866 -1.5692  1.8340  0.4354
 1788SOL     OW 6262   2.811   1.053   0.634  0.6261  0.6235 -0.6420
 1788SOL    HW1 6263   2.814   1.038   0.536 -0.7369 -1.9231 -0.3873
 1788SOL    HW2 6264   2.715   1.059   0.664  1.0007  0.8114  0.5909
 1789SOL     OW 6265   2.555   1.358   0.397  0.1009  0.4186  1.2185
 1789SOL    HW1 6266   2.607   1.350   0.312 -0.8733 -1.4070  0.7528
 1789SOL    HW2 6267   2.500   1.442   0.394 -0.4600  0.0438 -0.3033
 1790SOL     OW 6268   2.358   6.237   2.415  0.5466  0.1661  0.3234
 1790SOL    HW1 6269   2.440   6.249   2.360  0.2438 -1.7739 -0.6470
 1790SOL    HW2 6270   2.288   6.302   2.385  1.3881  1.1798  0.5093
 1791SOL     OW 6271   0.611   3.323   2.569 -0.1869  0.6640  0.2201
 1791SOL    HW1 6272   0.562   3.293   2.650 -0.3545  0.7028  0.1322
 1791SOL    HW2 6273   0.590   3.263   2.492 -1.1724  1.4906 -0.1692
 1792SOL     OW 6274   6.502   2.824   1.601  0.0154  0.0256 -0.5222
 1792SOL    HW1 6275   6.590   2.797   1.563  0.4267 -0.6332  0.8278
 1792SOL    HW2 6276   6.515   2.863   1.692 -0.9072  1.8558 -1.1153
 1793SOL     OW 6277   4.946   3.553   1.694  0.0159  0.0367 -0.0946
 1793SOL    HW1 6278   4.907   3.643   1.713  0.0905  0.1407 -0.4309
 1793SOL    HW2 6279   5.038   3.564   1.658  0.2251 -0.1957  0.3547
 1794SOL     OW 6280   6.980   4.463   3.496  0.4468  0.3675  0.2752
 1794SOL    HW1 6281   6.904   4.496   3.552 -0.2441 -0.4139 -0.1905
 1794SOL    HW2 6282   7.064   4.466   3.550  0.1714  1.5833  0.6833
 1795SOL     OW 6283   2.120   4.396   1.764  0.5744 -0.2566  0.3698
 1795SOL    HW1 6284   2.073   4.361   1.684  0.1439 -0.8784  0.8846
 1795SOL    HW2 6285   2.192   4.460   1.736  0.3938 -0.4309 -0.4973
 1796SOL     OW 6286   5.362   0.196   6.837 -0.0090  0.4076  0.4091
 1796SOL    HW1 6287   5.271   0.153   6.843 -0.2952  0.5786 -1.6798
 1796SOL    HW2 6288   5.404   0.169   6.750  2.1255  0.0507  1.5049
 1797SOL     OW 6289   5.848   2.199   3.583  0.7774  0.0600  0.2952
 1797SOL    HW1 6290   5.890   2.159   3.665 -0.4452 -0.8810  0.4995
 1797SOL    HW2 6291   5.817   2.292   3.602  0.3693 -0.2084  0.9524
 1798SOL     OW 6292   2.664   1.951   1.692  0.7200 -0.3840  0.0655
 1798SOL    HW1 6293   2.579   1.984   1.734  0.7751 -0.5918  0.3423
 1798SOL    HW2 6294   2.742   2.000   1.731  0.6494  0.7262 -1.0953
 1799SOL     OW 6295   1.881   3.825   1.684 -0.2016  0.3520  0.3230
 1799SOL    HW1 6296   1.849   3.771   1.762 -0.3889 -1.2579 -0.8044
 1799SOL    HW2 6297   1.814   3.819   1.610  0.8490  0.2439 -0.6532
 1800SOL     OW 6298   5.239   6.529   3.805  1.1477  0.2324 -0.1544
 1800SOL    HW1 6299   5.149   6.568   3.824  0.9589 -0.3463  0.1734
 1800SOL    HW2 6300   5.284   6.505   3.891  2.2899  1.9667 -0.2136
 1801SOL     OW 6301   1.400   1.171   2.524  0.0956 -0.1445  0.4039
 1801SOL    HW1 6302   1.324   1.115   2.559 -0.9573  1.8286  1.4428
 1801SOL    HW2 6303   1.377   1.204   2.433  0.2627 -0.5553  0.2110
 1802SOL     OW 6304   1.181   4.900   5.023  0.6585 -0.1560 -0.2491
 1802SOL    HW1 6305   1.152   4.893   5.119 -2.0827  0.6229 -0.9305
 1802SOL    HW2 6306   1.185   4.808   4.983 -0.9913 -0.3280 -0.0970
 1803SOL     OW 6307   1.540   0.104   2.380  0.1373 -0.2289  0.4837
 1803SOL    HW1 6308   1.555   0.029   2.445  1.1120 -0.1258  0.3852
 1803SOL    HW2 6309   1.521   0.066   2.289  2.2660 -0.3922  0.0558
 1804SOL     OW 6310   5.272   0.226   2.125  0.0473  0.0882 -0.0236
 1804SOL    HW1 6311   5.255   0.182   2.213 -1.3482 -0.7266 -0.6716
 1804SOL    HW2 6312   5.186   0.259   2.087  0.5751  0.0865 -1.2626
 1805SOL     OW 6313   1.704   3.250   3.869  0.5690 -0.3475 -0.2447
 1805SOL    HW1 6314   1.674   3.308   3.793  0.9957  0.1574 -0.0326
 1805SOL    HW2 6315   1.741   3.307   3.942 -0.4269 -0.7798  0.6312
 1806SOL     OW 6316   6.423   3.635   5.164  0.1642  0.6027  0.5425
 1806SOL    HW1 6317   6.499   3.662   5.222  0.0584  0.8666  0.5612
 1806SOL    HW2 6318   6.338   3.640   5.216 -0.2957  3.3615 -0.2939
 1807SOL     OW 6319   2.689   6.581   1.769  0.0383  0.1226  0.2999
 1807SOL    HW1 6320   2.622   6.527   1.717 -0.2989  0.6688  0.1650
 1807SOL    HW2 6321   2.720   6.528   1.848 -0.6493 -0.0789  0.4351
 1808SOL     OW 6322   5.216   6.877   3.151 -0.3320  0.4494 -0.3798
 1808SOL    HW1 6323   5.313   6.900   3.159  0.0562 -1.1319 -0.1687
 1808SOL    HW2 6324   5.203   6.814   3.073 -0.6466 -1.9217  1.4666
 1809SOL     OW 6325   0.168   2.275   0.877 -0.6113 -0.3321  0.5719
 1809SOL    HW1 6326   0.146   2.239   0.968  0.6184 -0.7781  0.7162
 1809SOL    HW2 6327   0.155   2.203   0.809  0.0621 -0.5080  0.6206
 1810SOL     OW 6328   4.558   5.482   0.818 -0.1917  0.5740 -0.2191
 1810SOL    HW1 6329   4.462   5.498   0.838 -0.1154  0.5475  0.1769
 1810SOL    HW2 6330   4.587   5.396   0.860  0.1216  0.8088  0.0463
 1811SOL     OW 6331   4.122   3.742   5.576 -0.2536  0.1684  0.3694
 1811SOL    HW1 6332   4.119   3.841   5.590  0.1781  0.1432  0.6444
 1811SOL    HW2 6333   4.035   3.702   5.605 -0.7090  0.5480 -0.4272
 1812SOL     OW 6334   2.007   1.144   1.366  0.6073 -0.1999 -0.2318
 1812SOL    HW1 6335   2.031   1.208   1.439 -1.3267  1.5556 -1.0438
 1812SOL    HW2 6336   2.006   1.192   1.278 -1.6273 -1.1281 -0.7773
 1813SOL     OW 6337   5.642   2.024   4.505 -0.6249 -0.0212  0.1069
 1813SOL    HW1 6338   5.733   2.019   4.465 -0.7859 -2.6698 -0.0882
 1813SOL    HW2 6339   5.639   2.099   4.571  1.0222  1.4718 -1.3916
 1814SOL     OW 6340   0.622   2.708   4.208  0.5638  0.2795  0.0935
 1814SOL    HW1 6341   0.671   2.645   4.268 -0.4265  0.3928  1.0570
 1814SOL    HW2 6342   0.524   2.691   4.215  0.3406  1.2888 -0.3857
 1815SOL     OW 6343   6.368   6.709   0.779 -0.2928 -0.1582  0.4866
 1815SOL    HW1 6344   6.377   6.611   0.796 -2.3111 -0.7502 -1.3733
 1815SOL    HW2 6345   6.369   6.758   0.866  2.5110 -1.5769  1.3808
 1816SOL     OW 6346   5.003   2.475   1.340  0.2437 -0.8265  0.2342
 1816SOL    HW1 6347   4.932   2.404   1.341  0.7687 -1.3582  0.3466
 1816SOL    HW2 6348   5.058   2.466   1.257 -0.8623  0.6469 -0.7035
 1817SOL     OW 6349   1.872   6.940   5.425  0.4583 -0.3737  0.2293
 1817SOL    HW1 6350   1.946   6.900   5.371 -0.1809 -0.2650 -0.7756
 1817SOL    HW2 6351   1.796   6.962   5.364 -1.0343 -1.9320  1.4494
 1818SOL     OW 6352   0.758   6.384   0.768 -0.3451  0.1084  0.3823
 1818SOL    HW1 6353   0.661   6.364   0.785 -0.4068  1.5228  1.9767
 1818SOL    HW2 6354   0.770   6.411   0.673 -1.6552  0.6638  0.3530
 1819SOL     OW 6355   4.684   2.185   6.589  0.3504 -0.1464 -0.2862
 1819SOL    HW1 6356   4.656   2.234   6.671  1.5048 -0.6163  0.4032
 1819SOL    HW2 6357   4.606   2.132   6.553 -0.7903  1.7865 -0.7984
 1820SOL     OW 6358   5.282   4.359   6.762 -0.6601  0.2499 -0.4968
 1820SOL    HW1 6359   5.242   4.439   6.719 -1.1393  0.0186 -0.4883
 1820SOL    HW2 6360   5.252   4.276   6.715  2.1934  0.1760 -2.4424
 1821SOL     OW 6361   6.832   3.840   1.820 -0.7229  0.3417  0.6577
 1821SOL    HW1 6362   6.769   3.786   1.765 -1.7188  0.9281  1.1835
 1821SOL    HW2 6363   6.879   3.907   1.763 -1.3670  0.6049  0.4315
 1822SOL     OW 6364   6.876   3.345   2.977  0.4305 -0.0471 -0.7713
 1822SOL    HW1 6365   6.974   3.347   2.958  0.3224 -0.6722 -1.4890
 1822SOL    HW2 6366   6.828   3.304   2.899 -0.1985 -1.5130  0.3184
 1823SOL     OW 6367   2.633   5.927   0.410  0.1160 -0.2565 -0.2098
 1823SOL    HW1 6368   2.545   5.884   0.389  0.7701 -1.6911 -0.1387
 1823SOL    HW2 6369   2.620   5.992   0.486 -0.4658 -2.3084  1.5548
 1824SOL     OW 6370   6.835   1.397   4.953  0.0884 -0.0681 -0.5557
 1824SOL    HW1 6371   6.845   1.315   5.010 -0.9113  0.0361 -0.2071
 1824SOL    HW2 6372   6.847   1.478   5.010  1.4421  0.0466 -0.9707
 1825SOL     OW 6373   5.453   3.973   2.370  0.0997  0.1108 -0.3147
 1825SOL    HW1 6374   5.371   3.975   2.428  0.0589 -1.0467 -0.3135
 1825SOL    HW2 6375   5.444   3.901   2.302  0.4237  1.0484 -1.3834
 1826SOL     OW 6376   1.339   6.155   6.300 -0.9367 -0.0843  0.1046
 1826SOL    HW1 6377   1.288   6.090   6.356 -0.9324  0.6037  0.9314
 1826SOL    HW2 6378   1.293   6.166   6.212 -1.1450 -0.9133  0.0993
 1827SOL     OW 6379   0.127   4.198   6.844  0.1789 -0.0405  0.4404
 1827SOL    HW1 6380   0.126   4.099   6.833 -0.5375  0.1428 -1.4486
 1827SOL    HW2 6381   0.217   4.234   6.819 -0.4383  0.0305 -1.9217
 1828SOL     OW 6382   2.947   5.143   1.156 -0.3217 -0.0677 -0.1532
 1828SOL    HW1 6383   2.989   5.206   1.220  0.2049 -1.8440  1.3425
 1828SOL    HW2 6384   3.008   5.065   1.141 -2.3732 -1.9562  0.8526
 1829SOL     OW 6385   2.493   5.885   2.785 -0.2703  0.3340  0.2451
 1829SOL    HW1 6386   2.538   5.974   2.776 -1.1192  0.6580 -1.0612
 1829SOL    HW2 6387   2.404   5.888   2.739  0.0522 -1.4475 -0.5870
 1830SOL     OW 6388   3.102   4.464   6.280  0.5886 -0.5677  0.0237
 1830SOL    HW1 6389   3.025   4.509   6.233  0.2807 -1.6278 -0.5151
 1830SOL    HW2 6390   3.123   4.378   6.235  2.8999  0.2413 -0.5859
 1831SOL     OW 6391   2.162   2.960   4.600 -0.0872 -0.1845 -0.1108
 1831SOL    HW1 6392   2.211   2.963   4.513 -0.7477  0.6639 -0.4766
 1831SOL    HW2 6393   2.195   2.884   4.655 -0.1939 -1.2333 -1.4405
 1832SOL     OW 6394   4.588   4.691   4.809 -0.3282 -0.1344  0.5098
 1832SOL    HW1 6395   4.611   4.595   4.823  1.8990  0.4460  1.1784
 1832SOL    HW2 6396   4.647   4.748   4.865  1.3902  1.8219 -2.9390
 1833SOL     OW 6397   4.355   3.450   6.238  0.0822 -0.3156 -0.1853
 1833SOL    HW1 6398   4.288   3.431   6.310  0.4370  0.7086  0.4270
 1833SOL    HW2 6399   4.447   3.450   6.277  0.2176  1.0434 -0.4687
 1834SOL     OW 6400   0.924   4.140   5.960 -0.2412  0.5480 -0.1059
 1834SOL    HW1 6401   1.017   4.175   5.970 -0.1405  0.4872 -0.7617
 1834SOL    HW2 6402   0.923   4.066   5.893 -0.5700 -0.2691  0.7722
 1835SOL     OW 6403   0.277   0.364   0.709  0.0553  0.3270  0.8375
 1835SOL    HW1 6404   0.358   0.389   0.763 -0.7292  1.1515  1.6843
 1835SOL    HW2 6405   0.219   0.304   0.763  1.6403 -3.0858 -0.9734
 1836SOL     OW 6406   4.988   0.691   4.538  0.1669 -0.1917  0.0885
 1836SOL    HW1 6407   4.911   0.721   4.482 -0.8998 -0.0259  1.5777
 1836SOL    HW2 6408   5.073   0.717   4.494 -0.5604 -1.3472 -2.1508
 1837SOL     OW 6409   1.561   0.503   1.162 -0.0270  0.4776  0.1308
 1837SOL    HW1 6410   1.531   0.543   1.076 -0.2273  0.1879  0.0630
 1837SOL    HW2 6411   1.521   0.411   1.172 -1.8987  1.3679  1.5777
 1838SOL     OW 6412   1.668   0.932   5.996  0.0833  1.2985 -0.0851
 1838SOL    HW1 6413   1.630   1.019   6.029 -1.2839  0.9131 -0.5540
 1838SOL    HW2 6414   1.684   0.871   6.074 -1.1136  1.1663  0.0872
 1839SOL     OW 6415   2.133   1.602   2.232  0.2180 -0.0642  0.5008
 1839SOL    HW1 6416   2.058   1.648   2.279 -0.0407 -0.6539  0.6714
 1839SOL    HW2 6417   2.100   1.518   2.190  0.5065  0.2976 -0.4945
 1840SOL     OW 6418   0.707   4.753   4.404 -0.6154 -0.4835  0.2686
 1840SOL    HW1 6419   0.803   4.770   4.381 -0.7044 -1.1952 -0.6898
 1840SOL    HW2 6420   0.652   4.832   4.378 -0.0783  0.7461  2.5509
 1841SOL     OW 6421   4.147   5.922   0.773 -0.7635  0.1175  0.0456
 1841SOL    HW1 6422   4.168   6.013   0.737  0.6554 -0.0717  0.3201
 1841SOL    HW2 6423   4.149   5.855   0.698  0.7903 -0.0594  0.2022
 1842SOL     OW 6424   0.985   4.973   2.380  0.1996 -0.5986 -0.1831
 1842SOL    HW1 6425   1.063   4.911   2.392 -1.1154 -2.6207 -1.5030
 1842SOL    HW2 6426   0.900   4.921   2.386 -1.1577  1.6556  1.8855
 1843SOL     OW 6427   0.385   6.782   5.334  0.0135 -0.4074  0.2907
 1843SOL    HW1 6428   0.337   6.833   5.405 -1.5725 -0.2636 -0.8297
 1843SOL    HW2 6429   0.477   6.758   5.366  0.3440  1.9927  1.3442
 1844SOL     OW 6430   5.524   2.166   5.986 -0.2741 -0.0575  0.2448
 1844SOL    HW1 6431   5.451   2.109   5.949 -0.7105 -0.6235  1.8714
 1844SOL    HW2 6432   5.608   2.112   5.991 -0.0978  0.1593 -0.3245
 1845SOL     OW 6433   2.983   3.346   5.858  0.5556  0.0101 -0.3025
 1845SOL    HW1 6434   2.912   3.413   5.879 -0.2762  0.0876 -2.9554
 1845SOL    HW2 6435   3.073   3.390   5.862  0.3419  0.3533  1.3642
 1846SOL     OW 6436   1.842   0.001   4.887 -0.6821  0.7810 -0.1571
 1846SOL    HW1 6437   1.745  -0.009   4.863 -0.7283  0.3186  0.1901
 1846SOL    HW2 6438   1.849   0.048   4.975 -0.7353 -1.4656  1.1376
 1847SOL     OW 6439   2.659   6.111   3.087  0.1180  1.1029  0.5229
 1847SOL    HW1 6440   2.573   6.108   3.035  0.2855  0.1470  0.2887
 1847SOL    HW2 6441   2.640   6.137   3.181 -0.3465  1.5796  0.3049
 1848SOL     OW 6442   3.650   2.357   1.448  0.1497 -0.0494  0.0914
 1848SOL    HW1 6443   3.710   2.416   1.502  0.0343  1.3960 -1.2790
 1848SOL    HW2 6444   3.563   2.346   1.496  0.7374 -0.4405  1.1092
 1849SOL     OW 6445   2.926   2.259   4.259 -0.5667 -0.5216  0.5365
 1849SOL    HW1 6446   2.914   2.192   4.185 -1.2246 -0.2241  0.3741
 1849SOL    HW2 6447   2.893   2.348   4.229  0.1591 -0.1533  0.8142
 1850SOL     OW 6448   2.388   5.316   3.276 -0.5024  0.0252 -0.3673
 1850SOL    HW1 6449   2.352   5.236   3.229 -1.3684 -0.4768  1.0830
 1850SOL    HW2 6450   2.318   5.354   3.336 -0.2035  2.0692 -1.2316
 1851SOL     OW 6451   5.765   0.580   3.069  0.3058 -0.5450 -0.3702
 1851SOL    HW1 6452   5.853   0.550   3.105  0.0313  0.6132  1.4196
 1851SOL    HW2 6453   5.778   0.661   3.011  0.4448 -0.5994 -0.4155
 1852SOL     OW 6454   5.933   4.178   5.441  0.1168  0.0016  0.0005
 1852SOL    HW1 6455   5.842   4.157   5.404  1.2504 -0.9601 -2.4812
 1852SOL    HW2 6456   5.926   4.252   5.508 -2.3401  0.7715 -1.0054
 1853SOL     OW 6457   1.037   5.224   0.605 -0.2509 -0.1185 -1.1747
 1853SOL    HW1 6458   1.098   5.167   0.661 -0.6662  0.4330 -0.1364
 1853SOL    HW2 6459   1.066   5.219   0.509  0.7627 -0.7181 -0.8585
 1854SOL     OW 6460   2.429   2.768   5.227 -0.5016  0.1084  0.7460
 1854SOL    HW1 6461   2.443   2.867   5.221 -0.9526  0.1766  0.7599
 1854SOL    HW2 6462   2.442   2.727   5.136  0.1331  0.1184  0.8317
 1855SOL     OW 6463   6.579   1.032   1.033  0.0001 -0.5129  0.3007
 1855SOL    HW1 6464   6.649   0.960   1.037 -2.2940 -2.8834  2.8461
 1855SOL    HW2 6465   6.617   1.117   1.069  2.6605 -0.4338 -2.2831
 1856SOL     OW 6466   6.130   2.092   5.647 -0.9846  0.0466  0.3369
 1856SOL    HW1 6467   6.117   2.081   5.746 -0.5150 -1.3860  0.2681
 1856SOL    HW2 6468   6.119   2.188   5.622  1.6727  0.9434  2.2073
 1857SOL     OW 6469   6.091   6.024   1.886  0.4573  0.1420  0.3797
 1857SOL    HW1 6470   6.018   5.998   1.949 -1.2554  1.2545 -1.0434
 1857SOL    HW2 6471   6.051   6.053   1.799  2.4947  2.2440  0.0414
 1858SOL     OW 6472   1.523   4.097   0.263  0.1184  0.2974 -0.6344
 1858SOL    HW1 6473   1.433   4.059   0.244 -0.0635  1.1000 -1.4164
 1858SOL    HW2 6474   1.593   4.042   0.217  0.1321 -0.8967  0.7516
 1859SOL     OW 6475   3.997   6.293   4.165  0.0636  1.0211  0.0939
 1859SOL    HW1 6476   3.974   6.292   4.067 -0.1059  1.7568  0.1131
 1859SOL    HW2 6477   4.070   6.227   4.183  1.7585  2.4971 -0.9686
 1860SOL     OW 6478   1.072   3.126   4.717  0.1808 -0.1458 -0.0932
 1860SOL    HW1 6479   1.082   3.225   4.707  0.5496 -0.1981 -0.2595
 1860SOL    HW2 6480   0.976   3.101   4.702  0.1511  0.1449 -0.4217
 1861SOL     OW 6481   3.921   4.930   0.660 -0.2546  0.4293 -0.8904
 1861SOL    HW1 6482   3.899   5.027   0.652 -1.1484  0.3147 -0.0164
 1861SOL    HW2 6483   3.837   4.876   0.660  0.2251 -0.3379 -1.2188
 1862SOL     OW 6484   0.413   1.402   1.991  0.3971 -0.3546  0.4004
 1862SOL    HW1 6485   0.474   1.452   2.053 -0.0589 -0.1935  0.7219
 1862SOL    HW2 6486   0.425   1.435   1.898  0.2264  0.2328  0.5840
 1863SOL     OW 6487   0.774   1.522   3.772 -0.0375  0.7721  0.0896
 1863SOL    HW1 6488   0.818   1.513   3.683  0.6321  3.3875  0.0682
 1863SOL    HW2 6489   0.675   1.534   3.759 -0.2307 -0.7971 -0.1264
 1864SOL     OW 6490   0.936   0.625   1.483  0.2188 -0.2289 -0.1332
 1864SOL    HW1 6491   0.983   0.548   1.527  1.1146 -0.2830 -1.1459
 1864SOL    HW2 6492   0.883   0.675   1.551 -0.1087 -1.5421  0.6030
 1865SOL     OW 6493   4.523   0.496   1.406 -0.2452  0.4007  0.4239
 1865SOL    HW1 6494   4.457   0.444   1.351 -0.2707 -1.3892  2.0671
 1865SOL    HW2 6495   4.555   0.440   1.482  1.3541  2.0970  1.0730
 1866SOL     OW 6496   0.376   3.190   3.420  0.1937  0.6424 -0.0583
 1866SOL    HW1 6497   0.326   3.252   3.359 -1.9035 -1.3723 -0.5374
 1866SOL    HW2 6498   0.335   3.192   3.511 -0.4212 -0.5730 -0.2875
 1867SOL     OW 6499   2.690   0.529   6.876 -0.2267 -0.5747  0.1825
 1867SOL    HW1 6500   2.765   0.518   6.811 -1.4849 -1.4749 -1.2018
 1867SOL    HW2 6501   2.666   0.625   6.883 -0.2745 -0.4790 -0.9741
 1868SOL     OW 6502   1.773   0.435   1.587 -0.4992 -0.7246  0.8270
 1868SOL    HW1 6503   1.706   0.413   1.659  0.5884  0.5061  2.2711
 1868SOL    HW2 6504   1.855   0.379   1.599 -0.7350 -1.3118 -0.1653
 1869SOL     OW 6505   5.669   6.205   5.030  0.3080 -0.4618  0.0718
 1869SOL    HW1 6506   5.761   6.235   5.005  0.1259 -0.2811 -0.3990
 1869SOL    HW2 6507   5.607   6.222   4.953 -0.4770  1.0320  1.0009
 1870SOL     OW 6508   3.558   3.854   0.575  0.2859  0.1511 -0.9762
 1870SOL    HW1 6509   3.531   3.758   0.568 -1.2925  0.5018 -0.2397
 1870SOL    HW2 6510   3.625   3.865   0.648 -1.8475 -0.0102  1.1215
 1871SOL     OW 6511   0.119   1.799   4.821 -0.3195  0.1707  0.0868
 1871SOL    HW1 6512   0.080   1.876   4.872 -0.4987 -0.1229  0.4000
 1871SOL    HW2 6513   0.053   1.768   4.752 -0.2264  0.3316 -0.0748
 1872SOL     OW 6514   1.149   4.459   6.094 -0.0177  0.2434 -0.6638
 1872SOL    HW1 6515   1.057   4.483   6.062  0.3879 -1.2182 -3.1539
 1872SOL    HW2 6516   1.158   4.360   6.100  1.5057  0.3484 -0.7693
 1873SOL     OW 6517   6.383   3.888   1.867  0.5048  0.2953  0.2690
 1873SOL    HW1 6518   6.457   3.918   1.928  1.6781  1.8978 -1.7929
 1873SOL    HW2 6519   6.409   3.906   1.773 -1.3886 -1.7797 -0.7256
 1874SOL     OW 6520   4.064   3.765   4.111 -0.1914 -0.3023 -0.5629
 1874SOL    HW1 6521   4.119   3.800   4.187 -0.1606  2.1386 -1.6233
 1874SOL    HW2 6522   4.029   3.674   4.134  0.5241 -0.0037  1.9841
 1875SOL     OW 6523   6.539   4.439   6.991 -0.2664 -0.2046  0.5088
 1875SOL    HW1 6524   6.562   4.534   6.967 -0.4390  0.0161  1.2008
 1875SOL    HW2 6525   6.576   4.418   7.081 -1.9222 -0.1497  1.2334
 1876SOL     OW 6526   0.222   1.878   1.563  0.7749 -0.3250  0.5010
 1876SOL    HW1 6527   0.316   1.863   1.593  0.7530 -1.2293  0.1480
 1876SOL    HW2 6528   0.161   1.815   1.611  0.3624  0.1774  0.6444
 1877SOL     OW 6529   2.753   4.043   0.024 -0.4418  0.0107  0.0765
 1877SOL    HW1 6530   2.705   4.013  -0.058 -0.4499  1.0979 -0.3305
 1877SOL    HW2 6531   2.687   4.059   0.098 -0.5698  0.2751 -0.0956
 1878SOL     OW 6532   4.132   3.513   3.069  0.0075  0.5275 -0.2553
 1878SOL    HW1 6533   4.129   3.587   3.002  0.1702 -0.4659 -1.3837
 1878SOL    HW2 6534   4.219   3.517   3.119  0.4373  0.5011 -0.9948
 1879SOL     OW 6535   3.208   2.652   6.210  0.4042 -0.1912 -1.1703
 1879SOL    HW1 6536   3.193   2.592   6.132 -0.9103 -0.9806 -0.3472
 1879SOL    HW2 6537   3.143   2.728   6.207 -2.2614 -2.1759  0.9948
 1880SOL     OW 6538   3.810   0.415   3.504 -0.0573  0.0281 -0.3107
 1880SOL    HW1 6539   3.886   0.449   3.561  0.9328 -0.3452 -1.3682
 1880SOL    HW2 6540   3.747   0.490   3.484 -1.4835 -0.1720  2.7721
 1881SOL     OW 6541   2.175   0.279   3.722  0.4254  0.4693 -0.1725
 1881SOL    HW1 6542   2.182   0.280   3.822  0.9891  0.5238 -0.2072
 1881SOL    HW2 6543   2.267   0.278   3.683  0.2310 -1.0970 -0.6696
 1882SOL     OW 6544   6.988   0.787   0.870  0.3059  0.1562 -0.0402
 1882SOL    HW1 6545   6.952   0.757   0.958  0.5902 -0.8847 -0.2657
 1882SOL    HW2 6546   6.920   0.770   0.799  1.0936 -1.5698 -0.4271
 1883SOL     OW 6547   1.196   1.245   3.418 -0.1255  0.0921  0.2944
 1883SOL    HW1 6548   1.213   1.153   3.453 -1.7317 -0.0342  0.8555
 1883SOL    HW2 6549   1.281   1.284   3.383  0.4520 -1.8531 -0.5972
 1884SOL     OW 6550   0.691   3.892   1.107  0.1801  0.4047  0.7802
 1884SOL    HW1 6551   0.789   3.876   1.092 -0.1299  0.2729 -1.3792
 1884SOL    HW2 6552   0.658   3.832   1.179  1.2235 -1.2512 -0.0671
 1885SOL     OW 6553   6.396   4.250   0.787  0.3353  0.5677 -0.2152
 1885SOL    HW1 6554   6.349   4.162   0.781  1.5779 -0.0880 -0.7134
 1885SOL    HW2 6555   6.453   4.263   0.706 -0.8651  2.4777 -0.8317
 1886SOL     OW 6556   4.861   4.564   0.240 -0.1608 -0.1117 -0.2760
 1886SOL    HW1 6557   4.801   4.643   0.254 -0.5602 -0.3387 -0.6865
 1886SOL    HW2 6558   4.956   4.591   0.255 -0.1999  0.6902 -1.3529
 1887SOL     OW 6559   5.506   4.359   0.729  0.1956 -0.2397  0.5297
 1887SOL    HW1 6560   5.494   4.432   0.662 -0.8330  1.0650  2.0606
 1887SOL    HW2 6561   5.603   4.348   0.750  0.5166 -0.5902 -1.0551
 1888SOL     OW 6562   5.416   3.433   4.521 -0.0952 -0.1511 -0.0762
 1888SOL    HW1 6563   5.330   3.457   4.474  0.5157  2.3250 -0.0724
 1888SOL    HW2 6564   5.399   3.361   4.588 -1.8489 -0.7560 -1.1066
 1889SOL     OW 6565   1.821   2.037   2.462  0.4550  0.5754  0.5900
 1889SOL    HW1 6566   1.734   2.086   2.469  0.5181  1.1102 -1.4923
 1889SOL    HW2 6567   1.803   1.939   2.451  0.2701  0.2754  2.9976
 1890SOL     OW 6568   4.630   6.507   4.037  0.2430 -0.0865  0.1000
 1890SOL    HW1 6569   4.689   6.570   4.087 -1.5025 -0.1815  2.4524
 1890SOL    HW2 6570   4.649   6.413   4.066 -0.4549 -0.1915  0.2328
 1891SOL     OW 6571   3.857   3.291   2.343  1.0372  0.1404 -0.0908
 1891SOL    HW1 6572   3.881   3.355   2.416  0.4547  0.0291  0.2022
 1891SOL    HW2 6573   3.771   3.319   2.301  1.4757  0.3238 -0.8828
 1892SOL     OW 6574   5.469   2.940   4.018 -0.0884 -0.3131  0.5887
 1892SOL    HW1 6575   5.375   2.969   4.001 -0.8383 -1.5593  2.2865
 1892SOL    HW2 6576   5.532   3.008   3.981 -1.6417  0.7091 -0.3071
 1893SOL     OW 6577   0.755   0.268   2.767  0.0700 -0.2446  0.2249
 1893SOL    HW1 6578   0.830   0.212   2.730  1.4346  1.1264  0.8109
 1893SOL    HW2 6579   0.784   0.363   2.772 -1.2565  0.1159  1.7618
 1894SOL     OW 6580   1.076   5.413   5.664 -0.2716 -0.4230  0.4136
 1894SOL    HW1 6581   1.037   5.473   5.735 -0.1529 -0.1890  0.2809
 1894SOL    HW2 6582   1.078   5.462   5.577 -0.3092 -0.6715  0.2721
 1895SOL     OW 6583   4.447   0.297   4.302 -0.5005 -0.2185 -0.2321
 1895SOL    HW1 6584   4.504   0.265   4.377  0.3697  1.0074 -0.3196
 1895SOL    HW2 6585   4.506   0.342   4.233 -1.3273 -0.8818 -1.4038
 1896SOL     OW 6586   6.322   4.891   5.579 -0.0210  0.1478 -0.2231
 1896SOL    HW1 6587   6.373   4.843   5.650 -0.1619  1.3320  0.7217
 1896SOL    HW2 6588   6.279   4.825   5.518 -1.0396 -0.9483  1.6036
 1897SOL     OW 6589   4.889   6.811   5.661  0.1436  0.1724 -0.4906
 1897SOL    HW1 6590   4.881   6.871   5.581  2.4308  1.0881 -0.0942
 1897SOL    HW2 6591   4.921   6.863   5.739 -0.7193 -1.0000  0.6886
 1898SOL     OW 6592   5.004   5.894   5.153 -0.0873 -0.4304  0.4361
 1898SOL    HW1 6593   4.954   5.930   5.074  1.5832  0.5506 -0.2102
 1898SOL    HW2 6594   5.026   5.798   5.137 -2.4926 -1.1848  1.1430
 1899SOL     OW 6595   5.577   2.323   5.024  0.1844 -0.3447  0.5755
 1899SOL    HW1 6596   5.547   2.388   4.955  0.1602 -1.2860 -0.3137
 1899SOL    HW2 6597   5.595   2.372   5.110  0.9177  0.9362 -0.2846
 1900SOL     OW 6598   0.868   0.523   5.278 -0.0190  0.1079 -0.2763
 1900SOL    HW1 6599   0.935   0.591   5.310  0.0737  0.1791 -0.6209
 1900SOL    HW2 6600   0.818   0.487   5.356  0.0079  0.4935 -0.0809
 1901SOL     OW 6601   2.842   0.133   3.769  0.0561 -0.2322 -0.0789
 1901SOL    HW1 6602   2.823   0.039   3.798  0.7537  0.0060  1.1988
 1901SOL    HW2 6603   2.765   0.191   3.795 -0.3070 -0.4109 -0.7310
 1902SOL     OW 6604   3.544   0.744   5.202  0.5006  0.3866  0.5817
 1902SOL    HW1 6605   3.502   0.657   5.178 -1.5096  1.4743 -0.0264
 1902SOL    HW2 6606   3.643   0.731   5.214  0.3230 -1.8465  0.0253
 1903SOL     OW 6607   6.747   0.687   0.760 -0.4424  0.3726  0.3484
 1903SOL    HW1 6608   6.810   0.627   0.710  0.3605  1.5509 -0.0948
 1903SOL    HW2 6609   6.667   0.634   0.789  0.9229 -1.2693  1.3034
 1904SOL     OW 6610   3.801   3.841   4.342 -0.4885 -0.5818  0.1208
 1904SOL    HW1 6611   3.753   3.856   4.255 -1.1747  0.2700  0.6237
 1904SOL    HW2 6612   3.793   3.745   4.368  1.7773 -1.4072 -1.9179
 1905SOL     OW 6613   4.019   6.057   1.977  0.1109  0.2826 -0.6738
 1905SOL    HW1 6614   4.019   6.157   1.974  0.3200  0.3166  0.1760
 1905SOL    HW2 6615   4.086   6.026   2.045 -0.8132 -0.4008 -0.0555
 1906SOL     OW 6616   2.859   0.943   2.462  0.0427 -0.0936 -0.1881
 1906SOL    HW1 6617   2.929   0.876   2.487  0.9011  1.0958  0.6924
 1906SOL    HW2 6618   2.893   1.000   2.387 -0.4402 -0.2457 -0.5238
 1907SOL     OW 6619   5.713   1.930   2.883 -0.0462  0.2949  0.1518
 1907SOL    HW1 6620   5.689   1.841   2.921 -0.2065  0.8860  1.4912
 1907SOL    HW2 6621   5.812   1.942   2.887 -0.2164  1.6874  3.6818
 1908SOL     OW 6622   3.457   6.287   4.376  1.0669  0.4692  0.7718
 1908SOL    HW1 6623   3.509   6.353   4.323 -0.4002  0.9682 -0.0846
 1908SOL    HW2 6624   3.384   6.249   4.320  0.6197 -0.3661  1.8831
 1909SOL     OW 6625   3.033   2.163   1.127  0.0170  0.2895  0.0413
 1909SOL    HW1 6626   2.972   2.192   1.201 -1.2290 -2.5168  0.2533
 1909SOL    HW2 6627   3.070   2.073   1.148  0.6446 -0.0279 -2.1829
 1910SOL     OW 6628   0.350   6.386   6.282 -0.3530  0.4035  0.9250
 1910SOL    HW1 6629   0.288   6.311   6.258  0.7629  0.2837 -1.9755
 1910SOL    HW2 6630   0.299   6.457   6.330 -2.2987 -0.5472  0.3723
 1911SOL     OW 6631   1.214   6.058   5.434 -0.2024  0.3432 -0.3310
 1911SOL    HW1 6632   1.270   5.977   5.448  1.5844  1.8143  1.7560
 1911SOL    HW2 6633   1.272   6.139   5.431 -2.0507  1.7414 -0.4320
 1912SOL     OW 6634   5.613   3.762   1.002 -0.3442  0.0832  0.6287
 1912SOL    HW1 6635   5.586   3.709   1.082 -1.4064  0.6193  0.6379
 1912SOL    HW2 6636   5.610   3.860   1.024 -1.0718  0.2539 -0.1730
 1913SOL     OW 6637   4.581   1.369   6.798  0.1943  0.4346  0.0566
 1913SOL    HW1 6638   4.568   1.278   6.837  0.3902  0.6642  0.6631
 1913SOL    HW2 6639   4.658   1.413   6.843  0.2868  0.7871 -0.4454
 1914SOL     OW 6640   1.379   1.875   6.945  0.0189  0.6595 -0.0382
 1914SOL    HW1 6641   1.371   1.916   6.854  0.8378 -0.7050 -0.7466
 1914SOL    HW2 6642   1.288   1.869   6.987 -0.5741  0.0115 -1.3632
 1915SOL     OW 6643   2.513   1.975   5.577  0.0195 -0.5944  0.2166
 1915SOL    HW1 6644   2.472   1.985   5.668  0.5627  0.6095  0.3445
 1915SOL    HW2 6645   2.612   1.986   5.583 -0.1083  1.9015 -0.7845
 1916SOL     OW 6646   6.287   0.945   4.466  0.1445  0.0225  0.5459
 1916SOL    HW1 6647   6.339   0.950   4.551  0.3748  1.6006  0.3529
 1916SOL    HW2 6648   6.288   1.035   4.421 -1.8169 -0.1835 -0.0142
 1917SOL     OW 6649   6.909   5.839   2.964  0.5764 -0.6428 -0.3431
 1917SOL    HW1 6650   6.883   5.764   3.025  0.7625 -1.5025 -1.2995
 1917SOL    HW2 6651   6.947   5.802   2.880 -0.1644  0.5091 -1.2094
 1918SOL     OW 6652   2.965   4.416   0.186  0.4080  0.0639  0.1918
 1918SOL    HW1 6653   2.936   4.352   0.115  1.1229 -1.0131  0.8450
 1918SOL    HW2 6654   2.981   4.506   0.146  2.3135 -0.8904 -1.3287
 1919SOL     OW 6655   1.685   2.341   4.906  0.4594 -0.0582  0.1025
 1919SOL    HW1 6656   1.670   2.266   4.971 -4.4164 -0.8075 -1.5160
 1919SOL    HW2 6657   1.732   2.305   4.825  1.6665 -0.3481  0.8909
 1920SOL     OW 6658   3.231   3.322   6.929  0.3018  0.0325  0.5787
 1920SOL    HW1 6659   3.163   3.249   6.917 -0.1818  0.5327  0.2509
 1920SOL    HW2 6660   3.197   3.390   6.993  0.3484  0.4556  0.1612
 1921SOL     OW 6661   3.028   3.891   3.267 -0.2723  0.8802  0.3912
 1921SOL    HW1 6662   3.081   3.970   3.299  1.1556  0.1891 -0.2055
 1921SOL    HW2 6663   2.996   3.838   3.346  1.1041  0.5598  0.7596
 1922SOL     OW 6664   5.029   4.315   5.970  0.1270  0.5180  0.4504
 1922SOL    HW1 6665   5.089   4.335   6.047 -0.1497 -0.1260  0.8449
 1922SOL    HW2 6666   5.058   4.367   5.890  0.9394  0.5502  0.7585
 1923SOL     OW 6667   5.476   1.291   0.369  0.3079 -0.4518  0.0028
 1923SOL    HW1 6668   5.567   1.332   0.380  0.1423  0.0635 -0.4929
 1923SOL    HW2 6669   5.452   1.242   0.452  0.3637  0.7772  0.7796
 1924SOL     OW 6670   1.279   5.796   6.255 -0.1450  0.4730 -0.1607
 1924SOL    HW1 6671   1.265   5.786   6.353  0.9162 -0.0333 -0.0416
 1924SOL    HW2 6672   1.194   5.774   6.207 -0.6877  0.7744  0.6352
 1925SOL     OW 6673   3.788   4.309   6.122 -0.0453  0.2656 -0.6762
 1925SOL    HW1 6674   3.715   4.340   6.184  1.0684  0.5883  0.5068
 1925SOL    HW2 6675   3.748   4.290   6.032 -1.4271  1.3823 -0.3476
 1926SOL     OW 6676   3.022   5.941   1.154  0.0012 -0.3895  0.2245
 1926SOL    HW1 6677   3.060   5.853   1.184 -0.0448 -0.9201 -1.1718
 1926SOL    HW2 6678   2.991   5.933   1.059 -1.6139  0.6432  0.6150
 1927SOL     OW 6679   4.070   0.481   1.433 -0.1507  0.5145  0.2299
 1927SOL    HW1 6680   3.989   0.421   1.432  0.9172 -0.9788 -1.5446
 1927SOL    HW2 6681   4.089   0.507   1.528 -1.3411 -1.0121  0.9519
 1928SOL     OW 6682   6.769   5.355   1.711  0.7799 -0.4855 -0.3587
 1928SOL    HW1 6683   6.725   5.402   1.787 -1.1631 -1.8049 -0.5975
 1928SOL    HW2 6684   6.797   5.264   1.740 -1.5490 -1.6821 -1.5779
 1929SOL     OW 6685   1.213   0.046   3.403 -0.3449  0.2949  0.7871
 1929SOL    HW1 6686   1.216   0.035   3.304 -1.8324  1.5401  0.5549
 1929SOL    HW2 6687   1.225   0.143   3.426  2.8259 -0.2709  2.0480
 1930SOL     OW 6688   0.949   3.898   1.092  0.0837  0.0626 -0.2924
 1930SOL    HW1 6689   0.978   3.992   1.109  1.6829 -0.7116  1.7920
 1930SOL    HW2 6690   1.028   3.838   1.094 -0.8832 -1.3418 -1.7712
 1931SOL     OW 6691   0.239   0.488   6.376 -0.1669 -0.2661  0.5364
 1931SOL    HW1 6692   0.229   0.409   6.437 -1.6786 -1.5293 -1.2575
 1931SOL    HW2 6693   0.215   0.572   6.426 -1.7474 -1.3009  1.6094
 1932SOL     OW 6694   5.063   1.523   0.669 -0.4648  0.0243  0.2156
 1932SOL    HW1 6695   5.117   1.586   0.725 -0.4600 -0.8412  1.2102
 1932SOL    HW2 6696   5.037   1.443   0.723 -1.3493 -0.3557 -0.7283
 1933SOL     OW 6697   1.328   0.292   5.572  0.6638 -0.3001  1.0343
 1933SOL    HW1 6698   1.313   0.332   5.662  2.9727  2.4850  0.3072
 1933SOL    HW2 6699   1.404   0.226   5.577  0.6379 -0.3205  1.1629
 1934SOL     OW 6700   6.583   1.844   1.226 -0.1087  0.3498  0.0833
 1934SOL    HW1 6701   6.551   1.938   1.229 -0.3043  0.2830  0.0931
 1934SOL    HW2 6702   6.679   1.840   1.254  0.1747  0.6667 -0.7871
 1935SOL     OW 6703   4.673   5.632   6.893 -0.5314  0.2510  0.0398
 1935SOL    HW1 6704   4.651   5.730   6.892  0.1792  0.4648 -2.6841
 1935SOL    HW2 6705   4.766   5.619   6.859 -0.2720 -1.3459  1.2550
 1936SOL     OW 6706   0.084   6.338   4.152 -0.0113 -0.7617 -0.6947
 1936SOL    HW1 6707   0.055   6.242   4.156 -3.8620  0.2748  1.8251
 1936SOL    HW2 6708   0.005   6.397   4.170  2.5855  2.8872 -0.2371
 1937SOL     OW 6709   2.348   0.456   4.665 -0.6420  0.9019 -0.1164
 1937SOL    HW1 6710   2.429   0.500   4.625 -0.0231 -1.0846 -1.1761
 1937SOL    HW2 6711   2.269   0.473   4.607 -0.9815  2.5909  0.7609
 1938SOL     OW 6712   5.285   0.483   0.358 -0.0770  0.1137  0.4762
 1938SOL    HW1 6713   5.377   0.449   0.375 -0.3246 -0.3364  0.9773
 1938SOL    HW2 6714   5.288   0.561   0.296  0.8760  1.5724  2.2347
 1939SOL     OW 6715   0.092   6.206   5.326 -0.3177 -0.1394  0.2615
 1939SOL    HW1 6716   0.007   6.248   5.294  1.3687  3.0240 -0.4650
 1939SOL    HW2 6717   0.112   6.237   5.419 -0.4139 -1.6880  0.8300
 1940SOL     OW 6718   4.170   2.069   4.545  0.0375 -0.1190  0.8610
 1940SOL    HW1 6719   4.147   2.076   4.642 -0.6237 -0.4992  0.7403
 1940SOL    HW2 6720   4.195   2.159   4.510  0.5982 -0.0349  1.4567
 1941SOL     OW 6721   5.793   4.805   1.749  0.2112  0.0073  0.0218
 1941SOL    HW1 6722   5.818   4.744   1.674 -0.6476 -0.4902  0.1269
 1941SOL    HW2 6723   5.852   4.886   1.747  1.4543 -0.8658 -0.0447
 1942SOL     OW 6724   2.763   4.791   2.656 -0.0618 -0.4202 -0.4234
 1942SOL    HW1 6725   2.743   4.887   2.637  1.1731 -0.3084 -1.3296
 1942SOL    HW2 6726   2.681   4.736   2.642 -0.7480  0.4771 -0.0286
 1943SOL     OW 6727   0.038   6.746   5.085  0.0968 -0.1834  0.0969
 1943SOL    HW1 6728   0.110   6.763   5.018 -0.1517 -0.4717 -0.2465
 1943SOL    HW2 6729   0.037   6.819   5.153 -0.6394  0.9344 -1.0787
 1944SOL     OW 6730   4.038   2.141   0.428 -0.4762  0.3630  0.1930
 1944SOL    HW1 6731   3.947   2.139   0.469 -0.0087  1.4960  1.3813
 1944SOL    HW2 6732   4.050   2.226   0.377  0.6707  1.3828  2.0330
 1945SOL     OW 6733   0.248   4.139   3.060  0.0698 -0.4470 -0.2858
 1945SOL    HW1 6734   0.158   4.107   3.029 -0.7535  0.4846  1.0774
 1945SOL    HW2 6735   0.248   4.147   3.159  2.1918 -1.9674 -0.0938
 1946SOL     OW 6736   6.598   2.401   1.867 -0.7647  0.2735  0.6727
 1946SOL    HW1 6737   6.546   2.317   1.885  0.2853 -0.0495  2.4161
 1946SOL    HW2 6738   6.553   2.478   1.913 -1.2554  0.5298 -0.2158
 1947SOL     OW 6739   3.669   5.977   2.230  0.1640 -0.0068  0.8776
 1947SOL    HW1 6740   3.572   5.954   2.216  0.1987  1.3649 -2.4155
 1947SOL    HW2 6741   3.722   5.893   2.239 -1.1027 -0.8330  0.9751
 1948SOL     OW 6742   1.216   6.463   5.958  0.0157 -0.2474  0.3033
 1948SOL    HW1 6743   1.223   6.466   5.858  1.5461 -1.6966  0.3365
 1948SOL    HW2 6744   1.156   6.388   5.985  1.1709 -1.1308  0.4868
 1949SOL     OW 6745   4.114   1.840   3.852  0.5313  0.3973  0.2154
 1949SOL    HW1 6746   4.124   1.870   3.947 -1.1694  0.2514  0.4783
 1949SOL    HW2 6747   4.077   1.915   3.797 -0.3373 -0.0800  0.1157
 1950SOL     OW 6748   6.961   3.276   0.182  0.3020 -0.2404  0.0089
 1950SOL    HW1 6749   6.971   3.179   0.206  0.5436  0.0444  1.1266
 1950SOL    HW2 6750   7.032   3.302   0.117  1.4465 -0.3533  1.1847
 1951SOL     OW 6751   2.085   5.896   6.632  0.3245 -0.2715  0.3417
 1951SOL    HW1 6752   2.181   5.877   6.611 -0.0047 -1.3419 -0.2940
 1951SOL    HW2 6753   2.027   5.834   6.580 -0.9142  2.7312 -2.1633
 1952SOL     OW 6754   3.619   1.679   5.582  1.0606 -0.0866  0.1074
 1952SOL    HW1 6755   3.563   1.757   5.608 -0.5315 -1.7124  1.8717
 1952SOL    HW2 6756   3.715   1.708   5.576  0.5975  1.8747  1.2092
 1953SOL     OW 6757   1.282   2.529   1.624  0.0718 -0.1053  0.2180
 1953SOL    HW1 6758   1.311   2.485   1.709  1.3248  2.5188  1.2847
 1953SOL    HW2 6759   1.247   2.460   1.560 -1.5828 -2.1173  3.0645
 1954SOL     OW 6760   3.044   1.452   5.963 -0.3609  0.1503 -0.1225
 1954SOL    HW1 6761   3.004   1.433   5.874  0.2480 -2.9277  0.1429
 1954SOL    HW2 6762   3.135   1.490   5.952  0.6820 -2.3654 -0.9799
 1955SOL     OW 6763   0.165   3.267   4.442 -0.1764 -0.3213 -0.1007
 1955SOL    HW1 6764   0.229   3.344   4.434  0.8585 -1.1761 -0.2046
 1955SOL    HW2 6765   0.207   3.184   4.406 -1.7523 -0.7033 -1.2009
 1956SOL     OW 6766   1.511   1.922   2.014 -0.2115 -0.1865 -0.3476
 1956SOL    HW1 6767   1.603   1.949   2.042 -0.4357  0.4533 -0.2159
 1956SOL    HW2 6768   1.470   1.996   1.960 -1.6273  0.6715  1.7892
 1957SOL     OW 6769   6.287   0.472   3.329 -0.5529 -0.3062  0.0969
 1957SOL    HW1 6770   6.241   0.509   3.410 -0.0864 -3.0335  1.7207
 1957SOL    HW2 6771   6.232   0.398   3.290  0.5292 -0.8771 -0.3856
 1958SOL     OW 6772   5.648   0.470   4.362  0.0036  0.1014  0.1292
 1958SOL    HW1 6773   5.628   0.385   4.313 -1.9974 -0.3391  1.6004
 1958SOL    HW2 6774   5.745   0.471   4.389  0.2779 -1.2508 -0.6927
 1959SOL     OW 6775   2.649   6.281   3.331  0.5157  0.2188  0.7935
 1959SOL    HW1 6776   2.621   6.371   3.364  1.4284  0.2911  1.4179
 1959SOL    HW2 6777   2.713   6.239   3.396  0.2040 -0.8313  0.4530
 1960SOL     OW 6778   0.651   3.026   2.803 -0.3137 -0.0172 -0.0458
 1960SOL    HW1 6779   0.553   3.008   2.796 -0.2481 -0.6892  0.5914
 1960SOL    HW2 6780   0.700   2.974   2.733 -0.4647  0.9019 -0.8519
 1961SOL     OW 6781   2.143   2.008   5.577  0.2665  0.1048 -0.0836
 1961SOL    HW1 6782   2.159   2.026   5.480 -0.2844 -1.1630 -0.4334
 1961SOL    HW2 6783   2.076   2.072   5.613  1.2361  1.2524 -0.2567
 1962SOL     OW 6784   1.573   4.271   0.458 -0.7304  0.1403  0.0564
 1962SOL    HW1 6785   1.660   4.283   0.409 -0.9768  0.5338 -0.2954
 1962SOL    HW2 6786   1.531   4.185   0.431  0.1475 -0.6900  1.1789
 1963SOL     OW 6787   4.050   1.013   0.807 -0.3119 -0.5120 -0.0932
 1963SOL    HW1 6788   4.005   1.066   0.879 -0.5581  0.0629 -0.6576
 1963SOL    HW2 6789   4.124   1.067   0.767 -0.8909 -0.3719 -1.0159
 1964SOL     OW 6790   3.776   6.588   3.914  0.0630 -0.3037 -0.1589
 1964SOL    HW1 6791   3.836   6.548   3.845 -1.4754 -2.4044 -0.3944
 1964SOL    HW2 6792   3.738   6.674   3.880  1.0603 -0.1671 -0.9709
 1965SOL     OW 6793   3.549   1.375   2.929  0.0614  0.1491  0.3034
 1965SOL    HW1 6794   3.491   1.302   2.965  0.1313  0.8582  1.9877
 1965SOL    HW2 6795   3.613   1.405   3.001  0.7427  1.1460 -0.6779
 1966SOL     OW 6796   2.344   6.561   0.412  0.3674 -0.2421 -0.3793
 1966SOL    HW1 6797   2.255   6.582   0.372  0.7806 -0.2453 -1.3332
 1966SOL    HW2 6798   2.411   6.547   0.339  1.4429  0.9738  0.3203
 1967SOL     OW 6799   1.887   2.782   2.355  0.2406  0.0271 -0.4390
 1967SOL    HW1 6800   1.930   2.693   2.367  1.0306  0.5641  1.1521
 1967SOL    HW2 6801   1.951   2.854   2.385 -1.7082  0.8667  2.0799
 1968SOL     OW 6802   5.760   0.141   2.209  0.2304 -0.2616  0.1432
 1968SOL    HW1 6803   5.746   0.173   2.116  1.2474 -1.1027 -0.3237
 1968SOL    HW2 6804   5.841   0.185   2.248 -0.6166  0.6561  0.9224
 1969SOL     OW 6805   4.355   5.176   1.526 -0.5215  0.6041  0.1748
 1969SOL    HW1 6806   4.271   5.124   1.538 -1.2587  1.3216 -1.5322
 1969SOL    HW2 6807   4.374   5.189   1.428  0.5155  2.1164  0.5175
 1970SOL     OW 6808   2.772   0.645   3.999  0.2144 -0.6279  0.0304
 1970SOL    HW1 6809   2.679   0.657   3.965  0.7198 -1.6437 -1.8478
 1970SOL    HW2 6810   2.833   0.622   3.923  1.6156 -2.0577  1.4940
 1971SOL     OW 6811   0.105   2.274   5.676  0.0257 -0.0983  0.3169
 1971SOL    HW1 6812   0.019   2.304   5.718 -0.5569 -0.5042 -0.5471
 1971SOL    HW2 6813   0.128   2.336   5.601  0.0288 -0.4769  0.0010
 1972SOL     OW 6814   1.900   5.653   1.853 -0.0423 -0.3888 -0.6659
 1972SOL    HW1 6815   1.912   5.751   1.867 -1.6116 -0.2976  0.2061
 1972SOL    HW2 6816   1.812   5.635   1.808  0.3269 -1.3954 -1.0357
 1973SOL     OW 6817   2.716   3.804   1.423 -0.4183 -0.0542 -0.7056
 1973SOL    HW1 6818   2.808   3.838   1.401 -0.7422  0.9055 -0.6122
 1973SOL    HW2 6819   2.722   3.708   1.450  0.3271 -0.5569 -2.4954
 1974SOL     OW 6820   2.245   4.884   6.671 -0.1334  0.1917  0.0006
 1974SOL    HW1 6821   2.228   4.931   6.757  1.4724 -0.9208  0.9778
 1974SOL    HW2 6822   2.343   4.871   6.658 -0.4129 -0.9932 -1.2725
 1975SOL     OW 6823   3.660   6.110   4.266  0.7531 -0.2880 -0.2482
 1975SOL    HW1 6824   3.611   6.135   4.350  0.9866  1.0807 -0.4893
 1975SOL    HW2 6825   3.757   6.100   4.287  0.7293 -0.5081 -0.2455
 1976SOL     OW 6826   5.971   3.292   4.206 -0.1918 -0.0245  0.6981
 1976SOL    HW1 6827   5.876   3.274   4.181 -0.3342  1.0203  0.4494
 1976SOL    HW2 6828   6.015   3.206   4.235 -0.3927 -1.0723 -1.8409
 1977SOL     OW 6829   6.489   6.723   4.138  0.0603  0.3034 -0.2058
 1977SOL    HW1 6830   6.410   6.785   4.144 -0.6370 -0.5048 -0.7189
 1977SOL    HW2 6831   6.572   6.772   4.163 -0.7671  0.8079  1.7675
 1978SOL     OW 6832   4.606   6.093   5.018  0.1167 -0.2297  0.5529
 1978SOL    HW1 6833   4.514   6.118   4.987 -0.5587 -1.6609  1.3366
 1978SOL    HW2 6834   4.638   6.159   5.086  0.4502  1.3119 -1.0264
 1979SOL     OW 6835   6.148   4.740   3.470  0.1019 -0.3943  0.4173
 1979SOL    HW1 6836   6.129   4.780   3.559 -1.1803  0.9386 -0.4045
 1979SOL    HW2 6837   6.206   4.801   3.416 -0.2290 -0.5466 -0.1290
 1980SOL     OW 6838   3.738   5.698   2.242 -0.1332 -0.1030 -0.2983
 1980SOL    HW1 6839   3.736   5.713   2.341  1.1032 -0.9863 -0.1083
 1980SOL    HW2 6840   3.788   5.613   2.223 -0.0832  0.2245 -1.6971
 1981SOL     OW 6841   5.496   6.158   3.491 -0.2344 -0.1332 -0.2968
 1981SOL    HW1 6842   5.428   6.201   3.550 -0.1930  0.4086 -0.6343
 1981SOL    HW2 6843   5.507   6.062   3.516 -1.5569 -0.3814 -0.6439
 1982SOL     OW 6844   4.385   0.970   2.464 -0.1672 -0.1382 -0.0770
 1982SOL    HW1 6845   4.438   0.965   2.380 -0.4741  0.9034 -0.3580
 1982SOL    HW2 6846   4.446   0.972   2.543  0.2398  1.0441 -0.3940
 1983SOL     OW 6847   1.403   2.605   3.876  0.5919  0.1180  0.0589
 1983SOL    HW1 6848   1.355   2.632   3.959  0.8600 -0.5430  0.4306
 1983SOL    HW2 6849   1.373   2.514   3.848  0.0432  0.5736 -0.9246
 1984SOL     OW 6850   6.681   6.278   0.035  0.3681 -0.3334 -0.0955
 1984SOL    HW1 6851   6.608   6.213   0.050  0.6336 -0.4557  0.7259
 1984SOL    HW2 6852   6.768   6.229   0.022  0.0369 -0.3070 -3.1875
 1985SOL     OW 6853   6.085   2.507   0.166  0.3761  0.5979 -0.1334
 1985SOL    HW1 6854   6.114   2.411   0.164  0.1085  0.4508  1.5498
 1985SOL    HW2 6855   6.141   2.557   0.232  0.7750  1.7171 -1.2779
 1986SOL     OW 6856   3.768   1.167   0.008  0.2162 -0.3311 -0.4267
 1986SOL    HW1 6857   3.688   1.152   0.067  0.4762  1.1135  0.3332
 1986SOL    HW2 6858   3.737   1.180  -0.086 -0.2484 -2.1164 -0.5508
 1987SOL     OW 6859   5.708   1.100   2.179  0.3876  0.3423 -0.1716
 1987SOL    HW1 6860   5.792   1.063   2.140  0.3959  1.1423 -0.9526
 1987SOL    HW2 6861   5.719   1.199   2.192  0.3017  0.1427  1.6612
 1988SOL     OW 6862   4.854   0.949   0.326  0.3764  0.0064  0.1063
 1988SOL    HW1 6863   4.840   0.970   0.229 -0.0294  1.0843  0.3811
 1988SOL    HW2 6864   4.930   1.004   0.361  1.5410 -1.5166  0.0416
 1989SOL     OW 6865   0.015   2.558   3.705 -0.0255 -0.1766  0.1598
 1989SOL    HW1 6866   0.077   2.484   3.680  1.6458  1.6596 -1.5377
 1989SOL    HW2 6867   0.009   2.623   3.629 -3.0609  0.4246  0.7758
 1990SOL     OW 6868   6.879   6.461   5.051 -0.1236  0.0976  0.1797
 1990SOL    HW1 6869   6.861   6.391   5.120  0.1632  1.8332  2.1205
 1990SOL    HW2 6870   6.952   6.521   5.083 -1.5376  2.3504 -0.5641
 1991SOL     OW 6871   0.464   5.520   1.902 -0.3611  0.1540  0.2965
 1991SOL    HW1 6872   0.537   5.586   1.890 -0.5575  0.1514 -1.1860
 1991SOL    HW2 6873   0.433   5.520   1.997  1.9815 -0.3190  1.1246
 1992SOL     OW 6874   0.671   5.677   1.793 -0.0115  0.1837 -0.3761
 1992SOL    HW1 6875   0.644   5.666   1.697  0.4001 -0.2926 -0.4396
 1992SOL    HW2 6876   0.751   5.737   1.798 -0.6089  0.9779 -0.2501
 1993SOL     OW 6877   3.818   3.573   1.603  0.0887 -0.1775 -0.1495
 1993SOL    HW1 6878   3.775   3.606   1.687 -0.0823 -1.7967  0.4270
 1993SOL    HW2 6879   3.773   3.489   1.573  3.7748 -3.0024  1.4371
 1994SOL     OW 6880   5.999   5.926   4.160 -0.3892  0.1660 -0.2413
 1994SOL    HW1 6881   5.942   5.939   4.079 -0.5385 -0.4471 -0.2392
 1994SOL    HW2 6882   6.058   6.006   4.173 -1.2866  0.8362 -0.2096
 1995SOL     OW 6883   6.131   1.312   3.600 -0.1036 -0.4294 -0.5169
 1995SOL    HW1 6884   6.184   1.389   3.566  2.3938 -2.1491 -0.8018
 1995SOL    HW2 6885   6.035   1.323   3.574 -0.0109  2.8937  0.1312
 1996SOL     OW 6886   2.842   3.870   0.583  0.0611 -0.3742 -0.2493
 1996SOL    HW1 6887   2.807   3.918   0.503  0.3741  0.1523 -0.0794
 1996SOL    HW2 6888   2.922   3.815   0.557  0.2431 -0.0993 -0.2752
 1997SOL     OW 6889   6.630   5.144   6.389 -0.0081  0.4163  0.1441
 1997SOL    HW1 6890   6.586   5.183   6.309  0.2891  1.5827  0.5259
 1997SOL    HW2 6891   6.696   5.210   6.426  0.7311 -0.5747  0.6428
 1998SOL     OW 6892   0.780   3.686   3.144 -0.2912 -0.1353 -0.3509
 1998SOL    HW1 6893   0.814   3.595   3.165  0.3292  0.4264  1.2455
 1998SOL    HW2 6894   0.682   3.681   3.125 -0.4277 -1.0368  0.5108
 1999SOL     OW 6895   0.348   3.650   5.616  0.4331 -0.1881 -0.3313
 1999SOL    HW1 6896   0.358   3.745   5.585  0.7363  0.3505  1.3047
 1999SOL    HW2 6897   0.253   3.633   5.642  0.5156 -0.1033  0.0363
 2000SOL     OW 6898   4.185   2.288   4.783 -0.2900 -0.1743 -0.2343
 2000SOL    HW1 6899   4.191   2.321   4.877  0.9574 -0.6916 -0.1080
 2000SOL    HW2 6900   4.184   2.367   4.720  2.1202  0.1955  0.0872
 2001SOL     OW 6901   6.122   5.624   3.671  0.0173 -0.2442  0.5403
 2001SOL    HW1 6902   6.049   5.611   3.738 -1.7498 -0.8494 -1.4174
 2001SOL    HW2 6903   6.162   5.536   3.648 -2.5751 -0.7829 -2.5339
 2002SOL     OW 6904   4.133   1.914   4.113 -0.4293  0.0529 -0.0271
 2002SOL    HW1 6905   4.194   1.987   4.083 -3.2020  1.8092 -1.8791
 2002SOL    HW2 6906   4.084   1.944   4.196  0.3755 -0.8997  0.8198
 2003SOL     OW 6907   3.684   5.567   0.167 -0.3964 -0.3515 -0.3116
 2003SOL    HW1 6908   3.627   5.506   0.223 -0.7766  2.2090  2.3164
 2003SOL    HW2 6909   3.780   5.553   0.192 -0.6032  1.1875  1.5733
 2004SOL     OW 6910   0.358   1.137   6.062 -0.0587  0.3286 -0.1817
 2004SOL    HW1 6911   0.436   1.075   6.070  0.2895  0.8198  0.3193
 2004SOL    HW2 6912   0.276   1.084   6.040  0.5019 -0.1360 -1.2376
 2005SOL     OW 6913   1.991   3.646   1.918 -0.2197 -0.2166  0.1483
 2005SOL    HW1 6914   2.071   3.606   1.962 -0.1481  0.7673  0.9524
 2005SOL    HW2 6915   1.949   3.712   1.980 -0.9348  0.1859 -0.7475
 2006SOL     OW 6916   6.549   3.344   6.123  0.1993  0.4295  0.1189
 2006SOL    HW1 6917   6.489   3.282   6.072 -1.6451  0.3629  2.2095
 2006SOL    HW2 6918   6.597   3.292   6.194  2.3992  0.5931 -1.1600
 2007SOL     OW 6919   0.104   6.226   4.828 -0.0832  0.5928  0.4492
 2007SOL    HW1 6920   0.177   6.174   4.783 -1.1364  0.1090 -0.7519
 2007SOL    HW2 6921   0.084   6.185   4.916 -0.5315 -0.7455 -0.2543
 2008SOL     OW 6922   0.535   3.022   5.995 -0.2912  0.0274 -0.3484
 2008SOL    HW1 6923   0.439   3.044   6.006 -0.3987 -0.7912  0.4444
 2008SOL    HW2 6924   0.589   3.071   6.064 -0.4603 -1.6195  0.9982
 2009SOL     OW 6925   6.840   1.902   1.330  0.1304  0.1932  0.1611
 2009SOL    HW1 6926   6.878   1.957   1.404  1.6342 -1.1713  0.4601
 2009SOL    HW2 6927   6.900   1.824   1.312 -1.0585 -0.4217 -1.3859
 2010SOL     OW 6928   5.946   0.965   1.393  0.0418 -0.5352 -0.4626
 2010SOL    HW1 6929   5.991   0.881   1.425 -0.2356 -0.0777  1.2270
 2010SOL    HW2 6930   5.958   0.973   1.294 -0.6977 -3.0199 -0.8424
 2011SOL     OW 6931   5.799   3.472   4.405 -0.4643  0.2945 -0.4633
 2011SOL    HW1 6932   5.769   3.564   4.430 -1.3380  0.2267 -1.2206
 2011SOL    HW2 6933   5.808   3.465   4.306 -0.2845 -0.3992 -0.4073
 2012SOL     OW 6934   4.042   6.363   2.010  0.7432 -0.0152 -0.0657
 2012SOL    HW1 6935   4.026   6.459   2.032  0.0654 -0.3814  1.1668
 2012SOL    HW2 6936   4.108   6.356   1.936 -0.2675  1.4296 -1.1617
 2013SOL     OW 6937   2.261   4.960   4.775 -0.3366  0.0415  0.2748
 2013SOL    HW1 6938   2.302   4.889   4.718 -1.4324 -1.8367  1.6976
 2013SOL    HW2 6939   2.220   4.918   4.856 -1.2099  2.3096  1.0944
 2014SOL     OW 6940   5.682   3.015   6.902 -0.1623  0.2940  0.6472
 2014SOL    HW1 6941   5.744   3.041   6.975 -0.8943 -1.5950  2.0290
 2014SOL    HW2 6942   5.707   2.925   6.867 -2.0272 -0.5000  1.2159
 2015SOL     OW 6943   2.233   6.203   4.690 -0.9341  0.2847  0.5895
 2015SOL    HW1 6944   2.226   6.252   4.603 -1.8738 -0.3082  0.3177
 2015SOL    HW2 6945   2.308   6.137   4.685 -0.2734  1.0121  0.6300
 2016SOL     OW 6946   3.790   2.935   5.027  0.2769 -0.7697  1.0702
 2016SOL    HW1 6947   3.808   2.969   4.935  1.4392  0.8582  1.8520
 2016SOL    HW2 6948   3.693   2.912   5.036 -0.0479 -0.0036 -0.2512
 2017SOL     OW 6949   2.060   2.806   6.700  0.1292 -0.6422  1.0729
 2017SOL    HW1 6950   2.036   2.739   6.770 -0.9520  1.2423  2.6134
 2017SOL    HW2 6951   2.128   2.869   6.736  0.8548 -0.6611 -0.2124
 2018SOL     OW 6952   5.243   3.526   3.948  0.5549 -0.2150 -0.5773
 2018SOL    HW1 6953   5.270   3.431   3.962  0.3813 -0.1688  0.1501
 2018SOL    HW2 6954   5.226   3.569   4.037 -2.2169 -0.3303 -0.9551
 2019SOL     OW 6955   3.880   0.473   2.200 -0.4181  0.8560  0.6939
 2019SOL    HW1 6956   3.883   0.373   2.202  0.1219  0.8779  1.6133
 2019SOL    HW2 6957   3.927   0.506   2.119 -0.5656  0.3660  0.4053
 2020SOL     OW 6958   6.106   0.759   1.477 -0.1969 -0.1239 -0.1145
 2020SOL    HW1 6959   6.069   0.685   1.534 -0.8826 -0.2812 -0.7501
 2020SOL    HW2 6960   6.141   0.720   1.392 -1.9487  0.4263 -1.1239
 2021SOL     OW 6961   0.152   2.633   6.345 -0.3271 -0.1684 -0.4755
 2021SOL    HW1 6962   0.105   2.698   6.405 -0.2264  0.8677 -1.4745
 2021SOL    HW2 6963   0.246   2.664   6.329 -0.2933 -0.5199 -0.9961
 2022SOL     OW 6964   5.638   1.611   7.011 -0.1283  0.0674 -0.3012
 2022SOL    HW1 6965   5.595   1.696   6.980 -1.8375 -0.0558  1.5213
 2022SOL    HW2 6966   5.567   1.543   7.029  0.9899 -0.8051  0.9446
 2023SOL     OW 6967   6.722   5.185   3.226  0.1354  0.2919 -0.3579
 2023SOL    HW1 6968   6.634   5.150   3.194  0.2445 -1.1882  0.8494
 2023SOL    HW2 6969   6.713   5.217   3.320  0.8066  0.5117 -0.3618
 2024SOL     OW 6970   5.031   4.447   2.576 -0.2481  0.1441 -0.4008
 2024SOL    HW1 6971   4.970   4.443   2.498 -0.0344 -0.5827 -0.5316
 2024SOL    HW2 6972   5.123   4.420   2.549 -0.0734  0.3036  0.0095
 2025SOL     OW 6973   1.469   3.351   4.182 -0.0739  0.3486  0.0589
 2025SOL    HW1 6974   1.432   3.321   4.094  0.5452 -0.1358 -0.0459
 2025SOL    HW2 6975   1.565   3.376   4.171  0.2637 -0.5704  0.7629
 2026SOL     OW 6976   3.259   2.545   1.189 -0.6480 -0.4927 -0.3824
 2026SOL    HW1 6977   3.216   2.520   1.276  0.5344 -1.6112 -0.0948
 2026SOL    HW2 6978   3.215   2.496   1.114  0.2176 -1.8078 -0.0633
 2027SOL     OW 6979   4.133   5.436   1.067 -0.2597  0.3756  0.2200
 2027SOL    HW1 6980   4.082   5.444   1.153 -2.2793  1.6731 -1.0199
 2027SOL    HW2 6981   4.167   5.342   1.058 -0.8151 -0.0439  1.9834
 2028SOL     OW 6982   4.927   1.205   6.769 -0.7490  0.0330  0.1493
 2028SOL    HW1 6983   4.932   1.256   6.854  1.8016  0.1424  0.0030
 2028SOL    HW2 6984   5.013   1.214   6.719 -1.7951 -0.8879 -1.9553
 2029SOL     OW 6985   1.437   2.551   0.943  0.1812 -0.5615  0.4008
 2029SOL    HW1 6986   1.356   2.538   0.887 -0.0516 -0.3916  0.6979
 2029SOL    HW2 6987   1.483   2.636   0.915  0.7731 -1.1308 -0.3948
 2030SOL     OW 6988   0.589   1.035   5.404  0.0814  0.1754 -0.1426
 2030SOL    HW1 6989   0.509   0.999   5.453 -0.5596  2.6911  0.8518
 2030SOL    HW2 6990   0.667   0.974   5.418 -1.3026 -1.6401  0.0129
 2031SOL     OW 6991   4.953   3.554   3.913 -0.2136  0.0911  0.1910
 2031SOL    HW1 6992   4.933   3.458   3.893  0.7455 -0.3901  1.3941
 2031SOL    HW2 6993   5.041   3.579   3.874 -0.5575  0.5616 -0.3054
 2032SOL     OW 6994   6.332   6.500   4.203 -0.2598 -0.0523  0.6502
 2032SOL    HW1 6995   6.402   6.568   4.225 -0.5014  1.0704 -1.7742
 2032SOL    HW2 6996   6.366   6.439   4.132 -0.6931 -1.4370  1.5781
 2033SOL     OW 6997   5.578   3.514   0.924  0.1905  0.2645 -0.2352
 2033SOL    HW1 6998   5.492   3.481   0.962  0.9736  1.0931  2.5824
 2033SOL    HW2 6999   5.581   3.614   0.932  0.9041  0.3708 -1.5482
 2034SOL     OW 7000   6.093   1.799   3.497 -0.5208  0.0039  0.3750
 2034SOL    HW1 7001   6.165   1.856   3.458  0.8535 -1.0519  1.2699
 2034SOL    HW2 7002   6.009   1.810   3.443  0.8540 -0.2427 -1.9751
 2035SOL     OW 7003   5.044   2.557   0.088  0.0237  0.2627  0.0539
 2035SOL    HW1 7004   5.083   2.591   0.173  1.7107  0.5438 -0.7848
 2035SOL    HW2 7005   5.078   2.612   0.012  1.5033 -2.2025 -1.1788
 2036SOL     OW 7006   3.047   2.039   5.084 -0.3001 -0.3293  0.3311
 2036SOL    HW1 7007   3.079   2.134   5.091 -0.5080 -0.2185 -0.2056
 2036SOL    HW2 7008   2.992   2.029   5.002 -0.4367 -0.8740  0.4906
 2037SOL     OW 7009   2.668   0.617   0.794 -0.2544  0.5917 -0.6301
 2037SOL    HW1 7010   2.577   0.610   0.752 -0.6651 -3.0904  0.4499
 2037SOL    HW2 7011   2.658   0.637   0.892  0.2581  2.2051 -0.8931
 2038SOL     OW 7012   1.290   3.673   5.055  0.2497 -0.5889 -0.1108
 2038SOL    HW1 7013   1.256   3.579   5.054 -0.6566 -0.3849 -4.1384
 2038SOL    HW2 7014   1.369   3.681   4.995  1.4303  0.9593  1.5308
 2039SOL     OW 7015   1.086   5.315   1.912  0.0682 -0.0134 -0.7020
 2039SOL    HW1 7016   1.103   5.285   2.006  0.6629 -0.1639 -0.8542
 2039SOL    HW2 7017   1.027   5.396   1.913  1.8131  1.3012 -0.0857
 2040SOL     OW 7018   5.119   3.276   1.073 -0.7811  0.2318 -0.0613
 2040SOL    HW1 7019   5.030   3.254   1.113 -0.0147 -2.0045  0.5569
 2040SOL    HW2 7020   5.129   3.230   0.986  0.5838 -1.3894  0.9032
 2041SOL     OW 7021   0.865   6.277   3.993  0.2290  0.2161  0.7367
 2041SOL    HW1 7022   0.815   6.356   3.956 -1.3837 -0.7051  0.8405
 2041SOL    HW2 7023   0.817   6.243   4.074  0.4974 -1.2982  0.2817
 2042SOL     OW 7024   0.447   5.333   4.041 -0.3027 -0.1971 -0.2044
 2042SOL    HW1 7025   0.505   5.264   3.998  1.3518 -1.0753  3.1092
 2042SOL    HW2 7026   0.488   5.423   4.028  0.1047 -0.4213 -0.5280
 2043SOL     OW 7027   6.655   3.715   7.016  0.1399 -0.0961 -0.5242
 2043SOL    HW1 7028   6.645   3.814   7.030  0.9437 -0.0630 -0.1162
 2043SOL    HW2 7029   6.633   3.667   7.101 -0.5321 -0.2950 -0.8052
 2044SOL     OW 7030   1.300   0.961   4.007  0.2460  0.1169 -0.1230
 2044SOL    HW1 7031   1.353   1.029   4.058 -0.5549  0.6379  0.0377
 2044SOL    HW2 7032   1.274   0.999   3.918 -0.8524  0.3300  0.2677
 2045SOL     OW 7033   4.608   4.158   6.218 -0.3944 -0.7171 -0.1371
 2045SOL    HW1 7034   4.548   4.132   6.142 -1.0075 -0.6681  0.3236
 2045SOL    HW2 7035   4.602   4.089   6.289  0.4186 -0.9214 -0.2572
 2046SOL     OW 7036   5.104   1.659   4.721 -0.0870  0.5724  0.4237
 2046SOL    HW1 7037   5.154   1.597   4.661 -1.7791 -1.4161  0.9682
 2046SOL    HW2 7038   5.112   1.628   4.816 -1.9066  0.4450  0.5810
 2047SOL     OW 7039   6.947   5.617   0.821 -0.8099 -0.0184 -0.2742
 2047SOL    HW1 7040   7.003   5.608   0.739  0.4449 -1.8091  0.6980
 2047SOL    HW2 7041   6.878   5.544   0.823 -1.3676  0.5108 -0.1371
 2048SOL     OW 7042   2.639   1.518   2.792  0.7975 -0.1936 -0.0429
 2048SOL    HW1 7043   2.634   1.584   2.867 -1.1400  0.0432 -0.3236
 2048SOL    HW2 7044   2.686   1.436   2.822  2.1447  0.8038  0.6963
 2049SOL     OW 7045   0.005   4.691   3.273 -0.0490 -0.0847  0.2136
 2049SOL    HW1 7046  -0.039   4.781   3.281 -2.2539 -1.2305  1.8833
 2049SOL    HW2 7047   0.037   4.678   3.179  0.6020  2.5310 -0.0047
 2050SOL     OW 7048   2.600   1.884   4.484  0.6058  0.1151  0.1212
 2050SOL    HW1 7049   2.537   1.829   4.538  1.1812 -1.1902 -0.4859
 2050SOL    HW2 7050   2.657   1.939   4.545 -0.4638  0.5924  0.7121
 2051SOL     OW 7051   2.875   0.825   5.710  0.5696 -0.1022 -0.3143
 2051SOL    HW1 7052   2.919   0.788   5.628  2.2878  0.1614  0.4481
 2051SOL    HW2 7053   2.834   0.914   5.689  1.8933  0.4426 -0.6513
 2052SOL     OW 7054   1.160   5.849   2.477 -0.0689 -0.2227  0.0138
 2052SOL    HW1 7055   1.098   5.917   2.517  1.3634  2.1875 -1.5790
 2052SOL    HW2 7056   1.254   5.869   2.506  0.7149  0.1991 -2.5359
 2053SOL     OW 7057   2.080   0.555   0.045  0.2278 -0.7337  0.3142
 2053SOL    HW1 7058   2.138   0.475   0.025  1.8662  0.4373  0.1507
 2053SOL    HW2 7059   2.075   0.613  -0.036 -1.6785 -1.0671  0.1563
 2054SOL     OW 7060   4.094   6.625   6.516 -0.4174 -0.2723 -0.1352
 2054SOL    HW1 7061   4.059   6.569   6.590 -1.1791  2.7887  2.0200
 2054SOL    HW2 7062   4.172   6.679   6.549 -1.6511  2.2119 -1.0155
 2055SOL     OW 7063   6.148   0.789   2.546  0.5805  0.1239 -0.2167
 2055SOL    HW1 7064   6.205   0.866   2.518  0.0509  1.1912  1.4523
 2055SOL    HW2 7065   6.168   0.709   2.489 -0.5706  2.0995 -3.6520
 2056SOL     OW 7066   2.374   0.695   1.509  0.5728 -0.2516 -0.6179
 2056SOL    HW1 7067   2.465   0.666   1.540  1.0261  1.4135 -0.2816
 2056SOL    HW2 7068   2.308   0.621   1.526  0.9370  0.1345  3.5880
 2057SOL     OW 7069   6.277   6.521   1.320 -0.0569 -0.4906 -0.3048
 2057SOL    HW1 7070   6.179   6.528   1.300 -0.5335 -1.0894  1.5932
 2057SOL    HW2 7071   6.320   6.460   1.253 -0.8476  0.1990 -1.4839
 2058SOL     OW 7072   5.960   0.514   0.321  0.1548 -0.3281  0.2608
 2058SOL    HW1 7073   6.000   0.426   0.292  1.0066  0.4862 -1.1725
 2058SOL    HW2 7074   5.867   0.521   0.287  0.6515 -0.0058 -1.0986
 2059SOL     OW 7075   1.263   6.504   4.694  0.0809  0.3125 -0.0780
 2059SOL    HW1 7076   1.236   6.408   4.702 -0.3318  0.3419 -1.0091
 2059SOL    HW2 7077   1.211   6.558   4.759  0.2943 -0.0892  0.4334
 2060SOL     OW 7078   0.006   6.742   6.495 -0.0933  0.0138 -0.3056
 2060SOL    HW1 7079   0.000   6.833   6.453  0.6702  0.3904  0.3821
 2060SOL    HW2 7080   0.010   6.672   6.424 -0.0271  0.5643 -0.8460
 2061SOL     OW 7081   6.729   6.399   2.888  0.5806  0.1591  0.8954
 2061SOL    HW1 7082   6.810   6.367   2.937  0.6163 -1.7622 -0.3063
 2061SOL    HW2 7083   6.647   6.377   2.941  0.7381  0.1700  1.1460
 2062SOL     OW 7084   4.269   5.037   6.637  0.1164 -0.4188 -0.5712
 2062SOL    HW1 7085   4.222   5.089   6.708  1.0946 -0.1747 -0.0813
 2062SOL    HW2 7086   4.236   5.065   6.547 -0.9404 -0.5352 -0.2300
 2063SOL     OW 7087   1.587   4.514   5.890  0.4234  0.1404  0.4613
 2063SOL    HW1 7088   1.642   4.596   5.910  0.0680  0.9754 -1.6812
 2063SOL    HW2 7089   1.495   4.526   5.927  0.2489  0.9097 -0.1990
 2064SOL     OW 7090   0.739   0.713   0.593  0.2383  0.3724  0.0372
 2064SOL    HW1 7091   0.747   0.662   0.508  0.1083 -0.4602  0.5209
 2064SOL    HW2 7092   0.642   0.733   0.611 -0.1773 -2.6674  1.8263
 2065SOL     OW 7093   6.342   1.299   5.554  0.2243  0.1418  0.0006
 2065SOL    HW1 7094   6.429   1.263   5.587  2.0505  3.8574 -0.2517
 2065SOL    HW2 7095   6.324   1.264   5.463  0.8384 -1.5470  0.4862
 2066SOL     OW 7096   4.159   2.038   1.086  0.0413 -0.2410  0.0774
 2066SOL    HW1 7097   4.161   1.989   1.173 -2.5012 -2.0412 -0.7537
 2066SOL    HW2 7098   4.142   2.135   1.103  1.9244 -0.1399  1.6454
 2067SOL     OW 7099   3.923   0.115   0.255  0.1101  0.0850  0.3997
 2067SOL    HW1 7100   3.948   0.087   0.348 -3.7735  0.2411  1.6466
 2067SOL    HW2 7101   3.918   0.034   0.197 -0.6927 -0.4833  1.2318
 2068SOL     OW 7102   4.256   2.291   3.345  0.0295 -0.0996  0.0927
 2068SOL    HW1 7103   4.312   2.229   3.290 -0.1977  0.6489 -1.0085
 2068SOL    HW2 7104   4.247   2.379   3.298  1.3209  1.2264  2.1178
 2069SOL     OW 7105   0.793   0.389   4.929  0.1672 -0.3325 -0.3416
 2069SOL    HW1 7106   0.865   0.389   4.998 -0.2035 -1.5408  0.0862
 2069SOL    HW2 7107   0.744   0.302   4.933 -2.1206  0.9030  0.2164
 2070SOL     OW 7108   4.491   0.892   1.276 -0.5319 -0.2152 -0.3099
 2070SOL    HW1 7109   4.539   0.869   1.361  0.2225 -1.8084 -1.1292
 2070SOL    HW2 7110   4.471   0.990   1.275 -2.4224 -0.4618  2.6129
 2071SOL     OW 7111   3.521   0.013   0.719 -0.5202  0.0943  0.4564
 2071SOL    HW1 7112   3.423   0.024   0.706 -0.1344  1.4432 -1.8393
 2071SOL    HW2 7113   3.565   0.103   0.719  0.8858 -0.5561 -0.3610
 2072SOL     OW 7114   6.113   6.801   5.362  0.0946 -0.6958  0.1284
 2072SOL    HW1 7115   6.034   6.803   5.301 -0.9826 -1.7533  1.4256
 2072SOL    HW2 7116   6.184   6.861   5.326 -1.2821  0.2930 -1.0693
 2073SOL     OW 7117   2.071   2.548   1.156 -0.2624  0.0292  0.4788
 2073SOL    HW1 7118   2.119   2.629   1.189  2.9929 -1.3587 -0.4241
 2073SOL    HW2 7119   2.135   2.471   1.152 -2.2467 -1.6564 -2.3213
 2074SOL     OW 7120   5.820   6.865   0.490  0.0568  0.3042  0.0202
 2074SOL    HW1 7121   5.756   6.789   0.504  1.8882 -1.1002  1.1542
 2074SOL    HW2 7122   5.914   6.833   0.501  0.9572  2.5421 -0.4869
 2075SOL     OW 7123   4.231   4.770   0.243 -0.6597 -0.3231  0.3254
 2075SOL    HW1 7124   4.206   4.768   0.147 -0.8150 -1.7257  0.3692
 2075SOL    HW2 7125   4.273   4.858   0.265  0.3214 -0.3548 -1.2694
 2076SOL     OW 7126   2.461   4.958   2.239 -0.1879 -0.0120  0.2723
 2076SOL    HW1 7127   2.546   4.916   2.270 -0.0693 -0.0004 -0.0294
 2076SOL    HW2 7128   2.433   4.916   2.153  0.3938  1.1135 -0.4956
 2077SOL     OW 7129   1.765   1.763   2.771 -0.3325 -0.9484  0.2621
 2077SOL    HW1 7130   1.832   1.702   2.813  1.0547 -0.2116 -0.7944
 2077SOL    HW2 7131   1.753   1.739   2.675  0.7267  0.7415 -0.3583
 2078SOL     OW 7132   6.763   1.448   3.472  0.0300 -0.0876 -0.1677
 2078SOL    HW1 7133   6.748   1.360   3.516  1.0948 -1.0721 -1.6419
 2078SOL    HW2 7134   6.786   1.433   3.375  0.4033  1.8061 -0.4165
 2079SOL     OW 7135   6.083   2.658   1.967 -0.5198 -0.2270 -0.5515
 2079SOL    HW1 7136   5.993   2.679   2.005 -0.3667  0.8681 -0.7851
 2079SOL    HW2 7137   6.072   2.604   1.883 -0.9177 -0.9837 -0.0193
 2080SOL     OW 7138   0.870   4.068   2.395  1.1155 -0.5474  0.3999
 2080SOL    HW1 7139   0.888   4.147   2.335  0.4485  0.5154  1.5500
 2080SOL    HW2 7140   0.776   4.036   2.381  1.4797 -1.3486 -0.2793
 2081SOL     OW 7141   5.327   1.759   6.600  0.2444 -0.0588  0.3824
 2081SOL    HW1 7142   5.408   1.768   6.542 -0.9516 -2.9976 -1.9816
 2081SOL    HW2 7143   5.251   1.809   6.559  0.0253  0.0345  0.8887
 2082SOL     OW 7144   5.161   6.884   6.265 -0.2918 -0.4822 -0.1952
 2082SOL    HW1 7145   5.149   6.785   6.265 -0.6565 -0.4594 -1.4634
 2082SOL    HW2 7146   5.253   6.908   6.235 -0.0842 -0.4374  0.4618
 2083SOL     OW 7147   2.952   6.395   4.337  0.2563 -0.0226 -0.6013
 2083SOL    HW1 7148   2.919   6.419   4.429 -0.5191 -0.8772 -0.6481
 2083SOL    HW2 7149   3.009   6.470   4.302  0.5074  0.3446  0.5415
 2084SOL     OW 7150   4.028   1.312   4.170  0.1859  0.0379 -0.4319
 2084SOL    HW1 7151   4.073   1.401   4.165  1.2669 -0.4532  0.2156
 2084SOL    HW2 7152   4.097   1.240   4.173 -0.6354 -0.7427  0.6099
 2085SOL     OW 7153   3.760   1.329   4.095 -0.2537  1.0943 -0.4205
 2085SOL    HW1 7154   3.855   1.343   4.124 -0.5855  0.1199  1.2784
 2085SOL    HW2 7155   3.749   1.234   4.064 -0.6148  1.2767 -0.8495
 2086SOL     OW 7156   4.698   3.475   0.234 -0.2439 -0.6482 -0.4171
 2086SOL    HW1 7157   4.752   3.454   0.152 -1.1094  0.0422 -1.1827
 2086SOL    HW2 7158   4.719   3.567   0.265 -0.1222 -0.8099 -0.0039
 2087SOL     OW 7159   4.999   5.772   2.438 -0.0564  0.5457 -0.4431
 2087SOL    HW1 7160   5.050   5.702   2.489  0.1548  1.0734  0.0796
 2087SOL    HW2 7161   4.925   5.808   2.496  0.4547  1.4581 -0.3496
 2088SOL     OW 7162   5.436   1.453   0.102 -0.4164 -0.4925 -0.2671
 2088SOL    HW1 7163   5.345   1.486   0.079 -0.6786 -1.3535 -0.5055
 2088SOL    HW2 7164   5.440   1.429   0.199 -0.5788 -0.8704 -0.3523
 2089SOL     OW 7165   6.834   1.421   2.803  0.7843  0.4745  0.9183
 2089SOL    HW1 7166   6.893   1.346   2.832  0.9839  0.5859  0.8056
 2089SOL    HW2 7167   6.740   1.389   2.796  1.3131 -0.7531 -2.5789
 2090SOL     OW 7168   1.301   3.467   0.402 -0.0178  0.0007  1.2340
 2090SOL    HW1 7169   1.250   3.548   0.374 -1.1332 -0.8048  0.8694
 2090SOL    HW2 7170   1.312   3.468   0.501 -1.7248 -0.3392  1.4593
 2091SOL     OW 7171   0.646   2.751   4.797  0.6004 -0.2763 -0.2339
 2091SOL    HW1 7172   0.725   2.743   4.737  0.5654 -0.2653 -0.2812
 2091SOL    HW2 7173   0.616   2.660   4.826  0.9965 -0.2567  0.2604
 2092SOL     OW 7174   1.521   4.232   3.620  0.0806 -0.3268  0.5315
 2092SOL    HW1 7175   1.473   4.271   3.541 -1.4305  0.2092  1.6616
 2092SOL    HW2 7176   1.590   4.297   3.652  0.4291 -0.3802 -0.0776
 2093SOL     OW 7177   6.926   1.389   4.704  0.1239  0.0137  0.6624
 2093SOL    HW1 7178   7.016   1.430   4.720  0.7951 -1.0074 -0.3778
 2093SOL    HW2 7179   6.876   1.384   4.790  1.6095 -0.6594  1.5216
 2094SOL     OW 7180   2.807   6.480   0.020  0.1307 -0.2088 -0.7814
 2094SOL    HW1 7181   2.849   6.411   0.079  1.1211 -0.3265 -1.5845
 2094SOL    HW2 7182   2.721   6.445  -0.018 -0.9363  0.1654  1.1742
 2095SOL     OW 7183   4.968   2.929   0.758  0.5417  0.5028  0.6940
 2095SOL    HW1 7184   5.049   2.877   0.732 -1.2521 -2.4615  0.5680
 2095SOL    HW2 7185   4.912   2.947   0.677 -0.8595 -1.1269  1.2415
 2096SOL     OW 7186   1.642   2.668   1.213  0.4250 -0.2604  0.7686
 2096SOL    HW1 7187   1.571   2.604   1.240  0.2529 -0.8852 -1.0061
 2096SOL    HW2 7188   1.645   2.675   1.113  1.5964  1.1982  0.8547
 2097SOL     OW 7189   4.464   6.486   1.419 -0.4817 -0.1136 -0.2519
 2097SOL    HW1 7190   4.479   6.439   1.506  0.5296 -0.8633 -0.8143
 2097SOL    HW2 7191   4.486   6.583   1.429  0.9243 -0.4483 -0.0117
 2098SOL     OW 7192   6.205   0.631   5.396 -0.0053 -0.2003  0.7105
 2098SOL    HW1 7193   6.200   0.632   5.496  0.4289 -0.4653  0.7370
 2098SOL    HW2 7194   6.301   0.634   5.368 -0.1463  0.8184  0.2927
 2099SOL     OW 7195   2.264   1.126   1.644  0.2442  0.3217 -0.0554
 2099SOL    HW1 7196   2.255   1.028   1.664 -0.3491  0.2826 -0.4684
 2099SOL    HW2 7197   2.343   1.141   1.585 -1.1472 -0.2822 -2.2184
 2100SOL     OW 7198   4.261   3.806   1.707 -0.2754  0.0159  0.2585
 2100SOL    HW1 7199   4.357   3.787   1.685  0.4135  1.1490  2.0864
 2100SOL    HW2 7200   4.213   3.720   1.722  0.8562 -0.5354  0.8499
 2101SOL     OW 7201   1.697   6.579   4.619 -0.4727  0.5814 -0.3581
 2101SOL    HW1 7202   1.742   6.661   4.655 -0.2081  0.6133 -0.7603
 2101SOL    HW2 7203   1.649   6.533   4.694 -0.1704  0.8069 -0.0187
 2102SOL     OW 7204   4.674   2.277   4.054 -0.3097 -0.0981 -0.3484
 2102SOL    HW1 7205   4.752   2.243   4.107  0.1393 -1.4892 -1.8343
 2102SOL    HW2 7206   4.614   2.330   4.114  1.1617  0.0160  1.0912
 2103SOL     OW 7207   1.717   4.500   1.747 -0.8076 -0.8782  0.4677
 2103SOL    HW1 7208   1.713   4.404   1.721 -0.4979 -0.7889  0.0891
 2103SOL    HW2 7209   1.725   4.557   1.666  1.1282 -0.6469  0.7661
 2104SOL     OW 7210   6.943   3.428   6.825  0.4902  0.3757  0.1770
 2104SOL    HW1 7211   6.933   3.415   6.726  0.7204 -0.4338  0.2501
 2104SOL    HW2 7212   6.856   3.407   6.870  0.8077 -0.7748  0.2770
 2105SOL     OW 7213   4.263   1.510   4.118  0.3051  0.1383 -0.9063
 2105SOL    HW1 7214   4.229   1.563   4.196 -1.1013  1.1221 -2.1416
 2105SOL    HW2 7215   4.187   1.489   4.056  1.2989 -1.1047 -1.7617
 2106SOL     OW 7216   2.367   1.804   6.229 -0.0328  0.0155 -0.5562
 2106SOL    HW1 7217   2.369   1.900   6.256  1.6443 -0.2011  0.2145
 2106SOL    HW2 7218   2.272   1.775   6.215 -0.5813  1.6770 -0.4943
 2107SOL     OW 7219   6.780   6.251   1.912  0.2091  0.0165  0.0054
 2107SOL    HW1 7220   6.692   6.289   1.939  0.3668  0.5569 -0.2335
 2107SOL    HW2 7221   6.779   6.152   1.926 -1.0771 -0.2675 -1.6788
 2108SOL     OW 7222   5.749   1.293   0.548  0.6888  0.2096 -0.2670
 2108SOL    HW1 7223   5.774   1.315   0.453  5.1052 -1.8620  0.1855
 2108SOL    HW2 7224   5.808   1.345   0.610  0.3433 -1.1229  1.2133
 2109SOL     OW 7225   4.702   2.785   3.441  0.2733  0.0928 -0.3067
 2109SOL    HW1 7226   4.794   2.802   3.479 -0.5255  0.6496  1.4878
 2109SOL    HW2 7227   4.649   2.731   3.506 -1.0105  0.6301 -0.8687
 2110SOL     OW 7228   2.837   1.267   3.624  0.2898  0.1967 -0.3826
 2110SOL    HW1 7229   2.807   1.298   3.534  1.1517 -0.2623 -0.8391
 2110SOL    HW2 7230   2.757   1.248   3.681 -0.2793  2.2248 -0.4185
 2111SOL     OW 7231   1.263   0.815   6.429  0.0997 -0.3213 -0.1921
 2111SOL    HW1 7232   1.312   0.728   6.439  1.6829  0.6357  0.8250
 2111SOL    HW2 7233   1.276   0.870   6.512  0.3732  1.4959 -1.3976
 2112SOL     OW 7234   3.974   2.310   6.744  0.4172  0.4014 -0.3985
 2112SOL    HW1 7235   3.953   2.218   6.777 -0.1552  1.3913  2.1796
 2112SOL    HW2 7236   3.890   2.363   6.739  0.8480  1.0327 -1.1272
 2113SOL     OW 7237   2.818   4.191   5.807  0.0861 -0.3352 -0.4620
 2113SOL    HW1 7238   2.728   4.233   5.795  0.4840  1.5230  2.2740
 2113SOL    HW2 7239   2.813   4.094   5.783 -2.5973 -0.2493 -0.5131
 2114SOL     OW 7240   3.947   1.684   4.028  0.0842 -0.5120  0.0840
 2114SOL    HW1 7241   3.950   1.608   3.962  0.8896 -0.1076 -0.3643
 2114SOL    HW2 7242   4.001   1.760   3.992 -0.2617  0.0654  0.7885
 2115SOL     OW 7243   4.126   0.221   3.541 -0.3004 -0.6250  0.4529
 2115SOL    HW1 7244   4.089   0.222   3.448 -1.5399 -1.0835  0.9096
 2115SOL    HW2 7245   4.102   0.307   3.587  2.4057  0.6830 -0.3736
 2116SOL     OW 7246   5.383   0.779   0.953 -0.4356 -0.2265  0.3254
 2116SOL    HW1 7247   5.439   0.699   0.974 -2.2303 -1.4653  0.6736
 2116SOL    HW2 7248   5.331   0.806   1.034 -0.2328  0.9862  0.0675
 2117SOL     OW 7249   3.434   6.711   4.946 -0.2153  0.2784  0.0505
 2117SOL    HW1 7250   3.373   6.741   4.873 -1.7952 -1.1476  0.7027
 2117SOL    HW2 7251   3.487   6.632   4.916 -1.1751 -0.5762  0.5287
 2118SOL     OW 7252   5.008   6.213   0.961 -0.7771  0.1930  0.2754
 2118SOL    HW1 7253   4.950   6.248   0.887  0.4101  1.5501 -0.0613
 2118SOL    HW2 7254   5.093   6.177   0.923 -0.7712 -0.4578  0.8751
 2119SOL     OW 7255   6.006   4.257   3.052 -0.5401 -0.3669 -0.4288
 2119SOL    HW1 7256   6.038   4.197   3.126  1.4597  1.0384 -0.0703
 2119SOL    HW2 7257   6.064   4.245   2.972 -1.3220 -0.2852 -1.0121
 2120SOL     OW 7258   2.228   1.118   2.166 -0.3668  0.2783  0.6130
 2120SOL    HW1 7259   2.280   1.033   2.179  0.5022  0.6094 -0.5852
 2120SOL    HW2 7260   2.271   1.191   2.219  1.1067  0.8068 -1.1953
 2121SOL     OW 7261   1.605   6.273   1.764  0.6149 -0.3698 -0.6318
 2121SOL    HW1 7262   1.547   6.339   1.716  0.5733  1.0136  1.2480
 2121SOL    HW2 7263   1.596   6.183   1.720 -1.2702  0.2889 -1.7057
 2122SOL     OW 7264   5.159   5.544   2.514 -0.4436 -0.1921  0.3032
 2122SOL    HW1 7265   5.203   5.498   2.591 -0.7916 -1.3807 -0.1817
 2122SOL    HW2 7266   5.097   5.480   2.468 -0.8087  0.7205 -0.5117
 2123SOL     OW 7267   1.821   6.933   2.322 -0.0991 -0.0145  0.1446
 2123SOL    HW1 7268   1.902   6.875   2.332 -0.4114 -0.5136 -0.1365
 2123SOL    HW2 7269   1.807   6.985   2.406 -0.2130 -0.8790  0.6781
 2124SOL     OW 7270   6.133   5.294   6.315  0.8786  0.2185  0.4935
 2124SOL    HW1 7271   6.231   5.283   6.298  0.9004  1.4590 -0.2792
 2124SOL    HW2 7272   6.108   5.247   6.399  1.9234 -1.0515  0.1163
 2125SOL     OW 7273   5.290   2.977   4.673  0.0740  0.0131 -0.2067
 2125SOL    HW1 7274   5.204   2.995   4.625 -0.1790  0.0676  0.2646
 2125SOL    HW2 7275   5.359   2.947   4.607 -0.6482 -1.2311 -0.4196
 2126SOL     OW 7276   2.242   6.981   6.638  0.2541 -0.3721 -0.5357
 2126SOL    HW1 7277   2.198   7.062   6.600 -0.4515 -0.6742 -0.3835
 2126SOL    HW2 7278   2.341   6.986   6.623  0.2096  0.4869 -0.5700
 2127SOL     OW 7279   3.775   5.172   1.605  0.4286  0.3597 -0.1315
 2127SOL    HW1 7280   3.821   5.155   1.692 -1.5594  1.0088  1.1298
 2127SOL    HW2 7281   3.716   5.253   1.614  1.8380  1.8202 -2.7953
 2128SOL     OW 7282   1.538   5.707   3.530 -0.3216  0.3668 -0.0497
 2128SOL    HW1 7283   1.540   5.633   3.463  0.9959 -0.9988  1.4091
 2128SOL    HW2 7284   1.574   5.674   3.617 -2.3141  1.9753  1.4769
 2129SOL     OW 7285   5.018   2.922   2.779 -0.1458  0.6496 -0.3842
 2129SOL    HW1 7286   5.067   2.914   2.866  0.2990  1.1761 -0.5828
 2129SOL    HW2 7287   4.921   2.939   2.798 -0.2671 -0.3793  0.0091
 2130SOL     OW 7288   2.827   1.730   5.063  0.2760 -0.0994 -0.0972
 2130SOL    HW1 7289   2.844   1.645   5.012  0.1357  0.2409 -0.7123
 2130SOL    HW2 7290   2.730   1.753   5.057  0.1583 -0.3465  0.7823
 2131SOL     OW 7291   1.851   2.527   6.686  0.1629  0.7325 -0.7534
 2131SOL    HW1 7292   1.768   2.580   6.671  0.4401  1.0023 -1.3513
 2131SOL    HW2 7293   1.915   2.543   6.611  0.6473  0.3169 -0.4343
 2132SOL     OW 7294   1.602   5.404   0.513  0.1442 -0.0106 -0.3761
 2132SOL    HW1 7295   1.616   5.425   0.610  1.7916 -0.7342 -0.4196
 2132SOL    HW2 7296   1.602   5.305   0.500 -1.1511  0.0470 -0.9992
 2133SOL     OW 7297   2.341   2.486   2.028  0.3744  0.3474  0.0004
 2133SOL    HW1 7298   2.380   2.529   2.109 -0.9835  1.5517  0.0621
 2133SOL    HW2 7299   2.291   2.403   2.055  1.2133 -0.1209  0.1619
 2134SOL     OW 7300   4.461   1.973   4.988 -0.1082 -0.3787  0.3343
 2134SOL    HW1 7301   4.444   2.025   4.904 -0.0956  0.4069  0.8061
 2134SOL    HW2 7302   4.547   1.923   4.978 -0.3779 -0.7267 -0.3214
 2135SOL     OW 7303   4.778   0.074   1.414 -0.0065 -0.1572  0.0656
 2135SOL    HW1 7304   4.689   0.096   1.456 -1.1455 -0.8318 -1.8679
 2135SOL    HW2 7305   4.763   0.023   1.329  2.2836 -0.8681  0.0280
 2136SOL     OW 7306   0.889   5.948   2.192  0.3006 -0.1814 -0.3489
 2136SOL    HW1 7307   0.901   6.012   2.116  2.9342  0.1063  0.1908
 2136SOL    HW2 7308   0.906   5.855   2.160  0.1200 -0.2034 -0.3801
 2137SOL     OW 7309   5.365   2.070   5.476  0.9812  0.2114 -0.2369
 2137SOL    HW1 7310   5.425   2.149   5.458 -0.4446  1.1132 -1.2305
 2137SOL    HW2 7311   5.296   2.095   5.543  2.0991 -1.0498  1.4562
 2138SOL     OW 7312   4.216   1.305   5.720 -0.2289 -0.3757 -0.6340
 2138SOL    HW1 7313   4.225   1.365   5.640 -0.8859  1.5767  0.6795
 2138SOL    HW2 7314   4.228   1.359   5.804  0.5055 -2.3704  0.6203
 2139SOL     OW 7315   4.645   2.680   2.825  0.3900  0.2386  0.2380
 2139SOL    HW1 7316   4.652   2.779   2.840  0.6542  0.1027  1.0367
 2139SOL    HW2 7317   4.690   2.657   2.739  1.0988  0.6984  0.4768
 2140SOL     OW 7318   4.519   7.005   5.505  0.4506 -0.2159 -0.3992
 2140SOL    HW1 7319   4.580   7.059   5.563  1.7067 -1.3455 -0.6272
 2140SOL    HW2 7320   4.466   7.066   5.446 -0.1194  0.9011  1.1819
 2141SOL     OW 7321   1.022   6.400   1.793  0.9863 -0.0517 -0.3274
 2141SOL    HW1 7322   1.092   6.373   1.859 -0.2845 -0.9101  0.7381
 2141SOL    HW2 7323   1.021   6.335   1.717 -0.7838 -2.0652  1.2885
 2142SOL     OW 7324   6.283   5.290   5.526  0.1681  0.2070  1.2891
 2142SOL    HW1 7325   6.351   5.363   5.520  0.3915  0.0759  2.0760
 2142SOL    HW2 7326   6.271   5.263   5.622 -0.0770 -0.6326  1.0363
 2143SOL     OW 7327   5.039   4.246   4.255  1.0617  0.2678  0.0466
 2143SOL    HW1 7328   5.030   4.294   4.168  0.2102  0.2551  0.1213
 2143SOL    HW2 7329   5.104   4.295   4.313  1.6909  0.2354 -0.6137
 2144SOL     OW 7330   2.199   0.769   1.228  0.0037 -0.6959 -0.1835
 2144SOL    HW1 7331   2.162   0.845   1.174 -0.1849 -0.0107  0.8695
 2144SOL    HW2 7332   2.190   0.684   1.177  1.6741  0.1761 -2.0872
 2145SOL     OW 7333   0.092   6.343   2.452 -0.6503 -0.2944  0.1312
 2145SOL    HW1 7334   0.117   6.253   2.490 -3.2055 -0.1917  2.3227
 2145SOL    HW2 7335   0.171   6.404   2.457  0.2399 -1.4870  1.6311
 2146SOL     OW 7336   2.063   4.330   3.611  0.1372  0.0234  0.4024
 2146SOL    HW1 7337   2.138   4.289   3.559  0.0767 -0.6214  0.8215
 2146SOL    HW2 7338   1.996   4.260   3.635 -2.4578  1.0201 -2.9585
 2147SOL     OW 7339   0.777   6.141   3.620  0.0335  0.3011 -0.1922
 2147SOL    HW1 7340   0.747   6.234   3.641  1.5173  0.1632  3.2285
 2147SOL    HW2 7341   0.708   6.076   3.653 -0.0999  0.1448 -0.7764
 2148SOL     OW 7342   3.596   5.228   0.198 -0.0900  0.2757 -0.0080
 2148SOL    HW1 7343   3.685   5.245   0.156 -0.5157  0.5166 -0.8411
 2148SOL    HW2 7344   3.526   5.221   0.126 -0.8754  0.9131  0.6741
 2149SOL     OW 7345   1.193   5.852   0.433  0.0318 -0.3602 -0.2589
 2149SOL    HW1 7346   1.148   5.936   0.402  0.7859 -0.2539 -1.1263
 2149SOL    HW2 7347   1.153   5.823   0.519 -0.7702  0.4655 -0.3305
 2150SOL     OW 7348   2.780   0.020   0.471  0.5161  0.4513  0.0299
 2150SOL    HW1 7349   2.842   0.060   0.404  0.2598  0.6965 -0.0619
 2150SOL    HW2 7350   2.726   0.092   0.514  0.1745  0.2221 -0.0102
 2151SOL     OW 7351   4.232   2.659   1.152 -0.1591 -0.7484  0.6510
 2151SOL    HW1 7352   4.199   2.732   1.092  0.1969 -1.3167 -0.2647
 2151SOL    HW2 7353   4.269   2.698   1.236 -3.2626 -0.0731  1.8545
 2152SOL     OW 7354   5.159   5.279   0.891  0.8567  0.5462 -0.3198
 2152SOL    HW1 7355   5.158   5.309   0.796  0.3074  2.0138  0.1281
 2152SOL    HW2 7356   5.143   5.357   0.951 -1.0129 -0.7057  0.8979
 2153SOL     OW 7357   2.260   5.303   0.899 -0.0685 -0.2288 -0.3791
 2153SOL    HW1 7358   2.297   5.395   0.890 -0.3607 -0.1791 -1.1748
 2153SOL    HW2 7359   2.333   5.239   0.922  0.2383  0.1069 -0.4165
 2154SOL     OW 7360   5.620   0.129   1.731 -0.1552  0.1145 -0.1093
 2154SOL    HW1 7361   5.618   0.075   1.647  0.3389 -1.6545  0.9706
 2154SOL    HW2 7362   5.553   0.093   1.796 -1.9766  2.6831 -0.3869
 2155SOL     OW 7363   4.851   3.874   4.278 -0.5006  0.1867 -0.2125
 2155SOL    HW1 7364   4.836   3.945   4.210 -0.1367 -0.6729 -1.2300
 2155SOL    HW2 7365   4.839   3.784   4.235  1.5768 -0.4275  0.3645
 2156SOL     OW 7366   5.196   4.316   5.115  0.0369  0.0252  0.2213
 2156SOL    HW1 7367   5.106   4.347   5.145 -0.4026  1.1501 -2.0179
 2156SOL    HW2 7368   5.226   4.372   5.038  2.2917 -0.8831  0.3669
 2157SOL     OW 7369   1.357   4.054   6.881  0.3583 -0.4716  0.0201
 2157SOL    HW1 7370   1.428   3.990   6.909  1.1269 -0.4274 -1.6765
 2157SOL    HW2 7371   1.275   4.004   6.856  0.4474 -0.6795  0.1432
 2158SOL     OW 7372   2.789   2.347   5.293 -0.1472  0.4839 -0.8567
 2158SOL    HW1 7373   2.838   2.430   5.316 -1.0376  0.6388  0.5755
 2158SOL    HW2 7374   2.737   2.315   5.372 -2.1244  0.1711 -2.1960
 2159SOL     OW 7375   3.750   1.101   3.518  0.4911 -0.0181  0.9203
 2159SOL    HW1 7376   3.721   1.191   3.551  0.7755 -0.2696  1.9044
 2159SOL    HW2 7377   3.848   1.103   3.497  0.4085  0.0144  0.5341
 2160SOL     OW 7378   4.726   1.283   1.223  0.4235 -0.1844  0.5082
 2160SOL    HW1 7379   4.713   1.381   1.232  0.4626 -0.1876  0.5986
 2160SOL    HW2 7380   4.772   1.263   1.136  1.1322 -0.0604  0.8462
 2161SOL     OW 7381   5.322   2.964   2.363  0.3913  0.3050  0.9428
 2161SOL    HW1 7382   5.342   2.934   2.456  0.6361  1.2748  1.2197
 2161SOL    HW2 7383   5.374   3.048   2.344  1.8638 -0.9229 -0.7431
 2162SOL     OW 7384   0.729   1.112   6.719  0.2436 -0.4135  0.1396
 2162SOL    HW1 7385   0.807   1.066   6.677 -0.5047 -0.4557 -1.2671
 2162SOL    HW2 7386   0.647   1.057   6.708 -0.2144  0.1669  0.5527
 2163SOL     OW 7387   3.746   1.674   4.986  0.1670 -0.4495 -0.6270
 2163SOL    HW1 7388   3.647   1.659   4.980  0.1814 -1.0329  0.3752
 2163SOL    HW2 7389   3.764   1.758   5.037  0.1949 -1.0405  0.3606
 2164SOL     OW 7390   6.855   0.598   6.332  0.0825 -0.4079  0.0634
 2164SOL    HW1 7391   6.775   0.570   6.279 -0.0929  0.1659  0.0150
 2164SOL    HW2 7392   6.870   0.696   6.321  1.4761 -0.6841 -0.8385
 2165SOL     OW 7393   5.550   2.284   4.324 -0.3426 -0.5416 -0.1796
 2165SOL    HW1 7394   5.488   2.215   4.360  1.3575 -1.3228  1.3771
 2165SOL    HW2 7395   5.571   2.352   4.395  0.4863 -0.2220 -0.7117
 2166SOL     OW 7396   2.947   3.735   4.820 -0.1104 -0.3532 -0.0066
 2166SOL    HW1 7397   2.973   3.745   4.916  1.4725 -0.4919 -0.4014
 2166SOL    HW2 7398   2.916   3.642   4.803  2.1122 -1.1162 -0.1616
 2167SOL     OW 7399   1.892   2.461   2.162  0.0498  0.2323  0.2045
 2167SOL    HW1 7400   1.870   2.544   2.111 -1.0619 -0.5314 -0.6139
 2167SOL    HW2 7401   1.890   2.382   2.100  2.4819 -0.2790  0.6500
 2168SOL     OW 7402   2.167   6.461   2.363 -0.1989 -0.1205  0.3403
 2168SOL    HW1 7403   2.083   6.444   2.415  0.2750 -0.7950  0.8998
 2168SOL    HW2 7404   2.241   6.484   2.425  0.4335 -1.1709  0.0126
 2169SOL     OW 7405   6.744   4.574   2.617  0.1307 -0.4568  0.3719
 2169SOL    HW1 7406   6.753   4.508   2.543  1.1843 -1.0744  1.0124
 2169SOL    HW2 7407   6.690   4.534   2.692 -0.7392  0.0795  0.0468
 2170SOL     OW 7408   3.796   1.693   6.347 -0.2797  0.0734 -0.4828
 2170SOL    HW1 7409   3.885   1.651   6.331 -0.7300 -0.1887 -2.6627
 2170SOL    HW2 7410   3.783   1.768   6.283 -1.9406 -0.4195 -0.7797
 2171SOL     OW 7411   0.009   6.859   4.672  0.0333  0.4586 -0.2040
 2171SOL    HW1 7412  -0.040   6.920   4.609 -0.2704 -1.3687 -1.8603
 2171SOL    HW2 7413   0.107   6.883   4.672  0.3521 -0.4890 -2.7593
 2172SOL     OW 7414   0.285   0.707   2.688 -0.2325  0.5501  0.4442
 2172SOL    HW1 7415   0.325   0.650   2.617  0.3952 -0.3072  1.4462
 2172SOL    HW2 7416   0.355   0.770   2.723 -1.0141  2.2551 -0.9143
 2173SOL     OW 7417   1.992   4.229   2.741 -0.6409 -0.2164  0.5650
 2173SOL    HW1 7418   2.035   4.318   2.750 -2.1060  0.4021  1.9557
 2173SOL    HW2 7419   1.903   4.229   2.788 -1.7648 -1.6981 -1.3658
 2174SOL     OW 7420   6.833   1.393   0.581 -0.8663  0.1438  0.2048
 2174SOL    HW1 7421   6.820   1.351   0.491 -1.0282 -0.0260  0.3069
 2174SOL    HW2 7422   6.912   1.352   0.626  0.2078  1.3539 -0.5212
 2175SOL     OW 7423   5.921   4.429   5.611 -0.0438  0.1215 -0.0028
 2175SOL    HW1 7424   6.019   4.449   5.601 -0.0722  0.3912  0.2391
 2175SOL    HW2 7425   5.900   4.417   5.708 -0.2455  0.0317 -0.0578
 2176SOL     OW 7426   2.716   3.429   6.597  0.2409  0.2867  0.5461
 2176SOL    HW1 7427   2.638   3.468   6.547  0.9814 -1.2016 -1.9835
 2176SOL    HW2 7428   2.717   3.464   6.690 -2.9019  1.0738  0.4024
 2177SOL     OW 7429   0.520   1.306   4.114 -0.7456 -0.0753 -0.2677
 2177SOL    HW1 7430   0.472   1.343   4.194 -1.7552  1.6897 -1.6285
 2177SOL    HW2 7431   0.619   1.311   4.129 -0.9176  0.7200  0.6593
 2178SOL     OW 7432   0.965   1.401   3.605  0.4509  0.7745  0.6369
 2178SOL    HW1 7433   1.029   1.373   3.534 -1.6779 -1.5589 -0.5350
 2178SOL    HW2 7434   0.971   1.336   3.682 -0.1843  0.7895  0.7029
 2179SOL     OW 7435   6.301   3.507   4.072  0.6268  0.1524 -0.4470
 2179SOL    HW1 7436   6.215   3.545   4.107  1.0101  2.3671 -1.7501
 2179SOL    HW2 7437   6.360   3.481   4.149 -0.7245 -0.3492  0.4607
 2180SOL     OW 7438   5.462   3.713   2.718 -0.0374  0.8996 -0.2631
 2180SOL    HW1 7439   5.561   3.717   2.708  0.1046  1.4485  1.1269
 2180SOL    HW2 7440   5.438   3.720   2.815 -1.4002 -0.0335 -0.5077
 2181SOL     OW 7441   5.917   1.964   5.526  0.1063  0.6262 -0.3335
 2181SOL    HW1 7442   5.990   2.010   5.576  0.4286 -0.1270 -0.0911
 2181SOL    HW2 7443   5.834   1.963   5.582  0.2916  0.3182 -0.0616
 2182SOL     OW 7444   0.103   1.128   5.794 -0.8444 -0.0869  0.3583
 2182SOL    HW1 7445   0.048   1.118   5.711 -1.3132 -0.0601  0.6616
 2182SOL    HW2 7446   0.166   1.205   5.783 -1.7621  0.6949  0.4933
 2183SOL     OW 7447   5.148   6.513   6.579  0.0986  0.2594  0.1960
 2183SOL    HW1 7448   5.129   6.608   6.553 -0.0045 -0.0967 -1.0738
 2183SOL    HW2 7449   5.246   6.503   6.596  0.0236  0.7306  0.9668
 2184SOL     OW 7450   5.817   5.870   3.886 -0.2680 -0.4189 -0.2865
 2184SOL    HW1 7451   5.725   5.870   3.926  1.0038  1.3657  3.1489
 2184SOL    HW2 7452   5.831   5.955   3.835 -0.8037 -1.1916 -1.7849
 2185SOL     OW 7453   2.873   5.129   6.250  0.0169 -0.6904  0.2818
 2185SOL    HW1 7454   2.944   5.162   6.312  0.6496  0.3835 -0.9738
 2185SOL    HW2 7455   2.794   5.190   6.255  0.2632 -0.3161 -0.3174
 2186SOL     OW 7456   5.095   3.160   5.985 -0.0967 -0.1205  0.0814
 2186SOL    HW1 7457   5.128   3.204   5.901 -0.3146  0.2720  0.1962
 2186SOL    HW2 7458   5.127   3.212   6.065 -1.7590  0.8371  0.1703
 2187SOL     OW 7459   2.696   5.181   4.267 -0.4150  0.1021  0.2272
 2187SOL    HW1 7460   2.676   5.194   4.170  0.1309 -0.8038 -0.0254
 2187SOL    HW2 7461   2.687   5.084   4.289  1.5617 -0.0545  0.5656
 2188SOL     OW 7462   5.333   6.824   4.683 -0.5246 -0.1659  0.4603
 2188SOL    HW1 7463   5.256   6.784   4.633 -0.2068 -1.0151  0.6364
 2188SOL    HW2 7464   5.346   6.775   4.769  0.7102 -0.5735  0.0744
 2189SOL     OW 7465   3.238   1.243   0.604 -0.4228  0.0261  0.4201
 2189SOL    HW1 7466   3.278   1.227   0.694  0.3511  0.2681  0.1294
 2189SOL    HW2 7467   3.252   1.338   0.578 -0.8252  0.0080  0.1359
 2190SOL     OW 7468   5.094   3.114   2.607 -0.2445  0.3197  0.6106
 2190SOL    HW1 7469   5.068   3.089   2.514 -1.1506 -0.0611  0.9519
 2190SOL    HW2 7470   5.053   3.049   2.672  1.1203  0.0499  1.2237
 2191SOL     OW 7471   5.306   5.470   4.502  0.4301 -0.2566  0.2186
 2191SOL    HW1 7472   5.237   5.408   4.465  0.0707 -0.7856  1.7362
 2191SOL    HW2 7473   5.393   5.454   4.456  0.0495 -1.0483 -0.2375
 2192SOL     OW 7474   3.067   1.413   3.716 -0.3919 -0.0127  0.4972
 2192SOL    HW1 7475   2.994   1.346   3.719 -1.4644  1.1482  2.1459
 2192SOL    HW2 7476   3.030   1.502   3.690  0.2928  0.7002  1.8347
 2193SOL     OW 7477   2.337   5.518   3.759  0.4942  0.3991 -0.6485
 2193SOL    HW1 7478   2.422   5.509   3.811 -0.8431 -1.9557  1.2950
 2193SOL    HW2 7479   2.287   5.598   3.791 -0.3807 -1.0900  1.9873
 2194SOL     OW 7480   0.229   2.507   4.906  0.2711  0.1114 -0.2787
 2194SOL    HW1 7481   0.241   2.529   5.003 -0.4448 -0.5481 -0.0295
 2194SOL    HW2 7482   0.264   2.582   4.850  3.7032 -0.8367  0.3806
 2195SOL     OW 7483   1.149   0.898   1.958 -0.2167 -0.1687 -0.1209
 2195SOL    HW1 7484   1.248   0.906   1.958 -0.2696  0.6438  0.6442
 2195SOL    HW2 7485   1.123   0.803   1.975  0.4303 -0.1516  1.1032
 2196SOL     OW 7486   0.677   1.125   2.224  0.0196 -0.7033  0.3309
 2196SOL    HW1 7487   0.607   1.113   2.154  1.0523 -1.1974 -0.6614
 2196SOL    HW2 7488   0.718   1.037   2.245  1.9869 -0.1665 -0.9160
 2197SOL     OW 7489   0.453   1.859   3.293 -0.1931 -0.2526 -0.0135
 2197SOL    HW1 7490   0.413   1.820   3.211 -0.1115 -0.6803  0.1483
 2197SOL    HW2 7491   0.381   1.899   3.350 -0.1768  0.6938 -0.6272
 2198SOL     OW 7492   5.483   6.441   5.556  0.4406 -0.7023 -0.0973
 2198SOL    HW1 7493   5.484   6.354   5.605  1.9717 -1.0545 -0.7084
 2198SOL    HW2 7494   5.542   6.435   5.476 -1.2006  0.1936 -1.4361
 2199SOL     OW 7495   0.497   5.018   4.266 -0.1216  0.5461 -0.4468
 2199SOL    HW1 7496   0.509   5.099   4.209  1.7415  0.3420 -0.3934
 2199SOL    HW2 7497   0.478   4.939   4.209  0.3287  0.6005 -0.6722
 2200SOL     OW 7498   2.523   1.767   6.925  0.0517 -0.0794  0.1823
 2200SOL    HW1 7499   2.427   1.751   6.902  0.1084 -1.7522  0.9427
 2200SOL    HW2 7500   2.577   1.768   6.840 -0.5066 -0.1778 -0.1813
 2201SOL     OW 7501   5.215   5.315   3.622 -0.0153  0.3102  0.3002
 2201SOL    HW1 7502   5.180   5.354   3.537 -0.0563  1.6148  0.8758
 2201SOL    HW2 7503   5.282   5.244   3.602  3.3059  3.4695 -0.9542
 2202SOL     OW 7504   2.875   2.046   7.017 -0.0093  0.2848 -0.2454
 2202SOL    HW1 7505   2.836   2.120   6.963  0.0470 -0.0578 -0.7657
 2202SOL    HW2 7506   2.967   2.024   6.983  0.7236  1.1831  1.0624
 2203SOL     OW 7507   1.158   6.159   4.679  0.0053  0.5163  0.2024
 2203SOL    HW1 7508   1.214   6.154   4.596  0.8234  0.3332  0.7492
 2203SOL    HW2 7509   1.064   6.134   4.657  0.3443 -0.1470 -0.5535
 2204SOL     OW 7510   3.473   6.010   3.910  0.1165  0.1826  0.1831
 2204SOL    HW1 7511   3.537   5.994   3.835  1.2540  4.2806  0.0493
 2204SOL    HW2 7512   3.380   6.019   3.873  0.7451  2.7802 -0.9677
 2205SOL     OW 7513   0.679   5.223   0.008 -0.3162 -0.2814 -0.4625
 2205SOL    HW1 7514   0.717   5.259  -0.077 -1.2058  2.9407  0.3826
 2205SOL    HW2 7515   0.743   5.239   0.083 -0.8724 -0.1698 -0.0059
 2206SOL     OW 7516   2.214   3.331   6.102 -0.1443  0.3531  0.2436
 2206SOL    HW1 7517   2.298   3.377   6.074 -0.3095  0.6932  0.2925
 2206SOL    HW2 7518   2.234   3.264   6.173  0.6564 -2.2399 -2.2523
 2207SOL     OW 7519   2.438   6.347   1.619  0.5532 -0.6713  0.2488
 2207SOL    HW1 7520   2.353   6.369   1.667  0.4317 -1.7096  0.5199
 2207SOL    HW2 7521   2.428   6.260   1.571  1.8205 -1.3302  1.1432
 2208SOL     OW 7522   3.999   0.081   4.223  0.0350  0.3921  0.0429
 2208SOL    HW1 7523   3.999   0.035   4.311  1.9111 -1.0923 -0.6589
 2208SOL    HW2 7524   3.975   0.016   4.151  0.0216  1.1926 -0.6915
 2209SOL     OW 7525   5.670   1.679   6.459  0.0639  1.0022 -0.2421
 2209SOL    HW1 7526   5.758   1.722   6.476  1.6038 -1.9617 -0.0084
 2209SOL    HW2 7527   5.634   1.642   6.544 -0.7700  1.0560 -0.5607
 2210SOL     OW 7528   5.625   1.643   0.721  0.1327  0.4648  0.7403
 2210SOL    HW1 7529   5.537   1.618   0.762 -0.5138  0.4208 -0.6268
 2210SOL    HW2 7530   5.685   1.679   0.792 -0.7899 -0.0159  1.8015
 2211SOL     OW 7531   4.379   0.414   5.802 -0.1382 -0.2406  0.2017
 2211SOL    HW1 7532   4.302   0.451   5.751 -0.8572 -2.2044 -0.2228
 2211SOL    HW2 7533   4.461   0.417   5.745 -0.3044  0.1807 -0.0179
 2212SOL     OW 7534   0.615   0.578   2.941  0.1176  0.4180  0.3714
 2212SOL    HW1 7535   0.562   0.657   2.911 -2.6599 -2.5239 -3.7079
 2212SOL    HW2 7536   0.688   0.560   2.875 -0.3548 -1.2485  0.2448
 2213SOL     OW 7537   5.982   4.539   3.393 -0.6538 -0.2108  0.0965
 2213SOL    HW1 7538   6.060   4.598   3.413 -0.5219 -0.3109 -0.1159
 2213SOL    HW2 7539   5.901   4.596   3.376 -0.5978 -0.1024  0.1925
 2214SOL     OW 7540   1.867   0.855   5.575  0.3783  0.4846  0.3803
 2214SOL    HW1 7541   1.938   0.893   5.634  1.1456  0.5375 -0.5516
 2214SOL    HW2 7542   1.777   0.888   5.605  0.8065  0.9826  1.1391
 2215SOL     OW 7543   4.187   3.767   0.604  0.3729 -0.1881  0.3152
 2215SOL    HW1 7544   4.094   3.736   0.586  0.0535 -0.2966  2.0180
 2215SOL    HW2 7545   4.186   3.865   0.626  0.5666 -0.3322  0.9881
 2216SOL     OW 7546   1.445   0.190   5.305  0.1133 -0.1694  0.4089
 2216SOL    HW1 7547   1.378   0.127   5.264 -1.9113  0.2906  2.7516
 2216SOL    HW2 7548   1.407   0.228   5.389  1.7059  3.3842 -0.3048
 2217SOL     OW 7549   0.269   1.235   3.029 -0.1155 -0.1954  0.4539
 2217SOL    HW1 7550   0.357   1.264   3.066  0.2355  1.0775 -1.2375
 2217SOL    HW2 7551   0.270   1.246   2.930 -1.9912 -0.7233  0.3457
 2218SOL     OW 7552   2.621   5.136   2.400  0.5582  0.2405 -0.5000
 2218SOL    HW1 7553   2.568   5.088   2.331  0.0077 -2.2981  1.5455
 2218SOL    HW2 7554   2.686   5.198   2.355 -0.5298 -0.4415 -3.1925
 2219SOL     OW 7555   0.934   2.075   1.270 -0.2472 -0.9296  0.3330
 2219SOL    HW1 7556   0.892   2.147   1.325 -1.8356 -0.7923 -0.9643
 2219SOL    HW2 7557   1.029   2.061   1.299 -0.0381  1.3597  0.9252
 2220SOL     OW 7558   5.324   5.210   0.516 -0.3005 -0.3780  0.1165
 2220SOL    HW1 7559   5.383   5.261   0.454  0.1863 -1.5003 -0.3787
 2220SOL    HW2 7560   5.302   5.266   0.595  0.0962  0.6343 -0.4790
 2221SOL     OW 7561   2.703   0.156   4.350 -0.1554  0.1519 -0.4401
 2221SOL    HW1 7562   2.781   0.219   4.359 -0.6658  0.6843  0.4357
 2221SOL    HW2 7563   2.620   0.209   4.331 -0.0407 -0.5377 -3.3863
 2222SOL     OW 7564   4.273   5.657   4.280 -0.5500  0.3249 -0.0542
 2222SOL    HW1 7565   4.307   5.601   4.356 -1.3155  2.4400  1.9672
 2222SOL    HW2 7566   4.224   5.599   4.215  1.4131 -1.7905  0.2283
 2223SOL     OW 7567   2.467   3.146   6.001 -0.5596 -0.1571  0.2943
 2223SOL    HW1 7568   2.442   3.194   5.917 -1.0175 -0.7152  0.1031
 2223SOL    HW2 7569   2.526   3.204   6.057 -0.4034  0.2909 -0.3282
 2224SOL     OW 7570   6.593   5.957   5.707  1.0636 -0.2013 -0.2018
 2224SOL    HW1 7571   6.680   6.006   5.698  0.3648  1.1765  0.1685
 2224SOL    HW2 7572   6.601   5.889   5.780  1.7479  0.1289  0.0476
 2225SOL     OW 7573   1.167   1.956   4.995  0.0819 -0.1318 -0.3459
 2225SOL    HW1 7574   1.082   1.921   4.954  0.0750 -0.3203 -0.1718
 2225SOL    HW2 7575   1.195   1.895   5.069  1.1705 -0.8997 -1.3606
 2226SOL     OW 7576   6.578   4.427   0.401 -0.1703 -0.5203  0.0151
 2226SOL    HW1 7577   6.520   4.499   0.438  0.5305  0.2594 -0.3617
 2226SOL    HW2 7578   6.632   4.386   0.475  1.6952  1.4628 -0.1395
 2227SOL     OW 7579   6.551   5.825   3.100 -0.1632  0.3561  0.1663
 2227SOL    HW1 7580   6.455   5.849   3.113  0.4821  2.5311  1.5870
 2227SOL    HW2 7581   6.564   5.785   3.010 -2.4059 -0.2215  0.0312
 2228SOL     OW 7582   5.152   0.881   3.646 -0.0556  0.9242 -0.0293
 2228SOL    HW1 7583   5.211   0.950   3.688  0.6396  0.5473 -0.3537
 2228SOL    HW2 7584   5.177   0.871   3.549  0.5097 -0.4310  0.2244
 2229SOL     OW 7585   3.733   1.427   6.294  0.3663 -0.7833 -0.1117
 2229SOL    HW1 7586   3.799   1.415   6.368  0.1238  0.9299  0.4171
 2229SOL    HW2 7587   3.713   1.524   6.282 -1.4043 -1.1979 -0.8526
 2230SOL     OW 7588   6.469   4.593   6.560 -0.2169 -0.0100  0.4127
 2230SOL    HW1 7589   6.559   4.634   6.571 -0.0105 -0.4464  0.3699
 2230SOL    HW2 7590   6.412   4.652   6.504  0.0812  0.2064  0.3336
 2231SOL     OW 7591   6.064   4.077   1.515  0.1189 -0.3091  0.0642
 2231SOL    HW1 7592   6.048   4.105   1.610 -0.4834 -0.1892 -0.0669
 2231SOL    HW2 7593   6.075   3.977   1.511 -0.4561 -0.3777  0.1830
 2232SOL     OW 7594   4.033   3.213   6.443 -0.3862 -0.9531 -0.3878
 2232SOL    HW1 7595   3.958   3.212   6.377 -0.0451  1.8015 -0.9798
 2232SOL    HW2 7596   3.998   3.197   6.535 -1.8657  0.7936 -0.5833
 2233SOL     OW 7597   3.297   4.122   4.664 -0.4803  0.2869 -0.3493
 2233SOL    HW1 7598   3.358   4.047   4.688  0.8237  2.0857  2.4689
 2233SOL    HW2 7599   3.203   4.095   4.681 -0.1632 -1.1874 -0.8153
 2234SOL     OW 7600   6.808   6.021   5.000  0.2587 -0.2403  0.4966
 2234SOL    HW1 7601   6.908   6.023   5.006  0.3964 -1.0693 -1.1257
 2234SOL    HW2 7602   6.778   5.934   4.962 -1.0388  0.3601  0.0732
 2235SOL     OW 7603   6.534   5.383   1.350  0.1537 -0.0526  0.4793
 2235SOL    HW1 7604   6.452   5.365   1.296 -0.5280 -0.6096  1.6719
 2235SOL    HW2 7605   6.583   5.462   1.311 -1.2590  0.6670  0.1162
 2236SOL     OW 7606   0.368   5.288   5.912  0.7258  0.7876 -0.1641
 2236SOL    HW1 7607   0.283   5.290   5.964  0.3704 -0.5740 -0.6595
 2236SOL    HW2 7608   0.370   5.366   5.849  1.1716  2.4777  1.8215
 2237SOL     OW 7609   2.306   1.492   1.480 -0.4552 -0.3195 -0.4406
 2237SOL    HW1 7610   2.344   1.523   1.567  1.2499 -2.1720 -0.4598
 2237SOL    HW2 7611   2.278   1.571   1.426  0.9456  1.0059  0.6779
 2238SOL     OW 7612   3.826   5.430   5.543  0.1909  0.6304 -0.1552
 2238SOL    HW1 7613   3.762   5.451   5.617  0.8864  1.4794  0.2283
 2238SOL    HW2 7614   3.910   5.483   5.556  1.4859 -1.3488  0.0266
 2239SOL     OW 7615   2.017   6.222   3.363  0.4311  0.7225  0.1236
 2239SOL    HW1 7616   2.010   6.236   3.462 -0.9581 -1.8869  0.5011
 2239SOL    HW2 7617   1.957   6.287   3.316 -0.5529  0.6199  1.1807
 2240SOL     OW 7618   2.298   5.583   5.144 -0.0613 -0.1618 -0.2491
 2240SOL    HW1 7619   2.226   5.516   5.161 -0.2608 -0.0662 -0.7046
 2240SOL    HW2 7620   2.383   5.553   5.188  0.3123 -1.5631 -1.8410
 2241SOL     OW 7621   1.466   2.959   6.723 -0.6599  0.1347 -0.3391
 2241SOL    HW1 7622   1.404   3.008   6.661 -1.6070  0.1605  0.6004
 2241SOL    HW2 7623   1.541   3.019   6.750  0.0384 -0.0289 -1.8177
 2242SOL     OW 7624   3.401   1.004   3.505  0.3032  0.2850 -0.0112
 2242SOL    HW1 7625   3.382   0.934   3.574 -1.4429 -0.1115 -0.8373
 2242SOL    HW2 7626   3.499   1.019   3.499  0.5165  0.4053  2.6138
 2243SOL     OW 7627   5.476   2.450   2.159  0.5282 -0.5740  0.3966
 2243SOL    HW1 7628   5.412   2.417   2.229  0.5706  0.1595  0.7819
 2243SOL    HW2 7629   5.549   2.502   2.202 -0.7979  2.0704 -0.3629
 2244SOL     OW 7630   6.041   4.767   3.778  0.5011  0.5876 -0.2371
 2244SOL    HW1 7631   5.949   4.743   3.811  0.0490 -1.4805 -2.7011
 2244SOL    HW2 7632   6.107   4.702   3.815  0.4058 -0.0301 -1.1090
 2245SOL     OW 7633   1.169   6.214   5.838 -0.2963  0.0761  0.3097
 2245SOL    HW1 7634   1.259   6.235   5.800 -0.4587  2.0125  0.8698
 2245SOL    HW2 7635   1.177   6.137   5.901  0.4865 -1.3572 -1.4484
 2246SOL     OW 7636   3.759   4.157   5.072 -0.6774 -0.6312  0.5386
 2246SOL    HW1 7637   3.677   4.173   5.017 -0.5749 -1.3159  0.1783
 2246SOL    HW2 7638   3.733   4.122   5.162 -0.8134 -0.1138  0.7039
 2247SOL     OW 7639   2.440   1.435   4.068 -0.2920 -0.0390  0.5668
 2247SOL    HW1 7640   2.435   1.470   3.975 -1.7796 -0.0151  0.6326
 2247SOL    HW2 7641   2.533   1.448   4.104 -0.0984  1.3179 -0.3723
 2248SOL     OW 7642   6.168   5.546   4.065 -0.4227 -0.2898 -0.1268
 2248SOL    HW1 7643   6.183   5.458   4.020  1.0218 -0.5326  0.7479
 2248SOL    HW2 7644   6.252   5.573   4.113 -1.5225  0.5321  1.4075
 2249SOL     OW 7645   5.443   0.384   5.701 -0.0060  0.1974 -0.4890
 2249SOL    HW1 7646   5.490   0.439   5.770 -0.9340 -0.0174  0.3308
 2249SOL    HW2 7647   5.383   0.318   5.746 -1.1620  0.5086 -1.5116
 2250SOL     OW 7648   6.292   5.034   6.667 -0.2949  0.2622  0.2637
 2250SOL    HW1 7649   6.363   5.102   6.682 -1.7469  1.8999  0.0753
 2250SOL    HW2 7650   6.314   4.979   6.587  0.8832  0.5297  0.3886
 2251SOL     OW 7651   1.681   3.871   4.017 -0.0821 -0.3517 -0.1475
 2251SOL    HW1 7652   1.582   3.859   4.026 -0.0133 -0.6743  0.1900
 2251SOL    HW2 7653   1.720   3.893   4.106  0.1002  0.1755 -0.3504
 2252SOL     OW 7654   1.404   5.573   2.192 -0.5453 -0.6417  0.1460
 2252SOL    HW1 7655   1.321   5.627   2.183 -0.3065 -0.2149  0.4701
 2252SOL    HW2 7656   1.418   5.518   2.110 -0.1578  0.6827 -0.6971
 2253SOL     OW 7657   4.495   1.612   4.226 -0.0881 -0.1172  0.2576
 2253SOL    HW1 7658   4.413   1.569   4.187  1.2614 -1.6351 -1.0196
 2253SOL    HW2 7659   4.484   1.712   4.223 -1.4958 -0.2680 -0.7989
 2254SOL     OW 7660   2.378   3.502   0.766 -0.9317 -0.2050 -0.2931
 2254SOL    HW1 7661   2.396   3.405   0.782  0.5549 -0.1586 -1.4249
 2254SOL    HW2 7662   2.423   3.556   0.837 -2.6979 -0.3471  0.9928
 2255SOL     OW 7663   4.755   6.064   1.494 -0.2033  0.0035 -0.4186
 2255SOL    HW1 7664   4.678   6.028   1.547  0.3659 -0.2535  0.2528
 2255SOL    HW2 7665   4.776   6.157   1.525 -1.3693  0.7610 -1.8254
 2256SOL     OW 7666   3.060   0.466   1.931 -0.0198 -0.1564 -0.4441
 2256SOL    HW1 7667   3.066   0.566   1.931  0.1844 -0.1671  0.0053
 2256SOL    HW2 7668   3.048   0.433   2.025 -1.2834 -0.4899 -0.7034
 2257SOL     OW 7669   4.136   0.765   4.965 -0.3251  0.1353  0.1273
 2257SOL    HW1 7670   4.226   0.780   5.005 -1.3617  1.2576  2.2190
 2257SOL    HW2 7671   4.123   0.828   4.888  0.0846  1.1487  0.8606
 2258SOL     OW 7672   3.849   0.029   0.664 -0.0148  0.2533 -0.0927
 2258SOL    HW1 7673   3.832   0.002   0.759  2.1062 -0.8518  0.0441
 2258SOL    HW2 7674   3.763   0.034   0.615 -0.9721 -2.5880  1.0526
 2259SOL     OW 7675   1.641   2.308   2.685 -0.0714  0.1626  0.0944
 2259SOL    HW1 7676   1.704   2.285   2.759 -1.1613  0.3174  1.0930
 2259SOL    HW2 7677   1.581   2.382   2.715 -0.7131  0.0365 -0.8511
 2260SOL     OW 7678   5.215   2.241   0.846 -0.5019  0.4325  0.7465
 2260SOL    HW1 7679   5.234   2.308   0.774 -0.1137  0.1901  0.6178
 2260SOL    HW2 7680   5.277   2.257   0.923  1.0719 -1.0599 -0.1277
 2261SOL     OW 7681   1.234   0.636   6.725 -0.2905 -0.2932  0.2641
 2261SOL    HW1 7682   1.273   0.556   6.770 -1.2600 -0.6995  0.4006
 2261SOL    HW2 7683   1.136   0.624   6.714 -0.2622  0.3405 -0.8456
 2262SOL     OW 7684   1.614   3.323   6.020 -0.1696 -0.4170 -0.2243
 2262SOL    HW1 7685   1.515   3.341   6.027  0.1798  2.2252 -0.9031
 2262SOL    HW2 7686   1.661   3.370   6.094  0.5444 -2.6880  0.8384
 2263SOL     OW 7687   6.380   1.347   1.695 -0.0793  0.3824  0.0896
 2263SOL    HW1 7688   6.365   1.446   1.692  2.4558  0.9065  1.7360
 2263SOL    HW2 7689   6.408   1.314   1.605 -2.6289  0.7760 -0.9238
 2264SOL     OW 7690   0.977   2.559   0.599 -0.4783 -0.0674  0.2426
 2264SOL    HW1 7691   0.891   2.511   0.611  0.9760 -2.3884  2.1929
 2264SOL    HW2 7692   0.978   2.642   0.655 -2.3259  1.4410 -1.7827
 2265SOL     OW 7693   2.659   2.728   6.562 -0.1397  0.3305 -0.3128
 2265SOL    HW1 7694   2.640   2.652   6.623  0.0994  0.6217  0.1311
 2265SOL    HW2 7695   2.655   2.697   6.467 -0.0138 -0.2400 -0.1338
 2266SOL     OW 7696   6.093   2.101   2.087  0.0699  0.5525  0.0686
 2266SOL    HW1 7697   6.189   2.089   2.061 -0.2792 -1.3767 -0.4591
 2266SOL    HW2 7698   6.063   2.191   2.057  1.5175  0.9219 -0.3941
 2267SOL     OW 7699   6.543   2.211   5.799  0.1940 -0.3021  0.3772
 2267SOL    HW1 7700   6.599   2.157   5.736  0.6893 -0.3574  0.8633
 2267SOL    HW2 7701   6.543   2.306   5.769  0.1291 -0.3933  0.0841
 2268SOL     OW 7702   6.151   0.892   0.412 -0.1455  0.2595 -0.3467
 2268SOL    HW1 7703   6.126   0.881   0.508  1.8830 -1.6486  0.0363
 2268SOL    HW2 7704   6.245   0.924   0.406  0.1989 -0.9247 -1.6900
 2269SOL     OW 7705   3.588   6.651   1.401 -0.3869  0.4112  0.0737
 2269SOL    HW1 7706   3.553   6.744   1.391 -0.2829  0.3585 -0.8130
 2269SOL    HW2 7707   3.512   6.586   1.401 -0.6013  0.5710  2.1836
 2270SOL     OW 7708   3.353   2.275   6.805  0.1018  0.1216  0.4391
 2270SOL    HW1 7709   3.258   2.246   6.809  0.5596 -1.3255  1.5556
 2270SOL    HW2 7710   3.384   2.276   6.710 -1.1358  1.1099  0.0101
 2271SOL     OW 7711   6.333   6.830   1.005 -0.2376 -0.3022 -0.3252
 2271SOL    HW1 7712   6.259   6.894   0.981 -0.0751  0.1297  0.2772
 2271SOL    HW2 7713   6.357   6.843   1.101  0.0007 -1.0815 -0.2738
 2272SOL     OW 7714   6.532   3.472   1.189  0.1975 -0.1456  0.6444
 2272SOL    HW1 7715   6.563   3.558   1.229 -0.9504  0.2812  0.6639
 2272SOL    HW2 7716   6.432   3.467   1.195  0.1443 -0.8736 -0.5646
 2273SOL     OW 7717   7.002   6.070   4.165 -0.4320  0.3208  0.3042
 2273SOL    HW1 7718   7.057   5.994   4.132 -0.5371 -0.0133  0.8809
 2273SOL    HW2 7719   6.910   6.065   4.125 -0.5171 -0.0014  0.5382
 2274SOL     OW 7720   2.664   5.340   1.560 -0.0018 -0.4884 -0.3122
 2274SOL    HW1 7721   2.753   5.377   1.531  0.2743 -0.9943 -0.1081
 2274SOL    HW2 7722   2.660   5.338   1.660 -0.5394  0.2366 -0.3046
 2275SOL     OW 7723   4.010   1.505   3.468 -0.1285  0.0014  0.2904
 2275SOL    HW1 7724   4.050   1.542   3.384 -0.2786  1.2625  0.7565
 2275SOL    HW2 7725   3.912   1.491   3.454 -0.0456 -0.3597  0.0659
 2276SOL     OW 7726   3.539   2.892   5.120  0.1808 -0.1956  0.0710
 2276SOL    HW1 7727   3.445   2.887   5.085  0.2369 -0.4461 -0.0495
 2276SOL    HW2 7728   3.546   2.966   5.187 -0.1956 -0.4256  0.3665
 2277SOL     OW 7729   5.097   2.195   4.587  0.7512 -0.6565 -0.1563
 2277SOL    HW1 7730   5.092   2.276   4.529 -1.3113 -0.1012  0.7155
 2277SOL    HW2 7731   5.038   2.123   4.550  0.9743 -1.0223  0.1808
 2278SOL     OW 7732   4.892   0.673   0.234  0.0434 -0.3726  0.5651
 2278SOL    HW1 7733   4.986   0.697   0.208  0.0646 -0.3182  0.6937
 2278SOL    HW2 7734   4.841   0.756   0.254 -0.2271 -0.3546 -0.1681
 2279SOL     OW 7735   6.004   4.381   0.814 -0.5922 -0.4289  0.4970
 2279SOL    HW1 7736   6.013   4.416   0.721  0.5291 -1.4245  0.1995
 2279SOL    HW2 7737   6.078   4.417   0.871  0.1361 -1.6488  0.3732
 2280SOL     OW 7738   5.852   2.098   2.412  0.1503 -0.0287 -0.1747
 2280SOL    HW1 7739   5.830   2.080   2.316 -0.7470 -1.6526  0.3025
 2280SOL    HW2 7740   5.952   2.095   2.424  0.3989  1.9296 -1.3429
 2281SOL     OW 7741   6.831   5.630   3.106 -0.1202 -0.1866  0.2539
 2281SOL    HW1 7742   6.741   5.607   3.069 -0.8473  0.1320  1.7188
 2281SOL    HW2 7743   6.887   5.548   3.114 -0.5080 -0.4830 -0.0840
 2282SOL     OW 7744   6.279   0.964   5.092 -0.2612  0.5977 -0.3307
 2282SOL    HW1 7745   6.237   0.980   5.181 -0.2412 -3.3396  0.5386
 2282SOL    HW2 7746   6.208   0.946   5.024 -0.2414 -2.0453  0.2507
 2283SOL     OW 7747   5.344   4.173   2.052 -0.8164 -0.2279  0.2715
 2283SOL    HW1 7748   5.432   4.127   2.051 -0.4147  0.5388 -0.3235
 2283SOL    HW2 7749   5.271   4.105   2.043 -0.1863 -0.6610 -2.8217
 2284SOL     OW 7750   5.071   2.659   4.859 -0.9471 -0.9688 -0.1885
 2284SOL    HW1 7751   5.051   2.577   4.914  2.1451 -2.8407 -1.5684
 2284SOL    HW2 7752   5.042   2.644   4.765 -0.4423 -0.4470 -0.4342
 2285SOL     OW 7753   6.351   1.651   4.293  0.1428  0.0616 -0.1055
 2285SOL    HW1 7754   6.334   1.602   4.207 -0.6754 -1.7911  1.0544
 2285SOL    HW2 7755   6.386   1.587   4.361  1.5757  1.6649  0.7433
 2286SOL     OW 7756   6.831   1.554   2.588 -0.2353 -0.1771 -0.0158
 2286SOL    HW1 7757   6.845   1.516   2.679 -0.7715 -0.3851 -0.0198
 2286SOL    HW2 7758   6.749   1.515   2.547 -0.5686  0.6634 -0.1840
 2287SOL     OW 7759   3.869   2.623   5.622  0.0677 -0.1390  0.3073
 2287SOL    HW1 7760   3.943   2.596   5.560  3.5400 -0.2421  4.0523
 2287SOL    HW2 7761   3.825   2.541   5.660  0.8590 -0.2451  1.0399
 2288SOL     OW 7762   4.756   0.847   5.866  0.3115 -0.4551  0.2370
 2288SOL    HW1 7763   4.718   0.762   5.831  0.2943 -0.6965  0.8350
 2288SOL    HW2 7764   4.688   0.893   5.924  0.5812 -0.3976  0.5087
 2289SOL     OW 7765   5.475   5.339   0.965  0.2990 -0.4818 -0.5090
 2289SOL    HW1 7766   5.384   5.335   1.007 -0.7180 -2.7642 -2.6881
 2289SOL    HW2 7767   5.544   5.340   1.038 -1.3971 -2.1144  1.2838
 2290SOL     OW 7768   2.781   6.032   5.641  0.5015  0.1224  0.1419
 2290SOL    HW1 7769   2.737   5.993   5.560 -2.3416  1.6429  0.8141
 2290SOL    HW2 7770   2.878   6.049   5.622 -0.3513  1.8398 -3.5282
 2291SOL     OW 7771   2.592   3.077   5.613  0.3057 -0.5732 -0.0150
 2291SOL    HW1 7772   2.646   3.059   5.530 -0.8837 -0.6893 -0.7929
 2291SOL    HW2 7773   2.618   3.012   5.684  2.6043  0.6254  0.3572
 2292SOL     OW 7774   6.534   0.571   0.094  0.9646 -0.7445 -0.1896
 2292SOL    HW1 7775   6.549   0.483   0.138  0.8372  0.1624  1.7975
 2292SOL    HW2 7776   6.621   0.616   0.079  0.9303 -0.3876  0.6322
 2293SOL     OW 7777   6.780   4.032   6.307  0.3068 -0.3922  0.0492
 2293SOL    HW1 7778   6.684   4.005   6.301 -0.0954  0.9239  0.0442
 2293SOL    HW2 7779   6.818   4.003   6.394  0.4253 -2.4305 -0.6394
 2294SOL     OW 7780   2.763   6.286   6.674 -0.3836  0.2198  0.3563
 2294SOL    HW1 7781   2.783   6.248   6.765 -3.5987 -0.6750  0.8360
 2294SOL    HW2 7782   2.736   6.382   6.683  0.8290  0.6018  0.0900
 2295SOL     OW 7783   6.604   4.397   5.509  0.8705 -0.2711 -0.1817
 2295SOL    HW1 7784   6.654   4.315   5.536 -0.4960 -1.3516 -0.8194
 2295SOL    HW2 7785   6.637   4.429   5.421  0.7440 -0.7194 -0.3955
 2296SOL     OW 7786   0.812   2.825   6.550  0.1071  0.3237  0.7621
 2296SOL    HW1 7787   0.825   2.913   6.596 -1.2654  1.0866 -0.2181
 2296SOL    HW2 7788   0.747   2.837   6.475  0.5860 -1.3551  0.0455
 2297SOL     OW 7789   6.128   1.270   2.710 -0.3343  0.3291 -0.0363
 2297SOL    HW1 7790   6.068   1.199   2.675 -0.0939  0.1899 -0.1724
 2297SOL    HW2 7791   6.216   1.230   2.736  0.5639  0.8712 -2.0434
 2298SOL     OW 7792   6.902   6.640   2.759  0.0313  0.1645 -0.3173
 2298SOL    HW1 7793   6.895   6.553   2.710  1.6107  0.4530 -1.1289
 2298SOL    HW2 7794   6.877   6.715   2.699  1.1298  0.4503 -0.4451
 2299SOL     OW 7795   1.679   3.853   1.471 -0.3387 -0.0951  0.1451
 2299SOL    HW1 7796   1.698   3.906   1.388 -1.0930  0.4681  0.3283
 2299SOL    HW2 7797   1.605   3.896   1.522  0.2745 -0.3034  1.2412
 2300SOL     OW 7798   2.313   2.011   3.841  0.7933 -0.1095  0.0450
 2300SOL    HW1 7799   2.354   2.056   3.761  1.7750  0.3479  0.7768
 2300SOL    HW2 7800   2.216   2.034   3.845  0.8109  0.1782 -0.7946
 2301SOL     OW 7801   5.712   4.356   3.153 -0.2374  0.6414 -0.0997
 2301SOL    HW1 7802   5.731   4.377   3.057 -0.0165 -0.8984 -0.4141
 2301SOL    HW2 7803   5.791   4.311   3.194 -0.5229  0.8148  0.6615
 2302SOL     OW 7804   2.194   3.029   6.745 -0.3694  0.0110 -0.4817
 2302SOL    HW1 7805   2.290   3.059   6.746 -0.3464 -0.0798 -0.0151
 2302SOL    HW2 7806   2.141   3.089   6.685  0.0376 -0.1196 -0.9894
 2303SOL     OW 7807   1.592   4.493   4.257 -0.1775  0.3485 -0.0501
 2303SOL    HW1 7808   1.661   4.564   4.258  1.0802 -0.8262  1.0792
 2303SOL    HW2 7809   1.590   4.447   4.346 -1.9287 -0.1239 -0.2873
 2304SOL     OW 7810   2.634   3.980   5.378  0.5050  0.1740  0.5175
 2304SOL    HW1 7811   2.591   3.954   5.465 -2.0205  0.3853 -0.6017
 2304SOL    HW2 7812   2.580   3.945   5.302  2.7298 -0.1064 -1.0286
 2305SOL     OW 7813   3.935   3.517   4.210 -0.3158  1.0602  0.7568
 2305SOL    HW1 7814   4.011   3.453   4.220  1.0936  2.6896  0.8428
 2305SOL    HW2 7815   3.878   3.489   4.132  1.6927  1.0630 -0.8045
 2306SOL     OW 7816   6.249   4.062   6.143 -0.0250  0.0239 -0.2855
 2306SOL    HW1 7817   6.185   4.111   6.084  0.0949  0.3214 -0.1671
 2306SOL    HW2 7818   6.210   3.973   6.166  0.1084 -0.2668 -1.1501
 2307SOL     OW 7819   0.644   6.056   7.015 -0.3232  0.6404 -0.4498
 2307SOL    HW1 7820   0.614   5.963   7.037  0.5338  0.8489  1.9442
 2307SOL    HW2 7821   0.744   6.059   7.013 -0.3549  1.3141 -1.5096
 2308SOL     OW 7822   1.900   1.617   0.304  0.2357  0.0643  0.2120
 2308SOL    HW1 7823   1.943   1.549   0.364 -0.6371 -0.3727  0.3608
 2308SOL    HW2 7824   1.800   1.605   0.307  0.1782 -0.0240 -1.3928
 2309SOL     OW 7825   2.083   0.748   6.262 -0.1924 -0.9685 -0.0671
 2309SOL    HW1 7826   2.126   0.697   6.337  1.2678 -0.7185 -0.7003
 2309SOL    HW2 7827   1.989   0.716   6.250 -0.2404 -1.4862  1.4168
 2310SOL     OW 7828   5.701   0.360   5.130 -1.1163 -0.1987  0.1908
 2310SOL    HW1 7829   5.708   0.418   5.049 -0.9665 -1.8728 -1.0356
 2310SOL    HW2 7830   5.605   0.338   5.147 -1.1914  0.5541  0.7816
 2311SOL     OW 7831   4.871   2.500   4.403 -0.6306  0.2317 -0.3871
 2311SOL    HW1 7832   4.811   2.430   4.442  0.8277 -0.0471  1.4809
 2311SOL    HW2 7833   4.876   2.488   4.304 -1.9205 -1.0811 -0.3224
 2312SOL     OW 7834   0.631   0.148   4.958  0.2169  0.5975 -0.4362
 2312SOL    HW1 7835   0.535   0.152   4.985  0.6020  0.0301  1.0917
 2312SOL    HW2 7836   0.639   0.103   4.869 -0.9461  0.9871 -0.7583
 2313SOL     OW 7837   6.853   4.927   5.037  0.1336 -0.5492 -0.2878
 2313SOL    HW1 7838   6.930   4.929   5.101  1.0958  0.9245 -1.4385
 2313SOL    HW2 7839   6.781   4.989   5.069  1.1357  1.1435 -1.2110
 2314SOL     OW 7840   5.047   5.183   4.616 -0.0517 -0.2334  0.0802
 2314SOL    HW1 7841   4.975   5.223   4.559 -1.1694 -3.3766 -0.9431
 2314SOL    HW2 7842   5.124   5.157   4.559  0.7216  0.5620  0.7412
 2315SOL     OW 7843   1.511   6.025   1.513 -0.1293  0.3006  0.4607
 2315SOL    HW1 7844   1.421   6.048   1.551  0.3158 -0.3369  1.9948
 2315SOL    HW2 7845   1.566   5.981   1.584  0.6742 -1.1958 -1.0284
 2316SOL     OW 7846   4.107   3.744   2.901  0.0307 -0.1295  0.7407
 2316SOL    HW1 7847   4.167   3.819   2.873 -1.2606  0.9497  0.7529
 2316SOL    HW2 7848   4.039   3.728   2.830 -0.1854 -0.7764  1.0868
 2317SOL     OW 7849   3.073   0.816   4.578  0.7404 -0.0011 -0.3385
 2317SOL    HW1 7850   3.172   0.816   4.594  0.7637 -0.3343 -0.4677
 2317SOL    HW2 7851   3.037   0.909   4.588  0.7428 -0.1778  1.6593
 2318SOL     OW 7852   2.442   2.106   2.062 -0.2328 -0.1168 -0.3847
 2318SOL    HW1 7853   2.414   2.070   2.151  1.7023 -1.1144 -0.1328
 2318SOL    HW2 7854   2.466   2.202   2.071  0.2048 -0.2766  0.2474
 2319SOL     OW 7855   1.121   1.139   5.017  0.0314 -0.3320 -0.2295
 2319SOL    HW1 7856   1.217   1.161   5.000  0.6571 -0.7119  2.3483
 2319SOL    HW2 7857   1.082   1.094   4.937  1.3549  1.6854 -2.1404
 2320SOL     OW 7858   1.925   3.714   4.643 -0.6169 -0.9090  0.0798
 2320SOL    HW1 7859   1.912   3.734   4.546  0.9373  0.9857  0.2043
 2320SOL    HW2 7860   1.981   3.632   4.653 -0.6636 -1.0316 -0.6190
 2321SOL     OW 7861   3.373   6.492   4.606  0.7163  0.4298  0.5061
 2321SOL    HW1 7862   3.319   6.428   4.553  0.1080  1.3923 -0.0522
 2321SOL    HW2 7863   3.469   6.489   4.575  0.6935 -0.1978  0.4879
 2322SOL     OW 7864   6.524   6.058   6.192 -0.5070 -0.4142 -0.3743
 2322SOL    HW1 7865   6.566   6.088   6.106  2.3828 -0.4176  0.9352
 2322SOL    HW2 7866   6.504   6.137   6.249  0.9828 -0.5740  0.4014
 2323SOL     OW 7867   0.288   6.664   4.755 -0.1246 -0.0191  0.3856
 2323SOL    HW1 7868   0.301   6.746   4.810 -0.6309  0.5437 -0.3239
 2323SOL    HW2 7869   0.352   6.665   4.678 -0.0914 -0.3283  0.4057
 2324SOL     OW 7870   0.707   4.825   6.601  0.0389  0.3949  0.0091
 2324SOL    HW1 7871   0.612   4.831   6.570  1.2848  1.0655 -4.2203
 2324SOL    HW2 7872   0.734   4.729   6.606 -0.8952  0.1750  1.6707
 2325SOL     OW 7873   6.843   5.079   5.571 -0.7518  0.4370 -0.2383
 2325SOL    HW1 7874   6.928   5.045   5.531 -1.3511 -2.1585  0.4860
 2325SOL    HW2 7875   6.767   5.022   5.541 -1.9198  1.3629  0.8547
 2326SOL     OW 7876   0.876   4.894   4.261 -0.1139  0.1338  0.2109
 2326SOL    HW1 7877   0.911   4.977   4.217 -0.1855 -0.7339 -1.5623
 2326SOL    HW2 7878   0.843   4.831   4.192  0.3785 -1.6008  1.4965
 2327SOL     OW 7879   0.148   1.449   2.767 -0.4139  0.0256  0.1575
 2327SOL    HW1 7880   0.114   1.541   2.752 -0.2670 -0.0340 -0.5645
 2327SOL    HW2 7881   0.194   1.445   2.856  0.3707  0.8903 -0.1878
 2328SOL     OW 7882   4.478   3.311   0.148  0.2807 -0.1605  0.0349
 2328SOL    HW1 7883   4.447   3.326   0.242  1.2222  0.8502  0.2015
 2328SOL    HW2 7884   4.577   3.323   0.144  0.2304 -0.0807 -1.1193
 2329SOL     OW 7885   6.556   0.863   6.750 -0.4386  0.2107 -0.0239
 2329SOL    HW1 7886   6.586   0.904   6.836 -1.8825  0.0870  0.5761
 2329SOL    HW2 7887   6.632   0.861   6.685  0.3165  1.5467  0.7754
 2330SOL     OW 7888   5.772   5.888   2.291  0.3269  0.0885  0.2415
 2330SOL    HW1 7889   5.804   5.933   2.208  0.4075 -0.6944 -0.1646
 2330SOL    HW2 7890   5.768   5.789   2.275 -0.2885 -0.0069  0.9592
 2331SOL     OW 7891   0.255   6.478   3.786  0.2953 -0.0416 -0.0302
 2331SOL    HW1 7892   0.313   6.518   3.715  2.2994 -1.3617  0.7648
 2331SOL    HW2 7893   0.306   6.407   3.834 -1.0022  0.7621  2.7167
 2332SOL     OW 7894   5.561   1.454   2.616  0.4778 -0.3641  0.6478
 2332SOL    HW1 7895   5.644   1.438   2.564 -0.8575 -0.2669 -1.6483
 2332SOL    HW2 7896   5.552   1.552   2.635  0.4690 -0.2662  0.1458
 2333SOL     OW 7897   4.773   6.145   5.868 -0.1254 -0.3323 -0.0739
 2333SOL    HW1 7898   4.725   6.146   5.780 -1.2439 -0.7147  0.5073
 2333SOL    HW2 7899   4.871   6.162   5.853  0.0218 -2.1369 -1.5859
 2334SOL     OW 7900   3.085   2.216   5.348 -0.6016  0.0479  0.4351
 2334SOL    HW1 7901   3.126   2.272   5.276 -0.1311  0.1251  0.7577
 2334SOL    HW2 7902   3.104   2.257   5.437 -1.6628  0.2569  0.5778
 2335SOL     OW 7903   6.467   4.418   6.356 -0.6536 -0.2028  0.5674
 2335SOL    HW1 7904   6.479   4.485   6.429  2.3162  0.6771 -0.5852
 2335SOL    HW2 7905   6.530   4.342   6.371  1.8185  1.1426 -2.2096
 2336SOL     OW 7906   6.205   4.148   4.127 -0.5128  0.1233  0.5132
 2336SOL    HW1 7907   6.157   4.092   4.060  2.8398 -0.4455 -1.6398
 2336SOL    HW2 7908   6.240   4.090   4.200 -0.0156 -0.0491  0.1413
 2337SOL     OW 7909   4.391   4.583   3.009 -0.1238  0.3114 -0.2957
 2337SOL    HW1 7910   4.447   4.542   3.082 -2.2147 -0.0441  1.2066
 2337SOL    HW2 7911   4.407   4.534   2.923  0.4600 -0.9990  0.5224
 2338SOL     OW 7912   5.194   5.775   2.857  0.2782  0.7848  0.1341
 2338SOL    HW1 7913   5.209   5.738   2.948  0.0469 -0.2145 -0.2198
 2338SOL    HW2 7914   5.274   5.757   2.800  1.0229  2.6722  0.5168
 2339SOL     OW 7915   4.292   5.345   3.931  0.6420  0.9484 -0.0577
 2339SOL    HW1 7916   4.238   5.399   3.996  1.8145  1.3891  0.5761
 2339SOL    HW2 7917   4.296   5.250   3.962  0.2177  0.9097 -0.1179
 2340SOL     OW 7918   4.943   3.873   2.430 -0.0974 -0.0303  0.2365
 2340SOL    HW1 7919   4.935   3.791   2.488 -0.8564  0.2173  0.5010
 2340SOL    HW2 7920   4.900   3.951   2.477  2.7107  1.1293  1.0854
 2341SOL     OW 7921   2.632   1.263   3.785 -0.4858  0.0459  0.3945
 2341SOL    HW1 7922   2.683   1.341   3.822  0.1128  0.4086 -1.1114
 2341SOL    HW2 7923   2.539   1.293   3.762 -0.8472 -0.1708  1.5030
 2342SOL     OW 7924   3.267   6.233   5.727  0.4511 -0.0039  0.2488
 2342SOL    HW1 7925   3.290   6.237   5.824  1.1872 -0.1620  0.0870
 2342SOL    HW2 7926   3.201   6.305   5.705  2.3156  1.8099  0.3313
 2343SOL     OW 7927   0.564   3.508   1.552 -0.4400 -0.1238  0.4814
 2343SOL    HW1 7928   0.543   3.410   1.545  0.1051 -0.1487 -1.2099
 2343SOL    HW2 7929   0.485   3.561   1.522 -1.3227  0.0514  2.8789
 2344SOL     OW 7930   2.759   3.621   6.870  0.1072 -0.0395  0.3858
 2344SOL    HW1 7931   2.770   3.614   6.969 -0.4078  1.5217  0.5907
 2344SOL    HW2 7932   2.843   3.657   6.830 -0.0480  0.3484  0.4031
 2345SOL     OW 7933   2.254   1.599   1.213  0.5719  0.2732 -0.2936
 2345SOL    HW1 7934   2.315   1.520   1.215  0.9565  0.5724 -0.2029
 2345SOL    HW2 7935   2.160   1.569   1.228  0.8322 -0.0617  0.7369
 2346SOL     OW 7936   6.113   3.349   2.072 -0.0177  0.2741 -0.4796
 2346SOL    HW1 7937   6.207   3.334   2.041 -0.2750 -0.6399 -0.8279
 2346SOL    HW2 7938   6.068   3.414   2.010  0.2194  0.3209 -0.6073
 2347SOL     OW 7939   0.168   2.250   2.055 -0.0688 -0.3663 -0.5441
 2347SOL    HW1 7940   0.177   2.284   1.961  0.3027 -1.7362 -1.0375
 2347SOL    HW2 7941   0.255   2.262   2.103 -0.7888  2.0738  0.2855
 2348SOL     OW 7942   6.718   2.067   5.631  0.0742 -0.0177  0.2926
 2348SOL    HW1 7943   6.772   2.147   5.603 -2.1394  1.1485 -0.8832
 2348SOL    HW2 7944   6.779   1.988   5.638  2.1491  1.4710  0.3407
 2349SOL     OW 7945   6.693   1.156   3.000 -0.0100 -0.5033  0.2679
 2349SOL    HW1 7946   6.784   1.161   2.958 -0.0329 -1.2858  0.0997
 2349SOL    HW2 7947   6.684   1.069   3.048 -0.5995 -0.3424  0.4570
 2350SOL     OW 7948   5.043   4.942   3.748 -0.5483 -0.2244 -0.3387
 2350SOL    HW1 7949   5.040   4.893   3.835 -2.0600  1.2419  0.5033
 2350SOL    HW2 7950   5.100   5.023   3.757 -0.4302 -0.2473 -0.8323
 2351SOL     OW 7951   5.436   6.452   5.962  0.1400  0.1125 -0.9035
 2351SOL    HW1 7952   5.343   6.425   5.985 -0.0084 -0.3174 -1.9650
 2351SOL    HW2 7953   5.501   6.400   6.018 -0.2196 -0.7388 -1.2505
 2352SOL     OW 7954   0.417   5.098   0.706 -0.1487 -0.8202 -1.0582
 2352SOL    HW1 7955   0.503   5.099   0.655  1.2663 -1.1674  1.1528
 2352SOL    HW2 7956   0.433   5.131   0.799 -2.0012 -2.6775  0.0224
 2353SOL     OW 7957   0.445   1.360   6.460 -0.0478 -0.5343 -0.2007
 2353SOL    HW1 7958   0.406   1.451   6.446  0.1346  0.1098  2.8478
 2353SOL    HW2 7959   0.542   1.368   6.486 -0.6613 -1.2743  2.7242
 2354SOL     OW 7960   6.561   4.896   0.466 -0.2227 -0.3479  0.7910
 2354SOL    HW1 7961   6.641   4.953   0.448  0.4748 -0.6963  2.5552
 2354SOL    HW2 7962   6.518   4.870   0.380  1.3257  0.1952 -0.1811
 2355SOL     OW 7963   6.245   4.674   4.118  0.1770  0.2953 -0.5894
 2355SOL    HW1 7964   6.320   4.711   4.174  0.2043  0.4597 -0.7324
 2355SOL    HW2 7965   6.159   4.714   4.147  0.0635 -0.3157 -0.0488
 2356SOL     OW 7966   1.797   6.315   1.335  0.4410 -0.2866 -0.3122
 2356SOL    HW1 7967   1.872   6.280   1.278 -0.6832 -1.4372 -1.1345
 2356SOL    HW2 7968   1.816   6.295   1.431  1.4483 -0.0425 -0.4460
 2357SOL     OW 7969   0.514   0.087   0.152  0.5044 -0.1051  0.0893
 2357SOL    HW1 7970   0.454   0.020   0.108  0.6066 -0.3758  0.3633
 2357SOL    HW2 7971   0.609   0.057   0.143  0.5574  0.0451  0.1461
 2358SOL     OW 7972   1.180   4.193   4.032 -0.4947  0.4956  0.1523
 2358SOL    HW1 7973   1.261   4.220   3.979 -0.9993 -1.0705 -1.5152
 2358SOL    HW2 7974   1.198   4.206   4.130  1.3696  1.1753 -0.2447
 2359SOL     OW 7975   4.587   1.326   4.249  0.1557  0.2521 -0.0407
 2359SOL    HW1 7976   4.540   1.414   4.256 -0.1375  0.0821  0.1425
 2359SOL    HW2 7977   4.659   1.333   4.180  1.6156  1.2946  1.5200
 2360SOL     OW 7978   1.484   5.102   6.697 -0.1118 -0.2664 -0.4775
 2360SOL    HW1 7979   1.502   5.198   6.676 -1.5544 -0.1443 -1.3267
 2360SOL    HW2 7980   1.493   5.048   6.613  2.2467 -1.1708  0.2848
 2361SOL     OW 7981   6.362   4.279   5.184 -0.1530  0.2179  0.1083
 2361SOL    HW1 7982   6.325   4.191   5.216 -1.6192  1.0967  0.9442
 2361SOL    HW2 7983   6.458   4.285   5.209  0.2650 -1.5732 -0.8958
 2362SOL     OW 7984   6.232   2.836   0.960 -0.2169  0.1150  1.0700
 2362SOL    HW1 7985   6.309   2.795   1.010  0.4678  0.1864  0.0819
 2362SOL    HW2 7986   6.251   2.835   0.862 -0.8577  1.4163  0.9090
 2363SOL     OW 7987   0.039   0.114   4.139  0.2334  0.4491 -0.1068
 2363SOL    HW1 7988   0.052   0.160   4.226  0.3745  0.4312 -0.1175
 2363SOL    HW2 7989  -0.050   0.139   4.101 -0.8908 -1.3723  1.1576
 2364SOL     OW 7990   0.504   4.015   6.240  0.4878  0.2651 -0.3033
 2364SOL    HW1 7991   0.596   4.022   6.203  0.0045  1.8916 -1.3510
 2364SOL    HW2 7992   0.468   4.107   6.258 -0.6640 -0.3618  0.7841
 2365SOL     OW 7993   0.081   5.802   3.760 -0.0019  0.0436 -0.4707
 2365SOL    HW1 7994   0.148   5.831   3.692 -0.2476  0.7751 -0.4111
 2365SOL    HW2 7995   0.051   5.709   3.740  1.9560 -0.7875  0.2152
 2366SOL     OW 7996   5.162   1.564   4.957  0.0334  0.0448 -1.0286
 2366SOL    HW1 7997   5.163   1.556   5.057  1.2244  1.5446 -0.8818
 2366SOL    HW2 7998   5.153   1.473   4.917  0.7162 -0.7154  0.4339
 2367SOL     OW 7999   3.784   6.587   0.445  0.2040 -1.0485 -0.1425
 2367SOL    HW1 8000   3.881   6.598   0.465  0.7328 -0.3616 -2.6462
 2367SOL    HW2 8001   3.736   6.672   0.466  0.2003 -1.2749  0.7814
 2368SOL     OW 8002   0.712   0.800   0.969 -0.0117  0.0351  0.7184
 2368SOL    HW1 8003   0.772   0.759   0.900  1.8946  1.0854  1.6496
 2368SOL    HW2 8004   0.617   0.781   0.946  0.3862  1.7722 -3.1733
 2369SOL     OW 8005   4.870   5.870   0.176 -0.4513 -0.3217  0.3840
 2369SOL    HW1 8006   4.911   5.891   0.265  1.9336  0.6696 -0.8604
 2369SOL    HW2 8007   4.914   5.926   0.106  0.1291 -3.4067 -1.9224
 2370SOL     OW 8008   0.138   0.338   6.151  0.0406 -0.1913 -0.0203
 2370SOL    HW1 8009   0.191   0.388   6.219  0.0253  1.1991 -0.9819
 2370SOL    HW2 8010   0.153   0.379   6.061  1.0111 -2.7095 -1.1003
 2371SOL     OW 8011   5.154   0.974   3.379 -0.2500 -0.2639  0.1114
 2371SOL    HW1 8012   5.090   1.051   3.380 -0.5773 -0.3992  4.2914
 2371SOL    HW2 8013   5.247   1.009   3.366 -0.3508  0.9868  2.2734
 2372SOL     OW 8014   5.604   1.418   4.543  0.3167  0.0043 -0.4765
 2372SOL    HW1 8015   5.541   1.460   4.609 -2.3187 -1.1112 -2.1074
 2372SOL    HW2 8016   5.698   1.446   4.564 -0.4626  0.4837  3.0992
 2373SOL     OW 8017   6.261   3.597   6.266 -0.4792  0.5428  0.1588
 2373SOL    HW1 8018   6.357   3.604   6.291 -0.3171 -0.1700 -0.2480
 2373SOL    HW2 8019   6.240   3.503   6.237 -1.6467  0.2621  1.7399
 2374SOL     OW 8020   5.899   6.041   6.931 -0.4453 -0.1816  0.7716
 2374SOL    HW1 8021   5.966   6.067   7.000 -0.4592  0.4721  0.5504
 2374SOL    HW2 8022   5.822   6.105   6.934 -0.1131  0.2968 -0.3184
 2375SOL     OW 8023   1.143   5.562   4.351 -0.8042 -0.5651  0.6907
 2375SOL    HW1 8024   1.126   5.555   4.449  0.1285 -2.6172  0.7609
 2375SOL    HW2 8025   1.108   5.481   4.305  1.1720 -0.9467 -0.2636
 2376SOL     OW 8026   0.280   2.627   5.736 -0.5068  0.4752 -0.5639
 2376SOL    HW1 8027   0.262   2.725   5.731  0.0238  0.5557 -0.9138
 2376SOL    HW2 8028   0.249   2.583   5.652  0.3175  0.5131 -0.8850
 2377SOL     OW 8029   3.069   1.489   0.331  0.2830  0.4278  0.4998
 2377SOL    HW1 8030   2.981   1.504   0.287  1.1145  0.9947 -1.0470
 2377SOL    HW2 8031   3.060   1.501   0.430 -1.5953 -0.6708  0.4960
 2378SOL     OW 8032   6.713   1.131   3.800 -0.4078  0.1759  0.2758
 2378SOL    HW1 8033   6.682   1.141   3.705  0.1732 -0.4566  0.0149
 2378SOL    HW2 8034   6.797   1.183   3.813  0.0087 -0.4713  0.1959
 2379SOL     OW 8035   1.641   1.317   5.224 -0.4819 -0.2564 -0.8755
 2379SOL    HW1 8036   1.719   1.286   5.170 -1.2864 -1.5675 -1.3532
 2379SOL    HW2 8037   1.662   1.405   5.266  1.8248 -1.2945  0.3227
 2380SOL     OW 8038   1.757   5.936   0.701  0.6422  0.1859 -0.0013
 2380SOL    HW1 8039   1.703   6.020   0.699  0.4430  0.1758  2.2899
 2380SOL    HW2 8040   1.695   5.857   0.699  0.6798  0.1436  0.3873
 2381SOL     OW 8041   2.476   0.942   0.829 -0.0809 -0.0174 -0.4543
 2381SOL    HW1 8042   2.550   0.965   0.893  0.1346  0.2784 -0.8067
 2381SOL    HW2 8043   2.430   0.859   0.860 -0.8835  0.8799  0.8468
 2382SOL     OW 8044   4.049   5.838   2.712  0.0672  0.4120  0.3457
 2382SOL    HW1 8045   4.140   5.823   2.751  0.4821  0.4725 -0.5524
 2382SOL    HW2 8046   3.986   5.769   2.746  0.3583  0.5905  1.2651
 2383SOL     OW 8047   2.030   4.477   3.015  0.5083  0.1990 -0.2164
 2383SOL    HW1 8048   2.010   4.545   3.085  1.0796 -1.4668  1.6644
 2383SOL    HW2 8049   2.102   4.512   2.955  0.7373  1.2765  0.6413
 2384SOL     OW 8050   4.209   1.261   3.751 -0.1908  0.2607  0.3710
 2384SOL    HW1 8051   4.258   1.274   3.665 -2.5996  1.7458 -0.8861
 2384SOL    HW2 8052   4.135   1.195   3.737 -0.0040 -0.2270  1.5943
 2385SOL     OW 8053   6.057   1.879   0.764 -0.1990 -0.3051 -0.1226
 2385SOL    HW1 8054   6.009   1.917   0.843 -0.4551 -1.0966  0.1157
 2385SOL    HW2 8055   6.153   1.906   0.766 -0.4136  0.4804 -0.0694
 2386SOL     OW 8056   6.130   1.721   6.310 -0.0652  0.0006 -0.3787
 2386SOL    HW1 8057   6.175   1.772   6.236  2.6617 -2.2607 -0.4706
 2386SOL    HW2 8058   6.158   1.625   6.305 -1.2096 -0.5805  2.5677
 2387SOL     OW 8059   6.895   2.789   4.949 -0.2965 -0.1234  0.9491
 2387SOL    HW1 8060   6.937   2.796   4.858 -1.1300  1.5665  0.6551
 2387SOL    HW2 8061   6.845   2.702   4.955  0.4407 -0.6342  0.1061
 2388SOL     OW 8062   6.997   0.522   1.668 -0.6188 -0.1239 -0.1919
 2388SOL    HW1 8063   7.036   0.593   1.726  2.7387 -2.1647  0.3261
 2388SOL    HW2 8064   6.915   0.484   1.711 -0.0123  0.5435  1.6136
 2389SOL     OW 8065   5.529   2.061   1.758 -0.0753 -0.2250 -0.2981
 2389SOL    HW1 8066   5.523   2.120   1.839 -0.6903  1.3589 -1.4641
 2389SOL    HW2 8067   5.462   1.987   1.767 -1.7136  1.1926 -0.3173
 2390SOL     OW 8068   5.097   2.347   0.313 -0.2062  0.0335 -0.6065
 2390SOL    HW1 8069   5.003   2.322   0.337  0.5310 -0.1419  2.5069
 2390SOL    HW2 8070   5.098   2.440   0.278 -1.3847  0.7545  1.1060
 2391SOL     OW 8071   6.345   6.815   5.074 -0.0729  0.3278 -0.2376
 2391SOL    HW1 8072   6.328   6.719   5.051  0.2930  0.2197 -0.0709
 2391SOL    HW2 8073   6.370   6.822   5.170 -1.5748  0.7782  0.1328
 2392SOL     OW 8074   5.584   6.592   5.759  0.7271 -0.2648  0.1897
 2392SOL    HW1 8075   5.531   6.586   5.843 -0.5662 -1.3415 -0.6476
 2392SOL    HW2 8076   5.536   6.543   5.686  2.0640  0.1887 -1.0493
 2393SOL     OW 8077   6.513   6.463   3.695  0.0986 -0.1632  0.6578
 2393SOL    HW1 8078   6.542   6.543   3.747  0.4647 -1.1013  1.9659
 2393SOL    HW2 8079   6.414   6.451   3.705  0.0764  0.0065  0.6415
 2394SOL     OW 8080   1.058   3.390   6.083 -0.8190 -0.2443 -0.2859
 2394SOL    HW1 8081   1.088   3.460   6.147 -0.3905  0.3498 -1.1225
 2394SOL    HW2 8082   1.137   3.350   6.037 -1.0965 -0.9192 -0.1920
 2395SOL     OW 8083   4.574   4.411   5.024 -0.1483  0.4982  0.8686
 2395SOL    HW1 8084   4.553   4.374   4.934  0.7032  1.0450  0.4297
 2395SOL    HW2 8085   4.492   4.454   5.062 -1.0875 -1.5823  1.2950
 2396SOL     OW 8086   0.125   4.978   6.087 -0.6318  0.5331  0.6031
 2396SOL    HW1 8087   0.067   4.960   6.008  0.2547 -0.8262  0.2298
 2396SOL    HW2 8088   0.084   4.939   6.169 -0.8887  0.7555  0.5826
 2397SOL     OW 8089   4.212   4.927   3.198 -0.7063 -0.2198  0.0725
 2397SOL    HW1 8090   4.224   5.025   3.186  1.3506 -0.2158  1.5876
 2397SOL    HW2 8091   4.149   4.910   3.274 -0.5312 -0.0567  0.2554
 2398SOL     OW 8092   1.192   0.502   1.059  0.0687  0.2177 -0.4465
 2398SOL    HW1 8093   1.099   0.491   1.026  0.5280  1.6593 -2.4290
 2398SOL    HW2 8094   1.209   0.440   1.136 -2.4882 -0.0583 -0.0412
 2399SOL     OW 8095   0.982   2.903   4.469 -0.7465  0.1813  0.2217
 2399SOL    HW1 8096   0.967   2.889   4.371  0.6529  0.0763 -0.0041
 2399SOL    HW2 8097   0.931   2.984   4.499 -1.4088  0.0565 -0.5269
 2400SOL     OW 8098   5.447   2.830   2.145  0.0382 -0.1780  0.1964
 2400SOL    HW1 8099   5.383   2.771   2.096 -0.6782 -1.8498  2.9388
 2400SOL    HW2 8100   5.396   2.891   2.205  0.8915 -1.5781  2.4716
 2401SOL     OW 8101   0.167   2.700   5.350  0.5471 -0.4395 -0.2030
 2401SOL    HW1 8102   0.147   2.775   5.413 -2.1969 -0.8683 -0.4667
 2401SOL    HW2 8103   0.169   2.734   5.256 -1.6210 -0.7593 -0.4146
 2402SOL     OW 8104   2.001   6.309   3.633 -0.0336  0.0097 -0.1028
 2402SOL    HW1 8105   2.002   6.216   3.668 -1.7810 -0.2454 -0.6651
 2402SOL    HW2 8106   2.060   6.367   3.691 -0.8809 -0.8964  1.7527
 2403SOL     OW 8107   1.788   5.350   0.197  0.2043 -0.3591  0.3034
 2403SOL    HW1 8108   1.718   5.415   0.227  0.2104 -0.4315  0.4745
 2403SOL    HW2 8109   1.745   5.278   0.141  0.3435  0.3191 -0.7007
 2404SOL     OW 8110   0.107   6.144   2.039  0.4162  0.4513 -0.0817
 2404SOL    HW1 8111   0.193   6.194   2.046 -0.0736  1.5104 -1.3668
 2404SOL    HW2 8112   0.088   6.122   1.943  0.8622 -2.6950  0.4365
 2405SOL     OW 8113   1.807   5.240   6.032  0.2641  0.6170  0.3396
 2405SOL    HW1 8114   1.885   5.177   6.032 -0.8805 -0.8757  2.3799
 2405SOL    HW2 8115   1.828   5.318   6.091  0.5430  0.6898  0.1503
 2406SOL     OW 8116   5.371   1.311   4.727 -0.5491  0.0298  0.1714
 2406SOL    HW1 8117   5.417   1.373   4.791 -0.7010  0.2408  0.0795
 2406SOL    HW2 8118   5.428   1.230   4.712  0.3317  0.7988 -0.8174
 2407SOL     OW 8119   1.500   1.637   1.922  0.5959 -0.1662  0.6629
 2407SOL    HW1 8120   1.597   1.619   1.939  0.4330 -1.2427  0.4841
 2407SOL    HW2 8121   1.480   1.732   1.947  0.8334 -0.9739  4.6227
 2408SOL     OW 8122   1.455   2.081   2.702  0.3432  0.3439  0.3638
 2408SOL    HW1 8123   1.493   2.007   2.757 -0.0620  0.6142  1.0215
 2408SOL    HW2 8124   1.529   2.143   2.674  0.4870  0.4659  1.0062
 2409SOL     OW 8125   4.854   6.350   1.583  0.1777  0.3580  0.0774
 2409SOL    HW1 8126   4.844   6.373   1.486 -1.2522  0.2819  0.1888
 2409SOL    HW2 8127   4.832   6.430   1.638  1.3238  0.5029  0.3578
 2410SOL     OW 8128   5.662   3.308   2.825  0.3659  0.0106  0.7519
 2410SOL    HW1 8129   5.735   3.375   2.810  1.1001 -1.2277 -1.7933
 2410SOL    HW2 8130   5.703   3.218   2.843 -0.5249 -0.6238 -0.3073
 2411SOL     OW 8131   3.409   4.212   6.888  0.1496 -0.0516 -0.6587
 2411SOL    HW1 8132   3.407   4.232   6.790  1.1656 -0.2764 -0.7383
 2411SOL    HW2 8133   3.504   4.201   6.918 -0.1450  0.0901  0.3712
 2412SOL     OW 8134   4.840   1.038   4.425  0.1829 -0.1543  0.1070
 2412SOL    HW1 8135   4.863   1.121   4.374 -1.3835  0.2169 -0.0440
 2412SOL    HW2 8136   4.780   1.062   4.501  0.8380 -0.9821  0.8958
 2413SOL     OW 8137   0.914   4.120   5.077  0.0114  0.1873  0.2477
 2413SOL    HW1 8138   0.987   4.063   5.113  0.1856  0.0754 -0.2758
 2413SOL    HW2 8139   0.923   4.213   5.112  0.1423  0.0652  0.5365
 2414SOL     OW 8140   4.435   2.444   4.550  0.6227  0.1055 -0.0976
 2414SOL    HW1 8141   4.459   2.540   4.533 -2.3855  1.3292  1.7997
 2414SOL    HW2 8142   4.497   2.405   4.617  2.3574  0.3909 -1.4567
 2415SOL     OW 8143   6.122   6.140   4.842  0.0993 -0.1575 -0.7589
 2415SOL    HW1 8144   6.207   6.137   4.895  0.3364  0.8252 -1.0636
 2415SOL    HW2 8145   6.141   6.177   4.751 -0.8404  1.1569 -0.4509
 2416SOL     OW 8146   6.581   2.917   3.960  0.2433  0.0506 -0.2401
 2416SOL    HW1 8147   6.569   3.003   3.909  2.2206  0.7681  0.4208
 2416SOL    HW2 8148   6.648   2.859   3.914  0.7476 -0.0564  0.5988
 2417SOL     OW 8149   6.460   2.455   4.380  0.3336  0.7110 -0.2330
 2417SOL    HW1 8150   6.477   2.542   4.428 -2.8657 -0.9764  4.7292
 2417SOL    HW2 8151   6.389   2.469   4.312 -0.5054  1.9831  0.8327
 2418SOL     OW 8152   3.098   4.009   2.343 -0.0297 -0.1679  0.0768
 2418SOL    HW1 8153   3.045   4.093   2.334 -1.1169 -0.8919 -0.4073
 2418SOL    HW2 8154   3.098   3.980   2.439 -1.9192 -1.0333 -0.1470
 2419SOL     OW 8155   0.052   2.955   6.948  0.1656 -0.1315  0.2219
 2419SOL    HW1 8156  -0.020   2.907   6.899  0.0544 -0.9943  1.2133
 2419SOL    HW2 8157   0.070   3.043   6.903 -2.2305  0.5995  0.5731
 2420SOL     OW 8158   0.884   3.709   3.860 -0.0943 -0.5761  0.0058
 2420SOL    HW1 8159   0.878   3.747   3.768 -2.4609  0.4786  0.5416
 2420SOL    HW2 8160   0.921   3.616   3.854  0.5740 -0.2404 -1.9017
 2421SOL     OW 8161   3.268   6.333   1.692  0.3650 -0.0065  0.2397
 2421SOL    HW1 8162   3.181   6.383   1.698  0.3427 -0.1107  0.8461
 2421SOL    HW2 8163   3.339   6.382   1.742  1.4833  1.7409 -2.8192
 2422SOL     OW 8164   3.654   0.073   3.236 -0.0033 -0.2886  0.3120
 2422SOL    HW1 8165   3.665   0.172   3.230 -2.8218  0.1685  1.2413
 2422SOL    HW2 8166   3.642   0.047   3.331  0.7369 -1.5683  0.0790
 2423SOL     OW 8167   2.003   4.851   5.914 -0.0467 -0.1788  0.8777
 2423SOL    HW1 8168   2.060   4.777   5.879 -1.4236 -2.0026  2.3084
 2423SOL    HW2 8169   2.021   4.935   5.862  0.3403 -1.8924 -1.9286
 2424SOL     OW 8170   3.047   3.837   1.326  0.0843  0.2320  0.1240
 2424SOL    HW1 8171   3.034   3.796   1.416 -0.4962 -0.7888 -0.3941
 2424SOL    HW2 8172   3.104   3.776   1.270 -0.6995  0.1629 -0.6292
 2425SOL     OW 8173   4.907   5.976   3.650 -0.1680 -0.2605  0.6044
 2425SOL    HW1 8174   4.970   5.915   3.602 -1.1212 -0.4572 -0.4451
 2425SOL    HW2 8175   4.837   6.009   3.586  0.6972  2.5135  0.9299
 2426SOL     OW 8176   1.005   1.584   6.648  0.3762  0.0706 -0.1239
 2426SOL    HW1 8177   1.077   1.537   6.597  0.2444 -1.2698  0.8678
 2426SOL    HW2 8178   0.962   1.652   6.589  0.4433 -1.1880 -1.7142
 2427SOL     OW 8179   4.101   6.759   2.325  0.3682  0.1447  0.1618
 2427SOL    HW1 8180   4.122   6.663   2.311  0.0088  0.4230 -3.1977
 2427SOL    HW2 8181   4.146   6.792   2.408  2.6141 -2.2965  0.0406
 2428SOL     OW 8182   4.485   1.302   5.451 -0.4635  0.5312 -0.0607
 2428SOL    HW1 8183   4.542   1.277   5.529 -0.2299 -2.1792 -1.0044
 2428SOL    HW2 8184   4.542   1.315   5.370 -0.9861 -1.0265 -0.7358
 2429SOL     OW 8185   2.155   5.823   3.753  0.0126 -0.4584 -0.1334
 2429SOL    HW1 8186   2.095   5.878   3.812 -1.6666  0.0486 -2.1540
 2429SOL    HW2 8187   2.100   5.756   3.703  1.5662 -1.7786 -0.1490
 2430SOL     OW 8188   1.461   3.462   4.699  0.2656  0.1513  0.6023
 2430SOL    HW1 8189   1.525   3.529   4.662 -0.0068  0.6935  1.0951
 2430SOL    HW2 8190   1.442   3.392   4.630 -0.4424  1.2879 -0.4079
 2431SOL     OW 8191   5.854   5.632   0.327 -0.0457 -0.3714  0.1239
 2431SOL    HW1 8192   5.858   5.544   0.373 -1.2280 -0.9599 -0.8495
 2431SOL    HW2 8193   5.759   5.659   0.313  0.1628 -0.8157 -2.9766
 2432SOL     OW 8194   3.476   4.293   0.227 -1.0355  0.6952  0.3708
 2432SOL    HW1 8195   3.398   4.328   0.176 -0.0129  0.6961 -1.2551
 2432SOL    HW2 8196   3.491   4.197   0.204  1.1403  1.4074 -1.6617
 2433SOL     OW 8197   1.286   4.793   0.433  0.0038  0.6476 -0.3312
 2433SOL    HW1 8198   1.349   4.734   0.483 -0.1367  0.4719 -0.3612
 2433SOL    HW2 8199   1.331   4.879   0.411  0.3571  0.3674 -0.7000
 2434SOL     OW 8200   6.196   1.926   6.155  0.0251 -0.0949 -0.1665
 2434SOL    HW1 8201   6.248   1.994   6.206  0.0470  0.8739 -1.4465
 2434SOL    HW2 8202   6.250   1.894   6.077  0.2120 -1.9624  0.6646
 2435SOL     OW 8203   5.917   0.580   0.583 -0.0081 -0.3203 -0.2411
 2435SOL    HW1 8204   6.004   0.573   0.631  0.8729  0.6508 -1.6140
 2435SOL    HW2 8205   5.925   0.537   0.493 -1.1228 -0.7193 -0.1553
 2436SOL     OW 8206   0.320   4.250   0.181  0.0137  0.1346  0.8652
 2436SOL    HW1 8207   0.264   4.174   0.147 -2.4671  1.1794  2.3490
 2436SOL    HW2 8208   0.330   4.319   0.109 -1.1663  0.2112  0.7550
 2437SOL     OW 8209   0.893   3.249   2.040 -0.2273 -0.0582 -0.1111
 2437SOL    HW1 8210   0.793   3.253   2.028 -0.4555 -2.6554  0.2126
 2437SOL    HW2 8211   0.932   3.188   1.971  0.9703 -0.0150  0.5077
 2438SOL     OW 8212   4.551   0.444   6.528  0.0022 -0.0102  0.2004
 2438SOL    HW1 8213   4.585   0.396   6.608 -0.1000 -0.9959 -0.3346
 2438SOL    HW2 8214   4.622   0.445   6.457  0.0709  0.7991  0.2683
 2439SOL     OW 8215   4.793   1.472   2.955 -0.1296 -0.2019 -0.2235
 2439SOL    HW1 8216   4.821   1.568   2.962 -1.8543  0.2864  0.3008
 2439SOL    HW2 8217   4.750   1.457   2.866 -1.0298 -0.1554  0.1977
 2440SOL     OW 8218   5.557   4.549   1.567  0.3642  0.5607  0.1593
 2440SOL    HW1 8219   5.513   4.634   1.537  0.3994  0.4803 -0.1245
 2440SOL    HW2 8220   5.519   4.521   1.656 -1.5534 -0.5023 -0.9097
 2441SOL     OW 8221   1.763   3.192   1.238  0.2411 -0.7219 -0.0497
 2441SOL    HW1 8222   1.669   3.199   1.271  0.5142  1.0904  0.4474
 2441SOL    HW2 8223   1.797   3.099   1.254 -0.8510 -0.9030  1.4213
 2442SOL     OW 8224   3.603   6.056   4.838 -0.3387  0.6773  0.6500
 2442SOL    HW1 8225   3.588   6.127   4.769  0.0845  0.5334  0.4098
 2442SOL    HW2 8226   3.620   5.968   4.793 -3.3901 -0.1510  0.9275
 2443SOL     OW 8227   5.809   6.065   4.356  0.2125  1.1362  1.0394
 2443SOL    HW1 8228   5.899   6.039   4.319  0.1800 -0.1887  1.8415
 2443SOL    HW2 8229   5.775   6.145   4.306  1.7065  1.4964  0.5369
 2444SOL     OW 8230   5.093   1.117   6.472  0.2977  0.4989  0.2200
 2444SOL    HW1 8231   5.129   1.154   6.558  1.8745 -0.8027  0.1516
 2444SOL    HW2 8232   5.094   1.017   6.476 -0.2789  0.4266 -1.0644
 2445SOL     OW 8233   1.811   6.843   4.359  0.6934 -0.1464 -0.2787
 2445SOL    HW1 8234   1.910   6.848   4.342  0.5290  0.2148 -1.2176
 2445SOL    HW2 8235   1.784   6.919   4.419  1.1324 -0.8405  0.8276
 2446SOL     OW 8236   0.322   3.257   2.108 -0.4117 -0.2565 -0.5245
 2446SOL    HW1 8237   0.377   3.175   2.097  0.0670 -0.2062  1.2293
 2446SOL    HW2 8238   0.313   3.303   2.019  3.1325  0.2103 -0.7960
 2447SOL     OW 8239   0.016   5.181   6.987  0.3748 -0.8521 -0.5558
 2447SOL    HW1 8240   0.010   5.213   6.892  0.6623 -0.7497 -0.5413
 2447SOL    HW2 8241   0.081   5.105   6.992  1.1764 -0.1629 -0.2665
 2448SOL     OW 8242   1.827   5.214   3.799 -0.1634 -0.1493  0.7273
 2448SOL    HW1 8243   1.906   5.158   3.825 -0.7842 -1.8717 -0.8662
 2448SOL    HW2 8244   1.842   5.254   3.709 -1.0051 -0.3525  0.4798
 2449SOL     OW 8245   2.361   4.861   1.115 -0.6253  0.2242  0.0653
 2449SOL    HW1 8246   2.444   4.837   1.166 -1.1957 -1.6508  0.1775
 2449SOL    HW2 8247   2.283   4.811   1.152 -1.3529  0.0113 -1.6530
 2450SOL     OW 8248   5.125   5.687   5.431  0.0630  0.2095  0.0428
 2450SOL    HW1 8249   5.101   5.756   5.498 -2.4882 -1.0593  0.5636
 2450SOL    HW2 8250   5.054   5.683   5.360  2.3195  1.0499 -2.4701
 2451SOL     OW 8251   2.389   6.054   3.037 -0.2608 -0.6653  0.8164
 2451SOL    HW1 8252   2.323   6.007   3.097 -2.2474  0.6747 -0.2155
 2451SOL    HW2 8253   2.341   6.091   2.958  1.7408  0.5827  0.1277
 2452SOL     OW 8254   5.074   3.513   6.291  0.2868  0.0144  0.3539
 2452SOL    HW1 8255   4.976   3.534   6.297  0.7505  2.2879  0.9510
 2452SOL    HW2 8256   5.117   3.533   6.379  1.4878  0.1780 -0.2584
 2453SOL     OW 8257   5.422   3.205   5.798 -0.2514 -0.1743 -0.2690
 2453SOL    HW1 8258   5.337   3.247   5.767  0.3098  1.7554  0.6557
 2453SOL    HW2 8259   5.411   3.173   5.893  0.5170  1.7073  0.5048
 2454SOL     OW 8260   2.091   1.292   6.511  0.0481  0.0918  0.4355
 2454SOL    HW1 8261   2.067   1.285   6.607 -0.2761 -0.9759  0.2941
 2454SOL    HW2 8262   2.066   1.383   6.476 -0.9116  0.0822  1.0647
 2455SOL     OW 8263   2.479   0.075   3.193  0.5528  0.3653  0.1091
 2455SOL    HW1 8264   2.511   0.168   3.215 -0.3174  0.4966  0.8975
 2455SOL    HW2 8265   2.441   0.073   3.101  1.1717  0.6364 -0.1543
 2456SOL     OW 8266   4.561   2.644   3.626  0.0078 -0.4506 -0.7769
 2456SOL    HW1 8267   4.503   2.701   3.684 -1.0819 -1.6413 -0.6623
 2456SOL    HW2 8268   4.546   2.547   3.649  0.0841 -0.9135 -2.5584
 2457SOL     OW 8269   3.390   1.172   5.792  0.3509  0.6186 -0.0380
 2457SOL    HW1 8270   3.455   1.096   5.791  0.6173  0.7927  1.4009
 2457SOL    HW2 8271   3.428   1.247   5.847 -1.6052  0.2048  2.0102
 2458SOL     OW 8272   5.046   0.438   4.195 -0.1852 -0.2613 -0.2708
 2458SOL    HW1 8273   5.108   0.431   4.273  1.0518  1.3989 -1.0228
 2458SOL    HW2 8274   5.072   0.518   4.140 -0.5457 -1.7447 -2.7549
 2459SOL     OW 8275   1.887   0.052   0.385  0.3815 -0.3533  0.6340
 2459SOL    HW1 8276   1.948   0.015   0.454 -0.5668 -1.9842  0.6422
 2459SOL    HW2 8277   1.925   0.037   0.294  0.4383 -0.4844  0.6807
 2460SOL     OW 8278   1.615   6.291   0.983 -0.0346  0.0493  0.1727
 2460SOL    HW1 8279   1.705   6.307   1.023 -0.0510  0.4529  0.0572
 2460SOL    HW2 8280   1.582   6.200   1.009  0.2197  0.0687  0.5706
 2461SOL     OW 8281   5.133   2.922   5.381  0.0833 -0.0152  0.1430
 2461SOL    HW1 8282   5.218   2.930   5.329  0.8443 -0.2634  1.3235
 2461SOL    HW2 8283   5.154   2.904   5.477 -1.3098 -0.2244  0.4262
 2462SOL     OW 8284   2.994   3.655   1.943  0.1493  0.7530  0.5144
 2462SOL    HW1 8285   3.004   3.755   1.944  0.6816  0.7008  0.7958
 2462SOL    HW2 8286   3.011   3.619   2.035 -0.3452  0.4324  0.4802
 2463SOL     OW 8287   3.479   5.955   1.600 -0.1642 -0.0320 -1.4100
 2463SOL    HW1 8288   3.516   6.047   1.583  0.0603 -0.0327 -0.9239
 2463SOL    HW2 8289   3.414   5.932   1.528 -1.3342  1.0978 -0.7499
 2464SOL     OW 8290   4.128   3.654   2.478 -0.1069  0.1131 -0.5623
 2464SOL    HW1 8291   4.099   3.728   2.418  0.6964 -0.0285 -1.1231
 2464SOL    HW2 8292   4.156   3.692   2.567  1.9426  0.6878 -1.4058
 2465SOL     OW 8293   2.915   4.837   3.336 -0.4972  0.0696  0.3023
 2465SOL    HW1 8294   2.872   4.753   3.304 -2.0170  0.1982  1.8706
 2465SOL    HW2 8295   2.913   4.840   3.436  0.1696  1.6490  0.3004
 2466SOL     OW 8296   6.179   2.449   0.963 -0.3289 -0.5548  0.5625
 2466SOL    HW1 8297   6.239   2.502   1.023  0.8815 -2.1014  0.7791
 2466SOL    HW2 8298   6.130   2.381   1.018 -2.2001  0.5627  0.3629
 2467SOL     OW 8299   3.024   3.916   2.970 -0.0048 -0.2309  0.1526
 2467SOL    HW1 8300   3.007   3.829   2.925 -0.4507  0.2623 -0.6639
 2467SOL    HW2 8301   3.029   3.903   3.069 -0.5979 -1.0917  0.0725
 2468SOL     OW 8302   5.336   0.607   3.618  0.2555  0.1723  0.2469
 2468SOL    HW1 8303   5.351   0.532   3.554  1.2559 -0.5399  1.2782
 2468SOL    HW2 8304   5.307   0.571   3.707  0.6615  0.9941  0.7306
 2469SOL     OW 8305   5.203   3.400   3.279 -0.2077 -0.0055  0.2946
 2469SOL    HW1 8306   5.137   3.473   3.263  1.9690  1.7440 -1.3854
 2469SOL    HW2 8307   5.266   3.395   3.202  2.7366 -0.3117  2.5361
 2470SOL     OW 8308   4.950   5.019   6.521 -0.4802 -0.0153 -0.1591
 2470SOL    HW1 8309   4.965   4.921   6.509 -0.0876  0.0376 -0.1258
 2470SOL    HW2 8310   4.857   5.035   6.554 -0.4502 -0.3982  0.1163
 2471SOL     OW 8311   4.000   3.352   4.670  0.2198 -0.3290 -0.7990
 2471SOL    HW1 8312   4.028   3.447   4.682 -2.2845  0.3100  0.8877
 2471SOL    HW2 8313   4.067   3.291   4.711  1.1263  0.7978 -0.5755
 2472SOL     OW 8314   2.305   5.475   2.409  0.4657 -0.1969  0.2026
 2472SOL    HW1 8315   2.287   5.563   2.455 -0.4737 -0.4191  0.2966
 2472SOL    HW2 8316   2.352   5.414   2.472 -1.4063 -0.7351  1.1674
 2473SOL     OW 8317   5.622   6.356   2.249  0.6642  0.0072  0.0085
 2473SOL    HW1 8318   5.674   6.399   2.175  0.4626  0.2436  0.0021
 2473SOL    HW2 8319   5.685   6.307   2.310  1.1839  2.0736  1.2281
 2474SOL     OW 8320   6.182   3.051   1.860 -0.0220 -0.1148 -0.2675
 2474SOL    HW1 8321   6.159   3.078   1.954 -1.1284 -0.5266 -0.3987
 2474SOL    HW2 8322   6.264   3.099   1.830  0.2686  0.1167  0.8686
 2475SOL     OW 8323   3.706   6.860   5.389 -1.1266 -1.0401  0.0281
 2475SOL    HW1 8324   3.718   6.806   5.307 -1.7330 -1.1708  0.0227
 2475SOL    HW2 8325   3.686   6.800   5.467  1.8473 -1.1582  0.8049
 2476SOL     OW 8326   0.928   2.908   0.635  0.5447 -0.3907  0.3341
 2476SOL    HW1 8327   0.931   2.966   0.554  0.6209  0.8072  1.1660
 2476SOL    HW2 8328   0.992   2.943   0.703  3.4214 -3.5724 -0.4606
 2477SOL     OW 8329   5.643   2.562   3.292 -0.3863  0.0907  0.1839
 2477SOL    HW1 8330   5.610   2.605   3.208 -0.6379 -1.4410 -0.5237
 2477SOL    HW2 8331   5.737   2.531   3.278 -0.5353 -0.4458  0.3538
 2478SOL     OW 8332   5.994   3.006   6.568 -0.0585 -0.1785 -0.6666
 2478SOL    HW1 8333   5.933   2.928   6.554 -0.3629 -0.3129  1.1318
 2478SOL    HW2 8334   6.014   3.049   6.480 -0.7355 -1.6336 -1.5712
 2479SOL     OW 8335   5.618   3.809   3.731 -0.0421 -0.8330  0.3336
 2479SOL    HW1 8336   5.521   3.830   3.743 -0.1055 -0.9353  0.0079
 2479SOL    HW2 8337   5.671   3.860   3.799  0.0145  2.1099 -1.7357
 2480SOL     OW 8338   3.926   6.564   4.144 -0.4667  0.0747 -0.2216
 2480SOL    HW1 8339   3.855   6.550   4.075  0.5404  0.5052 -1.3914
 2480SOL    HW2 8340   3.960   6.475   4.175 -0.1088 -0.1373 -1.1849
 2481SOL     OW 8341   3.905   0.761   1.802  1.0232 -0.3617 -0.5541
 2481SOL    HW1 8342   3.904   0.861   1.814  0.1654 -0.3352 -0.7244
 2481SOL    HW2 8343   3.964   0.737   1.725  0.0536  0.1506 -1.4811
 2482SOL     OW 8344   1.950   3.703   5.175 -0.3146  0.2083  0.7735
 2482SOL    HW1 8345   1.919   3.692   5.269  1.0052  0.4360  1.2503
 2482SOL    HW2 8346   2.027   3.766   5.172  0.7183 -1.0564 -0.2372
 2483SOL     OW 8347   4.740   3.112   6.965 -0.1148 -0.6281  0.0352
 2483SOL    HW1 8348   4.780   3.021   6.974 -0.8073 -0.9487 -0.0359
 2483SOL    HW2 8349   4.654   3.106   6.916 -0.0406  0.1078 -0.2000
 2484SOL     OW 8350   1.318   2.920   5.519  0.0911 -0.2726 -0.1694
 2484SOL    HW1 8351   1.349   2.949   5.429 -0.0948 -1.9447 -0.8088
 2484SOL    HW2 8352   1.220   2.903   5.517  0.2203 -1.1084  0.1147
 2485SOL     OW 8353   4.530   3.831   0.229 -0.0844 -0.2823  0.1592
 2485SOL    HW1 8354   4.481   3.800   0.310  0.0078 -1.1568 -0.1117
 2485SOL    HW2 8355   4.503   3.775   0.150  2.7411 -2.1553  0.3510
 2486SOL     OW 8356   1.085   5.477   2.562  0.5533  0.1617  0.1881
 2486SOL    HW1 8357   1.072   5.377   2.561  0.7138  0.0898  1.7297
 2486SOL    HW2 8358   1.183   5.498   2.560  0.5297  0.2704  0.1709
 2487SOL     OW 8359   4.051   6.741   5.478  0.3462  0.4168 -0.3348
 2487SOL    HW1 8360   4.125   6.738   5.411  0.1853  0.6206 -0.5223
 2487SOL    HW2 8361   4.075   6.805   5.552  1.7274 -1.7788  1.2436
 2488SOL     OW 8362   4.466   4.895   4.002 -1.1075  0.2128  0.3638
 2488SOL    HW1 8363   4.437   4.799   4.013  1.9845 -0.7467  1.2668
 2488SOL    HW2 8364   4.466   4.939   4.092  0.9082 -0.1066  0.5611
 2489SOL     OW 8365   1.619   4.013   3.421  0.6076  0.2222  0.5309
 2489SOL    HW1 8366   1.654   4.041   3.331 -1.0272 -4.8120 -2.0436
 2489SOL    HW2 8367   1.526   4.048   3.434  1.0969  1.5376  0.6977
 2490SOL     OW 8368   5.175   3.367   4.854 -0.0938  0.4239  0.0901
 2490SOL    HW1 8369   5.201   3.464   4.855 -1.6778  0.8873  1.8463
 2490SOL    HW2 8370   5.258   3.311   4.854  0.8584  1.7744 -0.3680
 2491SOL     OW 8371   2.509   4.477   6.801 -0.0267 -0.1608  0.5395
 2491SOL    HW1 8372   2.582   4.545   6.790 -0.6872  0.8950  2.2236
 2491SOL    HW2 8373   2.543   4.400   6.856 -0.0728  0.1894  1.0705
 2492SOL     OW 8374   5.910   6.819   5.192  0.2265 -0.0123  0.2022
 2492SOL    HW1 8375   5.882   6.741   5.136  0.2683  0.7941 -0.9916
 2492SOL    HW2 8376   5.868   6.902   5.155  2.3220  0.9096 -0.2205
 2493SOL     OW 8377   1.929   3.032   6.583 -0.1002 -0.0496  0.3437
 2493SOL    HW1 8378   1.973   3.074   6.503 -1.4893  0.9416  0.0684
 2493SOL    HW2 8379   1.973   2.944   6.602  0.9917  0.2083 -0.8174
 2494SOL     OW 8380   1.921   1.012   2.686  0.5385  0.1564 -0.2524
 2494SOL    HW1 8381   1.915   1.092   2.628  3.6298  0.9529  0.3540
 2494SOL    HW2 8382   1.988   0.948   2.648 -1.9033 -2.2655 -0.7703
 2495SOL     OW 8383   6.357   4.600   5.357 -0.2097  0.4949 -0.0855
 2495SOL    HW1 8384   6.326   4.680   5.307 -1.1137 -0.1158 -0.5329
 2495SOL    HW2 8385   6.417   4.545   5.298 -1.5997 -0.4370 -0.7014
 2496SOL     OW 8386   5.261   1.503   1.107  0.7987 -0.3199 -0.0904
 2496SOL    HW1 8387   5.162   1.511   1.092  1.0124  1.5414 -0.7906
 2496SOL    HW2 8388   5.287   1.556   1.188  1.2873 -0.3185 -0.2464
 2497SOL     OW 8389   6.512   5.794   6.096 -0.6083  0.2883  0.1917
 2497SOL    HW1 8390   6.527   5.886   6.132 -1.0063  0.2160  0.5583
 2497SOL    HW2 8391   6.423   5.761   6.127  0.0654 -0.7163  1.1318
 2498SOL     OW 8392   1.696   0.717   2.594 -0.3651 -0.2994 -0.3965
 2498SOL    HW1 8393   1.776   0.678   2.549  0.7302  0.1778  1.0486
 2498SOL    HW2 8394   1.691   0.815   2.574 -0.3730 -0.2585 -0.1992
 2499SOL     OW 8395   1.170   2.293   4.166  0.0342  0.2325  0.2732
 2499SOL    HW1 8396   1.119   2.207   4.176 -0.7763  0.6923  0.1946
 2499SOL    HW2 8397   1.177   2.317   4.069  0.4157  0.1654  0.2825
 2500SOL     OW 8398   2.580   0.417   0.077  0.4862 -0.4880 -0.0993
 2500SOL    HW1 8399   2.626   0.334   0.110  1.4101  0.3211  0.6976
 2500SOL    HW2 8400   2.629   0.453  -0.002 -0.1187 -0.8869 -0.6619
 2501SOL     OW 8401   2.404   5.876   4.796 -0.3045 -0.1037 -0.2710
 2501SOL    HW1 8402   2.372   5.881   4.701 -1.3268  1.9615  0.1164
 2501SOL    HW2 8403   2.337   5.829   4.851 -1.4678  1.7828  0.0209
 2502SOL     OW 8404   3.924   3.856   6.285  0.5115  0.3779 -0.7374
 2502SOL    HW1 8405   3.922   3.923   6.211  0.7187  0.0144 -1.0714
 2502SOL    HW2 8406   3.889   3.768   6.253  0.1461  0.3477 -0.2722
 2503SOL     OW 8407   1.039   6.659   6.057  0.3119  0.4179  0.3288
 2503SOL    HW1 8408   1.107   6.603   6.010 -0.0923  0.2366 -0.0453
 2503SOL    HW2 8409   0.948   6.642   6.017 -0.0375  0.2631  1.1678
 2504SOL     OW 8410   2.409   6.071   1.545 -0.7438  0.3974 -0.3936
 2504SOL    HW1 8411   2.425   6.067   1.447  0.3572  1.0016 -0.2548
 2504SOL    HW2 8412   2.490   6.041   1.594 -1.5542 -0.6703  0.3516
 2505SOL     OW 8413   4.936   1.489   3.271  0.3864 -0.2118 -0.1457
 2505SOL    HW1 8414   4.852   1.527   3.309 -0.3383 -0.2499 -1.6511
 2505SOL    HW2 8415   4.993   1.563   3.235  1.9362  0.0240  2.5429
 2506SOL     OW 8416   3.146   1.940   5.839 -0.1093 -0.1808  0.3271
 2506SOL    HW1 8417   3.203   1.984   5.907  0.0534  0.2146 -0.0610
 2506SOL    HW2 8418   3.061   1.909   5.882  0.1060 -0.1763  0.7626
 2507SOL     OW 8419   5.411   2.879   5.342 -0.1088  0.1364  0.0718
 2507SOL    HW1 8420   5.501   2.841   5.321 -0.7060 -0.7538 -0.9593
 2507SOL    HW2 8421   5.421   2.956   5.405  1.3820  0.1843 -0.1988
 2508SOL     OW 8422   4.259   6.611   0.545  0.6669 -0.0748 -0.0101
 2508SOL    HW1 8423   4.327   6.680   0.571 -0.1853  0.0336  2.1928
 2508SOL    HW2 8424   4.170   6.637   0.584  0.0407 -1.7456 -0.2593
 2509SOL     OW 8425   5.118   5.172   0.329 -0.0337 -0.4328  0.4280
 2509SOL    HW1 8426   5.035   5.216   0.363 -0.8576  0.1194 -2.0815
 2509SOL    HW2 8427   5.193   5.188   0.392 -1.0418  1.9912  1.1093
 2510SOL     OW 8428   3.635   0.959   0.912  0.2240  0.1396  0.2735
 2510SOL    HW1 8429   3.624   1.031   0.981  1.8546 -0.3514  1.0852
 2510SOL    HW2 8430   3.581   0.879   0.939 -1.4111  0.9198 -0.5160
 2511SOL     OW 8431   2.210   6.701   3.489 -0.4156 -0.4495  0.4868
 2511SOL    HW1 8432   2.253   6.611   3.497  1.2533  0.2470  0.0157
 2511SOL    HW2 8433   2.279   6.771   3.507 -1.3548  0.7467 -0.4483
 2512SOL     OW 8434   1.282   0.191   6.566 -0.2871  0.0970 -0.2769
 2512SOL    HW1 8435   1.239   0.255   6.630  0.6132  2.2804 -1.7049
 2512SOL    HW2 8436   1.380   0.186   6.584 -0.4249 -1.4166  0.1933
 2513SOL     OW 8437   6.584   6.020   2.822  0.5568 -0.2178 -0.5619
 2513SOL    HW1 8438   6.531   6.105   2.830  1.8703  0.7851 -2.0451
 2513SOL    HW2 8439   6.521   5.942   2.814 -0.7187  0.8741 -1.7272
 2514SOL     OW 8440   4.398   5.080   2.017  0.7103  0.0072 -0.2210
 2514SOL    HW1 8441   4.426   4.984   2.011  1.3854  0.1831  0.0197
 2514SOL    HW2 8442   4.390   5.118   1.925 -1.2434 -0.7365 -0.4137
 2515SOL     OW 8443   1.219   0.284   1.216 -0.3443  0.3960 -0.3076
 2515SOL    HW1 8444   1.157   0.251   1.145  0.0548 -0.1933 -0.3857
 2515SOL    HW2 8445   1.192   0.245   1.304  1.3190 -1.8418 -0.6895
 2516SOL     OW 8446   2.832   6.579   3.833 -0.2061  0.2618 -0.0154
 2516SOL    HW1 8447   2.892   6.637   3.888 -0.0515  3.4122 -3.1699
 2516SOL    HW2 8448   2.886   6.522   3.772 -0.4409 -0.3631  0.3411
 2517SOL     OW 8449   3.468   1.182   4.642 -0.6613 -0.3512 -0.2587
 2517SOL    HW1 8450   3.378   1.226   4.635  0.8933  2.9626 -1.5483
 2517SOL    HW2 8451   3.500   1.158   4.550  0.0642 -0.9298  0.1325
 2518SOL     OW 8452   5.489   2.575   6.000 -0.7259  0.2001 -0.5056
 2518SOL    HW1 8453   5.562   2.525   6.047 -0.3335  0.3718 -0.9298
 2518SOL    HW2 8454   5.430   2.510   5.952 -0.5584  0.1004 -0.5775
 2519SOL     OW 8455   1.466   4.555   0.541  0.0702 -0.3800 -0.1170
 2519SOL    HW1 8456   1.503   4.462   0.546  0.2179 -0.3593 -0.8044
 2519SOL    HW2 8457   1.374   4.555   0.580 -0.5681 -1.1673 -1.5395
 2520SOL     OW 8458   5.980   4.239   3.463  0.0502  0.0249  0.5598
 2520SOL    HW1 8459   5.997   4.179   3.385 -0.9238  1.0991 -0.5174
 2520SOL    HW2 8460   6.003   4.333   3.439 -0.2822  0.3718  1.5577
 2521SOL     OW 8461   5.881   5.075   5.342  0.5402 -0.3488 -0.4107
 2521SOL    HW1 8462   5.971   5.090   5.300  0.0789  0.9025 -1.0184
 2521SOL    HW2 8463   5.893   5.045   5.437  1.6181  1.0497 -0.0703
 2522SOL     OW 8464   3.097   2.455   6.348 -0.3014 -0.3839 -0.2444
 2522SOL    HW1 8465   3.135   2.372   6.390  0.4563  0.1935  0.2244
 2522SOL    HW2 8466   3.170   2.509   6.307 -1.0982 -1.3803 -3.2234
 2523SOL     OW 8467   2.596   0.891   2.451  0.3482 -0.5092  0.2168
 2523SOL    HW1 8468   2.558   0.961   2.513 -1.1087 -0.7557 -0.3690
 2523SOL    HW2 8469   2.691   0.914   2.430 -0.6015  2.4208 -1.4825
 2524SOL     OW 8470   6.291   1.375   6.016  0.3848 -0.3725 -0.3390
 2524SOL    HW1 8471   6.348   1.451   5.983  1.7838 -1.1050  0.2917
 2524SOL    HW2 8472   6.203   1.411   6.048  1.0187  1.0031 -0.0487
 2525SOL     OW 8473   4.599   1.312   0.665  0.3189  0.2906  0.3533
 2525SOL    HW1 8474   4.633   1.334   0.757  1.7907  1.5761 -0.4672
 2525SOL    HW2 8475   4.664   1.251   0.620 -0.8019 -0.9993  0.4192
 2526SOL     OW 8476   1.136   2.592   4.774 -0.4546 -0.7222 -0.2897
 2526SOL    HW1 8477   1.192   2.620   4.852 -1.0561  1.1044 -0.4777
 2526SOL    HW2 8478   1.070   2.523   4.804  0.7870 -1.7022  0.2828
 2527SOL     OW 8479   2.819   4.561   5.591 -0.2892  0.2278 -0.4615
 2527SOL    HW1 8480   2.733   4.593   5.552 -0.3827 -0.0089 -0.4509
 2527SOL    HW2 8481   2.827   4.462   5.579  1.3239  0.5835 -3.1212
 2528SOL     OW 8482   0.700   4.852   5.213  0.5213  1.0467  0.1949
 2528SOL    HW1 8483   0.624   4.910   5.183 -0.6671  0.6088  2.1504
 2528SOL    HW2 8484   0.726   4.879   5.306  2.9050  1.2901 -0.4928
 2529SOL     OW 8485   5.374   0.682   2.151  0.2161  0.2160  0.3982
 2529SOL    HW1 8486   5.447   0.734   2.107 -0.2737  0.2826 -0.3434
 2529SOL    HW2 8487   5.402   0.587   2.162 -0.0234 -0.0252 -0.9494
 2530SOL     OW 8488   2.801   0.115   1.300  1.0521  0.7432 -0.4846
 2530SOL    HW1 8489   2.725   0.052   1.310 -0.7069  2.6711 -0.9385
 2530SOL    HW2 8490   2.824   0.154   1.390  0.3680  1.3699 -0.5700
 2531SOL     OW 8491   3.748   3.625   0.308 -0.2081 -0.0203 -0.2178
 2531SOL    HW1 8492   3.663   3.668   0.277 -0.8248 -1.5412 -0.7453
 2531SOL    HW2 8493   3.749   3.529   0.279  1.2635 -0.2852  0.6163
 2532SOL     OW 8494   5.929   2.181   0.717 -0.1167  0.0606  0.1582
 2532SOL    HW1 8495   5.928   2.104   0.780 -1.6114  1.2930  1.7586
 2532SOL    HW2 8496   5.846   2.180   0.661  0.0235  0.2950 -0.0582
 2533SOL     OW 8497   5.111   5.007   0.622 -0.5637 -0.2223  0.4398
 2533SOL    HW1 8498   5.089   5.000   0.719  1.1056  1.0059  0.9686
 2533SOL    HW2 8499   5.115   5.104   0.596  3.2882 -0.2423  0.3390
 2534SOL     OW 8500   5.215   3.122   6.894 -0.2577  0.1261  0.2581
 2534SOL    HW1 8501   5.192   3.218   6.909 -0.3075  0.3798 -1.2840
 2534SOL    HW2 8502   5.301   3.116   6.842  1.0761 -0.7381  2.4447
 2535SOL     OW 8503   5.563   0.967   2.815 -0.4981 -0.6816 -0.0038
 2535SOL    HW1 8504   5.528   1.045   2.764 -1.1306 -0.1062  1.2756
 2535SOL    HW2 8505   5.598   0.898   2.750 -0.9002  0.1856 -1.1809
 2536SOL     OW 8506   2.930   6.912   1.635 -0.9119 -0.1558 -0.2793
 2536SOL    HW1 8507   3.008   6.950   1.585 -0.4700 -1.7819 -0.8893
 2536SOL    HW2 8508   2.888   6.839   1.580 -2.3948  0.1728  0.3726
 2537SOL     OW 8509   5.513   1.517   3.321 -0.6024 -0.0667 -0.2655
 2537SOL    HW1 8510   5.489   1.448   3.389 -1.0030  1.4579  1.2035
 2537SOL    HW2 8511   5.476   1.606   3.349  1.7870  1.2135 -0.9071
 2538SOL     OW 8512   1.602   2.384   5.185 -0.3216 -0.1254  0.0126
 2538SOL    HW1 8513   1.509   2.415   5.205 -0.1008  0.1948  0.5881
 2538SOL    HW2 8514   1.625   2.404   5.090  0.0661  2.2096  0.5197
 2539SOL     OW 8515   6.499   5.019   3.166  0.5327 -0.5810 -0.0095
 2539SOL    HW1 8516   6.489   4.932   3.213  1.4549 -1.4038 -1.2938
 2539SOL    HW2 8517   6.423   5.032   3.103 -0.3690  0.2357  1.1955
 2540SOL     OW 8518   2.334   1.016   2.959  0.4194  0.1294 -0.2908
 2540SOL    HW1 8519   2.254   1.073   2.974 -0.1654 -0.5495 -0.7526
 2540SOL    HW2 8520   2.323   0.929   3.007  1.7312  0.7345  1.2233
 2541SOL     OW 8521   0.337   1.136   1.993 -0.4475 -0.2936  0.0153
 2541SOL    HW1 8522   0.371   1.230   1.998  2.4261 -1.2952  1.4811
 2541SOL    HW2 8523   0.268   1.121   2.063 -0.6786  0.6134 -0.0108
 2542SOL     OW 8524   0.566   4.294   0.924 -0.2179  0.1022 -0.1068
 2542SOL    HW1 8525   0.596   4.247   1.007  0.5859  1.0880  0.1885
 2542SOL    HW2 8526   0.639   4.353   0.891  0.7704 -2.6899 -3.4489
 2543SOL     OW 8527   3.544   2.917   4.780  0.7550  0.1607 -0.3102
 2543SOL    HW1 8528   3.543   3.003   4.729  0.1870  0.2973 -0.0709
 2543SOL    HW2 8529   3.630   2.869   4.762  1.3503  1.0658  0.0323
 2544SOL     OW 8530   3.410   6.052   5.533  0.0432  0.1673 -0.5829
 2544SOL    HW1 8531   3.381   6.132   5.586 -1.6121 -0.1952 -0.8861
 2544SOL    HW2 8532   3.353   6.044   5.452  1.0830 -0.5716 -1.2613
 2545SOL     OW 8533   0.081   0.766   2.431 -0.3915 -0.2780 -1.5943
 2545SOL    HW1 8534  -0.001   0.822   2.418 -0.1983  0.1361 -1.0533
 2545SOL    HW2 8535   0.055   0.669   2.428 -1.5256 -0.2261  1.9481
 2546SOL     OW 8536   3.277   3.222   1.301  0.0313 -0.6141 -0.2274
 2546SOL    HW1 8537   3.205   3.196   1.236 -0.1059 -0.6298 -0.0699
 2546SOL    HW2 8538   3.341   3.146   1.312  0.9328 -0.0700 -1.5251
 2547SOL     OW 8539   4.113   3.469   3.649 -0.1698 -0.5622 -0.1542
 2547SOL    HW1 8540   4.152   3.560   3.632  2.7041 -1.0802  2.6313
 2547SOL    HW2 8541   4.096   3.424   3.561  1.0262  1.5882 -1.6059
 2548SOL     OW 8542   6.447   2.267   5.358  0.1149 -0.0155 -0.3314
 2548SOL    HW1 8543   6.370   2.224   5.310  0.8607 -1.9597  0.1289
 2548SOL    HW2 8544   6.527   2.267   5.299  0.2906  0.1467 -0.0940
 2549SOL     OW 8545   1.131   6.510   5.680  0.2970 -0.1966 -0.1255
 2549SOL    HW1 8546   1.172   6.484   5.593  0.2652 -0.5712 -0.0299
 2549SOL    HW2 8547   1.155   6.605   5.701  1.7700 -0.6309  0.3089
 2550SOL     OW 8548   0.099   2.408   6.770 -0.2736 -0.6228  0.3532
 2550SOL    HW1 8549   0.165   2.431   6.697  0.0766 -0.6288  0.6638
 2550SOL    HW2 8550   0.017   2.369   6.729  0.3245 -1.5817  0.0263
 2551SOL     OW 8551   5.077   2.724   1.389 -0.4389 -0.3266  0.0934
 2551SOL    HW1 8552   5.049   2.628   1.381  0.8844 -0.6044 -2.9899
 2551SOL    HW2 8553   5.103   2.743   1.483 -0.6283 -3.0415  0.7979
 2552SOL     OW 8554   4.229   2.407   0.739  0.8458  0.7278  0.0216
 2552SOL    HW1 8555   4.190   2.498   0.753  0.3209  0.3082  1.5206
 2552SOL    HW2 8556   4.169   2.339   0.780  2.1018 -0.1207  0.5169
 2553SOL     OW 8557   3.847   2.936   1.123  0.0478 -0.1102 -0.3680
 2553SOL    HW1 8558   3.896   3.023   1.117 -0.7070  0.2695 -1.2875
 2553SOL    HW2 8559   3.913   2.862   1.137  1.0224  0.2827 -2.4855
 2554SOL     OW 8560   5.354   3.273   0.591  0.1415  0.4012  0.2877
 2554SOL    HW1 8561   5.396   3.189   0.626  0.8355 -0.8150 -3.1166
 2554SOL    HW2 8562   5.255   3.267   0.602  0.1935 -0.7920  0.2078
 2555SOL     OW 8563   2.132   1.222   5.563  0.1654 -0.1391  0.6767
 2555SOL    HW1 8564   2.059   1.277   5.522 -0.1932  0.3983  1.9985
 2555SOL    HW2 8565   2.205   1.209   5.496 -0.5333  0.4391 -0.2309
 2556SOL     OW 8566   1.487   2.692   1.632  0.0345 -0.0535  0.6164
 2556SOL    HW1 8567   1.400   2.645   1.616  0.2222  0.7025 -3.9251
 2556SOL    HW2 8568   1.470   2.789   1.649 -0.0073  0.0504 -0.0242
 2557SOL     OW 8569   0.753   5.998   1.142 -0.5689 -0.1451 -0.2547
 2557SOL    HW1 8570   0.786   5.914   1.101 -2.3679 -0.6958 -0.6617
 2557SOL    HW2 8571   0.661   6.018   1.109 -1.3736  0.3880  2.0735
 2558SOL     OW 8572   2.984   4.797   0.302  0.3411  0.0015  0.2438
 2558SOL    HW1 8573   3.083   4.808   0.301  0.0652  3.4495 -1.3092
 2558SOL    HW2 8574   2.954   4.754   0.217  0.4324 -0.6972  0.5546
 2559SOL     OW 8575   3.028   6.870   5.995 -0.5853  0.4837  0.4085
 2559SOL    HW1 8576   3.076   6.816   5.927 -0.8938 -1.3434  1.5620
 2559SOL    HW2 8577   2.939   6.829   6.013 -0.9265  1.5208  1.1520
 2560SOL     OW 8578   5.719   3.903   5.893  0.0809  0.3771  0.4494
 2560SOL    HW1 8579   5.769   3.824   5.858  0.4207  1.0289 -0.5764
 2560SOL    HW2 8580   5.645   3.871   5.953 -1.3079 -0.8960 -1.7958
 2561SOL     OW 8581   2.432   0.060   0.413  0.1355  0.0446 -0.2477
 2561SOL    HW1 8582   2.428   0.008   0.498 -0.3084  0.6471  0.1013
 2561SOL    HW2 8583   2.418  -0.002   0.335  0.5984 -0.5124  0.1057
 2562SOL     OW 8584   6.790   1.498   3.817  0.2290 -0.1446 -0.0221
 2562SOL    HW1 8585   6.820   1.572   3.756  1.0700  0.1987  0.7866
 2562SOL    HW2 8586   6.859   1.426   3.818 -0.1041 -0.4612 -0.0094
 2563SOL     OW 8587   5.359   1.467   2.231 -0.5815  0.2536 -0.2469
 2563SOL    HW1 8588   5.262   1.484   2.246 -0.2534  0.7971  1.5737
 2563SOL    HW2 8589   5.413   1.535   2.282  0.7544 -0.5679 -0.5080
 2564SOL     OW 8590   2.566   6.434   5.553 -0.2187  0.3666  0.1726
 2564SOL    HW1 8591   2.545   6.401   5.461 -1.1198  1.0895  0.1002
 2564SOL    HW2 8592   2.574   6.533   5.552 -1.2582  0.4844  1.0446
 2565SOL     OW 8593   1.230   1.727   4.140  0.1801  0.1200  0.4445
 2565SOL    HW1 8594   1.273   1.795   4.199  2.0479  0.3689 -1.1105
 2565SOL    HW2 8595   1.173   1.667   4.196  1.4218  0.6606  2.4229
 2566SOL     OW 8596   5.297   4.980   1.743 -0.5873 -0.3280 -0.4639
 2566SOL    HW1 8597   5.395   4.974   1.765  0.0960  2.4377 -2.2810
 2566SOL    HW2 8598   5.279   4.932   1.658 -0.7943 -0.6128 -0.2633
 2567SOL     OW 8599   7.003   0.436   0.414  0.5258 -0.0675  0.1814
 2567SOL    HW1 8600   7.040   0.344   0.401  1.0617 -0.0010  1.1449
 2567SOL    HW2 8601   7.077   0.501   0.429  0.1983  0.6815 -1.2506
 2568SOL     OW 8602   1.494   0.245   1.192  0.0182 -1.0344 -0.1388
 2568SOL    HW1 8603   1.399   0.278   1.193  0.9483  1.9214 -0.7951
 2568SOL    HW2 8604   1.517   0.210   1.283 -1.6983 -1.9982 -0.0097
 2569SOL     OW 8605   3.241   4.079   3.706 -0.6042  0.0367  0.2409
 2569SOL    HW1 8606   3.226   3.983   3.729  2.1433 -0.0372  2.1298
 2569SOL    HW2 8607   3.233   4.135   3.788  0.5798  1.0389 -0.2951
 2570SOL     OW 8608   1.979   6.529   4.378  0.3063  0.6308  0.1321
 2570SOL    HW1 8609   1.997   6.436   4.345  1.1018  0.3159  1.3905
 2570SOL    HW2 8610   2.057   6.561   4.432 -0.7740  1.2586  1.3893
 2571SOL     OW 8611   1.852   2.989   2.164  0.5636  0.1495 -0.0453
 2571SOL    HW1 8612   1.816   2.969   2.073  0.7277 -0.3783  0.0011
 2571SOL    HW2 8613   1.880   2.903   2.208  0.0434  0.3441  0.6878
 2572SOL     OW 8614   5.713   5.145   5.132  0.4813 -0.7167 -0.4954
 2572SOL    HW1 8615   5.771   5.110   5.206  0.4644 -2.8449 -1.4198
 2572SOL    HW2 8616   5.633   5.190   5.171 -0.1878 -2.9130  0.8387
 2573SOL     OW 8617   2.982   0.758   0.964 -0.1776  0.4637  0.0870
 2573SOL    HW1 8618   2.907   0.767   1.030 -1.0327 -1.1117 -0.6090
 2573SOL    HW2 8619   3.014   0.849   0.937 -0.2910  1.1525  2.0962
 2574SOL     OW 8620   6.430   0.050   2.293 -0.0404 -0.1747 -0.1175
 2574SOL    HW1 8621   6.488  -0.011   2.346  0.8623  0.4749 -0.3323
 2574SOL    HW2 8622   6.354   0.083   2.350  1.1494  0.8571  0.9056
 2575SOL     OW 8623   3.954   2.412   6.116  0.4379 -0.4983 -0.5869
 2575SOL    HW1 8624   3.972   2.350   6.192  0.2055 -2.6210 -2.1538
 2575SOL    HW2 8625   4.039   2.432   6.068  0.4537  0.1123 -0.3144
 2576SOL     OW 8626   3.667   0.838   3.733 -0.5397  0.4900  0.4384
 2576SOL    HW1 8627   3.607   0.768   3.771 -1.7455  1.1716 -0.1581
 2576SOL    HW2 8628   3.615   0.921   3.714  0.9094  1.6819  1.3890
 2577SOL     OW 8629   2.630   0.628   3.442 -0.2287  0.0732 -0.0868
 2577SOL    HW1 8630   2.641   0.727   3.453  0.9558 -0.1515  0.9974
 2577SOL    HW2 8631   2.715   0.590   3.404 -0.9395 -0.4442 -1.1954
 2578SOL     OW 8632   2.927   0.374   3.616  0.2027 -0.4460  0.3422
 2578SOL    HW1 8633   2.906   0.409   3.525  1.2423 -1.1942 -0.1988
 2578SOL    HW2 8634   2.870   0.294   3.634  1.0524 -1.1986 -0.2660
 2579SOL     OW 8635   2.570   6.125   0.612 -0.7070 -0.9000  0.1574
 2579SOL    HW1 8636   2.533   6.162   0.698 -1.6281  0.5488 -0.8296
 2579SOL    HW2 8637   2.646   6.183   0.582 -1.9055  0.0128 -1.2036
 2580SOL     OW 8638   2.875   6.168   2.907 -0.1538  0.3804  0.0293
 2580SOL    HW1 8639   2.799   6.161   2.972  0.4866 -0.4389  0.7136
 2580SOL    HW2 8640   2.942   6.235   2.941  0.6401 -0.7289  0.7234
 2581SOL     OW 8641   5.097   0.925   6.977 -0.2279 -0.4591 -0.7448
 2581SOL    HW1 8642   5.186   0.953   7.013  0.6095 -2.1981 -1.3369
 2581SOL    HW2 8643   5.104   0.909   6.879 -1.7338  1.3247 -1.1951
 2582SOL     OW 8644   0.444   3.822   4.028  0.0586  0.3683 -0.6076
 2582SOL    HW1 8645   0.374   3.892   4.008 -1.4616 -0.1365  2.4508
 2582SOL    HW2 8646   0.532   3.853   3.994 -1.0005  2.6888 -1.4471
 2583SOL     OW 8647   6.203   1.552   3.539  0.2302 -0.1638  0.5093
 2583SOL    HW1 8648   6.294   1.574   3.575  0.9783 -1.1306 -0.7026
 2583SOL    HW2 8649   6.148   1.635   3.535  0.7214  0.2878  2.1088
 2584SOL     OW 8650   6.510   0.503   3.968 -0.3309 -0.0720 -0.0567
 2584SOL    HW1 8651   6.517   0.486   3.870  0.2749  0.0868 -0.0460
 2584SOL    HW2 8652   6.563   0.585   3.992 -0.7336  0.0740  0.3547
 2585SOL     OW 8653   1.418   6.406   6.460 -0.1831  0.2336 -0.0331
 2585SOL    HW1 8654   1.360   6.408   6.541 -3.4797 -1.9681 -2.0973
 2585SOL    HW2 8655   1.367   6.367   6.383  4.1998 -2.5654 -1.9612
 2586SOL     OW 8656   5.707   2.662   3.599 -0.0535  0.2552  0.0280
 2586SOL    HW1 8657   5.710   2.663   3.499 -1.8153 -0.2477 -0.0540
 2586SOL    HW2 8658   5.734   2.572   3.632  0.6852  0.4696  0.0254
 2587SOL     OW 8659   6.580   3.305   1.450  1.0209 -0.6672  0.5433
 2587SOL    HW1 8660   6.605   3.211   1.428 -0.2935 -0.9338  0.1041
 2587SOL    HW2 8661   6.583   3.360   1.366 -0.7878 -0.9342  0.2764
 2588SOL     OW 8662   4.967   2.139   5.811  0.1516  0.1833  0.4331
 2588SOL    HW1 8663   4.955   2.085   5.894 -0.5622  0.1037  0.2843
 2588SOL    HW2 8664   4.919   2.095   5.735  1.5888 -0.2687 -0.2630
 2589SOL     OW 8665   0.116   2.380   4.212  0.2941  0.0155  0.2548
 2589SOL    HW1 8666   0.028   2.357   4.171  1.0436 -2.7063 -0.0797
 2589SOL    HW2 8667   0.172   2.430   4.146 -0.0062 -0.7392 -0.5958
 2590SOL     OW 8668   6.765   6.762   3.149 -0.3610 -0.4816  0.5131
 2590SOL    HW1 8669   6.725   6.717   3.229 -2.0214  0.9173  0.5229
 2590SOL    HW2 8670   6.720   6.729   3.066  0.1629 -0.6475  0.2855
 2591SOL     OW 8671   6.338   1.604   6.612  0.1739 -0.0647  0.0426
 2591SOL    HW1 8672   6.363   1.568   6.523 -0.3301  0.3226 -0.2650
 2591SOL    HW2 8673   6.412   1.661   6.648  0.0663  0.4099 -0.4832
 2592SOL     OW 8674   2.554   0.832   6.875 -0.0193  0.8603 -0.1858
 2592SOL    HW1 8675   2.548   0.784   6.962 -0.1769  0.9643 -0.1382
 2592SOL    HW2 8676   2.467   0.822   6.826 -1.3308  3.8669  1.2859
 2593SOL     OW 8677   5.522   2.873   1.812  0.7715  0.2233  0.1531
 2593SOL    HW1 8678   5.581   2.931   1.755  0.6247  1.3198  1.0785
 2593SOL    HW2 8679   5.450   2.929   1.852 -0.0482 -0.8330  0.1902
 2594SOL     OW 8680   0.154   0.376   4.744 -0.2989 -0.0095  0.5643
 2594SOL    HW1 8681   0.233   0.328   4.705  0.5972  1.1334  0.9101
 2594SOL    HW2 8682   0.132   0.337   4.833  1.7829  1.4959  1.8461
 2595SOL     OW 8683   1.490   3.602   3.072  0.1689 -0.8401  0.6228
 2595SOL    HW1 8684   1.424   3.540   3.030 -1.0749 -1.9368  3.9446
 2595SOL    HW2 8685   1.448   3.691   3.089 -0.1779 -1.2229  1.8369
 2596SOL     OW 8686   1.247   4.218   4.314 -0.1266  0.1951  0.1926
 2596SOL    HW1 8687   1.301   4.260   4.387  0.1832 -0.2261  0.2124
 2596SOL    HW2 8688   1.218   4.127   4.343  0.2960 -0.1172 -0.3412
 2597SOL     OW 8689   3.145   1.200   5.697 -0.3918 -0.7358 -0.1249
 2597SOL    HW1 8690   3.129   1.131   5.626  0.0525  0.6947 -1.6748
 2597SOL    HW2 8691   3.236   1.188   5.735 -0.0347 -0.5919 -0.9038
 2598SOL     OW 8692   1.135   0.401   5.409  0.2796  0.6602 -0.2541
 2598SOL    HW1 8693   1.066   0.445   5.467  0.4876  0.2489  0.3231
 2598SOL    HW2 8694   1.208   0.363   5.467 -0.6741 -1.8404 -0.5367
 2599SOL     OW 8695   2.047   3.193   5.876 -0.3035  0.1963 -0.0544
 2599SOL    HW1 8696   2.105   3.230   5.948  1.4951  1.1646 -1.8831
 2599SOL    HW2 8697   2.094   3.201   5.788 -2.7781 -0.0443 -1.4946
 2600SOL     OW 8698   2.314   0.177   5.414  0.2774  0.0272  0.3191
 2600SOL    HW1 8699   2.226   0.218   5.436 -0.2148  0.6268 -2.4054
 2600SOL    HW2 8700   2.352   0.133   5.496 -1.8505  0.9622  1.9051
 2601SOL     OW 8701   2.789   4.964   5.579  0.4600 -0.2386  0.3624
 2601SOL    HW1 8702   2.889   4.965   5.573  0.5699  0.6604  1.9566
 2601SOL    HW2 8703   2.761   4.980   5.673 -1.2094  2.5064 -0.4798
 2602SOL     OW 8704   0.095   2.959   2.881  0.2042 -0.2764  0.5929
 2602SOL    HW1 8705   0.031   2.889   2.850  0.1471  0.1563 -0.2878
 2602SOL    HW2 8706   0.118   2.942   2.977  0.0639 -1.3913  0.4427
 2603SOL     OW 8707   1.601   0.570   5.774  0.0276 -0.3184  0.7181
 2603SOL    HW1 8708   1.604   0.667   5.750 -3.4824 -0.6580 -1.9472
 2603SOL    HW2 8709   1.692   0.531   5.767  1.0772  2.1783 -1.0049
 2604SOL     OW 8710   5.577   5.463   0.434  1.0206 -0.3887 -0.7689
 2604SOL    HW1 8711   5.662   5.416   0.455  1.9134  1.5016  0.0423
 2604SOL    HW2 8712   5.593   5.562   0.430 -1.1661  0.0423 -0.3599
 2605SOL     OW 8713   5.724   0.954   5.357  0.4910 -0.6411  0.4749
 2605SOL    HW1 8714   5.668   0.895   5.299  1.7432 -1.8038  0.3842
 2605SOL    HW2 8715   5.786   0.898   5.413  0.1554  0.5025  2.0812
 2606SOL     OW 8716   1.781   4.471   4.892 -0.2879  0.3187 -0.1175
 2606SOL    HW1 8717   1.800   4.549   4.832 -0.7991  0.5074 -0.0439
 2606SOL    HW2 8718   1.826   4.390   4.856  0.2688  0.6542 -0.1826
 2607SOL     OW 8719   0.213   6.276   1.524 -0.1908  0.2919 -0.1836
 2607SOL    HW1 8720   0.312   6.271   1.508 -0.0286 -0.5642  0.9521
 2607SOL    HW2 8721   0.166   6.299   1.438  0.8960 -0.3980 -0.9868
 2608SOL     OW 8722   5.926   3.043   1.407 -0.5815  0.1122 -0.0601
 2608SOL    HW1 8723   5.986   3.108   1.452 -1.7672  1.2934 -0.1191
 2608SOL    HW2 8724   5.870   2.996   1.475 -0.9941  0.4730 -0.1477
 2609SOL     OW 8725   2.076   5.570   5.993  0.1678  0.3501 -0.0946
 2609SOL    HW1 8726   2.122   5.656   5.971  1.3685 -0.0400  0.8137
 2609SOL    HW2 8727   1.977   5.587   6.002  0.4653  1.7823  0.8358
 2610SOL     OW 8728   1.942   6.338   2.492  0.2990 -0.0147 -0.3340
 2610SOL    HW1 8729   1.914   6.260   2.436 -1.0008 -2.2488  3.0970
 2610SOL    HW2 8730   1.877   6.413   2.481 -0.3807 -0.7086 -1.1848
 2611SOL     OW 8731   3.745   6.164   1.730  0.4740 -0.5222  0.6686
 2611SOL    HW1 8732   3.717   6.182   1.824  1.3898 -0.5061  0.9438
 2611SOL    HW2 8733   3.668   6.183   1.669  0.0712  0.0882  1.3450
 2612SOL     OW 8734   5.648   2.970   5.727  0.0170 -0.6561  0.0538
 2612SOL    HW1 8735   5.658   2.937   5.633 -1.5148 -1.4060  0.1370
 2612SOL    HW2 8736   5.568   2.928   5.770  1.4890 -1.4407  2.2054
 2613SOL     OW 8737   6.896   5.114   1.730 -0.0052  0.4766 -0.0940
 2613SOL    HW1 8738   6.843   5.036   1.696  0.0744  1.3282 -2.3523
 2613SOL    HW2 8739   6.993   5.091   1.729 -0.0226  0.4069 -0.2024
 2614SOL     OW 8740   6.522   5.436   5.495  0.0186  0.2192 -0.5889
 2614SOL    HW1 8741   6.551   5.425   5.400  0.9176 -1.1910 -0.1920
 2614SOL    HW2 8742   6.585   5.386   5.555 -0.7256  0.7965  0.7215
 2615SOL     OW 8743   4.494   1.160   1.670  0.6208 -0.9178  0.0318
 2615SOL    HW1 8744   4.467   1.248   1.631  2.2149 -0.4396 -0.0331
 2615SOL    HW2 8745   4.578   1.128   1.628  0.3160 -2.2673  0.3861
 2616SOL     OW 8746   6.864   2.683   5.945  0.0202  0.3797 -0.1461
 2616SOL    HW1 8747   6.833   2.736   6.023  3.6533  2.2211  0.2386
 2616SOL    HW2 8748   6.935   2.619   5.974 -0.9502 -1.3741 -1.4419
 2617SOL     OW 8749   4.303   2.509   1.762 -0.8197 -0.5912 -0.3027
 2617SOL    HW1 8750   4.221   2.480   1.713  0.9108  0.7778 -4.4932
 2617SOL    HW2 8751   4.328   2.602   1.733  1.8316 -0.6996  1.3043
 2618SOL     OW 8752   6.920   4.582   4.764 -0.4200 -0.1111  0.2161
 2618SOL    HW1 8753   6.918   4.681   4.746  1.8233  0.0245  0.5349
 2618SOL    HW2 8754   7.013   4.554   4.785 -1.0488 -2.3050  0.2376
 2619SOL     OW 8755   5.154   4.074   0.067  0.0023  0.1268 -0.7138
 2619SOL    HW1 8756   5.236   4.085   0.011  0.2583 -1.0679 -0.5976
 2619SOL    HW2 8757   5.092   4.150   0.050  1.5078  1.5498 -0.1227
 2620SOL     OW 8758   5.797   5.537   5.089 -0.1691 -0.3460 -0.5656
 2620SOL    HW1 8759   5.714   5.577   5.128 -0.9565 -0.4972 -2.0062
 2620SOL    HW2 8760   5.841   5.479   5.157  0.1301  1.6450  1.0550
 2621SOL     OW 8761   4.551   0.105   1.228 -0.1427  0.2365 -0.2787
 2621SOL    HW1 8762   4.512   0.130   1.317 -0.3047 -1.3263  0.1085
 2621SOL    HW2 8763   4.507   0.159   1.156 -0.6138  0.9060  0.4887
 2622SOL     OW 8764   6.659   4.000   1.088  0.0384  0.0029  0.6756
 2622SOL    HW1 8765   6.713   4.061   1.030 -2.1538  1.0390 -0.3879
 2622SOL    HW2 8766   6.627   3.922   1.034 -0.7824  0.1985  0.8657
 2623SOL     OW 8767   5.107   6.540   0.520  0.4236 -0.1731  0.3365
 2623SOL    HW1 8768   5.121   6.613   0.587 -1.0869 -0.1988  0.7244
 2623SOL    HW2 8769   5.009   6.525   0.507  0.6989 -1.1368 -0.8422
 2624SOL     OW 8770   6.560   5.730   0.780  0.3936 -0.0989 -0.3931
 2624SOL    HW1 8771   6.470   5.772   0.790  0.1948  0.6598 -3.9505
 2624SOL    HW2 8772   6.613   5.746   0.863 -2.3333  0.3641  1.3961
 2625SOL     OW 8773   1.817   1.899   5.476 -0.6774 -1.0246  0.0273
 2625SOL    HW1 8774   1.853   1.826   5.534  0.0107  0.9072  2.1685
 2625SOL    HW2 8775   1.886   1.926   5.409 -1.0656 -2.5024 -1.0230
 2626SOL     OW 8776   0.333   1.887   4.644  0.0955  0.4641  0.0458
 2626SOL    HW1 8777   0.260   1.863   4.708 -1.8962  1.4858 -1.7062
 2626SOL    HW2 8778   0.389   1.960   4.683 -2.1176  2.2710  0.0023
 2627SOL     OW 8779   0.629   1.073   6.215 -0.0190 -0.5617 -0.0207
 2627SOL    HW1 8780   0.564   1.101   6.287 -1.4471 -2.9740 -0.2322
 2627SOL    HW2 8781   0.720   1.106   6.238 -0.9105  1.0473  1.4774
 2628SOL     OW 8782   6.364   2.046   4.015 -0.9537 -0.4260  0.4795
 2628SOL    HW1 8783   6.393   2.025   3.921 -0.7125 -0.1604  0.4939
 2628SOL    HW2 8784   6.400   2.136   4.041  1.1148 -1.5336  1.7139
 2629SOL     OW 8785   1.785   5.971   1.947  0.0277 -0.3226  0.4081
 2629SOL    HW1 8786   1.759   6.060   1.983 -1.8686 -0.7223  0.1155
 2629SOL    HW2 8787   1.780   5.902   2.019 -0.2913 -0.5090  0.2096
 2630SOL     OW 8788   3.533   6.375   5.546 -0.4688  0.0724  0.2608
 2630SOL    HW1 8789   3.440   6.408   5.559 -0.3034  1.2222 -1.2112
 2630SOL    HW2 8790   3.569   6.409   5.460  1.1945 -0.6636  0.6154
 2631SOL     OW 8791   5.723   6.677   6.461 -0.5082 -0.2975 -0.2908
 2631SOL    HW1 8792   5.658   6.609   6.428 -0.9782 -0.2057  0.4490
 2631SOL    HW2 8793   5.682   6.732   6.533  0.1708  0.1853 -0.2574
 2632SOL     OW 8794   2.448   4.338   5.500 -0.4987 -0.1029 -0.4590
 2632SOL    HW1 8795   2.431   4.242   5.479 -0.4950 -0.3482  0.6253
 2632SOL    HW2 8796   2.493   4.381   5.422 -1.5595 -0.6809 -1.4144
 2633SOL     OW 8797   1.918   6.192   2.269  0.4176  1.4798  0.6888
 2633SOL    HW1 8798   1.854   6.220   2.197 -0.8811  1.3371  1.7343
 2633SOL    HW2 8799   2.010   6.184   2.231 -0.1241  1.9738 -0.8098
 2634SOL     OW 8800   0.758   3.413   6.356  0.3213 -0.0514 -0.6792
 2634SOL    HW1 8801   0.658   3.414   6.355  0.1465 -2.2472  2.0504
 2634SOL    HW2 8802   0.790   3.328   6.313  0.8861 -0.2773  0.1627
 2635SOL     OW 8803   4.827   1.734   0.809  0.2532  0.6124  0.0176
 2635SOL    HW1 8804   4.791   1.646   0.841  0.8064 -0.0558 -1.1269
 2635SOL    HW2 8805   4.829   1.799   0.885  1.5414 -0.8996  1.3513
 2636SOL     OW 8806   1.178   0.699   1.639  0.4655  0.4547  0.8411
 2636SOL    HW1 8807   1.270   0.737   1.654 -0.4979  2.7937  1.3159
 2636SOL    HW2 8808   1.111   0.774   1.640 -1.8146 -1.4350  3.3058
 2637SOL     OW 8809   6.225   0.122   1.402 -0.1198 -0.2904  0.2675
 2637SOL    HW1 8810   6.204   0.044   1.461 -0.6264  1.7598  3.0002
 2637SOL    HW2 8811   6.323   0.123   1.382 -0.0665 -1.4766  0.4102
 2638SOL     OW 8812   0.552   5.468   0.221 -0.6311 -0.6249  0.2502
 2638SOL    HW1 8813   0.458   5.471   0.186 -0.7942 -1.1093  0.6283
 2638SOL    HW2 8814   0.553   5.501   0.315 -0.4822 -0.9517  0.3631
 2639SOL     OW 8815   1.009   6.379   2.212  0.2939 -0.1863  0.1040
 2639SOL    HW1 8816   0.967   6.423   2.292 -0.2224  1.2227 -0.9045
 2639SOL    HW2 8817   1.044   6.449   2.150  0.2259 -1.2369 -1.1556
 2640SOL     OW 8818   4.305   0.345   1.385  0.5362  0.8039 -0.0286
 2640SOL    HW1 8819   4.299   0.279   1.460  0.7183  0.9839  0.1438
 2640SOL    HW2 8820   4.216   0.388   1.371  0.3465  0.3180 -0.3251
 2641SOL     OW 8821   1.155   6.581   0.889  0.1518  0.4569 -0.5430
 2641SOL    HW1 8822   1.058   6.577   0.865  0.5960 -1.0717 -2.3564
 2641SOL    HW2 8823   1.209   6.541   0.815  1.9551 -1.6603  1.7625
 2642SOL     OW 8824   6.890   3.867   5.362  0.3876  0.5842 -0.3653
 2642SOL    HW1 8825   6.955   3.918   5.306  0.1839  0.5410 -0.6393
 2642SOL    HW2 8826   6.913   3.770   5.360  0.8311  0.6657  0.2293
 2643SOL     OW 8827   3.570   0.764   0.555 -0.2485  0.1800 -0.2151
 2643SOL    HW1 8828   3.490   0.797   0.605  0.9722  1.7333  0.8129
 2643SOL    HW2 8829   3.561   0.666   0.540 -1.0029 -0.2595  2.5070
 2644SOL     OW 8830   5.993   4.523   5.306 -0.5778  0.1923  0.3319
 2644SOL    HW1 8831   5.949   4.460   5.370 -0.4635 -0.6382 -0.3865
 2644SOL    HW2 8832   6.047   4.470   5.240  2.4600  1.1846  1.8429
 2645SOL     OW 8833   5.836   1.401   3.960 -0.5225  0.3974  0.5830
 2645SOL    HW1 8834   5.773   1.376   3.886 -0.9125  2.3974  0.1813
 2645SOL    HW2 8835   5.900   1.470   3.926 -1.5983  2.4158  2.4390
 2646SOL     OW 8836   4.535   2.967   0.730 -0.4103  0.4402 -0.3589
 2646SOL    HW1 8837   4.469   3.043   0.730 -1.1818 -0.2073 -1.3740
 2646SOL    HW2 8838   4.488   2.882   0.707  0.8837  0.0744 -1.8606
 2647SOL     OW 8839   5.460   4.619   3.044  0.4013 -0.9165  0.5618
 2647SOL    HW1 8840   5.478   4.559   3.122 -0.6350 -0.7633  0.9310
 2647SOL    HW2 8841   5.407   4.698   3.074 -0.5295 -1.1539 -0.3921
 2648SOL     OW 8842   5.278   1.217   3.966  0.4089 -0.2676  0.3302
 2648SOL    HW1 8843   5.357   1.204   4.026  1.8283  0.9301 -1.1737
 2648SOL    HW2 8844   5.262   1.315   3.953 -0.9749 -0.4976  0.1396
 2649SOL     OW 8845   3.856   6.443   5.933  0.3131  0.1051 -0.0413
 2649SOL    HW1 8846   3.772   6.397   5.905  0.2216  0.4774 -0.3888
 2649SOL    HW2 8847   3.919   6.448   5.856 -0.3432  2.0386 -0.5215
 2650SOL     OW 8848   6.512   2.075   5.009  0.1701  0.2514 -0.4976
 2650SOL    HW1 8849   6.436   2.105   5.067  0.5358  1.0679 -0.4212
 2650SOL    HW2 8850   6.536   1.980   5.031 -0.7617  0.0118 -0.4655
 2651SOL     OW 8851   2.578   6.999   2.093  0.2560  0.0420 -0.1271
 2651SOL    HW1 8852   2.605   6.926   2.155  1.4456  1.0741  0.6302
 2651SOL    HW2 8853   2.588   6.969   1.998  1.3350 -0.5589  0.1702
 2652SOL     OW 8854   2.984   3.253   3.822  0.5123 -0.7222  0.3647
 2652SOL    HW1 8855   3.037   3.264   3.738  0.2380  1.3323  0.4215
 2652SOL    HW2 8856   3.044   3.220   3.895  1.3812  0.1089  0.0429
 2653SOL     OW 8857   2.954   0.533   3.818 -0.2052 -0.2256 -0.4963
 2653SOL    HW1 8858   3.041   0.536   3.867 -0.2462 -0.1291 -0.4295
 2653SOL    HW2 8859   2.958   0.462   3.748  0.1302  0.1483 -0.8640
 2654SOL     OW 8860   1.762   1.915   1.695  0.1950 -0.3957  0.6125
 2654SOL    HW1 8861   1.798   1.930   1.603 -1.2268 -0.1493  0.0765
 2654SOL    HW2 8862   1.698   1.838   1.694 -0.5784  0.2252  1.1877
 2655SOL     OW 8863   5.543   0.732   1.341  0.6950  0.2569  0.3156
 2655SOL    HW1 8864   5.446   0.709   1.342  0.7709 -0.2267 -1.2243
 2655SOL    HW2 8865   5.557   0.819   1.389 -0.2926 -0.3233  1.7240
 2656SOL     OW 8866   1.750   3.170   4.620 -0.1491 -0.4934 -0.0217
 2656SOL    HW1 8867   1.746   3.144   4.524  1.2771  1.4082 -0.6414
 2656SOL    HW2 8868   1.657   3.174   4.657 -0.6817 -1.7821 -1.1381
 2657SOL     OW 8869   0.998   3.912   4.667  0.0622  0.1556  0.1145
 2657SOL    HW1 8870   1.031   3.864   4.748  0.0332  0.6981  0.4559
 2657SOL    HW2 8871   0.971   4.005   4.692 -0.3434  0.1927 -0.4420
 2658SOL     OW 8872   0.309   5.204   5.169 -0.0198 -0.0380 -0.4757
 2658SOL    HW1 8873   0.316   5.302   5.151 -0.8661  0.3483  1.0953
 2658SOL    HW2 8874   0.255   5.161   5.096  0.8015  0.5368 -1.4622
 2659SOL     OW 8875   4.153   5.791   0.998  0.0717 -0.0753  0.0824
 2659SOL    HW1 8876   4.165   5.850   0.918  0.8973  0.8611  0.8600
 2659SOL    HW2 8877   4.082   5.831   1.057  1.5540  0.9139  1.2597
 2660SOL     OW 8878   3.471   6.770   4.060 -0.0826 -0.4049  0.4130
 2660SOL    HW1 8879   3.377   6.755   4.027  0.1663  0.5852 -0.8267
 2660SOL    HW2 8880   3.484   6.867   4.078  0.6177 -0.5859  0.8936
 2661SOL     OW 8881   2.948   0.101   4.841  0.1632 -0.1855 -0.0877
 2661SOL    HW1 8882   3.012   0.050   4.897  0.8901  0.7153 -0.0836
 2661SOL    HW2 8883   2.998   0.163   4.781 -0.6718 -0.0488 -0.6590
 2662SOL     OW 8884   6.789   3.225   4.198  0.0613 -0.0528  0.0668
 2662SOL    HW1 8885   6.756   3.294   4.134  1.2595  1.1106  0.6496
 2662SOL    HW2 8886   6.883   3.201   4.175 -0.7367 -2.5229 -0.9326
 2663SOL     OW 8887   5.986   0.197   5.900 -0.1117 -0.4919 -0.1361
 2663SOL    HW1 8888   6.020   0.143   5.823  0.8119 -1.7773  1.1287
 2663SOL    HW2 8889   6.024   0.161   5.986 -0.9888  0.9912  0.9227
 2664SOL     OW 8890   0.357   5.008   5.375 -0.0878  0.2341  0.1728
 2664SOL    HW1 8891   0.347   5.088   5.317  1.9308  0.2574 -0.2000
 2664SOL    HW2 8892   0.317   5.027   5.465  1.1470  2.0088  0.3908
 2665SOL     OW 8893   6.949   2.171   3.415  0.5322  0.3295  0.0268
 2665SOL    HW1 8894   6.982   2.266   3.413 -0.9565  0.9165  1.1209
 2665SOL    HW2 8895   6.995   2.121   3.487  1.1454  0.2843 -0.3916
 2666SOL     OW 8896   1.888   4.162   6.677 -0.4105 -0.2256 -0.0695
 2666SOL    HW1 8897   1.886   4.157   6.577 -0.9184 -2.8263  0.0177
 2666SOL    HW2 8898   1.804   4.206   6.709 -0.6958 -0.2482 -0.7608
 2667SOL     OW 8899   3.209   6.911   2.796 -0.2484  0.0957 -0.4113
 2667SOL    HW1 8900   3.231   6.992   2.850  0.0329  0.7200 -1.4385
 2667SOL    HW2 8901   3.253   6.831   2.836  2.0721  0.9458 -1.1206
 2668SOL     OW 8902   3.259   3.678   4.735  0.4900 -0.2294  0.2869
 2668SOL    HW1 8903   3.317   3.756   4.757  1.3794 -1.2577  1.8634
 2668SOL    HW2 8904   3.166   3.694   4.770  1.0519 -0.4464  2.0085
 2669SOL     OW 8905   1.689   1.906   0.908 -0.1567 -0.1191  0.4436
 2669SOL    HW1 8906   1.771   1.854   0.930  0.2803  0.0048 -0.8383
 2669SOL    HW2 8907   1.695   1.997   0.949  0.4914 -0.0038  0.1006
 2670SOL     OW 8908   5.306   4.665   6.253  0.3715  0.1722  0.6000
 2670SOL    HW1 8909   5.353   4.594   6.306  0.6916 -0.0579  0.0146
 2670SOL    HW2 8910   5.288   4.631   6.161  0.7208  0.9352  0.2496
 2671SOL     OW 8911   5.198   4.728   5.128  0.1209 -0.0873 -0.2153
 2671SOL    HW1 8912   5.121   4.792   5.121  0.5737  0.4649 -0.1939
 2671SOL    HW2 8913   5.235   4.711   5.037  1.8270  1.9497  0.0369
 2672SOL     OW 8914   4.357   2.438   6.338 -0.0201 -1.0347  0.4996
 2672SOL    HW1 8915   4.280   2.468   6.395 -0.4046 -0.8876 -0.0863
 2672SOL    HW2 8916   4.443   2.454   6.386 -0.3215 -0.5866  0.8950
 2673SOL     OW 8917   2.684   1.851   1.163  0.1127  0.1321 -0.2118
 2673SOL    HW1 8918   2.701   1.848   1.261 -1.2242 -2.8187  0.0426
 2673SOL    HW2 8919   2.586   1.844   1.146  0.4325 -1.4357 -1.7197
 2674SOL     OW 8920   2.387   3.270   5.317 -0.3719 -0.3997  0.4169
 2674SOL    HW1 8921   2.421   3.194   5.263  1.4046  0.7169 -0.1100
 2674SOL    HW2 8922   2.460   3.337   5.331 -1.5901  0.7318  1.7394
 2675SOL     OW 8923   6.612   3.830   2.045 -0.4255  0.1232 -0.3013
 2675SOL    HW1 8924   6.651   3.894   1.979  0.6896 -1.0316 -0.7985
 2675SOL    HW2 8925   6.662   3.836   2.131 -1.9493  1.7084  0.5567
 2676SOL     OW 8926   0.154   3.065   0.820  0.0348 -0.0401  0.2384
 2676SOL    HW1 8927   0.171   3.005   0.742  2.2999  1.0895 -0.2169
 2676SOL    HW2 8928   0.225   3.050   0.889  2.3149  3.7661 -0.9757
 2677SOL     OW 8929   3.035   1.430   5.643  0.1562 -0.1257  0.4018
 2677SOL    HW1 8930   3.065   1.337   5.665  0.5105 -0.6768 -2.0694
 2677SOL    HW2 8931   2.939   1.428   5.615 -0.3090  0.5582  1.8315
 2678SOL     OW 8932   1.504   1.669   3.063  0.5683  0.2621 -0.1235
 2678SOL    HW1 8933   1.517   1.747   3.124  1.7277  0.5957 -0.7684
 2678SOL    HW2 8934   1.425   1.616   3.093  0.5883  0.9139  1.1317
 2679SOL     OW 8935   5.158   4.443   0.503  0.1237 -0.0608  0.3210
 2679SOL    HW1 8936   5.218   4.375   0.460  0.6299  0.6752 -0.1800
 2679SOL    HW2 8937   5.130   4.510   0.434  2.3175  2.1286  1.3902
 2680SOL     OW 8938   1.201   5.844   1.220  0.6678  0.1231 -0.5209
 2680SOL    HW1 8939   1.119   5.832   1.276 -0.0525  0.0743 -1.5547
 2680SOL    HW2 8940   1.282   5.823   1.275 -0.0828 -1.1687  0.1448
 2681SOL     OW 8941   1.408   5.830   5.537 -0.1245 -0.2546  0.4068
 2681SOL    HW1 8942   1.394   5.893   5.613 -1.2696  0.7944 -0.6541
 2681SOL    HW2 8943   1.398   5.736   5.570 -1.0046  0.1951  1.4744
 2682SOL     OW 8944   0.023   1.418   1.395  0.7216  0.2372 -0.7159
 2682SOL    HW1 8945   0.024   1.483   1.471  2.7665 -0.6685  0.1036
 2682SOL    HW2 8946  -0.036   1.453   1.322 -0.2020  1.7857  0.7031
 2683SOL     OW 8947   2.968   5.236   5.470 -0.3143  0.5283  0.0966
 2683SOL    HW1 8948   3.016   5.324   5.468  0.7562 -0.0520 -0.4299
 2683SOL    HW2 8949   2.892   5.241   5.535  0.3863  1.5056  0.8707
 2684SOL     OW 8950   3.137   0.991   0.670 -0.0303 -0.3419 -0.3228
 2684SOL    HW1 8951   3.095   1.013   0.758  0.9016  0.0453  0.0471
 2684SOL    HW2 8952   3.150   1.075   0.617  0.0085 -0.4905 -0.5495
 2685SOL     OW 8953   4.064   6.096   3.645  0.1777  0.1812 -0.0844
 2685SOL    HW1 8954   4.006   6.117   3.567  1.0487  0.5935 -0.6352
 2685SOL    HW2 8955   4.039   6.006   3.682  0.6500 -0.6475 -1.6976
 2686SOL     OW 8956   3.348   6.254   4.992  0.6747 -0.7783  0.0854
 2686SOL    HW1 8957   3.261   6.207   5.006 -0.5081  0.4587 -2.4669
 2686SOL    HW2 8958   3.355   6.331   5.055 -0.6188 -0.2085 -0.4449
 2687SOL     OW 8959   2.318   4.466   6.560 -0.2970  0.3535  0.0653
 2687SOL    HW1 8960   2.327   4.388   6.623  1.4518  0.7871  0.3879
 2687SOL    HW2 8961   2.407   4.509   6.548 -1.4380  3.1916  1.0106
 2688SOL     OW 8962   4.146   0.917   3.212  0.4856  0.6169  0.5071
 2688SOL    HW1 8963   4.239   0.893   3.241  0.9163  2.8131  1.1676
 2688SOL    HW2 8964   4.151   0.985   3.138 -0.5821  1.0314  0.7906
 2689SOL     OW 8965   0.475   0.771   2.237 -0.3842 -0.5366 -0.2128
 2689SOL    HW1 8966   0.482   0.827   2.319 -2.4186  0.1236 -0.4534
 2689SOL    HW2 8967   0.499   0.826   2.157 -2.0992 -0.0428 -0.4192
 2690SOL     OW 8968   3.105   4.156   1.706 -0.0114  0.0718  0.1569
 2690SOL    HW1 8969   3.016   4.166   1.662 -0.3523 -0.1347  0.7936
 2690SOL    HW2 8970   3.092   4.133   1.802  0.6705  3.2996  1.1386
 2691SOL     OW 8971   0.428   5.538   5.800 -0.0055 -0.1839 -0.0335
 2691SOL    HW1 8972   0.340   5.579   5.776  0.2293  0.8632  0.8106
 2691SOL    HW2 8973   0.492   5.548   5.724  0.1936  1.4794  0.3166
 2692SOL     OW 8974   2.521   3.681   0.925 -0.0350  0.1511  0.3401
 2692SOL    HW1 8975   2.615   3.682   0.957 -0.1709 -1.4302  0.8815
 2692SOL    HW2 8976   2.468   3.751   0.973  0.4792 -0.1011  1.2982
 2693SOL     OW 8977   2.428   0.325   0.608  0.1993  0.6472 -0.1987
 2693SOL    HW1 8978   2.475   0.249   0.563  0.2858 -0.4425  1.6197
 2693SOL    HW2 8979   2.474   0.411   0.586 -0.5229  0.3915 -3.1648
 2694SOL     OW 8980   4.994   2.157   3.491  0.4472 -0.0725  0.0630
 2694SOL    HW1 8981   5.064   2.162   3.420  0.0812  1.1467 -0.2311
 2694SOL    HW2 8982   4.930   2.232   3.480  0.0547 -0.1937  1.3488
 2695SOL     OW 8983   0.901   6.217   6.681  0.3412  0.1498  0.0523
 2695SOL    HW1 8984   0.809   6.213   6.720  0.6123  0.2506  0.7034
 2695SOL    HW2 8985   0.951   6.293   6.720  0.7912 -0.0522 -0.1200
 2696SOL     OW 8986   4.024   5.440   1.580 -0.3376  0.6483 -0.5375
 2696SOL    HW1 8987   3.926   5.443   1.596 -0.2321  2.6869 -0.0291
 2696SOL    HW2 8988   4.070   5.403   1.661 -0.7446 -2.0540 -1.4323
 2697SOL     OW 8989   2.229   6.481   2.808  0.5222  0.6338  0.3766
 2697SOL    HW1 8990   2.137   6.474   2.846  0.1172 -2.3393 -0.9410
 2697SOL    HW2 8991   2.287   6.410   2.847  0.6753 -1.1591 -2.8041
 2698SOL     OW 8992   5.505   0.641   4.492 -0.2770  0.3283  0.3518
 2698SOL    HW1 8993   5.552   0.564   4.448 -1.7919 -0.2359 -0.3660
 2698SOL    HW2 8994   5.412   0.647   4.456 -1.1162  0.7534  2.4789
 2699SOL     OW 8995   5.401   6.769   0.513 -0.3595 -0.4675  0.8803
 2699SOL    HW1 8996   5.316   6.821   0.518  0.1339  0.4969 -0.3900
 2699SOL    HW2 8997   5.387   6.689   0.454 -0.6202 -0.8069  1.3936
 2700SOL     OW 8998   4.408   3.375   6.579 -0.1048  0.1181  0.1511
 2700SOL    HW1 8999   4.351   3.410   6.505  1.9965 -0.2934 -1.7790
 2700SOL    HW2 9000   4.425   3.448   6.646 -0.5709  1.0576 -0.7349
 2701SOL     OW 9001   2.678   5.052   5.883  0.2421  0.0688 -0.3845
 2701SOL    HW1 9002   2.705   5.015   5.971 -1.7258 -0.6125 -0.0118
 2701SOL    HW2 9003   2.606   5.121   5.896  0.4744  0.5326 -1.4090
 2702SOL     OW 9004   1.473   6.051   6.556 -0.0033  0.5306 -0.0396
 2702SOL    HW1 9005   1.415   6.123   6.520  0.1781  1.0099  0.6093
 2702SOL    HW2 9006   1.429   6.008   6.635  0.3933  0.7100  0.2846
 2703SOL     OW 9007   6.996   2.676   2.329  0.4639 -0.2224 -0.3861
 2703SOL    HW1 9008   6.984   2.613   2.253  0.7651  0.4466 -0.9975
 2703SOL    HW2 9009   6.907   2.695   2.371  0.2048 -0.0791 -0.9873
 2704SOL     OW 9010   5.921   0.091   6.254 -0.4386 -0.3595 -0.1020
 2704SOL    HW1 9011   5.876   0.007   6.285 -0.5362  0.6743  2.9211
 2704SOL    HW2 9012   5.901   0.165   6.319  2.9442  0.9735 -0.3762
 2705SOL     OW 9013   1.063   3.183   1.384 -0.2940  0.5968  0.2298
 2705SOL    HW1 9014   1.009   3.180   1.468 -1.4983  1.8020 -0.4623
 2705SOL    HW2 9015   1.131   3.255   1.390  0.4328 -0.1122  0.6249
 2706SOL     OW 9016   3.109   5.341   5.085 -0.0216  0.5909 -0.7816
 2706SOL    HW1 9017   3.126   5.438   5.102 -0.5959  0.4538  0.6634
 2706SOL    HW2 9018   3.013   5.320   5.103  0.4024 -0.5253  0.3340
 2707SOL     OW 9019   0.812   6.807   4.460  0.6182 -0.6028 -0.1840
 2707SOL    HW1 9020   0.911   6.798   4.445  0.8621 -0.8735  1.4271
 2707SOL    HW2 9021   0.769   6.717   4.455  0.2542 -0.3668 -1.9588
 2708SOL     OW 9022   6.158   6.164   4.131  0.2362  0.4636 -0.0475
 2708SOL    HW1 9023   6.108   6.246   4.103 -0.4986  0.0487 -0.0041
 2708SOL    HW2 9024   6.207   6.126   4.053 -0.8095 -0.0022 -0.4949
 2709SOL     OW 9025   4.516   6.853   1.201  0.3034  0.1384 -0.1217
 2709SOL    HW1 9026   4.532   6.950   1.217 -0.3861  0.0423  1.2441
 2709SOL    HW2 9027   4.419   6.837   1.184  0.4004 -0.3255 -0.2643
 2710SOL     OW 9028   5.367   0.039   3.564  0.3602  0.1905 -0.0549
 2710SOL    HW1 9029   5.351   0.087   3.478  1.0742  0.9448  0.2185
 2710SOL    HW2 9030   5.287  -0.017   3.587 -0.9195  1.9863  0.1004
 2711SOL     OW 9031   2.356   2.715   3.504  1.0519  0.6429 -0.7079
 2711SOL    HW1 9032   2.392   2.683   3.417 -0.1132 -0.2985 -0.8748
 2711SOL    HW2 9033   2.277   2.775   3.488  1.5148  1.3787 -0.3149
 2712SOL     OW 9034   0.715   3.169   6.153  0.0539 -0.4750  0.6061
 2712SOL    HW1 9035   0.802   3.155   6.201  1.1851  1.0029 -0.8962
 2712SOL    HW2 9036   0.731   3.223   6.071 -2.5135  1.1017  1.0408
 2713SOL     OW 9037   2.210   0.777   3.803 -0.5709 -0.2677 -0.3661
 2713SOL    HW1 9038   2.250   0.708   3.864 -1.6088 -1.1564 -0.6398
 2713SOL    HW2 9039   2.224   0.748   3.708 -1.5234 -0.4233 -0.4699
 2714SOL     OW 9040   1.513   6.371   2.177 -0.4238 -0.1488 -0.0440
 2714SOL    HW1 9041   1.501   6.440   2.105 -1.1462  1.8406  1.8701
 2714SOL    HW2 9042   1.497   6.413   2.266  0.0025 -2.6340  1.2897
 2715SOL     OW 9043   3.430   1.867   5.640  0.0733 -0.6252  0.3401
 2715SOL    HW1 9044   3.445   1.948   5.584  0.9081 -2.2250 -1.9018
 2715SOL    HW2 9045   3.356   1.884   5.704  1.1251  2.3353  0.9197
 2716SOL     OW 9046   3.473   6.205   0.429  0.0546  0.3803 -0.9955
 2716SOL    HW1 9047   3.527   6.187   0.510  0.4846 -0.0644 -1.3761
 2716SOL    HW2 9048   3.486   6.300   0.401 -1.3089  1.0091  0.3386
 2717SOL     OW 9049   1.915   3.009   4.767  0.4580  0.1649  0.4414
 2717SOL    HW1 9050   1.847   3.068   4.723 -1.3192 -0.8637  1.6648
 2717SOL    HW2 9051   1.983   2.980   4.699 -1.7509 -0.8041 -1.4796
 2718SOL     OW 9052   2.788   3.930   5.719  1.0030 -0.0149 -0.3536
 2718SOL    HW1 9053   2.694   3.933   5.684 -0.3723  1.9791  3.0761
 2718SOL    HW2 9054   2.810   3.837   5.749 -0.2119 -0.2979 -0.3059
 2719SOL     OW 9055   6.847   2.253   2.390 -0.2987  0.2925  0.4333
 2719SOL    HW1 9056   6.808   2.315   2.458 -0.6840  0.7971 -0.2341
 2719SOL    HW2 9057   6.825   2.286   2.298 -1.1878 -1.2514  0.0583
 2720SOL     OW 9058   4.869   1.856   0.556  0.1468 -0.2693  0.1648
 2720SOL    HW1 9059   4.873   1.779   0.620 -1.8022  0.5288  1.3270
 2720SOL    HW2 9060   4.785   1.908   0.571  0.3547  0.8372 -2.0695
 2721SOL     OW 9061   2.770   4.988   2.954 -0.3155  0.3465  1.1519
 2721SOL    HW1 9062   2.753   4.892   2.932  0.9695 -0.1796  2.2674
 2721SOL    HW2 9063   2.770   5.042   2.870 -0.0907 -0.7908  0.3969
 2722SOL     OW 9064   3.718   5.208   5.677  0.3394  0.1787 -0.1870
 2722SOL    HW1 9065   3.696   5.264   5.757  1.3534 -0.1378  0.3275
 2722SOL    HW2 9066   3.788   5.254   5.623  0.6277 -0.2452 -0.1721
 2723SOL     OW 9067   1.413   3.791   6.652 -0.7255  0.1569 -0.1600
 2723SOL    HW1 9068   1.463   3.718   6.605  1.1777  0.8855  0.6419
 2723SOL    HW2 9069   1.347   3.751   6.715  0.4559 -0.9041  0.4509
 2724SOL     OW 9070   0.833   6.550   1.648 -0.0929  0.4597 -0.6535
 2724SOL    HW1 9071   0.909   6.505   1.695 -0.0319  0.0734 -1.1152
 2724SOL    HW2 9072   0.864   6.584   1.560  0.3770  3.1198  0.4481
 2725SOL     OW 9073   3.109   0.571   6.232 -0.1697  0.0203 -0.1129
 2725SOL    HW1 9074   3.104   0.472   6.234 -1.6388  0.0070 -1.9846
 2725SOL    HW2 9075   3.205   0.600   6.234  0.2633 -1.3955  0.5420
 2726SOL     OW 9076   3.674   1.327   5.854 -0.3435  0.5162  0.3340
 2726SOL    HW1 9077   3.724   1.313   5.768  1.5703  1.7741  1.1714
 2726SOL    HW2 9078   3.737   1.316   5.931 -1.4333  1.9214  1.4726
 2727SOL     OW 9079   2.632   0.182   0.189  0.2462 -0.1272  0.6322
 2727SOL    HW1 9080   2.655   0.091   0.153  3.4527  0.7373  0.1409
 2727SOL    HW2 9081   2.652   0.184   0.287 -1.3071 -0.3442  0.9741
 2728SOL     OW 9082   5.503   0.941   6.378  0.1111 -0.1547  0.1489
 2728SOL    HW1 9083   5.597   0.974   6.384 -0.1325  0.5950  0.0469
 2728SOL    HW2 9084   5.441   1.020   6.372 -0.6035 -0.6107  1.3670
 2729SOL     OW 9085   5.514   1.711   5.053 -0.0270  0.0533 -0.0172
 2729SOL    HW1 9086   5.473   1.801   5.069 -0.0043  0.1424 -0.4510
 2729SOL    HW2 9087   5.608   1.722   5.020 -0.0324 -0.1278 -0.0981
 2730SOL     OW 9088   2.064   2.561   2.314  0.4591 -0.4448  0.0974
 2730SOL    HW1 9089   2.080   2.489   2.381  0.5670  0.1919  0.7622
 2730SOL    HW2 9090   2.002   2.527   2.242 -0.0337 -0.9829  0.7647
 2731SOL     OW 9091   1.250   1.098   0.566 -0.0799 -0.5516  0.4615
 2731SOL    HW1 9092   1.174   1.050   0.522  0.2690 -0.8081  0.1261
 2731SOL    HW2 9093   1.222   1.191   0.587 -0.2514 -0.4135 -0.3340
 2732SOL     OW 9094   0.315   4.753   0.797 -0.6011 -0.0116 -0.5357
 2732SOL    HW1 9095   0.284   4.670   0.750 -2.4492 -0.0512  0.6399
 2732SOL    HW2 9096   0.411   4.743   0.821 -0.4721 -1.3102 -1.4640
 2733SOL     OW 9097   1.251   6.975   6.214 -0.8287  0.0428 -0.3727
 2733SOL    HW1 9098   1.252   6.963   6.114 -1.6636  1.1464 -0.5315
 2733SOL    HW2 9099   1.320   7.043   6.239 -0.2944 -0.5746 -0.1287
 2734SOL     OW 9100   2.940   0.489   2.442 -0.1203 -0.0767 -0.2080
 2734SOL    HW1 9101   2.853   0.536   2.456  1.0512  2.1571  0.0003
 2734SOL    HW2 9102   2.965   0.495   2.345  0.7896  1.2164  0.0797
 2735SOL     OW 9103   4.871   3.407   3.131 -0.6771 -0.4513 -0.4060
 2735SOL    HW1 9104   4.838   3.344   3.202  0.8886 -2.5471 -1.4183
 2735SOL    HW2 9105   4.929   3.477   3.173  0.3037 -1.7079  0.4155
 2736SOL     OW 9106   5.955   3.746   2.242 -0.7101  0.2302  0.2771
 2736SOL    HW1 9107   5.999   3.680   2.181  0.0923  1.3833 -0.4369
 2736SOL    HW2 9108   5.870   3.778   2.199 -2.3618 -1.9844  1.6477
 2737SOL     OW 9109   6.653   2.164   6.692  0.2105  0.1824 -0.0006
 2737SOL    HW1 9110   6.673   2.072   6.660  0.3730  0.4706 -0.7471
 2737SOL    HW2 9111   6.557   2.171   6.717  0.0080  0.0295 -0.7204
 2738SOL     OW 9112   6.053   0.034   0.338  0.5292 -0.2093  0.5378
 2738SOL    HW1 9113   6.082  -0.061   0.337  0.1236 -0.3440  1.0008
 2738SOL    HW2 9114   5.959   0.040   0.302  1.2507  0.2709 -1.3761
 2739SOL     OW 9115   6.392   6.076   2.520  0.4449  0.0054  0.4030
 2739SOL    HW1 9116   6.444   6.144   2.571  0.8271 -0.2348  0.3336
 2739SOL    HW2 9117   6.383   6.104   2.425  0.6440 -0.0643  0.3637
 2740SOL     OW 9118   2.020   4.103   3.964 -0.6305  0.0049  0.4587
 2740SOL    HW1 9119   2.011   4.004   3.976 -0.4632 -0.1303 -0.4777
 2740SOL    HW2 9120   2.068   4.142   4.043 -0.9421 -0.6174  0.9616
 2741SOL     OW 9121   1.048   6.633   4.791 -0.0248 -1.1653 -0.1839
 2741SOL    HW1 9122   1.007   6.652   4.880 -1.2665  2.8108 -1.3715
 2741SOL    HW2 9123   0.988   6.571   4.740 -0.9333 -0.9875  0.6337
 2742SOL     OW 9124   2.454   6.368   3.080  0.4444  0.7926 -0.1091
 2742SOL    HW1 9125   2.457   6.372   2.980 -1.1413 -0.5250 -0.2605
 2742SOL    HW2 9126   2.459   6.273   3.110 -0.5527  1.0547  0.9699
 2743SOL     OW 9127   5.718   0.967   6.142  0.4382 -0.6286  0.7640
 2743SOL    HW1 9128   5.739   0.869   6.143  0.9228 -0.5477  2.8459
 2743SOL    HW2 9129   5.756   1.010   6.224 -0.1884  1.2264  0.1301
 2744SOL     OW 9130   0.792   3.911   6.967 -0.4133  0.0852  0.0579
 2744SOL    HW1 9131   0.717   3.972   6.992  0.1026  1.4719 -1.5845
 2744SOL    HW2 9132   0.817   3.855   7.046 -2.7293  0.0176  0.8262
 2745SOL     OW 9133   2.637   6.971   5.201  0.0935 -0.4206 -0.3245
 2745SOL    HW1 9134   2.603   7.034   5.131  1.5671 -0.1863 -0.8670
 2745SOL    HW2 9135   2.568   6.900   5.218 -1.0272  0.5392 -0.6882
 2746SOL     OW 9136   1.003   6.779   1.933 -0.1925  0.2590  0.4943
 2746SOL    HW1 9137   0.920   6.787   1.987  1.0516  0.6907  2.4451
 2746SOL    HW2 9138   1.063   6.857   1.952  1.2190 -0.7079  0.1855
 2747SOL     OW 9139   6.753   2.452   4.881 -0.8083  0.0201 -0.5907
 2747SOL    HW1 9140   6.837   2.478   4.833 -0.5001 -1.3922 -0.8923
 2747SOL    HW2 9141   6.705   2.533   4.913  1.6218  0.8255  1.2487
 2748SOL     OW 9142   2.540   5.464   5.296 -0.0108 -0.7121 -0.2204
 2748SOL    HW1 9143   2.540   5.376   5.249  0.3806 -2.0662  2.1642
 2748SOL    HW2 9144   2.625   5.513   5.277  0.0700 -1.1567 -1.0036
 2749SOL     OW 9145   0.487   6.514   0.975  0.1709 -0.4820 -0.7259
 2749SOL    HW1 9146   0.473   6.561   1.062  0.1575  1.6685 -1.8169
 2749SOL    HW2 9147   0.406   6.461   0.952  0.4423 -1.6561  0.8737
 2750SOL     OW 9148   0.410   1.134   6.354  0.5692  0.2028 -0.1183
 2750SOL    HW1 9149   0.420   1.217   6.408  0.6297  0.9681 -1.2594
 2750SOL    HW2 9150   0.346   1.151   6.278 -0.2403 -1.1116  0.2337
 2751SOL     OW 9151   2.525   5.728   6.713  0.0774 -0.1149  0.1047
 2751SOL    HW1 9152   2.425   5.738   6.715 -0.0141 -0.8445 -0.5251
 2751SOL    HW2 9153   2.551   5.647   6.766  0.3623  0.2098  0.4675
 2752SOL     OW 9154   2.896   5.414   4.738  0.4189 -0.3426  0.1203
 2752SOL    HW1 9155   2.886   5.352   4.816  0.1150 -0.0082  0.3477
 2752SOL    HW2 9156   2.940   5.365   4.662  0.5705 -0.7131  0.4448
 2753SOL     OW 9157   2.064   0.479   0.769 -0.1012 -0.2548  0.1753
 2753SOL    HW1 9158   2.098   0.573   0.771  0.1737 -0.3563  0.8476
 2753SOL    HW2 9159   2.095   0.433   0.686  2.1920 -0.6068  1.1434
 2754SOL     OW 9160   3.342   2.060   0.898 -0.3369 -0.3344 -0.5902
 2754SOL    HW1 9161   3.276   2.060   0.823 -0.1714 -0.2590 -0.7364
 2754SOL    HW2 9162   3.426   2.016   0.868  0.3828  1.2549 -1.0333
 2755SOL     OW 9163   2.850   6.957   2.840  0.4901  0.1769 -0.6916
 2755SOL    HW1 9164   2.923   6.984   2.903 -0.0215  0.1175 -0.0687
 2755SOL    HW2 9165   2.809   7.039   2.800  0.2028  0.2562 -0.2421
 2756SOL     OW 9166   4.479   4.734   5.893 -1.1363 -0.0880 -0.2379
 2756SOL    HW1 9167   4.447   4.667   5.826  1.2935 -0.4275 -1.1804
 2756SOL    HW2 9168   4.406   4.798   5.915 -2.9015 -1.8089 -0.8808
 2757SOL     OW 9169   2.877   3.588   6.343  0.4822 -0.3453  0.4396
 2757SOL    HW1 9170   2.939   3.524   6.297 -0.0287  1.1095 -2.5322
 2757SOL    HW2 9171   2.783   3.566   6.319  0.2038  0.5158  0.7239
 2758SOL     OW 9172   2.078   1.436   0.468  0.3051  0.5382 -0.1031
 2758SOL    HW1 9173   2.100   1.371   0.395  1.7809  0.7882  0.0857
 2758SOL    HW2 9174   2.077   1.388   0.556 -1.7912  0.1731 -0.2797
 2759SOL     OW 9175   2.769   6.759   6.047 -0.1745 -0.4523  0.2990
 2759SOL    HW1 9176   2.832   6.736   6.122  2.1554  2.4037 -0.6162
 2759SOL    HW2 9177   2.764   6.682   5.983 -0.3455 -2.0224  2.1139
 2760SOL     OW 9178   6.482   5.521   4.102 -0.4621  0.4759  0.1275
 2760SOL    HW1 9179   6.542   5.561   4.032 -0.1406 -0.6492 -0.2690
 2760SOL    HW2 9180   6.529   5.445   4.147 -0.2573  1.8254  2.3371
 2761SOL     OW 9181   6.932   6.420   0.518 -0.2129 -0.1943  0.3457
 2761SOL    HW1 9182   6.991   6.427   0.437 -0.7524  0.3296 -0.0127
 2761SOL    HW2 9183   6.876   6.337   0.511  0.8683 -0.9987  0.9632
 2762SOL     OW 9184   4.353   2.586   5.383  0.1380  0.1197 -0.0179
 2762SOL    HW1 9185   4.318   2.637   5.462 -0.1414 -0.6271  0.3552
 2762SOL    HW2 9186   4.283   2.582   5.312 -0.1142 -0.3822  0.2573
 2763SOL     OW 9187   6.175   3.066   0.248  0.0713 -0.0723  0.1345
 2763SOL    HW1 9188   6.120   2.990   0.284 -0.2000  0.9393  1.9908
 2763SOL    HW2 9189   6.119   3.122   0.187 -0.2087 -0.4498  0.0420
 2764SOL     OW 9190   0.029   0.807   4.775  0.4411 -0.5911 -0.3353
 2764SOL    HW1 9191   0.050   0.761   4.861 -2.5952 -0.4457  0.5904
 2764SOL    HW2 9192   0.017   0.739   4.703  1.3111 -0.8230 -0.2770
 2765SOL     OW 9193   1.820   0.009   6.611  0.8324 -0.5024 -0.0868
 2765SOL    HW1 9194   1.820   0.076   6.686  2.3698 -1.3800  0.7594
 2765SOL    HW2 9195   1.728  -0.002   6.576  0.1028  0.1322  1.5232
 2766SOL     OW 9196   3.008   6.500   1.730 -0.2406 -0.0962 -0.1859
 2766SOL    HW1 9197   2.949   6.422   1.753 -0.3950  0.0412 -0.1165
 2766SOL    HW2 9198   2.984   6.578   1.788  0.0129 -0.0430 -0.1545
 2767SOL     OW 9199   1.522   2.995   2.168 -0.2098 -0.2047  0.1346
 2767SOL    HW1 9200   1.519   3.088   2.205  0.7342 -0.2315  0.3004
 2767SOL    HW2 9201   1.527   3.000   2.068  1.5332 -0.0108  0.2006
 2768SOL     OW 9202   4.081   2.384   1.641 -0.2391 -0.2208  0.6561
 2768SOL    HW1 9203   3.984   2.407   1.630 -0.3469 -1.0879 -0.2752
 2768SOL    HW2 9204   4.115   2.341   1.558  0.7260 -0.7408  1.3023
 2769SOL     OW 9205   3.057   0.041   1.428 -0.6043  0.2028 -0.4147
 2769SOL    HW1 9206   3.053   0.122   1.485 -1.5238 -0.1699  0.0762
 2769SOL    HW2 9207   2.987   0.047   1.356 -1.1248 -0.4238  0.0175
 2770SOL     OW 9208   0.694   0.775   5.690  0.5099 -0.5491 -0.7550
 2770SOL    HW1 9209   0.652   0.842   5.752  1.4797 -0.1181 -0.5473
 2770SOL    HW2 9210   0.707   0.689   5.738  0.0586 -0.6284 -0.7639
 2771SOL     OW 9211   5.991   3.357   4.790  0.0465 -0.0900 -0.0083
 2771SOL    HW1 9212   5.914   3.417   4.811  1.3671  1.6279  0.1033
 2771SOL    HW2 9213   5.980   3.320   4.697 -0.9517  0.0235  0.0541
 2772SOL     OW 9214   3.399   3.124   5.513  0.1929  0.0971  0.0324
 2772SOL    HW1 9215   3.457   3.050   5.479  0.7473  0.5596 -0.0438
 2772SOL    HW2 9216   3.390   3.194   5.442  1.0019  0.8694  0.6708
 2773SOL     OW 9217   3.097   2.675   5.476 -0.3713  0.2613 -0.3416
 2773SOL    HW1 9218   3.180   2.670   5.419  0.4933  0.1931  0.8834
 2773SOL    HW2 9219   3.075   2.770   5.494  2.4338  0.4575  3.4031
 2774SOL     OW 9220   6.193   6.960   1.599  0.7127 -0.1459 -0.3631
 2774SOL    HW1 9221   6.137   6.879   1.618  0.2977  0.2694  0.2132
 2774SOL    HW2 9222   6.247   6.983   1.680  0.7486  0.2134 -0.4863
 2775SOL     OW 9223   0.031   4.834   6.304 -0.1764  0.1425  0.6387
 2775SOL    HW1 9224  -0.011   4.907   6.357 -1.0909  1.0521 -1.2646
 2775SOL    HW2 9225   0.105   4.793   6.357 -1.2458  0.7753  2.7217
 2776SOL     OW 9226   2.221   4.828   5.007  0.0693  0.8950 -0.3568
 2776SOL    HW1 9227   2.149   4.759   5.005  0.5914  0.3484 -1.7699
 2776SOL    HW2 9228   2.286   4.807   5.080 -1.6285  1.8948  1.5288
 2777SOL     OW 9229   0.075   0.906   5.082 -0.3905  0.5886 -0.2225
 2777SOL    HW1 9230   0.156   0.964   5.092 -0.2398 -0.0069  4.5478
 2777SOL    HW2 9231   0.103   0.815   5.050  0.4161  1.1117 -1.0363
 2778SOL     OW 9232   5.746   6.449   1.993  0.4498  0.0148 -0.1873
 2778SOL    HW1 9233   5.825   6.412   1.946  0.2890 -0.8683  0.2191
 2778SOL    HW2 9234   5.663   6.401   1.964  0.1909  0.2791  0.0981
 2779SOL     OW 9235   3.221   1.292   4.988  0.3585  0.1402 -0.2670
 2779SOL    HW1 9236   3.200   1.351   5.066  0.0456 -0.3544  0.0247
 2779SOL    HW2 9237   3.251   1.203   5.020 -0.6938 -0.3872 -0.7165
 2780SOL     OW 9238   6.991   1.913   1.902 -0.2093  0.3651 -0.4823
 2780SOL    HW1 9239   6.995   1.814   1.890 -1.6281  0.3448 -0.9587
 2780SOL    HW2 9240   7.080   1.947   1.932 -0.0508 -1.2043  0.9391
 2781SOL     OW 9241   4.942   2.203   2.604  0.3066 -1.1097 -0.1183
 2781SOL    HW1 9242   4.850   2.187   2.567  0.7001 -1.1879 -1.1029
 2781SOL    HW2 9243   4.936   2.264   2.683 -0.6184 -1.3505  0.0120
 2782SOL     OW 9244   4.809   0.904   1.394  0.1692  0.5397 -0.1870
 2782SOL    HW1 9245   4.907   0.916   1.407  0.2798 -0.9351  0.5695
 2782SOL    HW2 9246   4.792   0.823   1.337 -0.6268 -0.3243  1.2265
 2783SOL     OW 9247   5.590   5.502   3.535  0.1841 -0.2050 -0.2086
 2783SOL    HW1 9248   5.538   5.546   3.462 -0.9868 -3.2309 -1.3395
 2783SOL    HW2 9249   5.544   5.516   3.623  0.3340  1.4634 -0.3600
 2784SOL     OW 9250   2.342   0.748   0.247  0.0795  0.2074  0.0527
 2784SOL    HW1 9251   2.381   0.662   0.279  0.0991  0.0018 -0.5154
 2784SOL    HW2 9252   2.257   0.767   0.297  1.1629  0.9350  1.6916
 2785SOL     OW 9253   6.715   2.245   5.079  0.0847  0.2562  0.1143
 2785SOL    HW1 9254   6.717   2.324   5.019 -0.3047  1.6647  1.8588
 2785SOL    HW2 9255   6.660   2.172   5.038  0.6907  0.7528 -1.6519
 2786SOL     OW 9256   3.164   5.445   5.429 -0.3661 -0.0578  0.8486
 2786SOL    HW1 9257   3.160   5.515   5.358 -2.1786 -1.4103 -0.4780
 2786SOL    HW2 9258   3.259   5.427   5.453  0.2221  1.3290 -0.2966
 2787SOL     OW 9259   1.450   4.961   6.474 -0.2999 -0.3253 -0.5438
 2787SOL    HW1 9260   1.488   4.911   6.397 -0.9739 -0.0569 -1.0669
 2787SOL    HW2 9261   1.352   4.941   6.481 -0.1553 -0.7356  0.5509
 2788SOL     OW 9262   6.054   6.737   1.179  0.3075 -0.4413  0.4737
 2788SOL    HW1 9263   6.095   6.677   1.110  0.2085 -0.3608  0.3461
 2788SOL    HW2 9264   6.125   6.768   1.242  1.0019  1.9508 -1.3514
 2789SOL     OW 9265   5.347   6.134   0.078 -0.0793 -0.2467 -0.2649
 2789SOL    HW1 9266   5.276   6.202   0.061  0.5615  0.8918  1.3932
 2789SOL    HW2 9267   5.327   6.085   0.162  0.9569 -0.0812  0.0928
 2790SOL     OW 9268   2.084   1.119   2.447 -0.0538 -0.3706  0.7306
 2790SOL    HW1 9269   2.147   1.126   2.369 -0.0481 -0.0150  0.7656
 2790SOL    HW2 9270   2.016   1.191   2.440  1.4807  1.3371  2.4476
 2791SOL     OW 9271   5.416   4.222   0.395  0.1676  0.3940  0.4420
 2791SOL    HW1 9272   5.478   4.275   0.453  1.1196  0.9409 -1.0102
 2791SOL    HW2 9273   5.470   4.163   0.334 -0.4475  2.9270 -2.8383
 2792SOL     OW 9274   4.211   5.353   0.639  0.1960 -0.8820  0.0182
 2792SOL    HW1 9275   4.242   5.409   0.715  2.9469  0.0774 -1.6862
 2792SOL    HW2 9276   4.130   5.394   0.598  0.5287  0.2993  0.5112
 2793SOL     OW 9277   4.808   5.663   2.215 -0.1666  0.4555 -0.1987
 2793SOL    HW1 9278   4.870   5.718   2.272 -0.9348 -1.1717  2.4142
 2793SOL    HW2 9279   4.746   5.723   2.166  0.9968  1.9948  0.1424
 2794SOL     OW 9280   0.571   5.630   6.766 -0.1427  0.7061  0.2764
 2794SOL    HW1 9281   0.612   5.539   6.777  0.3030  0.7990 -0.5566
 2794SOL    HW2 9282   0.509   5.648   6.843  0.6126  0.1578  1.0365
 2795SOL     OW 9283   0.199   5.621   0.331  0.2669  0.5015  0.1391
 2795SOL    HW1 9284   0.195   5.571   0.245 -2.0348  2.0838 -0.7580
 2795SOL    HW2 9285   0.285   5.673   0.336  0.5063  0.2439 -1.0915
 2796SOL     OW 9286   0.055   0.651   5.351  0.0104 -0.2107 -0.0788
 2796SOL    HW1 9287   0.088   0.598   5.430 -0.0962 -0.9135 -0.4970
 2796SOL    HW2 9288   0.056   0.748   5.374 -1.8399 -0.4822  1.5177
 2797SOL     OW 9289   0.078   6.633   0.705  0.5653  0.5422 -0.4748
 2797SOL    HW1 9290   0.080   6.722   0.750  0.7058  0.9355 -1.2395
 2797SOL    HW2 9291  -0.016   6.611   0.680  0.4940  0.3458 -0.0366
 2798SOL     OW 9292   3.540   1.467   3.954  0.2610 -0.4345 -0.0250
 2798SOL    HW1 9293   3.626   1.503   3.991  0.0725 -1.7368  1.8517
 2798SOL    HW2 9294   3.526   1.373   3.987 -1.0041 -0.9182 -1.7907
 2799SOL     OW 9295   5.918   0.770   5.456 -0.3324 -0.0171  0.1093
 2799SOL    HW1 9296   5.994   0.747   5.516 -0.7730  0.5602  0.9046
 2799SOL    HW2 9297   5.882   0.687   5.414  0.7693 -0.2897 -0.3300
 2800SOL     OW 9298   1.195   6.575   2.025 -0.3826 -0.6777  0.0512
 2800SOL    HW1 9299   1.235   6.497   1.977  1.3771  0.8251 -1.0176
 2800SOL    HW2 9300   1.132   6.623   1.965  0.4164  0.1295 -0.1649
 2801SOL     OW 9301   3.847   4.920   4.218 -0.2719  0.2908  0.5224
 2801SOL    HW1 9302   3.782   4.994   4.202  1.1130  2.1771  2.8658
 2801SOL    HW2 9303   3.844   4.893   4.314  1.1619 -0.8226  0.2884
 2802SOL     OW 9304   6.566   3.092   1.140 -0.5437  0.1833  0.2019
 2802SOL    HW1 9305   6.493   3.140   1.091  2.0778  1.3814 -2.9054
 2802SOL    HW2 9306   6.591   3.010   1.090 -0.3692 -0.7435  1.7654
 2803SOL     OW 9307   4.076   1.599   2.287  0.1824 -0.3098 -0.3768
 2803SOL    HW1 9308   4.014   1.648   2.225  1.7658  0.3111 -1.5254
 2803SOL    HW2 9309   4.093   1.507   2.250  0.1826 -0.3812 -0.2016
 2804SOL     OW 9310   6.154   1.823   6.996  0.4567 -0.2773  0.3564
 2804SOL    HW1 9311   6.179   1.799   6.903 -1.9054 -1.7513  0.0369
 2804SOL    HW2 9312   6.098   1.750   7.036  0.4479  0.8377  2.5469
 2805SOL     OW 9313   2.237   1.794   0.956 -0.0437 -0.3646  0.2364
 2805SOL    HW1 9314   2.270   1.735   0.882  0.4254 -0.1179  0.2436
 2805SOL    HW2 9315   2.305   1.797   1.029 -0.3915 -0.4006  0.5687
 2806SOL     OW 9316   0.376   4.410   2.966  0.1387  1.1721  0.4431
 2806SOL    HW1 9317   0.288   4.447   2.997 -0.0554  0.4355  0.7959
 2806SOL    HW2 9318   0.394   4.441   2.873 -0.7979  0.8343  0.1367
 2807SOL     OW 9319   4.606   4.256   5.691 -0.8950 -0.9336 -0.0967
 2807SOL    HW1 9320   4.641   4.237   5.783  0.8348  1.6193 -0.1265
 2807SOL    HW2 9321   4.682   4.260   5.626 -1.4452  1.9580 -0.7051
 2808SOL     OW 9322   0.039   0.785   4.373 -0.3867 -0.0669 -0.8273
 2808SOL    HW1 9323  -0.024   0.848   4.328 -0.9525  0.0816  0.1386
 2808SOL    HW2 9324   0.111   0.836   4.419 -1.3103 -0.0361  0.6583
 2809SOL     OW 9325   1.156   6.929   4.218 -0.6235 -0.0297  0.3650
 2809SOL    HW1 9326   1.246   6.969   4.235 -1.1630  0.6197  1.9069
 2809SOL    HW2 9327   1.109   6.981   4.147  0.9305 -1.5851 -1.9479
 2810SOL     OW 9328   3.767   2.503   6.691  0.4661  0.4171  0.4005
 2810SOL    HW1 9329   3.820   2.488   6.607 -0.0177  1.2223 -0.0691
 2810SOL    HW2 9330   3.766   2.601   6.712 -1.2784  0.4898  0.0811
 2811SOL     OW 9331   0.367   4.563   0.008  0.0289  0.0284 -0.2983
 2811SOL    HW1 9332   0.313   4.635   0.051  0.0539 -1.1875  1.9178
 2811SOL    HW2 9333   0.461   4.567   0.041  0.7356  0.5834 -2.2256
 2812SOL     OW 9334   4.969   2.223   2.186 -0.2129  0.0473  0.2356
 2812SOL    HW1 9335   4.889   2.249   2.132 -1.2307  1.3339  2.2389
 2812SOL    HW2 9336   4.957   2.130   2.221 -0.5140 -0.0154 -0.0279
 2813SOL     OW 9337   2.565   6.336   6.913  0.2894 -0.0978  0.0141
 2813SOL    HW1 9338   2.487   6.396   6.899  1.1996  1.0967 -0.1251
 2813SOL    HW2 9339   2.541   6.243   6.886 -0.7678  0.4419 -0.9890
 2814SOL     OW 9340   3.309   5.984   4.807  0.1225  0.0993  0.0056
 2814SOL    HW1 9341   3.309   5.903   4.749  0.9896  1.1905 -1.6058
 2814SOL    HW2 9342   3.404   6.010   4.827 -0.1551  0.2211  1.2744
 2815SOL     OW 9343   2.926   2.612   1.270 -0.3033  0.2330  0.3158
 2815SOL    HW1 9344   2.828   2.589   1.277 -0.0528 -1.2111 -0.4924
 2815SOL    HW2 9345   2.981   2.532   1.293  0.6257 -0.3102 -3.1166
 2816SOL     OW 9346   6.012   5.476   4.305 -0.2956  0.1818 -0.4258
 2816SOL    HW1 9347   6.077   5.420   4.356 -0.0065  1.2811  0.4738
 2816SOL    HW2 9348   6.009   5.446   4.209  1.2134 -0.1724 -0.3823
 2817SOL     OW 9349   3.365   1.145   6.826  0.3277  0.4853  1.0245
 2817SOL    HW1 9350   3.361   1.211   6.901  0.4678  1.2105  0.4078
 2817SOL    HW2 9351   3.399   1.057   6.861 -1.7394  0.1122  2.2595
 2818SOL     OW 9352   6.618   5.826   4.823  0.5882 -0.4204 -0.1313
 2818SOL    HW1 9353   6.652   5.875   4.742  0.8967 -0.3201  0.0556
 2818SOL    HW2 9354   6.681   5.752   4.845  0.9982  0.1182  0.5546
 2819SOL     OW 9355   6.179   0.907   3.296 -0.2542  0.4010 -0.5002
 2819SOL    HW1 9356   6.108   0.928   3.362 -0.5990 -1.2088 -0.3134
 2819SOL    HW2 9357   6.142   0.919   3.203 -0.5106  0.4048 -0.3999
 2820SOL     OW 9358   1.960   4.646   6.339  0.1982 -0.1849  0.7442
 2820SOL    HW1 9359   1.925   4.554   6.319 -2.0268  0.5083  1.1537
 2820SOL    HW2 9360   2.020   4.643   6.419  2.1286 -1.6042 -0.6566
 2821SOL     OW 9361   2.179   5.929   5.638  0.4640 -0.0197  0.0275
 2821SOL    HW1 9362   2.152   6.018   5.674  1.5507 -0.7684  2.9595
 2821SOL    HW2 9363   2.099   5.870   5.629 -0.2281  1.1239 -1.7340
 2822SOL     OW 9364   5.921   3.526   2.518 -0.2062 -0.0656  0.4742
 2822SOL    HW1 9365   5.941   3.471   2.437 -1.1657 -0.1417  0.2778
 2822SOL    HW2 9366   5.846   3.589   2.498 -1.2526 -0.8912  1.6233
 2823SOL     OW 9367   1.637   5.561   0.292  0.1266  0.0218 -0.0857
 2823SOL    HW1 9368   1.625   5.510   0.377 -0.9171  0.7183  0.1962
 2823SOL    HW2 9369   1.632   5.659   0.310 -1.1323  0.1644 -1.0850
 2824SOL     OW 9370   1.396   0.198   0.240  0.5646 -0.4837  0.1189
 2824SOL    HW1 9371   1.308   0.205   0.287  1.3688  0.0538  1.6058
 2824SOL    HW2 9372   1.469   0.187   0.307  1.7618  0.2025 -1.0295
 2825SOL     OW 9373   3.749   2.115   3.523 -0.3678 -0.3604 -0.0181
 2825SOL    HW1 9374   3.821   2.118   3.592  0.4363 -1.3560 -0.7920
 2825SOL    HW2 9375   3.678   2.052   3.552 -0.2405 -0.4546  0.0901
 2826SOL     OW 9376   6.632   5.680   1.801 -0.2241  0.2811  0.0363
 2826SOL    HW1 9377   6.557   5.626   1.764  0.2904 -0.9862  0.8123
 2826SOL    HW2 9378   6.702   5.692   1.730 -0.1922 -0.3532 -0.0443
 2827SOL     OW 9379   2.092   3.883   4.169 -0.4690  0.1068 -0.4665
 2827SOL    HW1 9380   2.163   3.953   4.165 -1.6847  1.3141 -1.7817
 2827SOL    HW2 9381   2.109   3.814   4.098 -0.9682  0.7768 -1.2540
 2828SOL     OW 9382   5.861   1.939   4.894 -0.1235  0.3979  0.2299
 2828SOL    HW1 9383   5.906   1.929   4.805  0.1255 -0.0927  0.4035
 2828SOL    HW2 9384   5.911   2.007   4.949  1.4526 -1.3155  1.0413
 2829SOL     OW 9385   6.763   3.450   3.968 -0.1588 -0.2052  0.3192
 2829SOL    HW1 9386   6.840   3.423   3.910  1.4050  0.3039  2.0691
 2829SOL    HW2 9387   6.769   3.548   3.988 -0.7171 -0.3394  1.2145
 2830SOL     OW 9388   1.466   2.493   0.470  0.0336 -0.2601 -0.2456
 2830SOL    HW1 9389   1.429   2.400   0.470  1.4367 -0.8459  0.8656
 2830SOL    HW2 9390   1.459   2.532   0.562 -0.6484  0.8018 -0.7259
 2831SOL     OW 9391   2.204   2.999   3.797  0.1802 -0.1073  0.1351
 2831SOL    HW1 9392   2.244   3.084   3.761 -0.5246  0.2740  0.2453
 2831SOL    HW2 9393   2.108   2.994   3.772  0.4797 -1.4574 -0.9057
 2832SOL     OW 9394   3.905   3.842   3.375  0.8764  0.3585 -0.1205
 2832SOL    HW1 9395   3.834   3.912   3.381 -1.7730 -2.1355 -0.0068
 2832SOL    HW2 9396   3.934   3.832   3.279 -0.6271 -0.0788 -0.5556
 2833SOL     OW 9397   5.453   5.106   4.306 -0.2500 -0.5480  0.2166
 2833SOL    HW1 9398   5.500   5.077   4.223  0.0320  1.4033 -0.3658
 2833SOL    HW2 9399   5.508   5.177   4.352 -0.4843 -1.4509  1.9820
 2834SOL     OW 9400   5.414   3.055   2.915 -0.6357 -0.4138  0.1269
 2834SOL    HW1 9401   5.386   3.041   2.820 -0.0791  0.1326 -0.1248
 2834SOL    HW2 9402   5.351   3.119   2.960 -0.9738 -0.7711  0.1690
 2835SOL     OW 9403   3.377   0.548   2.434  0.3615 -0.1681  0.4087
 2835SOL    HW1 9404   3.331   0.576   2.349 -0.5115 -1.2077  0.5122
 2835SOL    HW2 9405   3.471   0.523   2.413  1.7540  4.1524  0.5425
 2836SOL     OW 9406   3.854   6.107   5.731 -0.0385 -0.5075 -0.1645
 2836SOL    HW1 9407   3.924   6.153   5.677 -0.4058 -1.1097 -1.1830
 2836SOL    HW2 9408   3.786   6.066   5.670 -0.6561 -0.9151  0.7691
 2837SOL     OW 9409   0.070   2.827   6.550 -0.3608 -0.4844  0.5080
 2837SOL    HW1 9410   0.050   2.781   6.637 -0.8297 -0.8061  0.2361
 2837SOL    HW2 9411  -0.007   2.885   6.525 -0.1049 -0.1678  0.4462
 2838SOL     OW 9412   1.452   3.277   5.436  0.1132 -0.3808 -0.2462
 2838SOL    HW1 9413   1.422   3.185   5.410  0.0814 -0.4913  0.1874
 2838SOL    HW2 9414   1.516   3.311   5.367 -0.7626 -0.2588 -1.0293
 2839SOL     OW 9415   0.535   1.261   3.176 -0.3280  0.1710  0.4096
 2839SOL    HW1 9416   0.550   1.347   3.127  0.7761 -0.3344 -0.1817
 2839SOL    HW2 9417   0.580   1.265   3.265 -1.1202  0.5590  0.8026
 2840SOL     OW 9418   5.581   2.232   4.652  0.6485  0.5149  0.6347
 2840SOL    HW1 9419   5.520   2.193   4.721 -1.6183  0.8890 -1.0820
 2840SOL    HW2 9420   5.540   2.315   4.614  1.4958 -0.0693 -1.6647
 2841SOL     OW 9421   2.537   6.528   4.585 -0.0889 -0.1042 -0.0946
 2841SOL    HW1 9422   2.546   6.624   4.612 -1.8422  0.2567 -0.6617
 2841SOL    HW2 9423   2.513   6.523   4.488  0.6326 -1.1648 -0.2416
 2842SOL     OW 9424   6.757   5.724   2.428 -0.6017  0.5251  0.0138
 2842SOL    HW1 9425   6.824   5.776   2.374 -1.1202 -0.5847 -1.7783
 2842SOL    HW2 9426   6.733   5.640   2.380 -0.6342 -0.8746  2.3018
 2843SOL     OW 9427   2.800   6.672   4.957  0.2479  0.0833 -0.1685
 2843SOL    HW1 9428   2.815   6.724   5.041  1.4735  0.6888 -0.7341
 2843SOL    HW2 9429   2.709   6.693   4.921  0.1007  0.5879  0.4741
 2844SOL     OW 9430   6.333   3.261   3.934 -0.0462  0.0714 -0.3977
 2844SOL    HW1 9431   6.316   3.353   3.970  0.0298 -0.0412 -0.0747
 2844SOL    HW2 9432   6.430   3.239   3.947 -0.4935 -0.9350  1.5621
 2845SOL     OW 9433   6.435   3.886   5.479 -0.2383  0.2180  0.6496
 2845SOL    HW1 9434   6.523   3.932   5.494 -0.5890  1.1978 -0.1721
 2845SOL    HW2 9435   6.384   3.935   5.409  0.2654 -2.6521 -1.9459
 2846SOL     OW 9436   0.128   2.837   4.081  0.5935 -0.0611  0.1343
 2846SOL    HW1 9437   0.201   2.856   4.147  0.8465 -0.7968  0.0807
 2846SOL    HW2 9438   0.168   2.794   4.000  0.3301  1.0965 -0.6384
 2847SOL     OW 9439   4.691   3.945   5.298  0.1543 -0.4040 -0.2090
 2847SOL    HW1 9440   4.616   3.912   5.355 -0.8340  1.1999 -0.5040
 2847SOL    HW2 9441   4.674   4.040   5.273  1.5468 -0.4680 -1.5524
 2848SOL     OW 9442   2.742   1.324   1.464  0.0059 -0.6025 -0.0305
 2848SOL    HW1 9443   2.712   1.394   1.399  0.3565  0.8570  1.2954
 2848SOL    HW2 9444   2.800   1.257   1.418 -1.0941 -0.5573 -1.5343
 2849SOL     OW 9445   0.070   0.687   1.123  0.4101 -0.0923 -0.2942
 2849SOL    HW1 9446   0.133   0.611   1.137 -0.1496 -1.1223 -2.7496
 2849SOL    HW2 9447   0.104   0.745   1.049 -0.2568  0.8300  0.1039
 2850SOL     OW 9448   6.939   5.198   0.226  0.0705  0.1656  0.1846
 2850SOL    HW1 9449   6.908   5.292   0.234  1.1496  0.6861 -1.2327
 2850SOL    HW2 9450   6.956   5.177   0.129 -1.1694 -1.8321  0.3438
 2851SOL     OW 9451   3.836   3.287   3.588 -0.1941 -0.4808  0.9636
 2851SOL    HW1 9452   3.837   3.383   3.557  3.4485  0.0017  2.0730
 2851SOL    HW2 9453   3.859   3.227   3.512 -1.4695 -0.4063  0.4996
 2852SOL     OW 9454   6.824   6.201   1.126  0.1614  0.6520 -0.5599
 2852SOL    HW1 9455   6.904   6.204   1.065 -1.4082 -2.1876 -3.0291
 2852SOL    HW2 9456   6.746   6.243   1.080 -0.9841 -1.2736 -0.4598
 2853SOL     OW 9457   6.289   2.099   5.188 -0.0739 -0.0762  0.6229
 2853SOL    HW1 9458   6.211   2.161   5.192 -0.0756  0.0358 -0.7526
 2853SOL    HW2 9459   6.257   2.007   5.165  0.0123 -0.4428  1.8980
 2854SOL     OW 9460   1.753   6.873   4.078 -0.2604 -0.3488  0.1342
 2854SOL    HW1 9461   1.770   6.844   4.172  0.9024 -1.7195 -0.4384
 2854SOL    HW2 9462   1.710   6.963   4.077 -0.8968 -0.5946  1.9725
 2855SOL     OW 9463   3.519   0.967   4.180  0.4262 -0.5229 -0.5519
 2855SOL    HW1 9464   3.611   0.987   4.146  1.7185 -0.0051  2.8797
 2855SOL    HW2 9465   3.511   0.869   4.200  0.4153 -0.4767 -0.3315
 2856SOL     OW 9466   3.288   6.196   2.041  0.2778 -0.0203 -0.7247
 2856SOL    HW1 9467   3.283   6.288   2.081 -0.2639  0.3456 -1.5957
 2856SOL    HW2 9468   3.384   6.166   2.040  0.1959 -0.6944  2.1783
 2857SOL     OW 9469   0.750   6.232   3.185 -0.7908 -0.2215  0.0624
 2857SOL    HW1 9470   0.830   6.247   3.126  0.4572 -0.6038  1.5913
 2857SOL    HW2 9471   0.744   6.307   3.251 -0.7431 -1.0169  0.9838
 2858SOL     OW 9472   0.379   1.702   6.020 -0.5130 -0.6113  0.7555
 2858SOL    HW1 9473   0.424   1.671   5.936  2.3849 -0.6397  2.2090
 2858SOL    HW2 9474   0.358   1.799   6.012 -1.6581 -0.9252 -0.5116
 2859SOL     OW 9475   6.380   3.989   0.200 -0.7087  0.3106 -0.2234
 2859SOL    HW1 9476   6.280   3.998   0.200 -0.6396  1.3266 -1.4290
 2859SOL    HW2 9477   6.405   3.892   0.193 -1.5854 -0.0227  0.9038
 2860SOL     OW 9478   6.415   1.201   2.267 -0.0833  0.4099 -0.2599
 2860SOL    HW1 9479   6.422   1.219   2.169  0.0266  0.3047 -0.2731
 2860SOL    HW2 9480   6.507   1.183   2.303 -0.1069  0.5980 -0.1093
 2861SOL     OW 9481   3.422   3.264   4.442 -0.0046 -0.5314 -0.6344
 2861SOL    HW1 9482   3.407   3.236   4.347 -0.0215  1.5480 -1.2963
 2861SOL    HW2 9483   3.439   3.363   4.445  2.4612 -0.9261  1.2753
 2862SOL     OW 9484   1.780   2.819   6.120 -0.3566 -1.1727  0.0638
 2862SOL    HW1 9485   1.713   2.777   6.060 -1.1101  0.8903 -0.6320
 2862SOL    HW2 9486   1.783   2.918   6.104  1.8778 -0.9988  1.0421
 2863SOL     OW 9487   3.858   5.163   5.052 -0.2187  0.1450  0.6938
 2863SOL    HW1 9488   3.770   5.135   5.088  0.7871 -1.5413  2.0077
 2863SOL    HW2 9489   3.899   5.232   5.111  0.1417 -0.4421  1.1359
 2864SOL     OW 9490   0.357   3.578   6.356  0.3543  0.5528  0.2690
 2864SOL    HW1 9491   0.375   3.480   6.343 -1.3442 -0.0873  2.1175
 2864SOL    HW2 9492   0.405   3.610   6.438  2.0520  1.6926 -1.0931
 2865SOL     OW 9493   3.572   5.952   2.567 -0.5819 -0.1726  0.2025
 2865SOL    HW1 9494   3.668   5.957   2.595 -0.2388  0.8098 -1.0360
 2865SOL    HW2 9495   3.557   5.867   2.517  0.1206  0.4642 -1.1511
 2866SOL     OW 9496   6.900   5.341   2.769 -0.1709 -0.3813  0.6502
 2866SOL    HW1 9497   6.940   5.311   2.683  1.9031 -0.9720  1.7486
 2866SOL    HW2 9498   6.853   5.428   2.756 -0.6359 -0.8796 -1.2260
 2867SOL     OW 9499   4.190   0.697   4.480  0.1702 -0.2771  0.2067
 2867SOL    HW1 9500   4.161   0.605   4.504  0.0398 -0.5444 -0.8972
 2867SOL    HW2 9501   4.252   0.732   4.550 -0.6205 -0.7754  1.1746
 2868SOL     OW 9502   4.466   3.549   7.006  1.0339  0.1033  0.6090
 2868SOL    HW1 9503   4.554   3.548   6.957 -0.3087 -1.9557 -2.0475
 2868SOL    HW2 9504   4.456   3.463   7.056  0.5064  0.3337  0.8990
 2869SOL     OW 9505   2.330   4.242   3.839  0.4161  0.1811  0.4319
 2869SOL    HW1 9506   2.348   4.278   3.931  0.7147  0.7342  0.1583
 2869SOL    HW2 9507   2.246   4.188   3.841  1.2104 -1.0956  1.3833
 2870SOL     OW 9508   2.074   1.313   1.568  0.1324 -0.4813  0.1105
 2870SOL    HW1 9509   2.140   1.247   1.605 -0.4741  0.3099  2.8331
 2870SOL    HW2 9510   2.118   1.402   1.559 -0.3527 -0.0997  1.3369
 2871SOL     OW 9511   0.648   5.639   1.162 -0.0974  0.3051  0.0969
 2871SOL    HW1 9512   0.661   5.598   1.252  2.7336  3.3711  1.2848
 2871SOL    HW2 9513   0.690   5.580   1.092  3.1953  0.6002  1.6307
 2872SOL     OW 9514   5.877   5.245   6.740 -0.1290 -0.5953 -0.2915
 2872SOL    HW1 9515   5.794   5.286   6.780  0.5884  0.1423  0.4839
 2872SOL    HW2 9516   5.956   5.271   6.795  0.4162 -2.7470  0.0290
 2873SOL     OW 9517   5.954   0.067   4.165 -0.1480 -0.1221  0.6099
 2873SOL    HW1 9518   6.010   0.075   4.082 -1.8971 -2.6251 -0.9552
 2873SOL    HW2 9519   5.972  -0.020   4.210 -1.9039 -0.4826  0.7029
 2874SOL     OW 9520   4.905   3.841   3.824  0.6691 -0.4533 -0.3698
 2874SOL    HW1 9521   4.971   3.771   3.850 -0.6980 -1.1605  1.3707
 2874SOL    HW2 9522   4.865   3.819   3.736  0.8930 -1.3993 -0.2381
 2875SOL     OW 9523   4.068   6.013   3.975 -0.1478  0.0964 -0.4630
 2875SOL    HW1 9524   3.995   5.948   3.952 -0.3530  0.1758 -0.0476
 2875SOL    HW2 9525   4.034   6.106   3.965 -0.1053  0.1335 -0.2751
 2876SOL     OW 9526   0.505   5.595   3.963 -0.5136 -0.2625 -0.1656
 2876SOL    HW1 9527   0.584   5.621   4.018 -2.1148  0.8594  1.7353
 2876SOL    HW2 9528   0.502   5.652   3.880 -0.1765  0.8066  0.5372
 2877SOL     OW 9529   5.961   1.638   3.835  0.1237  0.3208 -0.5010
 2877SOL    HW1 9530   5.913   1.683   3.911 -0.7033 -1.7080  0.2422
 2877SOL    HW2 9531   5.894   1.610   3.765  0.2946 -1.6083  0.0573
 2878SOL     OW 9532   1.168   0.760   0.651 -0.0320  0.0682  0.0305
 2878SOL    HW1 9533   1.099   0.808   0.597  1.2107  0.8383 -0.9353
 2878SOL    HW2 9534   1.212   0.824   0.714 -0.7111 -0.5864  1.1958
 2879SOL     OW 9535   2.488   0.454   5.003  0.5470 -0.0873 -0.0868
 2879SOL    HW1 9536   2.561   0.417   5.060  0.3633 -2.4751 -1.2892
 2879SOL    HW2 9537   2.400   0.443   5.051  0.4987 -1.2890 -0.4076
 2880SOL     OW 9538   1.094   4.743   1.412  0.4430 -0.8195 -0.7230
 2880SOL    HW1 9539   1.104   4.766   1.315 -1.7482 -2.7391 -1.5094
 2880SOL    HW2 9540   1.078   4.645   1.421 -2.1733 -0.3152  1.3175
 2881SOL     OW 9541   5.812   2.420   3.739 -0.1223 -0.1912  0.2232
 2881SOL    HW1 9542   5.754   2.389   3.814 -0.3408 -1.2382 -0.3591
 2881SOL    HW2 9543   5.895   2.461   3.776  0.9948 -3.0046  1.0793
 2882SOL     OW 9544   0.687   4.457   6.670 -0.3343 -0.0774 -0.2622
 2882SOL    HW1 9545   0.759   4.510   6.625  0.5208 -1.2032 -0.2671
 2882SOL    HW2 9546   0.616   4.433   6.604 -0.5443  0.7102 -0.3403
 2883SOL     OW 9547   3.996   0.247   6.650  0.1640 -0.1078  0.6364
 2883SOL    HW1 9548   3.962   0.333   6.612 -1.1736 -0.6293  0.5936
 2883SOL    HW2 9549   4.040   0.265   6.739 -0.5056  0.5694  0.8416
 2884SOL     OW 9550   6.760   6.460   5.809  0.7195 -0.3032 -0.0459
 2884SOL    HW1 9551   6.698   6.453   5.887  0.3068  0.9320 -0.2365
 2884SOL    HW2 9552   6.721   6.523   5.741  2.2514  0.6307 -0.0930
 2885SOL     OW 9553   4.370   5.755   1.924 -0.5361  0.3620 -0.2499
 2885SOL    HW1 9554   4.278   5.721   1.906 -1.2016  1.3719  1.0637
 2885SOL    HW2 9555   4.437   5.686   1.894 -1.6404  0.0399 -2.1695
 2886SOL     OW 9556   2.168   3.796   6.970 -0.4111 -0.2393  0.2666
 2886SOL    HW1 9557   2.255   3.801   7.019 -0.0571  0.3946 -0.3935
 2886SOL    HW2 9558   2.108   3.729   7.014 -0.1994  0.4696  1.6812
 2887SOL     OW 9559   5.329   0.260   4.596 -0.6507 -0.1189  0.0707
 2887SOL    HW1 9560   5.354   0.217   4.509 -1.7919 -1.4830  0.3713
 2887SOL    HW2 9561   5.329   0.190   4.668 -1.0637  0.7188  0.9006
 2888SOL     OW 9562   3.879   2.058   6.363  0.4693  0.3815 -0.1948
 2888SOL    HW1 9563   3.853   1.990   6.294  0.6218  2.5889 -2.5967
 2888SOL    HW2 9564   3.954   2.022   6.418 -0.4037 -1.9089 -0.3631
 2889SOL     OW 9565   1.791   4.749   4.824 -0.4881 -0.5579 -0.1397
 2889SOL    HW1 9566   1.730   4.765   4.746 -0.7382  0.2468  0.2138
 2889SOL    HW2 9567   1.763   4.807   4.900  1.2456  0.4811 -0.2496
 2890SOL     OW 9568   3.163   1.108   6.649 -0.1315 -0.4083  0.2687
 2890SOL    HW1 9569   3.138   1.013   6.635  0.1345 -0.5457  0.6956
 2890SOL    HW2 9570   3.246   1.113   6.705  0.2714  0.0521 -0.3538
 2891SOL     OW 9571   4.152   5.797   0.350  0.1007  0.4907  0.4485
 2891SOL    HW1 9572   4.234   5.818   0.298  1.0474  0.0409  1.7063
 2891SOL    HW2 9573   4.074   5.788   0.288  1.1022  0.3367 -0.8227
 2892SOL     OW 9574   3.273   3.564   6.262 -0.8339  0.8253 -0.3991
 2892SOL    HW1 9575   3.338   3.523   6.325 -0.4557  0.0907 -1.2537
 2892SOL    HW2 9576   3.309   3.652   6.229  0.0761  0.1120 -1.3906
 2893SOL     OW 9577   0.785   5.616   6.107 -0.1011 -0.0646 -0.1826
 2893SOL    HW1 9578   0.837   5.533   6.130 -1.1298 -0.6913 -0.0112
 2893SOL    HW2 9579   0.688   5.600   6.127 -0.4807  0.7631 -1.3056
 2894SOL     OW 9580   0.886   2.619   1.214  0.6035  0.1962  0.6563
 2894SOL    HW1 9581   0.960   2.561   1.247  0.6743  0.0209  0.2079
 2894SOL    HW2 9582   0.903   2.714   1.240  0.0779 -0.0810  2.0962
 2895SOL     OW 9583   2.757   6.033   4.502 -0.2508  0.4261  0.3879
 2895SOL    HW1 9584   2.727   5.988   4.586 -1.2866 -0.7067 -0.5464
 2895SOL    HW2 9585   2.743   5.971   4.425  0.9141  1.3434 -0.6017
 2896SOL     OW 9586   5.845   2.151   5.332 -0.2603 -0.2098 -0.2264
 2896SOL    HW1 9587   5.865   2.119   5.239  1.8110 -0.2271  0.1930
 2896SOL    HW2 9588   5.877   2.083   5.398 -1.9829 -0.3329  0.5464
 2897SOL     OW 9589   4.889   3.666   2.590  0.2711 -0.3082  0.1687
 2897SOL    HW1 9590   4.942   3.590   2.628  0.4313 -0.8604 -1.1045
 2897SOL    HW2 9591   4.873   3.734   2.661  0.4177 -1.3691  1.2561
 2898SOL     OW 9592   3.638   5.912   3.254 -0.1467  0.4155  0.3164
 2898SOL    HW1 9593   3.676   5.916   3.346 -0.4696  0.7912  0.4382
 2898SOL    HW2 9594   3.555   5.857   3.255  1.4189 -2.0824 -0.3286
 2899SOL     OW 9595   5.489   1.998   2.777  0.5496 -0.1682 -0.0648
 2899SOL    HW1 9596   5.570   1.982   2.833  0.1815 -1.2078  0.1846
 2899SOL    HW2 9597   5.413   2.026   2.835  0.2671 -0.8908 -0.0753
 2900SOL     OW 9598   5.620   4.983   5.371 -0.1993  0.2005  0.2065
 2900SOL    HW1 9599   5.710   5.025   5.384  0.5592 -1.3799  0.2251
 2900SOL    HW2 9600   5.587   4.948   5.458 -0.4809  0.0764  0.0496
 2901SOL     OW 9601   6.647   3.197   2.291 -0.4602 -0.5852  0.1744
 2901SOL    HW1 9602   6.678   3.142   2.368 -0.5134 -2.3181 -0.9803
 2901SOL    HW2 9603   6.567   3.153   2.248  0.0116 -0.0775 -1.2993
 2902SOL     OW 9604   3.285   4.103   4.006 -1.1499  0.5977  0.0326
 2902SOL    HW1 9605   3.293   4.015   3.959  0.7606  0.5660  0.3603
 2902SOL    HW2 9606   3.255   4.088   4.100  0.6119  0.1379  0.5456
 2903SOL     OW 9607   5.118   3.196   3.442  0.1971  1.0048  0.2146
 2903SOL    HW1 9608   5.178   3.151   3.376 -1.5349  0.4636 -1.0609
 2903SOL    HW2 9609   5.103   3.291   3.413  0.7685  1.2712  0.7737
 2904SOL     OW 9610   3.584   5.509   2.947 -0.2803  0.3631 -0.8949
 2904SOL    HW1 9611   3.514   5.546   2.887 -0.7438 -0.0499 -0.6152
 2904SOL    HW2 9612   3.546   5.497   3.039 -0.0848 -0.6088 -0.9341
 2905SOL     OW 9613   1.402   5.687   5.936  0.1203 -0.5725 -0.0402
 2905SOL    HW1 9614   1.414   5.656   6.030 -1.6751  1.8517  1.1164
 2905SOL    HW2 9615   1.467   5.761   5.917 -0.4718 -0.0750 -0.1683
 2906SOL     OW 9616   5.873   4.937   2.338  0.1300  0.6320 -0.6825
 2906SOL    HW1 9617   5.943   4.875   2.301 -0.0564  0.0557 -0.0915
 2906SOL    HW2 9618   5.810   4.885   2.395  0.0971  1.4184  0.0121
 2907SOL     OW 9619   1.820   0.330   2.978  0.3878  0.2440  0.3857
 2907SOL    HW1 9620   1.741   0.282   3.015  0.7861  0.2457  1.2533
 2907SOL    HW2 9621   1.821   0.424   3.013  0.8855  0.1837  0.5316
 2908SOL     OW 9622   2.312   6.327   5.598  0.5231  0.6470  0.8614
 2908SOL    HW1 9623   2.400   6.367   5.623 -0.0850  3.4317 -1.0828
 2908SOL    HW2 9624   2.319   6.283   5.509  0.2269 -0.3105  1.2930
 2909SOL     OW 9625   2.138   2.933   5.635 -0.0908 -0.3068 -0.4985
 2909SOL    HW1 9626   2.211   2.976   5.582 -1.7184  1.8962 -1.0928
 2909SOL    HW2 9627   2.055   2.927   5.579 -1.0041 -0.6637  0.8472
 2910SOL     OW 9628   0.552   2.282   1.852 -0.8270  0.2746 -0.2341
 2910SOL    HW1 9629   0.637   2.318   1.815 -1.2293  0.6803 -0.7906
 2910SOL    HW2 9630   0.562   2.264   1.950 -0.2903  0.9008 -0.1686
 2911SOL     OW 9631   1.898   3.361   0.398 -0.1405 -0.0997  0.3997
 2911SOL    HW1 9632   1.870   3.450   0.360 -1.1929  0.7354  2.9253
 2911SOL    HW2 9633   1.963   3.376   0.473 -2.0446 -1.2310  2.3715
 2912SOL     OW 9634   5.268   7.009   5.361 -0.2300  0.6868 -0.0105
 2912SOL    HW1 9635   5.291   7.081   5.427  1.2833 -0.7691  1.1461
 2912SOL    HW2 9636   5.312   7.028   5.274 -1.7230  2.2976 -0.4795
 2913SOL     OW 9637   0.105   6.146   1.741  0.1063  0.3343  0.2090
 2913SOL    HW1 9638   0.028   6.083   1.740 -1.2603  1.8718  1.8549
 2913SOL    HW2 9639   0.119   6.185   1.650 -0.1869 -0.9464 -0.3994
 2914SOL     OW 9640   2.019   3.395   1.040  0.4862  0.5909 -0.5018
 2914SOL    HW1 9641   2.014   3.463   0.966  1.6332  1.3342  0.0671
 2914SOL    HW2 9642   1.987   3.436   1.125 -1.2221 -0.3932 -0.6447
 2915SOL     OW 9643   6.626   5.991   1.531 -0.5333 -0.3514 -0.0666
 2915SOL    HW1 9644   6.685   5.927   1.581 -0.7512 -1.2523 -0.9469
 2915SOL    HW2 9645   6.530   5.968   1.547 -0.6002 -0.8648 -1.1787
 2916SOL     OW 9646   4.899   3.522   4.602  0.0404 -0.6559 -0.4538
 2916SOL    HW1 9647   4.944   3.435   4.620  1.3131 -0.4812 -2.4304
 2916SOL    HW2 9648   4.902   3.580   4.684  1.7925 -1.3660  0.0212
 2917SOL     OW 9649   5.488   5.210   5.311 -0.0491 -0.8126 -0.0393
 2917SOL    HW1 9650   5.477   5.272   5.389 -2.5043 -0.6404 -0.4498
 2917SOL    HW2 9651   5.539   5.129   5.339  2.6047  0.9938  0.7002
 2918SOL     OW 9652   5.229   4.252   3.287  0.0549  0.1496  0.2433
 2918SOL    HW1 9653   5.275   4.318   3.346  0.2727 -0.3094  0.5892
 2918SOL    HW2 9654   5.278   4.165   3.289 -0.4373 -0.1356  0.0768
 2919SOL     OW 9655   3.171   6.052   5.037  0.2920  0.1408 -0.1746
 2919SOL    HW1 9656   3.077   6.024   5.057  0.0744  0.5917 -0.5439
 2919SOL    HW2 9657   3.203   6.004   4.955  1.0781 -1.4815  1.0209
 2920SOL     OW 9658   2.131   0.982   1.077  0.3154  0.4724 -0.1899
 2920SOL    HW1 9659   2.069   1.060   1.077  1.6947  1.5993  0.8958
 2920SOL    HW2 9660   2.223   1.011   1.050  0.1712 -1.4231 -3.2527
 2921SOL     OW 9661   1.459   4.665   0.074 -0.2095 -0.0274  0.2555
 2921SOL    HW1 9662   1.508   4.664   0.161  0.9699 -2.1401 -0.3621
 2921SOL    HW2 9663   1.416   4.755   0.061  1.7055  1.1909  1.8079
 2922SOL     OW 9664   4.867   6.494   4.510 -0.7974 -0.0844 -0.3030
 2922SOL    HW1 9665   4.912   6.455   4.590  0.0977 -0.2995 -0.8982
 2922SOL    HW2 9666   4.901   6.587   4.495  0.2422 -0.6001 -1.3372
 2923SOL     OW 9667   5.849   1.193   4.697 -0.6726  0.0740 -0.3871
 2923SOL    HW1 9668   5.813   1.109   4.738  0.8500 -0.9137 -1.0078
 2923SOL    HW2 9669   5.817   1.200   4.602  0.3810 -0.5975 -0.8101
 2924SOL     OW 9670   6.215   6.857   6.066  0.5072  0.5312  0.5894
 2924SOL    HW1 9671   6.227   6.813   6.155  2.6531  0.6441  0.4064
 2924SOL    HW2 9672   6.187   6.952   6.080 -0.2934  0.2316  1.0926
 2925SOL     OW 9673   1.422   1.709   3.850 -0.9687  0.0339 -1.0083
 2925SOL    HW1 9674   1.406   1.799   3.889  2.1004  1.4572 -2.6683
 2925SOL    HW2 9675   1.357   1.692   3.777 -1.8141  0.7368 -0.4336
 2926SOL     OW 9676   2.125   5.006   5.546  0.2072  0.2330  0.7845
 2926SOL    HW1 9677   2.108   5.056   5.462 -0.3729  0.0381  0.7815
 2926SOL    HW2 9678   2.062   5.037   5.617  1.2184  0.9629  1.3933
 2927SOL     OW 9679   2.693   0.192   0.686 -0.1871  0.8127  0.1187
 2927SOL    HW1 9680   2.681   0.283   0.645  2.4242 -0.2925 -3.6399
 2927SOL    HW2 9681   2.767   0.195   0.753 -0.4183  1.5118  0.3510
 2928SOL     OW 9682   0.109   0.474   6.714 -0.4914 -0.5718 -0.5385
 2928SOL    HW1 9683   0.071   0.473   6.806 -1.4193  1.1270 -0.8560
 2928SOL    HW2 9684   0.100   0.566   6.675 -0.8870 -1.4229 -2.6253
 2929SOL     OW 9685   0.001   0.522   2.348 -0.4055 -0.3332  0.0418
 2929SOL    HW1 9686  -0.033   0.548   2.258 -0.1159  0.1607  0.0697
 2929SOL    HW2 9687   0.071   0.452   2.339 -0.3823 -0.2885 -0.1158
 2930SOL     OW 9688   4.008   6.425   4.632 -0.3250 -0.0944  0.3763
 2930SOL    HW1 9689   4.064   6.433   4.549 -0.6325  2.4828  0.3406
 2930SOL    HW2 9690   4.061   6.379   4.704  1.0957  0.4619 -0.2892
 2931SOL     OW 9691   0.571   2.532   2.927  0.9041  0.2294 -0.2934
 2931SOL    HW1 9692   0.579   2.440   2.889  1.8297  0.9362 -1.9352
 2931SOL    HW2 9693   0.508   2.531   3.004  4.1323 -2.6594  2.6431
 2932SOL     OW 9694   4.878   1.484   5.637  0.2457 -0.4607 -0.5792
 2932SOL    HW1 9695   4.847   1.543   5.562  0.5240  0.0923 -0.2599
 2932SOL    HW2 9696   4.970   1.509   5.664  0.3175 -0.9585 -0.3484
 2933SOL     OW 9697   2.763   0.951   2.731  0.0566 -0.0161 -0.3203
 2933SOL    HW1 9698   2.835   0.961   2.799 -0.1305  0.6230 -0.2105
 2933SOL    HW2 9699   2.800   0.970   2.640  0.5403 -1.8157 -0.5280
 2934SOL     OW 9700   0.877   4.577   3.808  0.6197  0.6655 -0.0915
 2934SOL    HW1 9701   0.850   4.650   3.745  0.8425  1.9919  1.2872
 2934SOL    HW2 9702   0.968   4.543   3.783 -0.1296 -0.2926 -1.6947
 2935SOL     OW 9703   6.292   2.968   4.907 -0.6132  0.0405  0.1885
 2935SOL    HW1 9704   6.290   2.937   4.811 -0.0661 -1.0189  0.4987
 2935SOL    HW2 9705   6.209   2.936   4.953 -1.0169  0.8021  0.0040
 2936SOL     OW 9706   5.734   0.073   3.889 -0.1651 -0.2715 -0.0262
 2936SOL    HW1 9707   5.806   0.017   3.847 -0.1433 -0.4566  0.2512
 2936SOL    HW2 9708   5.776   0.150   3.937 -0.1356 -0.4557  0.2526
 2937SOL     OW 9709   0.955   2.152   6.911 -0.1460 -0.2910 -0.0880
 2937SOL    HW1 9710   0.915   2.092   6.981 -1.9174 -0.9850 -1.6259
 2937SOL    HW2 9711   1.055   2.147   6.917 -0.2148 -0.2128  2.4477
 2938SOL     OW 9712   1.310   4.158   2.060  0.0313 -0.1844 -0.3011
 2938SOL    HW1 9713   1.303   4.195   1.968  0.7608  0.0049 -0.2884
 2938SOL    HW2 9714   1.397   4.187   2.101 -0.1383 -0.5372  0.3226
 2939SOL     OW 9715   4.288   4.772   2.525  0.3424  0.3885  0.5425
 2939SOL    HW1 9716   4.212   4.796   2.586  1.0968  0.5130  1.4656
 2939SOL    HW2 9717   4.335   4.691   2.561  1.9977  1.6025  1.2399
 2940SOL     OW 9718   4.441   0.867   0.577 -0.1145  0.0759 -0.3672
 2940SOL    HW1 9719   4.483   0.876   0.487 -0.4718 -0.5996 -0.6111
 2940SOL    HW2 9720   4.440   0.956   0.623  1.3166  0.1524 -0.4633
 2941SOL     OW 9721   5.046   1.971   1.689  0.0488 -0.0442 -0.0566
 2941SOL    HW1 9722   5.018   2.049   1.746  0.2589  1.1651 -1.5344
 2941SOL    HW2 9723   5.096   2.005   1.609 -0.9797 -1.5971 -1.4196
 2942SOL     OW 9724   5.163   1.313   3.313 -0.9396  0.2590  0.0773
 2942SOL    HW1 9725   5.089   1.380   3.308  0.2771  1.5322 -2.0270
 2942SOL    HW2 9726   5.162   1.256   3.231 -1.1591 -1.5186  1.2494
 2943SOL     OW 9727   1.147   1.351   1.906  0.3557 -0.0859 -0.4334
 2943SOL    HW1 9728   1.121   1.425   1.968  0.1943  0.0428 -0.6533
 2943SOL    HW2 9729   1.231   1.308   1.939 -0.8046 -1.3571  0.9993
 2944SOL     OW 9730   4.998   5.308   6.441 -0.3269  0.2903  0.1230
 2944SOL    HW1 9731   5.091   5.342   6.452 -0.4716  1.0877 -0.9826
 2944SOL    HW2 9732   4.987   5.223   6.494  1.9178 -1.4900 -1.9966
 2945SOL     OW 9733   2.005   1.946   5.916  0.1836  0.0482 -0.1388
 2945SOL    HW1 9734   2.062   1.908   5.989  1.6280  0.4370 -1.0141
 2945SOL    HW2 9735   2.005   2.046   5.923  2.7454  0.3248 -2.2596
 2946SOL     OW 9736   0.607   3.460   1.824  0.1505 -0.6362 -0.2843
 2946SOL    HW1 9737   0.701   3.491   1.839  0.1092 -0.5835 -0.1331
 2946SOL    HW2 9738   0.573   3.495   1.737 -0.3447  0.8140  0.4625
 2947SOL     OW 9739   2.925   6.408   6.031  0.4030  0.0311  0.3514
 2947SOL    HW1 9740   2.894   6.451   5.945  1.3362 -0.1430 -0.0827
 2947SOL    HW2 9741   2.884   6.456   6.108 -1.1057 -0.3066 -0.1971
 2948SOL     OW 9742   3.361   0.525   0.240  0.1745 -0.2688 -0.4031
 2948SOL    HW1 9743   3.297   0.585   0.289  0.0820 -0.2921 -0.4949
 2948SOL    HW2 9744   3.391   0.571   0.157  0.7944  0.0211 -0.0297
 2949SOL     OW 9745   6.194   6.317   6.585  0.3422  0.2376 -0.1941
 2949SOL    HW1 9746   6.147   6.273   6.508 -2.1096  0.6181  0.9763
 2949SOL    HW2 9747   6.182   6.416   6.579  1.0469  0.3514  0.1384
 2950SOL     OW 9748   4.396   4.317   5.383  0.5055  0.1990  0.4588
 2950SOL    HW1 9749   4.360   4.363   5.464 -1.1547  0.1458 -0.1985
 2950SOL    HW2 9750   4.335   4.335   5.305  1.3340 -0.8287 -0.4600
 2951SOL     OW 9751   4.012   1.521   5.231  0.2302 -0.2235  0.8166
 2951SOL    HW1 9752   3.990   1.435   5.278 -1.0194 -0.1123  0.4864
 2951SOL    HW2 9753   3.927   1.572   5.214  0.9111  0.8849  0.6311
 2952SOL     OW 9754   2.677   0.677   2.746  0.1338  0.2570 -0.6225
 2952SOL    HW1 9755   2.672   0.646   2.651 -1.0059  0.7796 -0.7596
 2952SOL    HW2 9756   2.679   0.777   2.748 -2.0832  0.3533 -0.0901
 2953SOL     OW 9757   2.306   5.525   4.201 -0.5960 -0.1448 -0.2995
 2953SOL    HW1 9758   2.341   5.451   4.144  1.1218  0.6442 -0.3308
 2953SOL    HW2 9759   2.380   5.563   4.256 -1.2472  1.9961 -0.7693
 2954SOL     OW 9760   1.853   4.150   6.414  0.2742 -0.5479  0.1604
 2954SOL    HW1 9761   1.870   4.230   6.356 -1.1039 -0.7736 -0.5987
 2954SOL    HW2 9762   1.847   4.068   6.357 -0.3735 -0.8849  0.6952
 2955SOL     OW 9763   6.510   2.462   1.586 -0.4132  0.2877  0.3425
 2955SOL    HW1 9764   6.531   2.438   1.681  0.9377 -0.0623 -0.0274
 2955SOL    HW2 9765   6.487   2.559   1.580  1.7615  0.8846  0.7215
 2956SOL     OW 9766   0.264   3.945   1.067  0.1850  0.2199  0.0648
 2956SOL    HW1 9767   0.333   3.999   1.115 -1.3026  0.5548  1.9266
 2956SOL    HW2 9768   0.260   3.853   1.106 -1.8520  0.8462  1.5200
 2957SOL     OW 9769   5.825   3.084   0.120  0.1845  0.2639  0.0298
 2957SOL    HW1 9770   5.808   3.088   0.218  1.5660 -3.2462  0.5457
 2957SOL    HW2 9771   5.903   3.143   0.097  0.5457  0.2855  1.2505
 2958SOL     OW 9772   5.290   2.051   6.322  0.0372 -0.3538  0.5200
 2958SOL    HW1 9773   5.379   2.007   6.321  0.1497 -0.1197  0.3343
 2958SOL    HW2 9774   5.286   2.122   6.252 -0.2730 -0.3209  0.5665
 2959SOL     OW 9775   4.827   4.284   6.413  0.1805 -0.5465 -0.0559
 2959SOL    HW1 9776   4.789   4.256   6.324  0.5290 -0.4842 -0.2246
 2959SOL    HW2 9777   4.789   4.225   6.484 -0.4174 -0.3361 -0.1880
 2960SOL     OW 9778   4.323   5.716   6.440 -0.3831  0.2270  0.4234
 2960SOL    HW1 9779   4.387   5.689   6.512 -0.2043 -1.3271 -0.2571
 2960SOL    HW2 9780   4.352   5.674   6.353 -1.5932  0.5709 -0.1647
 2961SOL     OW 9781   5.571   2.053   3.989 -0.0735  0.0268 -0.4546
 2961SOL    HW1 9782   5.475   2.047   3.964 -0.1607 -1.8169  0.1893
 2961SOL    HW2 9783   5.623   1.981   3.943  0.6464 -0.2100  0.6807
 2962SOL     OW 9784   5.401   4.695   4.633 -0.4196 -0.1597 -0.6050
 2962SOL    HW1 9785   5.311   4.695   4.676 -0.8521  0.4390 -1.4740
 2962SOL    HW2 9786   5.393   4.725   4.538  0.9017  1.3694 -0.2711
 2963SOL     OW 9787   6.275   3.936   6.398  0.0143  0.2638  0.1018
 2963SOL    HW1 9788   6.183   3.976   6.392 -0.1671 -0.0377  0.7487
 2963SOL    HW2 9789   6.267   3.840   6.427  0.5037  0.0744 -0.3896
 2964SOL     OW 9790   5.316   2.008   5.885  0.0095 -0.1523 -0.2334
 2964SOL    HW1 9791   5.248   2.006   5.812 -1.3932  0.4493  1.0107
 2964SOL    HW2 9792   5.323   1.917   5.927  1.4175 -0.7120 -1.6094
 2965SOL     OW 9793   0.994   1.647   3.270 -0.2031 -0.2973 -0.2371
 2965SOL    HW1 9794   1.082   1.630   3.226  0.5350 -0.2837  1.1680
 2965SOL    HW2 9795   0.945   1.561   3.280 -0.4003 -0.2913 -1.1162
 2966SOL     OW 9796   5.030   4.810   5.778  0.0032  0.5678  0.6761
 2966SOL    HW1 9797   5.000   4.801   5.873 -3.4483 -0.1990 -0.3583
 2966SOL    HW2 9798   4.952   4.832   5.720  1.5572 -1.1740 -2.3357
 2967SOL     OW 9799   4.130   5.527   5.835 -0.4382 -0.4550 -0.4455
 2967SOL    HW1 9800   4.134   5.514   5.934  1.8748  1.2194 -0.2406
 2967SOL    HW2 9801   4.215   5.569   5.803 -0.8613 -1.5063 -3.2640
 2968SOL     OW 9802   3.297   5.909   4.186 -0.0810  0.0131  0.1908
 2968SOL    HW1 9803   3.396   5.898   4.187 -0.2492 -2.2247  2.4522
 2968SOL    HW2 9804   3.272   5.987   4.244  0.3305  0.3294 -0.0556
 2969SOL     OW 9805   1.174   5.739   0.963 -0.3616 -0.3030 -0.0971
 2969SOL    HW1 9806   1.179   5.775   1.056 -2.4948  1.1117 -0.4658
 2969SOL    HW2 9807   1.265   5.735   0.924  0.3054  1.6756  1.1162
 2970SOL     OW 9808   5.081   4.739   4.708 -0.1916  0.1011  0.2691
 2970SOL    HW1 9809   4.989   4.771   4.683 -0.5030  1.3712  2.7313
 2970SOL    HW2 9810   5.074   4.654   4.759 -0.0857  0.5759  1.0911
 2971SOL     OW 9811   3.202   3.067   3.614 -0.1397 -0.1339  0.7235
 2971SOL    HW1 9812   3.171   3.024   3.699  0.7224 -0.2395  1.0011
 2971SOL    HW2 9813   3.278   3.129   3.635 -1.2173  1.3974  0.3083
 2972SOL     OW 9814   1.960   4.987   0.383 -0.7520 -0.3211 -0.0253
 2972SOL    HW1 9815   1.963   4.920   0.308  0.0127 -1.6107  1.1074
 2972SOL    HW2 9816   1.875   4.975   0.434 -1.2132  0.4714 -0.5881
 2973SOL     OW 9817   4.434   2.379   3.594 -0.2610 -0.0290 -0.5642
 2973SOL    HW1 9818   4.394   2.356   3.505 -0.3448 -2.2395 -0.0252
 2973SOL    HW2 9819   4.405   2.310   3.661  2.2819 -0.1939  0.4633
 2974SOL     OW 9820   2.335   5.381   1.807 -0.6758  0.1725  0.5573
 2974SOL    HW1 9821   2.260   5.447   1.809  0.7900  1.8929  1.0854
 2974SOL    HW2 9822   2.298   5.289   1.789 -2.8842  0.9368  0.8985
 2975SOL     OW 9823   6.299   4.554   0.312 -0.2547 -0.1286  0.7167
 2975SOL    HW1 9824   6.223   4.613   0.283  0.2958 -0.8438 -2.5000
 2975SOL    HW2 9825   6.285   4.462   0.276  1.7829 -0.4457  0.6236
 2976SOL     OW 9826   5.106   1.785   4.443 -0.3408  0.0644  0.2605
 2976SOL    HW1 9827   5.037   1.749   4.380  0.3594 -0.6387 -0.1165
 2976SOL    HW2 9828   5.101   1.736   4.530  0.3441 -0.6868 -0.1138
 2977SOL     OW 9829   1.225   6.487   5.416  0.4251  0.3333 -0.1485
 2977SOL    HW1 9830   1.259   6.393   5.424  1.1598  0.5021 -1.0788
 2977SOL    HW2 9831   1.302   6.551   5.424  0.0885  0.8053 -0.6282
 2978SOL     OW 9832   4.632   0.474   0.398 -0.8953  0.0113 -0.0806
 2978SOL    HW1 9833   4.691   0.394   0.401  0.7744  1.2232  1.6759
 2978SOL    HW2 9834   4.622   0.504   0.303  0.2291 -1.0057 -0.5459
 2979SOL     OW 9835   5.084   5.217   2.657  0.1376  0.4733  0.5634
 2979SOL    HW1 9836   5.055   5.235   2.563 -0.9095 -1.5743  0.4401
 2979SOL    HW2 9837   5.103   5.120   2.668  1.2984  0.8428  2.2240
 2980SOL     OW 9838   2.083   1.423   2.696 -0.0070 -0.0811 -1.2015
 2980SOL    HW1 9839   2.133   1.472   2.624  1.0666  1.6667  0.6382
 2980SOL    HW2 9840   2.042   1.490   2.759  1.3558 -1.5188  1.3408
 2981SOL     OW 9841   1.220   4.509   2.159  0.4701  0.2287  0.6265
 2981SOL    HW1 9842   1.253   4.603   2.146  3.0032 -0.8285 -1.5513
 2981SOL    HW2 9843   1.264   4.469   2.239  0.9625  0.2751  0.3821
 2982SOL     OW 9844   1.489   3.164   4.684 -0.7433 -0.4055 -0.2008
 2982SOL    HW1 9845   1.425   3.203   4.617 -0.1158  1.7422  0.3547
 2982SOL    HW2 9846   1.465   3.068   4.701 -3.9514  0.3183  0.1450
 2983SOL     OW 9847   3.996   2.796   0.546 -0.4095 -0.3912 -0.2292
 2983SOL    HW1 9848   3.907   2.839   0.541  0.9057  2.6202  0.0745
 2983SOL    HW2 9849   4.059   2.842   0.483  0.5878 -3.5659 -1.7709
 2984SOL     OW 9850   6.975   2.938   4.733  0.0916  0.3321  0.0879
 2984SOL    HW1 9851   6.897   2.999   4.744 -0.8567 -1.2191  2.8751
 2984SOL    HW2 9852   7.060   2.990   4.747 -0.5608  1.4553 -0.0116
 2985SOL     OW 9853   1.964   6.115   1.243 -0.2878 -0.1619  0.1146
 2985SOL    HW1 9854   1.894   6.057   1.202  0.1853  0.5795 -1.8596
 2985SOL    HW2 9855   2.052   6.098   1.197  0.9047 -1.1152  2.5576
 2986SOL     OW 9856   4.955   0.240   0.699 -0.1736  0.3785  0.7433
 2986SOL    HW1 9857   5.002   0.311   0.647  0.9814 -0.7821  0.1675
 2986SOL    HW2 9858   5.018   0.199   0.765 -0.0956 -1.7584 -0.6067
 2987SOL     OW 9859   5.231   0.189   5.568 -0.1263 -0.3618 -0.3300
 2987SOL    HW1 9860   5.233   0.140   5.656  0.9583  0.9663  0.4200
 2987SOL    HW2 9861   5.283   0.274   5.576  1.8148 -1.2091 -2.8652
 2988SOL     OW 9862   2.160   2.642   5.259 -0.4437  0.2852  0.0962
 2988SOL    HW1 9863   2.250   2.684   5.258 -0.4888  0.4143  0.8576
 2988SOL    HW2 9864   2.169   2.545   5.281 -0.4740  0.2716  0.0466
 2989SOL     OW 9865   1.664   4.235   1.611  0.0401  0.0168  0.4138
 2989SOL    HW1 9866   1.757   4.203   1.591 -0.3389 -1.0026  0.1953
 2989SOL    HW2 9867   1.598   4.169   1.574 -0.7541  0.3391  1.2193
 2990SOL     OW 9868   5.049   1.729   2.523 -0.2938  0.3159  0.1675
 2990SOL    HW1 9869   5.148   1.745   2.527  0.0325 -1.5006  0.4618
 2990SOL    HW2 9870   5.008   1.789   2.454  1.0041  1.1070  0.0504
 2991SOL     OW 9871   3.420   3.153   3.309 -0.2348 -1.0537 -0.1354
 2991SOL    HW1 9872   3.350   3.211   3.351  0.9334 -0.5626  1.1870
 2991SOL    HW2 9873   3.378   3.066   3.282 -1.5459 -0.4362 -0.2023
 2992SOL     OW 9874   2.713   0.966   0.972  0.1981  0.0419 -0.4815
 2992SOL    HW1 9875   2.776   1.022   0.917 -0.6476  0.8280 -0.6637
 2992SOL    HW2 9876   2.764   0.920   1.044  1.3007 -0.8013 -1.7390
 2993SOL     OW 9877   5.010   6.123   6.730  0.0495  0.2988  0.2141
 2993SOL    HW1 9878   5.020   6.114   6.631 -0.8130  1.4215  0.0024
 2993SOL    HW2 9879   5.042   6.213   6.758 -1.1711  0.5901  0.7218
 2994SOL     OW 9880   0.347   4.634   5.610  0.3790 -0.3584  0.3797
 2994SOL    HW1 9881   0.407   4.632   5.530  0.3586  0.6027  0.3283
 2994SOL    HW2 9882   0.274   4.700   5.594 -2.1045 -3.0996 -0.5418
 2995SOL     OW 9883   2.278   1.764   1.760  0.3887 -0.6041  0.2439
 2995SOL    HW1 9884   2.218   1.733   1.834  2.2514 -0.3953  1.9175
 2995SOL    HW2 9885   2.313   1.855   1.782  0.7590 -0.4154 -1.0488
 2996SOL     OW 9886   1.141   3.546   3.405  0.3412  0.1189  0.4558
 2996SOL    HW1 9887   1.193   3.486   3.345 -0.0829  0.1395  0.0585
 2996SOL    HW2 9888   1.189   3.633   3.415 -0.5680  0.9117 -1.5570
 2997SOL     OW 9889   6.740   0.351   0.193  0.0339 -0.8430 -0.3925
 2997SOL    HW1 9890   6.706   0.415   0.262 -0.0467 -0.8936 -0.3845
 2997SOL    HW2 9891   6.797   0.282   0.238  2.9529  1.1187 -0.7967
 2998SOL     OW 9892   2.344   4.659   3.413 -0.1797 -0.3909 -0.4814
 2998SOL    HW1 9893   2.287   4.631   3.491  0.3513  1.0702  0.4696
 2998SOL    HW2 9894   2.288   4.709   3.347 -0.0640  1.0634  0.4620
 2999SOL     OW 9895   1.394   5.240   1.360  0.7527 -0.5691 -0.8036
 2999SOL    HW1 9896   1.482   5.284   1.377  0.6837 -1.0819  1.0266
 2999SOL    HW2 9897   1.358   5.201   1.445 -1.9723  0.9376 -1.1460
 3000SOL     OW 9898   2.644   6.209   1.097  0.8488 -0.2006  0.2212
 3000SOL    HW1 9899   2.652   6.119   1.053  3.3104  0.2967 -0.5347
 3000SOL    HW2 9900   2.735   6.237   1.130  0.0399  1.8199  0.8563
 3001SOL     OW 9901   5.446   0.326   1.895 -0.2497  0.5258  0.0972
 3001SOL    HW1 9902   5.420   0.402   1.836 -0.2160  0.1933 -0.3549
 3001SOL    HW2 9903   5.364   0.288   1.938 -0.2167  1.0956  0.6718
 3002SOL     OW 9904   6.648   0.648   4.540 -0.1207 -0.0607  0.0641
 3002SOL    HW1 9905   6.576   0.692   4.487 -0.3269  0.1996  0.5596
 3002SOL    HW2 9906   6.657   0.553   4.511  0.6655  0.4215 -1.3607
 3003SOL     OW 9907   3.532   4.130   3.899 -0.4638 -0.5550  0.3703
 3003SOL    HW1 9908   3.439   4.150   3.928 -0.6208 -2.0092  0.9335
 3003SOL    HW2 9909   3.531   4.062   3.826  0.1641 -1.2068  0.9477
 3004SOL     OW 9910   6.990   2.497   4.468  1.0263 -0.1073 -0.0442
 3004SOL    HW1 9911   6.915   2.537   4.415  1.0758 -0.0871 -0.0985
 3004SOL    HW2 9912   7.077   2.515   4.423  1.2121  1.1077  0.7526
 3005SOL     OW 9913   0.938   6.529   2.457  0.4089 -0.1414  0.4075
 3005SOL    HW1 9914   0.881   6.565   2.531  2.3435  1.4887  1.2169
 3005SOL    HW2 9915   0.976   6.605   2.404  1.8340 -1.1330 -0.0505
 3006SOL     OW 9916   6.554   4.210   2.885  0.5870 -0.6110 -0.1835
 3006SOL    HW1 9917   6.489   4.148   2.841  1.6083  0.1899 -3.0598
 3006SOL    HW2 9918   6.628   4.157   2.927 -0.2393 -1.4116  0.2986
 3007SOL     OW 9919   5.985   6.823   4.272  0.3510  0.0377 -0.1877
 3007SOL    HW1 9920   6.042   6.757   4.224 -0.8726 -1.7295  0.6588
 3007SOL    HW2 9921   6.031   6.853   4.355  0.7614 -0.0431 -0.3845
 3008SOL     OW 9922   0.605   2.582   3.877  0.0694  0.3192 -0.4073
 3008SOL    HW1 9923   0.702   2.587   3.900 -0.5274  1.8298  2.0863
 3008SOL    HW2 9924   0.565   2.499   3.917  0.1759  0.0037 -0.9360
 3009SOL     OW 9925   2.149   2.549   5.557  0.2681  0.1991 -0.1861
 3009SOL    HW1 9926   2.132   2.495   5.475 -0.1497  1.2098 -0.7923
 3009SOL    HW2 9927   2.238   2.594   5.550  0.7542 -0.6332  0.4563
 3010SOL     OW 9928   6.261   3.975   4.353 -0.1716  0.3185 -0.1246
 3010SOL    HW1 9929   6.295   4.015   4.438 -2.5521 -0.3650  1.2401
 3010SOL    HW2 9930   6.312   3.891   4.333  0.2213  0.3231  0.8015
 3011SOL     OW 9931   6.032   1.030   4.965  0.0396  0.0682  0.4623
 3011SOL    HW1 9932   5.984   0.945   4.982 -0.9288  0.8214  1.6947
 3011SOL    HW2 9933   6.066   1.032   4.871 -2.6547 -0.3702 -0.6073
 3012SOL     OW 9934   1.603   0.801   2.955  0.2150 -0.2005 -0.5136
 3012SOL    HW1 9935   1.684   0.858   2.942  0.5733 -0.6757 -0.3733
 3012SOL    HW2 9936   1.531   0.855   2.999 -0.4206  0.9521 -2.8096
 3013SOL     OW 9937   2.738   2.073   1.973 -0.3188  0.4056 -1.3175
 3013SOL    HW1 9938   2.792   2.154   1.993  0.6646 -0.5552  0.1642
 3013SOL    HW2 9939   2.647   2.082   2.013  0.9672 -0.6501  2.2296
 3014SOL     OW 9940   6.341   5.938   6.484  0.1223  0.1377 -0.7191
 3014SOL    HW1 9941   6.291   5.988   6.413 -1.6871 -2.3356 -1.3117
 3014SOL    HW2 9942   6.340   5.840   6.464  2.5336 -0.3336  0.9827
 3015SOL     OW 9943   0.536   1.606   6.206 -0.2026 -0.5715 -0.6464
 3015SOL    HW1 9944   0.498   1.647   6.123 -1.2433 -2.5696 -1.2090
 3015SOL    HW2 9945   0.474   1.622   6.282  0.4217  0.6742 -0.3795
 3016SOL     OW 9946   1.309   0.850   4.821  0.1685 -0.0567 -0.7038
 3016SOL    HW1 9947   1.244   0.898   4.762  0.0584  0.9366  0.1986
 3016SOL    HW2 9948   1.261   0.779   4.872  0.2379 -0.8295 -1.6676
 3017SOL     OW 9949   6.054   3.636   4.975  0.2607  0.1412  0.4344
 3017SOL    HW1 9950   6.016   3.728   4.985 -0.4297 -0.1497  0.4699
 3017SOL    HW2 9951   5.993   3.580   4.919  1.4385  0.1523 -0.9356
 3018SOL     OW 9952   3.130   3.125   4.355  0.4034  0.2620  0.1263
 3018SOL    HW1 9953   3.226   3.134   4.330  0.5971  2.4296  1.4812
 3018SOL    HW2 9954   3.073   3.167   4.284  0.7565  3.0461  1.3770
 3019SOL     OW 9955   2.683   5.608   2.520  0.0516 -0.2652  0.3058
 3019SOL    HW1 9956   2.623   5.682   2.490 -0.5958 -0.5205  0.9450
 3019SOL    HW2 9957   2.760   5.600   2.456 -1.3785 -0.9449 -1.4101
 3020SOL     OW 9958   3.309   0.457   6.541  0.0478  0.2615 -0.7506
 3020SOL    HW1 9959   3.369   0.523   6.496  0.5084  0.7517  0.5142
 3020SOL    HW2 9960   3.264   0.400   6.473 -0.0957  1.6494 -1.8684
 3021SOL     OW 9961   2.295   1.108   6.537 -0.8010 -0.4149  0.1560
 3021SOL    HW1 9962   2.206   1.146   6.513  0.2506  0.9846 -1.7976
 3021SOL    HW2 9963   2.336   1.065   6.456  0.7508 -0.0532  0.7103
 3022SOL     OW 9964   4.942   6.281   5.511  0.4754  0.3408  0.0842
 3022SOL    HW1 9965   4.994   6.345   5.567  0.7564  0.5215 -0.3797
 3022SOL    HW2 9966   4.974   6.188   5.529 -0.6484  0.1975  1.5471
 3023SOL     OW 9967   0.366   5.202   0.012  0.3204  0.3747 -0.3774
 3023SOL    HW1 9968   0.337   5.129  -0.050 -0.1200 -0.0393  0.3065
 3023SOL    HW2 9969   0.463   5.191   0.032  0.0898 -0.4940  0.3284
 3024SOL     OW 9970   0.145   4.433   4.658 -0.1723  0.1964 -0.1581
 3024SOL    HW1 9971   0.101   4.418   4.569 -1.0687  0.4516  0.2300
 3024SOL    HW2 9972   0.198   4.517   4.655 -2.7649  1.9768  0.4423
 3025SOL     OW 9973   6.526   3.339   6.785 -0.3072  1.2092 -0.0910
 3025SOL    HW1 9974   6.433   3.304   6.786 -0.0308  0.4075 -0.6583
 3025SOL    HW2 9975   6.562   3.341   6.878 -0.8688  1.4733  0.1226
 3026SOL     OW 9976   6.768   0.895   0.243  0.9430 -0.6185  0.2687
 3026SOL    HW1 9977   6.722   0.974   0.285  1.0441 -1.1189  1.3678
 3026SOL    HW2 9978   6.735   0.812   0.287  2.5031 -1.0338  0.7019
 3027SOL     OW 9979   1.368   4.438   2.382  0.2380 -0.1456  0.8561
 3027SOL    HW1 9980   1.274   4.415   2.408 -0.3440  1.0006 -0.1413
 3027SOL    HW2 9981   1.422   4.354   2.372 -0.6915 -0.8164  1.3848
 3028SOL     OW 9982   3.737   4.108   1.552 -0.1898 -0.4586  0.8858
 3028SOL    HW1 9983   3.751   4.207   1.554  0.6889 -0.5096 -1.0389
 3028SOL    HW2 9984   3.806   4.066   1.494 -0.6123 -2.2160  1.6061
 3029SOL     OW 9985   1.465   3.965   2.762  0.0406 -0.6594  0.8906
 3029SOL    HW1 9986   1.393   4.012   2.813 -1.0114 -1.7248  0.4203
 3029SOL    HW2 9987   1.444   3.868   2.754 -1.1245 -0.2849 -3.5406
 3030SOL     OW 9988   0.437   4.584   3.774 -0.0988 -0.1081 -0.4111
 3030SOL    HW1 9989   0.502   4.534   3.832 -0.5168 -0.2956 -0.0923
 3030SOL    HW2 9990   0.471   4.676   3.757 -0.5417  0.3856  1.1815
 3031SOL     OW 9991   6.212   5.153   2.448  0.0507 -0.2533  0.0137
 3031SOL    HW1 9992   6.164   5.158   2.361 -0.0553  0.6803  0.1222
 3031SOL    HW2 9993   6.288   5.088   2.440  0.7234  0.6293 -1.1157
 3032SOL     OW 9994   2.690   5.372   3.279  0.5673 -0.4514  0.4125
 3032SOL    HW1 9995   2.653   5.287   3.242  0.7991 -0.0888 -0.6735
 3032SOL    HW2 9996   2.615   5.434   3.301  0.4540 -0.3195 -0.3182
 3033SOL     OW 9997   2.967   6.929   1.097 -0.5346 -0.3728 -0.0748
 3033SOL    HW1 9998   3.044   6.883   1.141 -0.4624 -0.3315 -0.1558
 3033SOL    HW2 9999   2.929   6.870   1.026 -1.8955 -1.2553  1.3292
 3034SOL     OW10000   6.637   4.985   1.006 -0.5183  0.1375  0.0282
 3034SOL    HW110001   6.549   5.010   1.046 -0.0718  1.2875  0.3371
 3034SOL    HW210002   6.697   5.065   1.006  0.1416 -0.3387 -1.2178
 3035SOL     OW10003   4.030   3.952   6.701  0.0224 -0.4902  0.2551
 3035SOL    HW110004   4.046   3.933   6.797  0.4065  2.4878  0.8847
 3035SOL    HW210005   4.113   3.990   6.660 -1.3469  2.4844 -0.0112
 3036SOL     OW10006   3.238   4.075   5.649  0.4686  0.0179  0.4487
 3036SOL    HW110007   3.322   4.054   5.598  1.3085  2.5509  0.6904
 3036SOL    HW210008   3.240   4.028   5.737  0.7545 -1.3599 -0.2502
 3037SOL     OW10009   6.110   3.901   1.975 -0.4180  0.2908 -0.0675
 3037SOL    HW110010   6.112   3.988   2.024  1.9229  0.5490 -0.4759
 3037SOL    HW210011   6.199   3.886   1.932 -0.7827 -2.2956 -0.0536
 3038SOL     OW10012   6.874   4.186   0.175 -0.6381 -0.0757  0.4955
 3038SOL    HW110013   6.800   4.128   0.207 -2.5564  0.8190 -2.0143
 3038SOL    HW210014   6.838   4.276   0.150  1.8165  1.3886  1.8552
 3039SOL     OW10015   6.064   6.434   2.923 -0.5924  0.2272 -0.2078
 3039SOL    HW110016   6.116   6.446   3.007 -0.6408 -0.0956 -0.1277
 3039SOL    HW210017   6.124   6.449   2.844 -0.7636  1.4063 -0.1217
 3040SOL     OW10018   4.405   4.503   1.148  0.6748  0.6557  1.0059
 3040SOL    HW110019   4.413   4.530   1.052  0.5209 -1.2952  0.4056
 3040SOL    HW210020   4.476   4.437   1.170 -0.6997 -0.7045  1.5428
 3041SOL     OW10021   6.389   6.475   6.213  0.5223  0.6024  0.2832
 3041SOL    HW110022   6.351   6.564   6.238 -2.1223  0.1623 -1.6939
 3041SOL    HW210023   6.447   6.485   6.131  1.6433  0.7091  1.0675
 3042SOL     OW10024   4.969   0.739   2.457  0.9854  0.1055  0.2832
 3042SOL    HW110025   5.038   0.704   2.393  2.2793  1.1896  1.0280
 3042SOL    HW210026   4.993   0.712   2.550  0.8180  1.1453  0.6344
 3043SOL     OW10027   1.345   2.236   6.131  0.5542 -0.7540  0.4424
 3043SOL    HW110028   1.411   2.242   6.056 -0.0120  1.0235  0.0427
 3043SOL    HW210029   1.391   2.198   6.212  1.6515 -0.9887 -0.2664
 3044SOL     OW10030   3.598   3.833   2.749  0.2829 -0.4061  0.3781
 3044SOL    HW110031   3.663   3.877   2.687 -0.3253 -0.5941 -0.4129
 3044SOL    HW210032   3.602   3.877   2.838 -0.2008  1.1649 -0.3437
 3045SOL     OW10033   2.430   0.491   0.288 -0.0876 -0.3896 -0.2989
 3045SOL    HW110034   2.361   0.419   0.293  1.1777 -1.5869  1.9365
 3045SOL    HW210035   2.508   0.460   0.233 -0.2433 -0.0481 -0.7185
 3046SOL     OW10036   3.428   0.763   5.818 -0.2724 -0.4714 -0.2584
 3046SOL    HW110037   3.462   0.848   5.857 -0.5276 -0.3087 -0.3883
 3046SOL    HW210038   3.331   0.752   5.840 -0.2789 -0.6513 -0.3707
 3047SOL     OW10039   0.736   0.621   1.278 -0.3216 -0.2503 -0.3434
 3047SOL    HW110040   0.825   0.616   1.323  0.1543 -0.0599 -1.2393
 3047SOL    HW210041   0.693   0.709   1.298  0.1507  0.0731 -0.7443
 3048SOL     OW10042   3.193   4.203   0.538 -0.2669 -0.4688  0.2349
 3048SOL    HW110043   3.262   4.273   0.521 -0.9407  0.4528  1.1783
 3048SOL    HW210044   3.232   4.130   0.593  0.0285 -0.0730  0.5549
 3049SOL     OW10045   0.697   3.873   3.424  0.2931 -0.8420 -0.3861
 3049SOL    HW110046   0.601   3.850   3.436 -0.4695  1.3030 -1.8920
 3049SOL    HW210047   0.746   3.794   3.387 -0.7494 -2.1053  0.8206
 3050SOL     OW10048   3.862   3.406   6.077  0.3307  0.3245  0.0820
 3050SOL    HW110049   3.934   3.337   6.067  1.4614  1.5305 -0.5031
 3050SOL    HW210050   3.773   3.363   6.063  1.0083 -0.9662 -0.5308
 3051SOL     OW10051   3.954   4.687   5.697  0.0192 -0.8799 -0.1178
 3051SOL    HW110052   3.970   4.683   5.796 -0.4648 -2.7592 -0.0630
 3051SOL    HW210053   3.856   4.684   5.679  0.0896 -0.1293 -0.6493
 3052SOL     OW10054   4.147   1.003   6.682 -0.1334  0.0958  0.0515
 3052SOL    HW110055   4.071   1.010   6.746 -1.1482 -1.3335 -0.9527
 3052SOL    HW210056   4.181   0.909   6.680 -0.7186 -0.1305 -2.1074
 3053SOL     OW10057   0.660   3.770   5.674  0.7846  0.6292 -0.0355
 3053SOL    HW110058   0.744   3.719   5.692 -0.1814 -0.5459  1.3220
 3053SOL    HW210059   0.585   3.732   5.727 -0.6729  1.5634 -1.3238
 3054SOL     OW10060   6.312   1.800   5.641  0.6598  0.1604  0.0583
 3054SOL    HW110061   6.214   1.810   5.624  0.5181 -0.0734  0.6894
 3054SOL    HW210062   6.356   1.889   5.631  0.6347  0.0073 -1.6635
 3055SOL     OW10063   3.338   6.747   0.253 -0.1692 -0.2289  0.4175
 3055SOL    HW110064   3.376   6.839   0.242  0.2804 -0.2240  1.7173
 3055SOL    HW210065   3.364   6.690   0.175  1.1946  0.2245  0.5049
 3056SOL     OW10066   5.246   3.414   6.841 -0.0640 -0.1720  0.2275
 3056SOL    HW110067   5.197   3.469   6.907  1.4069  1.3567  0.1220
 3056SOL    HW210068   5.340   3.400   6.873  0.8424  1.0380 -1.6979
 3057SOL     OW10069   3.219   3.641   4.471 -0.0429  0.7211 -0.1457
 3057SOL    HW110070   3.305   3.621   4.423  0.6168 -0.7814  1.5730
 3057SOL    HW210071   3.237   3.650   4.569 -2.0033 -0.8160  0.4114
 3058SOL     OW10072   0.154   4.711   4.498 -0.1562 -0.4557 -0.2394
 3058SOL    HW110073   0.153   4.790   4.437  2.7821  0.4455  0.6872
 3058SOL    HW210074   0.246   4.672   4.499 -0.6294 -1.6576  2.0568
 3059SOL     OW10075   0.180   3.795   3.151  0.4370 -0.1018 -0.0658
 3059SOL    HW110076   0.148   3.809   3.058  2.1829  0.0831 -0.6805
 3059SOL    HW210077   0.248   3.865   3.174  0.3421 -0.3972  1.1933
 3060SOL     OW10078   0.503   0.545   1.924  0.3464  0.0129  0.1455
 3060SOL    HW110079   0.405   0.554   1.907  0.0685 -0.1103  1.5386
 3060SOL    HW210080   0.524   0.449   1.947  0.1482  0.6088  3.2783
 3061SOL     OW10081   1.500   6.953   1.083 -0.6044 -0.4102 -0.4961
 3061SOL    HW110082   1.415   6.926   1.038 -0.8867 -1.6522  0.7279
 3061SOL    HW210083   1.489   7.045   1.123 -1.1547 -0.3054 -0.8846
 3062SOL     OW10084   2.763   0.858   6.062  0.1606 -0.5891  0.1310
 3062SOL    HW110085   2.690   0.806   6.017 -0.2931  0.7714 -0.7923
 3062SOL    HW210086   2.845   0.856   6.006 -0.5733  1.5706 -1.1461
 3063SOL     OW10087   0.146   6.669   6.105  0.1198  0.0575 -0.2549
 3063SOL    HW110088   0.157   6.705   6.012 -0.2503  1.4255  0.2081
 3063SOL    HW210089   0.190   6.732   6.170  1.0909 -1.2937  0.4421
 3064SOL     OW10090   4.571   4.312   6.803 -0.4156  1.2636  0.0541
 3064SOL    HW110091   4.618   4.391   6.843 -0.0040  0.8849  0.3350
 3064SOL    HW210092   4.638   4.241   6.783 -0.9483  0.4153  1.1737
 3065SOL     OW10093   5.086   2.200   1.550 -0.3280  0.3188  0.3843
 3065SOL    HW110094   5.140   2.275   1.589  0.4731 -0.6930  1.2983
 3065SOL    HW210095   4.989   2.220   1.559 -0.1976  0.2697  2.7711
 3066SOL     OW10096   3.873   4.005   6.076  0.0705 -0.3092 -0.3862
 3066SOL    HW110097   3.849   3.963   5.988 -0.2434 -1.8641  0.4098
 3066SOL    HW210098   3.956   4.060   6.065 -1.8571  2.4994 -2.4640
 3067SOL     OW10099   0.991   4.005   4.106 -0.3101 -0.0033 -0.0261
 3067SOL    HW110100   1.042   4.089   4.089  1.9295 -1.0066  1.2722
 3067SOL    HW210101   0.924   4.020   4.177 -0.5940  0.9075 -0.4769
 3068SOL     OW10102   2.033   0.048   0.861  0.0035 -0.0377  0.1016
 3068SOL    HW110103   2.082   0.040   0.947 -2.7270 -2.6600  1.5928
 3068SOL    HW210104   1.975   0.129   0.863  2.5199  1.9557 -0.8902
 3069SOL     OW10105   5.451   4.350   5.201 -0.4238  0.7179  0.1847
 3069SOL    HW110106   5.358   4.315   5.192 -0.2718 -0.1370  1.6141
 3069SOL    HW210107   5.449   4.449   5.215 -1.1950  0.5567  1.2866
 3070SOL     OW10108   1.969   5.697   6.492 -0.3241 -0.3743 -0.0952
 3070SOL    HW110109   2.001   5.621   6.549 -1.4381 -1.7091 -1.1477
 3070SOL    HW210110   1.984   5.675   6.395 -0.6754  0.7606 -0.4274
 3071SOL     OW10111   3.521   0.668   4.170 -0.0614  0.2770  0.0087
 3071SOL    HW110112   3.563   0.602   4.109  0.2935 -0.4686  1.0369
 3071SOL    HW210113   3.421   0.656   4.169  0.0123 -0.3870  0.3105
 3072SOL     OW10114   1.674   5.831   0.324  0.2707 -0.1759  0.0456
 3072SOL    HW110115   1.688   5.916   0.273  1.9737 -0.0847  0.5814
 3072SOL    HW210116   1.594   5.841   0.384 -0.6271  0.3796 -1.2087
 3073SOL     OW10117   0.168   5.879   3.083  0.1296  0.0538 -0.1925
 3073SOL    HW110118   0.071   5.898   3.069  0.0291 -0.5735 -0.4092
 3073SOL    HW210119   0.190   5.789   3.044  1.3104  1.2026 -2.3543
 3074SOL     OW10120   5.110   6.544   4.768 -0.8016  0.3328  0.1271
 3074SOL    HW110121   5.157   6.502   4.845 -1.3789 -0.3878  0.1037
 3074SOL    HW210122   5.053   6.619   4.800 -0.6989  0.3214  0.3372
 3075SOL     OW10123   5.599   1.650   2.016  0.1765  0.0198 -0.1758
 3075SOL    HW110124   5.514   1.603   1.994  0.7783 -1.4713  0.5571
 3075SOL    HW210125   5.580   1.747   2.032 -1.4555 -0.3611  0.3695
 3076SOL     OW10126   5.000   2.477   4.120  0.4200 -0.4593 -0.1141
 3076SOL    HW110127   5.065   2.549   4.096 -1.1890  1.2753  0.6013
 3076SOL    HW210128   5.039   2.388   4.093  2.2434  0.6652 -1.4483
 3077SOL     OW10129   4.858   0.037   3.463  0.4884 -0.3717  0.0586
 3077SOL    HW110130   4.913   0.005   3.385  1.0902 -2.0422  1.1203
 3077SOL    HW210131   4.768  -0.006   3.461  0.0548  0.5239 -0.3572
 3078SOL     OW10132   4.383   6.244   2.469  0.0840  0.5082  0.1645
 3078SOL    HW110133   4.368   6.335   2.508  1.9594 -0.1882  2.7767
 3078SOL    HW210134   4.317   6.180   2.509  0.7372  0.1638  0.7093
 3079SOL     OW10135   5.130   3.281   2.290  0.8251 -0.3282 -0.4584
 3079SOL    HW110136   5.092   3.191   2.315  1.4387 -0.6413 -0.6362
 3079SOL    HW210137   5.096   3.307   2.199  0.0825 -0.0469 -0.1105
 3080SOL     OW10138   4.988   1.064   5.445 -0.1688 -0.0024 -0.4767
 3080SOL    HW110139   5.022   1.096   5.534  2.0502 -1.1581 -0.8332
 3080SOL    HW210140   5.003   1.134   5.376 -0.7153  0.4042 -0.1882
 3081SOL     OW10141   4.938   0.868   1.007 -0.3603  0.0277  0.3785
 3081SOL    HW110142   4.940   0.829   0.915 -0.6959  3.4517 -1.2398
 3081SOL    HW210143   4.846   0.859   1.045 -0.4288 -0.6429  0.0780
 3082SOL     OW10144   5.419   3.225   2.316  0.3476 -0.1606 -0.1586
 3082SOL    HW110145   5.324   3.250   2.297  0.6055  0.2938 -0.9043
 3082SOL    HW210146   5.460   3.292   2.378 -0.1207 -0.9455  1.0362
 3083SOL     OW10147   2.942   5.802   2.581 -0.5497  0.0372  0.3383
 3083SOL    HW110148   2.854   5.833   2.547 -0.6528 -1.2215 -0.6500
 3083SOL    HW210149   2.979   5.868   2.647 -1.1458  1.7136 -0.9552
 3084SOL     OW10150   2.957   5.483   4.416  0.2364  0.1067 -0.2852
 3084SOL    HW110151   2.964   5.465   4.318  0.1983  1.2202 -0.5137
 3084SOL    HW210152   2.977   5.400   4.467  1.0456 -0.2945 -1.2211
 3085SOL     OW10153   3.616   2.084   2.549  0.7160  0.1470 -0.3821
 3085SOL    HW110154   3.622   2.106   2.451 -0.9096 -1.6676 -0.9403
 3085SOL    HW210155   3.525   2.047   2.570  1.1021  0.2955  1.7938
 3086SOL     OW10156   0.101   1.305   3.950  0.0827  0.9238 -0.2825
 3086SOL    HW110157   0.167   1.266   3.885  0.9868  0.4595  0.8798
 3086SOL    HW210158   0.150   1.365   4.014 -0.3924 -0.3832  1.3667
 3087SOL     OW10159   3.576   1.349   0.254  0.2423  0.1073  0.3386
 3087SOL    HW110160   3.499   1.291   0.281 -0.2447  0.5575 -0.0548
 3087SOL    HW210161   3.587   1.423   0.320 -1.4484  1.6686 -1.0379
 3088SOL     OW10162   3.285   5.861   0.994 -0.3790  0.2872  0.3015
 3088SOL    HW110163   3.376   5.851   0.954 -0.4456 -0.3659  0.3037
 3088SOL    HW210164   3.284   5.940   1.056 -0.1688  1.0808 -0.6782
 3089SOL     OW10165   4.995   3.855   6.408 -0.2165 -0.4460  0.0359
 3089SOL    HW110166   4.910   3.862   6.460 -0.2254 -0.3681  0.0098
 3089SOL    HW210167   4.980   3.800   6.326 -0.6936  1.0688 -0.9307
 3090SOL     OW10168   2.037   6.898   3.361  0.3343 -1.2171 -0.3660
 3090SOL    HW110169   2.131   6.926   3.343  0.0312  0.4799  0.5012
 3090SOL    HW210170   2.037   6.814   3.416  1.2722 -2.6119 -2.3725
 3091SOL     OW10171   3.032   3.991   6.866  0.2618 -0.2440  0.8110
 3091SOL    HW110172   2.983   4.059   6.811  0.3302 -1.1024 -0.3381
 3091SOL    HW210173   2.984   3.978   6.953 -1.7641 -1.2491 -0.3736
 3092SOL     OW10174   1.227   2.447   6.236  0.4517 -0.2513  0.2297
 3092SOL    HW110175   1.306   2.508   6.230  0.5955 -0.4470  0.0886
 3092SOL    HW210176   1.256   2.353   6.217 -0.0779 -0.1181 -1.4549
 3093SOL     OW10177   1.973   0.883   6.725  0.3369 -0.1403 -0.1311
 3093SOL    HW110178   1.957   0.928   6.813  1.7231  2.8687 -1.2556
 3093SOL    HW210179   1.889   0.884   6.671  0.3417  1.3951 -0.1712
 3094SOL     OW10180   1.685   5.469   5.005  0.3130  0.4066 -0.3674
 3094SOL    HW110181   1.638   5.390   4.967  1.5081  0.1719 -1.4340
 3094SOL    HW210182   1.782   5.448   5.016 -0.0146  0.2427  3.4833
 3095SOL     OW10183   4.201   6.753   4.601  0.4498  0.3051 -0.5643
 3095SOL    HW110184   4.243   6.674   4.647  0.6116  0.9954  0.5039
 3095SOL    HW210185   4.210   6.742   4.502  0.8181 -0.8229 -0.4256
 3096SOL     OW10186   5.320   3.480   6.003 -0.2008  0.5241  0.2158
 3096SOL    HW110187   5.304   3.406   6.068 -1.7292  0.1031 -0.5746
 3096SOL    HW210188   5.234   3.502   5.956  0.9764  0.1972 -2.2760
 3097SOL     OW10189   1.950   0.899   3.995 -0.3018  0.2887  0.3770
 3097SOL    HW110190   1.907   0.920   3.908 -2.9394 -0.2794  1.4525
 3097SOL    HW210191   1.931   0.973   4.060  3.0091  1.5232  0.1477
 3098SOL     OW10192   1.413   5.029   0.392 -0.2448 -0.6968  0.3900
 3098SOL    HW110193   1.431   5.096   0.320  0.1991 -0.7125  0.4865
 3098SOL    HW210194   1.405   5.076   0.480  0.6107 -0.8209  0.5421
 3099SOL     OW10195   6.612   6.755   6.846 -0.3549  0.5057 -0.4116
 3099SOL    HW110196   6.710   6.762   6.863 -0.5572 -0.0820  1.1620
 3099SOL    HW210197   6.581   6.662   6.868 -1.5311  1.1295  0.7483
 3100SOL     OW10198   3.413   1.174   1.945  0.1088  0.1381 -0.1094
 3100SOL    HW110199   3.470   1.206   1.869 -0.4635  2.4528  0.3791
 3100SOL    HW210200   3.346   1.108   1.910  0.3903  0.5212 -1.4414
 3101SOL     OW10201   4.522   1.765   1.097  0.0509 -0.6518  0.0247
 3101SOL    HW110202   4.579   1.826   1.153  1.3035 -1.7384 -0.0183
 3101SOL    HW210203   4.536   1.786   1.000  1.0284 -1.4440 -0.0195
 3102SOL     OW10204   1.977   2.271   6.633 -0.9572  0.3852  0.5903
 3102SOL    HW110205   2.046   2.341   6.651  0.3098 -1.1177  1.9771
 3102SOL    HW210206   1.918   2.300   6.558  0.1016  2.4881  0.5067
 3103SOL     OW10207   2.177   1.052   4.976  0.0682 -0.3010  0.1394
 3103SOL    HW110208   2.100   1.054   4.912 -0.6089 -2.2559  0.8096
 3103SOL    HW210209   2.178   1.136   5.029  0.0196  0.9075 -1.6876
 3104SOL     OW10210   3.741   3.377   4.084 -0.4514 -0.1140 -0.2095
 3104SOL    HW110211   3.745   3.313   4.160 -0.3859  0.1080 -0.0250
 3104SOL    HW210212   3.756   3.328   3.998 -0.1425 -0.3004 -0.0491
 3105SOL     OW10213   6.305   5.993   3.340 -0.6683 -0.3434 -0.0809
 3105SOL    HW110214   6.312   5.926   3.266 -0.2539  1.7736 -2.0688
 3105SOL    HW210215   6.267   6.078   3.304 -1.1650  0.5328  2.3461
 3106SOL     OW10216   4.703   1.319   6.195 -0.4691 -0.6413 -0.4617
 3106SOL    HW110217   4.754   1.383   6.253  0.2979 -0.4632 -1.3154
 3106SOL    HW210218   4.661   1.249   6.253  0.1869 -0.4058  0.3269
 3107SOL     OW10219   1.076   4.947   6.460 -0.0550  0.1241 -0.3368
 3107SOL    HW110220   0.980   4.969   6.477  0.0085  1.1080 -1.1305
 3107SOL    HW210221   1.107   4.996   6.379  0.7175 -1.3460 -0.9632
 3108SOL     OW10222   0.968   0.841   2.472 -0.2713  0.8031  0.0204
 3108SOL    HW110223   1.048   0.835   2.531  0.7139  0.9901 -1.2587
 3108SOL    HW210224   0.988   0.901   2.394 -1.9705  1.6243  0.1597
 3109SOL     OW10225   4.506   0.217   0.015 -0.1118  0.0375 -0.4574
 3109SOL    HW110226   4.414   0.182   0.038  0.5880 -1.6351 -0.0107
 3109SOL    HW210227   4.518   0.307   0.055 -2.0730  0.9410 -1.7414
 3110SOL     OW10228   5.017   0.677   1.490  0.4819  0.2716 -0.0090
 3110SOL    HW110229   5.101   0.656   1.441 -0.7713 -2.4919 -1.1736
 3110SOL    HW210230   4.938   0.658   1.431 -1.0082  1.5428  1.4721
 3111SOL     OW10231   3.181   4.078   1.268  0.0265 -0.2377 -0.2131
 3111SOL    HW110232   3.133   4.160   1.238 -0.5323 -0.6300 -0.3875
 3111SOL    HW210233   3.128   4.032   1.338  0.7299 -0.0145  0.4878
 3112SOL     OW10234   2.248   6.404   6.230 -0.7160  0.3889  0.4636
 3112SOL    HW110235   2.234   6.475   6.161  1.6094  1.9406  1.4732
 3112SOL    HW210236   2.159   6.374   6.266 -1.8519  1.1429 -1.5653
 3113SOL     OW10237   0.590   3.001   1.746 -0.7569  0.0731  0.1942
 3113SOL    HW110238   0.549   2.953   1.669 -0.6333  0.3759 -0.0630
 3113SOL    HW210239   0.681   2.965   1.763  0.5086  2.0725 -1.8113
 3114SOL     OW10240   3.459   4.883   4.310 -0.0856 -0.3466 -0.2160
 3114SOL    HW110241   3.465   4.890   4.409 -0.5764 -1.6272 -0.0730
 3114SOL    HW210242   3.511   4.958   4.268  1.0970 -0.4401  0.9884
 3115SOL     OW10243   5.293   2.345   1.123 -0.6023 -0.7743  0.1152
 3115SOL    HW110244   5.338   2.324   1.210  0.6009 -0.0545 -0.3003
 3115SOL    HW210245   5.294   2.444   1.107  1.8291 -1.0201 -1.9960
 3116SOL     OW10246   2.157   5.614   0.949  0.7825 -0.6237  0.3826
 3116SOL    HW110247   2.184   5.629   0.854 -3.1053  0.6591 -0.7343
 3116SOL    HW210248   2.215   5.668   1.010  1.0544  1.5580 -1.6528
 3117SOL     OW10249   0.299   0.245   4.432 -0.0770  0.2241 -0.3962
 3117SOL    HW110250   0.257   0.336   4.432  0.7760  0.6330 -1.3576
 3117SOL    HW210251   0.371   0.242   4.501 -0.6730 -0.0102  0.2303
 3118SOL     OW10252   2.101   5.615   0.120  0.5183  0.1200  0.4015
 3118SOL    HW110253   2.073   5.572   0.205  0.5421 -1.2038 -0.2332
 3118SOL    HW210254   2.078   5.713   0.122 -0.0789 -0.0354  1.6459
 3119SOL     OW10255   4.551   5.062   4.915 -0.0898  0.3198  0.1836
 3119SOL    HW110256   4.647   5.047   4.891 -0.3888 -0.1205 -0.7968
 3119SOL    HW210257   4.505   4.974   4.924 -0.6234  0.5331 -0.3506
 3120SOL     OW10258   0.273   1.241   3.765 -0.4564 -0.3587  0.2338
 3120SOL    HW110259   0.294   1.255   3.668  0.0327 -1.1160  0.2248
 3120SOL    HW210260   0.315   1.156   3.796 -1.3717 -0.5852  0.8867
 3121SOL     OW10261   5.182   1.816   0.398  0.0230 -0.0928 -0.1776
 3121SOL    HW110262   5.207   1.720   0.411 -1.6085 -0.7107 -1.2544
 3121SOL    HW210263   5.082   1.824   0.397  0.0582  2.0538  2.6808
 3122SOL     OW10264   1.919   5.432   2.046 -0.4670 -0.5187  0.4554
 3122SOL    HW110265   1.899   5.477   1.959 -3.4645 -0.2890  1.1469
 3122SOL    HW210266   1.978   5.490   2.101  1.7453 -0.8134 -1.4823
 3123SOL     OW10267   4.065   0.070   1.925 -0.5503 -0.5984 -0.4333
 3123SOL    HW110268   3.995   0.067   1.854  0.0907 -1.2354 -1.0616
 3123SOL    HW210269   4.063  -0.015   1.977  1.5198 -1.8622 -2.2440
 3124SOL     OW10270   6.224   5.052   3.510 -0.2303  0.6652 -0.1325
 3124SOL    HW110271   6.202   5.043   3.607  0.3941 -1.1502 -0.1190
 3124SOL    HW210272   6.321   5.030   3.496 -0.5223  0.0259 -1.2581
 3125SOL     OW10273   6.732   2.296   6.933 -0.0778  0.1227 -0.4627
 3125SOL    HW110274   6.723   2.274   6.836 -0.9318  1.7983 -0.8026
 3125SOL    HW210275   6.704   2.218   6.987  3.7783 -2.2046 -1.4493
 3126SOL     OW10276   3.022   3.014   2.030  0.2764 -0.5710  0.5628
 3126SOL    HW110277   3.109   3.006   2.078 -0.3249 -0.3360  1.7157
 3126SOL    HW210278   2.958   2.945   2.064  0.0952 -0.9524 -0.4970
 3127SOL     OW10279   4.835   3.011   0.269 -0.0469 -0.1060 -0.3806
 3127SOL    HW110280   4.839   3.033   0.171 -1.2518  2.6662  0.1057
 3127SOL    HW210281   4.746   2.971   0.291 -0.1563  0.1996 -0.2646
 3128SOL     OW10282   0.005   3.641   4.126 -0.4513  0.1479  0.1464
 3128SOL    HW110283   0.105   3.639   4.121 -0.4387 -2.5252  0.2695
 3128SOL    HW210284  -0.034   3.613   4.038 -1.0082 -1.2116  0.7913
 3129SOL     OW10285   1.610   4.462   2.659  0.3753 -0.1250  1.2971
 3129SOL    HW110286   1.656   4.440   2.745 -0.3599 -0.7815  1.5306
 3129SOL    HW210287   1.524   4.508   2.678  1.1349  1.5813  0.8466
 3130SOL     OW10288   5.604   6.789   0.283  0.7405  0.0154 -0.1547
 3130SOL    HW110289   5.690   6.747   0.252  0.9722  1.1029 -1.0749
 3130SOL    HW210290   5.548   6.812   0.203 -0.8748 -1.5694  0.4697
 3131SOL     OW10291   4.528   1.176   5.018  0.1316 -0.1042 -0.5333
 3131SOL    HW110292   4.528   1.199   4.920 -0.9576  0.6048 -0.3835
 3131SOL    HW210293   4.434   1.165   5.050  0.3808  1.3255  0.8073
 3132SOL     OW10294   5.282   0.874   4.181  0.2722  0.3762 -0.7138
 3132SOL    HW110295   5.220   0.935   4.132  1.0214  2.1510  0.4544
 3132SOL    HW210296   5.375   0.911   4.178  1.3152 -2.0562 -2.1669
 3133SOL     OW10297   6.795   5.179   1.099  0.8344  0.1833 -0.1259
 3133SOL    HW110298   6.784   5.163   1.197  1.7332  0.7415  0.0827
 3133SOL    HW210299   6.816   5.276   1.084 -2.8267  0.9570 -1.1941
 3134SOL     OW10300   2.752   5.557   2.145  0.1569  0.6312 -0.2131
 3134SOL    HW110301   2.729   5.468   2.186 -0.3674  1.0686  0.4575
 3134SOL    HW210302   2.747   5.549   2.045  2.2193 -0.6612 -0.2836
 3135SOL     OW10303   4.055   7.011   6.536  0.2138  0.1188 -0.3026
 3135SOL    HW110304   3.995   6.934   6.559  2.0931 -1.4383 -0.3764
 3135SOL    HW210305   4.027   7.091   6.590 -1.2169 -0.8512  0.4808
 3136SOL     OW10306   2.899   1.866   5.896 -0.0042 -0.4943 -0.0684
 3136SOL    HW110307   2.841   1.814   5.834 -0.7506  1.1421 -0.7936
 3136SOL    HW210308   2.879   1.839   5.991 -0.8618 -1.0237 -0.3913
 3137SOL     OW10309   6.804   4.377   4.440 -0.8835  0.3379  0.0885
 3137SOL    HW110310   6.886   4.417   4.399  0.0490 -0.9563  0.6085
 3137SOL    HW210311   6.831   4.308   4.508 -2.3565 -1.5656 -1.1352
 3138SOL     OW10312   0.492   6.225   4.543  0.3647  0.0691 -0.3178
 3138SOL    HW110313   0.541   6.274   4.471  1.2793  1.2864  1.0705
 3138SOL    HW210314   0.447   6.291   4.604  0.0232 -0.8966  0.5115
 3139SOL     OW10315   0.472   4.832   1.597 -0.5400 -0.0611 -0.0326
 3139SOL    HW110316   0.379   4.867   1.611  0.2571  1.5857  1.6213
 3139SOL    HW210317   0.497   4.775   1.675 -0.0241 -0.1971 -0.2964
 3140SOL     OW10318   0.681   2.289   4.878  0.5267  0.3540 -0.0666
 3140SOL    HW110319   0.612   2.361   4.890 -0.1100 -0.4332  1.0890
 3140SOL    HW210320   0.645   2.219   4.817 -0.2766 -0.7374  1.5966
 3141SOL     OW10321   4.423   1.779   2.218 -0.4636  0.1596  0.0277
 3141SOL    HW110322   4.348   1.845   2.219 -1.4043 -0.8668  0.0381
 3141SOL    HW210323   4.405   1.708   2.287  0.0306 -0.6188 -0.6275
 3142SOL     OW10324   3.009   6.617   6.894 -0.2692  0.0421  0.0183
 3142SOL    HW110325   3.022   6.705   6.940 -3.5618  0.8928 -0.3949
 3142SOL    HW210326   2.936   6.566   6.940  1.0318 -2.1760 -0.2478
 3143SOL     OW10327   6.736   4.913   1.618  0.0387 -0.2283  0.2187
 3143SOL    HW110328   6.643   4.936   1.646  0.4085  1.5001  0.1417
 3143SOL    HW210329   6.737   4.892   1.520  0.1294  2.8033 -0.5462
 3144SOL     OW10330   5.095   6.742   0.734 -0.3343 -0.0146  0.3119
 3144SOL    HW110331   5.180   6.713   0.779 -0.0170 -1.2382 -1.0115
 3144SOL    HW210332   5.018   6.729   0.797  0.0509 -2.0199  0.4313
 3145SOL     OW10333   2.194   5.773   6.208  0.0176 -0.2227 -0.3581
 3145SOL    HW110334   2.196   5.752   6.110  1.2163 -1.2468 -0.1469
 3145SOL    HW210335   2.172   5.870   6.221  1.9789  0.4789 -1.7606
 3146SOL     OW10336   4.630   4.969   3.799 -0.4582 -0.2158  0.2546
 3146SOL    HW110337   4.578   4.929   3.874 -3.0124  1.0339 -0.6958
 3146SOL    HW210338   4.722   4.992   3.829 -0.5384 -2.1605  2.1840
 3147SOL     OW10339   0.549   1.820   5.004  0.1449  0.5477  0.6353
 3147SOL    HW110340   0.488   1.890   5.042  0.2885  1.0639 -0.0703
 3147SOL    HW210341   0.494   1.747   4.964 -0.0525  1.6610 -1.2024
 3148SOL     OW10342   6.025   3.743   4.234 -0.3968 -0.1243  0.4734
 3148SOL    HW110343   6.113   3.777   4.269  0.3723 -1.4071 -0.1846
 3148SOL    HW210344   5.951   3.777   4.293  0.0942  4.0398 -0.9983
 3149SOL     OW10345   4.626   4.534   4.229  0.1918 -0.1021 -0.0835
 3149SOL    HW110346   4.645   4.436   4.235  2.5993 -0.0466 -3.5862
 3149SOL    HW210347   4.687   4.584   4.291 -0.3822 -0.7165  1.0092
 3150SOL     OW10348   0.474   6.639   4.032  0.4006 -0.0110  0.3956
 3150SOL    HW110349   0.383   6.664   3.998 -0.0327 -1.8236  0.1303
 3150SOL    HW210350   0.529   6.722   4.045 -0.9246  1.0330 -0.4536
 3151SOL     OW10351   6.959   5.684   0.170  0.0925 -0.0404 -0.3630
 3151SOL    HW110352   6.994   5.765   0.217  1.4668 -0.8090 -0.0071
 3151SOL    HW210353   6.921   5.620   0.236  0.2636 -0.2785 -0.4921
 3152SOL     OW10354   0.889   0.622   4.292 -0.2924 -0.5571 -0.1206
 3152SOL    HW110355   0.940   0.548   4.247  1.3296  0.2885  0.2195
 3152SOL    HW210356   0.954   0.692   4.323 -1.8988  2.2611 -2.6115
 3153SOL     OW10357   0.830   5.071   6.596  0.1731 -0.2178  0.2374
 3153SOL    HW110358   0.792   4.979   6.589  0.9136 -0.5671  0.7350
 3153SOL    HW210359   0.798   5.127   6.519  1.1387 -1.3969 -1.0562
 3154SOL     OW10360   3.643   1.754   3.299  0.1181  0.0324 -0.0858
 3154SOL    HW110361   3.636   1.776   3.396 -0.0261  2.5797 -0.6033
 3154SOL    HW210362   3.562   1.786   3.251  0.9811  0.4811 -1.3035
 3155SOL     OW10363   5.469   3.996   1.872 -0.4853 -0.1611  0.0400
 3155SOL    HW110364   5.498   4.015   1.778  2.9910 -0.5372  0.9169
 3155SOL    HW210365   5.524   4.050   1.936 -1.6918 -1.0675  1.9460
 3156SOL     OW10366   0.959   3.679   0.598  0.0991  0.1519  0.4879
 3156SOL    HW110367   0.876   3.685   0.542  1.0420  0.2727 -0.9349
 3156SOL    HW210368   0.963   3.758   0.659 -1.1222 -0.1604  1.0153
 3157SOL     OW10369   3.967   1.494   5.895  0.0649  0.0739 -0.3469
 3157SOL    HW110370   4.065   1.505   5.910 -0.3210  2.5243  0.9391
 3157SOL    HW210371   3.926   1.452   5.976 -0.1372  0.4426 -0.2559
 3158SOL     OW10372   0.055   2.964   3.521 -0.1035 -0.0675 -0.0576
 3158SOL    HW110373   0.011   3.039   3.472 -1.4035 -0.7496  0.0193
 3158SOL    HW210374   0.082   2.995   3.613  0.8587  0.7487 -0.5979
 3159SOL     OW10375   2.937   2.087   0.885  0.1017  0.2307 -0.3064
 3159SOL    HW110376   3.006   2.029   0.841 -1.9932 -1.6920 -1.2726
 3159SOL    HW210377   2.964   2.105   0.979  1.0592 -1.9912 -0.0867
 3160SOL     OW10378   0.886   6.644   5.546 -0.2105  0.2260 -0.4263
 3160SOL    HW110379   0.880   6.744   5.546 -0.1164  0.2336 -0.8505
 3160SOL    HW210380   0.982   6.617   5.551 -0.2909  0.1422  1.1074
 3161SOL     OW10381   7.015   0.517   5.139  0.2725 -0.4550  0.2878
 3161SOL    HW110382   7.044   0.558   5.225 -1.0448  1.4115 -0.0937
 3161SOL    HW210383   6.922   0.547   5.118  0.4220 -1.1896 -1.5795
 3162SOL     OW10384   1.544   4.636   6.554  0.2275 -0.0365 -0.0671
 3162SOL    HW110385   1.487   4.718   6.561  0.0766 -0.1537  0.1008
 3162SOL    HW210386   1.637   4.662   6.528  0.0013  0.1232 -0.7390
 3163SOL     OW10387   4.495   4.305   0.203 -0.5394 -0.8008  0.2836
 3163SOL    HW110388   4.439   4.325   0.122 -0.2906 -0.1101  0.2784
 3163SOL    HW210389   4.457   4.225   0.250 -0.1812 -1.7756 -0.9968
 3164SOL     OW10390   4.895   3.461   5.271  0.3162  0.3944 -0.3399
 3164SOL    HW110391   4.824   3.529   5.284  0.4299  0.2888  0.9756
 3164SOL    HW210392   4.906   3.441   5.173 -3.1790 -1.3885 -0.5241
 3165SOL     OW10393   5.893   6.294   4.919 -0.2381 -0.5889 -0.1256
 3165SOL    HW110394   5.980   6.251   4.892 -0.0107 -0.8367  0.9511
 3165SOL    HW210395   5.911   6.383   4.961 -0.3560 -1.2550  1.4164
 3166SOL     OW10396   3.747   1.497   0.946  0.3460 -0.0970  0.1711
 3166SOL    HW110397   3.840   1.481   0.916  1.0172  1.6294  1.1692
 3166SOL    HW210398   3.720   1.591   0.922 -1.0859 -0.5183  0.0232
 3167SOL     OW10399   6.477   3.790   0.817  0.8916 -0.4750  0.1260
 3167SOL    HW110400   6.535   3.862   0.777  1.0762 -0.3244  0.6562
 3167SOL    HW210401   6.526   3.746   0.892 -0.1839  0.5981  1.5156
 3168SOL     OW10402   6.308   1.100   1.279  0.4706  0.9134 -0.4202
 3168SOL    HW110403   6.324   1.034   1.352  0.4152  1.7124  0.3395
 3168SOL    HW210404   6.263   1.055   1.202  2.0535 -0.3232 -0.6680
 3169SOL     OW10405   4.885   4.462   2.350  0.0101  0.2542  0.0583
 3169SOL    HW110406   4.913   4.405   2.274  1.0476 -0.4125  0.9125
 3169SOL    HW210407   4.827   4.537   2.316 -2.3070 -1.8436 -0.9618
 3170SOL     OW10408   2.382   1.855   6.567 -0.0301 -0.0835  0.3661
 3170SOL    HW110409   2.341   1.873   6.477 -1.1767  0.3519  0.9595
 3170SOL    HW210410   2.340   1.774   6.608 -0.9681  0.8866  1.3688
 3171SOL     OW10411   3.849   1.931   5.727 -0.3219  0.3601 -0.5900
 3171SOL    HW110412   3.905   1.972   5.798  0.2171 -0.7363 -0.3485
 3171SOL    HW210413   3.856   1.985   5.643  0.9125  0.3853 -0.4953
 3172SOL     OW10414   6.924   0.517   2.083  0.0699 -0.2180 -0.0595
 3172SOL    HW110415   6.829   0.486   2.083  0.5867 -1.9652  1.2397
 3172SOL    HW210416   6.984   0.442   2.054  1.1177  0.5954 -0.0692
 3173SOL     OW10417   2.815   1.029   5.519  0.0220 -0.2769 -0.4590
 3173SOL    HW110418   2.910   1.060   5.508 -0.6727  1.5164 -1.8905
 3173SOL    HW210419   2.788   0.977   5.438  0.0005 -1.5045  0.3082
 3174SOL     OW10420   2.862   2.213   2.853  0.4152  0.2573  0.0440
 3174SOL    HW110421   2.851   2.311   2.867 -0.9321 -0.0997  1.8578
 3174SOL    HW210422   2.803   2.182   2.779 -1.7720  0.3585  1.6299
 3175SOL     OW10423   5.633   0.917   0.278 -0.2567  0.2257  0.1004
 3175SOL    HW110424   5.628   0.959   0.369 -1.2119  0.4686 -0.0524
 3175SOL    HW210425   5.658   0.821   0.287  0.2993  0.4012  0.5661
 3176SOL     OW10426   0.733   4.588   4.646 -0.3422 -0.3446 -0.2878
 3176SOL    HW110427   0.707   4.654   4.576  0.1850 -0.5495 -0.6883
 3176SOL    HW210428   0.756   4.501   4.602  0.6922 -0.2624  0.0634
 3177SOL     OW10429   3.881   4.439   6.553  0.3486 -0.2662 -0.6415
 3177SOL    HW110430   3.868   4.346   6.588  1.1127 -0.2602 -0.3196
 3177SOL    HW210431   3.893   4.436   6.454 -0.8634 -0.3824 -0.7964
 3178SOL     OW10432   4.379   0.845   4.612 -0.2052  0.0189  0.0339
 3178SOL    HW110433   4.391   0.852   4.513  0.3391  2.7514  0.1984
 3178SOL    HW210434   4.464   0.813   4.654  0.9210  2.4512 -0.1826
 3179SOL     OW10435   5.396   1.093   4.967  0.2688 -0.4424  0.2801
 3179SOL    HW110436   5.490   1.127   4.962 -0.5603  1.8706 -1.5246
 3179SOL    HW210437   5.389   1.007   4.916  1.3562 -0.5084  0.2222
 3180SOL     OW10438   6.121   3.572   3.154  0.0591  0.5815  0.3014
 3180SOL    HW110439   6.174   3.585   3.238  0.7822 -2.6168  0.4865
 3180SOL    HW210440   6.183   3.543   3.080 -1.1116 -1.3404  0.0043
 3181SOL     OW10441   6.103   6.642   4.070 -0.1961  0.6497  0.1739
 3181SOL    HW110442   6.157   6.726   4.076 -0.4112  0.6985  2.0595
 3181SOL    HW210443   6.150   6.568   4.119 -1.6551  0.6392  1.6690
 3182SOL     OW10444   6.165   2.923   2.951  0.4864 -0.4270  0.0797
 3182SOL    HW110445   6.179   2.994   3.020 -1.5350 -0.2433  0.3552
 3182SOL    HW210446   6.211   2.839   2.979 -1.9746 -1.0157  2.7596
 3183SOL     OW10447   3.888   5.147   6.149  0.3333 -0.0049  0.2785
 3183SOL    HW110448   3.900   5.083   6.225 -0.0002 -0.4214 -0.0084
 3183SOL    HW210449   3.904   5.240   6.181 -1.7448  0.0516  1.3813
 3184SOL     OW10450   2.528   3.375   6.913  0.1170 -0.2084  0.3919
 3184SOL    HW110451   2.606   3.360   6.852 -0.5822 -1.4861 -0.2517
 3184SOL    HW210452   2.560   3.411   7.000  1.5056 -1.2821  0.3697
 3185SOL     OW10453   1.313   4.827   0.789  0.2406 -0.7843  0.6418
 3185SOL    HW110454   1.391   4.848   0.848  1.5360 -1.6017 -0.7147
 3185SOL    HW210455   1.345   4.817   0.695 -1.2399 -2.8214  0.3010
 3186SOL     OW10456   5.112   4.640   0.303 -0.7440  0.3474 -0.5703
 3186SOL    HW110457   5.151   4.669   0.215 -1.1194  1.3493 -0.4208
 3186SOL    HW210458   5.051   4.712   0.338 -0.6732 -0.0770  0.4650
 3187SOL     OW10459   5.910   3.008   2.519  0.2359 -0.7052 -0.2334
 3187SOL    HW110460   5.998   3.055   2.521  0.0052 -0.2656 -0.0152
 3187SOL    HW210461   5.890   2.970   2.610 -0.8604  1.2567  0.4131
 3188SOL     OW10462   4.178   1.281   1.813  0.1431  0.8448 -0.0622
 3188SOL    HW110463   4.224   1.247   1.895 -0.8719 -0.8267 -0.1356
 3188SOL    HW210464   4.126   1.363   1.836 -0.4642  0.1612  1.0732
 3189SOL     OW10465   5.675   3.026   1.675  0.2411  0.1900 -1.2299
 3189SOL    HW110466   5.770   3.036   1.704 -0.2322 -0.1363  0.5880
 3189SOL    HW210467   5.631   3.116   1.675  0.8421  0.5400 -3.3565
 3190SOL     OW10468   2.146   3.248   4.685 -0.0468 -0.4047  0.2914
 3190SOL    HW110469   2.164   3.224   4.780  0.6492  0.4033  0.3710
 3190SOL    HW210470   2.174   3.172   4.626 -0.2848 -0.8237  0.7092
 3191SOL     OW10471   3.581   2.837   1.135 -0.3883  0.1764  0.2306
 3191SOL    HW110472   3.523   2.809   1.058 -1.0391  2.7431 -0.2901
 3191SOL    HW210473   3.669   2.868   1.100 -0.3812  0.5732  0.5984
 3192SOL     OW10474   3.659   2.762   1.405 -0.0088 -0.1043 -0.5688
 3192SOL    HW110475   3.586   2.777   1.472 -0.0040 -1.8721 -0.1275
 3192SOL    HW210476   3.622   2.770   1.313 -0.6001 -0.2966 -0.3500
 3193SOL     OW10477   5.164   6.788   4.456 -0.4726 -0.0523  0.8411
 3193SOL    HW110478   5.200   6.834   4.375  0.2159 -0.0986  1.1167
 3193SOL    HW210479   5.070   6.819   4.473 -0.6597 -0.1233 -0.0316
 3194SOL     OW10480   2.276   1.014   1.348  0.3241 -0.4848  0.3209
 3194SOL    HW110481   2.255   0.917   1.331  0.2228 -0.2285 -1.2151
 3194SOL    HW210482   2.192   1.068   1.340  0.5955 -0.1243 -0.1704
 3195SOL     OW10483   3.831   6.297   4.422 -0.7980 -0.4666  0.8105
 3195SOL    HW110484   3.893   6.329   4.494 -0.2829 -1.8068  0.9943
 3195SOL    HW210485   3.881   6.295   4.335 -0.7322 -1.0208  0.8563
 3196SOL     OW10486   3.059   3.783   4.307  0.1758  0.1291  0.1417
 3196SOL    HW110487   3.114   3.737   4.377  0.7157 -0.5395 -0.7019
 3196SOL    HW210488   3.075   3.881   4.312  1.3808 -0.0403 -0.0011
 3197SOL     OW10489   4.252   5.815   4.997  0.4165 -0.0896  0.5008
 3197SOL    HW110490   4.162   5.823   5.039 -0.1484 -0.2065 -0.6366
 3197SOL    HW210491   4.244   5.830   4.898  1.4404 -1.3833  0.1902
 3198SOL     OW10492   1.875   5.221   6.666  0.2062  0.3594  0.6374
 3198SOL    HW110493   1.838   5.209   6.758 -1.0635  3.0058  0.5677
 3198SOL    HW210494   1.948   5.289   6.668  1.0791 -0.5211 -0.1506
 3199SOL     OW10495   1.369   0.393   0.663 -0.0224 -0.7304  0.2359
 3199SOL    HW110496   1.353   0.297   0.642  0.1870 -0.5075 -1.0002
 3199SOL    HW210497   1.459   0.420   0.628  0.0637 -0.1606  0.8699
 3200SOL     OW10498   3.596   6.811   0.508 -0.3006  0.1909  0.2931
 3200SOL    HW110499   3.583   6.856   0.597 -0.0080 -1.3022  1.1160
 3200SOL    HW210500   3.530   6.737   0.499 -0.8514  0.8237 -1.0987
 3201SOL     OW10501   0.707   4.192   6.380  0.1075  0.1253  0.0687
 3201SOL    HW110502   0.717   4.135   6.462 -0.5885 -0.8006 -0.4710
 3201SOL    HW210503   0.741   4.142   6.300 -0.9390  0.2683 -0.4824
 3202SOL     OW10504   3.796   2.066   0.607 -0.4219 -0.0640 -0.2973
 3202SOL    HW110505   3.720   2.090   0.547 -2.1142  0.5966  1.9964
 3202SOL    HW210506   3.765   2.065   0.702  1.7646 -2.5908  0.5075
 3203SOL     OW10507   0.070   0.116   4.429 -0.3677  0.2304 -0.8222
 3203SOL    HW110508   0.155   0.167   4.436 -0.3305  0.3822 -2.1476
 3203SOL    HW210509   0.003   0.154   4.493 -0.2805  1.8267 -1.6309
 3204SOL     OW10510   0.245   0.805   0.695 -0.0058  0.3446  0.5164
 3204SOL    HW110511   0.165   0.805   0.755  0.3660 -1.5518  1.0823
 3204SOL    HW210512   0.223   0.854   0.611 -1.1977  1.3123  1.3452
 3205SOL     OW10513   2.183   0.371   3.338  0.1469  0.7314  0.0107
 3205SOL    HW110514   2.130   0.378   3.423  0.4050 -0.6216  0.3200
 3205SOL    HW210515   2.281   0.377   3.360  0.1824  1.3082 -0.3098
 3206SOL     OW10516   0.669   1.286   4.691 -0.0355  0.3312 -0.9107
 3206SOL    HW110517   0.601   1.213   4.684 -0.3856  0.7344 -1.8724
 3206SOL    HW210518   0.686   1.307   4.787 -1.0000 -0.0265 -0.6581
 3207SOL     OW10519   2.824   1.828   6.196 -0.4138 -0.1098 -0.0011
 3207SOL    HW110520   2.872   1.856   6.279  0.9800 -0.4839 -0.6588
 3207SOL    HW210521   2.826   1.728   6.189  2.1660 -0.0032 -1.9752
 3208SOL     OW10522   3.959   5.411   6.891 -0.0137 -0.0880 -0.1149
 3208SOL    HW110523   4.040   5.465   6.912 -0.5637  0.1536  1.4848
 3208SOL    HW210524   3.878   5.470   6.888 -0.1746 -0.3389 -1.5942
 3209SOL     OW10525   6.004   3.665   6.663  0.3719  0.2353 -0.2679
 3209SOL    HW110526   6.067   3.594   6.695 -0.4134  0.5522  2.1953
 3209SOL    HW210527   6.039   3.755   6.689 -0.2549  0.5289 -0.4091
 3210SOL     OW10528   6.809   2.533   0.024 -0.8637 -0.4104 -0.7975
 3210SOL    HW110529   6.905   2.520  -0.001 -0.7061 -0.9344  0.0350
 3210SOL    HW210530   6.754   2.459  -0.016 -0.4155 -2.0397  1.4021
 3211SOL     OW10531   3.502   4.541   5.306  0.0152  0.8421 -0.5855
 3211SOL    HW110532   3.508   4.628   5.258  1.1588  1.6866  0.9801
 3211SOL    HW210533   3.413   4.534   5.352 -0.5701  0.5910 -1.7044
 3212SOL     OW10534   3.024   2.695   6.471 -0.4292 -0.1096  0.2611
 3212SOL    HW110535   2.926   2.713   6.461 -0.0966  1.3349 -0.7245
 3212SOL    HW210536   3.054   2.634   6.397 -0.5700 -0.5556  0.5656
 3213SOL     OW10537   1.082   2.752   6.434  0.0464  0.4478 -0.0273
 3213SOL    HW110538   1.004   2.810   6.457 -0.8250  0.8952 -3.4462
 3213SOL    HW210539   1.065   2.659   6.466 -0.7808  1.0379  1.3151
 3214SOL     OW10540   2.837   4.323   5.407  0.3848 -0.3758  0.7359
 3214SOL    HW110541   2.864   4.379   5.329 -0.5981  1.5423  1.7043
 3214SOL    HW210542   2.915   4.267   5.437  1.2981  0.2055 -0.4785
 3215SOL     OW10543   4.251   6.740   5.287 -0.1628  0.2244  0.0317
 3215SOL    HW110544   4.273   6.800   5.210 -0.9471 -0.2847 -0.6052
 3215SOL    HW210545   4.296   6.774   5.370  1.7191  0.0641 -0.8923
 3216SOL     OW10546   6.586   2.915   4.753  0.2560  0.4104 -0.2972
 3216SOL    HW110547   6.651   2.991   4.756 -0.4580  1.0409 -0.5480
 3216SOL    HW210548   6.604   2.853   4.830  1.6359  0.1565 -0.7897
 3217SOL     OW10549   5.463   0.797   2.517  0.3362 -0.1754  0.7005
 3217SOL    HW110550   5.476   0.896   2.513 -0.2784 -0.1122 -0.0058
 3217SOL    HW210551   5.530   0.752   2.457 -0.3332 -0.0758 -0.1548
 3218SOL     OW10552   0.691   3.637   5.004  0.1703  0.5853 -0.2615
 3218SOL    HW110553   0.686   3.580   5.087  1.5242 -0.6641 -0.9837
 3218SOL    HW210554   0.760   3.598   4.942  1.7109  3.4443 -0.4920
 3219SOL     OW10555   2.295   0.716   2.992  0.3961  0.2832 -0.3314
 3219SOL    HW110556   2.228   0.660   3.039  0.5127 -0.1338 -0.6600
 3219SOL    HW210557   2.264   0.735   2.899  2.0980 -2.5507 -1.6241
 3220SOL     OW10558   6.631   3.796   4.486 -0.3472  0.4998 -0.4064
 3220SOL    HW110559   6.601   3.780   4.579  1.2318 -0.3632  0.0001
 3220SOL    HW210560   6.628   3.894   4.465  1.5585  1.0253  1.4240
 3221SOL     OW10561   5.444   5.281   2.940  0.0734 -0.2194  0.2304
 3221SOL    HW110562   5.355   5.297   2.896  0.7732  0.1534 -1.0938
 3221SOL    HW210563   5.429   5.245   3.032 -1.4530 -1.6470 -0.5168
 3222SOL     OW10564   6.886   5.127   0.694 -0.3618  0.1915  0.0113
 3222SOL    HW110565   6.878   5.033   0.662 -0.3604 -0.4220  1.6928
 3222SOL    HW210566   6.913   5.127   0.791  0.7156  1.9354 -0.2411
 3223SOL     OW10567   0.919   5.820   1.758 -0.2689 -0.0273 -0.0852
 3223SOL    HW110568   0.890   5.904   1.711 -1.3544  0.9385  2.1067
 3223SOL    HW210569   0.999   5.840   1.814  2.7811 -1.8396 -3.4308
 3224SOL     OW10570   4.224   2.325   1.177  0.6906 -0.1095 -0.0319
 3224SOL    HW110571   4.163   2.373   1.114 -0.4535 -2.7265 -1.0578
 3224SOL    HW210572   4.304   2.292   1.127  2.6926  2.5509  1.1383
 3225SOL     OW10573   0.986   1.347   3.273  0.0536 -0.1000 -0.2921
 3225SOL    HW110574   0.961   1.344   3.176 -0.6119 -0.8135 -0.1116
 3225SOL    HW210575   1.083   1.370   3.282 -0.1872  1.2862 -1.0691
 3226SOL     OW10576   2.960   5.169   4.329 -0.0684  0.8110  0.1015
 3226SOL    HW110577   2.860   5.175   4.325 -0.0830  0.1583 -2.4657
 3226SOL    HW210578   2.987   5.081   4.368 -0.4520  1.1891  1.2640
 3227SOL     OW10579   1.664   6.092   1.283  0.2452 -0.3443  0.2623
 3227SOL    HW110580   1.602   6.067   1.357  1.1116 -1.4057  0.6736
 3227SOL    HW210581   1.684   6.190   1.288  0.7157 -0.4808  1.7960
 3228SOL     OW10582   5.371   6.742   1.413  0.1917  0.1218 -0.4026
 3228SOL    HW110583   5.419   6.805   1.474  1.1065 -0.0242 -0.9491
 3228SOL    HW210584   5.318   6.795   1.346 -0.8517  0.2817  0.5135
 3229SOL     OW10585   6.987   1.733   4.608  0.4698 -0.6500  0.0440
 3229SOL    HW110586   6.915   1.802   4.602 -2.0253 -3.2031 -1.5060
 3229SOL    HW210587   7.009   1.699   4.517  0.4472 -2.9888  0.8309
 3230SOL     OW10588   5.655   1.087   1.232 -0.8361 -0.0220  0.1842
 3230SOL    HW110589   5.684   1.093   1.327 -0.1573  2.3183 -0.1054
 3230SOL    HW210590   5.635   1.179   1.197 -1.1660 -0.8237 -1.9076
 3231SOL     OW10591   3.531   6.958   4.970  0.2399  0.4468 -0.6272
 3231SOL    HW110592   3.462   6.993   5.034 -1.2015  0.3690 -2.0754
 3231SOL    HW210593   3.533   6.858   4.976  0.4996  0.4674 -0.3291
 3232SOL     OW10594   0.369   6.193   1.226  0.5447 -0.3938  0.0946
 3232SOL    HW110595   0.390   6.182   1.323  0.5823  3.1418  0.6244
 3232SOL    HW210596   0.435   6.255   1.184 -1.9150  1.6581 -1.0528
 3233SOL     OW10597   0.023   5.362   4.978  0.1629  0.6942 -0.5510
 3233SOL    HW110598  -0.050   5.339   4.913 -1.9091  0.2270  1.7741
 3233SOL    HW210599   0.071   5.278   5.003 -0.0872  0.6155 -0.3241
 3234SOL     OW10600   0.730   5.831   6.369 -0.2085 -0.9000 -0.6871
 3234SOL    HW110601   0.645   5.787   6.399 -1.1591 -0.8857 -3.1388
 3234SOL    HW210602   0.718   5.930   6.369  0.3012 -0.8291  0.2681
 3235SOL     OW10603   6.940   4.915   1.357  0.6288  0.0648 -0.1270
 3235SOL    HW110604   6.931   5.009   1.392 -0.0505  0.6828 -1.8360
 3235SOL    HW210605   6.850   4.882   1.329  0.7346 -1.4264  1.1551
 3236SOL     OW10606   6.794   4.217   6.636  0.0810  0.0399  0.2210
 3236SOL    HW110607   6.764   4.215   6.732 -0.9970 -3.2627 -0.0588
 3236SOL    HW210608   6.861   4.144   6.621  2.3238  2.2114 -1.0303
 3237SOL     OW10609   5.636   3.100   3.097 -0.0065 -0.1516  0.5181
 3237SOL    HW110610   5.716   3.071   3.044  1.0139 -1.4713  2.6062
 3237SOL    HW210611   5.554   3.096   3.040  0.9238 -2.1233 -0.7900
 3238SOL     OW10612   3.141   0.393   5.071 -0.0916  0.1285 -0.0487
 3238SOL    HW110613   3.066   0.408   5.136  0.9759  0.6218  1.1049
 3238SOL    HW210614   3.103   0.386   4.978 -1.3884  2.5996  0.1960
 3239SOL     OW10615   3.917   3.851   0.192 -0.3422  0.4389  0.5270
 3239SOL    HW110616   3.946   3.895   0.276 -1.3380  0.8279  0.6804
 3239SOL    HW210617   3.864   3.769   0.213 -0.8218  0.6831  0.2897
 3240SOL     OW10618   1.677   6.795   0.835 -0.1478  0.2498  0.6290
 3240SOL    HW110619   1.776   6.789   0.839 -0.1266  1.1291  2.3501
 3240SOL    HW210620   1.637   6.739   0.908 -1.1026 -2.3561 -1.7005
 3241SOL     OW10621   0.022   1.779   3.370  0.9674  0.3917 -0.3182
 3241SOL    HW110622   0.048   1.721   3.293 -1.8767  2.1674 -2.8429
 3241SOL    HW210623  -0.021   1.722   3.441  0.4769 -0.9176 -1.6073
 3242SOL     OW10624   5.920   6.933   3.027 -0.0788  0.1312 -0.4940
 3242SOL    HW110625   5.908   6.839   2.994  0.4577 -0.3554  0.6540
 3242SOL    HW210626   6.004   6.939   3.081  0.3664  1.4919 -1.2932
 3243SOL     OW10627   3.520   4.291   5.407 -0.5961  0.1419 -0.1554
 3243SOL    HW110628   3.524   4.383   5.368 -1.3339 -0.2142 -1.1291
 3243SOL    HW210629   3.426   4.256   5.398 -0.2832 -0.7622  0.0471
 3244SOL     OW10630   6.550   0.699   2.581  0.3372  0.2265  0.1969
 3244SOL    HW110631   6.587   0.755   2.655  2.3054  1.3828 -1.5631
 3244SOL    HW210632   6.625   0.652   2.534 -0.8041 -0.1618 -1.3040
 3245SOL     OW10633   4.573   1.758   2.550  0.8072 -0.0758 -0.0256
 3245SOL    HW110634   4.589   1.802   2.461  0.9453  0.4641  0.2612
 3245SOL    HW210635   4.631   1.677   2.558  1.3500  0.2926 -0.1323
 3246SOL     OW10636   0.398   1.773   2.310  0.8227 -0.9346 -0.0863
 3246SOL    HW110637   0.351   1.772   2.399  0.1540 -0.0724 -0.4230
 3246SOL    HW210638   0.417   1.679   2.282 -1.2313 -1.3613 -0.2005
 3247SOL     OW10639   4.203   1.892   1.733 -0.0415  0.2048  0.1314
 3247SOL    HW110640   4.211   1.991   1.717 -1.7258  0.3199 -0.2161
 3247SOL    HW210641   4.287   1.858   1.775  0.8970  1.6267 -0.5122
 3248SOL     OW10642   1.907   0.985   6.953  0.1955 -0.2837 -0.5678
 3248SOL    HW110643   1.971   0.984   7.029 -1.0029  1.8592  0.5881
 3248SOL    HW210644   1.818   0.951   6.984 -0.7692  2.1276 -0.4220
 3249SOL     OW10645   3.402   5.366   2.688 -0.0521  0.0897  0.2401
 3249SOL    HW110646   3.474   5.419   2.641  0.1571 -0.0358  0.4156
 3249SOL    HW210647   3.313   5.387   2.648 -0.2477  2.0615  1.5693
 3250SOL     OW10648   6.967   5.327   6.646  0.1674 -0.0542 -0.1602
 3250SOL    HW110649   7.025   5.380   6.584  0.0451 -0.1246 -0.3333
 3250SOL    HW210650   6.970   5.231   6.619 -1.7917  0.2283 -1.5497
 3251SOL     OW10651   3.247   3.685   6.889  0.2298 -0.1288  0.4647
 3251SOL    HW110652   3.279   3.780   6.890 -1.4797  0.4782  1.4968
 3251SOL    HW210653   3.161   3.680   6.838  0.8218 -1.3422 -0.4759
 3252SOL     OW10654   2.203   6.978   6.920 -0.7834 -0.0184  0.3628
 3252SOL    HW110655   2.244   6.974   6.829  1.3675  0.5080  1.2278
 3252SOL    HW210656   2.193   6.885   6.956 -2.5796 -0.2938 -0.7519
 3253SOL     OW10657   3.146   2.164   1.910 -0.4123  0.3154 -0.4435
 3253SOL    HW110658   3.191   2.153   1.999 -1.6942 -1.3676  0.0700
 3253SOL    HW210659   3.070   2.228   1.920 -0.2746  0.4763 -0.4305
 3254SOL     OW10660   1.097   6.952   4.863  0.7510 -0.0818 -0.9230
 3254SOL    HW110661   1.007   6.925   4.830  0.7504  1.4667 -2.3485
 3254SOL    HW210662   1.087   7.007   4.946  0.3765  0.1473 -1.1170
 3255SOL     OW10663   5.580   1.625   0.273  0.2068  0.2757 -0.6787
 3255SOL    HW110664   5.648   1.552   0.272  1.2552  1.2224 -1.9189
 3255SOL    HW210665   5.557   1.650   0.179 -1.5878  0.2396 -0.2744
 3256SOL     OW10666   4.746   5.399   4.668  0.1011  0.2427  0.0379
 3256SOL    HW110667   4.672   5.332   4.667  1.6111 -1.5048 -1.4293
 3256SOL    HW210668   4.810   5.377   4.742 -0.0869  0.8956  0.4042
 3257SOL     OW10669   3.824   1.726   0.411 -0.4198  0.3758 -0.1745
 3257SOL    HW110670   3.913   1.772   0.407  1.2769 -2.6528 -1.4963
 3257SOL    HW210671   3.806   1.697   0.505 -0.8045  2.3143  0.3855
 3258SOL     OW10672   0.439   3.704   6.597 -0.8066  0.6392  0.2446
 3258SOL    HW110673   0.511   3.770   6.576 -2.4083  2.2456 -0.4489
 3258SOL    HW210674   0.475   3.635   6.660  1.4125  1.1631 -0.3561
 3259SOL     OW10675   5.236   6.027   0.308  0.0945 -0.5438  0.0691
 3259SOL    HW110676   5.264   5.932   0.300  3.8357  0.5576 -1.7148
 3259SOL    HW210677   5.282   6.069   0.386  1.2816  0.6049 -1.1952
 3260SOL     OW10678   3.624   5.082   5.158 -0.1432 -0.5403 -0.2370
 3260SOL    HW110679   3.671   5.070   5.246  0.4658  0.0630 -0.4684
 3260SOL    HW210680   3.527   5.098   5.174 -0.1836 -1.2491  0.2826
 3261SOL     OW10681   2.469   3.658   6.929  0.0270 -0.3663  0.2714
 3261SOL    HW110682   2.386   3.638   6.877  0.1952  0.7582 -0.4692
 3261SOL    HW210683   2.549   3.626   6.878  0.1162 -0.4913  0.4873
 3262SOL     OW10684   5.102   3.533   5.842  0.4928 -0.1075 -0.0533
 3262SOL    HW110685   5.099   3.612   5.902  0.1311 -0.8564  0.9500
 3262SOL    HW210686   5.017   3.528   5.789  1.5789  1.6277 -2.1167
 3263SOL     OW10687   1.561   4.077   3.845  0.6033  0.0623  0.1492
 3263SOL    HW110688   1.572   4.108   3.750 -0.1871 -2.0254 -0.6874
 3263SOL    HW210689   1.629   4.007   3.865 -1.3719 -2.0604 -0.1081
 3264SOL     OW10690   1.488   1.288   4.236 -0.1559  0.9399 -0.1176
 3264SOL    HW110691   1.430   1.278   4.317 -1.5733 -1.1514 -1.2995
 3264SOL    HW210692   1.457   1.366   4.182 -0.2936  1.3106  0.4845
 3265SOL     OW10693   0.504   6.953   2.132 -0.3958 -0.0373  0.2646
 3265SOL    HW110694   0.507   6.864   2.179 -2.1252  0.7567  2.0384
 3265SOL    HW210695   0.452   7.018   2.188 -0.2170  1.7679 -1.5617
 3266SOL     OW10696   6.794   0.474   2.497  0.1531 -0.0690 -0.0866
 3266SOL    HW110697   6.880   0.509   2.459  0.0661 -0.9275 -1.1554
 3266SOL    HW210698   6.808   0.447   2.592  1.4904 -1.5430 -0.6573
 3267SOL     OW10699   5.966   1.942   2.960  0.1157 -0.3038 -0.0008
 3267SOL    HW110700   6.032   2.012   2.932  0.6426 -1.4083 -1.6722
 3267SOL    HW210701   6.005   1.852   2.944 -0.2186 -1.0509  2.9042
 3268SOL     OW10702   0.472   2.928   0.616 -0.1735  0.0261 -0.0975
 3268SOL    HW110703   0.497   2.831   0.609 -1.4867 -0.3708  0.2686
 3268SOL    HW210704   0.372   2.935   0.625 -0.2142  1.4753 -1.3082
 3269SOL     OW10705   5.845   5.710   2.819 -0.1116  0.6628 -0.4550
 3269SOL    HW110706   5.943   5.693   2.827 -0.6741 -3.1723  0.3977
 3269SOL    HW210707   5.806   5.645   2.754 -2.3515  0.6731  0.7825
 3270SOL     OW10708   3.509   4.127   4.912 -0.8210 -0.1777 -0.2827
 3270SOL    HW110709   3.451   4.109   4.991 -0.2166  2.7807  0.9827
 3270SOL    HW210710   3.452   4.157   4.835 -1.1826  0.2526  0.1449
 3271SOL     OW10711   3.461   2.169   4.627 -0.4912  0.5075 -0.2279
 3271SOL    HW110712   3.497   2.246   4.681 -0.4708  1.2567 -1.2860
 3271SOL    HW210713   3.532   2.101   4.615 -1.2228 -1.0610  3.0257
 3272SOL     OW10714   6.082   4.948   6.887  0.0898  0.3009 -0.2444
 3272SOL    HW110715   6.115   4.956   6.982 -1.0551  2.2301  0.0350
 3272SOL    HW210716   6.160   4.943   6.825  0.8826 -1.9805  0.8087
 3273SOL     OW10717   5.098   3.570   1.017  0.5651  0.0993 -0.1361
 3273SOL    HW110718   5.034   3.515   0.963  1.9398 -0.8049 -0.8949
 3273SOL    HW210719   5.120   3.521   1.102  0.7506  0.1177 -0.1753
 3274SOL     OW10720   1.057   2.043   4.144  0.4464 -0.3961 -0.5912
 3274SOL    HW110721   1.094   2.021   4.234  0.3960 -0.5945 -0.6187
 3274SOL    HW210722   1.000   1.967   4.112 -1.3783  0.5913  0.1768
 3275SOL     OW10723   2.150   4.832   3.256 -0.1366 -0.1250  0.3004
 3275SOL    HW110724   2.125   4.925   3.283 -0.6461 -0.0455 -0.4034
 3275SOL    HW210725   2.139   4.822   3.157 -0.4508 -1.0433  0.4177
 3276SOL     OW10726   0.030   1.809   0.968  0.2795  0.5054  0.3585
 3276SOL    HW110727   0.053   1.730   0.910 -1.2567 -0.7580  1.3928
 3276SOL    HW210728  -0.069   1.815   0.977  0.4283  1.9138  1.2218
 3277SOL     OW10729   4.830   2.528   3.871  0.0700  0.7785  0.2997
 3277SOL    HW110730   4.814   2.461   3.799 -1.4436  1.5837 -0.1418
 3277SOL    HW210731   4.884   2.486   3.944  2.1208  0.1103 -1.5115
 3278SOL     OW10732   3.976   4.649   6.031 -0.2183  0.2112 -0.1253
 3278SOL    HW110733   3.994   4.746   6.021  0.0959  0.1079 -0.5629
 3278SOL    HW210734   3.977   4.625   6.128  2.4242  0.1321 -0.1038
 3279SOL     OW10735   1.961   2.278   0.849 -0.0222 -0.2210  0.2070
 3279SOL    HW110736   1.980   2.368   0.810  1.9140 -0.3384  0.7714
 3279SOL    HW210737   1.865   2.255   0.835 -0.1775  1.2020 -1.4299
 3280SOL     OW10738   6.866   1.572   3.032  0.1224  0.0313  0.1298
 3280SOL    HW110739   6.835   1.508   3.102  1.2913 -0.4187  0.2609
 3280SOL    HW210740   6.852   1.531   2.942  0.9044 -0.4512  0.2143
 3281SOL     OW10741   6.860   4.779   0.978  0.8045 -0.3575  0.3686
 3281SOL    HW110742   6.811   4.859   1.013 -1.0798 -0.5493 -1.6323
 3281SOL    HW210743   6.958   4.798   0.977  0.4903  1.5043  0.9479
 3282SOL     OW10744   2.716   2.956   1.329 -0.0862 -0.2231 -0.0709
 3282SOL    HW110745   2.727   2.919   1.422  1.4880  1.1673  0.3611
 3282SOL    HW210746   2.783   2.914   1.268 -1.8036 -1.9084 -0.8916
 3283SOL     OW10747   0.725   5.370   6.788  0.0811 -0.6268  0.4506
 3283SOL    HW110748   0.753   5.354   6.694  2.4246 -0.4039  1.0586
 3283SOL    HW210749   0.801   5.409   6.840 -0.6744 -2.0856  2.8098
 3284SOL     OW10750   6.975   3.909   5.678 -0.3556  0.1732 -0.1509
 3284SOL    HW110751   6.995   3.891   5.582  0.1590 -0.9376  0.1510
 3284SOL    HW210752   6.920   3.835   5.716  0.7663 -0.2174  0.8006
 3285SOL     OW10753   5.316   1.560   1.975  0.7715 -0.2277 -0.2891
 3285SOL    HW110754   5.281   1.642   2.021 -0.0214 -1.0787  0.6753
 3285SOL    HW210755   5.327   1.486   2.042  1.7285 -0.8422 -1.0968
 3286SOL     OW10756   2.193   5.180   3.578 -0.1919 -0.0756  0.1879
 3286SOL    HW110757   2.286   5.211   3.599 -0.7014  0.2404  2.1366
 3286SOL    HW210758   2.191   5.080   3.576  0.0362 -0.1019  1.0010
 3287SOL     OW10759   2.507   6.677   6.940  0.7525 -0.6790  0.6360
 3287SOL    HW110760   2.446   6.644   6.868  1.8758 -1.5496  0.0428
 3287SOL    HW210761   2.536   6.771   6.919  0.4831 -0.6608  0.3359
 3288SOL     OW10762   3.681   1.728   1.283  0.3413  0.1838 -0.0225
 3288SOL    HW110763   3.594   1.695   1.321  0.3928  1.1937  1.0572
 3288SOL    HW210764   3.747   1.653   1.280  0.1450 -0.0755  1.3796
 3289SOL     OW10765   6.836   0.969   5.826 -0.3120 -0.2652 -0.5802
 3289SOL    HW110766   6.746   1.008   5.810  0.3294  1.3987 -0.2972
 3289SOL    HW210767   6.892   1.034   5.878  1.0419 -1.2870 -0.7034
 3290SOL     OW10768   1.011   0.142   0.570  0.0404 -0.1554 -0.3900
 3290SOL    HW110769   1.064   0.206   0.626 -1.8343 -0.4337  1.8294
 3290SOL    HW210770   0.915   0.168   0.572 -0.8066 -2.9791  0.6110
 3291SOL     OW10771   6.653   2.679   5.162 -0.5881 -0.0177 -0.1906
 3291SOL    HW110772   6.716   2.748   5.197  0.6610 -1.3735  0.3544
 3291SOL    HW210773   6.567   2.682   5.213 -0.1474  0.4491  0.5341
 3292SOL     OW10774   6.453   1.613   5.985  0.4302 -0.0900  0.0887
 3292SOL    HW110775   6.436   1.712   5.992 -0.6748 -0.2381 -0.3199
 3292SOL    HW210776   6.526   1.588   6.049 -0.2315  0.7626  1.2352
 3293SOL     OW10777   0.189   2.687   4.479 -0.2727  0.4990  0.2336
 3293SOL    HW110778   0.231   2.757   4.537 -0.7288  1.5207 -0.6451
 3293SOL    HW210779   0.093   2.712   4.463 -0.5872 -0.6075  0.3302
 3294SOL     OW10780   3.027   0.770   3.668 -0.3268  0.2385  0.4305
 3294SOL    HW110781   2.980   0.777   3.581 -0.4221  0.6200  0.5131
 3294SOL    HW210782   2.993   0.689   3.718 -0.6246  0.3004  0.3302
 3295SOL     OW10783   0.828   0.178   2.392  0.5517  0.1736 -0.2294
 3295SOL    HW110784   0.871   0.192   2.481 -0.0383 -2.0394  0.4908
 3295SOL    HW210785   0.894   0.139   2.328  0.2527 -1.0559  0.1816
 3296SOL     OW10786   1.555   6.973   6.073  0.1315  0.3422 -0.0277
 3296SOL    HW110787   1.541   6.895   6.133 -0.5626  0.8898  0.5450
 3296SOL    HW210788   1.566   7.056   6.128  1.5387  0.5634 -0.6032
 3297SOL     OW10789   0.698   6.700   2.524  0.2256  0.1817 -0.1491
 3297SOL    HW110790   0.619   6.761   2.514 -0.2248 -0.4021 -0.2338
 3297SOL    HW210791   0.684   6.640   2.603  1.2719  1.0748  0.7416
 3298SOL     OW10792   5.929   1.020   1.682 -0.1346  0.2924  0.1798
 3298SOL    HW110793   5.931   1.063   1.591 -0.2482 -1.2010 -0.5660
 3298SOL    HW210794   6.014   1.040   1.730  0.8100 -0.5045 -1.0781
 3299SOL     OW10795   3.399   2.977   1.289  0.2680  0.6222 -0.3487
 3299SOL    HW110796   3.337   2.923   1.347  1.0331 -0.5312 -0.5762
 3299SOL    HW210797   3.452   2.916   1.230 -0.3418  1.7629 -2.1554
 3300SOL     OW10798   0.124   0.533   1.441  0.0053  0.8744  0.1847
 3300SOL    HW110799   0.088   0.613   1.393  0.2201  0.3099 -0.9443
 3300SOL    HW210800   0.086   0.530   1.534 -1.1774  1.4515 -0.2639
 3301SOL     OW10801   6.891   3.150   1.766  0.0628 -0.4193 -0.1125
 3301SOL    HW110802   6.899   3.179   1.671 -0.1079  1.1474  0.3223
 3301SOL    HW210803   6.979   3.118   1.799  0.3347 -0.1073 -0.5348
 3302SOL     OW10804   1.639   2.653   0.088  0.0396  0.4349  0.0762
 3302SOL    HW110805   1.579   2.677   0.165  0.0240  0.5091  0.0411
 3302SOL    HW210806   1.711   2.722   0.079  0.2424  0.2457  0.2353
 3303SOL     OW10807   4.520   3.132   6.754 -0.2763  1.0150 -0.0608
 3303SOL    HW110808   4.460   3.209   6.734 -3.7914 -1.2965  0.7183
 3303SOL    HW210809   4.495   3.054   6.697  1.7369 -0.2219  0.6330
 3304SOL     OW10810   4.706   2.279   6.002  0.2412 -0.2237  0.2051
 3304SOL    HW110811   4.762   2.246   5.925 -0.4095  0.0848 -0.4119
 3304SOL    HW210812   4.762   2.339   6.060  0.0888  1.6349 -1.4434
 3305SOL     OW10813   2.659   5.269   2.069 -0.0493  0.0990 -0.2325
 3305SOL    HW110814   2.726   5.266   2.143  0.0307 -0.9108 -0.3293
 3305SOL    HW210815   2.674   5.192   2.007 -0.2515  0.8087 -1.1866
 3306SOL     OW10816   0.234   4.050   5.963 -0.1856 -0.2304  0.2053
 3306SOL    HW110817   0.230   4.139   6.009 -0.9476 -0.6647  1.0164
 3306SOL    HW210818   0.318   4.043   5.910 -0.9520  1.7104 -1.4058
 3307SOL     OW10819   1.170   0.713   3.220 -0.1573 -0.2224 -0.6071
 3307SOL    HW110820   1.097   0.692   3.285 -0.8161 -1.0836 -1.5712
 3307SOL    HW210821   1.171   0.811   3.201  0.0780  0.0377  0.7206
 3308SOL     OW10822   6.415   1.763   3.838 -0.4175  0.5012  0.0591
 3308SOL    HW110823   6.505   1.795   3.871 -0.7920  1.1353  0.4962
 3308SOL    HW210824   6.357   1.742   3.917 -0.7595  0.3941 -0.2210
 3309SOL     OW10825   6.181   4.222   1.313  0.0692  0.3579 -0.2998
 3309SOL    HW110826   6.153   4.169   1.393 -0.5242 -0.6689 -1.1545
 3309SOL    HW210827   6.107   4.283   1.286  0.4895  1.1356  0.2663
 3310SOL     OW10828   6.100   1.529   0.911  0.2562 -0.1197 -0.1710
 3310SOL    HW110829   6.162   1.453   0.930 -0.5511 -0.4256  1.3085
 3310SOL    HW210830   6.144   1.615   0.937  1.0132 -0.0720 -1.4806
 3311SOL     OW10831   1.473   6.632   2.041 -0.5329 -0.6383 -0.2277
 3311SOL    HW110832   1.383   6.656   2.079 -0.1231 -0.2739  0.5529
 3311SOL    HW210833   1.532   6.713   2.044  0.3032 -1.2533  0.7347
 3312SOL     OW10834   3.619   1.323   3.640 -0.9514 -0.1719 -0.4436
 3312SOL    HW110835   3.519   1.322   3.642 -0.9743 -1.5470 -0.8880
 3312SOL    HW210836   3.652   1.416   3.625 -2.1313  0.4666  0.6998
 3313SOL     OW10837   5.309   2.834   3.633  0.0333  0.1229 -0.2264
 3313SOL    HW110838   5.306   2.743   3.674 -1.9925  0.7672  1.2416
 3313SOL    HW210839   5.404   2.860   3.615  0.6109 -2.4726 -1.2325
 3314SOL     OW10840   1.302   2.527   0.671 -0.1478 -0.2054 -0.1789
 3314SOL    HW110841   1.276   2.622   0.687 -2.4395 -0.8271  0.0920
 3314SOL    HW210842   1.254   2.491   0.591 -1.7277 -1.9757  1.4604
 3315SOL     OW10843   6.738   4.147   5.168 -0.2261 -0.2208  0.6780
 3315SOL    HW110844   6.741   4.127   5.267 -1.0679  1.2728  1.0305
 3315SOL    HW210845   6.785   4.233   5.151 -1.8171  0.5601  0.0744
 3316SOL     OW10846   1.429   4.235   1.333  0.0928  0.1923  0.1338
 3316SOL    HW110847   1.366   4.288   1.276 -0.6996 -0.1868  0.6278
 3316SOL    HW210848   1.500   4.295   1.370  0.7897  0.3922 -1.4544
 3317SOL     OW10849   4.814   4.281   1.405  0.7063 -0.0071  0.4709
 3317SOL    HW110850   4.833   4.338   1.485  1.4486  2.3903 -1.2819
 3317SOL    HW210851   4.892   4.284   1.343 -1.2731  1.5486 -2.1667
 3318SOL     OW10852   0.700   6.808   5.727 -0.1478  0.4576  0.1701
 3318SOL    HW110853   0.652   6.764   5.803  1.5048 -0.2050  0.8714
 3318SOL    HW210854   0.773   6.866   5.763  0.3269  0.5404 -0.8950
 3319SOL     OW10855   5.904   3.268   6.477  0.0624  0.2437  0.1656
 3319SOL    HW110856   5.948   3.358   6.473 -1.7805  1.2303  1.0505
 3319SOL    HW210857   5.874   3.250   6.571 -2.3396  0.0900 -0.5741
 3320SOL     OW10858   5.245   6.949   3.946  0.4579  0.4381 -0.4151
 3320SOL    HW110859   5.213   6.965   3.853 -1.0251 -0.8392 -0.1724
 3320SOL    HW210860   5.338   6.914   3.945  1.0667  1.9992 -1.2981
 3321SOL     OW10861   0.420   3.672   5.319 -0.6303 -0.2139  0.1947
 3321SOL    HW110862   0.485   3.729   5.269  0.6780 -1.9775 -0.2182
 3321SOL    HW210863   0.457   3.651   5.409 -1.0779 -0.4086  0.3340
 3322SOL     OW10864   1.925   2.631   3.957  0.1827  0.2582  0.6753
 3322SOL    HW110865   1.825   2.631   3.965  0.3085 -0.0407  2.5743
 3322SOL    HW210866   1.963   2.703   4.015  1.0783  0.5463 -0.2449
 3323SOL     OW10867   2.862   4.741   4.367  0.2400 -0.0781  0.1594
 3323SOL    HW110868   2.952   4.783   4.378  0.6214 -0.7682 -0.2970
 3323SOL    HW210869   2.856   4.659   4.425  0.1077 -0.3518 -0.2383
 3324SOL     OW10870   2.575   0.333   3.160  0.4795 -0.5168  0.6445
 3324SOL    HW110871   2.590   0.408   3.096  1.0410 -2.0504 -1.1043
 3324SOL    HW210872   2.627   0.253   3.131 -0.3463 -1.7060  2.2660
 3325SOL     OW10873   2.725   0.368   4.771  0.7604  0.2132  0.7738
 3325SOL    HW110874   2.805   0.366   4.711  0.4696  0.9462  0.3519
 3325SOL    HW210875   2.646   0.401   4.720  0.1426 -0.6243  1.1500
 3326SOL     OW10876   5.032   6.551   2.447 -0.0324 -0.2851  0.1670
 3326SOL    HW110877   4.963   6.617   2.418 -0.5220 -0.0286  1.8026
 3326SOL    HW210878   4.986   6.466   2.475  0.5944 -1.4322 -2.0474
 3327SOL     OW10879   5.999   1.431   3.222  0.1796 -0.6022 -0.1011
 3327SOL    HW110880   6.091   1.463   3.242  0.7425  0.7348 -3.9114
 3327SOL    HW210881   5.933   1.482   3.277  1.5836 -0.4876  1.5557
 3328SOL     OW10882   3.147   4.822   2.393  0.2426 -0.1117 -0.4795
 3328SOL    HW110883   3.142   4.729   2.356  0.3448 -0.8179  1.2099
 3328SOL    HW210884   3.243   4.849   2.403  0.2613 -0.5950  0.8232
 3329SOL     OW10885   4.111   5.597   5.416 -0.3511 -0.3516  0.4174
 3329SOL    HW110886   4.106   5.498   5.430  0.0001 -0.2370  1.4920
 3329SOL    HW210887   4.202   5.621   5.383 -0.7522 -0.4773 -0.8383
 3330SOL     OW10888   3.573   0.039   5.821  0.0343 -0.2054 -0.0252
 3330SOL    HW110889   3.529   0.010   5.736 -1.1130 -1.8971  1.0593
 3330SOL    HW210890   3.660  -0.009   5.831 -0.5050 -1.1499  0.3835
 3331SOL     OW10891   5.526   6.327   0.704 -0.5918  0.6508  0.0563
 3331SOL    HW110892   5.558   6.379   0.625  1.6966 -0.5761  0.0868
 3331SOL    HW210893   5.449   6.270   0.678  1.2000 -1.0507 -1.8431
 3332SOL     OW10894   2.685   2.322   1.156  0.3867 -0.6580 -0.5143
 3332SOL    HW110895   2.664   2.228   1.128 -0.2728 -0.5702 -0.3397
 3332SOL    HW210896   2.753   2.320   1.229 -0.1879 -1.0448  0.0225
 3333SOL     OW10897   4.411   5.138   5.522 -0.4303  0.1087 -0.4786
 3333SOL    HW110898   4.370   5.048   5.532  0.4146 -0.2797 -0.4513
 3333SOL    HW210899   4.354   5.206   5.568 -2.0190 -0.1176 -1.9750
 3334SOL     OW10900   0.377   4.865   2.324 -0.3518 -0.4125  0.0197
 3334SOL    HW110901   0.407   4.838   2.233  1.5726 -0.5305  0.6434
 3334SOL    HW210902   0.328   4.952   2.318  2.3898  1.2162 -0.8695
 3335SOL     OW10903   0.397   0.466   2.543  0.5674 -0.2088 -0.0671
 3335SOL    HW110904   0.421   0.379   2.585 -0.5273 -2.6920 -4.0319
 3335SOL    HW210905   0.469   0.493   2.478  0.5783  1.5466  0.6221
 3336SOL     OW10906   4.971   5.690   0.707  0.9009  0.2655  0.0094
 3336SOL    HW110907   5.045   5.635   0.747  1.9301  1.1698 -0.5634
 3336SOL    HW210908   4.892   5.632   0.689  1.8483 -0.9818 -0.3273
 3337SOL     OW10909   0.249   6.081   2.476 -0.0362 -0.1193 -0.6102
 3337SOL    HW110910   0.325   6.132   2.516 -0.3577 -0.2956  0.2524
 3337SOL    HW210911   0.255   5.985   2.503  1.4827 -0.9737 -3.5480
 3338SOL     OW10912   4.792   4.881   6.895  0.1509 -0.5560  0.1580
 3338SOL    HW110913   4.780   4.912   6.801 -0.7506 -1.0677  0.0944
 3338SOL    HW210914   4.733   4.933   6.956  0.6483 -0.3046  0.4379
 3339SOL     OW10915   3.545   1.286   5.389  0.2348  0.2047  0.2224
 3339SOL    HW110916   3.590   1.273   5.301  0.3171  1.2631  0.0980
 3339SOL    HW210917   3.491   1.370   5.387 -3.4570 -1.9941 -0.3010
 3340SOL     OW10918   4.216   2.577   6.509 -0.2049  0.6188  0.0740
 3340SOL    HW110919   4.218   2.496   6.567 -0.2500  1.6140  1.5084
 3340SOL    HW210920   4.261   2.653   6.555 -1.7129  1.9090 -0.4676
 3341SOL     OW10921   6.001   4.665   1.238  0.0723  0.3080  0.1063
 3341SOL    HW110922   6.017   4.567   1.227  1.2253  0.1904  2.3258
 3341SOL    HW210923   6.086   4.714   1.222 -0.1188  0.7960  0.5783
 3342SOL     OW10924   1.579   1.513   6.108  0.0810  0.4870  0.1445
 3342SOL    HW110925   1.494   1.549   6.069 -0.7212 -1.9006 -0.5194
 3342SOL    HW210926   1.589   1.544   6.202 -1.3542  1.0641  0.1278
 3343SOL     OW10927   4.650   3.520   1.150 -0.3784 -0.1662  0.5077
 3343SOL    HW110928   4.673   3.579   1.072  0.5002 -1.8284 -0.5421
 3343SOL    HW210929   4.556   3.487   1.139  0.1362 -1.3511 -0.5175
 3344SOL     OW10930   3.199   6.738   1.673 -0.0323  0.3050 -0.4710
 3344SOL    HW110931   3.229   6.748   1.768  1.9305  1.5617 -1.1608
 3344SOL    HW210932   3.205   6.642   1.646 -1.1269 -0.1560  0.7889
 3345SOL     OW10933   0.143   6.788   1.235  0.5990  0.0494  0.7155
 3345SOL    HW110934   0.219   6.729   1.263  0.3692 -0.9193 -0.5814
 3345SOL    HW210935   0.159   6.821   1.142  0.4230  1.5744  1.2048
 3346SOL     OW10936   2.287   0.088   1.513 -0.0451  0.3742  0.1251
 3346SOL    HW110937   2.313   0.173   1.467  1.9289  0.4315  1.2565
 3346SOL    HW210938   2.188   0.086   1.524 -0.6127  0.6274 -3.5053
 3347SOL     OW10939   6.918   2.234   3.749  0.0814 -0.2769 -0.0810
 3347SOL    HW110940   7.018   2.235   3.740  0.0270 -0.9191 -0.7511
 3347SOL    HW210941   6.894   2.225   3.846  0.6560  1.3624  0.2556
 3348SOL     OW10942   4.156   2.272   2.452 -0.0745  0.3581 -0.1245
 3348SOL    HW110943   4.146   2.255   2.354  0.7040 -1.9540  0.1625
 3348SOL    HW210944   4.065   2.273   2.495 -0.3005 -0.8369 -0.5474
 3349SOL     OW10945   5.843   6.244   2.949 -0.2342 -0.8249 -0.8178
 3349SOL    HW110946   5.923   6.303   2.945  1.3671 -2.7978  0.1742
 3349SOL    HW210947   5.833   6.194   2.863  0.2472 -1.3599 -0.5663
 3350SOL     OW10948   2.692   5.859   4.290  0.7359  0.2749  0.5571
 3350SOL    HW110949   2.661   5.807   4.210  1.9218  0.0182  0.2397
 3350SOL    HW210950   2.723   5.795   4.361  1.8371  0.5156  0.3126
 3351SOL     OW10951   4.364   1.976   0.156 -0.7780  0.2719  0.6421
 3351SOL    HW110952   4.328   1.901   0.100  0.1846  1.4257 -1.6685
 3351SOL    HW210953   4.454   1.950   0.192  0.2233  0.7466 -1.3522
 3352SOL     OW10954   4.245   1.430   0.691  0.0963  0.2042  0.5340
 3352SOL    HW110955   4.283   1.521   0.706  0.4028 -0.1130  1.8040
 3352SOL    HW210956   4.162   1.437   0.635  0.8868  1.1061 -0.5642
 3353SOL     OW10957   5.482   3.635   1.213  0.2245  0.4989  0.2778
 3353SOL    HW110958   5.401   3.676   1.257 -0.5249  1.3609 -1.7446
 3353SOL    HW210959   5.455   3.553   1.164  0.8137  0.1810  0.4784
 3354SOL     OW10960   4.690   0.155   4.892 -0.6273 -0.6010  0.1657
 3354SOL    HW110961   4.781   0.125   4.865 -1.1628 -2.1098 -0.0446
 3354SOL    HW210962   4.668   0.240   4.843 -0.0258 -1.1615 -1.1330
 3355SOL     OW10963   0.566   5.047   1.381  0.4609 -0.3982  0.3036
 3355SOL    HW110964   0.565   5.141   1.417 -2.7442 -0.2671  0.1611
 3355SOL    HW210965   0.544   4.983   1.454 -1.0654 -0.6160 -0.2989
 3356SOL     OW10966   5.887   0.250   3.398  0.7985 -0.5272 -0.4203
 3356SOL    HW110967   5.805   0.203   3.364 -1.5396  2.3453  0.7517
 3356SOL    HW210968   5.890   0.244   3.497  2.5273 -1.2548 -0.4889
 3357SOL     OW10969   2.217   2.338   5.846  0.1424  0.0017  0.2960
 3357SOL    HW110970   2.289   2.357   5.780 -1.7050  1.5062 -1.3904
 3357SOL    HW210971   2.231   2.246   5.885  1.3374 -0.9037 -2.0791
 3358SOL     OW10972   4.257   4.471   0.819 -0.6480 -0.8240  0.5898
 3358SOL    HW110973   4.345   4.443   0.780 -1.8829 -2.3022 -1.3629
 3358SOL    HW210974   4.244   4.569   0.805  0.4415 -0.6926  0.3960
 3359SOL     OW10975   0.783   5.881   0.780  0.0366 -0.6255 -0.3077
 3359SOL    HW110976   0.787   5.981   0.778 -0.0508 -0.6179 -0.0877
 3359SOL    HW210977   0.814   5.847   0.869 -0.6611 -0.7580 -0.1083
 3360SOL     OW10978   4.003   2.290   1.362  0.0688  0.1184  0.2592
 3360SOL    HW110979   3.945   2.368   1.339  0.2877 -0.2453 -1.7755
 3360SOL    HW210980   4.087   2.294   1.307 -1.2391 -3.1019 -2.3370
 3361SOL     OW10981   2.553   1.420   2.173 -0.7237  0.0974  0.4868
 3361SOL    HW110982   2.639   1.456   2.137  0.3278 -1.7181  1.0601
 3361SOL    HW210983   2.497   1.384   2.098 -0.5607  0.4294  0.2072
 3362SOL     OW10984   4.414   4.661   0.436  0.6616 -0.1402  0.6045
 3362SOL    HW110985   4.350   4.723   0.391 -0.6602 -0.8875  1.3648
 3362SOL    HW210986   4.506   4.675   0.399  0.7109  3.1633  1.6116
 3363SOL     OW10987   2.808   4.589   0.367 -0.5506 -0.1494  0.0658
 3363SOL    HW110988   2.859   4.530   0.305 -2.2402  0.8615 -2.4645
 3363SOL    HW210989   2.857   4.676   0.379 -0.6712  0.0263 -0.6850
 3364SOL     OW10990   5.956   6.689   0.903 -0.3018  0.3243 -0.2863
 3364SOL    HW110991   6.017   6.768   0.903 -0.0362  0.1189 -0.0423
 3364SOL    HW210992   5.978   6.629   0.980 -1.8214  1.0237  0.7399
 3365SOL     OW10993   3.649   0.695   4.404 -0.9226 -0.2646 -0.4096
 3365SOL    HW110994   3.634   0.634   4.481 -0.8092  0.4983  0.2293
 3365SOL    HW210995   3.576   0.683   4.336 -1.0735 -0.8728 -0.1391
 3366SOL     OW10996   5.656   6.733   4.732  0.2869  0.6442  0.3428
 3366SOL    HW110997   5.691   6.743   4.639  1.0362  3.5573  0.8563
 3366SOL    HW210998   5.655   6.822   4.778 -2.8065 -0.1670  2.1825
 3367SOL     OW10999   4.991   2.929   1.913 -0.5892  0.4451  0.2845
 3367SOL    HW111000   5.008   2.830   1.916 -0.5971  0.2668 -2.8640
 3367SOL    HW211001   4.896   2.946   1.941 -0.4982 -0.3752  1.1717
 3368SOL     OW11002   2.719   6.067   3.520 -0.0107 -0.1783 -0.0809
 3368SOL    HW111003   2.711   5.989   3.583 -0.0364  0.8709  1.2578
 3368SOL    HW211004   2.816   6.080   3.496 -0.0348 -0.7712 -0.5169
 3369SOL     OW11005   4.902   6.496   3.254  0.0607 -0.1085 -0.2050
 3369SOL    HW111006   4.851   6.573   3.290 -0.5333 -0.1461 -0.9321
 3369SOL    HW211007   4.897   6.419   3.318  2.3018  1.0269  1.4850
 3370SOL     OW11008   2.664   0.518   1.095 -0.3330 -0.7280 -0.0173
 3370SOL    HW111009   2.661   0.418   1.096  0.3794 -0.7697  1.4561
 3370SOL    HW211010   2.594   0.554   1.157 -0.0847 -0.3495  0.0467
 3371SOL     OW11011   3.424   6.610   6.538 -0.1411 -0.1480 -0.0093
 3371SOL    HW111012   3.355   6.619   6.610 -0.6078 -0.7052 -0.3764
 3371SOL    HW211013   3.380   6.622   6.449  0.6116  1.5804 -0.1871
 3372SOL     OW11014   5.156   3.525   0.714 -0.2452 -0.0988  0.2167
 3372SOL    HW111015   5.252   3.502   0.731  0.8831  1.9930 -2.6245
 3372SOL    HW211016   5.137   3.616   0.751 -0.7262  0.0736 -0.4407
 3373SOL     OW11017   5.828   2.125   5.824 -0.0321 -0.0387 -0.8918
 3373SOL    HW111018   5.883   2.099   5.903  0.2708  0.3160 -0.9856
 3373SOL    HW211019   5.840   2.223   5.805 -0.1919 -0.0967 -1.3067
 3374SOL     OW11020   6.134   5.377   1.240  0.3198 -0.5985  0.0978
 3374SOL    HW111021   6.074   5.456   1.229  0.7302 -0.0886  1.2971
 3374SOL    HW211022   6.132   5.347   1.336  0.7939 -1.5380 -0.1721
 3375SOL     OW11023   5.932   5.908   6.340 -0.5174  0.0197  0.1355
 3375SOL    HW111024   5.890   5.883   6.427 -1.9544 -1.0261 -0.8271
 3375SOL    HW211025   5.910   5.839   6.270 -1.2152  1.9075 -1.6092
 3376SOL     OW11026   3.332   6.018   2.391  0.1338 -0.3764 -0.0940
 3376SOL    HW111027   3.272   6.048   2.465 -0.0624 -0.2470 -0.3053
 3376SOL    HW211028   3.352   5.920   2.402 -3.2046 -1.4918 -2.0550
 3377SOL     OW11029   3.190   1.067   5.120  0.0373  0.3934 -0.2498
 3377SOL    HW111030   3.211   1.106   5.209 -0.3535  2.4756 -1.0204
 3377SOL    HW211031   3.263   1.005   5.093  1.4627  1.7319  0.3974
 3378SOL     OW11032   1.574   0.010   4.817 -0.0799  0.4125  0.2292
 3378SOL    HW111033   1.510  -0.067   4.823 -1.1536  0.9776 -2.3388
 3378SOL    HW211034   1.527   0.094   4.845 -0.1553  0.6630 -0.6048
 3379SOL     OW11035   2.074   6.189   0.868  0.0385  0.7190 -0.0954
 3379SOL    HW111036   2.018   6.133   0.807 -0.6761  0.5647  0.6816
 3379SOL    HW211037   2.021   6.268   0.899 -0.8888 -0.9803  3.0230
 3380SOL     OW11038   2.894   3.509   3.898 -0.3534  0.1339 -0.1868
 3380SOL    HW111039   2.881   3.522   3.800 -1.5052  0.0013 -0.0668
 3380SOL    HW211040   2.915   3.413   3.917  0.7937  0.3373 -0.3808
 3381SOL     OW11041   0.358   3.423   6.789 -0.6279  0.5888 -0.6224
 3381SOL    HW111042   0.415   3.442   6.869 -1.5972  0.6130  0.0703
 3381SOL    HW211043   0.262   3.418   6.816 -0.9167  0.0288 -1.6877
 3382SOL     OW11044   2.585   3.381   5.734 -0.3057  0.2509 -0.0609
 3382SOL    HW111045   2.488   3.367   5.756 -0.2693  1.3581  0.8649
 3382SOL    HW211046   2.627   3.293   5.713 -0.7969 -0.6526  2.4570
 3383SOL     OW11047   1.473   2.196   6.370 -0.4038  0.1283 -0.2714
 3383SOL    HW111048   1.504   2.291   6.384 -0.9421  0.4707 -1.2844
 3383SOL    HW211049   1.488   2.144   6.453  1.0387  0.7920 -0.0714
 3384SOL     OW11050   2.875   2.599   5.364  0.3364  0.0445  0.3260
 3384SOL    HW111051   2.969   2.628   5.382  0.1724  0.6097  0.3009
 3384SOL    HW211052   2.827   2.589   5.451  1.0290 -2.4306  0.4956
 3385SOL     OW11053   2.945   5.654   1.083  0.0497  0.6411 -0.1793
 3385SOL    HW111054   2.916   5.619   1.172  1.1653 -0.4634 -0.2226
 3385SOL    HW211055   2.870   5.705   1.041 -0.7118  0.6113  1.0941
 3386SOL     OW11056   1.337   1.209   2.821 -0.0082  0.3320  0.0302
 3386SOL    HW111057   1.310   1.209   2.725  1.0975  0.4666 -0.2897
 3386SOL    HW211058   1.436   1.217   2.829 -0.1083  0.7204  1.1966
 3387SOL     OW11059   0.595   6.381   2.014  0.2411 -0.5856  0.0852
 3387SOL    HW111060   0.642   6.318   1.953  1.4981  0.6514 -0.2665
 3387SOL    HW211061   0.612   6.354   2.109 -2.0735 -2.7644 -0.0452
 3388SOL     OW11062   6.588   3.554   0.250 -0.3742 -0.7459  0.4863
 3388SOL    HW111063   6.601   3.455   0.247 -0.5585 -0.9492  3.4872
 3388SOL    HW211064   6.536   3.578   0.332 -1.7140  1.7430 -0.9816
 3389SOL     OW11065   1.736   4.572   5.131  0.3478 -0.9406 -0.1274
 3389SOL    HW111066   1.760   4.545   5.038  1.1827  0.2967 -0.2851
 3389SOL    HW211067   1.683   4.498   5.174 -0.6367 -1.2658 -1.7944
 3390SOL     OW11068   5.201   6.172   3.116  0.6254  0.0595 -0.8078
 3390SOL    HW111069   5.165   6.265   3.118 -1.4701 -0.6886 -0.4637
 3390SOL    HW211070   5.186   6.133   3.025  0.6302 -0.2472 -0.6768
 3391SOL     OW11071   1.720   5.602   3.720  0.4057  0.3778 -0.2990
 3391SOL    HW111072   1.735   5.551   3.636  1.9070 -0.6660  0.5509
 3391SOL    HW211073   1.719   5.538   3.798  0.8243  1.5007  0.6504
 3392SOL     OW11074   0.002   4.547   0.345  0.5377  0.4397 -0.1821
 3392SOL    HW111075   0.024   4.538   0.248 -1.4124 -0.9991 -0.5699
 3392SOL    HW211076  -0.039   4.462   0.377  0.8713  1.0009  1.8398
 3393SOL     OW11077   0.619   3.179   2.330 -0.0085  0.0671 -0.1029
 3393SOL    HW111078   0.581   3.269   2.309  0.4825 -0.0217 -1.5066
 3393SOL    HW211079   0.566   3.109   2.282 -0.1830 -0.3661  0.7119
 3394SOL     OW11080   3.393   5.200   3.179  0.4622  0.7140 -0.0014
 3394SOL    HW111081   3.363   5.205   3.084  3.2497 -0.6577 -1.0780
 3394SOL    HW211082   3.372   5.110   3.217  0.1661  0.9384  0.3692
 3395SOL     OW11083   3.608   0.270   3.651 -0.2842  0.0350  0.1919
 3395SOL    HW111084   3.596   0.184   3.599 -2.0082  1.8669 -2.7543
 3395SOL    HW211085   3.683   0.322   3.612  0.1651  0.3029  1.3801
 3396SOL     OW11086   6.750   0.858   5.602  0.6653 -0.0469 -0.1018
 3396SOL    HW111087   6.797   0.877   5.688  0.2787 -0.8302  0.2980
 3396SOL    HW211088   6.806   0.796   5.546  0.8728  0.3842 -0.3730
 3397SOL     OW11089   5.330   0.983   4.580 -0.8248 -0.1944  0.1884
 3397SOL    HW111090   5.395   1.045   4.538 -1.8073 -0.5518 -1.9945
 3397SOL    HW211091   5.253   1.035   4.617  0.2876  0.1640  2.1338
 3398SOL     OW11092   6.505   1.236   4.608  0.0731  0.2868 -0.4670
 3398SOL    HW111093   6.497   1.236   4.707  0.8259 -2.0402 -0.3247
 3398SOL    HW211094   6.455   1.313   4.569 -1.0525  0.6746  1.6422
 3399SOL     OW11095   1.728   3.189   1.627 -0.4702  0.5039 -0.6203
 3399SOL    HW111096   1.827   3.193   1.614 -0.3410  0.5206  0.3091
 3399SOL    HW211097   1.700   3.259   1.692 -1.0800  0.4107 -0.7753
 3400SOL     OW11098   4.788   0.484   6.831  0.2194  0.5934 -0.1390
 3400SOL    HW111099   4.786   0.507   6.734  0.2859 -0.8854 -0.5047
 3400SOL    HW211100   4.879   0.504   6.868  0.8829 -0.8414 -0.9113
 3401SOL     OW11101   1.413   1.866   1.284 -0.0590  0.5636 -0.4981
 3401SOL    HW111102   1.421   1.809   1.202 -0.5358  0.7331 -0.6638
 3401SOL    HW211103   1.490   1.930   1.287  0.4176 -0.0019 -0.3733
 3402SOL     OW11104   4.566   2.614   6.259 -0.0784  0.0880 -0.1151
 3402SOL    HW111105   4.481   2.569   6.233  0.9244 -1.7661 -0.4033
 3402SOL    HW211106   4.575   2.614   6.359 -0.2854 -0.0193 -0.0963
 3403SOL     OW11107   1.793   2.226   2.891  0.5175  0.2168  0.1351
 3403SOL    HW111108   1.856   2.263   2.960  0.1820  1.5415 -0.2427
 3403SOL    HW211109   1.701   2.224   2.929  0.5621 -0.4586  0.2224
 3404SOL     OW11110   4.488   5.328   4.842  0.3829 -1.2160  0.4160
 3404SOL    HW111111   4.450   5.321   4.750 -0.3963  1.4188  0.4355
 3404SOL    HW211112   4.510   5.237   4.877 -1.4956 -2.4727 -1.4507
 3405SOL     OW11113   5.843   1.825   3.387 -0.4219  0.0184 -0.1856
 3405SOL    HW111114   5.873   1.883   3.310  0.6465  1.2590  1.1011
 3405SOL    HW211115   5.764   1.867   3.431 -0.1428  0.0914  0.2545
 3406SOL     OW11116   6.238   1.501   1.958  0.2335 -0.2587  0.0393
 3406SOL    HW111117   6.193   1.420   1.996 -1.6678 -0.0378 -1.6013
 3406SOL    HW211118   6.189   1.583   1.987  1.0707  0.1927  0.2139
 3407SOL     OW11119   2.084   3.957   0.544  0.0685 -0.4846 -0.6918
 3407SOL    HW111120   2.037   3.980   0.629  1.9093  0.3913  0.1594
 3407SOL    HW211121   2.172   3.914   0.565  1.0680  0.7469 -2.0900
 3408SOL     OW11122   5.212   2.164   5.676 -0.2147 -0.2239 -0.5711
 3408SOL    HW111123   5.278   2.188   5.747 -1.1591  2.7119 -0.5311
 3408SOL    HW211124   5.119   2.176   5.711 -0.7653 -1.9313 -1.3564
 3409SOL     OW11125   6.222   5.273   3.964  0.3465 -0.1164  0.4472
 3409SOL    HW111126   6.264   5.197   4.014  0.0338 -0.6078 -0.0289
 3409SOL    HW211127   6.137   5.241   3.921  0.5969  0.3069 -0.3778
 3410SOL     OW11128   1.164   1.913   1.603  0.7246 -0.4535 -0.2977
 3410SOL    HW111129   1.115   1.841   1.555  1.3296 -0.1480 -1.4031
 3410SOL    HW211130   1.261   1.888   1.609  0.7064 -0.3560  0.5343
 3411SOL     OW11131   1.059   1.634   1.161 -0.6893  0.0998 -0.2452
 3411SOL    HW111132   1.110   1.685   1.092 -1.1317  0.0628 -0.6075
 3411SOL    HW211133   1.095   1.654   1.252 -1.0845  1.3340 -0.3484
 3412SOL     OW11134   4.409   1.242   2.670 -0.4176 -0.1170  0.0373
 3412SOL    HW111135   4.330   1.193   2.707 -1.3283  1.4515  0.2551
 3412SOL    HW211136   4.384   1.284   2.583 -0.0105  0.8466  0.3744
 3413SOL     OW11137   3.272   0.247   7.008  0.6999  0.3721 -0.0786
 3413SOL    HW111138   3.236   0.185   7.077  1.1421  1.1039  0.8278
 3413SOL    HW211139   3.357   0.288   7.041  0.2655  1.6864 -0.5222
 3414SOL     OW11140   6.280   6.689   6.313 -0.3050 -0.5286  0.0928
 3414SOL    HW111141   6.209   6.642   6.366 -1.6842  0.2652 -0.9749
 3414SOL    HW211142   6.308   6.772   6.361  0.8089 -1.4438  1.0932
 3415SOL     OW11143   3.093   0.085   4.453  0.1640  0.1888 -0.0836
 3415SOL    HW111144   3.066  -0.007   4.481 -0.2192  0.3822  0.1991
 3415SOL    HW211145   3.106   0.087   4.354  0.5051 -0.2493 -0.0494
 3416SOL     OW11146   1.600   0.224   3.121 -0.3554  0.3629 -0.3990
 3416SOL    HW111147   1.553   0.209   3.209  0.3316  0.5489  0.0018
 3416SOL    HW211148   1.545   0.183   3.048  0.6685 -2.8512  0.4668
 3417SOL     OW11149   0.834   3.844   4.433  0.2052  0.0018  0.0916
 3417SOL    HW111150   0.741   3.809   4.434  0.2186 -0.0892 -0.8250
 3417SOL    HW211151   0.863   3.866   4.526 -0.5406 -0.4609  0.4377
 3418SOL     OW11152   5.184   6.330   6.024 -0.8838 -0.1500 -0.0504
 3418SOL    HW111153   5.146   6.269   5.955 -0.9515  0.1640 -0.2937
 3418SOL    HW211154   5.128   6.413   6.028  0.3090  0.7337 -1.0684
 3419SOL     OW11155   5.823   4.492   1.506  0.2190  0.1784  0.0676
 3419SOL    HW111156   5.725   4.510   1.510  0.5741  2.5512 -0.1830
 3419SOL    HW211157   5.872   4.578   1.494  2.1899 -1.1570 -2.5550
 3420SOL     OW11158   1.658   2.604   3.974  0.1022  0.5573 -0.1781
 3420SOL    HW111159   1.596   2.597   3.896  0.6385  1.9422 -0.7585
 3420SOL    HW211160   1.640   2.530   4.038 -0.7658 -0.2394 -1.3190
 3421SOL     OW11161   6.088   1.059   6.995 -0.6165  0.1728  0.1563
 3421SOL    HW111162   6.110   0.990   6.926 -0.7755 -0.9862  1.2288
 3421SOL    HW211163   6.050   1.015   7.076  0.0390  1.4466  1.2071
 3422SOL     OW11164   5.551   6.719   2.856  0.5000 -0.2757  0.6716
 3422SOL    HW111165   5.520   6.675   2.940  1.4599 -0.3419  1.0003
 3422SOL    HW211166   5.647   6.696   2.840  0.0740 -1.0521 -0.9526
 3423SOL     OW11167   0.547   6.249   2.730  0.8402 -0.3103 -0.1870
 3423SOL    HW111168   0.571   6.190   2.653  1.0097  0.3835 -0.6723
 3423SOL    HW211169   0.556   6.197   2.815  0.5826 -1.1035 -0.6304
 3424SOL     OW11170   4.081   5.042   2.386 -0.7049  0.1042 -0.0614
 3424SOL    HW111171   4.041   4.976   2.323  0.1406 -0.5481  0.0598
 3424SOL    HW211172   4.140   5.105   2.335 -0.3172 -0.1898  0.0169
 3425SOL     OW11173   0.660   0.597   5.020 -0.8136  0.5641 -0.2098
 3425SOL    HW111174   0.682   0.630   5.112 -1.4547  1.2661 -0.2991
 3425SOL    HW211175   0.685   0.500   5.013 -1.5066  0.2741  0.9741
 3426SOL     OW11176   1.311   6.738   4.588 -0.0185 -0.4853 -0.0382
 3426SOL    HW111177   1.292   6.649   4.627  1.0503 -0.2689  1.0279
 3426SOL    HW211178   1.309   6.808   4.660  0.3560  0.1663 -0.6394
 3427SOL     OW11179   3.873   4.786   5.409  0.1611 -0.0514 -0.7673
 3427SOL    HW111180   3.888   4.830   5.320 -2.1075  2.0430 -0.2207
 3427SOL    HW211181   3.802   4.716   5.400  0.5920 -0.5072 -0.7349
 3428SOL     OW11182   4.273   5.959   5.745  0.3752 -0.1996  0.4765
 3428SOL    HW111183   4.323   6.034   5.789 -0.5835  1.2848 -0.8307
 3428SOL    HW211184   4.193   5.935   5.800 -0.1164  0.7654  0.2034
 3429SOL     OW11185   5.564   0.492   6.505  0.7687 -0.2957 -0.1924
 3429SOL    HW111186   5.561   0.419   6.437 -1.2246  0.4223 -0.9519
 3429SOL    HW211187   5.631   0.561   6.477  2.3100 -1.5215  0.2871
 3430SOL     OW11188   2.394   1.343   6.648  0.0501 -0.0388  0.4718
 3430SOL    HW111189   2.490   1.345   6.618  0.6475 -1.5528  2.1164
 3430SOL    HW211190   2.356   1.252   6.633 -0.8419  0.2796  0.7403
 3431SOL     OW11191   4.649   5.715   1.421 -0.1729  0.1997 -0.2485
 3431SOL    HW111192   4.656   5.620   1.390 -1.6953  0.5859 -1.9476
 3431SOL    HW211193   4.554   5.746   1.411  0.6671  2.5207 -1.6778
 3432SOL     OW11194   3.285   0.919   6.048 -0.1458  0.0037  0.4635
 3432SOL    HW111195   3.258   0.969   6.130 -0.3105  0.9737 -0.1554
 3432SOL    HW211196   3.223   0.943   5.973  1.9003  1.6775 -0.7979
 3433SOL     OW11197   2.766   5.779   0.909 -0.1861  0.5551  0.0202
 3433SOL    HW111198   2.809   5.850   0.854  0.7677 -1.3516 -1.8558
 3433SOL    HW211199   2.669   5.770   0.884 -0.0626  0.5541 -0.4757
 3434SOL     OW11200   5.148   0.043   4.919 -0.2742  0.4129  0.1221
 3434SOL    HW111201   5.115   0.057   5.012  0.5168  2.7367  0.1020
 3434SOL    HW211202   5.070   0.039   4.856 -0.7173  0.9722  0.6280
 3435SOL     OW11203   2.779   5.347   0.097  1.1399 -0.1463  0.0407
 3435SOL    HW111204   2.861   5.354   0.154  0.4435  0.9482  0.9423
 3435SOL    HW211205   2.735   5.436   0.091 -0.1911 -0.7945 -0.1083
 3436SOL     OW11206   4.971   0.811   3.971  0.5024 -0.0169 -0.3695
 3436SOL    HW111207   5.008   0.901   3.996  0.2585  0.8933 -3.0193
 3436SOL    HW211208   5.045   0.752   3.941  0.4492 -0.0764 -0.3829
 3437SOL     OW11209   4.984   6.939   1.482  0.2976 -0.1187 -0.1945
 3437SOL    HW111210   4.917   7.006   1.449  1.8279  0.1871 -3.0058
 3437SOL    HW211211   5.035   6.979   1.558 -1.6036  0.2286  0.9603
 3438SOL     OW11212   5.931   6.586   3.866  0.1275  0.4167  0.4094
 3438SOL    HW111213   5.969   6.622   3.951  0.9058  0.1889  0.1644
 3438SOL    HW211214   5.842   6.629   3.849 -0.4625 -0.1983  1.7927
 3439SOL     OW11215   6.960   2.069   6.451  0.5707  0.0767  0.1093
 3439SOL    HW111216   7.048   2.098   6.414 -0.2121 -0.3777 -2.2850
 3439SOL    HW211217   6.889   2.135   6.424 -0.2610 -0.9735 -0.3218
 3440SOL     OW11218   0.465   4.339   2.661 -0.2225 -0.4653  0.4683
 3440SOL    HW111219   0.436   4.249   2.695  0.0713 -0.0266  1.9368
 3440SOL    HW211220   0.563   4.351   2.676 -0.2788  0.1358  0.3907
 3441SOL     OW11221   6.980   6.341   6.843 -0.3959 -0.5480 -0.2093
 3441SOL    HW111222   6.883   6.319   6.840 -0.4759 -0.3676  0.7596
 3441SOL    HW211223   7.029   6.287   6.775 -1.1585 -0.7244 -0.6183
 3442SOL     OW11224   5.383   5.266   4.048 -0.6537  0.3206 -0.0708
 3442SOL    HW111225   5.369   5.215   4.132  1.9896 -0.4184  0.0007
 3442SOL    HW211226   5.357   5.362   4.062  1.7407  0.7199  2.3450
 3443SOL     OW11227   2.311   4.177   2.216  0.2938 -0.1255  0.0481
 3443SOL    HW111228   2.275   4.175   2.122 -1.0073 -0.3427  0.5317
 3443SOL    HW211229   2.266   4.106   2.270  1.7172 -0.6353  0.6240
 3444SOL     OW11230   2.761   6.731   1.508  0.2921  0.1647  0.2078
 3444SOL    HW111231   2.738   6.686   1.594 -0.1460  1.4853  0.7983
 3444SOL    HW211232   2.791   6.662   1.441  0.0834 -0.9333  1.2219
 3445SOL     OW11233   2.984   4.636   5.801  0.4590 -0.1421 -0.3179
 3445SOL    HW111234   2.923   4.604   5.729  1.5505  0.1213 -1.3841
 3445SOL    HW211235   2.930   4.684   5.871 -0.6763 -0.8601 -0.6805
 3446SOL     OW11236   0.065   4.798   3.899 -0.1333  0.2590  0.2980
 3446SOL    HW111237  -0.032   4.775   3.904 -0.0558  0.1387  1.7387
 3446SOL    HW211238   0.117   4.738   3.960  0.6670  1.1948  0.5679
 3447SOL     OW11239   4.290   1.783   6.391 -0.9926 -0.0211  0.0021
 3447SOL    HW111240   4.333   1.819   6.308 -1.2206  0.6580  0.1780
 3447SOL    HW211241   4.354   1.788   6.467 -0.7974 -0.6085 -0.1130
 3448SOL     OW11242   3.250   1.928   1.567 -0.3221  0.9608  0.3567
 3448SOL    HW111243   3.280   2.000   1.504  0.4185  1.8313  1.6432
 3448SOL    HW211244   3.329   1.890   1.615 -0.7463 -0.5027 -0.0645
 3449SOL     OW11245   5.834   2.375   2.287 -0.3326 -0.2592 -0.3733
 3449SOL    HW111246   5.803   2.470   2.278  2.3515  0.8782  1.3766
 3449SOL    HW211247   5.800   2.337   2.373  0.3444 -0.1483 -0.0552
 3450SOL     OW11248   5.086   5.817   4.143 -0.3598 -0.1593  0.2411
 3450SOL    HW111249   5.095   5.911   4.179  1.2854 -0.4057  0.5963
 3450SOL    HW211250   5.176   5.785   4.113 -0.2738 -2.5971  2.6682
 3451SOL     OW11251   4.299   6.071   0.026 -0.2906 -0.3264  0.1106
 3451SOL    HW111252   4.286   5.984   0.074 -0.1776  0.9156  2.5818
 3451SOL    HW211253   4.397   6.088   0.013 -0.3204 -0.6536 -0.5894
 3452SOL     OW11254   0.909   4.299   2.266 -0.6158  0.0717 -0.1035
 3452SOL    HW111255   0.831   4.339   2.218 -0.5234 -0.4509 -0.7007
 3452SOL    HW211256   0.965   4.372   2.305 -1.8840  0.4349  1.1339
 3453SOL     OW11257   0.639   2.844   1.399  0.3794 -0.4855 -0.2329
 3453SOL    HW111258   0.737   2.827   1.407  0.5763  0.1916 -1.0395
 3453SOL    HW211259   0.624   2.936   1.363 -0.5628 -0.4438  0.2236
 3454SOL     OW11260   2.296   0.118   4.626 -0.0304 -0.1266  0.3608
 3454SOL    HW111261   2.240   0.080   4.699 -0.0513  1.0024  0.9514
 3454SOL    HW211262   2.388   0.135   4.660  0.5002 -1.3639 -0.4214
 3455SOL     OW11263   0.436   5.922   2.651 -0.4604 -0.2743 -0.2980
 3455SOL    HW111264   0.369   5.905   2.723  0.4768 -0.9378  0.4509
 3455SOL    HW211265   0.474   5.835   2.618 -0.3838  0.0554 -1.1194
 3456SOL     OW11266   4.255   1.672   1.169  0.4530  0.2758 -0.2642
 3456SOL    HW111267   4.353   1.677   1.149  0.1139  3.1590 -1.6954
 3456SOL    HW211268   4.203   1.670   1.083 -0.7978  2.5060  0.3663
 3457SOL     OW11269   1.633   3.649   4.535 -0.2358  0.0298  0.2279
 3457SOL    HW111270   1.674   3.733   4.569  0.0613  0.1734 -0.4703
 3457SOL    HW211271   1.700   3.599   4.480 -0.2447 -0.9177  1.0535
 3458SOL     OW11272   6.506   4.170   0.528  0.2104  0.2169  0.5014
 3458SOL    HW111273   6.440   4.096   0.512  0.2972  0.1679  0.3703
 3458SOL    HW211274   6.513   4.227   0.446  0.1447  0.3698  0.6025
 3459SOL     OW11275   6.050   6.905   2.714  0.7878  0.5610  0.0713
 3459SOL    HW111276   6.089   6.895   2.805 -1.5584  2.8793  1.4725
 3459SOL    HW211277   5.977   6.838   2.701  0.9907  0.3616 -0.0666
 3460SOL     OW11278   2.609   6.352   2.582 -0.7180  0.4984 -0.5031
 3460SOL    HW111279   2.539   6.325   2.516  1.5711  1.2595 -3.5076
 3460SOL    HW211280   2.649   6.439   2.553  1.3907  0.1428  1.1255
 3461SOL     OW11281   0.416   3.780   6.106  0.3060  0.4562 -0.3447
 3461SOL    HW111282   0.476   3.703   6.124 -0.1614 -0.3978 -2.1432
 3461SOL    HW211283   0.464   3.866   6.125  1.9610 -0.2046 -1.3460
 3462SOL     OW11284   0.572   2.842   2.384  0.7101  0.0569  0.0989
 3462SOL    HW111285   0.657   2.864   2.433  0.1319 -1.0387  1.6488
 3462SOL    HW211286   0.594   2.800   2.296  1.7848 -1.0291  0.8697
 3463SOL     OW11287   2.009   5.694   1.242 -0.3535  0.3821  0.3451
 3463SOL    HW111288   2.023   5.655   1.333  0.6200  0.3802  0.2005
 3463SOL    HW211289   2.081   5.761   1.223 -1.2182  1.2610  0.0399
 3464SOL     OW11290   6.991   2.705   3.472  0.3377  0.1682 -0.4908
 3464SOL    HW111291   7.023   2.797   3.496  0.1099  0.3511 -0.8799
 3464SOL    HW211292   6.895   2.696   3.497  0.8115 -0.5937  1.2703
 3465SOL     OW11293   6.160   1.847   5.094  0.1409  0.6150  0.2673
 3465SOL    HW111294   6.150   1.789   5.013 -0.6088  0.5830  0.3764
 3465SOL    HW211295   6.112   1.805   5.171  1.1664  0.4518  0.8396
 3466SOL     OW11296   0.836   0.740   0.023 -0.0082  0.8730  0.4436
 3466SOL    HW111297   0.786   0.812   0.071 -1.0178  0.3897  0.1389
 3466SOL    HW211298   0.929   0.735   0.059 -0.4018  1.2787  1.5628
 3467SOL     OW11299   2.000   3.687   3.446  0.2597  0.3739  0.0411
 3467SOL    HW111300   1.946   3.636   3.379 -1.8813  1.9781  0.4681
 3467SOL    HW211301   2.047   3.762   3.399 -0.5132  0.9465  0.1681
 3468SOL     OW11302   6.125   0.279   3.229  0.0584  0.4083 -0.3834
 3468SOL    HW111303   6.040   0.271   3.280  0.3475  1.0508  0.2108
 3468SOL    HW211304   6.138   0.197   3.173 -1.3096  0.6110 -1.0512
 3469SOL     OW11305   3.326   3.779   1.577 -0.1828 -0.1274 -0.0650
 3469SOL    HW111306   3.393   3.818   1.512 -2.4021  1.6161 -1.4674
 3469SOL    HW211307   3.332   3.829   1.664  0.6037 -0.2847 -0.0161
 3470SOL     OW11308   5.578   4.717   2.649 -0.7609  0.1182 -0.4913
 3470SOL    HW111309   5.547   4.762   2.733 -0.2576  0.3743 -0.4377
 3470SOL    HW211310   5.507   4.655   2.616 -1.2459  0.5429 -0.2617
 3471SOL     OW11311   1.391   3.812   1.319 -0.2947  0.2652 -0.4161
 3471SOL    HW111312   1.487   3.787   1.331 -0.3886  0.1712  0.1554
 3471SOL    HW211313   1.372   3.829   1.222  0.6255  1.6247 -0.3840
 3472SOL     OW11314   4.270   3.587   5.986 -0.5263  0.1125  0.0197
 3472SOL    HW111315   4.319   3.552   6.065 -0.4486 -0.9459 -0.4728
 3472SOL    HW211316   4.334   3.632   5.924 -0.1518 -1.1861 -0.5783
 3473SOL     OW11317   6.941   4.858   7.013 -0.0861  0.1308 -0.9159
 3473SOL    HW111318   7.040   4.872   7.020 -0.2778  1.7377 -0.9683
 3473SOL    HW211319   6.906   4.826   7.101  0.0669  2.7079  0.1858
 3474SOL     OW11320   4.974   5.147   5.605 -0.8575  0.3062  0.2071
 3474SOL    HW111321   4.923   5.181   5.684  1.1888  0.6934  1.4340
 3474SOL    HW211322   4.982   5.220   5.536 -2.4514  0.0386 -0.2875
 3475SOL     OW11323   6.547   4.206   6.525 -0.2433 -0.1131 -0.3236
 3475SOL    HW111324   6.639   4.231   6.554 -0.4764  0.2057  0.1591
 3475SOL    HW211325   6.522   4.119   6.567 -0.3740  0.0817  0.0115
 3476SOL     OW11326   6.558   6.576   5.183 -0.0277  0.1921 -0.1365
 3476SOL    HW111327   6.477   6.563   5.127 -0.5361 -1.1215  0.8608
 3476SOL    HW211328   6.639   6.552   5.129 -0.3521  0.7454 -0.8880
 3477SOL     OW11329   5.989   1.015   3.140  0.3523  0.2998  0.6133
 3477SOL    HW111330   5.968   1.025   3.237 -1.5937 -0.2608  0.3127
 3477SOL    HW211331   5.905   0.991   3.091  1.7225 -1.8968 -0.8458
 3478SOL     OW11332   5.710   3.525   1.845 -0.0670  0.1484 -0.0252
 3478SOL    HW111333   5.698   3.446   1.904 -0.8440 -1.7834 -2.5641
 3478SOL    HW211334   5.767   3.594   1.891  0.1907 -1.6289  2.4840
 3479SOL     OW11335   6.964   5.074   6.581  0.4287 -0.1249  0.1717
 3479SOL    HW111336   7.062   5.057   6.579  0.7575  1.6221 -1.4192
 3479SOL    HW211337   6.917   5.002   6.529  0.8244 -0.9921  0.9779
 3480SOL     OW11338   0.340   0.125   5.701  0.4054 -0.2693  0.4049
 3480SOL    HW111339   0.434   0.158   5.704  0.0226  0.8187  1.5620
 3480SOL    HW211340   0.277   0.201   5.717 -0.8428 -0.4669 -2.7267
 3481SOL     OW11341   0.237   5.092   1.071 -0.0599  0.2150  0.1476
 3481SOL    HW111342   0.227   5.136   1.160 -0.7944  1.0176 -0.3170
 3481SOL    HW211343   0.313   5.133   1.021  0.1171  0.0192  0.2551
 3482SOL     OW11344   6.613   1.915   5.902  0.2982 -0.2197 -0.1416
 3482SOL    HW111345   6.527   1.864   5.905 -0.5487  1.1664  1.5322
 3482SOL    HW211346   6.615   1.971   5.819 -0.2240 -0.5595 -0.3925
 3483SOL     OW11347   4.828   1.236   5.705  0.4557 -0.2885  0.3231
 3483SOL    HW111348   4.843   1.327   5.665 -1.7139 -0.0709 -0.1182
 3483SOL    HW211349   4.805   1.246   5.802 -3.1344  0.0462 -0.4287
 3484SOL     OW11350   3.093   4.353   5.836  0.3774 -0.1097  0.6219
 3484SOL    HW111351   3.090   4.451   5.853 -0.4867 -0.1967  1.0411
 3484SOL    HW211352   3.004   4.322   5.803  0.8607 -0.6337 -0.2411
 3485SOL     OW11353   3.468   6.397   6.273 -0.1935  0.3551  0.2589
 3485SOL    HW111354   3.563   6.423   6.291 -0.5430  1.2553  0.8531
 3485SOL    HW211355   3.455   6.382   6.175  0.4665  0.6109  0.1270
 3486SOL     OW11356   0.675   6.249   2.248 -0.8269  0.0655 -0.2299
 3486SOL    HW111357   0.659   6.201   2.334  0.9936  2.5360  1.6229
 3486SOL    HW211358   0.767   6.230   2.215 -0.9539  0.3625 -0.7657
 3487SOL     OW11359   4.568   5.421   7.010 -1.2011  0.5056  0.0426
 3487SOL    HW111360   4.471   5.412   6.987 -1.3597 -0.4371  0.9961
 3487SOL    HW211361   4.605   5.503   6.966 -2.3052  0.6139 -0.7247
 3488SOL     OW11362   6.146   4.923   6.012 -0.2679 -0.3489 -0.2575
 3488SOL    HW111363   6.191   4.999   5.966  0.9906 -0.6298  0.4690
 3488SOL    HW211364   6.083   4.878   5.948 -0.5526  0.8990 -0.8722
 3489SOL     OW11365   2.155   2.893   5.133 -0.4689  0.7077  0.2986
 3489SOL    HW111366   2.168   2.797   5.157 -0.9475  0.0146 -1.9868
 3489SOL    HW211367   2.242   2.931   5.101 -0.3568  0.9627  0.8880
 3490SOL     OW11368   5.850   3.061   0.388 -0.4371 -0.8805  0.2704
 3490SOL    HW111369   5.913   3.086   0.462  0.8845  0.4896 -1.2148
 3490SOL    HW211370   5.771   3.013   0.426  0.2203 -0.3151  2.5365
 3491SOL     OW11371   6.078   1.111   5.253  0.0642 -0.8290 -0.5096
 3491SOL    HW111372   5.993   1.121   5.306 -0.3536  2.7849 -1.6279
 3491SOL    HW211373   6.057   1.110   5.156  1.2805  0.7138 -0.8275
 3492SOL     OW11374   5.266   3.106   3.720 -0.0560 -0.0773  0.5191
 3492SOL    HW111375   5.239   3.182   3.661  1.1593  1.2161  1.5488
 3492SOL    HW211376   5.286   3.026   3.664  0.5024  0.9234 -0.7676
 3493SOL     OW11377   1.110   2.669   1.924  0.0823 -0.2265  0.4888
 3493SOL    HW111378   1.046   2.657   1.848 -1.6362 -0.2995  1.9050
 3493SOL    HW211379   1.135   2.765   1.931 -0.3638 -0.0979  0.3252
 3494SOL     OW11380   1.345   6.610   1.379 -0.6928  0.3082  0.3882
 3494SOL    HW111381   1.312   6.691   1.428 -0.0563  1.5751 -1.1626
 3494SOL    HW211382   1.274   6.577   1.318 -0.8633 -0.1705  0.8379
 3495SOL     OW11383   5.701   0.973   3.925 -0.2564 -0.2249 -0.2428
 3495SOL    HW111384   5.675   0.943   3.833  1.1019 -0.4478 -0.5671
 3495SOL    HW211385   5.773   1.042   3.919 -0.0637 -0.3286  0.6661
 3496SOL     OW11386   4.228   6.392   3.552  0.2919  0.1697  0.0149
 3496SOL    HW111387   4.130   6.380   3.535  0.2421 -0.2002  0.5400
 3496SOL    HW211388   4.245   6.483   3.588  0.2920  0.6567 -1.1716
 3497SOL     OW11389   4.972   3.619   2.905 -0.1445 -0.1707  0.5636
 3497SOL    HW111390   5.017   3.562   2.836  0.0648  0.1684  0.4109
 3497SOL    HW211391   4.987   3.580   2.996 -0.9591 -0.9617  0.3629
 3498SOL     OW11392   5.824   1.996   2.161  0.1062 -0.4738  0.0547
 3498SOL    HW111393   5.779   2.039   2.083  0.4646 -0.1838 -0.0000
 3498SOL    HW211394   5.923   2.002   2.149  0.1686  0.0434  0.7754
 3499SOL     OW11395   4.332   6.140   2.139 -0.0936  0.9446 -0.0433
 3499SOL    HW111396   4.245   6.156   2.186  0.7488  0.9768  1.5866
 3499SOL    HW211397   4.391   6.083   2.197  1.3396  1.7192 -0.6931
 3500SOL     OW11398   0.100   1.124   1.309  0.5452  0.2753  0.3675
 3500SOL    HW111399   0.162   1.048   1.290  2.2562  1.0061  2.5573
 3500SOL    HW211400   0.005   1.093   1.302  1.0371 -0.9548 -2.8267
 3501SOL     OW11401   6.501   4.003   1.633 -0.2401 -0.0720 -0.1829
 3501SOL    HW111402   6.584   4.049   1.664 -0.2096 -0.8306  0.8759
 3501SOL    HW211403   6.486   4.025   1.536  0.4337  1.1708 -0.0264
 3502SOL     OW11404   4.471   5.880   6.148 -0.7364  0.7862  0.7593
 3502SOL    HW111405   4.384   5.925   6.129 -1.2919  0.6855  2.7829
 3502SOL    HW211406   4.454   5.788   6.183  0.2392  0.3840  0.2166
 3503SOL     OW11407   6.607   4.054   4.405  0.1938 -0.2644 -0.1671
 3503SOL    HW111408   6.516   4.083   4.437  0.7999  0.8520  0.6185
 3503SOL    HW211409   6.643   4.121   4.341  1.7464  1.0073  1.9075
 3504SOL     OW11410   6.337   4.226   1.740 -0.0893  0.1233 -0.3821
 3504SOL    HW111411   6.359   4.292   1.668 -0.6404 -0.7401 -1.3613
 3504SOL    HW211412   6.384   4.140   1.723  0.2747  0.1030  0.6495
 3505SOL     OW11413   4.239   4.607   1.371 -0.0266 -0.3163 -0.0447
 3505SOL    HW111414   4.311   4.548   1.335  0.0926 -0.8005  0.9586
 3505SOL    HW211415   4.151   4.576   1.337 -0.0765 -1.7415  1.2747
 3506SOL     OW11416   3.021   3.395   6.226  0.8821  0.4005  0.6121
 3506SOL    HW111417   3.073   3.324   6.273  0.4027 -0.4094 -0.0767
 3506SOL    HW211418   3.043   3.395   6.129  0.5275  0.8935  0.5266
 3507SOL     OW11419   5.527   1.672   5.836 -0.4328  0.5357 -0.0515
 3507SOL    HW111420   5.599   1.662   5.768 -0.6177 -0.2173 -0.1477
 3507SOL    HW211421   5.448   1.616   5.810 -1.1341  1.4936 -0.0504
 3508SOL     OW11422   5.896   0.299   0.872 -0.5063  0.3946 -0.4022
 3508SOL    HW111423   5.840   0.323   0.792 -3.0099  1.5198  1.5319
 3508SOL    HW211424   5.842   0.241   0.934 -0.0211  2.4263  2.0964
 3509SOL     OW11425   5.783   5.446   1.387  0.6864  0.3185 -0.6184
 3509SOL    HW111426   5.693   5.428   1.429  1.5481 -1.2773  0.6531
 3509SOL    HW211427   5.778   5.428   1.289 -0.2739 -0.1581 -0.4993
 3510SOL     OW11428   2.321   0.845   6.662  0.3266  0.5007 -0.2364
 3510SOL    HW111429   2.342   0.803   6.573 -1.0120  1.5965 -1.1087
 3510SOL    HW211430   2.322   0.944   6.653  0.1723  0.6279  0.9912
 3511SOL     OW11431   0.863   6.169   0.494 -0.1000 -0.3064  0.9725
 3511SOL    HW111432   0.804   6.248   0.475 -0.0871 -0.6051 -0.4317
 3511SOL    HW211433   0.807   6.086   0.501  0.1226 -0.6521 -0.7408
 3512SOL     OW11434   6.840   2.636   3.216  0.3542 -0.2201 -0.5471
 3512SOL    HW111435   6.921   2.694   3.205  2.1117 -2.0372  1.7345
 3512SOL    HW211436   6.861   2.544   3.183 -0.8428 -0.6963 -0.0283
 3513SOL     OW11437   1.257   0.296   3.502 -0.7600 -0.1543  0.2366
 3513SOL    HW111438   1.351   0.314   3.476  0.1886 -1.5157  2.3721
 3513SOL    HW211439   1.212   0.382   3.528  0.2027  0.3908  0.1361
 3514SOL     OW11440   2.918   5.700   0.092  0.4367  0.4025 -0.4961
 3514SOL    HW111441   2.927   5.745   0.181  1.2573 -0.3074 -0.2054
 3514SOL    HW211442   2.821   5.684   0.072  0.2547  0.3710  0.3774
 3515SOL     OW11443   2.182   4.485   5.269 -0.2018 -0.3198  0.2273
 3515SOL    HW111444   2.221   4.401   5.234 -0.9085 -0.5622  0.0002
 3515SOL    HW211445   2.085   4.471   5.289 -0.3594  0.4766  0.0552
 3516SOL     OW11446   4.644   5.623   1.890  0.0406  0.2153 -0.0003
 3516SOL    HW111447   4.688   5.711   1.874  0.5219 -0.0790 -0.3464
 3516SOL    HW211448   4.703   5.550   1.854 -0.0960 -0.2831  0.7525
 3517SOL     OW11449   6.453   5.430   1.029 -0.3442  0.0987 -0.1371
 3517SOL    HW111450   6.444   5.370   0.950  1.1633  2.5406 -2.3590
 3517SOL    HW211451   6.365   5.438   1.076 -1.6865 -0.3611 -2.4277
 3518SOL     OW11452   6.100   4.045   3.260 -0.3049  0.5837  0.6420
 3518SOL    HW111453   6.174   4.031   3.325  0.2260  1.4991  0.2636
 3518SOL    HW211454   6.062   3.957   3.232 -0.6941  0.1789  2.3381
 3519SOL     OW11455   5.830   6.081   3.738  0.1136  0.0507 -0.1937
 3519SOL    HW111456   5.903   6.078   3.670 -0.6048  2.5912 -1.1700
 3519SOL    HW211457   5.746   6.114   3.696 -1.1865 -1.2291  1.2886
 3520SOL     OW11458   0.141   3.764   5.935  0.1050  0.1369  0.0789
 3520SOL    HW111459   0.180   3.722   6.017  0.6361 -0.5160 -0.4969
 3520SOL    HW211460   0.175   3.858   5.927  0.7896 -0.0992  0.1132
 3521SOL     OW11461   3.693   4.865   1.717  0.0565  0.0592  0.6616
 3521SOL    HW111462   3.657   4.821   1.635 -0.5032  1.9560 -0.1517
 3521SOL    HW211463   3.649   4.826   1.798  0.4800 -1.7053  0.0826
 3522SOL     OW11464   3.396   0.217   4.497  0.2486  0.9790  0.1627
 3522SOL    HW111465   3.470   0.223   4.564 -0.0603 -0.0477  0.6024
 3522SOL    HW211466   3.334   0.143   4.521  0.2941  0.3857 -1.4303
 3523SOL     OW11467   0.840   6.694   6.701  0.1012  0.0071 -0.6126
 3523SOL    HW111468   0.804   6.726   6.789  0.8622 -0.9836  0.0699
 3523SOL    HW211469   0.776   6.720   6.628 -0.6113  0.7099  0.2377
 3524SOL     OW11470   3.799   3.352   1.324  0.5041  0.2550  0.0114
 3524SOL    HW111471   3.782   3.426   1.259 -0.5670 -0.4614 -0.5577
 3524SOL    HW211472   3.731   3.280   1.310  0.5257 -0.1092  1.6422
 3525SOL     OW11473   4.863   6.977   6.420 -0.1179 -0.3054  0.3340
 3525SOL    HW111474   4.950   6.967   6.468 -0.3371  0.0914  0.8237
 3525SOL    HW211475   4.880   6.980   6.321  0.6240  1.5205  0.4674
 3526SOL     OW11476   1.396   1.187   1.801  0.2210  0.3411 -0.0426
 3526SOL    HW111477   1.387   1.286   1.790 -1.6504  0.3303  0.9130
 3526SOL    HW211478   1.342   1.141   1.731 -0.8660  0.0731  0.9321
 3527SOL     OW11479   6.227   5.135   5.891  0.2670 -0.1638 -0.2539
 3527SOL    HW111480   6.306   5.166   5.839 -0.5730  0.2395 -1.3150
 3527SOL    HW211481   6.185   5.213   5.938  0.6163 -0.4161  0.5085
 3528SOL     OW11482   1.001   4.721   5.668  0.3486  0.0840 -0.1428
 3528SOL    HW111483   1.034   4.795   5.727 -1.5923 -0.4156  1.7225
 3528SOL    HW211484   0.902   4.729   5.657  0.1877 -1.8198 -0.4690
 3529SOL     OW11485   5.911   5.354   2.967  0.5852  0.0079  0.2189
 3529SOL    HW111486   5.947   5.363   3.060  1.8302  0.6529 -0.2976
 3529SOL    HW211487   5.814   5.329   2.971  0.6675 -0.1844  1.6779
 3530SOL     OW11488   0.777   5.342   4.652  0.2488  0.1389  0.0373
 3530SOL    HW111489   0.763   5.266   4.589  2.0826 -0.0816 -0.1784
 3530SOL    HW211490   0.753   5.313   4.745 -0.6103 -0.1583 -0.2681
 3531SOL     OW11491   0.576   0.277   0.397 -0.1580 -0.0597 -0.5993
 3531SOL    HW111492   0.515   0.335   0.451  0.2729 -0.2874  0.1550
 3531SOL    HW211493   0.523   0.230   0.326 -0.6998  0.4152 -0.5170
 3532SOL     OW11494   0.803   3.405   3.171  1.0701 -0.2515  1.0412
 3532SOL    HW111495   0.770   3.377   3.081 -0.2370 -0.8250  1.6796
 3532SOL    HW211496   0.870   3.339   3.204  1.5567 -0.0377  0.4967
 3533SOL     OW11497   5.635   3.324   0.138  0.4358  0.1010  0.3052
 3533SOL    HW111498   5.606   3.346   0.231 -0.7820 -1.7865  0.4270
 3533SOL    HW211499   5.643   3.224   0.129  2.6218  0.3341 -1.0320
 3534SOL     OW11500   2.834   1.918   2.335  0.4120  0.0715  0.3573
 3534SOL    HW111501   2.914   1.899   2.392  0.2642  0.5299  0.7234
 3534SOL    HW211502   2.845   2.007   2.291 -0.3812  0.6514  1.2833
 3535SOL     OW11503   6.841   5.924   0.509 -0.0433  0.0395 -0.5842
 3535SOL    HW111504   6.755   5.875   0.494  0.1022 -0.7819  1.0639
 3535SOL    HW211505   6.851   5.946   0.606  2.0075 -0.6336 -0.5935
 3536SOL     OW11506   4.737   4.947   0.244 -0.3791 -0.3780 -0.5972
 3536SOL    HW111507   4.793   5.001   0.181  0.9715 -0.9718  0.0512
 3536SOL    HW211508   4.640   4.969   0.230  0.1205  3.5505  0.8457
 3537SOL     OW11509   3.875   0.463   4.781  0.2925 -0.2060  0.2052
 3537SOL    HW111510   3.919   0.476   4.870  2.1500  0.1638 -0.7303
 3537SOL    HW211511   3.859   0.552   4.738 -0.6002 -0.3813  0.1558
 3538SOL     OW11512   5.357   3.614   0.065  0.5082 -0.0938 -0.5118
 3538SOL    HW111513   5.306   3.692   0.029 -1.4866 -0.5496  1.1368
 3538SOL    HW211514   5.395   3.636   0.155 -1.1685 -1.3395  0.5640
 3539SOL     OW11515   6.742   1.363   0.290 -0.2915  0.1109 -0.7343
 3539SOL    HW111516   6.771   1.455   0.317  0.2289 -0.9069  2.7045
 3539SOL    HW211517   6.787   1.338   0.204  1.5308  2.1572 -0.4702
 3540SOL     OW11518   4.470   5.261   5.855  0.2897  0.3473  0.1640
 3540SOL    HW111519   4.506   5.169   5.846 -0.0711 -0.0826  2.4626
 3540SOL    HW211520   4.371   5.260   5.838  0.4713  0.5603 -0.9861
 3541SOL     OW11521   4.324   6.057   3.715 -0.1308  0.2647  0.2488
 3541SOL    HW111522   4.231   6.093   3.708 -0.6661 -1.1842 -0.6024
 3541SOL    HW211523   4.378   6.090   3.637 -0.2108  0.3040  0.2098
 3542SOL     OW11524   5.469   4.132   1.270 -0.2244  0.5250 -0.4228
 3542SOL    HW111525   5.560   4.102   1.245 -0.5238  0.4442 -1.4884
 3542SOL    HW211526   5.470   4.231   1.286  0.3556  0.2891  1.1438
 3543SOL     OW11527   6.340   1.977   2.528  0.0841  0.9284  0.2389
 3543SOL    HW111528   6.416   1.943   2.584  0.9401  1.6964 -0.4243
 3543SOL    HW211529   6.281   1.901   2.502 -1.4342  0.7189  3.6930
 3544SOL     OW11530   4.044   5.059   5.429 -0.1046 -0.4462  0.2029
 3544SOL    HW111531   4.049   5.024   5.522  1.9220 -0.0935  0.2777
 3544SOL    HW211532   3.996   4.993   5.370  0.9118 -1.9035  0.9603
 3545SOL     OW11533   4.278   5.178   4.346  0.4403 -0.0433 -0.1274
 3545SOL    HW111534   4.184   5.151   4.367  0.6700 -1.1268 -0.4072
 3545SOL    HW211535   4.287   5.198   4.249  0.6775 -0.8024 -0.2726
 3546SOL     OW11536   1.053   1.867   2.906 -0.5700  0.1157  0.2312
 3546SOL    HW111537   0.967   1.907   2.876 -1.1515 -0.6750  0.8209
 3546SOL    HW211538   1.061   1.773   2.871 -0.0239  0.1271  0.3119
 3547SOL     OW11539   6.219   3.778   5.626  0.5389 -0.6305  0.0971
 3547SOL    HW111540   6.286   3.820   5.564 -0.7310 -1.3349 -1.8796
 3547SOL    HW211541   6.169   3.850   5.674 -0.6320  0.1719 -2.1604
 3548SOL     OW11542   2.453   3.308   1.644 -0.7007  0.4137  0.1421
 3548SOL    HW111543   2.402   3.341   1.724 -1.8299 -0.8171 -0.0350
 3548SOL    HW211544   2.514   3.235   1.671  0.5001  1.4173  0.2248
 3549SOL     OW11545   4.979   6.331   6.456 -0.6069  0.4061 -0.1248
 3549SOL    HW111546   5.036   6.290   6.385 -1.3943  0.7239 -0.9668
 3549SOL    HW211547   5.034   6.390   6.514  0.3749 -1.1286  0.5677
 3550SOL     OW11548   0.632   2.870   5.210 -0.3707 -0.1160 -0.0406
 3550SOL    HW111549   0.548   2.922   5.225 -0.8715 -0.6231 -0.9312
 3550SOL    HW211550   0.706   2.932   5.186 -1.1304  0.1765 -1.8031
 3551SOL     OW11551   6.558   4.862   6.803  0.1494 -0.2518  0.1440
 3551SOL    HW111552   6.504   4.921   6.743 -0.6491  0.0846  1.1575
 3551SOL    HW211553   6.653   4.893   6.803 -0.1379  0.6816  0.1887
 3552SOL     OW11554   1.910   1.826   1.904 -0.3904 -0.0600 -0.7311
 3552SOL    HW111555   1.903   1.869   1.994 -0.4276  0.3060 -0.9043
 3552SOL    HW211556   1.848   1.873   1.841 -0.2942 -0.2536 -0.9701
 3553SOL     OW11557   5.036   6.004   6.491 -0.2479  0.1692  0.0804
 3553SOL    HW111558   4.999   5.912   6.506 -0.0100  0.2339  1.1362
 3553SOL    HW211559   4.962   6.067   6.471 -0.6963  0.1879  1.6339
 3554SOL     OW11560   3.671   4.245   5.787 -0.2803  0.4279  0.0601
 3554SOL    HW111561   3.693   4.154   5.750  0.9764 -0.7511  3.3009
 3554SOL    HW211562   3.754   4.300   5.791 -0.4682  0.6725  0.6743
 3555SOL     OW11563   1.990   4.999   1.286  0.2741  0.5123  0.2406
 3555SOL    HW111564   2.003   4.908   1.247  0.3476  0.4841  0.3306
 3555SOL    HW211565   2.028   5.067   1.224  0.2745  0.4773  0.2020
 3556SOL     OW11566   4.571   2.781   6.975  0.1554 -0.1430  0.0296
 3556SOL    HW111567   4.493   2.833   7.008 -1.6380 -2.0447 -1.0002
 3556SOL    HW211568   4.654   2.836   6.985 -0.9972  1.3112  2.7469
 3557SOL     OW11569   2.417   2.394   5.671  0.3317  0.2254 -0.2267
 3557SOL    HW111570   2.433   2.484   5.631  0.7000 -0.3327 -1.3769
 3557SOL    HW211571   2.456   2.324   5.612  2.3019 -0.5727  1.8516
 3558SOL     OW11572   5.547   6.498   6.319  0.0107 -0.3321 -0.1752
 3558SOL    HW111573   5.522   6.403   6.333  0.1968 -0.6326 -1.6919
 3558SOL    HW211574   5.605   6.506   6.238  0.0205  1.0650 -0.0656
 3559SOL     OW11575   1.138   1.991   3.133 -0.0589  0.2154 -0.5064
 3559SOL    HW111576   1.116   1.915   3.072  1.3927 -1.7424  1.2551
 3559SOL    HW211577   1.079   1.988   3.213  1.3462 -0.3859  0.5551
 3560SOL     OW11578   0.048   1.970   5.001  0.6050  0.3811 -0.3536
 3560SOL    HW111579   0.045   1.989   5.099 -2.2700 -1.1870 -0.0214
 3560SOL    HW211580  -0.030   2.014   4.955  0.5525 -0.8027 -1.4912
 3561SOL     OW11581   0.009   3.404   2.540  0.0641  0.5467 -0.0058
 3561SOL    HW111582  -0.006   3.409   2.441  0.5945 -0.0238 -0.1302
 3561SOL    HW211583   0.078   3.333   2.558 -1.5643 -0.8661  0.9321
 3562SOL     OW11584   5.990   2.575   3.386  0.5004  0.4934 -0.0126
 3562SOL    HW111585   5.971   2.673   3.390  0.3137  0.4336  0.6802
 3562SOL    HW211586   5.973   2.534   3.476  2.9449  0.2487  0.4098
 3563SOL     OW11587   6.523   4.450   3.973 -0.8444  0.3029 -0.2707
 3563SOL    HW111588   6.429   4.484   3.977 -0.5038  1.1687  0.7421
 3563SOL    HW211589   6.561   4.447   4.065 -0.2557 -1.1673 -0.5377
 3564SOL     OW11590   3.542   0.271   2.147  0.3512 -0.3297 -0.3833
 3564SOL    HW111591   3.473   0.271   2.075  1.6647 -1.2775 -1.6912
 3564SOL    HW211592   3.594   0.186   2.143  1.6761  0.4094  0.5000
 3565SOL     OW11593   1.285   0.471   1.407 -0.0986 -0.1580 -0.6638
 3565SOL    HW111594   1.190   0.481   1.439  0.6954  1.1440  1.4620
 3565SOL    HW211595   1.312   0.552   1.356 -0.8711 -1.6099 -3.6603
 3566SOL     OW11596   5.269   0.695   3.147  0.1198  0.6834  0.1454
 3566SOL    HW111597   5.196   0.675   3.213 -0.0096 -0.8390 -0.4185
 3566SOL    HW211598   5.230   0.699   3.055  0.2351  3.1770  0.1379
 3567SOL     OW11599   5.225   6.469   1.743 -0.9287  0.0054 -0.5758
 3567SOL    HW111600   5.262   6.453   1.652 -0.7738 -0.9717 -0.3562
 3567SOL    HW211601   5.284   6.534   1.792 -0.2640 -0.4893 -0.7053
 3568SOL     OW11602   2.628   3.044   0.758 -0.1275 -0.0652 -0.5837
 3568SOL    HW111603   2.551   3.106   0.771  0.8441  1.3153 -1.1302
 3568SOL    HW211604   2.602   2.970   0.696 -1.2756 -0.1572 -0.0166
 3569SOL     OW11605   3.257   2.956   2.520  0.1692 -0.0286  0.9703
 3569SOL    HW111606   3.323   2.885   2.544 -1.1537 -1.0440  1.8003
 3569SOL    HW211607   3.251   2.964   2.421  0.6551 -0.7864  0.8726
 3570SOL     OW11608   4.338   2.400   6.966  0.4504  1.1597  0.2733
 3570SOL    HW111609   4.292   2.483   6.998 -1.8798 -0.2941  1.0055
 3570SOL    HW211610   4.326   2.328   7.034 -1.1469 -0.9000 -2.0110
 3571SOL     OW11611   1.264   1.704   5.757 -0.0201  0.0900  0.7497
 3571SOL    HW111612   1.219   1.644   5.691  1.5049 -1.1167  0.7458
 3571SOL    HW211613   1.206   1.784   5.774 -0.6275  0.2778 -1.7759
 3572SOL     OW11614   0.806   6.000   2.432 -0.1350 -0.8059 -0.5320
 3572SOL    HW111615   0.844   5.985   2.341 -1.5030 -0.9051 -1.1088
 3572SOL    HW211616   0.880   6.024   2.496  0.6737  0.7037 -1.9690
 3573SOL     OW11617   6.191   6.545   1.013  0.0223 -0.5583 -0.0808
 3573SOL    HW111618   6.157   6.453   0.993 -1.7858  0.3660 -1.6467
 3573SOL    HW211619   6.289   6.549   0.997 -0.0322 -1.9787 -0.9570
 3574SOL     OW11620   0.136   2.644   1.164  0.0553 -0.0506 -0.1247
 3574SOL    HW111621   0.166   2.569   1.223 -2.2248 -1.2988 -0.4243
 3574SOL    HW211622   0.146   2.616   1.068 -2.1037 -0.6309 -0.2376
 3575SOL     OW11623   4.613   1.231   0.954  0.0220  0.1883  0.0712
 3575SOL    HW111624   4.633   1.141   0.917  0.5370 -0.6450  2.2548
 3575SOL    HW211625   4.515   1.240   0.970 -0.2026  0.5423 -1.3542
 3576SOL     OW11626   1.330   1.933   2.494  0.0831 -0.5068  0.0989
 3576SOL    HW111627   1.392   1.891   2.428  1.9744 -0.9115  2.0118
 3576SOL    HW211628   1.383   1.989   2.558 -1.7681  0.5469  0.7827
 3577SOL     OW11629   3.176   1.539   0.592 -0.6338  0.0774 -0.5079
 3577SOL    HW111630   3.166   1.567   0.687  1.7097 -0.4315 -0.0436
 3577SOL    HW211631   3.246   1.595   0.547 -0.9417 -0.3845 -1.6184
 3578SOL     OW11632   5.901   0.806   5.091  0.3670 -0.8475 -0.1812
 3578SOL    HW111633   5.915   0.804   5.190  2.8139 -0.7361 -0.4694
 3578SOL    HW211634   5.804   0.793   5.071 -0.3403  0.1335  2.2509
 3579SOL     OW11635   5.334   1.663   2.845 -0.5086  0.1168 -0.7214
 3579SOL    HW111636   5.415   1.660   2.787 -0.9887  1.6317 -1.5454
 3579SOL    HW211637   5.358   1.639   2.939  0.6531 -0.5742 -1.1871
 3580SOL     OW11638   4.243   0.604   5.577 -0.0335  0.1677  0.3211
 3580SOL    HW111639   4.254   0.662   5.658 -0.0518 -1.4257  1.5135
 3580SOL    HW211640   4.250   0.660   5.495  1.6679  1.5866  1.3697
 3581SOL     OW11641   0.926   1.291   2.996  0.5857  0.1631 -0.1358
 3581SOL    HW111642   0.871   1.357   2.945 -2.2163 -2.6328 -1.0929
 3581SOL    HW211643   0.984   1.240   2.933 -0.9588 -1.5347 -0.2727
 3582SOL     OW11644   4.702   3.562   6.860  0.1725 -0.0842 -0.0736
 3582SOL    HW111645   4.760   3.643   6.872  0.7678 -0.3771 -0.8624
 3582SOL    HW211646   4.690   3.544   6.762  1.8288 -2.1718  0.0200
 3583SOL     OW11647   2.785   6.549   5.850  0.2436  0.4976 -0.3608
 3583SOL    HW111648   2.759   6.457   5.823  1.4961  0.2882 -0.9226
 3583SOL    HW211649   2.813   6.602   5.770 -1.2922  1.6655 -0.1633
 3584SOL     OW11650   1.785   0.182   3.331 -0.1086  0.0042 -0.0565
 3584SOL    HW111651   1.753   0.188   3.237  0.5734 -1.3496 -0.4077
 3584SOL    HW211652   1.885   0.170   3.332 -0.2932 -1.7643  0.7289
 3585SOL     OW11653   6.190   1.688   3.998  0.0041  0.1819 -0.3120
 3585SOL    HW111654   6.124   1.653   3.931  0.9839 -0.7023 -0.8432
 3585SOL    HW211655   6.247   1.613   4.032 -0.2306  0.6768  1.2666
 3586SOL     OW11656   4.807   0.659   0.518  0.1603  0.2811 -0.0766
 3586SOL    HW111657   4.872   0.672   0.444  2.1673  0.9728  1.7157
 3586SOL    HW211658   4.750   0.580   0.498  0.0347  0.9218 -2.7117
 3587SOL     OW11659   0.520   2.116   4.109  0.0769  0.2030 -0.4723
 3587SOL    HW111660   0.542   2.181   4.182 -2.3685  0.3895  0.2040
 3587SOL    HW211661   0.462   2.043   4.146  0.0185 -0.5231 -1.9169
 3588SOL     OW11662   5.724   0.713   2.398 -0.2389 -0.0669  0.6286
 3588SOL    HW111663   5.753   0.649   2.327 -0.5378  1.5912 -1.0663
 3588SOL    HW211664   5.789   0.711   2.474  1.9410  0.3996 -1.1243
 3589SOL     OW11665   2.609   0.461   4.515  0.4864 -0.2149  0.2192
 3589SOL    HW111666   2.677   0.514   4.463  0.5311 -0.5820 -0.1003
 3589SOL    HW211667   2.547   0.415   4.451 -0.5137  0.6895  0.5103
 3590SOL     OW11668   3.221   5.767   1.995 -0.1466  0.6175 -0.2775
 3590SOL    HW111669   3.200   5.697   2.064  2.1263  0.2380  0.1033
 3590SOL    HW211670   3.143   5.829   1.986 -1.0683 -0.1939  1.5679
 3591SOL     OW11671   0.692   2.717   1.047 -0.0584  0.0294  0.3935
 3591SOL    HW111672   0.732   2.670   1.125  0.4465 -0.9275 -0.4224
 3591SOL    HW211673   0.756   2.717   0.971  0.2215  2.6071  0.5176
 3592SOL     OW11674   2.933   6.203   1.183 -0.9500  0.3480 -0.5787
 3592SOL    HW111675   2.977   6.114   1.165 -1.1882  0.5269 -2.2170
 3592SOL    HW211676   2.999   6.276   1.165 -0.4512  0.5400  1.6780
 3593SOL     OW11677   0.822   4.922   1.896 -0.2192 -0.0680 -0.0228
 3593SOL    HW111678   0.805   4.833   1.852  1.9399 -0.2867 -0.4995
 3593SOL    HW211679   0.803   4.995   1.831  1.0468 -0.3184 -0.6948
 3594SOL     OW11680   1.034   0.521   5.634  0.1104 -0.0902  0.0062
 3594SOL    HW111681   0.994   0.576   5.708 -0.3442 -1.3475  0.7442
 3594SOL    HW211682   1.024   0.424   5.657 -0.5096 -0.5290 -1.9671
 3595SOL     OW11683   2.661   1.773   6.654  0.4150 -0.1482  0.3823
 3595SOL    HW111684   2.571   1.808   6.630  0.7728  1.4260  1.2177
 3595SOL    HW211685   2.729   1.811   6.592  0.5262 -1.3936 -0.2969
 3596SOL     OW11686   2.242   3.213   0.577  0.4006  0.2922 -0.0619
 3596SOL    HW111687   2.224   3.164   0.491  1.5589  0.0985 -0.2081
 3596SOL    HW211688   2.171   3.282   0.591 -0.0387  0.0452 -0.9662
 3597SOL     OW11689   4.277   0.483   4.939  0.2413  0.0944  0.9106
 3597SOL    HW111690   4.276   0.583   4.937 -1.2053  0.0960  0.7169
 3597SOL    HW211691   4.313   0.452   5.028  1.2472  0.7528  0.7601
 3598SOL     OW11692   3.697   0.874   2.149  0.1144 -0.1310  0.2059
 3598SOL    HW111693   3.682   0.776   2.157 -0.6501 -0.2344 -1.9169
 3598SOL    HW211694   3.795   0.893   2.143  0.2795 -0.7169  0.9632
 3599SOL     OW11695   1.867   5.442   6.217  0.4754  0.0643 -0.0467
 3599SOL    HW111696   1.952   5.465   6.265  1.1690 -1.1534 -0.6298
 3599SOL    HW211697   1.794   5.425   6.283  0.9957 -0.0322  0.5134
 3600SOL     OW11698   1.725   5.737   6.616  0.0517  0.4224 -0.1314
 3600SOL    HW111699   1.699   5.834   6.619  0.8333  0.6399 -0.1523
 3600SOL    HW211700   1.814   5.728   6.571  1.0672 -0.0605  1.8568
 3601SOL     OW11701   6.693   3.791   5.899 -0.5708 -0.0413  0.0364
 3601SOL    HW111702   6.751   3.842   5.963  0.0169  2.2834 -2.2012
 3601SOL    HW211703   6.597   3.810   5.919 -0.3734  1.4338 -0.3263
 3602SOL     OW11704   1.728   1.667   4.361 -0.0473 -0.2294 -0.8299
 3602SOL    HW111705   1.691   1.619   4.282  2.2055 -1.0267 -1.4567
 3602SOL    HW211706   1.783   1.744   4.331  0.3510 -0.1832 -0.0071
 3603SOL     OW11707   0.086   4.820   5.414 -0.8252 -0.1780 -0.1422
 3603SOL    HW111708   0.073   4.841   5.317  1.4565 -1.1975 -0.7494
 3603SOL    HW211709   0.142   4.891   5.457  0.7609 -1.1873 -0.4089
 3604SOL     OW11710   2.023   1.854   0.719 -0.0256 -0.2882 -0.4767
 3604SOL    HW111711   1.995   1.949   0.706 -1.7197 -0.8377 -1.1458
 3604SOL    HW211712   2.051   1.840   0.814  2.3312  1.3399 -0.8400
 3605SOL     OW11713   5.601   4.097   2.624  0.0036 -0.3483 -0.4138
 3605SOL    HW111714   5.564   4.188   2.642 -2.4529 -1.5295  0.9984
 3605SOL    HW211715   5.599   4.078   2.526 -1.6241  0.3080 -0.5332
 3606SOL     OW11716   5.122   2.976   4.267  0.3575  0.1963 -0.8244
 3606SOL    HW111717   5.082   2.941   4.182  2.2649  0.7036 -1.9930
 3606SOL    HW211718   5.118   3.076   4.267  1.6360  0.2718 -1.0265
 3607SOL     OW11719   0.544   2.207   6.665  0.1244 -0.2075  0.2652
 3607SOL    HW111720   0.496   2.192   6.752 -1.7930 -1.3385 -0.9283
 3607SOL    HW211721   0.493   2.273   6.610  1.6477  0.9647  0.1729
 3608SOL     OW11722   4.380   3.097   1.191  0.4820 -0.0597 -0.0735
 3608SOL    HW111723   4.318   3.088   1.269 -0.1423  0.8499 -0.4428
 3608SOL    HW211724   4.412   3.007   1.163 -1.7799 -0.7162 -0.7661
 3609SOL     OW11725   2.333   6.561   2.544 -0.1229  1.1286 -0.1858
 3609SOL    HW111726   2.317   6.515   2.631 -2.0179  1.2847 -0.4076
 3609SOL    HW211727   2.350   6.658   2.560 -2.3481  1.5360 -0.0604
 3610SOL     OW11728   2.854   4.588   0.670 -0.1461  0.1708 -0.1575
 3610SOL    HW111729   2.796   4.593   0.751  0.0650  0.0191  0.0025
 3610SOL    HW211730   2.806   4.628   0.592 -0.2598  0.5177  0.0908
 3611SOL     OW11731   0.415   0.063   4.243  0.2286 -0.0643 -0.5608
 3611SOL    HW111732   0.367   0.047   4.156  0.0341  0.8995 -0.6462
 3611SOL    HW211733   0.396   0.156   4.274  0.1491 -0.4713  0.6215
 3612SOL     OW11734   4.800   4.301   5.506  0.1016 -0.0678 -0.2583
 3612SOL    HW111735   4.806   4.400   5.519 -4.2995  0.4007 -0.1284
 3612SOL    HW211736   4.757   4.282   5.417  0.3095 -1.8366 -0.0197
 3613SOL     OW11737   3.147   3.172   4.971  0.0511  0.8156  0.2742
 3613SOL    HW111738   3.063   3.160   4.918  0.1191 -2.7366  0.7487
 3613SOL    HW211739   3.126   3.169   5.068  0.7779 -1.1265  0.4012
 3614SOL     OW11740   6.858   5.792   6.110 -0.2267 -0.4356  0.3942
 3614SOL    HW111741   6.764   5.760   6.098 -0.0558 -0.8694  0.1920
 3614SOL    HW211742   6.906   5.790   6.023 -0.2846  0.6310  0.3284
 3615SOL     OW11743   6.490   2.601   6.944  0.0262  0.0963  0.1002
 3615SOL    HW111744   6.573   2.657   6.947  0.1710 -0.1518  1.4155
 3615SOL    HW211745   6.459   2.583   7.038 -0.2882 -1.6115 -0.2914
 3616SOL     OW11746   2.180   0.788   2.757 -0.3577  0.3121 -0.3681
 3616SOL    HW111747   2.248   0.848   2.714 -0.1218 -1.6954 -3.0019
 3616SOL    HW211748   2.091   0.802   2.713 -0.9126  0.5093  0.7687
 3617SOL     OW11749   4.271   0.302   6.383  0.0493  0.1544  0.2733
 3617SOL    HW111750   4.337   0.309   6.458 -0.6864  1.7039  0.8335
 3617SOL    HW211751   4.182   0.272   6.419 -0.3794  1.1601  0.0949
 3618SOL     OW11752   5.932   6.375   6.236 -0.4157  0.1310  0.0624
 3618SOL    HW111753   5.908   6.358   6.331 -1.2623 -0.1652 -0.1936
 3618SOL    HW211754   5.854   6.416   6.188 -1.4458 -3.1456 -1.4014
 3619SOL     OW11755   5.546   6.099   4.084  0.0972  0.6530 -0.3417
 3619SOL    HW111756   5.469   6.148   4.124 -0.6367  0.3077 -1.2994
 3619SOL    HW211757   5.589   6.042   4.154 -1.5619 -0.4431 -0.1573
 3620SOL     OW11758   1.840   0.695   0.390  0.0527  0.0427  0.9765
 3620SOL    HW111759   1.769   0.762   0.366  1.3860  1.1488 -0.0275
 3620SOL    HW211760   1.822   0.659   0.481 -2.2483 -0.3325  0.4632
 3621SOL     OW11761   6.370   1.467   6.353  0.1382 -0.4388  0.1381
 3621SOL    HW111762   6.295   1.408   6.381  0.6782 -1.1995  0.0259
 3621SOL    HW211763   6.385   1.457   6.254 -0.7897  1.0967 -0.1957
 3622SOL     OW11764   6.736   5.786   3.356  0.1397  0.6607 -0.0746
 3622SOL    HW111765   6.650   5.771   3.308  0.7164  1.1242 -1.3239
 3622SOL    HW211766   6.807   5.727   3.316  0.2566 -0.2215  1.3936
 3623SOL     OW11767   6.948   6.110   2.934  0.5800 -0.7766  0.1691
 3623SOL    HW111768   6.931   6.012   2.940 -0.8776 -0.7234 -2.1362
 3623SOL    HW211769   6.996   6.140   3.017  2.6388 -3.6936  0.1986
 3624SOL     OW11770   2.204   3.200   4.266 -0.3930 -0.1280  0.4098
 3624SOL    HW111771   2.247   3.209   4.176 -0.7377  0.2383  0.2805
 3624SOL    HW211772   2.216   3.285   4.318 -0.2968 -0.2958  0.6662
 3625SOL     OW11773   2.835   4.559   1.545 -0.6118 -0.0970 -0.4010
 3625SOL    HW111774   2.872   4.528   1.632 -0.1635  1.3490 -0.0457
 3625SOL    HW211775   2.758   4.621   1.562 -3.1835 -2.8280 -1.1105
 3626SOL     OW11776   6.715   2.277   3.571  0.2076  0.6743 -0.1043
 3626SOL    HW111777   6.799   2.258   3.622 -0.0343  0.9208  0.3918
 3626SOL    HW211778   6.736   2.283   3.473  0.4156 -1.4464 -0.2269
 3627SOL     OW11779   5.711   2.773   6.719 -0.2414 -0.2755 -0.0810
 3627SOL    HW111780   5.747   2.680   6.728 -1.2390 -0.5387  1.6217
 3627SOL    HW211781   5.702   2.796   6.622 -0.8624 -2.3206 -0.5545
 3628SOL     OW11782   4.502   5.327   3.761 -0.6839  0.2868  0.0584
 3628SOL    HW111783   4.478   5.237   3.723  1.3730 -0.8411  1.2557
 3628SOL    HW211784   4.432   5.354   3.828 -0.9201 -0.8262  0.2849
 3629SOL     OW11785   3.793   6.377   4.891 -0.0834 -0.2379 -0.0655
 3629SOL    HW111786   3.791   6.476   4.885 -1.1857 -0.2381  0.1020
 3629SOL    HW211787   3.707   6.344   4.929 -0.6693 -1.4174 -2.2960
 3630SOL     OW11788   0.932   4.568   6.593  0.0059 -0.0040 -0.9546
 3630SOL    HW111789   1.021   4.606   6.567  0.3671 -0.2174 -0.0696
 3630SOL    HW211790   0.945   4.479   6.636 -0.8062 -0.9724 -2.6279
 3631SOL     OW11791   0.516   1.832   0.386  0.0826 -0.4094  0.5937
 3631SOL    HW111792   0.467   1.747   0.368  1.1514 -0.7620 -0.8234
 3631SOL    HW211793   0.544   1.835   0.482 -1.0252 -1.0714  0.9471
 3632SOL     OW11794   4.765   6.687   2.213 -0.0282  0.0360 -0.5742
 3632SOL    HW111795   4.705   6.609   2.233 -0.6365  0.5611 -0.3084
 3632SOL    HW211796   4.797   6.726   2.300  2.0621 -1.2424 -0.6925
 3633SOL     OW11797   3.192   5.297   4.805 -0.1946 -0.0843  0.6442
 3633SOL    HW111798   3.161   5.317   4.898 -0.4069  1.1915  0.3208
 3633SOL    HW211799   3.246   5.212   4.805  0.5815  0.3702  2.0884
 3634SOL     OW11800   2.033   4.737   5.275  0.3049 -0.1124 -0.0673
 3634SOL    HW111801   1.978   4.724   5.358 -0.3859  0.7630 -0.3741
 3634SOL    HW211802   2.128   4.752   5.301  0.2821 -0.8721  0.5084
 3635SOL     OW11803   0.346   0.158   4.957 -0.2571 -0.0833 -0.1367
 3635SOL    HW111804   0.254   0.149   4.995  0.4085 -1.3498  1.2546
 3635SOL    HW211805   0.343   0.142   4.858 -1.6454  0.7939 -0.2638
 3636SOL     OW11806   5.358   5.720   4.056  0.3471  0.4263 -0.2023
 3636SOL    HW111807   5.336   5.623   4.047 -1.4664  0.5655  1.7061
 3636SOL    HW211808   5.435   5.731   4.119 -0.5961  0.2508  1.0173
 3637SOL     OW11809   4.798   3.728   1.360  0.1010 -0.4658  0.3029
 3637SOL    HW111810   4.699   3.735   1.374 -0.0559 -0.8155 -0.5492
 3637SOL    HW211811   4.816   3.669   1.281  1.0047 -0.7626  0.7219
 3638SOL     OW11812   5.504   5.067   1.274 -0.1430 -0.4025 -0.6465
 3638SOL    HW111813   5.560   5.065   1.191  2.8324 -2.9820  1.1981
 3638SOL    HW211814   5.563   5.084   1.353 -2.3198 -1.3799  1.2847
 3639SOL     OW11815   0.817   0.123   5.514 -0.3003 -1.0212  0.3431
 3639SOL    HW111816   0.744   0.067   5.474  1.0914 -2.6162 -0.1055
 3639SOL    HW211817   0.789   0.219   5.515 -2.1324 -1.5021 -0.3885
 3640SOL     OW11818   6.382   6.886   6.898  0.0733 -0.3241  0.2695
 3640SOL    HW111819   6.467   6.843   6.866  0.7338  0.3523  1.0398
 3640SOL    HW211820   6.402   6.979   6.929 -0.8829 -0.2901  0.8338
 3641SOL     OW11821   6.877   3.832   4.258  0.1094 -0.3669 -0.1399
 3641SOL    HW111822   6.926   3.760   4.209 -0.3513 -0.6753 -0.1491
 3641SOL    HW211823   6.790   3.796   4.293 -0.0165  0.1191  0.0561
 3642SOL     OW11824   6.953   3.939   2.880  0.5711  0.8655  0.1277
 3642SOL    HW111825   6.978   3.910   2.788 -0.8332  0.2678 -0.0902
 3642SOL    HW211826   6.956   3.860   2.942 -0.0040  0.9436  0.2583
 3643SOL     OW11827   3.244   2.260   1.687 -0.5054  0.5954 -0.0041
 3643SOL    HW111828   3.199   2.222   1.767  0.4269  0.4340  0.4555
 3643SOL    HW211829   3.263   2.357   1.702 -0.9190  0.7268 -0.3014
 3644SOL     OW11830   2.392   6.037   5.721  0.1449  0.0156  0.1731
 3644SOL    HW111831   2.474   6.022   5.666  0.6613 -0.4120  1.0318
 3644SOL    HW211832   2.315   5.989   5.680  0.6889 -0.9229  0.2180
 3645SOL     OW11833   2.917   0.150   7.007 -0.0203 -0.3376 -0.4203
 3645SOL    HW111834   2.933   0.244   6.975 -1.8444  0.8854  1.9659
 3645SOL    HW211835   2.952   0.140   7.100 -1.7472 -1.3350  0.1638
 3646SOL     OW11836   3.785   6.223   3.206 -0.1390 -0.4936  0.1236
 3646SOL    HW111837   3.851   6.164   3.161 -1.0506 -0.6315 -1.0927
 3646SOL    HW211838   3.774   6.308   3.154 -1.1260 -0.6068  0.1151
 3647SOL     OW11839   4.085   1.662   6.277 -0.3520 -0.4082 -0.4285
 3647SOL    HW111840   4.083   1.567   6.309 -0.0273 -0.6251 -1.0318
 3647SOL    HW211841   4.167   1.708   6.313 -0.4291 -0.3996 -0.2621
 3648SOL     OW11842   1.804   2.962   1.010 -0.4491  0.5921 -0.0952
 3648SOL    HW111843   1.896   2.996   0.994 -0.6673  0.5305 -1.5951
 3648SOL    HW211844   1.789   2.951   1.109  1.4397 -0.2631  0.1300
 3649SOL     OW11845   5.194   5.546   4.749  0.7204  0.1487 -0.8164
 3649SOL    HW111846   5.206   5.562   4.651 -0.6230 -2.2344 -1.4279
 3649SOL    HW211847   5.224   5.454   4.772 -0.7816 -0.0266  0.6201
 3650SOL     OW11848   2.650   1.616   3.216  0.5062 -0.2195  0.0605
 3650SOL    HW111849   2.582   1.623   3.289 -0.1251 -0.7287 -0.4637
 3650SOL    HW211850   2.624   1.675   3.140  0.9422 -0.0073  0.0695
 3651SOL     OW11851   4.915   0.041   3.725  0.2069 -0.3783 -0.7431
 3651SOL    HW111852   4.915   0.058   3.626 -0.1194  0.2867 -0.6338
 3651SOL    HW211853   4.844   0.096   3.768  1.2106  0.3351  0.0386
 3652SOL     OW11854   0.790   6.065   5.615 -0.4970  0.1857 -0.2677
 3652SOL    HW111855   0.818   6.134   5.681 -1.3136 -0.2653  0.5775
 3652SOL    HW211856   0.847   6.072   5.533 -1.4701  2.7783 -0.8188
 3653SOL     OW11857   3.837   4.773   0.112  0.2034  0.1149  0.2440
 3653SOL    HW111858   3.752   4.733   0.145  1.7313 -1.9271  1.9400
 3653SOL    HW211859   3.873   4.835   0.182  0.4322  0.4958 -0.2088
 3654SOL     OW11860   4.236   5.211   0.966  0.2371 -0.1955  0.5255
 3654SOL    HW111861   4.268   5.253   0.880 -1.6274 -0.7065 -0.4740
 3654SOL    HW211862   4.282   5.123   0.978  2.2687  0.9095  1.3203
 3655SOL     OW11863   4.295   1.391   3.146 -0.0934  0.1092  0.0953
 3655SOL    HW111864   4.310   1.489   3.130  1.4443  0.0866  1.1953
 3655SOL    HW211865   4.382   1.342   3.139 -1.0528 -1.5017 -2.1453
 3656SOL     OW11866   0.721   6.228   1.298 -0.4779  0.0261  0.7290
 3656SOL    HW111867   0.792   6.289   1.333 -0.6706  0.0091  1.1546
 3656SOL    HW211868   0.742   6.205   1.202  0.6900 -0.8565  1.1693
 3657SOL     OW11869   1.208   6.430   0.646  0.7151  0.1728 -0.1096
 3657SOL    HW111870   1.273   6.491   0.600  1.3449 -0.3508  0.0817
 3657SOL    HW211871   1.216   6.338   0.607 -0.5170  0.2849 -0.6829
 3658SOL     OW11872   0.441   6.756   6.878  0.0639  0.4738 -0.2502
 3658SOL    HW111873   0.379   6.781   6.803  0.1151 -1.3997 -0.9701
 3658SOL    HW211874   0.535   6.775   6.852  0.2738 -1.9196 -1.5291
 3659SOL     OW11875   0.396   6.590   3.064 -0.7013  0.1650 -0.3357
 3659SOL    HW111876   0.329   6.658   3.034 -0.7604  0.2710  0.0411
 3659SOL    HW211877   0.363   6.499   3.040 -1.1023  0.1991  0.0818
 3660SOL     OW11878   1.174   2.523   0.001  0.8011 -0.2272 -0.1441
 3660SOL    HW111879   1.152   2.445   0.059  2.1279 -0.9007 -0.5090
 3660SOL    HW211880   1.090   2.573  -0.022 -0.1113 -1.7193 -0.1541
 3661SOL     OW11881   0.275   4.913   0.251  0.0109  0.3337 -0.2906
 3661SOL    HW111882   0.355   4.885   0.305  0.2956 -0.2225 -0.9749
 3661SOL    HW211883   0.237   4.997   0.288  0.7923  0.4893  0.1783
 3662SOL     OW11884   0.715   4.149   5.387  0.2703  0.6752  0.2860
 3662SOL    HW111885   0.669   4.121   5.303  0.4481 -0.4948  0.5650
 3662SOL    HW211886   0.780   4.223   5.367 -0.1332  0.8259 -0.4847
 3663SOL     OW11887   0.258   6.366   5.160  0.0758  0.2222  0.3544
 3663SOL    HW111888   0.212   6.440   5.209  0.7937  0.5735  0.5142
 3663SOL    HW211889   0.246   6.280   5.210  0.8372  0.5843  1.1708
 3664SOL     OW11890   3.101   1.347   6.509 -0.1241  0.2694 -0.9681
 3664SOL    HW111891   3.122   1.262   6.557 -0.9293 -0.1894 -1.4095
 3664SOL    HW211892   3.094   1.330   6.411  0.4308  0.9941 -1.1442
 3665SOL     OW11893   0.705   4.890   5.504  0.1802  0.3601  0.4537
 3665SOL    HW111894   0.795   4.934   5.513  0.8013 -0.8162  0.1937
 3665SOL    HW211895   0.655   4.898   5.590  1.1919 -0.3553  1.1291
 3666SOL     OW11896   6.424   1.505   4.772 -0.0121 -0.2941 -0.3856
 3666SOL    HW111897   6.325   1.514   4.762 -0.0402 -0.0579  0.1295
 3666SOL    HW211898   6.467   1.595   4.766 -0.0036 -0.1658  1.3450
 3667SOL     OW11899   2.907   0.846   3.427  0.7099 -0.0755 -0.2494
 3667SOL    HW111900   2.965   0.926   3.442 -0.1383  0.2964  1.2705
 3667SOL    HW211901   2.811   0.873   3.433  0.3334 -1.5972  3.3309
 3668SOL     OW11902   1.441   6.468   2.906  0.2741 -0.1342 -0.5865
 3668SOL    HW111903   1.382   6.516   2.971 -1.5991 -0.6005 -1.8839
 3668SOL    HW211904   1.501   6.406   2.956 -2.7120 -2.2587  0.6469
 3669SOL     OW11905   6.298   5.424   6.618  0.2421 -0.3505 -0.2455
 3669SOL    HW111906   6.256   5.503   6.663 -0.1675 -1.4222  1.3636
 3669SOL    HW211907   6.229   5.353   6.604  1.2738 -1.9008  1.8690
 3670SOL     OW11908   2.953   4.519   1.296 -0.0086 -0.4198 -0.2154
 3670SOL    HW111909   2.985   4.603   1.253 -2.9260 -0.7400 -3.4618
 3670SOL    HW211910   2.901   4.541   1.379 -0.4630  0.9546 -0.8434
 3671SOL     OW11911   6.263   1.504   1.418  0.2629 -0.2460 -0.3114
 3671SOL    HW111912   6.168   1.473   1.418  0.0651  0.1119  2.5714
 3671SOL    HW211913   6.324   1.426   1.426  0.0821 -0.3457  0.1346
 3672SOL     OW11914   1.505   6.970   1.369 -0.3850 -0.6866  0.1837
 3672SOL    HW111915   1.510   6.929   1.460 -0.8570  0.0687  0.5635
 3672SOL    HW211916   1.450   6.913   1.309 -3.0124  0.4472  1.3393
 3673SOL     OW11917   1.769   3.306   6.876 -0.4678  0.0488 -0.5758
 3673SOL    HW111918   1.731   3.288   6.966  1.2765 -0.1377  0.1508
 3673SOL    HW211919   1.778   3.405   6.862 -1.7026  0.1271 -0.9987
 3674SOL     OW11920   2.033   0.773   4.806  0.2269  0.4799 -0.0630
 3674SOL    HW111921   1.993   0.804   4.719  0.7879 -0.7713 -0.8011
 3674SOL    HW211922   1.969   0.793   4.881 -0.5928  0.9197 -0.8489
 3675SOL     OW11923   1.815   3.516   4.371  0.3879  0.0155 -0.0811
 3675SOL    HW111924   1.853   3.428   4.343  0.9312  1.3733 -4.2392
 3675SOL    HW211925   1.881   3.588   4.352 -2.3723  1.9576 -3.1288
 3676SOL     OW11926   0.813   1.139   5.920 -0.2814 -0.1955  0.1170
 3676SOL    HW111927   0.728   1.180   5.953 -1.3681 -1.1016 -1.4516
 3676SOL    HW211928   0.820   1.152   5.821  1.3003 -0.3469  0.1906
 3677SOL     OW11929   1.458   3.122   3.575 -0.0386 -0.3173  0.0418
 3677SOL    HW111930   1.528   3.053   3.591  1.5324  1.2248  0.0797
 3677SOL    HW211931   1.433   3.123   3.478  1.2600  0.2368 -0.3136
 3678SOL     OW11932   4.207   5.265   5.749  0.2616  0.0196  0.6355
 3678SOL    HW111933   4.164   5.277   5.660 -1.5488  0.0214  1.4741
 3678SOL    HW211934   4.177   5.337   5.811  0.2827 -0.8491  1.6881
 3679SOL     OW11935   6.715   0.592   6.569  0.2172  0.2874 -0.4357
 3679SOL    HW111936   6.757   0.580   6.479  1.8903 -0.0645  0.3500
 3679SOL    HW211937   6.755   0.671   6.614  0.9125 -0.7108  0.7849
 3680SOL     OW11938   2.411   6.503   6.420  0.1187 -0.1332  0.0461
 3680SOL    HW111939   2.504   6.482   6.390 -0.4225 -0.0812 -1.7662
 3680SOL    HW211940   2.345   6.454   6.363 -0.9846 -0.0372  1.1893
 3681SOL     OW11941   0.203   4.946   1.391  0.0786 -0.2641  0.1380
 3681SOL    HW111942   0.264   4.877   1.351  1.8766  1.3411 -0.0389
 3681SOL    HW211943   0.110   4.930   1.359  0.2580 -3.0262  0.6823
 3682SOL     OW11944   1.955   0.841   4.552 -0.1902  0.0857  0.7211
 3682SOL    HW111945   1.961   0.756   4.499 -0.7803  0.5847 -0.1927
 3682SOL    HW211946   1.987   0.918   4.495  0.2791  0.4855  1.5131
 3683SOL     OW11947   5.293   3.763   5.709 -0.0740 -0.3775 -0.1121
 3683SOL    HW111948   5.224   3.778   5.780 -0.9736 -0.5144 -0.9419
 3683SOL    HW211949   5.375   3.815   5.731 -1.4166  2.0275 -0.5000
 3684SOL     OW11950   6.999   6.932   3.707  0.0670 -0.1373  0.3947
 3684SOL    HW111951   7.054   6.852   3.731 -2.5781 -2.6661 -1.3779
 3684SOL    HW211952   6.958   6.919   3.617 -0.5593  3.2431  0.0525
 3685SOL     OW11953   2.961   4.971   0.686 -0.1910  0.1419 -0.2550
 3685SOL    HW111954   2.867   4.951   0.715 -0.5898  0.6250 -1.1739
 3685SOL    HW211955   2.997   5.046   0.742  0.0576 -0.7674  0.8403
 3686SOL     OW11956   3.965   0.453   5.274  0.3284  0.0628 -0.2149
 3686SOL    HW111957   3.879   0.406   5.293  0.6253 -0.1133  0.7171
 3686SOL    HW211958   3.968   0.478   5.177  1.3150 -4.2127 -1.5002
 3687SOL     OW11959   6.759   3.397   3.205 -0.1284 -0.0443  0.0216
 3687SOL    HW111960   6.719   3.487   3.222  1.1174  0.3984  0.7393
 3687SOL    HW211961   6.795   3.394   3.112 -0.6918  0.0025 -0.1977
 3688SOL     OW11962   6.728   1.705   4.805 -0.2338  0.1595 -0.0202
 3688SOL    HW111963   6.758   1.731   4.897 -0.8887  0.4841  0.1104
 3688SOL    HW211964   6.779   1.624   4.774 -0.4235 -0.3132  0.8693
 3689SOL     OW11965   0.756   2.587   3.230 -0.0787  0.0312 -0.6290
 3689SOL    HW111966   0.813   2.507   3.211  1.6195  0.8699  0.6195
 3689SOL    HW211967   0.763   2.651   3.153 -1.3155 -0.9045 -1.5587
 3690SOL     OW11968   1.387   3.106   5.020  0.1964 -0.7476  0.4551
 3690SOL    HW111969   1.439   3.180   4.978  1.2739 -1.2501  0.8676
 3690SOL    HW211970   1.392   3.025   4.961 -1.6993 -0.2827 -0.4314
 3691SOL     OW11971   5.689   0.622   1.022 -0.1277 -0.1019 -0.1157
 3691SOL    HW111972   5.772   0.597   0.972  1.0772  0.6196  1.4425
 3691SOL    HW211973   5.696   0.716   1.055 -1.6547  0.0378 -0.1050
 3692SOL     OW11974   2.280   3.943   1.293  0.0468  0.1206 -0.4452
 3692SOL    HW111975   2.286   3.884   1.373 -0.9612  1.5050  0.6860
 3692SOL    HW211976   2.359   4.004   1.290 -0.4502  0.8041  0.1145
 3693SOL     OW11977   1.094   5.902   5.683 -0.1917 -0.1578 -0.1484
 3693SOL    HW111978   1.072   5.989   5.641  0.5720  1.7489  3.0491
 3693SOL    HW211979   1.188   5.905   5.719 -0.3589 -2.0749  0.5734
 3694SOL     OW11980   0.228   5.627   0.867 -0.2495 -0.4192 -0.0856
 3694SOL    HW111981   0.131   5.621   0.888 -0.2461 -1.9886 -0.3739
 3694SOL    HW211982   0.255   5.549   0.810  1.4376 -0.7504  1.0742
 3695SOL     OW11983   3.343   6.295   3.039 -0.3860  0.1503  0.4147
 3695SOL    HW111984   3.398   6.373   3.067  1.3856 -0.1533 -1.9400
 3695SOL    HW211985   3.402   6.221   3.008 -2.0826 -1.0415 -0.1460
 3696SOL     OW11986   4.758   4.325   0.188 -0.1394  0.2979  0.3378
 3696SOL    HW111987   4.784   4.420   0.201  0.6298  0.3475 -1.3124
 3696SOL    HW211988   4.659   4.318   0.178 -0.1306  1.0354 -0.3177
 3697SOL     OW11989   6.100   0.842   0.877  0.2760 -0.3082  0.0393
 3697SOL    HW111990   6.154   0.849   0.961  1.3863  3.1778 -0.7973
 3697SOL    HW211991   6.022   0.904   0.882  0.8014  0.5845 -1.7307
 3698SOL     OW11992   3.501   6.641   0.984  0.5982  0.6200 -0.7520
 3698SOL    HW111993   3.540   6.721   1.029  0.5744 -0.0626  0.5191
 3698SOL    HW211994   3.574   6.590   0.938  1.0601 -0.0436  0.6735
 3699SOL     OW11995   6.515   5.013   1.768 -0.3949  0.3848  0.5273
 3699SOL    HW111996   6.471   5.101   1.751 -0.4047  0.4227  0.7382
 3699SOL    HW211997   6.533   5.004   1.866  1.6788  1.1483  0.2826
 3700SOL     OW11998   5.594   5.668   4.534  0.2682 -0.2217  0.4029
 3700SOL    HW111999   5.653   5.747   4.544 -0.0224  0.1441 -0.6522
 3700SOL    HW212000   5.498   5.696   4.544  0.2223 -0.6636  1.2789
 3701SOL     OW12001   6.685   1.576   4.070 -0.4922  0.3997  0.0249
 3701SOL    HW112002   6.744   1.577   3.989  1.2907 -1.0949  1.2304
 3701SOL    HW212003   6.735   1.614   4.147 -1.5178  0.0939  0.8570
 3702SOL     OW12004   3.952   1.888   0.968  0.3213 -0.1481  0.1941
 3702SOL    HW112005   4.023   1.952   0.997  0.1389 -0.6243  1.8108
 3702SOL    HW212006   3.868   1.907   1.018  0.5267 -2.1909  1.4420
 3703SOL     OW12007   2.853   6.557   6.261 -0.4362  0.0665  0.0268
 3703SOL    HW112008   2.932   6.616   6.274 -0.0660 -0.5413  0.6430
 3703SOL    HW212009   2.852   6.487   6.333 -1.4589 -0.0176 -0.0522
 3704SOL     OW12010   0.646   2.592   6.372  0.4117 -0.0882 -0.1883
 3704SOL    HW112011   0.634   2.578   6.470 -0.9674 -0.6300 -0.4013
 3704SOL    HW212012   0.618   2.684   6.347 -0.8100 -0.4691 -0.2851
 3705SOL     OW12013   4.902   3.339   4.895  0.4199  0.2880 -0.0098
 3705SOL    HW112014   4.990   3.386   4.885  1.0107 -1.0385 -1.5421
 3705SOL    HW212015   4.831   3.406   4.915  1.8836  1.2988  2.2605
 3706SOL     OW12016   6.510   1.377   0.809 -0.4850  0.2988 -0.4703
 3706SOL    HW112017   6.490   1.416   0.719 -3.1021  0.7418  0.2072
 3706SOL    HW212018   6.503   1.448   0.879 -0.9691 -0.5010  0.3255
 3707SOL     OW12019   5.342   2.619   1.996 -0.1089 -0.0085  0.5804
 3707SOL    HW112020   5.410   2.569   2.049 -1.6217 -1.3555  1.3395
 3707SOL    HW212021   5.373   2.627   1.901  0.4684 -1.8822  0.5697
 3708SOL     OW12022   4.055   0.468   4.556 -0.1141 -0.4702 -0.4150
 3708SOL    HW112023   3.982   0.462   4.624 -1.1323  0.6266 -1.3500
 3708SOL    HW212024   4.116   0.390   4.564 -0.6922 -0.7768  1.1983
 3709SOL     OW12025   4.054   3.179   2.721 -0.1707  0.0104  0.4758
 3709SOL    HW112026   4.023   3.265   2.681  0.2264 -0.3654 -0.6780
 3709SOL    HW212027   4.107   3.128   2.653 -0.4084 -1.1511  1.1387
 3710SOL     OW12028   3.761   0.806   5.369  0.0504  0.7122 -0.4640
 3710SOL    HW112029   3.841   0.801   5.309  1.7122  3.6298  1.3124
 3710SOL    HW212030   3.743   0.901   5.393 -2.5067 -0.0842  1.2054
 3711SOL     OW12031   4.873   0.227   2.834  0.4297  0.3265 -0.0453
 3711SOL    HW112032   4.918   0.139   2.817  0.4823 -0.0189  1.7234
 3711SOL    HW212033   4.906   0.294   2.767  0.9483 -0.7927 -0.9526
 3712SOL     OW12034   4.149   0.139   5.595  0.1963 -0.6746  0.2570
 3712SOL    HW112035   4.081   0.089   5.542  0.3849 -1.8495  1.0663
 3712SOL    HW212036   4.211   0.187   5.533 -0.1206 -1.2849 -0.5538
 3713SOL     OW12037   4.487   4.893   6.480 -0.6462  0.1916 -0.4548
 3713SOL    HW112038   4.494   4.795   6.462 -0.4451  0.0083  0.5639
 3713SOL    HW212039   4.400   4.912   6.526 -0.2407  0.3373  0.2666
 3714SOL     OW12040   2.110   3.766   5.932  0.4590 -0.5944  0.4245
 3714SOL    HW112041   2.017   3.731   5.919 -0.3223  1.0297  1.3418
 3714SOL    HW212042   2.163   3.750   5.849 -0.9649 -0.6040 -0.5276
 3715SOL     OW12043   1.031   2.372   2.016  0.2191  0.6720  0.8655
 3715SOL    HW112044   1.023   2.470   2.034  0.3564  1.0288 -0.8370
 3715SOL    HW212045   1.128   2.346   2.015  0.4595  1.2957 -2.1080
 3716SOL     OW12046   2.184   2.398   5.350  0.0517 -0.2358  0.2443
 3716SOL    HW112047   2.256   2.339   5.387  0.7548  0.2642 -0.3108
 3716SOL    HW212048   2.150   2.358   5.264  0.4384  0.0981 -0.0650
 3717SOL     OW12049   6.015   3.393   1.772  0.0345  0.4608 -0.2680
 3717SOL    HW112050   5.937   3.376   1.833  0.3401  2.0949  0.6406
 3717SOL    HW212051   5.984   3.442   1.691  0.1085  1.1108  0.0936
 3718SOL     OW12052   1.890   1.184   3.398 -0.3480 -0.0603 -0.2677
 3718SOL    HW112053   1.974   1.158   3.444  0.7620  0.9728 -1.6092
 3718SOL    HW212054   1.829   1.232   3.462  1.1326  1.3337  0.1584
 3719SOL     OW12055   6.137   2.149   2.844 -0.6118 -0.0178 -0.3865
 3719SOL    HW112056   6.225   2.107   2.825 -0.3022  0.8974 -1.0648
 3719SOL    HW212057   6.095   2.180   2.759 -1.8581 -0.9370 -0.1317
 3720SOL     OW12058   4.935   0.801   3.349 -0.0967 -0.3489 -0.3037
 3720SOL    HW112059   4.866   0.838   3.287  0.3229 -0.3319 -0.7722
 3720SOL    HW212060   5.017   0.858   3.345 -0.2041 -0.1171  0.5751
 3721SOL     OW12061   2.366   1.394   1.959 -0.5065  0.3324  0.2314
 3721SOL    HW112062   2.282   1.341   1.958 -1.7433  2.1726 -1.5143
 3721SOL    HW212063   2.363   1.463   1.887  2.5083  0.5052  0.1314
 3722SOL     OW12064   4.947   1.236   1.635  0.6040  0.3187  0.2209
 3722SOL    HW112065   4.901   1.149   1.618  1.4830 -0.0521 -0.3036
 3722SOL    HW212066   4.925   1.300   1.562  0.7099  0.2292  0.1102
 3723SOL     OW12067   4.601   6.479   2.358  0.0624  0.2585  0.6511
 3723SOL    HW112068   4.639   6.404   2.304 -3.2357 -0.3109 -1.1035
 3723SOL    HW212069   4.610   6.458   2.455  1.4261 -1.2093  0.2410
 3724SOL     OW12070   1.301   4.642   3.023 -0.1853  0.4371 -0.7489
 3724SOL    HW112071   1.206   4.668   3.006 -0.0632  1.4837  0.0956
 3724SOL    HW212072   1.335   4.688   3.105  0.2256 -1.9984  0.5571
 3725SOL     OW12073   5.674   5.593   6.085 -0.0167  0.1749 -0.1651
 3725SOL    HW112074   5.612   5.557   6.016  1.6523  0.9113 -2.1568
 3725SOL    HW212075   5.628   5.666   6.136 -1.4851 -0.8041 -0.0213
 3726SOL     OW12076   5.475   6.787   5.155 -0.3902  0.0282  0.2960
 3726SOL    HW112077   5.566   6.768   5.120 -0.5644  0.7612 -0.5941
 3726SOL    HW212078   5.455   6.884   5.145 -2.3284 -0.5116 -2.2000
 3727SOL     OW12079   4.540   0.160   1.524 -0.3575  0.4034 -0.3480
 3727SOL    HW112080   4.452   0.128   1.559  0.7277 -1.1636  1.1411
 3727SOL    HW212081   4.570   0.240   1.578  0.1650 -0.4898  0.7307
 3728SOL     OW12082   3.731   2.531   6.013  0.9727 -0.0886  0.4490
 3728SOL    HW112083   3.818   2.498   6.049  1.0294 -0.4034  0.0410
 3728SOL    HW212084   3.671   2.558   6.088  1.7541  1.0117  0.7000
 3729SOL     OW12085   0.666   2.300   4.282 -0.3769  0.5709 -0.4101
 3729SOL    HW112086   0.738   2.238   4.314 -1.0297  0.0720  0.1224
 3729SOL    HW212087   0.669   2.384   4.336 -0.8467  0.1297  0.3137
 3730SOL     OW12088   4.159   6.021   3.303 -0.1911  0.1809 -0.3041
 3730SOL    HW112089   4.229   6.072   3.353  0.8503  0.4390 -1.9118
 3730SOL    HW212090   4.145   5.932   3.345  0.0411  0.6851  0.8866
 3731SOL     OW12091   4.520   1.846   0.823  0.0470  0.0733 -0.3101
 3731SOL    HW112092   4.508   1.760   0.773  0.9906 -0.5616  0.5109
 3731SOL    HW212093   4.601   1.893   0.788  0.4393 -0.1474  0.2895
 3732SOL     OW12094   6.516   6.284   6.341 -0.3606  0.0327  0.2923
 3732SOL    HW112095   6.456   6.353   6.302 -0.3671 -0.6983 -1.0470
 3732SOL    HW212096   6.609   6.321   6.348 -0.5924  0.5585  0.6992
 3733SOL     OW12097   1.203   0.856   4.472  0.0052  0.2639 -0.4885
 3733SOL    HW112098   1.151   0.877   4.388  0.8285 -0.6635 -1.2591
 3733SOL    HW212099   1.237   0.762   4.467  4.7063  1.7520 -1.6747
 3734SOL     OW12100   6.205   1.479   6.809  0.3737 -0.6216  0.1078
 3734SOL    HW112101   6.137   1.414   6.773  0.5033  0.6427 -2.6962
 3734SOL    HW212102   6.272   1.499   6.738  1.4275  1.1364  1.5321
 3735SOL     OW12103   1.685   4.744   4.238  0.6908  0.3630 -0.7126
 3735SOL    HW112104   1.612   4.805   4.270  1.8302  0.7148  1.3628
 3735SOL    HW212105   1.758   4.799   4.197  1.5099  0.4109  0.7440
 3736SOL     OW12106   2.293   1.934   3.494 -0.1258 -0.1961  0.3327
 3736SOL    HW112107   2.390   1.942   3.513 -0.1678  0.9028  0.0964
 3736SOL    HW212108   2.246   2.019   3.517 -1.2113 -1.0425  1.4342
 3737SOL     OW12109   4.286   4.367   0.505  0.0778 -0.5440 -0.0704
 3737SOL    HW112110   4.374   4.414   0.512  0.4750 -1.2440 -0.2350
 3737SOL    HW212111   4.231   4.410   0.434  1.0795 -1.3172 -1.3604
 3738SOL     OW12112   1.783   5.782   2.148 -0.0841 -0.0251 -0.5778
 3738SOL    HW112113   1.811   5.841   2.224 -2.3776  0.1103  0.2145
 3738SOL    HW212114   1.845   5.704   2.143  1.8278  1.3791 -0.4117
 3739SOL     OW12115   6.031   3.244   1.069  0.1868 -0.1717  0.2033
 3739SOL    HW112116   6.090   3.272   0.993 -0.3603 -1.3538 -0.6779
 3739SOL    HW212117   5.946   3.297   1.067  0.1700 -0.2088 -0.0130
 3740SOL     OW12118   1.818   0.374   5.430 -0.5101 -0.0210 -0.3846
 3740SOL    HW112119   1.755   0.352   5.503  0.0599 -1.8483 -0.3785
 3740SOL    HW212120   1.771   0.370   5.342 -0.7514  0.1935 -0.2635
 3741SOL     OW12121   4.536   2.651   5.157  0.4419  0.0846  1.0475
 3741SOL    HW112122   4.475   2.655   5.236 -0.0416  2.7319  0.6387
 3741SOL    HW212123   4.482   2.631   5.075  0.2938  1.1499  0.8711
 3742SOL     OW12124   5.405   4.533   2.601 -0.0190 -0.0641  0.2655
 3742SOL    HW112125   5.364   4.466   2.539 -1.2313  0.6928  0.2152
 3742SOL    HW212126   5.348   4.542   2.682 -0.2270  1.3376 -0.0070
 3743SOL     OW12127   5.875   1.608   6.876  0.4677 -0.4126 -0.6260
 3743SOL    HW112128   5.790   1.613   6.929  0.4464 -3.6451 -0.1366
 3743SOL    HW212129   5.900   1.512   6.863  2.7302  0.3831 -2.9597
 3744SOL     OW12130   6.187   1.538   0.569 -0.0386  0.2719  0.1775
 3744SOL    HW112131   6.097   1.576   0.592  0.2117 -0.5038  2.8356
 3744SOL    HW212132   6.205   1.458   0.627  2.0002 -0.1545 -0.9443
 3745SOL     OW12133   5.597   6.344   5.270  0.5176 -0.0924  0.0468
 3745SOL    HW112134   5.663   6.419   5.281  0.6063 -0.0801 -0.5446
 3745SOL    HW212135   5.624   6.287   5.193  0.0720 -0.3414  0.0714
 3746SOL     OW12136   5.699   6.760   1.045  0.3646 -0.1364  0.1700
 3746SOL    HW112137   5.792   6.762   1.008  0.5300 -0.9020  0.5448
 3746SOL    HW212138   5.702   6.747   1.144 -0.1663 -1.8728 -0.0065
 3747SOL     OW12139   0.532   4.618   0.574  0.1196 -0.1769 -0.4427
 3747SOL    HW112140   0.611   4.562   0.550  1.0935 -0.1569  2.3281
 3747SOL    HW212141   0.528   4.629   0.674 -3.7632 -0.7397 -0.3601
 3748SOL     OW12142   4.385   2.077   2.063  0.2281 -0.4694  0.5932
 3748SOL    HW112143   4.298   2.046   2.101 -0.3720 -0.1792 -0.4831
 3748SOL    HW212144   4.376   2.172   2.032  0.3819 -0.9664 -1.0911
 3749SOL     OW12145   5.864   4.105   6.214 -0.8743  0.2028 -0.2563
 3749SOL    HW112146   5.936   4.143   6.156 -1.1634 -0.0045 -0.7603
 3749SOL    HW212147   5.839   4.014   6.180  0.3945 -0.8322  1.4067
 3750SOL     OW12148   2.324   0.322   6.146  0.0219  0.4313  0.1524
 3750SOL    HW112149   2.418   0.295   6.122  0.4435  0.2705  1.8407
 3750SOL    HW212150   2.326   0.378   6.229 -1.3852  0.4267  0.2065
 3751SOL     OW12151   0.062   2.915   1.161  0.8561 -0.4785 -0.0211
 3751SOL    HW112152  -0.007   2.920   1.089 -1.0220  0.1098  1.7392
 3751SOL    HW212153   0.089   2.820   1.176 -1.2445 -1.0078  0.7293
 3752SOL     OW12154   2.350   6.152   0.459  0.4762  1.0364  0.6490
 3752SOL    HW112155   2.429   6.148   0.520  0.7981  1.8828  0.2953
 3752SOL    HW212156   2.380   6.175   0.367 -0.2317  1.8798  0.6190
 3753SOL     OW12157   5.518   3.984   2.929 -0.3143 -0.0883 -0.0621
 3753SOL    HW112158   5.614   3.999   2.906 -0.6920  0.0724 -1.6667
 3753SOL    HW212159   5.473   4.072   2.944 -0.5542 -0.0792 -0.8264
 3754SOL     OW12160   2.817   1.546   0.325 -0.0043 -0.0081  0.5706
 3754SOL    HW112161   2.753   1.503   0.261  0.0504  0.8163 -0.0453
 3754SOL    HW212162   2.774   1.553   0.415 -0.1902 -0.8993  0.5562
 3755SOL     OW12163   3.766   6.172   6.260  0.5213  0.4141 -0.3062
 3755SOL    HW112164   3.761   6.094   6.323  0.6288  0.8354  0.2357
 3755SOL    HW212165   3.784   6.139   6.167 -0.5451 -0.2837 -0.2823
 3756SOL     OW12166   3.923   3.028   3.090  0.3065 -0.2477  0.1509
 3756SOL    HW112167   3.947   3.118   3.054 -0.9669  0.6439  1.4338
 3756SOL    HW212168   3.911   2.964   3.014  2.4727  0.2802 -0.7294
 3757SOL     OW12169   6.263   4.323   6.890 -0.4456  0.4337 -0.4420
 3757SOL    HW112170   6.266   4.331   6.790 -0.8553  0.6463 -0.4395
 3757SOL    HW212171   6.351   4.351   6.929  0.5401 -1.8526 -0.8843
 3758SOL     OW12172   3.202   5.753   6.167  0.4964  0.0410  0.3409
 3758SOL    HW112173   3.218   5.804   6.251  1.7000  1.0551 -0.4576
 3758SOL    HW212174   3.153   5.811   6.101  2.1232  0.3341 -0.6764
 3759SOL     OW12175   2.427   6.144   0.149 -0.0096  0.1681 -0.2283
 3759SOL    HW112176   2.361   6.212   0.116 -0.3550 -0.7080 -1.4423
 3759SOL    HW212177   2.423   6.063   0.090 -0.1069 -1.2010  1.5613
 3760SOL     OW12178   2.125   2.403   6.850  0.4476  0.6392  0.2008
 3760SOL    HW112179   2.212   2.353   6.846  0.2519  0.3412 -0.4367
 3760SOL    HW212180   2.090   2.402   6.944  0.3632 -0.5689  0.1701
 3761SOL     OW12181   3.453   5.061   6.773 -0.4330  0.1864  0.3624
 3761SOL    HW112182   3.417   5.098   6.688  0.7636 -0.3270 -0.3954
 3761SOL    HW212183   3.522   4.992   6.753  1.5101  1.6078  1.6874
 3762SOL     OW12184   2.502   6.756   6.055 -0.1352  0.3945 -0.0904
 3762SOL    HW112185   2.470   6.753   6.150  1.3966  0.1508  0.4385
 3762SOL    HW212186   2.600   6.738   6.052 -0.3561 -0.7634 -1.8302
 3763SOL     OW12187   5.771   2.522   6.796  0.2626 -0.3942  0.2662
 3763SOL    HW112188   5.761   2.428   6.764  2.8548 -0.3514 -0.9266
 3763SOL    HW212189   5.838   2.526   6.870  0.4491  0.5624  0.0646
 3764SOL     OW12190   2.953   6.930   2.349  0.0066  0.1010 -0.1997
 3764SOL    HW112191   2.983   6.903   2.440 -1.0583 -1.3723 -0.2512
 3764SOL    HW212192   2.923   7.025   2.350  0.2663  0.1779  0.9139
 3765SOL     OW12193   5.827   2.288   6.364  0.2630 -0.1895  0.2146
 3765SOL    HW112194   5.793   2.195   6.366 -1.0519  0.2568 -0.5267
 3765SOL    HW212195   5.892   2.301   6.439  1.7997 -2.1622 -0.6855
 3766SOL     OW12196   2.900   2.246   3.918  0.0937 -0.2727 -0.4008
 3766SOL    HW112197   2.876   2.343   3.922  0.6431 -0.1769  1.7403
 3766SOL    HW212198   2.845   2.196   3.985  0.2741 -1.3515 -1.0404
 3767SOL     OW12199   5.818   5.884   0.525 -0.0316  0.7418 -0.5602
 3767SOL    HW112200   5.779   5.793   0.513 -0.2029  0.3048  2.4972
 3767SOL    HW212201   5.890   5.898   0.458 -1.0720 -0.9696 -2.1554
 3768SOL     OW12202   6.382   1.182   2.730 -0.1463 -0.1914 -0.2702
 3768SOL    HW112203   6.434   1.183   2.645  1.7617 -1.0418  0.8247
 3768SOL    HW212204   6.383   1.089   2.768  1.2730  0.6673  1.9686
 3769SOL     OW12205   3.321   6.193   3.310  0.5358  0.1029 -0.1752
 3769SOL    HW112206   3.310   6.238   3.222 -0.7347 -1.3550 -0.7847
 3769SOL    HW212207   3.244   6.132   3.327  0.9996 -0.0146  1.7354
 3770SOL     OW12208   1.361   1.274   4.964 -0.8300 -0.2454 -0.2040
 3770SOL    HW112209   1.428   1.284   4.890  2.7708 -1.1859  2.6221
 3770SOL    HW212210   1.333   1.365   4.996  0.1246  0.2142 -0.6319
 3771SOL     OW12211   4.673   0.313   0.799  0.7179  0.5641 -0.4334
 3771SOL    HW112212   4.644   0.221   0.828 -0.0810  0.3265 -1.8676
 3771SOL    HW212213   4.763   0.308   0.757  0.8536  0.5102 -0.1381
 3772SOL     OW12214   6.331   4.496   3.596 -0.3750 -0.1938  0.7307
 3772SOL    HW112215   6.365   4.402   3.594  1.1500  0.3466 -0.4850
 3772SOL    HW212216   6.318   4.525   3.691  0.6829 -1.0967  1.1695
 3773SOL     OW12217   5.209   3.265   6.209  0.4305  0.2708 -0.2620
 3773SOL    HW112218   5.270   3.236   6.283 -0.0346  0.1046  0.0560
 3773SOL    HW212219   5.155   3.344   6.239  0.4301  0.3713 -0.5194
 3774SOL     OW12220   1.921   1.999   2.793  0.1141 -0.1770 -0.0742
 3774SOL    HW112221   1.857   1.924   2.805  0.0205 -0.2685 -1.0822
 3774SOL    HW212222   1.874   2.086   2.810 -0.3471 -0.2313 -1.0044
 3775SOL     OW12223   3.950   6.710   4.366 -0.1021  0.3353 -0.1215
 3775SOL    HW112224   3.931   6.656   4.284 -1.2351 -0.0637  0.3902
 3775SOL    HW212225   4.038   6.684   4.404  0.6504  0.8429 -1.4546
 3776SOL     OW12226   4.078   1.333   2.991 -0.3194 -0.7043  0.2969
 3776SOL    HW112227   4.153   1.357   3.053  0.5043 -0.9094 -0.6067
 3776SOL    HW212228   4.065   1.406   2.924  2.0621 -2.4863 -2.3373
 3777SOL     OW12229   5.538   3.154   1.349 -0.0095  0.3218 -0.3560
 3777SOL    HW112230   5.458   3.115   1.396  0.5440 -0.6909 -0.2221
 3777SOL    HW212231   5.544   3.115   1.257  1.2048 -0.8182  0.1834
 3778SOL     OW12232   0.571   4.652   2.606 -0.0111 -0.6952 -0.3469
 3778SOL    HW112233   0.556   4.555   2.589 -0.2115 -1.0763  1.6952
 3778SOL    HW212234   0.570   4.669   2.705 -1.3788  1.6035 -0.6666
 3779SOL     OW12235   4.373   5.556   1.472  1.0393  0.5158  0.2703
 3779SOL    HW112236   4.443   5.532   1.539 -1.4725  0.6009  3.1691
 3779SOL    HW212237   4.305   5.483   1.467 -0.1080  1.5736 -0.3301
 3780SOL     OW12238   6.130   2.590   1.553  0.4785  0.1734 -0.1278
 3780SOL    HW112239   6.206   2.567   1.614  0.9455  1.8906 -0.0141
 3780SOL    HW212240   6.070   2.657   1.597 -2.0253 -2.2609  0.4048
 3781SOL     OW12241   2.752   0.405   6.116  0.2644  0.2753 -0.2485
 3781SOL    HW112242   2.785   0.457   6.195  1.9111  1.1784 -1.4842
 3781SOL    HW212243   2.754   0.462   6.035  1.1632 -1.4116 -1.4721
 3782SOL     OW12244   0.929   1.603   5.008 -0.1137  0.9782 -0.4799
 3782SOL    HW112245   0.979   1.518   5.025 -0.2551  0.6985 -1.4154
 3782SOL    HW212246   0.831   1.588   5.025  0.0010  1.2899  0.5132
 3783SOL     OW12247   4.403   3.111   1.704 -0.5834 -0.0142 -0.5206
 3783SOL    HW112248   4.320   3.132   1.755 -0.7769  0.6252 -1.0748
 3783SOL    HW212249   4.474   3.078   1.767 -1.8597 -2.4956 -0.3150
 3784SOL     OW12250   1.357   1.013   3.531 -0.1632 -0.1851  0.6455
 3784SOL    HW112251   1.444   1.019   3.579  0.8161 -0.2146 -1.0426
 3784SOL    HW212252   1.366   0.950   3.453 -1.0261  1.4435 -0.8547
 3785SOL     OW12253   3.010   6.676   4.748 -0.5557  0.0016 -0.0990
 3785SOL    HW112254   2.954   6.686   4.830  0.3019 -1.1050  0.6363
 3785SOL    HW212255   3.033   6.580   4.734 -1.3826  0.0278 -2.1203
 3786SOL     OW12256   0.822   2.197   3.395 -0.2404  0.2028  0.6302
 3786SOL    HW112257   0.797   2.192   3.492 -2.1452  0.9464  0.2073
 3786SOL    HW212258   0.742   2.221   3.341  0.7368 -0.4669 -1.1842
 3787SOL     OW12259   3.236   5.502   0.208  0.4870  0.2479  0.2373
 3787SOL    HW112260   3.231   5.576   0.141  0.0803  0.1025  0.1007
 3787SOL    HW212261   3.150   5.452   0.207  0.9846 -0.6255 -0.1301
 3788SOL     OW12262   6.051   6.948   4.523 -0.3625  0.3206  0.3605
 3788SOL    HW112263   6.118   6.945   4.597  0.9474 -0.6075 -0.8127
 3788SOL    HW212264   6.037   7.043   4.494 -0.4826  0.6383  1.4103
 3789SOL     OW12265   3.702   3.892   0.023  0.5139  0.5277  0.0988
 3789SOL    HW112266   3.791   3.875   0.065  1.2458  0.0877 -1.5280
 3789SOL    HW212267   3.638   3.821   0.051  0.3494  1.3958  2.0736
 3790SOL     OW12268   0.906   2.484   4.908 -0.1331 -0.4401  0.0485
 3790SOL    HW112269   0.980   2.423   4.935  1.6708  1.1961 -0.9532
 3790SOL    HW212270   0.829   2.430   4.874  0.2939 -2.2171  1.7521
 3791SOL     OW12271   4.814   4.969   1.920  0.1580  0.3035 -0.1721
 3791SOL    HW112272   4.807   4.979   2.020  2.1889  0.8667 -0.0607
 3791SOL    HW212273   4.907   4.945   1.895 -0.2057  0.6669 -2.0065
 3792SOL     OW12274   5.930   0.599   6.761 -0.4060  0.0912  0.4552
 3792SOL    HW112275   6.016   0.595   6.711  0.0463  0.5755  1.1771
 3792SOL    HW212276   5.900   0.507   6.783  0.5174 -0.0443  1.1807
 3793SOL     OW12277   1.679   5.901   3.346 -0.0187 -0.6886  0.3864
 3793SOL    HW112278   1.626   5.834   3.399  0.8956 -1.6439  0.1248
 3793SOL    HW212279   1.763   5.858   3.313  0.1986  0.3670 -0.4779
 3794SOL     OW12280   6.636   5.501   2.312  0.0327 -0.5721  0.1401
 3794SOL    HW112281   6.579   5.467   2.387  1.1845  0.2078  1.4259
 3794SOL    HW212282   6.697   5.428   2.281 -0.8427 -1.0699 -0.4709
 3795SOL     OW12283   0.368   4.414   5.078  0.1895  0.2702 -0.1358
 3795SOL    HW112284   0.325   4.473   5.147  1.1872  0.0915  0.6752
 3795SOL    HW212285   0.434   4.467   5.025 -0.8045  0.4806 -1.1887
 3796SOL     OW12286   1.696   1.880   3.866  0.1153 -0.8254 -0.3728
 3796SOL    HW112287   1.683   1.887   3.965 -2.2146 -0.2357 -0.6563
 3796SOL    HW212288   1.652   1.796   3.833  0.4609 -0.7715 -0.9881
 3797SOL     OW12289   4.586   4.339   1.621  0.0240  0.3973  0.2435
 3797SOL    HW112290   4.685   4.340   1.632  0.0884  1.8939 -0.2287
 3797SOL    HW212291   4.542   4.354   1.709  0.1621 -1.3468  0.6454
 3798SOL     OW12292   5.298   0.602   6.431  1.2446 -0.3156  0.2924
 3798SOL    HW112293   5.221   0.546   6.461  1.4330 -0.5604  0.3220
 3798SOL    HW212294   5.383   0.550   6.440  1.4486  0.0599  0.5461
 3799SOL     OW12295   0.697   0.074   0.544  0.6362  0.2266  0.1229
 3799SOL    HW112296   0.645   0.152   0.509  2.5309  0.6040 -2.1278
 3799SOL    HW212297   0.712   0.008   0.470  2.2799 -0.4309  0.9853
 3800SOL     OW12298   5.808   2.877   4.456 -0.0681  0.0961  0.4330
 3800SOL    HW112299   5.832   2.939   4.381 -0.2245  0.1646  0.4389
 3800SOL    HW212300   5.851   2.788   4.441  0.5341  0.3371  0.6538
 3801SOL     OW12301   1.119   0.660   6.080  0.3726 -0.8190 -0.0999
 3801SOL    HW112302   1.158   0.577   6.122  0.2410 -0.8023  0.0555
 3801SOL    HW212303   1.193   0.714   6.040  0.9256  0.6490  2.6382
 3802SOL     OW12304   0.426   3.177   4.669  0.6369 -0.1124  0.2793
 3802SOL    HW112305   0.469   3.141   4.752  0.3295 -0.6852  0.1910
 3802SOL    HW212306   0.479   3.256   4.636  1.8184 -1.0098 -0.0272
 3803SOL     OW12307   2.488   2.365   0.435 -0.1680 -0.0405  0.3780
 3803SOL    HW112308   2.449   2.392   0.347 -1.8676  0.7254  1.3095
 3803SOL    HW212309   2.455   2.428   0.506  0.5898 -1.0681  1.6765
 3804SOL     OW12310   6.391   4.562   3.317 -0.0591 -0.3959 -0.0204
 3804SOL    HW112311   6.355   4.529   3.404  0.1287 -0.4453  0.0384
 3804SOL    HW212312   6.341   4.644   3.289  1.1159  0.7353  1.0610
 3805SOL     OW12313   2.075   2.702   3.241  0.2732  0.6236 -0.2724
 3805SOL    HW112314   2.091   2.733   3.335  0.8467 -2.2344  0.6725
 3805SOL    HW212315   1.990   2.650   3.237  1.3957 -1.2630 -0.7584
 3806SOL     OW12316   6.880   0.893   6.897 -0.2920 -0.0250  0.1337
 3806SOL    HW112317   6.958   0.955   6.906  0.1484 -0.4663 -0.5283
 3806SOL    HW212318   6.807   0.922   6.958  0.6870 -0.0706  1.3524
 3807SOL     OW12319   5.961   1.654   0.624 -0.5035 -0.1174  0.2334
 3807SOL    HW112320   5.939   1.697   0.537 -0.4343  0.0815  0.3140
 3807SOL    HW212321   5.992   1.723   0.689 -0.8116 -0.2241  0.5011
 3808SOL     OW12322   4.153   0.799   2.542 -0.4722  0.1137 -0.5021
 3808SOL    HW112323   4.215   0.877   2.536 -0.2712 -0.0298 -0.3328
 3808SOL    HW212324   4.058   0.831   2.540 -0.3986  0.4926  1.0153
 3809SOL     OW12325   6.233   0.570   0.306 -0.3948 -0.4955  0.0544
 3809SOL    HW112326   6.263   0.658   0.269  0.1246 -0.2365  1.0335
 3809SOL    HW212327   6.134   0.565   0.304 -0.4929  0.5677  0.9287
 3810SOL     OW12328   3.853   4.035   2.929 -0.4478 -0.0046 -0.0772
 3810SOL    HW112329   3.806   4.109   2.977  1.8324  0.1093  2.2194
 3810SOL    HW212330   3.862   3.957   2.991 -1.2532 -1.5757 -1.8714
 3811SOL     OW12331   3.391   4.573   0.108 -0.3123  0.4692 -0.2045
 3811SOL    HW112332   3.352   4.487   0.077 -1.3181  1.2644 -1.2420
 3811SOL    HW212333   3.334   4.612   0.180  0.0111  0.3876  0.0994
 3812SOL     OW12334   3.690   5.748   5.187 -0.3129 -0.6556  0.1230
 3812SOL    HW112335   3.642   5.836   5.187 -0.8020 -0.8893  1.7585
 3812SOL    HW212336   3.757   5.747   5.261 -0.4795 -1.7410  0.2699
 3813SOL     OW12337   5.407   7.003   6.147 -0.1226  0.3221  0.8144
 3813SOL    HW112338   5.456   6.926   6.107 -0.5618  1.3150 -1.8331
 3813SOL    HW212339   5.449   7.088   6.118 -0.7322  1.1361  2.2215
 3814SOL     OW12340   4.789   5.500   0.662 -0.1541  0.2041 -0.0015
 3814SOL    HW112341   4.714   5.478   0.724 -1.2540  2.0530 -0.6193
 3814SOL    HW212342   4.752   5.518   0.570  1.4582 -3.0071 -1.4655
 3815SOL     OW12343   5.512   5.018   4.746  0.5579 -0.2183  0.2185
 3815SOL    HW112344   5.571   4.955   4.697 -0.1690 -1.0493  0.3927
 3815SOL    HW212345   5.557   5.107   4.753  1.1242 -0.3874 -1.0087
 3816SOL     OW12346   4.019   2.937   0.301  0.1790 -0.2521 -0.0253
 3816SOL    HW112347   3.936   2.981   0.266 -0.7920  0.0742  2.5308
 3816SOL    HW212348   4.082   3.007   0.334  1.1547 -0.5474 -1.1817
 3817SOL     OW12349   1.275   5.206   3.222  0.8135 -0.1679  0.1673
 3817SOL    HW112350   1.269   5.304   3.202 -1.8760 -0.2983 -0.0756
 3817SOL    HW212351   1.352   5.167   3.173  0.8569  1.5050 -1.1998
 3818SOL     OW12352   3.621   1.476   2.122 -0.1659 -0.2843  0.3378
 3818SOL    HW112353   3.625   1.376   2.119 -2.2314 -0.4205  0.6435
 3818SOL    HW212354   3.545   1.508   2.066  1.9455  1.3275 -1.7890
 3819SOL     OW12355   0.736   0.034   4.341 -0.3361  0.5882  0.6989
 3819SOL    HW112356   0.643   0.007   4.317  0.3483 -1.1582 -0.1493
 3819SOL    HW212357   0.774  -0.031   4.406  0.4965  0.9414  0.5778
 3820SOL     OW12358   1.014   1.597   0.580  0.3530  0.0513  0.1791
 3820SOL    HW112359   1.077   1.667   0.547  0.0619  1.0824  1.7509
 3820SOL    HW212360   0.932   1.640   0.618  0.3639 -1.0951  1.5797
 3821SOL     OW12361   5.841   6.686   6.842  0.6079  0.3827 -0.5484
 3821SOL    HW112362   5.742   6.694   6.825  0.5917  0.3580 -0.4665
 3821SOL    HW212363   5.890   6.754   6.787  0.4970  0.8188 -0.1204
 3822SOL     OW12364   2.021   5.341   0.726  0.1351 -0.2671 -0.1112
 3822SOL    HW112365   2.088   5.344   0.801 -0.4368  1.0530  0.3847
 3822SOL    HW212366   2.052   5.277   0.656  0.0809 -2.5111  1.7956
 3823SOL     OW12367   2.829   6.525   4.558  0.6160 -0.0858 -0.2508
 3823SOL    HW112368   2.730   6.510   4.563  0.6301 -1.2410 -2.3872
 3823SOL    HW212369   2.860   6.571   4.642 -1.9192  1.5546 -0.0995
 3824SOL     OW12370   5.172   1.273   6.668  0.5263  0.7329 -0.2254
 3824SOL    HW112371   5.270   1.277   6.688  0.6703  0.9927 -0.9442
 3824SOL    HW212372   5.142   1.362   6.633  0.2417  0.3738 -0.9063
 3825SOL     OW12373   0.487   6.867   2.484 -0.4135 -0.1608  0.2988
 3825SOL    HW112374   0.552   6.943   2.477 -0.9505  0.3810  0.9496
 3825SOL    HW212375   0.402   6.891   2.436 -0.3323 -0.6501 -0.1014
 3826SOL     OW12376   2.380   4.572   0.093  0.2687 -0.2530 -0.0230
 3826SOL    HW112377   2.345   4.666   0.093  1.8562  0.3814 -0.4528
 3826SOL    HW212378   2.318   4.513   0.042  0.0529  0.9203 -1.1841
 3827SOL     OW12379   1.634   3.081   6.547 -0.3207 -0.4371 -0.1657
 3827SOL    HW112380   1.722   3.091   6.595 -0.7836 -0.6108  0.7437
 3827SOL    HW212381   1.651   3.064   6.450  0.6914 -2.1940  0.2823
 3828SOL     OW12382   1.530   5.773   2.063  0.9087  0.1977  0.5682
 3828SOL    HW112383   1.629   5.759   2.067  0.6779 -2.4190 -0.9071
 3828SOL    HW212384   1.483   5.696   2.107 -0.4840  0.2961 -0.6531
 3829SOL     OW12385   1.991   5.321   1.030 -0.2134 -0.1955  0.2130
 3829SOL    HW112386   2.087   5.337   1.008  0.0040 -0.0945  1.1940
 3829SOL    HW212387   1.973   5.223   1.030 -0.2929 -0.1823 -0.7079
 3830SOL     OW12388   0.357   1.647   4.939  0.6910 -0.7734  0.4077
 3830SOL    HW112389   0.351   1.597   5.025 -0.6527 -2.2342 -0.4916
 3830SOL    HW212390   0.274   1.700   4.925  0.5390 -1.2157 -0.3897
 3831SOL     OW12391   4.420   6.655   2.437 -0.1412 -0.3033  0.9194
 3831SOL    HW112392   4.454   6.706   2.516  1.0356  0.1804  0.1241
 3831SOL    HW212393   4.489   6.589   2.407  0.5617  1.3053 -1.2590
 3832SOL     OW12394   6.040   5.595   1.782 -0.2106  1.0940 -0.1150
 3832SOL    HW112395   5.964   5.594   1.848  1.0618  1.1409  1.4113
 3832SOL    HW212396   6.012   5.644   1.700 -0.9433  3.6812  1.5670
 3833SOL     OW12397   4.575   4.717   5.480  0.6103  0.1553  0.3222
 3833SOL    HW112398   4.540   4.663   5.403  0.0360  0.2004  0.5424
 3833SOL    HW212399   4.506   4.783   5.508  1.3140  1.0195  0.0528
 3834SOL     OW12400   0.760   3.250   2.898 -0.3826  0.0245 -0.7725
 3834SOL    HW112401   0.857   3.252   2.875 -0.1236 -0.1224  0.2423
 3834SOL    HW212402   0.719   3.166   2.862  0.2610 -0.7407  0.2205
 3835SOL     OW12403   0.021   5.997   5.754  0.5586 -0.4881 -0.0534
 3835SOL    HW112404   0.046   6.008   5.850  0.4876 -1.6563  0.1071
 3835SOL    HW212405   0.047   5.905   5.723 -0.7718 -0.6486 -0.7335
 3836SOL     OW12406   1.552   0.942   6.675  0.2756 -0.2948  0.6254
 3836SOL    HW112407   1.587   0.870   6.616 -1.0022  0.6989 -1.4289
 3836SOL    HW212408   1.453   0.937   6.681  0.1876  1.0716  0.7464
 3837SOL     OW12409   1.280   3.838   2.129 -0.8063  0.1990 -0.4757
 3837SOL    HW112410   1.288   3.936   2.113 -1.0521  0.1329 -1.0173
 3837SOL    HW212411   1.183   3.813   2.137 -0.7240  0.0768  0.1463
 3838SOL     OW12412   6.583   1.743   2.336  0.5554  0.5002 -0.6583
 3838SOL    HW112413   6.581   1.710   2.241 -0.0550  0.1201 -0.5130
 3838SOL    HW212414   6.678   1.753   2.365  0.7451 -0.2630 -1.0037
 3839SOL     OW12415   5.425   0.714   0.183  0.5745  0.3147  0.1591
 3839SOL    HW112416   5.477   0.679   0.105 -0.0493 -0.2708  0.0049
 3839SOL    HW212417   5.479   0.701   0.267  0.8537  0.1094 -0.0506
 3840SOL     OW12418   0.401   4.347   6.852  0.4429 -0.2889 -0.1226
 3840SOL    HW112419   0.410   4.367   6.754  2.2203 -0.5124 -0.0402
 3840SOL    HW212420   0.384   4.431   6.902  1.9985  0.2156 -0.3920
 3841SOL     OW12421   0.407   1.597   0.435 -0.7585  0.1268 -0.3366
 3841SOL    HW112422   0.477   1.531   0.464 -2.0391 -1.1582 -0.0455
 3841SOL    HW212423   0.319   1.550   0.425 -1.2290  1.3428 -2.4218
 3842SOL     OW12424   3.236   4.975   1.742  0.0071 -0.7290 -0.3317
 3842SOL    HW112425   3.246   4.876   1.755 -2.3624 -0.9102  0.6603
 3842SOL    HW212426   3.304   5.023   1.798 -0.4336 -1.7860  1.1809
 3843SOL     OW12427   3.676   5.840   3.535  0.5697  0.2277  0.1012
 3843SOL    HW112428   3.578   5.827   3.550  0.2803  0.7560 -1.1940
 3843SOL    HW212429   3.721   5.751   3.532 -0.1034 -0.1037 -0.7330
 3844SOL     OW12430   0.954   6.116   5.117 -0.0632 -0.5761 -0.6199
 3844SOL    HW112431   0.926   6.199   5.067  1.8735  0.0146 -0.8035
 3844SOL    HW212432   0.873   6.062   5.139 -1.4016  1.3598 -0.4957
 3845SOL     OW12433   5.230   6.470   4.306 -0.1972 -0.1331  0.4303
 3845SOL    HW112434   5.276   6.504   4.388  0.7861  1.4207 -0.7286
 3845SOL    HW212435   5.150   6.415   4.333  1.8462 -2.3225  2.4928
 3846SOL     OW12436   3.486   1.380   1.005  0.6405  0.1083 -0.4438
 3846SOL    HW112437   3.571   1.424   0.975  0.5259  0.4747 -0.2295
 3846SOL    HW212438   3.491   1.362   1.103 -0.0921  1.4188 -0.1498
 3847SOL     OW12439   1.735   3.450   3.040 -0.6207 -0.0848 -0.7273
 3847SOL    HW112440   1.822   3.474   2.998 -0.3242  0.8542  0.3773
 3847SOL    HW212441   1.671   3.526   3.032 -1.6968 -1.0879 -2.3348
 3848SOL     OW12442   6.939   4.856   0.618 -0.3221  0.2712 -0.3096
 3848SOL    HW112443   7.033   4.889   0.623 -0.4006  0.2949  2.1612
 3848SOL    HW212444   6.939   4.756   0.606  0.0547  0.1535  0.5856
 3849SOL     OW12445   5.520   6.940   0.796  0.6814  0.8580 -0.2583
 3849SOL    HW112446   5.618   6.933   0.779  0.8816 -0.4598  1.1397
 3849SOL    HW212447   5.471   6.871   0.742  0.6425  0.8163 -0.1700
 3850SOL     OW12448   6.826   3.391   5.649 -0.5681  0.2233 -0.0156
 3850SOL    HW112449   6.867   3.474   5.687 -1.5176  0.9331 -0.5091
 3850SOL    HW212450   6.860   3.312   5.700  1.5646  0.7412 -0.5395
 3851SOL     OW12451   1.171   2.062   0.476  0.5207  0.3307  0.2491
 3851SOL    HW112452   1.199   1.987   0.536  2.3242 -0.4140 -1.4494
 3851SOL    HW212453   1.251   2.114   0.447 -0.3508  0.9324 -1.1727
 3852SOL     OW12454   6.555   1.209   6.236 -0.1710  0.3638  0.1747
 3852SOL    HW112455   6.514   1.181   6.322 -1.1424 -0.5606 -0.5621
 3852SOL    HW212456   6.549   1.309   6.227 -1.6304  0.3203  0.4122
 3853SOL     OW12457   6.988   5.812   4.626 -0.4464 -0.0548  0.6119
 3853SOL    HW112458   6.907   5.870   4.619 -1.6264 -1.6363  0.6220
 3853SOL    HW212459   6.982   5.739   4.557  0.2138 -1.0704  1.5951
 3854SOL     OW12460   5.742   3.096   0.815 -0.2562  0.2927 -0.4040
 3854SOL    HW112461   5.746   3.194   0.795 -0.6459  0.1922 -0.9978
 3854SOL    HW212462   5.834   3.063   0.836  0.0257  0.5981 -1.1186
 3855SOL     OW12463   1.368   3.429   6.710 -0.2265  0.0845 -0.3751
 3855SOL    HW112464   1.342   3.486   6.788  2.5394 -1.0843  1.5223
 3855SOL    HW212465   1.440   3.474   6.658 -1.2310  0.3064 -1.6480
 3856SOL     OW12466   1.183   1.828   6.091 -0.2673  0.1231  0.2981
 3856SOL    HW112467   1.140   1.881   6.164 -1.1214 -1.0805  0.6886
 3856SOL    HW212468   1.208   1.889   6.016 -0.4972  1.1912  1.0655
 3857SOL     OW12469   6.307   1.017   3.705 -0.6695  0.3009  0.3026
 3857SOL    HW112470   6.374   0.985   3.638  0.5187  0.3893  1.3980
 3857SOL    HW212471   6.247   1.084   3.663 -1.2464 -1.0797 -1.1996
 3858SOL     OW12472   3.629   5.305   6.833  0.0510  0.5748  0.1634
 3858SOL    HW112473   3.583   5.221   6.805  0.8722  0.1739 -0.0081
 3858SOL    HW212474   3.694   5.285   6.906  0.2509  1.0629  0.1237
 3859SOL     OW12475   4.163   4.820   6.812  0.2920  0.1868 -0.0186
 3859SOL    HW112476   4.092   4.762   6.771  0.6029  0.5078 -1.0643
 3859SOL    HW212477   4.202   4.879   6.741  1.2377  0.3899  0.6510
 3860SOL     OW12478   2.756   5.072   0.408 -0.9058 -0.0149 -0.3624
 3860SOL    HW112479   2.783   5.023   0.491 -0.9289 -0.5478 -0.6669
 3860SOL    HW212480   2.834   5.124   0.374 -0.7244 -0.2747 -0.3441
 3861SOL     OW12481   3.561   4.159   2.285 -0.1974  0.2709 -0.0485
 3861SOL    HW112482   3.607   4.133   2.200  2.6861 -1.0342  1.7576
 3861SOL    HW212483   3.556   4.258   2.292 -1.0449  0.4048 -1.9679
 3862SOL     OW12484   0.643   6.057   2.976  0.2658 -0.7049 -0.0860
 3862SOL    HW112485   0.658   6.092   3.068  2.0582  2.1514 -1.3308
 3862SOL    HW212486   0.730   6.025   2.937 -0.1609 -0.4219 -1.3275
 3863SOL     OW12487   4.582   1.150   6.347  0.0935 -0.2890 -0.1852
 3863SOL    HW112488   4.667   1.128   6.395  1.1515  0.5890 -1.5947
 3863SOL    HW212489   4.508   1.091   6.381  0.8807 -0.0209  2.1555
 3864SOL     OW12490   6.859   2.488   5.309 -1.0311 -0.6398  0.4598
 3864SOL    HW112491   6.774   2.530   5.278 -0.2736  0.0991 -0.7330
 3864SOL    HW212492   6.922   2.560   5.339 -0.4866 -1.0932  0.4223
 3865SOL     OW12493   1.525   6.413   4.803 -0.4925 -0.1210 -0.4840
 3865SOL    HW112494   1.543   6.315   4.813 -0.0345 -0.0396 -0.4876
 3865SOL    HW212495   1.437   6.426   4.759 -1.1661 -0.5191  0.6891
 3866SOL     OW12496   4.934   3.514   2.333 -0.0387 -0.0447 -0.4977
 3866SOL    HW112497   4.923   3.509   2.234 -1.7863 -0.6039 -0.3022
 3866SOL    HW212498   4.852   3.553   2.374  0.6274  0.1091  0.7517
 3867SOL     OW12499   5.457   4.567   5.770  0.8791  0.7224  0.5555
 3867SOL    HW112500   5.501   4.574   5.859  1.1174 -2.7019  0.8334
 3867SOL    HW212501   5.358   4.581   5.780  0.8170 -0.3046  1.5064
 3868SOL     OW12502   0.344   2.830   2.017 -0.3899 -0.6019 -0.2936
 3868SOL    HW112503   0.296   2.852   2.102  0.4174  0.6074 -0.1303
 3868SOL    HW212504   0.277   2.815   1.944 -1.0547  0.3990  0.0855
 3869SOL     OW12505   5.184   3.604   4.217  0.1587 -0.6834 -0.0079
 3869SOL    HW112506   5.221   3.696   4.232 -3.1984  0.8360  0.0233
 3869SOL    HW212507   5.177   3.556   4.304 -0.3218  0.0415  0.3645
 3870SOL     OW12508   3.102   6.700   5.785  0.2993  0.0125 -0.2706
 3870SOL    HW112509   3.190   6.653   5.779 -0.4629 -1.3866 -0.8654
 3870SOL    HW212510   3.050   6.685   5.701 -0.7232  0.3987  0.2687
 3871SOL     OW12511   6.127   2.380   5.665 -0.2368  0.4754 -0.1913
 3871SOL    HW112512   6.048   2.394   5.605 -0.3484  0.0928 -0.1380
 3871SOL    HW212513   6.211   2.408   5.618 -0.1814 -0.9261 -0.9821
 3872SOL     OW12514   5.128   3.276   1.803 -0.2554  0.2604 -0.1616
 3872SOL    HW112515   5.154   3.356   1.857  1.6146 -0.5089  0.1483
 3872SOL    HW212516   5.028   3.275   1.791 -0.4223  2.0305  0.7395
 3873SOL     OW12517   5.181   5.814   3.752 -0.5082  0.0357  0.2285
 3873SOL    HW112518   5.112   5.800   3.822  1.1054 -0.3290  1.8299
 3873SOL    HW212519   5.197   5.912   3.740  0.6603  0.0953  1.9385
 3874SOL     OW12520   0.355   3.320   0.092  0.9513 -0.2980 -0.3118
 3874SOL    HW112521   0.388   3.350   0.182  0.5122 -2.0934  0.4923
 3874SOL    HW212522   0.274   3.373   0.067  0.5664 -0.3513  0.7624
 3875SOL     OW12523   1.325   4.464   6.977 -0.6136  0.1680  0.8876
 3875SOL    HW112524   1.385   4.532   7.020  0.2284  0.0176 -0.0171
 3875SOL    HW212525   1.257   4.510   6.921  0.6897  0.2782 -0.6796
 3876SOL     OW12526   5.716   3.249   6.301 -0.1357 -0.0588 -0.3659
 3876SOL    HW112527   5.794   3.246   6.364  0.2008 -2.7781 -0.7966
 3876SOL    HW212528   5.734   3.318   6.231  1.1958  0.4186  0.3957
 3877SOL     OW12529   0.066   3.235   6.410 -0.1134  0.3020  0.8027
 3877SOL    HW112530   0.151   3.202   6.453  0.2372  1.3013  0.8890
 3877SOL    HW212531  -0.002   3.162   6.413  1.0314 -0.8523 -0.1115
 3878SOL     OW12532   6.324   0.183   4.354 -0.0797 -0.0477 -0.1286
 3878SOL    HW112533   6.338   0.087   4.378  0.6158 -0.1009 -0.7041
 3878SOL    HW212534   6.392   0.239   4.400 -1.8876  0.4728  2.0466
 3879SOL     OW12535   4.087   0.858   1.075  0.2515  0.3973  0.4672
 3879SOL    HW112536   4.173   0.909   1.069  0.9026 -0.3052  2.7230
 3879SOL    HW212537   4.107   0.764   1.103 -1.3258  0.6684  2.7254
 3880SOL     OW12538   1.750   2.217   4.671  0.0982 -0.0648 -0.2604
 3880SOL    HW112539   1.699   2.133   4.655 -1.5197  1.1867 -2.1551
 3880SOL    HW212540   1.830   2.220   4.611  1.3556 -1.1113  1.2762
 3881SOL     OW12541   2.382   3.343   6.338  0.0274 -0.2030 -0.1899
 3881SOL    HW112542   2.373   3.246   6.361  0.0046 -0.4809 -1.2894
 3881SOL    HW212543   2.298   3.391   6.364  0.3278 -0.3232  1.0361
 3882SOL     OW12544   6.120   3.204   1.552 -0.3730  0.4079 -0.1747
 3882SOL    HW112545   6.172   3.273   1.602  0.9384  0.1431 -1.1206
 3882SOL    HW212546   6.160   3.114   1.566 -1.2446  0.0225 -0.0580
 3883SOL     OW12547   3.464   2.984   4.077  0.1253  0.0726  0.2674
 3883SOL    HW112548   3.465   3.073   4.032  1.0606 -0.1107 -0.1019
 3883SOL    HW212549   3.489   2.913   4.011  1.0577 -0.2570  0.9514
 3884SOL     OW12550   5.886   6.659   2.963  0.3990 -0.7081 -0.0364
 3884SOL    HW112551   5.923   6.566   2.966 -2.2099 -1.8443 -0.9196
 3884SOL    HW212552   5.848   6.678   2.872 -0.8658  0.4914  0.6939
 3885SOL     OW12553   4.715   6.209   4.431  0.1721  0.0830  0.2166
 3885SOL    HW112554   4.760   6.129   4.472 -0.1259  0.1230  0.6388
 3885SOL    HW212555   4.705   6.280   4.501  1.4951  0.9582 -0.4552
 3886SOL     OW12556   6.866   4.608   2.023  0.1068 -0.0200  0.3867
 3886SOL    HW112557   6.794   4.549   2.060 -1.3041  0.8907 -0.7892
 3886SOL    HW212558   6.898   4.670   2.095 -1.3325  0.5354  0.5882
 3887SOL     OW12559   0.425   4.240   4.624 -0.1391 -0.1945  0.0834
 3887SOL    HW112560   0.519   4.213   4.601  0.2850  1.3930 -0.1715
 3887SOL    HW212561   0.417   4.249   4.724  0.3846  0.9638  0.0400
 3888SOL     OW12562   3.037   6.770   0.863 -0.2356  0.7634  0.3931
 3888SOL    HW112563   2.975   6.801   0.791 -1.2076  0.2780  0.9883
 3888SOL    HW212564   3.126   6.748   0.824 -0.5355  1.1739 -0.5420
 3889SOL     OW12565   5.577   3.541   5.961  0.2302  0.1323  0.3435
 3889SOL    HW112566   5.489   3.504   5.991  0.6020 -1.3949 -0.3574
 3889SOL    HW212567   5.609   3.490   5.881  0.8074  1.9683 -0.6707
 3890SOL     OW12568   0.107   3.434   1.542  0.2513  0.2482 -0.3131
 3890SOL    HW112569   0.088   3.486   1.625  0.1313  1.8974 -1.3323
 3890SOL    HW212570   0.025   3.383   1.516 -0.2379  1.0228 -0.3132
 3891SOL     OW12571   1.354   2.484   3.445  0.3631  0.2148 -0.3475
 3891SOL    HW112572   1.451   2.504   3.461  0.1725  1.0212 -0.1521
 3891SOL    HW212573   1.334   2.492   3.347  0.1611  1.6217 -0.2043
 3892SOL     OW12574   1.660   1.864   4.872 -0.1276  1.0755 -0.0415
 3892SOL    HW112575   1.609   1.798   4.928  0.7141  1.9754  1.9007
 3892SOL    HW212576   1.752   1.829   4.855 -0.7977  0.1786 -2.1595
 3893SOL     OW12577   2.894   5.827   6.310 -0.0236 -0.4865  0.2144
 3893SOL    HW112578   2.951   5.853   6.232  0.9945 -0.0854  1.0706
 3893SOL    HW212579   2.942   5.759   6.365 -0.2083  0.1082  1.1370
 3894SOL     OW12580   6.833   5.070   3.644 -0.0996  0.4365 -0.0071
 3894SOL    HW112581   6.842   4.975   3.613 -2.4701  0.5606 -1.2528
 3894SOL    HW212582   6.799   5.127   3.570  1.3976  2.3485  0.6792
 3895SOL     OW12583   1.504   5.765   0.976  0.0320  0.4391 -0.1736
 3895SOL    HW112584   1.541   5.776   0.884 -0.9369  2.1985 -0.4027
 3895SOL    HW212585   1.476   5.854   1.012 -4.1061 -0.6461 -0.1403
 3896SOL     OW12586   0.987   5.209   4.822 -0.6328  0.0581  0.0023
 3896SOL    HW112587   1.075   5.200   4.775  0.3349  1.9917  1.2858
 3896SOL    HW212588   0.916   5.236   4.757  0.6395  2.5847 -0.4760
 3897SOL     OW12589   5.705   2.386   5.661 -0.5195 -0.4623 -0.4051
 3897SOL    HW112590   5.687   2.483   5.646 -0.0216 -0.4220 -0.7741
 3897SOL    HW212591   5.670   2.359   5.751  0.1533  0.2756  0.0927
 3898SOL     OW12592   0.035   4.001   4.415 -0.2102 -0.3517 -0.2226
 3898SOL    HW112593  -0.014   3.991   4.502  0.6691  1.2991  0.5075
 3898SOL    HW212594  -0.009   3.944   4.345 -0.2896 -2.5651  1.5336
 3899SOL     OW12595   4.238   5.517   2.464  0.0670  0.0454  0.0832
 3899SOL    HW112596   4.177   5.447   2.500 -0.7970 -0.0213 -1.4285
 3899SOL    HW212597   4.329   5.479   2.452  0.2730 -0.0549  1.6861
 3900SOL     OW12598   6.239   6.464   3.762 -0.3601  0.3155 -0.3248
 3900SOL    HW112599   6.268   6.545   3.812  0.9153  0.2636 -0.9281
 3900SOL    HW212600   6.153   6.430   3.799 -0.0755  0.9948  0.9992
 3901SOL     OW12601   5.211   6.538   2.900 -0.8236  0.4898  0.3567
 3901SOL    HW112602   5.263   6.466   2.854  0.2048  1.7955 -0.6016
 3901SOL    HW212603   5.191   6.510   2.993 -1.6947 -1.6288 -0.4020
 3902SOL     OW12604   5.794   6.680   1.817 -0.0577 -0.1631 -0.1971
 3902SOL    HW112605   5.796   6.622   1.899  0.6572 -0.8841 -0.7084
 3902SOL    HW212606   5.713   6.739   1.820 -0.2074 -0.3985  0.8751
 3903SOL     OW12607   1.488   4.602   5.404  0.0455 -0.1559 -0.3775
 3903SOL    HW112608   1.511   4.505   5.397  0.7206  0.0309 -0.8444
 3903SOL    HW212609   1.556   4.649   5.461 -0.7355 -0.0980  0.5389
 3904SOL     OW12610   4.767   3.822   1.724  0.4133 -0.8713  0.1181
 3904SOL    HW112611   4.834   3.806   1.797  0.6658 -0.8374 -0.1032
 3904SOL    HW212612   4.708   3.898   1.749  1.6370  0.3220 -0.4729
 3905SOL     OW12613   1.913   2.222   4.443  0.4585 -0.1229 -0.1939
 3905SOL    HW112614   1.909   2.263   4.353  4.0507  0.2963 -0.3319
 3905SOL    HW212615   1.947   2.128   4.435 -2.1681 -1.2260  0.5649
 3906SOL     OW12616   3.794   2.013   4.848 -0.4248  0.2094  0.4309
 3906SOL    HW112617   3.885   2.032   4.810 -0.3544 -1.3532 -0.2638
 3906SOL    HW212618   3.783   2.061   4.935  1.1385  0.2652  0.6210
 3907SOL     OW12619   0.031   1.885   0.533  0.8109 -0.0601  0.5390
 3907SOL    HW112620  -0.046   1.821   0.539  1.1137 -0.9420 -2.7364
 3907SOL    HW212621   0.109   1.849   0.585  0.4443 -1.5660  0.0899
 3908SOL     OW12622   6.931   3.000   3.211 -0.3782 -0.2619 -0.0580
 3908SOL    HW112623   6.943   3.096   3.234 -0.7039  0.0156 -1.0084
 3908SOL    HW212624   6.833   2.978   3.209 -0.3068 -0.6244  0.1864
 3909SOL     OW12625   5.619   2.269   0.818 -0.2511  0.2449 -0.1775
 3909SOL    HW112626   5.537   2.326   0.817 -0.0018  0.6216  0.5462
 3909SOL    HW212627   5.631   2.227   0.728  0.1633  2.1688 -1.0627
 3910SOL     OW12628   6.174   0.081   6.438 -0.2449  0.6272 -0.3349
 3910SOL    HW112629   6.187   0.114   6.531 -0.0262 -1.1021  0.2880
 3910SOL    HW212630   6.245   0.120   6.379  0.4132  0.7256  0.5040
 3911SOL     OW12631   6.525   6.312   3.062  0.4911 -0.2728 -0.7182
 3911SOL    HW112632   6.569   6.230   3.100  0.7987  0.1156 -0.2068
 3911SOL    HW212633   6.458   6.286   2.993  1.2018 -0.9099 -1.1793
 3912SOL     OW12634   0.938   5.516   5.885  0.1000  0.3954  0.3174
 3912SOL    HW112635   0.875   5.444   5.856 -0.0724  0.1767  1.1915
 3912SOL    HW212636   0.962   5.502   5.981  3.0524 -0.6860 -0.4663
 3913SOL     OW12637   3.866   3.957   2.655  0.4175  0.1893 -0.1378
 3913SOL    HW112638   3.802   4.006   2.596 -0.2619 -1.0784 -0.4944
 3913SOL    HW212639   3.864   3.996   2.747 -1.3150 -0.1935  0.0066
 3914SOL     OW12640   2.742   5.069   1.933  0.1579 -0.4303  0.0059
 3914SOL    HW112641   2.777   5.030   2.018 -0.3576 -0.7776  0.0642
 3914SOL    HW212642   2.804   5.047   1.858 -0.1078 -1.3572  0.0403
 3915SOL     OW12643   6.288   0.969   2.373 -0.0970  0.1464  0.6863
 3915SOL    HW112644   6.350   0.898   2.339 -1.5647 -0.2926 -1.2487
 3915SOL    HW212645   6.329   1.059   2.358  1.7389 -0.1939  3.0650
 3916SOL     OW12646   1.948   3.568   5.749  0.0032 -0.3603  0.3004
 3916SOL    HW112647   1.850   3.580   5.767 -0.4167 -0.3999 -1.7266
 3916SOL    HW212648   1.963   3.483   5.699  1.1581 -0.6154  1.0407
 3917SOL     OW12649   4.441   1.968   6.789  0.0868  0.0326 -1.0009
 3917SOL    HW112650   4.432   1.869   6.799 -3.5643  0.3101 -0.1917
 3917SOL    HW212651   4.440   2.010   6.880 -0.3009  0.9245 -1.4151
 3918SOL     OW12652   0.326   1.776   3.040 -0.4034  0.0236  0.5005
 3918SOL    HW112653   0.414   1.730   3.024  0.1335  0.9612  0.6837
 3918SOL    HW212654   0.252   1.708   3.036  0.4745 -1.0862  1.9661
 3919SOL     OW12655   1.978   4.105   0.788 -0.4440  0.1502  0.2023
 3919SOL    HW112656   2.057   4.131   0.843 -0.2857  0.9529 -0.3836
 3919SOL    HW212657   1.894   4.142   0.830 -0.2326  1.5771 -0.5649
 3920SOL     OW12658   6.647   3.736   5.359  0.1399 -0.2556  0.0700
 3920SOL    HW112659   6.737   3.779   5.360 -0.6762  1.5696 -0.4076
 3920SOL    HW212660   6.591   3.775   5.432 -0.4774 -0.8963 -0.0478
 3921SOL     OW12661   0.881   2.702   4.652 -0.1739  0.3856 -1.2492
 3921SOL    HW112662   0.950   2.681   4.721 -0.7693  1.1173 -0.4110
 3921SOL    HW212663   0.926   2.740   4.571  0.5964 -1.1351 -1.5720
 3922SOL     OW12664   1.051   2.208   5.080 -0.1872 -0.1773 -0.2511
 3922SOL    HW112665   0.992   2.257   5.144 -1.2465 -0.4006 -1.0327
 3922SOL    HW212666   1.063   2.114   5.111 -3.7870 -1.4433 -2.2014
 3923SOL     OW12667   5.765   4.567   1.921  0.3953 -0.3825 -1.0114
 3923SOL    HW112668   5.675   4.541   1.887  0.7454 -0.7729 -1.6650
 3923SOL    HW212669   5.795   4.651   1.877  0.7718 -0.7927 -1.5650
 3924SOL     OW12670   6.444   6.294   1.863 -1.1474  0.1403  0.1686
 3924SOL    HW112671   6.499   6.344   1.930 -0.0033 -0.3642 -0.3714
 3924SOL    HW212672   6.430   6.351   1.783  1.6832 -0.9234 -1.2169
 3925SOL     OW12673   6.957   1.680   5.023  0.1626 -0.1185  0.3344
 3925SOL    HW112674   7.011   1.711   4.945 -0.4975 -1.0233 -0.5105
 3925SOL    HW212675   7.007   1.698   5.107  2.3939 -2.0686 -0.4480
 3926SOL     OW12676   1.197   3.322   1.755 -0.4166 -0.1671 -0.3382
 3926SOL    HW112677   1.177   3.344   1.660 -0.0579  1.5553 -0.0382
 3926SOL    HW212678   1.250   3.395   1.797 -2.7784  0.4212  1.9515
 3927SOL     OW12679   4.543   5.420   6.076 -0.2034  0.1263 -0.0441
 3927SOL    HW112680   4.527   5.374   5.988  0.0104  0.7778 -0.4299
 3927SOL    HW212681   4.575   5.353   6.143  1.5868 -0.0495 -1.0108
 3928SOL     OW12682   3.243   0.507   0.834  0.2549 -0.1644  0.4233
 3928SOL    HW112683   3.245   0.492   0.933 -0.3160  1.5637  0.7259
 3928SOL    HW212684   3.227   0.419   0.788 -0.7345 -0.8254  1.9205
 3929SOL     OW12685   6.372   3.289   2.014 -0.0005  0.0514  0.3650
 3929SOL    HW112686   6.389   3.218   2.083  1.9850  0.6878  0.5881
 3929SOL    HW212687   6.426   3.370   2.036 -1.0992  1.1169 -0.7060
 3930SOL     OW12688   1.445   6.684   0.155 -0.6454 -0.4586  0.2815
 3930SOL    HW112689   1.443   6.782   0.174  2.4702 -0.5620  1.6472
 3930SOL    HW212690   1.517   6.641   0.209 -1.8974 -3.5368 -0.3199
 3931SOL     OW12691   0.874   3.524   3.508  0.0912  0.3967 -0.0119
 3931SOL    HW112692   0.940   3.477   3.450  0.3142  1.0633 -0.3080
 3931SOL    HW212693   0.900   3.620   3.518  0.1924  0.2465  1.3948
 3932SOL     OW12694   4.810   6.858   3.119 -0.1061  0.1610  0.0602
 3932SOL    HW112695   4.871   6.785   3.090 -1.4538 -0.5562 -1.0841
 3932SOL    HW212696   4.863   6.939   3.144  1.2497 -0.0753 -1.9023
 3933SOL     OW12697   2.757   0.204   2.999 -0.0648 -0.5719  0.2315
 3933SOL    HW112698   2.832   0.138   2.989 -0.4572 -0.6850 -3.6174
 3933SOL    HW212699   2.794   0.297   2.995  0.0904 -0.5741  1.3241
 3934SOL     OW12700   0.612   0.548   2.345  0.1429  0.2613  0.0631
 3934SOL    HW112701   0.602   0.450   2.329  3.0622 -0.0397 -0.4414
 3934SOL    HW212702   0.601   0.598   2.259 -1.5660  0.4483  0.3576
 3935SOL     OW12703   0.962   4.974   2.959 -0.6395  0.0324  0.3010
 3935SOL    HW112704   0.964   5.044   2.887  0.3909  0.6015  0.8619
 3935SOL    HW212705   0.983   5.016   3.047 -1.1563 -0.7899  0.8252
 3936SOL     OW12706   4.367   2.093   2.765 -0.2580 -0.2798  0.3097
 3936SOL    HW112707   4.394   2.032   2.690 -0.8201 -1.5346  1.0908
 3936SOL    HW212708   4.423   2.074   2.846  2.4665  3.1221 -0.5420
 3937SOL     OW12709   1.577   0.646   4.254  0.6328  0.2159  0.3068
 3937SOL    HW112710   1.592   0.632   4.156  2.4106 -1.3533  0.7327
 3937SOL    HW212711   1.603   0.739   4.279  1.4491  0.2251 -0.5110
 3938SOL     OW12712   2.200   4.458   0.935  0.3983 -0.6088  0.1838
 3938SOL    HW112713   2.230   4.437   0.842 -0.0988 -0.1146 -0.1035
 3938SOL    HW212714   2.118   4.515   0.930 -1.8923 -3.5960  0.8953
 3939SOL     OW12715   3.545   0.536   2.919  0.2409  0.1412 -0.0299
 3939SOL    HW112716   3.470   0.482   2.881  0.0063  0.4759 -0.0476
 3939SOL    HW212717   3.606   0.565   2.845  0.4404 -0.2112 -0.0036
 3940SOL     OW12718   5.357   2.219   3.531 -0.7136 -0.2187 -0.1316
 3940SOL    HW112719   5.434   2.276   3.502 -0.4556 -0.8324 -0.6753
 3940SOL    HW212720   5.272   2.254   3.491 -1.0479  1.6659  2.0733
 3941SOL     OW12721   3.305   3.396   3.882 -0.4658 -0.5139  0.1124
 3941SOL    HW112722   3.260   3.484   3.897 -0.2644 -0.5861  1.2236
 3941SOL    HW212723   3.402   3.412   3.860  0.5378 -0.4919  3.9401
 3942SOL     OW12724   6.719   6.530   0.193 -0.1307  0.6236 -0.0406
 3942SOL    HW112725   6.741   6.435   0.175  1.1727  1.0593 -0.9248
 3942SOL    HW212726   6.620   6.544   0.183 -0.0470 -0.0755 -2.8148
 3943SOL     OW12727   2.880   5.849   0.308  0.2626  0.0268  0.0013
 3943SOL    HW112728   2.919   5.933   0.345  0.0762  0.1337 -0.0423
 3943SOL    HW212729   2.785   5.839   0.339  0.0367  0.2230 -0.6019
 3944SOL     OW12730   0.377   3.288   2.748 -0.1677  0.1443 -0.1624
 3944SOL    HW112731   0.388   3.189   2.759  0.5918 -0.0859 -2.5251
 3944SOL    HW212732   0.333   3.308   2.661  2.8231  1.9375 -1.4308
 3945SOL     OW12733   5.530   1.459   3.796  0.2649 -0.0354  0.5677
 3945SOL    HW112734   5.547   1.541   3.850  2.0381  0.6146 -0.9108
 3945SOL    HW212735   5.438   1.424   3.817 -1.0305  2.9788  0.3624
 3946SOL     OW12736   1.323   0.462   4.028  0.3789 -0.1666 -0.0832
 3946SOL    HW112737   1.329   0.418   3.939 -1.7767  2.6935 -1.7782
 3946SOL    HW212738   1.271   0.547   4.021 -0.7393 -0.2781  4.1006
 3947SOL     OW12739   2.776   2.605   6.933  0.3503 -0.9228 -0.5711
 3947SOL    HW112740   2.827   2.583   7.017  0.9922 -0.6064 -0.8737
 3947SOL    HW212741   2.837   2.597   6.854  0.5124  1.4609 -0.7563
 3948SOL     OW12742   6.882   5.353   6.084 -0.0883  0.0015 -0.0621
 3948SOL    HW112743   6.952   5.411   6.126  0.0846  0.3893 -0.8677
 3948SOL    HW212744   6.916   5.316   5.998 -0.8614  0.1812 -0.4541
 3949SOL     OW12745   3.115   4.339   1.184 -0.0158  0.1994 -0.2689
 3949SOL    HW112746   3.209   4.355   1.215  0.1811 -0.9949 -0.1935
 3949SOL    HW212747   3.054   4.407   1.224  1.0216  1.9357 -1.4850
 3950SOL     OW12748   5.732   6.830   4.076 -0.4294 -0.4140 -0.0346
 3950SOL    HW112749   5.802   6.864   4.139  0.3273 -1.2248 -0.4163
 3950SOL    HW212750   5.697   6.906   4.021  0.7528 -0.1227 -0.4136
 3951SOL     OW12751   1.458   4.769   3.216  0.0634 -0.0560  0.0631
 3951SOL    HW112752   1.436   4.846   3.277  0.1757  0.3402 -0.3925
 3951SOL    HW212753   1.556   4.751   3.219  0.2443  0.6777 -0.8153
 3952SOL     OW12754   4.892   0.343   0.149  0.2854 -0.3216  0.3422
 3952SOL    HW112755   4.843   0.430   0.143  0.6375 -0.0426  1.4071
 3952SOL    HW212756   4.839   0.277   0.202 -0.0797 -0.8446 -0.6389
 3953SOL     OW12757   6.604   2.903   0.798  0.9627 -0.3792  0.6651
 3953SOL    HW112758   6.522   2.959   0.809  1.4345  0.2540  1.0075
 3953SOL    HW212759   6.590   2.815   0.843  0.7025 -0.0289  1.2878
 3954SOL     OW12760   1.152   6.068   2.874 -0.5764 -0.3904  0.3858
 3954SOL    HW112761   1.160   5.997   2.944 -1.4081 -2.5215 -1.5405
 3954SOL    HW212762   1.241   6.112   2.860  0.2608 -1.8790  0.8241
 3955SOL     OW12763   0.736   6.004   3.368 -0.0944  0.4754 -0.0413
 3955SOL    HW112764   0.763   6.052   3.451 -1.7447  1.4966 -0.0691
 3955SOL    HW212765   0.721   6.070   3.295  0.1014 -0.3126 -0.8095
 3956SOL     OW12766   6.998   2.748   5.721  0.4301 -0.7579  0.2861
 3956SOL    HW112767   6.942   2.732   5.803  1.1583 -0.8211  0.7824
 3956SOL    HW212768   7.083   2.794   5.747 -0.2438  1.1500 -0.7211
 3957SOL     OW12769   1.826   3.818   0.853  0.0722  0.4525  0.1964
 3957SOL    HW112770   1.820   3.829   0.952  0.4377  3.5605 -0.0324
 3957SOL    HW212771   1.901   3.874   0.817 -0.6777  0.1935 -1.9486
 3958SOL     OW12772   3.269   6.445   5.499  0.0729 -0.0995 -0.0095
 3958SOL    HW112773   3.181   6.434   5.545 -0.4829 -0.9064 -1.2077
 3958SOL    HW212774   3.262   6.410   5.406  1.7633 -0.4553 -0.0291
 3959SOL     OW12775   0.871   4.780   2.609 -0.2452  0.3143 -0.0664
 3959SOL    HW112776   0.802   4.818   2.547 -0.1740 -0.8989 -0.9203
 3959SOL    HW212777   0.911   4.854   2.664  0.3549  1.5987 -2.1156
 3960SOL     OW12778   2.335   3.478   0.435  0.5661 -0.2190 -0.0253
 3960SOL    HW112779   2.418   3.526   0.407  0.0495 -0.4790 -2.2131
 3960SOL    HW212780   2.356   3.383   0.455  0.5185 -0.9882 -3.0985
 3961SOL     OW12781   2.467   0.421   3.396  0.4624 -0.2565  0.3809
 3961SOL    HW112782   2.523   0.388   3.321  0.7081 -0.2961  0.5820
 3961SOL    HW212783   2.504   0.507   3.430 -0.7245  0.7579 -0.7786
 3962SOL     OW12784   6.526   0.069   3.300 -0.0645 -0.0138  0.0673
 3962SOL    HW112785   6.489   0.078   3.392  1.5004 -0.8358  0.8021
 3962SOL    HW212786   6.479  -0.006   3.253  1.4510 -1.9410  1.4590
 3963SOL     OW12787   4.432   5.466   0.479  0.4301 -0.1238  0.2923
 3963SOL    HW112788   4.352   5.440   0.534  1.7789 -2.4196  1.3544
 3963SOL    HW212789   4.485   5.535   0.528 -0.5229  0.9298 -0.1193
 3964SOL     OW12790   4.108   4.911   4.157  0.4917  0.0308  0.0742
 3964SOL    HW112791   4.008   4.915   4.158  0.3496 -0.6610 -2.9785
 3964SOL    HW212792   4.138   4.832   4.211 -0.6894 -0.4530  0.0554
 3965SOL     OW12793   0.422   2.721   1.039 -0.0286 -0.0030 -0.2076
 3965SOL    HW112794   0.518   2.694   1.033  0.2775  1.2077 -1.2621
 3965SOL    HW212795   0.365   2.651   0.996  0.5375  0.0083 -1.0028
 3966SOL     OW12796   0.331   6.865   4.913  0.0601 -0.6862  0.0088
 3966SOL    HW112797   0.348   6.960   4.886  0.3291 -0.3200  1.3866
 3966SOL    HW212798   0.404   6.835   4.975 -0.3543 -1.5846  0.0754
 3967SOL     OW12799   6.718   4.442   3.624  0.2688 -0.1977 -0.1671
 3967SOL    HW112800   6.714   4.421   3.526  2.6376 -0.0710 -0.3473
 3967SOL    HW212801   6.665   4.526   3.642  1.6260  1.0813 -1.7831
 3968SOL     OW12802   1.982   4.883   1.912 -0.5529 -0.4195 -0.2173
 3968SOL    HW112803   2.013   4.977   1.921 -0.3171 -0.5931  0.9896
 3968SOL    HW212804   1.973   4.842   2.003 -0.3148 -1.6752 -0.7391
 3969SOL     OW12805   1.378   3.117   1.511 -0.0514  0.1377 -0.0334
 3969SOL    HW112806   1.411   3.119   1.606  1.2079  0.5653 -0.4636
 3969SOL    HW212807   1.438   3.059   1.456  1.1809  2.3942 -1.2325
 3970SOL     OW12808   5.780   4.700   3.238  0.5762 -0.0490 -0.0666
 3970SOL    HW112809   5.746   4.667   3.150  1.4166 -0.3902 -0.2759
 3970SOL    HW212810   5.747   4.793   3.254 -1.5566 -0.8191  0.3745
 3971SOL     OW12811   1.981   6.161   3.033 -0.0815  0.4295 -0.1646
 3971SOL    HW112812   2.002   6.259   3.028 -1.2149  0.9184  2.6830
 3971SOL    HW212813   1.893   6.148   3.080 -0.1972 -1.9728 -0.9002
 3972SOL     OW12814   4.327   4.702   4.879  0.6577  0.1445 -0.0106
 3972SOL    HW112815   4.327   4.631   4.949  1.0008 -1.3308 -1.4333
 3972SOL    HW212816   4.420   4.714   4.843  0.4886  0.8713 -0.2351
 3973SOL     OW12817   4.828   5.609   4.378  0.2927  0.0709  0.1943
 3973SOL    HW112818   4.739   5.640   4.345  1.4547  0.7380 -2.6324
 3973SOL    HW212819   4.855   5.526   4.330  0.8842 -0.6010  1.6135
 3974SOL     OW12820   0.434   3.408   5.542  0.2734  0.2087 -0.5386
 3974SOL    HW112821   0.417   3.340   5.614  2.5164  0.8669  0.7192
 3974SOL    HW212822   0.410   3.499   5.576 -0.0141  0.3753 -1.1713
 3975SOL     OW12823   1.733   1.029   6.397 -0.5111  1.0197 -0.2513
 3975SOL    HW112824   1.714   0.931   6.389 -0.2400  0.9880 -0.5194
 3975SOL    HW212825   1.673   1.069   6.466 -0.9382  0.7474 -0.4600
 3976SOL     OW12826   6.408   6.446   0.772 -0.4257 -0.0788  0.0806
 3976SOL    HW112827   6.381   6.395   0.854 -2.2539  0.9137  0.1599
 3976SOL    HW212828   6.382   6.394   0.691  0.9534 -0.8486  0.1171
 3977SOL     OW12829   3.284   6.727   4.727 -0.0199 -0.1270 -0.6606
 3977SOL    HW112830   3.296   6.642   4.677  0.5009  0.1209 -0.9687
 3977SOL    HW212831   3.188   6.739   4.750  0.2431 -2.3148  2.1132
 3978SOL     OW12832   5.711   6.524   4.381  0.6189  0.2241  0.1316
 3978SOL    HW112833   5.691   6.470   4.300  0.1774  0.4257  0.1001
 3978SOL    HW212834   5.715   6.621   4.357 -2.4583  0.6213  0.7993
 3979SOL     OW12835   3.365   4.637   1.265  0.1871 -0.5574  0.1775
 3979SOL    HW112836   3.408   4.584   1.192 -0.2409 -1.1443  0.3403
 3979SOL    HW212837   3.314   4.576   1.325 -0.1244  0.0130  0.5083
 3980SOL     OW12838   6.694   3.275   4.974 -0.0825 -0.2542 -0.3508
 3980SOL    HW112839   6.698   3.344   5.046  0.7434  0.7538 -1.3240
 3980SOL    HW212840   6.601   3.237   4.970 -0.6451  1.0312 -0.0072
 3981SOL     OW12841   4.865   2.672   6.511 -0.2595  0.7505 -0.2953
 3981SOL    HW112842   4.928   2.602   6.479  0.6066  0.6094  1.5891
 3981SOL    HW212843   4.796   2.690   6.441 -1.0794 -2.6646 -0.5229
 3982SOL     OW12844   1.360   4.645   4.235  0.7250  0.1439 -0.6185
 3982SOL    HW112845   1.429   4.572   4.233  0.4095 -0.1429 -1.5508
 3982SOL    HW212846   1.374   4.706   4.158  0.1082  0.2412 -0.6603
 3983SOL     OW12847   1.591   3.904   6.949 -0.0907  0.0198  0.2648
 3983SOL    HW112848   1.661   3.914   7.019 -0.6186  1.2753  0.6583
 3983SOL    HW212849   1.633   3.879   6.862  0.5155 -2.2170  1.1374
 3984SOL     OW12850   5.868   0.134   5.232 -0.2501  0.2099 -0.1288
 3984SOL    HW112851   5.806   0.199   5.187  0.6386  2.1508  1.2687
 3984SOL    HW212852   5.827   0.104   5.319  0.4378  0.9756  0.4765
 3985SOL     OW12853   5.118   2.662   0.317  0.3999 -0.2525  0.8596
 3985SOL    HW112854   5.117   2.762   0.324 -0.8599 -0.3326  2.8923
 3985SOL    HW212855   5.197   2.627   0.367  1.0699 -0.2673 -0.2021
 3986SOL     OW12856   3.503   6.336   5.983  0.4341  0.1161 -0.2303
 3986SOL    HW112857   3.512   6.248   6.030 -0.0136  1.2027  2.0356
 3986SOL    HW212858   3.557   6.335   5.900  0.3914 -2.3154 -0.3016
 3987SOL     OW12859   6.114   1.968   4.159  0.2659 -0.1463 -0.3582
 3987SOL    HW112860   6.178   1.960   4.083  0.1481  1.8158 -0.7097
 3987SOL    HW212861   6.103   2.064   4.184 -1.0017 -0.6086  1.0349
 3988SOL     OW12862   0.213   4.660   4.846 -0.0861  0.4009 -0.1478
 3988SOL    HW112863   0.240   4.744   4.799 -1.1825 -0.7653 -3.1207
 3988SOL    HW212864   0.293   4.603   4.862  0.3637  0.9864 -0.2801
 3989SOL     OW12865   4.791   1.568   2.134  0.0646  0.0584  0.0817
 3989SOL    HW112866   4.738   1.586   2.051 -0.5473 -0.0227  0.4548
 3989SOL    HW212867   4.730   1.562   2.213  0.8110  2.1920  0.8877
 3990SOL     OW12868   0.132   0.071   2.663 -0.1361  0.0824  0.2864
 3990SOL    HW112869   0.091  -0.019   2.650  1.0334 -0.3734 -0.3760
 3990SOL    HW212870   0.219   0.061   2.710 -0.2119  0.9166  0.6098
 3991SOL     OW12871   5.715   6.159   5.454  0.0202 -0.1010 -0.6332
 3991SOL    HW112872   5.717   6.259   5.442  0.4650 -0.0570 -0.2239
 3991SOL    HW212873   5.718   6.115   5.365 -1.0607  0.2612 -0.8593
 3992SOL     OW12874   4.152   4.832   5.078  0.0437 -0.2636 -0.2070
 3992SOL    HW112875   4.223   4.884   5.125 -1.1194  0.0689  1.2827
 3992SOL    HW212876   4.193   4.758   5.024  1.5014  0.0148  0.4938
 3993SOL     OW12877   5.689   3.895   2.205  0.2027 -0.0516 -0.5495
 3993SOL    HW112878   5.650   3.983   2.175  0.6580 -0.4774 -2.5151
 3993SOL    HW212879   5.616   3.827   2.211 -0.0951  0.3294  0.6506
 3994SOL     OW12880   6.370   3.188   5.965 -0.3325  0.1534 -0.8700
 3994SOL    HW112881   6.447   3.133   5.932  0.7001  1.5918 -0.9917
 3994SOL    HW212882   6.321   3.229   5.888  0.3210  1.2062 -0.7558
 3995SOL     OW12883   3.664   4.160   6.939 -0.1349  0.1053  0.0276
 3995SOL    HW112884   3.695   4.070   6.972 -0.3267 -0.1091 -0.3674
 3995SOL    HW212885   3.732   4.229   6.963  0.8152 -0.4056 -1.0859
 3996SOL     OW12886   3.003   4.769   1.229 -0.1327  0.1507 -0.3289
 3996SOL    HW112887   2.975   4.791   1.323  0.3002  0.1630 -0.2010
 3996SOL    HW212888   3.053   4.846   1.191  1.1391 -0.4878  0.0174
 3997SOL     OW12889   1.234   0.902   5.958 -0.0347  0.7949 -0.1387
 3997SOL    HW112890   1.240   0.884   5.859 -0.3506  0.5996 -0.1239
 3997SOL    HW212891   1.182   0.986   5.973  0.4835  1.1223 -0.1608
 3998SOL     OW12892   2.166   4.704   1.817  0.3618 -0.0862 -0.4858
 3998SOL    HW112893   2.163   4.675   1.912  0.6865  0.5092 -0.2898
 3998SOL    HW212894   2.086   4.762   1.798  0.9529  0.8319 -0.2250
 3999SOL     OW12895   6.915   1.149   0.099  0.0191  0.0302  0.4202
 3999SOL    HW112896   6.910   1.080   0.171 -0.5794 -0.3657  0.0157
 3999SOL    HW212897   6.990   1.127   0.037  0.0213 -0.0906  0.4647
 4000SOL     OW12898   5.038   1.571   5.963 -0.5064 -0.3842  0.8252
 4000SOL    HW112899   4.974   1.645   5.984  1.8363  1.6210  1.3387
 4000SOL    HW212900   5.074   1.583   5.870  1.5889  0.5615  1.6842
 4001SOL     OW12901   6.914   5.846   2.655 -0.6974  0.2882 -0.0550
 4001SOL    HW112902   6.877   5.809   2.570 -0.6565 -0.8644  0.4045
 4001SOL    HW212903   6.852   5.916   2.691 -1.5459 -0.3681 -0.2055
 4002SOL     OW12904   6.877   0.043   0.223  0.7212  0.4245  0.2265
 4002SOL    HW112905   6.887   0.065   0.320  0.1566  0.1557  0.3540
 4002SOL    HW212906   6.812  -0.032   0.213 -0.9102  1.8586 -0.4851
 4003SOL     OW12907   1.384   2.682   6.500 -0.0636 -0.4411 -0.0331
 4003SOL    HW112908   1.356   2.722   6.412 -0.7757 -1.2241 -0.1696
 4003SOL    HW212909   1.304   2.666   6.557  0.3849 -0.0529  0.7328
 4004SOL     OW12910   1.448   5.184   1.089 -0.5536 -0.3588 -0.2976
 4004SOL    HW112911   1.497   5.102   1.118  0.9640  0.1791 -1.2658
 4004SOL    HW212912   1.438   5.246   1.167 -0.5318 -0.8811  0.1230
 4005SOL     OW12913   0.295   2.956   2.443 -0.3924  0.0678  0.2776
 4005SOL    HW112914   0.268   2.896   2.368 -1.3112  1.4541 -0.5251
 4005SOL    HW212915   0.387   2.930   2.473 -0.0386 -0.5931 -1.2449
 4006SOL     OW12916   1.766   2.651   4.659 -0.7546 -0.3111 -0.0945
 4006SOL    HW112917   1.860   2.632   4.688 -0.8025 -0.9284 -0.3237
 4006SOL    HW212918   1.705   2.645   4.737 -0.8523 -1.7372 -0.2541
 4007SOL     OW12919   0.482   0.380   3.751  0.4592 -0.1033 -0.5848
 4007SOL    HW112920   0.418   0.453   3.774  1.8671  1.1102 -0.3227
 4007SOL    HW212921   0.568   0.396   3.799  0.8923 -1.8011 -0.7522
 4008SOL     OW12922   2.489   6.276   6.099  0.6365  0.4657 -0.6526
 4008SOL    HW112923   2.436   6.358   6.078  0.7950  0.7387 -0.0258
 4008SOL    HW212924   2.541   6.292   6.183 -0.5385 -0.8162  0.3706
 4009SOL     OW12925   6.607   0.624   3.123  0.0320 -0.3458 -0.4883
 4009SOL    HW112926   6.527   0.664   3.168  0.5068 -1.3438  1.3419
 4009SOL    HW212927   6.585   0.531   3.093  0.5368 -0.6693  0.1340
 4010SOL     OW12928   1.491   3.291   0.525  0.3126 -0.3279 -0.0088
 4010SOL    HW112929   1.421   3.223   0.504  2.4579 -2.2344 -1.5552
 4010SOL    HW212930   1.555   3.298   0.448  3.3072 -0.6579  2.2491
 4011SOL     OW12931   0.289   0.973   2.466 -0.3895 -0.0308  0.2753
 4011SOL    HW112932   0.248   0.882   2.464 -3.6003  1.2709  0.2613
 4011SOL    HW212933   0.313   0.996   2.560 -2.0402  0.0317  0.7220
 4012SOL     OW12934   6.292   3.367   4.703  0.2778 -0.0754 -0.1257
 4012SOL    HW112935   6.196   3.350   4.686  0.1973  1.6940 -1.8061
 4012SOL    HW212936   6.302   3.437   4.774  0.2332  0.8363 -0.9892
 4013SOL     OW12937   1.117   4.886   4.073  0.2693  0.4422  0.2650
 4013SOL    HW112938   1.087   4.791   4.088 -0.5197  0.9584  2.2246
 4013SOL    HW212939   1.212   4.885   4.043 -0.0471 -1.0103 -0.7992
 4014SOL     OW12940   2.701   6.104   0.160  0.3296 -0.1082 -0.0407
 4014SOL    HW112941   2.612   6.148   0.170  1.9205  2.7929  3.6647
 4014SOL    HW212942   2.705   6.023   0.220  0.1429 -0.3250 -0.3205
 4015SOL     OW12943   1.165   4.949   5.320 -0.1103  0.1735 -0.2546
 4015SOL    HW112944   1.223   4.895   5.381 -0.5726  0.0375  0.0684
 4015SOL    HW212945   1.071   4.948   5.353  0.0173  1.9038  0.2561
 4016SOL     OW12946   0.612   3.962   2.409  0.5870 -0.4783  0.0183
 4016SOL    HW112947   0.543   4.033   2.423  0.6941 -0.2197 -0.6883
 4016SOL    HW212948   0.590   3.910   2.326  2.0179  0.5879 -1.1002
 4017SOL     OW12949   1.080   4.257   0.356 -0.1005 -0.1531  0.0268
 4017SOL    HW112950   1.105   4.211   0.442 -2.0100 -1.0942  0.1585
 4017SOL    HW212951   1.162   4.279   0.304  1.0385 -0.7526  1.4956
 4018SOL     OW12952   4.716   1.151   1.476  0.5278  0.4883 -0.0104
 4018SOL    HW112953   4.712   1.193   1.385 -2.0012  0.2892 -0.0511
 4018SOL    HW212954   4.741   1.054   1.466 -0.0686  0.3786 -0.5519
 4019SOL     OW12955   0.599   5.373   3.576 -0.5836  0.4491 -0.5587
 4019SOL    HW112956   0.665   5.372   3.501 -0.6475 -0.2054 -0.6098
 4019SOL    HW212957   0.513   5.412   3.544  0.0170  2.1394 -0.2671
 4020SOL     OW12958   2.052   5.959   3.404 -0.9790  0.3152 -0.2089
 4020SOL    HW112959   2.146   5.929   3.388 -1.2442  0.1937 -1.6464
 4020SOL    HW212960   2.034   6.042   3.351 -1.0474  1.5962  1.7209
 4021SOL     OW12961   6.022   3.984   5.274  0.0822  0.6480  0.0285
 4021SOL    HW112962   5.950   3.914   5.279 -0.9972  1.4629 -2.6204
 4021SOL    HW212963   6.010   4.047   5.351 -0.4519 -0.6176  1.0446
 4022SOL     OW12964   1.524   6.223   3.007  0.3049  0.2265  0.4939
 4022SOL    HW112965   1.474   6.138   3.023  0.5556 -0.1147 -0.5024
 4022SOL    HW212966   1.597   6.232   3.075 -1.1469  0.7998  2.0559
 4023SOL     OW12967   0.373   0.394   0.125  0.4927  0.4305 -0.0194
 4023SOL    HW112968   0.357   0.296   0.113  0.2010  0.5579 -0.7235
 4023SOL    HW212969   0.298   0.445   0.082  1.7784  1.0152 -1.6742
 4024SOL     OW12970   5.836   0.253   1.790  0.3334 -0.3385  0.1399
 4024SOL    HW112971   5.904   0.240   1.717 -0.9797  1.7947 -1.5927
 4024SOL    HW212972   5.751   0.208   1.765 -0.4791  1.3301 -0.2394
 4025SOL     OW12973   6.333   3.432   1.507 -0.2224 -0.0149  0.0041
 4025SOL    HW112974   6.328   3.438   1.606  0.9923 -0.0089  0.0867
 4025SOL    HW212975   6.417   3.384   1.480 -0.6072 -0.1543 -1.0146
 4026SOL     OW12976   2.096   6.890   5.922 -0.3522  0.1051 -0.3206
 4026SOL    HW112977   2.052   6.847   5.843 -0.9875  0.2073 -0.0316
 4026SOL    HW212978   2.089   6.829   6.001 -2.1229  1.1040  0.3460
 4027SOL     OW12979   3.059   6.364   2.997 -0.6928 -0.0609 -0.0747
 4027SOL    HW112980   3.061   6.442   2.935 -0.2445 -2.1025 -2.8229
 4027SOL    HW212981   3.150   6.350   3.036 -0.6447  0.4225 -0.0035
 4028SOL     OW12982   3.571   2.702   5.461 -0.6455  0.3363  0.3389
 4028SOL    HW112983   3.651   2.705   5.400 -1.3471  0.2310 -0.6142
 4028SOL    HW212984   3.592   2.752   5.545  0.5608 -0.0313  0.2833
 4029SOL     OW12985   4.706   2.746   2.442  0.0013 -0.1414 -0.0135
 4029SOL    HW112986   4.752   2.811   2.382  0.5069 -0.7441 -0.2890
 4029SOL    HW212987   4.620   2.786   2.475  0.6345  0.9543  0.3932
 4030SOL     OW12988   5.393   2.100   4.824  0.0181  0.1528  0.7755
 4030SOL    HW112989   5.375   2.009   4.788  0.9415 -0.4144  1.6810
 4030SOL    HW212990   5.433   2.093   4.915  2.6846  1.3135 -0.1711
 4031SOL     OW12991   3.516   3.412   6.305  0.4115 -0.0989 -0.3943
 4031SOL    HW112992   3.451   3.390   6.233  2.5641 -1.5724 -2.0168
 4031SOL    HW212993   3.569   3.331   6.328  1.9259  1.1151  0.6000
 4032SOL     OW12994   2.162   3.386   0.201  0.2426 -0.0244  0.3645
 4032SOL    HW112995   2.104   3.309   0.228  1.6774 -1.8755 -1.5130
 4032SOL    HW212996   2.212   3.419   0.280  0.4489 -1.8080  1.0210
 4033SOL     OW12997   2.875   4.487   6.104  0.2476  0.6667 -0.0406
 4033SOL    HW112998   2.902   4.566   6.050  0.0031  0.2649 -0.7749
 4033SOL    HW212999   2.778   4.466   6.087  0.4586 -0.1351 -0.3157
 4034SOL     OW13000   3.697   5.068   1.329 -0.1431 -0.4291 -0.3616
 4034SOL    HW113001   3.760   5.098   1.400 -0.6601 -1.6715  0.6410
 4034SOL    HW213002   3.608   5.046   1.369  0.0543 -2.8269 -1.0861
 4035SOL     OW13003   1.846   5.045   3.365  0.3789  0.7446  0.4464
 4035SOL    HW113004   1.877   4.961   3.409 -0.3414  0.4130  0.3323
 4035SOL    HW213005   1.892   5.057   3.277  0.0807  0.1867  0.2136
 4036SOL     OW13006   5.414   1.213   6.974  0.0789  0.5571  0.1333
 4036SOL    HW113007   5.415   1.236   6.876  0.1454  1.1852  0.2760
 4036SOL    HW213008   5.369   1.287   7.025 -0.1782  0.1178  0.5534
 4037SOL     OW13009   3.674   0.340   6.698  0.1738 -0.1808 -0.6655
 4037SOL    HW113010   3.655   0.267   6.632  1.9433 -0.8213 -0.5277
 4037SOL    HW213011   3.740   0.404   6.658 -0.2715  0.5603 -0.2375
 4038SOL     OW13012   1.566   4.134   6.230 -0.0521  0.1951 -0.1851
 4038SOL    HW113013   1.591   4.193   6.153 -0.3793  1.8607  0.9540
 4038SOL    HW213014   1.646   4.081   6.259  0.7884  1.5855  0.0769
 4039SOL     OW13015   2.174   0.520   1.510 -0.1152  0.5234 -0.2134
 4039SOL    HW113016   2.125   0.543   1.594  0.1569  0.4735 -0.0390
 4039SOL    HW213017   2.113   0.472   1.447 -0.9330  2.3851 -0.9100
 4040SOL     OW13018   3.202   6.898   3.136 -0.5793  0.3713  0.0283
 4040SOL    HW113019   3.282   6.866   3.085 -0.1090  2.7784 -0.8752
 4040SOL    HW213020   3.229   6.924   3.228 -0.3535  0.9811 -0.2075
 4041SOL     OW13021   3.276   3.687   2.136 -0.1360  0.1840 -0.3359
 4041SOL    HW113022   3.337   3.755   2.094  0.4713 -0.5940 -0.7483
 4041SOL    HW213023   3.245   3.720   2.225  1.6601  0.2061  0.3222
 4042SOL     OW13024   5.081   2.950   0.378 -0.0361  0.1442 -0.3738
 4042SOL    HW113025   5.135   3.033   0.365 -1.1040  1.1742  1.2994
 4042SOL    HW213026   4.990   2.962   0.338 -0.4714  0.1183  0.5731
 4043SOL     OW13027   0.047   6.513   1.045  0.1563  0.5173 -0.3183
 4043SOL    HW113028  -0.007   6.484   0.966  1.5135  0.3722 -1.2256
 4043SOL    HW213029   0.035   6.611   1.059  0.8657  0.7800 -1.4803
 4044SOL     OW13030   5.944   5.611   1.160 -0.6360  0.0077  0.6613
 4044SOL    HW113031   5.990   5.608   1.071 -0.2253  1.5984  0.7850
 4044SOL    HW213032   5.848   5.635   1.146 -0.8318 -0.7814  0.5898
 4045SOL     OW13033   6.291   5.950   0.226  0.2069 -0.3960 -0.7339
 4045SOL    HW113034   6.261   5.940   0.320 -0.9098 -0.2832 -1.0595
 4045SOL    HW213035   6.375   6.004   0.223 -0.1787  0.2815  0.1479
 4046SOL     OW13036   0.458   2.317   3.693  0.0428  0.0779 -0.2966
 4046SOL    HW113037   0.511   2.377   3.633  0.3430  0.5506  0.4287
 4046SOL    HW213038   0.506   2.230   3.704  0.0989  0.0747 -0.5476
 4047SOL     OW13039   4.680   3.883   6.053  0.5894 -0.0824  0.3563
 4047SOL    HW113040   4.623   3.903   5.974 -0.8780  1.4272  1.7037
 4047SOL    HW213041   4.628   3.900   6.137  2.2008 -1.2273  1.6746
 4048SOL     OW13042   4.223   5.461   0.273  0.0572 -0.0313  0.2223
 4048SOL    HW113043   4.245   5.366   0.248 -0.6593 -0.7790  2.2298
 4048SOL    HW213044   4.298   5.499   0.327  0.7722  0.9219 -1.3825
 4049SOL     OW13045   4.339   4.847   5.581  0.6272  0.2879  0.0046
 4049SOL    HW113046   4.284   4.797   5.515  2.5933 -0.8043 -0.8826
 4049SOL    HW213047   4.293   4.846   5.670  0.1595 -2.2942 -0.2007
 4050SOL     OW13048   0.581   5.638   1.542 -0.1117  0.4480 -0.5245
 4050SOL    HW113049   0.565   5.713   1.477  0.6086  1.6159  0.6086
 4050SOL    HW213050   0.660   5.584   1.512  1.9901  2.6345  0.7132
 4051SOL     OW13051   0.762   2.992   0.028 -0.0267  0.0274  0.0673
 4051SOL    HW113052   0.689   3.022  -0.033 -0.0261 -1.2333 -0.5888
 4051SOL    HW213053   0.837   2.953  -0.025  0.2118 -0.6011  0.8425
 4052SOL     OW13054   3.608   4.158   0.815  0.1581  0.3601  0.7343
 4052SOL    HW113055   3.675   4.118   0.878 -0.6600 -0.8134  0.9072
 4052SOL    HW213056   3.517   4.126   0.840 -0.3310  0.9378 -0.2529
 4053SOL     OW13057   3.790   3.192   3.865 -0.5339  0.2507  0.5847
 4053SOL    HW113058   3.875   3.177   3.916 -0.3955 -1.5739 -0.0943
 4053SOL    HW213059   3.813   3.229   3.774 -0.4820  0.0282  0.5062
 4054SOL     OW13060   3.644   4.879   3.148 -0.5163  0.5336  0.2784
 4054SOL    HW113061   3.734   4.838   3.135 -0.3331  0.7471  0.8195
 4054SOL    HW213062   3.608   4.909   3.060  0.3102  1.1945  0.1537
 4055SOL     OW13063   3.233   6.501   2.586  0.0173  0.1522 -0.0916
 4055SOL    HW113064   3.321   6.475   2.624  0.0406 -0.8336 -0.7685
 4055SOL    HW213065   3.169   6.521   2.660  0.8446  1.0213  0.3986
 4056SOL     OW13066   1.334   6.572   0.454 -0.1740  0.2630 -0.4159
 4056SOL    HW113067   1.430   6.546   0.448 -0.0625  0.3315  0.8317
 4056SOL    HW213068   1.327   6.672   0.461 -0.4359  0.3871 -2.0900
 4057SOL     OW13069   3.719   4.920   3.423  0.5163 -1.0841 -0.5331
 4057SOL    HW113070   3.817   4.928   3.408  0.3251  1.1888 -0.9091
 4057SOL    HW213071   3.674   4.887   3.340  0.9014 -1.7620 -0.4783
 4058SOL     OW13072   6.499   0.527   5.883  0.0992 -0.5377  0.0114
 4058SOL    HW113073   6.492   0.624   5.905  0.1269 -0.7134  0.8644
 4058SOL    HW213074   6.437   0.505   5.808  0.0193  0.1186 -0.1208
 4059SOL     OW13075   6.183   6.613   2.202  0.0130 -0.2425 -0.5218
 4059SOL    HW113076   6.259   6.598   2.138 -0.6431  1.3791 -1.7565
 4059SOL    HW213077   6.179   6.710   2.227 -1.5791 -0.3152 -0.3902
 4060SOL     OW13078   4.845   5.463   1.272  0.3468  0.1480 -0.1693
 4060SOL    HW113079   4.890   5.376   1.256  0.9055  0.5495 -0.8355
 4060SOL    HW213080   4.746   5.453   1.257  0.4431 -0.3059 -0.5046
 4061SOL     OW13081   4.551   3.916   6.338  0.3023  0.1123 -0.0427
 4061SOL    HW113082   4.555   3.869   6.426 -0.1364 -0.1039 -0.1325
 4061SOL    HW213083   4.455   3.925   6.309  0.4931 -1.2975 -1.2689
 4062SOL     OW13084   5.356   3.885   4.877  0.0278  0.2883  0.3282
 4062SOL    HW113085   5.273   3.916   4.832 -0.1651  1.1355  1.2072
 4062SOL    HW213086   5.362   3.927   4.968  1.2452 -0.0182  0.4144
 4063SOL     OW13087   2.822   6.106   6.894  0.3246 -0.2321 -0.2134
 4063SOL    HW113088   2.885   6.180   6.919 -2.1286  2.6520 -1.8530
 4063SOL    HW213089   2.749   6.101   6.963 -0.6358  0.3631 -1.1575
 4064SOL     OW13090   6.210   0.242   4.660  0.1549 -0.2019 -0.7083
 4064SOL    HW113091   6.207   0.148   4.692 -1.6670  0.2196  0.5804
 4064SOL    HW213092   6.304   0.275   4.659  0.5839 -1.0416  2.0221
 4065SOL     OW13093   3.512   2.973   0.678 -0.4986 -0.3432 -0.0302
 4065SOL    HW113094   3.586   2.982   0.745 -0.8250  0.5208  0.2267
 4065SOL    HW213095   3.493   3.062   0.638  0.2442 -0.9784 -1.8950
 4066SOL     OW13096   6.716   5.731   3.627 -0.2369  0.9858 -0.4736
 4066SOL    HW113097   6.620   5.706   3.635  0.0267 -0.1764 -0.7580
 4066SOL    HW213098   6.739   5.744   3.530  0.0119  0.7651 -0.4440
 4067SOL     OW13099   1.905   2.151   1.755  0.0028  0.0188 -0.1441
 4067SOL    HW113100   1.847   2.069   1.744 -0.8810  0.6555 -0.3353
 4067SOL    HW213101   1.967   2.158   1.677 -1.5008  0.7549 -1.3303
 4068SOL     OW13102   0.172   6.768   6.774  0.7046  0.1406 -0.0775
 4068SOL    HW113103   0.116   6.752   6.693 -1.1163  1.5712  0.8195
 4068SOL    HW213104   0.145   6.704   6.846 -0.2933  1.2802  0.5815
 4069SOL     OW13105   5.239   0.347   2.659 -0.3676  0.4588  0.4079
 4069SOL    HW113106   5.159   0.383   2.706 -1.3321 -0.2339 -0.6435
 4069SOL    HW213107   5.272   0.265   2.707 -1.0285  0.0572  0.1988
 4070SOL     OW13108   0.929   3.452   2.262  0.1860  0.4363  0.1207
 4070SOL    HW113109   0.921   3.410   2.352 -0.7815  1.2872  0.4611
 4070SOL    HW213110   0.930   3.382   2.191  0.8292 -0.2353  0.7875
 4071SOL     OW13111   1.778   6.022   3.993 -0.5095  0.1269 -0.5064
 4071SOL    HW113112   1.854   6.085   3.979 -0.7854  0.2213 -1.6880
 4071SOL    HW213113   1.694   6.061   3.954 -0.5315 -1.2652 -1.9688
 4072SOL     OW13114   1.090   0.096   2.236 -0.2454 -0.4123  0.0986
 4072SOL    HW113115   1.121   0.030   2.305  2.1988 -0.0344 -0.5317
 4072SOL    HW213116   1.076   0.048   2.149  0.2821 -0.3312 -0.0373
 4073SOL     OW13117   1.591   2.281   3.688 -0.4758  0.5179  0.5349
 4073SOL    HW113118   1.496   2.298   3.714 -0.9455 -0.2422 -0.5915
 4073SOL    HW213119   1.620   2.349   3.620 -0.2325  0.7096  0.8284
 4074SOL     OW13120   4.193   0.104   5.207 -0.1079 -0.2581 -0.0948
 4074SOL    HW113121   4.144   0.062   5.283 -1.6830  1.2624 -0.2134
 4074SOL    HW213122   4.268   0.160   5.241  0.0814 -0.6965  0.2234
 4075SOL     OW13123   1.190   5.379   5.262  1.1023  0.0722  0.0677
 4075SOL    HW113124   1.107   5.351   5.214  1.1494 -1.9430  1.0574
 4075SOL    HW213125   1.198   5.479   5.260 -0.9933  0.2672 -0.6124
 4076SOL     OW13126   4.801   0.460   1.839  0.3903  0.2012 -0.4227
 4076SOL    HW113127   4.831   0.524   1.910  0.0880  0.8168 -0.8438
 4076SOL    HW213128   4.877   0.442   1.777  0.8576 -0.8669  0.4293
 4077SOL     OW13129   4.569   0.983   6.027  0.1314  0.0721 -0.3279
 4077SOL    HW113130   4.497   1.012   5.964 -1.1561 -1.0772  0.5461
 4077SOL    HW213131   4.527   0.938   6.106  1.8065 -0.2316  0.4209
 4078SOL     OW13132   5.300   5.592   0.453  0.0333  0.2879  0.1560
 4078SOL    HW113133   5.393   5.558   0.442  0.2916  0.6643  1.1178
 4078SOL    HW213134   5.279   5.657   0.381  0.5198  0.2257 -0.0434
 4079SOL     OW13135   4.786   5.006   4.571 -0.6474  0.9089 -0.7218
 4079SOL    HW113136   4.713   5.072   4.587  0.1826  1.7968 -0.5269
 4079SOL    HW213137   4.834   4.987   4.657  1.0269  2.3546 -1.2759
 4080SOL     OW13138   2.801   0.806   1.178  0.2223  0.2038 -0.0299
 4080SOL    HW113139   2.713   0.818   1.222  0.6736 -0.7834  1.1920
 4080SOL    HW213140   2.873   0.802   1.247  0.8306 -2.6035 -0.7186
 4081SOL     OW13141   2.022   6.541   5.577  0.3606  0.2073 -0.2731
 4081SOL    HW113142   2.039   6.462   5.637 -1.4258  0.1525  0.2284
 4081SOL    HW213143   2.029   6.513   5.482  2.5286  0.1261 -0.1400
 4082SOL     OW13144   3.790   5.526   4.845 -0.0404 -0.3141  0.1515
 4082SOL    HW113145   3.873   5.509   4.897 -0.3113 -1.8520  0.1161
 4082SOL    HW213146   3.714   5.540   4.908 -0.2953 -1.8058  0.2127
 4083SOL     OW13147   1.711   5.058   0.110 -0.1359  0.3359  0.3473
 4083SOL    HW113148   1.764   5.022   0.187 -0.7202 -2.9237 -0.6323
 4083SOL    HW213149   1.767   5.056   0.027 -0.0859  2.1350  0.3048
 4084SOL     OW13150   1.755   4.937   1.471 -0.5050  0.1746 -0.4983
 4084SOL    HW113151   1.790   4.916   1.562 -0.1912 -0.0254 -0.6623
 4084SOL    HW213152   1.823   4.991   1.421  0.0508 -1.1224 -1.2011
 4085SOL     OW13153   0.636   3.428   5.850  0.2976 -0.1344  0.1506
 4085SOL    HW113154   0.612   3.381   5.765 -0.9182  0.0177  0.3883
 4085SOL    HW213155   0.575   3.506   5.863  1.9173  1.2070  0.0427
 4086SOL     OW13156   4.934   2.830   3.572 -0.0174 -0.3282 -0.3135
 4086SOL    HW113157   5.028   2.862   3.585  0.3026 -0.8458 -1.2230
 4086SOL    HW213158   4.906   2.776   3.651 -0.4152  1.7531  1.0338
 4087SOL     OW13159   6.876   3.689   5.107  0.2340 -0.0905  0.4503
 4087SOL    HW113160   6.846   3.605   5.061  0.9775 -0.0273 -0.1580
 4087SOL    HW213161   6.940   3.738   5.049 -0.4380  1.0768  0.6607
 4088SOL     OW13162   2.246   5.157   5.194  0.3285  0.5490  0.4626
 4088SOL    HW113163   2.156   5.170   5.237  1.4817  2.1576  2.5814
 4088SOL    HW213164   2.285   5.070   5.224  0.2682  0.7278  1.0686
 4089SOL     OW13165   3.820   2.785   6.548 -0.6122 -0.0996  0.2130
 4089SOL    HW113166   3.744   2.803   6.486 -1.0322 -1.0022  0.4543
 4089SOL    HW213167   3.892   2.736   6.498 -1.1400 -1.2237  0.5423
 4090SOL     OW13168   6.580   5.393   2.574  0.1931  1.1067 -0.1283
 4090SOL    HW113169   6.490   5.369   2.609  0.3506 -1.3490 -1.1946
 4090SOL    HW213170   6.631   5.445   2.643 -0.6997 -0.6494  1.9387
 4091SOL     OW13171   6.167   4.283   2.813  0.3502  0.2015  0.4462
 4091SOL    HW113172   6.088   4.316   2.761 -0.2352 -1.2687  0.3465
 4091SOL    HW213173   6.238   4.253   2.749  0.9196  1.3026  0.5359
 4092SOL     OW13174   5.925   5.707   6.139  0.1221  0.0497 -0.1896
 4092SOL    HW113175   5.840   5.662   6.111  0.4538 -0.3453 -0.5678
 4092SOL    HW213176   5.998   5.639   6.146  0.4717  0.4305 -0.1214
 4093SOL     OW13177   2.397   5.700   1.485 -0.5000  0.5857  0.0216
 4093SOL    HW113178   2.331   5.632   1.518 -0.4398  0.6883  0.3473
 4093SOL    HW213179   2.485   5.686   1.530 -0.7485  1.4942  0.8181
 4094SOL     OW13180   5.566   5.645   5.204  0.4201  0.3630 -0.2518
 4094SOL    HW113181   5.489   5.695   5.245  0.1041 -0.0297 -0.3643
 4094SOL    HW213182   5.543   5.619   5.110 -0.9835 -3.2412  0.9058
 4095SOL     OW13183   3.658   6.682   3.516  0.1217  0.2098  0.0970
 4095SOL    HW113184   3.657   6.594   3.564  0.8266 -0.8820 -1.7672
 4095SOL    HW213185   3.714   6.674   3.433 -1.0227  2.0012 -0.9162
 4096SOL     OW13186   2.276   5.709   2.122 -0.0125 -0.3214 -0.2456
 4096SOL    HW113187   2.356   5.658   2.151  2.0487  0.9862 -3.1122
 4096SOL    HW213188   2.271   5.795   2.172  0.2237 -0.5060  0.1003
 4097SOL     OW13189   2.486   2.162   3.234  0.7722 -0.9195  0.0808
 4097SOL    HW113190   2.484   2.193   3.329 -3.1465 -0.1796 -0.0678
 4097SOL    HW213191   2.447   2.070   3.228 -1.8934  0.1673 -0.9641
 4098SOL     OW13192   0.064   0.655   6.172 -0.2899 -0.0974  0.0139
 4098SOL    HW113193   0.031   0.587   6.107 -1.4532 -0.9640  1.4632
 4098SOL    HW213194   0.046   0.624   6.265  2.2544  0.6300  0.8289
 4099SOL     OW13195   1.811   6.694   0.459 -0.0811 -0.2870 -0.1229
 4099SOL    HW113196   1.715   6.692   0.486 -0.1262 -1.5631 -0.3016
 4099SOL    HW213197   1.866   6.729   0.535 -0.7343  1.0161 -0.2316
 4100SOL     OW13198   3.390   2.904   2.049  0.2297  0.4337 -0.0757
 4100SOL    HW113199   3.485   2.889   2.077  0.1475 -0.6330 -0.3374
 4100SOL    HW213200   3.384   2.987   1.994  0.9297  0.7589  0.3224
 4101SOL     OW13201   2.447   2.629   4.940  0.0525  0.2813 -0.2378
 4101SOL    HW113202   2.521   2.598   4.999  1.4660 -0.0829 -2.1241
 4101SOL    HW213203   2.380   2.555   4.930  0.9324 -0.4497 -0.8399
 4102SOL     OW13204   6.978   1.074   4.086  0.1750  0.2176 -0.3275
 4102SOL    HW113205   7.010   1.167   4.068  0.3955 -0.0296 -1.2762
 4102SOL    HW213206   6.946   1.067   4.180 -0.1989  1.3529 -0.3573
 4103SOL     OW13207   2.386   4.493   3.681 -0.6430  0.2777  0.2687
 4103SOL    HW113208   2.447   4.480   3.603  0.1492  1.4754  0.6587
 4103SOL    HW213209   2.345   4.405   3.707  1.6529 -0.7663  0.6024
 4104SOL     OW13210   6.063   2.379   2.475 -0.0837 -0.4276  0.3663
 4104SOL    HW113211   6.003   2.379   2.555 -0.4286 -0.2886  0.1150
 4104SOL    HW213212   6.059   2.289   2.431 -1.8962  0.2136 -0.9370
 4105SOL     OW13213   6.867   0.362   6.965  0.5430 -0.7835 -0.0853
 4105SOL    HW113214   6.805   0.386   7.040  1.5267 -0.9582  0.8029
 4105SOL    HW213215   6.897   0.267   6.976 -0.4349 -1.2920 -1.5219
 4106SOL     OW13216   0.091   1.650   3.119 -0.0892  0.1104  0.3520
 4106SOL    HW113217   0.123   1.573   3.175  1.2803 -0.3254 -0.9796
 4106SOL    HW213218   0.002   1.627   3.079 -0.1549 -0.3719  0.7544
 4107SOL     OW13219   3.288   6.530   2.252 -0.4670  0.1634  0.5075
 4107SOL    HW113220   3.272   6.442   2.298  0.9910 -0.6959 -0.5702
 4107SOL    HW213221   3.205   6.585   2.258 -1.5722 -1.4569  0.8267
 4108SOL     OW13222   6.985   3.179   6.066  0.2947 -0.1417 -0.0699
 4108SOL    HW113223   7.024   3.260   6.109 -4.4864  1.2668  2.3419
 4108SOL    HW213224   6.958   3.200   5.972  2.3412 -0.2348 -0.7290
 4109SOL     OW13225   5.532   4.382   0.008  0.2415 -0.3475 -0.3910
 4109SOL    HW113226   5.469   4.308  -0.016 -0.0484 -0.5447  0.8860
 4109SOL    HW213227   5.606   4.387  -0.059  0.3615 -1.9022 -0.4033
 4110SOL     OW13228   5.502   2.464   4.556 -0.1623  0.4816 -0.2093
 4110SOL    HW113229   5.451   2.531   4.502 -1.3246  0.0095  0.2607
 4110SOL    HW213230   5.516   2.499   4.649 -1.5246 -0.2275  0.2979
 4111SOL     OW13231   6.489   1.178   5.098  0.5973 -0.3039 -0.0315
 4111SOL    HW113232   6.429   1.107   5.062  1.1152 -0.9778  0.4188
 4111SOL    HW213233   6.516   1.239   5.023 -0.1519 -0.3498 -0.3493
 4112SOL     OW13234   2.956   6.248   4.004  0.1210  0.0097  0.2692
 4112SOL    HW113235   3.050   6.276   3.987 -0.6408  1.9515 -1.2696
 4112SOL    HW213236   2.949   6.206   4.094  2.3722  0.1679  0.5751
 4113SOL     OW13237   2.250   6.394   1.943 -0.3703  0.1053  0.0580
 4113SOL    HW113238   2.329   6.447   1.972 -0.2471 -0.5426  0.9700
 4113SOL    HW213239   2.279   6.301   1.920 -0.7882  0.0144 -0.1107
 4114SOL     OW13240   2.888   2.141   3.293  0.2820  0.1644  0.9803
 4114SOL    HW113241   2.985   2.135   3.317 -0.0939 -2.8312  2.2641
 4114SOL    HW213242   2.841   2.200   3.359  1.1704  1.4968  0.4494
 4115SOL     OW13243   6.518   3.097   5.580  0.0301  0.3619  0.1553
 4115SOL    HW113244   6.466   3.034   5.523 -0.8941 -0.0530  1.4017
 4115SOL    HW213245   6.533   3.183   5.532  1.2267 -0.7395 -1.5499
 4116SOL     OW13246   3.074   0.451   5.500  0.5444 -0.3535 -0.3155
 4116SOL    HW113247   3.017   0.532   5.485  0.7784 -0.6311 -3.2613
 4116SOL    HW213248   3.124   0.461   5.586 -1.9364  1.0607  1.0900
 4117SOL     OW13249   6.808   0.240   4.756 -0.0579  0.3547 -0.1477
 4117SOL    HW113250   6.749   0.248   4.836 -1.1785 -1.1188 -0.7646
 4117SOL    HW213251   6.863   0.323   4.746 -2.3897  2.0422  0.1893
 4118SOL     OW13252   6.116   5.278   2.786  0.3017 -0.1177  0.1360
 4118SOL    HW113253   6.088   5.212   2.717 -0.1371  1.4232 -1.2101
 4118SOL    HW213254   6.051   5.275   2.862  0.9905 -2.0767  0.7243
 4119SOL     OW13255   5.047   0.317   2.006  0.1212 -0.2271 -0.3716
 4119SOL    HW113256   5.000   0.371   2.076  0.0817 -0.2861 -0.3528
 4119SOL    HW213257   4.984   0.250   1.967 -0.1510  0.5116 -1.2133
 4120SOL     OW13258   1.241   6.498   0.032 -0.5102  0.2872 -0.4192
 4120SOL    HW113259   1.291   6.581   0.055  0.8941 -0.2315 -1.4008
 4120SOL    HW213260   1.274   6.422   0.090 -0.2641 -0.0299 -0.9695
 4121SOL     OW13261   4.537   0.536   2.389 -0.5578  0.2911 -0.0524
 4121SOL    HW113262   4.470   0.569   2.456 -0.0835  0.4021  0.3697
 4121SOL    HW213263   4.492   0.525   2.300 -1.4565 -0.9164  0.5343
 4122SOL     OW13264   2.558   4.708   5.531  0.1607 -0.7760 -0.3217
 4122SOL    HW113265   2.597   4.730   5.441 -2.9354  1.1682 -1.3368
 4122SOL    HW213266   2.464   4.675   5.520 -0.8365  0.9021  2.2242
 4123SOL     OW13267   1.188   6.126   6.966  0.1393  0.2627 -0.0416
 4123SOL    HW113268   1.145   6.211   6.995 -2.7672 -1.0027 -0.2496
 4123SOL    HW213269   1.278   6.145   6.927  0.7164  2.8790  2.3101
 4124SOL     OW13270   1.704   2.797   2.680 -0.0635 -0.2855  0.1929
 4124SOL    HW113271   1.757   2.871   2.638  0.1279  0.1914  1.2318
 4124SOL    HW213272   1.738   2.782   2.773  0.4285 -2.2208 -0.2631
 4125SOL     OW13273   5.341   0.439   5.149  0.4277  0.4901 -0.5325
 4125SOL    HW113274   5.304   0.486   5.228 -0.7492 -1.8141  0.3855
 4125SOL    HW213275   5.292   0.468   5.067 -1.1325  0.0121  0.1828
 4126SOL     OW13276   2.324   5.224   4.105 -0.9899  0.5763  0.5814
 4126SOL    HW113277   2.241   5.255   4.057 -1.9842  0.6764  2.2559
 4126SOL    HW213278   2.300   5.202   4.200  0.7837 -0.1336  0.8920
 4127SOL     OW13279   5.721   2.388   2.867 -0.3934  0.7134  0.4404
 4127SOL    HW113280   5.670   2.442   2.800  0.0554  0.8277  0.1918
 4127SOL    HW213281   5.656   2.337   2.924 -0.7776  0.6074 -0.0842
 4128SOL     OW13282   5.300   2.518   2.787  0.0201  0.2664  0.3845
 4128SOL    HW113283   5.279   2.568   2.871 -2.2139 -0.0247  0.0792
 4128SOL    HW213284   5.251   2.560   2.711  0.0028 -0.9562 -0.3030
 4129SOL     OW13285   1.129   4.096   5.521 -0.4707 -0.1399  0.1739
 4129SOL    HW113286   1.073   4.169   5.484  0.7644  2.0222  2.3073
 4129SOL    HW213287   1.201   4.072   5.455  0.4640  2.1817  0.2672
 4130SOL     OW13288   2.973   3.122   1.758  0.0024 -0.3604  0.4598
 4130SOL    HW113289   2.898   3.185   1.737 -0.2082 -0.7286  0.0950
 4130SOL    HW213290   3.012   3.144   1.848 -1.9574 -1.5514  1.6540
 4131SOL     OW13291   4.627   2.112   6.970  0.1463 -0.1001  0.2703
 4131SOL    HW113292   4.636   2.177   6.894  1.8666 -0.1478  0.4010
 4131SOL    HW213293   4.610   2.162   7.055 -1.9438 -0.0536 -0.1120
 4132SOL     OW13294   2.370   2.490   0.641 -0.0734  0.2873 -0.0534
 4132SOL    HW113295   2.384   2.422   0.712  1.0156  0.0788 -0.4507
 4132SOL    HW213296   2.334   2.574   0.682  1.2635  0.4358  0.8700
 4133SOL     OW13297   4.155   6.773   6.164 -0.0665  0.1556 -0.4144
 4133SOL    HW113298   4.227   6.816   6.109 -0.6330  1.4296 -0.1778
 4133SOL    HW213299   4.067   6.811   6.138 -0.3208  1.0032  1.5719
 4134SOL     OW13300   2.173   0.871   6.038  0.0458 -0.6311  0.2275
 4134SOL    HW113301   2.255   0.921   6.067 -0.7247  0.1122  1.1995
 4134SOL    HW213302   2.114   0.856   6.117 -0.9695 -0.7493 -0.5398
 4135SOL     OW13303   1.005   6.065   2.615 -0.1674  0.1571  0.2116
 4135SOL    HW113304   1.093   6.079   2.571  1.3233 -0.9438  2.6140
 4135SOL    HW213305   1.018   6.061   2.714 -3.0587  0.7544  0.6992
 4136SOL     OW13306   1.180   3.653   5.988 -0.1481  0.4839  0.0781
 4136SOL    HW113307   1.217   3.646   6.081  1.1868  2.5535 -0.2309
 4136SOL    HW213308   1.187   3.564   5.943  2.2737  0.1764  0.8970
 4137SOL     OW13309   0.203   6.638   3.355 -0.2037  0.3683 -0.4357
 4137SOL    HW113310   0.116   6.666   3.312 -1.3651 -1.4975  0.5792
 4137SOL    HW213311   0.189   6.554   3.407  1.7963  1.0524  1.3412
 4138SOL     OW13312   2.940   5.358   1.474 -0.3619 -0.0238 -0.0405
 4138SOL    HW113313   2.927   5.259   1.461  0.4821 -0.0117 -1.2017
 4138SOL    HW213314   3.025   5.374   1.525 -0.9910  0.0835  0.9827
 4139SOL     OW13315   0.910   4.325   5.411  0.1673  0.0787 -0.9501
 4139SOL    HW113316   0.946   4.411   5.377 -1.2049  0.2083 -2.1773
 4139SOL    HW213317   0.875   4.337   5.505 -1.2650  1.2434 -1.5942
 4140SOL     OW13318   6.693   1.999   3.635 -0.2171 -0.4339 -0.7192
 4140SOL    HW113319   6.708   2.085   3.587  0.3556 -1.9255 -3.4173
 4140SOL    HW213320   6.689   2.016   3.733  1.8740  2.3840 -1.0032
 4141SOL     OW13321   2.490   4.128   1.264 -0.3128  0.5550 -0.1186
 4141SOL    HW113322   2.588   4.137   1.284  0.1747 -2.1323 -0.8678
 4141SOL    HW213323   2.465   4.189   1.189  1.5419 -0.7817 -1.9385
 4142SOL     OW13324   1.669   3.505   4.069 -0.7502  0.4383 -0.2934
 4142SOL    HW113325   1.627   3.592   4.044  0.2988  0.9965 -0.1787
 4142SOL    HW213326   1.733   3.520   4.144 -0.9036 -0.5224  0.0358
 4143SOL     OW13327   4.022   4.888   2.137  0.3432  0.0562  0.2340
 4143SOL    HW113328   4.050   4.887   2.041  0.6997 -0.4231  0.3369
 4143SOL    HW213329   4.079   4.824   2.189  0.8036  1.0346  0.9561
 4144SOL     OW13330   6.842   5.631   5.326  0.4841  0.2174  0.3176
 4144SOL    HW113331   6.879   5.638   5.234  0.3265  1.6050  0.3430
 4144SOL    HW213332   6.794   5.716   5.350 -2.5187 -1.3372  0.3767
 4145SOL     OW13333   2.233   4.970   0.380  0.6698 -0.2299  0.3877
 4145SOL    HW113334   2.285   4.920   0.450  0.7448 -0.6594  0.0285
 4145SOL    HW213335   2.135   4.958   0.398  0.6806  0.8007  1.2207
 4146SOL     OW13336   3.549   2.686   5.852 -0.0368  0.2411  0.3990
 4146SOL    HW113337   3.612   2.644   5.916 -1.4659  0.3551  1.9508
 4146SOL    HW213338   3.487   2.747   5.901 -2.7147 -1.4381 -0.6647
 4147SOL     OW13339   0.656   6.691   4.789 -0.5448  0.4213  0.5699
 4147SOL    HW113340   0.631   6.715   4.882 -1.3192 -0.3501  0.5784
 4147SOL    HW213341   0.656   6.591   4.779 -3.6587  0.4448 -1.0329
 4148SOL     OW13342   1.754   1.092   1.122  0.3994  0.8101 -0.3156
 4148SOL    HW113343   1.745   1.056   1.215 -0.7994  4.0314  0.9459
 4148SOL    HW213344   1.696   1.172   1.112  1.9093  1.6589 -3.2947
 4149SOL     OW13345   4.245   1.457   1.333 -0.1841 -0.4461 -0.3988
 4149SOL    HW113346   4.273   1.540   1.285  0.1816 -0.6060 -0.4667
 4149SOL    HW213347   4.291   1.452   1.421 -0.6619 -0.2797 -0.1364
 4150SOL     OW13348   6.090   0.954   4.696 -0.4559  0.0103 -0.8137
 4150SOL    HW113349   6.169   0.907   4.657  0.6045  0.8210  0.2874
 4150SOL    HW213350   6.081   1.045   4.656  0.8188  0.9641  0.9603
 4151SOL     OW13351   3.384   1.062   2.463  0.1263  0.1248 -0.6168
 4151SOL    HW113352   3.397   0.964   2.482 -0.0986 -0.0852 -1.5111
 4151SOL    HW213353   3.465   1.112   2.492 -0.7284  0.0447  2.2256
 4152SOL     OW13354   1.710   6.435   5.050  0.4511  0.8075 -0.5357
 4152SOL    HW113355   1.712   6.423   4.950  1.4213  1.2589 -0.5744
 4152SOL    HW213356   1.761   6.517   5.074  1.6860 -0.2253  0.4793
 4153SOL     OW13357   5.445   5.275   5.576 -0.1050 -0.3645  0.4402
 4153SOL    HW113358   5.385   5.198   5.599 -1.4374  0.9277  1.5179
 4153SOL    HW213359   5.528   5.270   5.631  0.6986 -2.0244 -0.8568
 4154SOL     OW13360   4.300   4.093   1.696  0.2270 -0.2586  0.9946
 4154SOL    HW113361   4.296   3.999   1.730  1.6072 -0.9093 -0.4953
 4154SOL    HW213362   4.360   4.147   1.756 -0.2607 -0.4185  1.6373
 4155SOL     OW13363   1.746   2.243   0.169 -0.2606 -0.7905 -0.3161
 4155SOL    HW113364   1.656   2.267   0.206  0.4826  1.2994  0.2592
 4155SOL    HW213365   1.769   2.306   0.095  1.6880  0.2812  1.0950
 4156SOL     OW13366   0.502   6.836   2.875 -0.1590 -0.2819  0.0781
 4156SOL    HW113367   0.528   6.928   2.846 -1.8442  0.0060 -0.6192
 4156SOL    HW213368   0.569   6.802   2.941  0.2839  1.5793  0.6537
 4157SOL     OW13369   0.853   0.318   3.625 -0.0156  0.2400 -0.1544
 4157SOL    HW113370   0.862   0.218   3.626 -0.7803  0.1669 -0.1269
 4157SOL    HW213371   0.795   0.347   3.701 -0.4032  0.6403 -0.5997
 4158SOL     OW13372   5.131   6.079   1.485  0.0685 -0.7412 -0.2526
 4158SOL    HW113373   5.111   5.999   1.542 -0.9905  0.3577  0.9819
 4158SOL    HW213374   5.046   6.128   1.465  0.7792  0.5180 -0.2999
 4159SOL     OW13375   2.016   0.414   1.272  0.0171  0.2569  0.0536
 4159SOL    HW113376   2.077   0.457   1.205 -1.0504 -1.9089 -2.4707
 4159SOL    HW213377   1.928   0.461   1.272  0.2878  0.7850  0.6212
 4160SOL     OW13378   1.493   5.102   3.051 -0.0975 -0.7330 -0.3575
 4160SOL    HW113379   1.472   5.143   2.963  1.2242  0.9062  0.0366
 4160SOL    HW213380   1.546   5.019   3.037 -2.1808 -2.0049 -1.1483
 4161SOL     OW13381   2.741   2.575   1.717 -0.4018 -0.1162 -0.3512
 4161SOL    HW113382   2.673   2.508   1.747  1.5177 -1.0516  2.2912
 4161SOL    HW213383   2.827   2.560   1.766  1.3261  1.8959 -2.5145
 4162SOL     OW13384   0.172   5.907   4.029 -0.3910 -1.0582 -0.1518
 4162SOL    HW113385   0.198   5.811   4.036 -2.5878 -1.5928  1.4196
 4162SOL    HW213386   0.139   5.926   3.936  0.0956 -1.7744 -0.4828
 4163SOL     OW13387   5.519   6.684   3.740 -0.1484  0.0796  0.1013
 4163SOL    HW113388   5.421   6.666   3.747 -0.2816  0.8789  0.3154
 4163SOL    HW213389   5.540   6.775   3.775  0.7688 -0.3450  0.7213
 4164SOL     OW13390   4.891   3.189   5.566 -0.4862 -0.3520  0.2401
 4164SOL    HW113391   4.802   3.223   5.597 -0.3920  1.0148 -0.8445
 4164SOL    HW213392   4.878   3.105   5.513 -1.0752 -0.4434  0.5215
 4165SOL     OW13393   0.819   2.398   1.055 -1.0091  0.1913  0.1716
 4165SOL    HW113394   0.862   2.484   1.084  0.4051  0.0523 -1.3543
 4165SOL    HW213395   0.797   2.344   1.136 -0.2953  1.2372  1.1074
 4166SOL     OW13396   2.696   5.089   3.445 -0.4165  0.5747  0.0930
 4166SOL    HW113397   2.720   5.146   3.366  0.8403 -0.4058 -0.2678
 4166SOL    HW213398   2.776   5.078   3.504 -0.8139 -0.2819  0.4904
 4167SOL     OW13399   0.373   6.529   1.252 -0.3847 -0.1176 -0.3459
 4167SOL    HW113400   0.380   6.589   1.332  0.1314  1.1050 -1.2662
 4167SOL    HW213401   0.286   6.480   1.255 -0.8600  0.7272  0.4144
 4168SOL     OW13402   3.388   1.733   1.321  0.1672  0.5492 -0.2488
 4168SOL    HW113403   3.344   1.721   1.232 -1.0476  3.2161 -0.1097
 4168SOL    HW213404   3.358   1.819   1.362  3.3681  1.1678  1.1784
 4169SOL     OW13405   0.639   5.696   4.193  0.0248 -0.5743  0.0608
 4169SOL    HW113406   0.588   5.781   4.180  1.7028  0.4605 -0.0086
 4169SOL    HW213407   0.724   5.715   4.242  1.0345 -2.0025 -1.0504
 4170SOL     OW13408   0.987   2.891   6.917 -0.6294 -0.0050 -0.1456
 4170SOL    HW113409   1.061   2.865   6.979 -2.2278  0.3162  2.0113
 4170SOL    HW213410   1.025   2.909   6.826  1.9664  0.3700  0.9036
 4171SOL     OW13411   0.040   2.571   6.967  0.1048 -0.1034 -0.8355
 4171SOL    HW113412   0.127   2.619   6.981 -0.2284  0.5825 -1.1147
 4171SOL    HW213413   0.049   2.509   6.889  0.1382  0.4679 -1.2900
 4172SOL     OW13414   6.636   4.739   0.722  0.2006 -0.8710 -0.4992
 4172SOL    HW113415   6.690   4.730   0.806 -0.0564  2.0878  0.1075
 4172SOL    HW213416   6.685   4.797   0.657 -1.0536 -0.3599 -1.0268
 4173SOL     OW13417   0.414   2.432   2.252  0.8255 -0.0022 -0.1792
 4173SOL    HW113418   0.452   2.516   2.213  1.1526  0.0833  0.3154
 4173SOL    HW213419   0.363   2.454   2.336  0.7236 -0.2677 -0.1701
 4174SOL     OW13420   5.009   6.745   1.130 -0.0454 -0.0654 -0.6532
 4174SOL    HW113421   5.005   6.646   1.140 -1.1541  0.0163 -0.1520
 4174SOL    HW213422   5.092   6.780   1.174 -0.0160 -0.6977 -0.1988
 4175SOL     OW13423   2.810   3.129   0.313  0.2365  0.3049 -0.7617
 4175SOL    HW113424   2.871   3.089   0.245  0.1096  2.2097 -2.0822
 4175SOL    HW213425   2.845   3.109   0.405  1.8057 -0.2250 -1.4391
 4176SOL     OW13426   2.779   1.454   5.558 -0.3135  0.4022 -0.0888
 4176SOL    HW113427   2.707   1.415   5.615 -1.7001  1.5178 -1.0180
 4176SOL    HW213428   2.767   1.424   5.464  0.5538  0.4750 -0.2298
 4177SOL     OW13429   4.482   6.397   0.143  0.4132 -0.4028  0.2236
 4177SOL    HW113430   4.421   6.401   0.222 -0.6114 -0.3112 -0.5547
 4177SOL    HW213431   4.521   6.305   0.136  0.6715 -0.3526  0.9468
 4178SOL     OW13432   2.001   0.652   4.110 -0.0082 -0.2374  0.3628
 4178SOL    HW113433   2.095   0.618   4.106 -0.3074 -1.1658  0.7926
 4178SOL    HW213434   1.994   0.738   4.059  1.0798 -0.1239  0.3752
 4179SOL     OW13435   2.658   1.726   4.024 -0.1938 -0.6929 -0.1878
 4179SOL    HW113436   2.613   1.772   4.100 -0.8415  0.4275 -1.2154
 4179SOL    HW213437   2.701   1.642   4.056  0.2277  0.1509  1.5640
 4180SOL     OW13438   0.745   0.640   2.084 -0.0764  0.5598  0.1464
 4180SOL    HW113439   0.678   0.574   2.049  0.2553  0.2463  0.1060
 4180SOL    HW213440   0.746   0.721   2.025  1.5902 -0.5996 -1.5237
 4181SOL     OW13441   3.156   2.232   3.507  0.1473  0.3238  0.1956
 4181SOL    HW113442   3.142   2.331   3.518 -1.1226  0.2943 -0.9195
 4181SOL    HW213443   3.097   2.183   3.570  0.2626  0.2682  0.2599
 4182SOL     OW13444   1.690   0.300   6.082  0.0187 -0.0790 -0.1084
 4182SOL    HW113445   1.620   0.295   6.011  0.1659 -2.4059 -0.1705
 4182SOL    HW213446   1.646   0.315   6.171 -0.6116 -1.5985 -0.1363
 4183SOL     OW13447   4.018   1.824   1.554  0.9353 -0.0465 -0.0236
 4183SOL    HW113448   4.091   1.842   1.620  1.0765  0.8475 -0.4150
 4183SOL    HW213449   3.962   1.906   1.543  1.0881 -0.0908 -1.2277
 4184SOL     OW13450   1.640   0.826   5.746 -0.3178 -0.2988  0.1714
 4184SOL    HW113451   1.677   0.863   5.831  0.9490  1.3985 -1.0424
 4184SOL    HW213452   1.565   0.884   5.715  0.2572  0.0259 -0.6461
 4185SOL     OW13453   1.988   5.704   5.251 -0.5671 -0.2201  0.3164
 4185SOL    HW113454   2.018   5.609   5.254 -1.5627 -0.5366  0.6677
 4185SOL    HW213455   2.060   5.760   5.209 -1.0325 -1.5599 -2.5676
 4186SOL     OW13456   4.747   0.295   1.226  0.3355 -0.1368 -0.3834
 4186SOL    HW113457   4.821   0.278   1.290  0.9355  1.3902 -0.6197
 4186SOL    HW213458   4.687   0.215   1.221 -0.0080 -0.1338  2.4216
 4187SOL     OW13459   3.701   0.701   6.809  0.2368  0.3922  0.6638
 4187SOL    HW113460   3.606   0.698   6.779  0.2223 -1.7565  0.7861
 4187SOL    HW213461   3.713   0.642   6.889  1.9116 -0.3982 -0.1170
 4188SOL     OW13462   4.451   4.954   4.595  0.2761  0.0302 -0.0651
 4188SOL    HW113463   4.505   4.927   4.675 -0.7293 -0.3019  0.5173
 4188SOL    HW213464   4.359   4.917   4.603 -0.7302  2.3405  0.0206
 4189SOL     OW13465   1.004   6.269   4.392  0.4660  0.0232 -0.3605
 4189SOL    HW113466   0.931   6.220   4.439  0.7087 -0.2256 -0.2398
 4189SOL    HW213467   1.089   6.216   4.398  1.2566  1.3921  1.5987
 4190SOL     OW13468   6.399   3.417   5.602 -0.3895  0.2227  0.6243
 4190SOL    HW113469   6.359   3.447   5.515 -0.2895 -1.6446 -0.1197
 4190SOL    HW213470   6.498   3.406   5.590  0.0482  2.3035  1.7197
 4191SOL     OW13471   5.486   2.978   3.312 -0.1104 -0.4446  0.3008
 4191SOL    HW113472   5.538   2.988   3.397  0.1952  0.5698  0.0068
 4191SOL    HW213473   5.531   3.030   3.239 -0.5214 -1.0735 -0.4188
 4192SOL     OW13474   5.633   0.673   4.176 -0.1694  0.4377 -0.6676
 4192SOL    HW113475   5.713   0.729   4.196 -0.3682 -0.0501  1.7845
 4192SOL    HW213476   5.622   0.604   4.247 -3.6944  1.5096  0.0255
 4193SOL     OW13477   6.366   4.137   4.538  0.0759  0.1298 -0.6017
 4193SOL    HW113478   6.314   4.217   4.508 -0.6299  0.0833  0.4187
 4193SOL    HW213479   6.378   4.141   4.637  1.3834 -0.2539 -0.7287
 4194SOL     OW13480   1.315   3.068   3.800  0.0541  0.3141 -0.3797
 4194SOL    HW113481   1.382   3.079   3.726 -0.7435 -0.0798 -1.1752
 4194SOL    HW213482   1.337   2.986   3.853 -0.0779 -0.0850 -0.9387
 4195SOL     OW13483   1.213   1.559   4.566  0.6256 -0.4994 -0.0968
 4195SOL    HW113484   1.228   1.658   4.569  0.7844 -0.5319  0.1075
 4195SOL    HW213485   1.153   1.532   4.641 -1.1704 -0.2454 -1.3561
 4196SOL     OW13486   2.571   1.822   6.025 -0.2974  0.2943  0.8838
 4196SOL    HW113487   2.494   1.796   6.084  1.1322 -1.4692  2.0783
 4196SOL    HW213488   2.654   1.831   6.081  0.3651  2.4793 -0.3150
 4197SOL     OW13489   4.569   2.492   1.440  0.1818  0.1973  0.0589
 4197SOL    HW113490   4.579   2.481   1.341  0.1006 -1.7393  0.2185
 4197SOL    HW213491   4.659   2.512   1.480  0.0324  2.1613 -0.4903
 4198SOL     OW13492   1.556   1.977   4.420  0.3350  0.3798 -0.2032
 4198SOL    HW113493   1.629   1.951   4.357 -0.4680  0.5210 -1.2127
 4198SOL    HW213494   1.561   1.920   4.502 -0.6247 -2.2134 -1.8231
 4199SOL     OW13495   4.876   0.897   4.720  0.5676 -0.2498 -0.2676
 4199SOL    HW113496   4.952   0.857   4.670  0.0212 -1.0678 -0.4555
 4199SOL    HW213497   4.869   0.854   4.810  1.3357  0.9775  0.4185
 4200SOL     OW13498   1.894   1.301   2.558 -0.5462  0.5190  0.3854
 4200SOL    HW113499   1.822   1.354   2.603 -0.8419  0.0208  0.4972
 4200SOL    HW213500   1.982   1.321   2.603 -0.3566  2.2027 -0.6399
 4201SOL     OW13501   4.404   6.906   6.052 -0.2288  0.0896  0.1867
 4201SOL    HW113502   4.395   6.914   5.953  0.6251  0.1079  0.1015
 4201SOL    HW213503   4.406   6.997   6.093  2.9367  0.2794 -0.1469
 4202SOL     OW13504   0.952   1.841   4.879 -0.1576  0.1804  0.1613
 4202SOL    HW113505   0.875   1.857   4.817  1.2187  0.6995 -1.4865
 4202SOL    HW213506   0.943   1.750   4.921 -1.1227 -0.1834 -0.7954
 4203SOL     OW13507   6.327   4.514   0.715 -0.9134 -0.2899 -0.7822
 4203SOL    HW113508   6.343   4.417   0.732  0.7506  0.1608  0.5414
 4203SOL    HW213509   6.400   4.549   0.655 -0.3147  0.5535  0.4125
 4204SOL     OW13510   6.279   0.929   2.017  0.1824  0.0328  0.6944
 4204SOL    HW113511   6.240   0.837   2.006  3.6384 -1.5161  0.0488
 4204SOL    HW213512   6.336   0.932   2.098  1.2095  1.1631 -0.0278
 4205SOL     OW13513   0.008   4.255   0.466  0.2236  0.0413 -0.0828
 4205SOL    HW113514   0.031   4.170   0.513 -0.4188  0.0029  0.1783
 4205SOL    HW213515  -0.056   4.235   0.391  2.1389 -0.0683 -1.7696
 4206SOL     OW13516   0.962   3.125   5.487 -0.5343 -0.3445 -0.2742
 4206SOL    HW113517   0.947   3.198   5.422 -0.0705 -0.1466 -0.1627
 4206SOL    HW213518   0.959   3.161   5.580 -0.3837 -0.4802 -0.2152
 4207SOL     OW13519   2.370   0.671   5.708 -0.3804 -0.1399  0.5232
 4207SOL    HW113520   2.395   0.578   5.681 -0.7471 -0.1533  0.2172
 4207SOL    HW213521   2.285   0.669   5.759 -0.9302  0.1243 -0.3603
 4208SOL     OW13522   0.045   0.589   3.070 -0.0968 -0.3135 -0.1015
 4208SOL    HW113523   0.091   0.640   3.142 -0.7675  2.0097 -1.2096
 4208SOL    HW213524  -0.041   0.551   3.105 -1.4942  2.6018 -0.1119
 4209SOL     OW13525   2.444   5.608   4.472 -0.6829 -0.1400  0.6338
 4209SOL    HW113526   2.533   5.566   4.456  0.1186  1.7663 -0.2054
 4209SOL    HW213527   2.437   5.639   4.566 -0.4383 -0.2357  0.6824
 4210SOL     OW13528   4.475   6.298   1.638 -0.3870 -0.4101  0.1742
 4210SOL    HW113529   4.473   6.199   1.624  1.4790 -0.4611 -0.0185
 4210SOL    HW213530   4.505   6.318   1.732 -0.4072 -0.0382  0.1039
 4211SOL     OW13531   4.112   6.798   1.510 -0.1219 -0.2668 -0.6554
 4211SOL    HW113532   4.135   6.709   1.468  0.5491 -0.6605  0.5009
 4211SOL    HW213533   4.191   6.832   1.560 -0.3509  1.0502 -1.1549
 4212SOL     OW13534   4.228   1.648   4.519  0.2921 -0.0129 -0.0486
 4212SOL    HW113535   4.194   1.700   4.440  1.6414  1.2621  0.1638
 4212SOL    HW213536   4.180   1.677   4.601 -1.6021 -1.8276 -0.4363
 4213SOL     OW13537   3.685   6.370   6.723 -0.0057 -0.2629  0.5940
 4213SOL    HW113538   3.626   6.346   6.646 -1.3445 -1.8094  2.0307
 4213SOL    HW213539   3.773   6.324   6.713  0.4046  0.7469 -0.7360
 4214SOL     OW13540   1.057   1.315   4.560 -0.2118  0.3103 -0.1757
 4214SOL    HW113541   1.033   1.242   4.625 -0.0524  2.2827  2.2826
 4214SOL    HW213542   0.987   1.387   4.564 -0.2666  0.4314 -2.3792
 4215SOL     OW13543   4.425   0.165   0.489 -0.1150 -0.1594  0.0548
 4215SOL    HW113544   4.403   0.196   0.582 -1.0216 -1.2304  0.2199
 4215SOL    HW213545   4.477   0.236   0.442 -0.5157  0.8152  1.0327
 4216SOL     OW13546   2.981   2.107   6.592  0.0857 -0.8899  0.1460
 4216SOL    HW113547   3.005   2.128   6.497 -0.1847  1.7885  0.5846
 4216SOL    HW213548   2.922   2.179   6.628 -2.8476 -3.6303  1.3169
 4217SOL     OW13549   2.599   1.353   3.053 -0.1003  0.2054  0.2517
 4217SOL    HW113550   2.686   1.303   3.057  0.2152  0.7888  0.7763
 4217SOL    HW213551   2.586   1.403   3.138 -1.2656 -0.3810  0.4309
 4218SOL     OW13552   4.481   3.020   0.129  0.0682 -0.2487 -0.1151
 4218SOL    HW113553   4.548   3.061   0.066  1.0276 -1.5755  0.0002
 4218SOL    HW213554   4.428   3.093   0.172  0.7854  0.7941 -0.9318
 4219SOL     OW13555   5.740   5.283   6.498 -0.6498 -0.0673 -0.3154
 4219SOL    HW113556   5.804   5.254   6.570 -1.9682 -0.0574  0.9041
 4219SOL    HW213557   5.788   5.343   6.434  0.8810 -1.0740 -0.1651
 4220SOL     OW13558   3.397   3.326   2.726 -0.1842 -0.5063  0.4302
 4220SOL    HW113559   3.357   3.327   2.818  1.8492 -0.5821  1.3671
 4220SOL    HW213560   3.413   3.232   2.698  0.4357 -0.4506  0.5821
 4221SOL     OW13561   4.289   2.074   0.537 -0.7792 -0.4761 -0.1044
 4221SOL    HW113562   4.216   2.102   0.475 -2.1587 -0.1943  1.5484
 4221SOL    HW213563   4.281   2.126   0.623  0.3161 -1.6648  0.7566
 4222SOL     OW13564   1.325   1.538   5.104  0.0175 -0.1312 -0.2702
 4222SOL    HW113565   1.418   1.564   5.079  0.8646 -1.7961  0.9496
 4222SOL    HW213566   1.272   1.620   5.127  2.3769  0.7016  2.8363
 4223SOL     OW13567   4.689   0.923   5.084  0.0999 -0.3852 -0.2747
 4223SOL    HW113568   4.635   0.995   5.040  2.2427  0.5678 -1.5343
 4223SOL    HW213569   4.694   0.940   5.182 -0.7459  0.2751 -0.3378
 4224SOL     OW13570   2.213   3.735   5.675  0.0428  0.2584  0.1895
 4224SOL    HW113571   2.128   3.694   5.642 -1.7804  2.1591  2.2124
 4224SOL    HW213572   2.218   3.830   5.644  0.8015  0.5364  1.1227
 4225SOL     OW13573   4.648   4.359   1.173  0.0912  0.2195 -1.2216
 4225SOL    HW113574   4.736   4.406   1.164 -0.7558  2.3468  0.6567
 4225SOL    HW213575   4.651   4.298   1.252 -0.0765  0.2131 -1.2204
 4226SOL     OW13576   5.602   6.191   1.222 -0.0723  0.0492 -0.0757
 4226SOL    HW113577   5.595   6.279   1.174 -1.2918 -0.3752 -0.7108
 4226SOL    HW213578   5.660   6.129   1.169  0.9732  0.5176  0.4833
 4227SOL     OW13579   1.999   1.861   3.094  0.3201 -0.1160  0.1808
 4227SOL    HW113580   1.971   1.904   3.179  0.7180 -0.0114  0.2617
 4227SOL    HW213581   2.042   1.928   3.034 -1.8304  0.3048 -0.9982
 4228SOL     OW13582   0.855   1.095   5.632 -0.0570 -0.0729 -0.4165
 4228SOL    HW113583   0.865   1.179   5.579 -2.1892  0.2644 -0.3917
 4228SOL    HW213584   0.821   1.022   5.573  1.3764 -0.8371 -0.3426
 4229SOL     OW13585   4.228   4.455   6.261  0.5031  0.3074 -0.6891
 4229SOL    HW113586   4.303   4.460   6.195  1.2644 -0.0446  0.1198
 4229SOL    HW213587   4.213   4.360   6.288 -0.1433  0.3914 -0.7353
 4230SOL     OW13588   5.675   6.900   2.131  0.8846 -0.1109  0.1584
 4230SOL    HW113589   5.651   6.853   2.216 -1.5357  0.8232  0.0830
 4230SOL    HW213590   5.713   6.990   2.152  0.7336 -0.0694  0.2540
 4231SOL     OW13591   3.101   1.897   2.477 -0.2428  0.3160  0.0294
 4231SOL    HW113592   3.112   1.870   2.572  0.2542  0.0593 -0.0979
 4231SOL    HW213593   3.136   1.825   2.417 -1.4081  0.0623 -0.3718
 4232SOL     OW13594   6.770   0.641   3.497 -0.5012  0.2571  0.0781
 4232SOL    HW113595   6.761   0.653   3.595  1.2975  0.9229  0.1942
 4232SOL    HW213596   6.695   0.584   3.463 -3.8105  3.6791  1.0631
 4233SOL     OW13597   1.871   3.946   6.228 -0.3755 -0.9278  0.2723
 4233SOL    HW113598   1.873   3.852   6.263  0.5489 -1.2469 -0.5742
 4233SOL    HW213599   1.848   3.944   6.130 -2.8294 -0.0637  0.7624
 4234SOL     OW13600   4.395   5.739   2.203  0.1204 -0.1984  0.0067
 4234SOL    HW113601   4.413   5.650   2.159 -1.6189 -0.3790 -0.4079
 4234SOL    HW213602   4.377   5.807   2.132 -0.1762  0.0982  0.3664
 4235SOL     OW13603   3.228   6.349   5.259  0.1834  0.1064 -0.1434
 4235SOL    HW113604   3.137   6.310   5.251 -0.7249  1.5752  2.0273
 4235SOL    HW213605   3.232   6.437   5.211 -0.2163  0.9841  1.3439
 4236SOL     OW13606   3.988   4.578   7.012 -0.1941 -0.6441 -0.1080
 4236SOL    HW113607   3.921   4.511   7.045 -0.1499 -0.8135 -0.3590
 4236SOL    HW213608   3.976   4.664   7.061  0.0406 -0.9686  0.5413
 4237SOL     OW13609   2.062   2.773   4.145 -0.4990 -0.1469 -0.1905
 4237SOL    HW113610   2.115   2.701   4.189 -1.5646  0.1047  1.6041
 4237SOL    HW213611   2.011   2.824   4.214  0.3746  2.4958 -1.3639
 4238SOL     OW13612   4.250   5.702   3.899  0.3925 -0.1342 -0.2272
 4238SOL    HW113613   4.280   5.643   3.974 -0.7065 -1.3303 -0.6754
 4238SOL    HW213614   4.300   5.788   3.901  0.8246 -0.3951  1.4917
 4239SOL     OW13615   5.494   1.844   6.319 -0.0487 -0.3335 -0.6925
 4239SOL    HW113616   5.574   1.801   6.361  0.2268  0.1076 -0.7633
 4239SOL    HW213617   5.486   1.813   6.224  0.3047 -0.0272 -0.8251
 4240SOL     OW13618   3.227   4.991   5.648  0.6052  0.0798 -0.2243
 4240SOL    HW113619   3.151   5.021   5.706 -0.1381 -1.8848 -0.1265
 4240SOL    HW213620   3.213   5.024   5.555  0.1129  0.4761 -0.0164
 4241SOL     OW13621   4.866   1.528   1.832  0.3902  0.2949 -0.1022
 4241SOL    HW113622   4.929   1.579   1.774  1.2878  0.4597  0.9730
 4241SOL    HW213623   4.914   1.453   1.876 -0.7275 -1.0174 -1.0285
 4242SOL     OW13624   6.138   2.240   0.137  0.0860  0.8811  0.2998
 4242SOL    HW113625   6.183   2.152   0.151  1.3846  1.1704 -1.6216
 4242SOL    HW213626   6.097   2.243   0.046  0.5206  2.4172  0.1091
 4243SOL     OW13627   3.635   5.101   2.395  0.0470 -0.5335  0.0930
 4243SOL    HW113628   3.632   5.198   2.373  0.2738 -0.4814  0.2999
 4243SOL    HW213629   3.727   5.066   2.382 -0.0020 -0.6896  0.1626
 4244SOL     OW13630   3.773   5.683   0.461  0.5163 -0.1850  0.4445
 4244SOL    HW113631   3.771   5.718   0.368 -3.0628  0.3494  0.5859
 4244SOL    HW213632   3.793   5.758   0.525  0.8455 -0.1137  0.2612
 4245SOL     OW13633   3.113   5.103   2.722 -0.0179 -0.8883  0.7232
 4245SOL    HW113634   3.192   5.046   2.743  0.2488 -1.2779 -1.1026
 4245SOL    HW213635   3.033   5.045   2.707  0.0187 -0.7349 -0.1404
 4246SOL     OW13636   2.060   2.943   0.874 -0.7097  0.6747  0.0761
 4246SOL    HW113637   1.995   2.946   0.798  0.5020 -0.8441 -1.0930
 4246SOL    HW213638   2.092   3.035   0.894  0.9085  0.9290 -3.0688
 4247SOL     OW13639   6.292   4.021   2.324  0.2098  0.2295 -0.2088
 4247SOL    HW113640   6.368   4.047   2.384 -0.3643  1.0237  0.2092
 4247SOL    HW213641   6.315   4.044   2.230  0.9778 -0.6948 -0.2642
 4248SOL     OW13642   2.111   3.539   4.992  0.0242 -0.1446 -1.1788
 4248SOL    HW113643   2.130   3.459   5.048 -2.2708 -0.7979 -1.2093
 4248SOL    HW213644   2.053   3.603   5.043  1.8086  1.5533 -1.1491
 4249SOL     OW13645   5.222   0.750   4.425  0.5357  0.2975  0.0791
 4249SOL    HW113646   5.247   0.755   4.329  1.2812  1.8138  0.3233
 4249SOL    HW213647   5.266   0.825   4.475  0.5152 -0.7217  1.6812
 4250SOL     OW13648   0.417   1.745   0.936  0.7243  0.3899 -0.2799
 4250SOL    HW113649   0.381   1.739   0.844 -0.8493  0.7023  0.2862
 4250SOL    HW213650   0.374   1.821   0.985  0.3256 -0.7350  1.2109
 4251SOL     OW13651   6.593   4.148   4.917 -0.4624 -0.3258 -0.0404
 4251SOL    HW113652   6.632   4.232   4.878 -1.7439  0.6277  0.6304
 4251SOL    HW213653   6.640   4.127   5.002 -1.7033  1.1726  1.0911
 4252SOL     OW13654   5.668   3.830   5.142 -0.4319  0.2045  0.6453
 4252SOL    HW113655   5.594   3.895   5.158 -1.6344 -0.9777  0.0962
 4252SOL    HW213656   5.742   3.876   5.092 -0.4898  1.5719  1.7597
 4253SOL     OW13657   3.291   2.891   4.877  0.3268 -0.1210 -0.7743
 4253SOL    HW113658   3.246   2.924   4.794  0.9992  2.4760 -0.2057
 4253SOL    HW213659   3.375   2.843   4.853 -0.7463 -1.6292 -1.6574
 4254SOL     OW13660   1.214   0.872   2.237  0.7202  0.1691  0.1814
 4254SOL    HW113661   1.294   0.852   2.294  0.0897 -1.6151  0.4907
 4254SOL    HW213662   1.240   0.869   2.141  1.0756 -0.1391  0.2872
 4255SOL     OW13663   1.342   0.027   5.089 -0.3798 -0.2508 -0.4294
 4255SOL    HW113664   1.242   0.041   5.089 -0.2058  1.1734  0.0407
 4255SOL    HW213665   1.386   0.101   5.039  0.6033  0.8598  1.8987
 4256SOL     OW13666   0.712   4.692   1.744 -0.6686 -0.1673  0.8585
 4256SOL    HW113667   0.734   4.594   1.748  2.0423  0.4010  1.9277
 4256SOL    HW213668   0.749   4.731   1.661  1.5122  0.5844  2.1180
 4257SOL     OW13669   5.478   2.526   4.823  0.6997 -0.6437 -0.1132
 4257SOL    HW113670   5.477   2.589   4.901 -0.5248  0.8215 -1.2418
 4257SOL    HW213671   5.385   2.517   4.787  1.1331 -1.8488 -0.9669
 4258SOL     OW13672   3.530   0.135   2.998 -0.6025  0.0764  0.3462
 4258SOL    HW113673   3.600   0.125   2.927  0.1676  1.9410  0.7636
 4258SOL    HW213674   3.575   0.139   3.087 -1.2591  0.9051  0.6524
 4259SOL     OW13675   3.937   1.461   2.754 -0.0975 -0.3633  0.2503
 4259SOL    HW113676   3.872   1.386   2.768 -0.1043 -0.2997  0.5781
 4259SOL    HW213677   3.919   1.505   2.666 -2.9288  1.9675  1.8074
 4260SOL     OW13678   4.026   3.941   1.712  0.5626 -0.0128 -0.5814
 4260SOL    HW113679   4.112   3.891   1.717  1.1322  0.9126 -0.8305
 4260SOL    HW213680   4.045   4.038   1.692 -0.4651  0.4281  0.4916
 4261SOL     OW13681   1.362   5.573   5.508 -0.1758 -0.0046 -0.0039
 4261SOL    HW113682   1.340   5.504   5.577  1.6881  0.5646  1.2173
 4261SOL    HW213683   1.448   5.550   5.463  0.1060  1.1382 -0.0860
 4262SOL     OW13684   6.425   4.703   4.354  0.2639 -0.1181 -0.2162
 4262SOL    HW113685   6.359   4.689   4.428  0.5539  1.6034  0.3985
 4262SOL    HW213686   6.473   4.617   4.337 -0.0493 -0.6446  1.3586
 4263SOL     OW13687   0.138   5.250   4.389  0.1679 -0.0438  0.0659
 4263SOL    HW113688   0.211   5.317   4.375 -0.2018  0.4892  0.6542
 4263SOL    HW213689   0.168   5.183   4.456  1.7014 -2.2425 -2.5947
 4264SOL     OW13690   1.122   4.900   1.868 -0.4494 -0.1070  0.5108
 4264SOL    HW113691   1.108   4.850   1.782  0.3201 -2.5842  1.7213
 4264SOL    HW213692   1.034   4.920   1.910 -0.7816 -0.4305 -0.0241
 4265SOL     OW13693   5.066   3.022   2.361 -0.1505  0.5712 -0.2144
 4265SOL    HW113694   4.986   2.981   2.316 -0.1614 -2.0277  1.9564
 4265SOL    HW213695   5.147   2.966   2.343  1.1780  2.8666 -1.9161
 4266SOL     OW13696   6.732   0.929   2.250  0.2903 -0.4612  0.5903
 4266SOL    HW113697   6.644   0.884   2.263  0.2847 -0.6927 -0.2029
 4266SOL    HW213698   6.779   0.936   2.338 -0.3675 -0.6433  0.9633
 4267SOL     OW13699   6.932   0.705   0.521  0.0138 -0.1875  0.5385
 4267SOL    HW113700   6.940   0.803   0.540  0.7017 -0.1720  0.2266
 4267SOL    HW213701   7.017   0.660   0.548 -0.6004 -0.8333  1.4483
 4268SOL     OW13702   1.086   2.548   2.230 -0.1040  0.0917  0.0215
 4268SOL    HW113703   1.059   2.644   2.218 -2.6322 -0.4050  1.1399
 4268SOL    HW213704   1.082   2.524   2.327  2.3879 -0.6826 -0.0092
 4269SOL     OW13705   0.516   0.941   6.734 -0.1179  0.3109 -0.1954
 4269SOL    HW113706   0.498   0.874   6.806 -0.6158 -0.6928 -1.2365
 4269SOL    HW213707   0.540   0.894   6.649  1.3901  1.4940 -0.4714
 4270SOL     OW13708   5.804   6.212   4.028  0.3018 -0.6454 -0.0680
 4270SOL    HW113709   5.793   6.184   3.933 -1.7596  0.9321 -0.3593
 4270SOL    HW213710   5.716   6.244   4.064  1.0724 -1.0241  2.3215
 4271SOL     OW13711   6.047   5.020   0.528  0.5615  0.1713  0.6680
 4271SOL    HW113712   5.974   5.061   0.582  0.7581  0.7009  0.5419
 4271SOL    HW213713   6.062   5.075   0.445  0.0290 -0.8182 -0.1060
 4272SOL     OW13714   0.716   1.871   3.593  0.1544  0.1698 -0.2659
 4272SOL    HW113715   0.783   1.924   3.646 -0.0620  2.0578 -1.7594
 4272SOL    HW213716   0.743   1.870   3.497 -0.5543 -1.4081 -0.4757
 4273SOL     OW13717   6.771   6.816   2.203  0.6975 -0.3727 -0.0597
 4273SOL    HW113718   6.842   6.886   2.214  1.2833 -1.0933  0.8856
 4273SOL    HW213719   6.800   6.732   2.249  0.0443 -1.2750 -1.2483
 4274SOL     OW13720   3.374   0.863   1.785 -0.3596  0.1545  0.0630
 4274SOL    HW113721   3.334   0.772   1.769  0.6449 -0.1897 -0.5769
 4274SOL    HW213722   3.473   0.854   1.796 -0.4534  0.9801  1.8053
 4275SOL     OW13723   6.673   2.065   4.287  0.4366 -0.7856 -0.6222
 4275SOL    HW113724   6.719   2.018   4.362 -0.9225 -1.4411 -0.1715
 4275SOL    HW213725   6.603   2.005   4.248 -2.2153  1.1951  0.7507
 4276SOL     OW13726   2.671   1.215   6.163 -0.2176  0.4561  0.0821
 4276SOL    HW113727   2.612   1.135   6.172  0.7519 -0.3366 -0.4236
 4276SOL    HW213728   2.728   1.224   6.245 -0.5975  0.8632  0.3059
 4277SOL     OW13729   5.501   6.968   3.823  0.0857  0.3298 -0.1971
 4277SOL    HW113730   5.563   7.044   3.840  1.4748 -0.7232 -0.3499
 4277SOL    HW213731   5.440   6.991   3.747 -0.3138  1.7115  0.5047
 4278SOL     OW13732   6.478   2.731   2.909 -0.0186  0.0743  0.5583
 4278SOL    HW113733   6.429   2.736   2.997 -0.4700 -1.9102  0.4753
 4278SOL    HW213734   6.416   2.699   2.838  0.4418  1.3114 -0.4226
 4279SOL     OW13735   3.515   2.284   6.033 -0.1320 -0.3133 -0.1463
 4279SOL    HW113736   3.503   2.349   5.958  0.3932 -0.2249 -0.1574
 4279SOL    HW213737   3.611   2.257   6.039 -0.5206 -2.0464 -0.9357
 4280SOL     OW13738   0.220   0.235   6.630  0.3636 -0.3387 -0.1945
 4280SOL    HW113739   0.132   0.192   6.616 -0.1359 -1.0923  3.9937
 4280SOL    HW213740   0.207   0.331   6.657  0.8940 -0.2366 -0.2736
 4281SOL     OW13741   0.306   3.548   4.072 -0.6131 -0.2850 -0.0716
 4281SOL    HW113742   0.342   3.455   4.066  0.5781  0.2391 -1.6769
 4281SOL    HW213743   0.375   3.613   4.039 -2.1976  0.9672 -1.0781
 4282SOL     OW13744   3.030   1.312   3.286 -0.2422 -0.7504 -0.2266
 4282SOL    HW113745   3.032   1.408   3.314 -3.3158 -0.3607 -1.0311
 4282SOL    HW213746   3.066   1.256   3.361 -0.3235  0.8649  1.1049
 4283SOL     OW13747   6.483   3.177   4.195 -0.3416 -0.5752  0.0600
 4283SOL    HW113748   6.569   3.154   4.241  0.1889  0.9589 -0.1261
 4283SOL    HW213749   6.472   3.118   4.115  0.0089 -1.4888  0.6661
 4284SOL     OW13750   5.567   2.308   3.901  0.1077  0.7927 -0.0163
 4284SOL    HW113751   5.591   2.219   3.939  1.8477  1.2771  0.1016
 4284SOL    HW213752   5.476   2.304   3.862 -0.7488 -0.4259  1.9396
 4285SOL     OW13753   3.386   4.898   3.823 -0.0194  0.3551  0.7611
 4285SOL    HW113754   3.432   4.907   3.735 -0.5181  1.9566  0.6277
 4285SOL    HW213755   3.308   4.835   3.814  0.2803  0.0564  0.2177
 4286SOL     OW13756   5.686   4.163   5.960  0.1911 -0.9244  0.1555
 4286SOL    HW113757   5.721   4.078   5.922 -1.4403 -1.6066  0.1138
 4286SOL    HW213758   5.749   4.238   5.937 -0.2580 -1.4261 -3.1599
 4287SOL     OW13759   1.624   5.880   1.731 -0.1335  0.1639 -0.0232
 4287SOL    HW113760   1.614   5.781   1.737  0.5152 -0.0367 -1.6540
 4287SOL    HW213761   1.691   5.912   1.799  0.2066 -0.6154  0.0115
 4288SOL     OW13762   3.184   4.426   1.699  0.4966  0.4265  0.2992
 4288SOL    HW113763   3.194   4.327   1.696 -0.6240  0.3331 -0.5963
 4288SOL    HW213764   3.112   4.451   1.764  0.9502  0.6778  0.7145
 4289SOL     OW13765   1.685   4.205   4.690  0.1110  0.6971  0.0177
 4289SOL    HW113766   1.628   4.182   4.769  1.5504 -2.0691  0.3936
 4289SOL    HW213767   1.776   4.232   4.721  0.8095 -0.7886 -0.6216
 4290SOL     OW13768   4.781   6.890   2.682  0.3838 -0.3146  0.1178
 4290SOL    HW113769   4.835   6.825   2.736  0.3993  1.7589  2.8229
 4290SOL    HW213770   4.685   6.862   2.684  0.7516 -1.9179 -1.4896
 4291SOL     OW13771   3.029   4.823   3.895 -0.0676 -0.5716 -0.0879
 4291SOL    HW113772   2.931   4.805   3.905 -0.5869  2.1302  0.5632
 4291SOL    HW213773   3.076   4.797   3.979 -0.4285 -0.8005  0.0477
 4292SOL     OW13774   2.858   3.533   1.239  0.3778 -0.5419  0.8020
 4292SOL    HW113775   2.864   3.440   1.274 -2.1414 -0.6945  0.9573
 4292SOL    HW213776   2.787   3.583   1.288 -0.8067  0.3452 -1.6711
 4293SOL     OW13777   3.084   1.812   3.460 -0.4049 -0.1975 -0.4322
 4293SOL    HW113778   3.133   1.879   3.515  0.8969  0.1576 -1.9223
 4293SOL    HW213779   3.041   1.858   3.382  0.3348 -1.0496 -1.3689
 4294SOL     OW13780   0.788   2.736   0.766 -0.1325 -0.3211 -0.6360
 4294SOL    HW113781   0.839   2.783   0.694 -0.5880 -0.8129 -1.2942
 4294SOL    HW213782   0.712   2.685   0.725  0.1253 -1.3126  0.0968
 4295SOL     OW13783   2.653   0.412   5.684 -0.5645 -0.0872  0.3901
 4295SOL    HW113784   2.704   0.467   5.750 -1.1020  0.2178  0.5552
 4295SOL    HW213785   2.576   0.367   5.730 -0.6647 -0.2529  0.0660
 4296SOL     OW13786   0.322   6.046   4.671 -0.0222  0.3884 -0.0985
 4296SOL    HW113787   0.293   5.964   4.623 -2.7440  0.7913  0.6866
 4296SOL    HW213788   0.391   6.094   4.617  0.9824 -1.8907 -0.9841
 4297SOL     OW13789   6.686   2.174   2.687  0.2207 -0.3085  0.3197
 4297SOL    HW113790   6.759   2.105   2.692  0.6382  0.0237 -0.9763
 4297SOL    HW213791   6.617   2.144   2.622  0.9906  1.0158 -1.1579
 4298SOL     OW13792   2.808   2.925   6.637  0.2615 -0.0247  0.1185
 4298SOL    HW113793   2.777   2.998   6.577  1.0887  0.3169  0.0888
 4298SOL    HW213794   2.765   2.839   6.610 -0.9547  0.4986  0.3515
 4299SOL     OW13795   6.698   0.675   0.362 -0.5803 -0.3731 -0.4545
 4299SOL    HW113796   6.779   0.666   0.420 -1.1368 -1.0672  0.2441
 4299SOL    HW213797   6.646   0.590   0.365 -0.6461 -0.4240 -1.9725
 4300SOL     OW13798   2.928   0.414   1.262 -0.1025 -0.2365  0.2044
 4300SOL    HW113799   2.862   0.340   1.248  0.1072 -0.0757 -2.1533
 4300SOL    HW213800   2.889   0.499   1.225  1.5514 -0.2520 -1.7615
 4301SOL     OW13801   2.840   7.004   4.090  0.0496 -0.2753  0.3463
 4301SOL    HW113802   2.853   7.025   4.187 -0.6834  0.2806  0.3427
 4301SOL    HW213803   2.772   7.068   4.052  1.5224  0.6037 -0.9307
 4302SOL     OW13804   3.826   3.165   6.233  0.4061  0.1933 -0.5466
 4302SOL    HW113805   3.742   3.142   6.183  0.6409 -1.9669 -0.0399
 4302SOL    HW213806   3.905   3.150   6.173  0.5999 -1.0493 -0.0160
 4303SOL     OW13807   5.566   5.718   3.246  0.3990  0.7650 -0.3484
 4303SOL    HW113808   5.640   5.720   3.180  0.5744 -0.6806 -0.2445
 4303SOL    HW213809   5.506   5.796   3.232  1.2454  1.2750 -1.2476
 4304SOL     OW13810   5.798   6.208   6.071  0.1047 -0.1152  0.0123
 4304SOL    HW113811   5.856   6.260   6.133 -0.0196  1.2123 -0.9509
 4304SOL    HW213812   5.843   6.123   6.046  1.1860  0.4374  0.0572
 4305SOL     OW13813   1.454   0.834   2.365  0.0412 -0.4427  0.1767
 4305SOL    HW113814   1.515   0.878   2.431 -0.8460 -2.0228  2.1534
 4305SOL    HW213815   1.501   0.755   2.325  0.2641  0.0031 -0.4641
 4306SOL     OW13816   2.828   2.275   1.688 -0.2321  0.2140  0.1633
 4306SOL    HW113817   2.852   2.344   1.757 -0.2630  1.1985 -0.7927
 4306SOL    HW213818   2.890   2.197   1.696  1.3602  1.3986 -0.2975
 4307SOL     OW13819   0.149   1.108   6.676 -0.4468 -0.6327  0.1164
 4307SOL    HW113820   0.246   1.092   6.698 -0.5864 -0.3672  0.9749
 4307SOL    HW213821   0.129   1.071   6.585  0.9501  1.1255 -0.9783
 4308SOL     OW13822   6.012   0.472   5.773  0.4674 -0.1969  0.0976
 4308SOL    HW113823   6.039   0.393   5.828  1.5993  0.8837  1.1511
 4308SOL    HW213824   6.082   0.491   5.705  0.2439 -0.0506 -0.0922
 4309SOL     OW13825   3.539   1.787   0.126  0.3403 -0.4399 -0.2699
 4309SOL    HW113826   3.625   1.736   0.113  0.7174 -0.3292  1.5919
 4309SOL    HW213827   3.559   1.874   0.171 -0.8722 -1.0489  1.5552
 4310SOL     OW13828   1.872   5.303   2.325  0.3375 -0.3329 -0.7879
 4310SOL    HW113829   1.806   5.227   2.332  1.2234 -1.0866 -0.3468
 4310SOL    HW213830   1.962   5.266   2.304  1.1591  0.4015  1.1809
 4311SOL     OW13831   1.581   0.489   0.549  0.0571  0.1868  0.2944
 4311SOL    HW113832   1.648   0.441   0.492  0.1228  1.3886 -0.6831
 4311SOL    HW213833   1.625   0.567   0.593 -0.2543 -0.1268  1.1875
 4312SOL     OW13834   0.710   6.985   5.182  0.1465  0.1303  0.2490
 4312SOL    HW113835   0.683   7.044   5.106  2.0562  0.4680 -0.2188
 4312SOL    HW213836   0.680   7.026   5.268  1.6098  1.9473 -0.0441
 4313SOL     OW13837   5.993   2.423   6.166  0.3096  0.2934  0.3377
 4313SOL    HW113838   6.083   2.436   6.207  0.1602 -0.0658  0.7953
 4313SOL    HW213839   5.940   2.361   6.223  0.4268 -0.9969 -0.9226
 4314SOL     OW13840   4.114   4.751   0.756 -0.1168  0.2658 -0.5365
 4314SOL    HW113841   4.040   4.812   0.727  0.5709  1.1356 -0.4816
 4314SOL    HW213842   4.197   4.804   0.771  0.7324 -0.8040 -1.3329
 4315SOL     OW13843   2.260   1.134   0.740  0.0056  0.9058  0.2285
 4315SOL    HW113844   2.195   1.061   0.721  0.3947  0.0700  1.8961
 4315SOL    HW213845   2.335   1.098   0.796  1.1325  2.1871 -0.3848
 4316SOL     OW13846   5.482   3.732   2.211  0.2900 -0.3349  0.4258
 4316SOL    HW113847   5.462   3.697   2.302 -1.7825  1.8717  0.9394
 4316SOL    HW213848   5.464   3.662   2.142 -0.6106 -1.2505  1.5685
 4317SOL     OW13849   6.957   0.363   6.409  0.0878 -0.0499 -0.2193
 4317SOL    HW113850   6.900   0.442   6.388  0.3939  0.3750  0.4879
 4317SOL    HW213851   7.030   0.356   6.342  0.6154  0.8424  0.2336
 4318SOL     OW13852   2.194   2.270   4.310 -0.6714  0.1940  0.6730
 4318SOL    HW113853   2.262   2.245   4.379  0.4786  1.5305  0.0670
 4318SOL    HW213854   2.154   2.359   4.333 -2.1053 -0.4741  0.9059
 4319SOL     OW13855   2.347   5.330   5.450 -0.5429  0.0493 -0.5171
 4319SOL    HW113856   2.396   5.416   5.433 -0.1104 -0.5788 -2.9631
 4319SOL    HW213857   2.349   5.275   5.366 -1.2996 -2.1070  0.8179
 4320SOL     OW13858   2.089   2.584   5.843  0.0740 -0.4636  0.9204
 4320SOL    HW113859   2.080   2.604   5.746  0.9266  0.3480  1.0001
 4320SOL    HW213860   2.137   2.497   5.855  0.2700 -0.3990  0.6192
 4321SOL     OW13861   1.536   0.978   0.119  0.2595 -0.5536  0.0782
 4321SOL    HW113862   1.581   0.903   0.070  1.4900  0.9805 -1.2540
 4321SOL    HW213863   1.575   0.986   0.210  2.4240  0.3614 -0.8415
 4322SOL     OW13864   4.780   6.515   3.662  0.7936  0.6543 -0.0124
 4322SOL    HW113865   4.838   6.464   3.725 -0.0144  0.7139  0.7966
 4322SOL    HW213866   4.720   6.576   3.714 -2.1660 -1.6008 -0.5746
 4323SOL     OW13867   4.851   0.373   2.216  0.0984  0.1613  0.0710
 4323SOL    HW113868   4.842   0.404   2.310  3.9728 -2.0378  1.4201
 4323SOL    HW213869   4.795   0.291   2.203 -1.3617  1.1262 -0.0047
 4324SOL     OW13870   6.926   6.613   5.451  0.0254 -0.2661  0.4373
 4324SOL    HW113871   7.014   6.567   5.456 -0.0433 -0.3701  0.7361
 4324SOL    HW213872   6.912   6.668   5.533  0.4231  0.8802 -0.2333
 4325SOL     OW13873   4.878   1.198   4.971  0.3531  0.6554 -0.1199
 4325SOL    HW113874   4.785   1.195   5.008  0.6985 -2.5638  0.8048
 4325SOL    HW213875   4.874   1.193   4.871 -0.4625  0.4022 -0.0817
 4326SOL     OW13876   0.298   6.921   4.459 -0.0800  0.1229 -0.0976
 4326SOL    HW113877   0.339   6.983   4.393 -0.0175  0.8479  0.6019
 4326SOL    HW213878   0.363   6.847   4.480  0.4858  0.6954  0.2318
 4327SOL     OW13879   6.718   1.020   1.613  0.1197 -0.3025  1.2149
 4327SOL    HW113880   6.772   0.936   1.621  1.4027  0.2804 -0.6402
 4327SOL    HW213881   6.649   1.008   1.542  2.5816  1.2283 -1.6517
 4328SOL     OW13882   2.042   6.807   1.314 -0.1271  0.0412 -0.3588
 4328SOL    HW113883   2.070   6.733   1.253  0.8487  0.6944 -0.7252
 4328SOL    HW213884   2.115   6.875   1.320 -0.1683 -0.0294  1.5910
 4329SOL     OW13885   4.845   0.857   0.681 -0.2888 -0.1493  0.3841
 4329SOL    HW113886   4.940   0.882   0.666 -0.1452 -1.2015 -0.6355
 4329SOL    HW213887   4.820   0.782   0.620 -1.8240  0.2180  0.5027
 4330SOL     OW13888   3.525   3.844   1.407  0.4568  0.2015  1.1194
 4330SOL    HW113889   3.548   3.751   1.380 -1.6139 -0.0461 -0.0658
 4330SOL    HW213890   3.602   3.886   1.455  2.1530 -1.4110 -0.0827
 4331SOL     OW13891   5.419   1.187   6.355  0.3325 -0.5278 -0.6657
 4331SOL    HW113892   5.490   1.246   6.392 -0.2321 -0.0567 -0.3219
 4331SOL    HW213893   5.406   1.208   6.258  0.2687 -0.2118 -0.5912
 4332SOL     OW13894   4.645   0.109   3.764 -1.0362 -0.1850  0.8296
 4332SOL    HW113895   4.581   0.163   3.710 -1.4731  0.4201  1.9225
 4332SOL    HW213896   4.624   0.120   3.862  0.7647  0.1073  1.2291
 4333SOL     OW13897   3.417   2.127   3.536 -0.4034  0.0093 -0.0515
 4333SOL    HW113898   3.476   2.115   3.457  0.1641  0.6365  0.2660
 4333SOL    HW213899   3.333   2.173   3.508 -0.1720  0.2969 -0.2821
 4334SOL     OW13900   4.076   2.045   4.825 -0.5400  0.3379 -0.2007
 4334SOL    HW113901   4.098   2.140   4.806  2.3259 -0.4227 -1.1934
 4334SOL    HW213902   4.102   2.023   4.919  2.0662 -0.2074 -0.9601
 4335SOL     OW13903   6.669   2.940   3.209  0.6132 -0.0916 -0.0699
 4335SOL    HW113904   6.572   2.961   3.200  0.7211 -0.2174 -2.0268
 4335SOL    HW213905   6.680   2.843   3.233  0.2556  0.2566  1.5916
 4336SOL     OW13906   3.024   0.928   6.189  0.3063  0.6375 -0.5103
 4336SOL    HW113907   3.045   0.986   6.110 -1.6156 -1.1426 -2.4366
 4336SOL    HW213908   2.925   0.924   6.202  0.4762 -1.0937  0.4545
 4337SOL     OW13909   5.737   4.437   5.060 -0.4906 -0.0051 -0.1929
 4337SOL    HW113910   5.734   4.363   5.127 -0.6462  0.4625  0.3242
 4337SOL    HW213911   5.721   4.525   5.106  3.2058  0.8081 -0.1697
 4338SOL     OW13912   3.626   3.267   6.004  0.2585  0.3009  0.1335
 4338SOL    HW113913   3.534   3.269   5.965 -0.4967 -0.8832  1.7701
 4338SOL    HW213914   3.681   3.200   5.955 -0.7534 -1.3436  1.1675
 4339SOL     OW13915   3.175   5.496   1.570 -0.6572  0.1717  0.4893
 4339SOL    HW113916   3.207   5.512   1.477  0.7626 -0.9753  0.7521
 4339SOL    HW213917   3.229   5.550   1.634  1.3154 -2.1871  0.9858
 4340SOL     OW13918   5.524   1.161   4.486  0.1140  0.2576 -0.2363
 4340SOL    HW113919   5.615   1.136   4.452 -0.8005 -0.5542 -2.2264
 4340SOL    HW213920   5.521   1.259   4.505  1.2071  0.4191 -0.8154
 4341SOL     OW13921   0.475   2.742   2.798 -0.3352  0.1964  0.0378
 4341SOL    HW113922   0.490   2.711   2.704  0.8104  1.4348 -0.2271
 4341SOL    HW213923   0.495   2.668   2.861 -0.3117 -0.4123 -0.6716
 4342SOL     OW13924   0.228   1.055   4.257  0.3756  0.1762 -0.1296
 4342SOL    HW113925   0.228   1.008   4.345  0.0435 -1.6056 -1.0473
 4342SOL    HW213926   0.305   1.024   4.202  0.1310  0.6877 -0.7689
 4343SOL     OW13927   5.382   0.780   1.747  0.0569 -0.0826  0.2005
 4343SOL    HW113928   5.321   0.842   1.699 -0.0314 -0.9366 -0.8355
 4343SOL    HW213929   5.329   0.724   1.811 -0.8953 -2.9441 -2.8269
 4344SOL     OW13930   1.903   4.526   3.533 -0.0583  0.8055  0.7267
 4344SOL    HW113931   1.809   4.505   3.560  0.6353 -2.4704  1.1365
 4344SOL    HW213932   1.965   4.459   3.575  2.1967  1.4457 -1.3128
 4345SOL     OW13933   3.027   3.261   2.947 -0.4476  0.4381 -0.3049
 4345SOL    HW113934   2.944   3.306   2.915 -1.7249 -0.8458  1.0246
 4345SOL    HW213935   3.052   3.187   2.885  0.4708  1.5899 -1.3731
 4346SOL     OW13936   1.107   3.721   5.472 -0.1120 -0.2618 -0.8133
 4346SOL    HW113937   1.159   3.746   5.553 -0.4326  0.1954 -0.7432
 4346SOL    HW213938   1.118   3.623   5.453  0.0988 -0.3336 -0.3230
 4347SOL     OW13939   3.536   2.860   3.181  0.2456  0.1318 -0.0104
 4347SOL    HW113940   3.581   2.808   3.254  1.0513  0.7632 -0.0423
 4347SOL    HW213941   3.580   2.840   3.094  1.0193  1.3530  0.0753
 4348SOL     OW13942   0.516   6.718   2.251 -0.2538  0.0006  0.1234
 4348SOL    HW113943   0.504   6.619   2.257  1.9059 -0.3480 -0.4149
 4348SOL    HW213944   0.505   6.758   2.342  0.7229 -1.0109  0.7257
 4349SOL     OW13945   1.648   2.044   1.319 -0.3737  0.1773 -0.3609
 4349SOL    HW113946   1.690   2.061   1.230  1.9437  0.1023  0.6397
 4349SOL    HW213947   1.713   1.995   1.378 -2.2316 -0.7410  1.0357
 4350SOL     OW13948   0.306   1.407   1.471  0.3311 -0.0121  0.1833
 4350SOL    HW113949   0.209   1.418   1.447  1.0588  1.5225 -2.4841
 4350SOL    HW213950   0.361   1.415   1.388  2.7394 -1.5652  1.5413
 4351SOL     OW13951   2.647   4.568   1.331  0.5494 -0.1453  0.2597
 4351SOL    HW113952   2.703   4.518   1.397  0.1074  0.2564  0.9564
 4351SOL    HW213953   2.558   4.589   1.372  0.8228  1.4456  0.0913
 4352SOL     OW13954   1.614   1.029   2.489 -0.4735 -0.6080  0.1363
 4352SOL    HW113955   1.645   1.055   2.397  2.4300 -1.3150  0.8110
 4352SOL    HW213956   1.534   1.084   2.514 -0.4646  0.6188 -2.2362
 4353SOL     OW13957   0.795   0.729   4.765 -0.0108  0.5799  0.2028
 4353SOL    HW113958   0.819   0.641   4.725 -0.6470  1.3414 -2.0111
 4353SOL    HW213959   0.743   0.715   4.849 -0.2136 -1.1502 -0.1807
 4354SOL     OW13960   6.985   6.659   1.988 -0.8820 -0.1724 -0.6147
 4354SOL    HW113961   6.947   6.620   1.905 -2.1842  0.2935 -0.2583
 4354SOL    HW213962   6.967   6.598   2.065 -0.4954 -0.1629 -0.5143
 4355SOL     OW13963   5.869   1.392   1.542 -0.2928 -0.8992 -0.5897
 4355SOL    HW113964   5.873   1.349   1.632 -0.2226  1.8337  0.8086
 4355SOL    HW213965   5.950   1.366   1.489  0.9296 -0.6647  1.0838
 4356SOL     OW13966   3.189   6.184   4.659 -0.4919  0.3301  0.2152
 4356SOL    HW113967   3.151   6.094   4.636  2.1262 -0.0820 -3.5886
 4356SOL    HW213968   3.248   6.175   4.739 -0.2194 -1.3976 -0.1257
 4357SOL     OW13969   5.448   0.424   2.218 -0.1343  0.2199  0.3009
 4357SOL    HW113970   5.494   0.372   2.290  0.9966  1.3241  0.4204
 4357SOL    HW213971   5.377   0.368   2.175  0.8142 -1.2851  0.6379
 4358SOL     OW13972   2.485   1.776   3.809 -0.3008 -0.5337  0.1283
 4358SOL    HW113973   2.428   1.856   3.829 -0.1381 -0.4166  0.1252
 4358SOL    HW213974   2.549   1.761   3.884  0.3359 -0.0721 -0.3100
 4359SOL     OW13975   1.091   3.329   5.172 -0.2909 -0.0821  0.3046
 4359SOL    HW113976   1.081   3.235   5.138 -3.1411 -0.0336  0.7042
 4359SOL    HW213977   1.160   3.377   5.119  1.7390 -2.5472  0.5103
 4360SOL     OW13978   5.776   0.584   1.370  0.5401 -0.0624 -0.0622
 4360SOL    HW113979   5.767   0.500   1.316 -2.0006 -0.7018  1.2021
 4360SOL    HW213980   5.690   0.635   1.366  2.1194  2.7604 -1.1042
 4361SOL     OW13981   2.352   3.236   1.409  0.0869  0.0382  0.0914
 4361SOL    HW113982   2.259   3.273   1.407  0.3780  0.7833 -0.1207
 4361SOL    HW213983   2.398   3.267   1.493 -0.1181 -1.0073  0.6038
 4362SOL     OW13984   1.990   0.245   0.169  0.1512 -0.1209 -0.4158
 4362SOL    HW113985   1.904   0.289   0.196 -0.0755  0.1461 -1.5113
 4362SOL    HW213986   2.049   0.234   0.249  0.8498  3.5129 -0.2866
 4363SOL     OW13987   5.815   6.724   0.102 -0.3673 -0.0891 -0.1236
 4363SOL    HW113988   5.849   6.705   0.010  0.2846 -2.3046  0.5273
 4363SOL    HW213989   5.840   6.818   0.127  1.6420 -0.2514 -1.2623
 4364SOL     OW13990   3.878   2.684   1.262  0.0525  0.1411 -0.1420
 4364SOL    HW113991   3.803   2.717   1.319 -0.1180 -1.4605  0.6169
 4364SOL    HW213992   3.951   2.648   1.320  0.2594 -0.7058 -0.8938
 4365SOL     OW13993   3.896   2.087   5.514 -0.2519 -0.0490 -0.4137
 4365SOL    HW113994   3.815   2.102   5.457  0.6809  1.5548 -1.3857
 4365SOL    HW213995   3.953   2.016   5.472 -0.2286  0.1734 -0.7638
 4366SOL     OW13996   0.361   3.917   5.532 -0.4130  0.2481  0.0309
 4366SOL    HW113997   0.396   3.996   5.582 -0.4338 -0.8421  1.8655
 4366SOL    HW213998   0.380   3.928   5.435  1.1589  1.6894  0.4506
 4367SOL     OW13999   4.826   3.301   1.154 -0.0842 -0.1606 -0.4370
 4367SOL    HW114000   4.772   3.385   1.145 -1.8863 -1.3050 -0.8294
 4367SOL    HW214001   4.793   3.233   1.089  0.9084 -1.4022  0.3085
 4368SOL     OW14002   5.446   5.058   2.579 -0.2655  0.1413 -0.5099
 4368SOL    HW114003   5.377   5.031   2.512  1.5326 -3.4824 -1.1267
 4368SOL    HW214004   5.415   5.035   2.670 -0.8689  0.9313 -0.5018
 4369SOL     OW14005   2.552   0.248   6.006 -0.0006 -0.3902  0.1914
 4369SOL    HW114006   2.581   0.155   5.982 -1.7227 -0.9377  0.1391
 4369SOL    HW214007   2.633   0.305   6.018  1.1121 -1.9243  0.3763
 4370SOL     OW14008   2.634   1.568   0.096 -0.7105 -0.6078 -0.0069
 4370SOL    HW114009   2.624   1.660   0.058 -0.5478 -0.1050  1.1376
 4370SOL    HW214010   2.705   1.519   0.045 -0.2484  0.1695 -0.1323
 4371SOL     OW14011   6.035   0.831   0.162 -0.0994 -0.3258  0.0825
 4371SOL    HW114012   6.108   0.782   0.113 -1.1774 -1.8139 -0.0908
 4371SOL    HW214013   6.057   0.834   0.259 -0.2140 -1.5660  0.1625
 4372SOL     OW14014   3.132   4.001   6.146  0.4872 -0.0741 -0.1527
 4372SOL    HW114015   3.078   4.067   6.093 -0.1345 -0.1958  0.3160
 4372SOL    HW214016   3.073   3.955   6.212  1.2421  0.0420  0.6189
 4373SOL     OW14017   0.900   4.505   1.528 -0.4716 -0.1417 -0.0458
 4373SOL    HW114018   0.865   4.555   1.448 -1.4432 -0.9428 -0.1448
 4373SOL    HW214019   0.823   4.465   1.578  0.1777 -0.1654  0.9502
 4374SOL     OW14020   1.902   6.623   5.049  0.4760 -0.7290  0.2435
 4374SOL    HW114021   1.968   6.684   5.092 -0.0434 -0.1911  0.2875
 4374SOL    HW214022   1.945   6.576   4.972  0.6193  0.4303 -0.4089
 4375SOL     OW14023   2.333   1.199   4.170  0.2978 -0.1913  0.8711
 4375SOL    HW114024   2.360   1.288   4.132  0.4620  0.0200  1.4732
 4375SOL    HW214025   2.261   1.159   4.113  2.8282 -1.4652 -1.7367
 4376SOL     OW14026   6.922   2.050   1.506 -0.4011 -0.2280 -0.2362
 4376SOL    HW114027   6.967   2.114   1.444  1.3248 -1.9186 -0.8024
 4376SOL    HW214028   6.881   2.101   1.582  0.8434  1.5560 -0.6989
 4377SOL     OW14029   2.048   6.101   5.245 -0.4227  0.2708 -0.0171
 4377SOL    HW114030   2.097   6.020   5.213 -1.8752 -1.4458  1.8860
 4377SOL    HW214031   2.042   6.168   5.171  0.6410 -1.4184 -1.7120
 4378SOL     OW14032   3.984   0.559   5.531 -0.0616  0.0580  0.2009
 4378SOL    HW114033   4.083   0.567   5.539  0.1547 -0.2964 -1.6810
 4378SOL    HW214034   3.961   0.501   5.453 -1.7553 -1.3375  1.6250
 4379SOL     OW14035   3.260   2.782   1.851  0.1265 -0.1565  0.2533
 4379SOL    HW114036   3.343   2.754   1.803  0.2347  0.5305  0.0223
 4379SOL    HW214037   3.284   2.820   1.940 -0.0690 -1.3594  0.8436
 4380SOL     OW14038   4.706   4.937   3.534 -0.4410 -0.8320  0.6115
 4380SOL    HW114039   4.687   4.953   3.631  0.9990  0.0464  0.7778
 4380SOL    HW214040   4.632   4.975   3.479 -1.6405 -1.9835  1.3606
 4381SOL     OW14041   5.478   4.399   1.313  0.4165  0.0120 -0.8424
 4381SOL    HW114042   5.504   4.440   1.400  1.2256 -2.4048  0.1558
 4381SOL    HW214043   5.383   4.422   1.291 -0.3052 -0.5109  1.4615
 4382SOL     OW14044   4.679   1.402   1.651 -0.1018  0.3331  0.2806
 4382SOL    HW114045   4.751   1.393   1.721 -0.9173  0.4578  1.1535
 4382SOL    HW214046   4.681   1.322   1.591  0.7867  0.3536  0.2629
 4383SOL     OW14047   4.542   4.660   4.500  0.0685  0.2089  0.1078
 4383SOL    HW114048   4.550   4.735   4.567  0.5344 -0.4186  0.7753
 4383SOL    HW214049   4.610   4.673   4.428 -0.6145  1.0364 -0.4139
 4384SOL     OW14050   5.236   3.383   6.565  0.1097 -0.0775  0.2756
 4384SOL    HW114051   5.316   3.344   6.519  1.6651  2.2842  0.8112
 4384SOL    HW214052   5.258   3.401   6.661 -0.7314  1.4897  0.2049
 4385SOL     OW14053   1.636   5.632   2.833 -0.9475  0.1305 -0.5985
 4385SOL    HW114054   1.708   5.695   2.802  0.1528  0.0124  1.5411
 4385SOL    HW214055   1.553   5.684   2.853 -0.6115  0.6630 -0.5591
 4386SOL     OW14056   4.302   1.686   2.699  0.1696  0.0712  0.4499
 4386SOL    HW114057   4.365   1.709   2.626 -0.3812  2.4413  0.6505
 4386SOL    HW214058   4.228   1.753   2.703 -1.1644 -1.3691  1.6378
 4387SOL     OW14059   2.883   2.889   0.779  0.1544  0.3647 -0.7191
 4387SOL    HW114060   2.939   2.875   0.860 -1.4617  1.3492  0.6299
 4387SOL    HW214061   2.798   2.935   0.805 -0.8114 -0.1228 -2.8452
 4388SOL     OW14062   6.014   5.003   4.841  0.0945 -0.2261 -0.3519
 4388SOL    HW114063   5.992   4.908   4.862  0.9886 -0.3789 -0.0693
 4388SOL    HW214064   5.935   5.061   4.859 -0.5539 -0.9516 -0.8022
 4389SOL     OW14065   5.153   6.438   3.135 -0.1183  0.3837 -0.4602
 4389SOL    HW114066   5.220   6.455   3.207 -0.7101 -1.9723  0.7430
 4389SOL    HW214067   5.064   6.472   3.165 -0.4130 -0.8073  0.0692
 4390SOL     OW14068   6.668   0.372   4.455 -0.0551 -0.3216  0.1917
 4390SOL    HW114069   6.631   0.368   4.362 -1.3169 -0.2542  0.6686
 4390SOL    HW214070   6.767   0.361   4.452  0.0128  0.4668 -1.2204
 4391SOL     OW14071   5.212   5.897   2.192  0.2340 -0.5890  0.2110
 4391SOL    HW114072   5.167   5.946   2.267  0.8767  0.3644 -0.0001
 4391SOL    HW214073   5.259   5.817   2.228 -1.3183 -1.4101  0.4835
 4392SOL     OW14074   4.984   6.814   1.951  0.0049  0.5179  0.4308
 4392SOL    HW114075   5.060   6.842   2.009  1.8707 -1.6078 -0.8130
 4392SOL    HW214076   4.966   6.717   1.964 -1.8315  0.7445 -0.1045
 4393SOL     OW14077   4.710   2.274   4.429 -0.4211  0.3240 -0.5410
 4393SOL    HW114078   4.727   2.212   4.353  0.6540 -0.5412  0.3535
 4393SOL    HW214079   4.739   2.230   4.514 -1.4534  1.3152  0.3599
 4394SOL     OW14080   6.368   2.968   5.369 -0.4019 -0.1041  0.0912
 4394SOL    HW114081   6.399   2.972   5.274 -0.5354 -0.3975  0.0357
 4394SOL    HW214082   6.268   2.969   5.371 -0.4370 -1.7278  0.1472
 4395SOL     OW14083   2.580   4.471   3.086  0.2722 -0.1826  1.4378
 4395SOL    HW114084   2.642   4.519   3.024  0.0328 -1.0232  0.5361
 4395SOL    HW214085   2.497   4.445   3.038 -0.5632  0.4291  2.4944
 4396SOL     OW14086   0.764   3.195   4.048  0.2925  0.2454  0.1105
 4396SOL    HW114087   0.778   3.194   3.949  4.0993 -0.9094  0.5216
 4396SOL    HW214088   0.693   3.128   4.071  0.7357 -0.9136 -1.6788
 4397SOL     OW14089   0.304   0.153   0.500  0.4422 -0.4072 -0.5576
 4397SOL    HW114090   0.296   0.212   0.580 -0.3474 -1.0986 -0.1163
 4397SOL    HW214091   0.265   0.200   0.420 -0.8655 -0.6244 -0.0531
 4398SOL     OW14092   3.493   3.268   4.993  0.3604  0.1259 -0.3994
 4398SOL    HW114093   3.435   3.321   5.055 -1.4831 -0.4755 -1.5274
 4398SOL    HW214094   3.589   3.278   5.020 -0.3729 -0.2264  2.5852
 4399SOL     OW14095   1.452   2.752   5.211  0.2468 -0.0236 -0.5127
 4399SOL    HW114096   1.551   2.738   5.212  0.4935  1.5393  0.4478
 4399SOL    HW214097   1.432   2.850   5.215 -1.3325 -0.3574  1.5877
 4400SOL     OW14098   4.861   6.267   0.743 -0.2908 -0.1329  0.2443
 4400SOL    HW114099   4.763   6.288   0.748 -0.6247 -1.5699  0.1181
 4400SOL    HW214100   4.887   6.252   0.648  0.0076 -0.0086  0.3030
 4401SOL     OW14101   4.135   5.395   4.691 -0.4591  0.2004 -0.1958
 4401SOL    HW114102   4.177   5.305   4.680  0.2278  0.5163 -0.1756
 4401SOL    HW214103   4.063   5.406   4.622  2.8159  1.5725 -3.7922
 4402SOL     OW14104   4.725   5.557   5.825  0.0390 -0.5908  0.0803
 4402SOL    HW114105   4.816   5.595   5.839  1.3223 -2.9853 -1.0352
 4402SOL    HW214106   4.657   5.630   5.829  2.1089  1.4789 -0.2782
 4403SOL     OW14107   0.289   1.512   6.887  0.0691  0.4528 -0.0279
 4403SOL    HW114108   0.363   1.557   6.836  0.2236 -0.0427 -0.2420
 4403SOL    HW214109   0.329   1.452   6.956 -0.0640 -1.5320 -1.5871
 4404SOL     OW14110   6.294   2.262   0.783  0.0259  0.2615 -0.5049
 4404SOL    HW114111   6.229   2.308   0.844 -0.5930 -1.8002  0.4765
 4404SOL    HW214112   6.244   2.211   0.713  0.5936 -0.6654 -0.2510
 4405SOL     OW14113   2.124   2.882   5.909  0.3189 -0.2101 -0.0380
 4405SOL    HW114114   2.090   2.973   5.936  1.4334  0.6339 -1.3298
 4405SOL    HW214115   2.117   2.873   5.810 -0.6648 -1.9461  0.1493
 4406SOL     OW14116   5.116   0.362   3.166 -0.4505  0.4183  0.0176
 4406SOL    HW114117   5.128   0.427   3.242  1.0192  0.8777 -0.5776
 4406SOL    HW214118   5.050   0.399   3.101  1.4765  2.1266 -1.0933
 4407SOL     OW14119   6.591   4.769   3.311  0.0782 -0.3913 -0.1921
 4407SOL    HW114120   6.609   4.707   3.234  0.5881 -0.1291 -0.2890
 4407SOL    HW214121   6.535   4.722   3.379  0.3295 -0.9088 -0.3338
 4408SOL     OW14122   6.885   4.249   6.112  0.5238 -0.2929  0.0401
 4408SOL    HW114123   6.892   4.199   6.026  0.3222  1.2210 -0.8873
 4408SOL    HW214124   6.862   4.185   6.186 -0.9810 -1.3767 -1.2968
 4409SOL     OW14125   6.502   1.625   2.785 -0.3349  0.1330 -0.0789
 4409SOL    HW114126   6.467   1.607   2.693 -1.6823  0.6711  0.2965
 4409SOL    HW214127   6.518   1.539   2.832 -1.2482 -0.1450 -0.2537
 4410SOL     OW14128   6.378   6.258   6.794 -0.0217 -0.1562 -0.5470
 4410SOL    HW114129   6.443   6.187   6.766  0.0706  0.0276 -0.7999
 4410SOL    HW214130   6.331   6.293   6.714 -0.0581  0.0781 -0.4230
 4411SOL     OW14131   1.577   4.590   2.319 -0.4863  0.1280 -0.5041
 4411SOL    HW114132   1.653   4.531   2.348 -0.8876 -1.0259 -1.6831
 4411SOL    HW214133   1.491   4.539   2.325 -1.0459  1.1001 -0.1152
 4412SOL     OW14134   0.452   1.400   4.361  0.3217  0.6317 -0.3328
 4412SOL    HW114135   0.417   1.462   4.432  1.2759  0.4406  0.3139
 4412SOL    HW214136   0.521   1.340   4.400  0.4166  0.0997 -1.2919
 4413SOL     OW14137   5.706   1.232   3.696 -0.0038 -0.2340  0.3235
 4413SOL    HW114138   5.628   1.286   3.728  0.8555  0.5979  1.0581
 4413SOL    HW214139   5.674   1.139   3.673 -1.0593 -0.1891  1.4609
 4414SOL     OW14140   6.644   1.117   0.389  0.4458 -0.2163  0.1770
 4414SOL    HW114141   6.585   1.110   0.470  0.2562  0.2937  0.0832
 4414SOL    HW214142   6.640   1.210   0.352 -1.1625 -0.9565 -1.6830
 4415SOL     OW14143   2.359   6.953   0.676 -0.4251  0.0840  0.1264
 4415SOL    HW114144   2.423   6.996   0.739 -0.2308  1.6084 -1.0496
 4415SOL    HW214145   2.291   7.020   0.646  0.4945 -0.0706 -2.5830
 4416SOL     OW14146   5.184   3.780   0.895 -0.0228  0.3995 -0.6150
 4416SOL    HW114147   5.157   3.690   0.927  0.4784  0.6554  0.5971
 4416SOL    HW214148   5.103   3.837   0.882 -0.2807  0.0516 -0.5314
 4417SOL     OW14149   4.947   5.490   2.022 -0.4765  0.3592  0.0720
 4417SOL    HW114150   4.936   5.424   2.097  2.4548  2.8023  2.9150
 4417SOL    HW214151   4.935   5.583   2.057  4.6885  1.8853 -1.3402
 4418SOL     OW14152   2.641   6.778   4.590 -0.1717  0.1610 -0.2805
 4418SOL    HW114153   2.664   6.836   4.668 -0.4804  1.1028 -0.8715
 4418SOL    HW214154   2.703   6.797   4.514 -1.2650  0.8897 -1.0177
 4419SOL     OW14155   4.801   6.933   2.100 -0.1080  0.4302 -0.0811
 4419SOL    HW114156   4.753   6.850   2.072  0.4308  0.1773 -0.2652
 4419SOL    HW214157   4.900   6.916   2.101 -0.0766  0.5749  1.4904
 4420SOL     OW14158   4.579   5.079   0.714 -0.3026 -0.2893  0.1648
 4420SOL    HW114159   4.621   5.094   0.625 -0.9840  4.4056  0.3922
 4420SOL    HW214160   4.481   5.096   0.709 -0.3212  0.3325  1.8247
 4421SOL     OW14161   0.206   1.989   5.270  0.2863 -0.2585  0.4950
 4421SOL    HW114162   0.275   2.021   5.205 -0.0802  0.0585  0.2611
 4421SOL    HW214163   0.228   2.023   5.361  0.0685  0.4118  0.3003
 4422SOL     OW14164   4.101   2.180   0.807  0.1347  0.0871 -0.9518
 4422SOL    HW114165   4.009   2.148   0.828 -0.1855  1.4711 -0.1404
 4422SOL    HW214166   4.164   2.103   0.809 -0.6209 -0.5393  0.7467
 4423SOL     OW14167   4.295   0.150   6.106 -0.1985 -0.5325  0.5103
 4423SOL    HW114168   4.257   0.169   6.197  0.1676  2.0625  0.1695
 4423SOL    HW214169   4.226   0.169   6.037  0.9274  2.1202  0.0164
 4424SOL     OW14170   6.142   2.855   6.335 -0.5731 -0.1401 -0.8908
 4424SOL    HW114171   6.134   2.942   6.287 -2.3325  0.2899  0.0887
 4424SOL    HW214172   6.066   2.796   6.310  0.0287 -0.9907 -0.7484
 4425SOL     OW14173   0.175   2.536   2.454  0.3249 -0.3252 -0.0414
 4425SOL    HW114174   0.132   2.460   2.504  0.8823 -1.1655 -0.8100
 4425SOL    HW214175   0.106   2.606   2.435 -0.4832 -1.1687 -0.3390
 4426SOL     OW14176   4.917   1.999   0.258 -0.7986  0.7534 -0.2752
 4426SOL    HW114177   4.842   2.052   0.219  1.0312  2.3683 -1.8414
 4426SOL    HW214178   4.983   1.976   0.186  0.3183 -0.4599  1.0606
 4427SOL     OW14179   2.112   3.955   2.270  0.1026  0.0560  0.3169
 4427SOL    HW114180   2.127   3.946   2.171  1.0560 -1.6929  0.5902
 4427SOL    HW214181   2.087   3.867   2.309 -0.7339  0.8239  1.5902
 4428SOL     OW14182   5.492   0.284   6.309  0.0624  0.7461  0.3151
 4428SOL    HW114183   5.394   0.299   6.292 -0.1040 -0.6010 -0.0300
 4428SOL    HW214184   5.537   0.261   6.223  0.7463  1.6415  0.4284
 4429SOL     OW14185   0.063   4.396   2.000 -0.2463 -0.1502 -0.1973
 4429SOL    HW114186   0.004   4.471   2.030  0.4260  0.0353  0.7046
 4429SOL    HW214187   0.114   4.361   2.078 -0.1566 -1.2041 -0.7111
 4430SOL     OW14188   3.741   3.569   6.270 -0.2054 -0.0623  0.1105
 4430SOL    HW114189   3.664   3.522   6.312  0.4998 -0.8760  0.5192
 4430SOL    HW214190   3.785   3.510   6.203 -0.4733  0.7269 -0.7839
 4431SOL     OW14191   6.868   5.962   0.799  0.1432  0.2559 -0.0913
 4431SOL    HW114192   6.792   6.026   0.789 -0.7744 -0.7848  0.1071
 4431SOL    HW214193   6.837   5.881   0.849  0.4663 -1.7218 -2.9008
 4432SOL     OW14194   0.561   6.775   5.053  0.2032 -0.0584 -0.7502
 4432SOL    HW114195   0.520   6.703   5.108 -0.5688  1.6532  1.0246
 4432SOL    HW214196   0.628   6.826   5.107  1.7472 -0.2443 -2.3825
 4433SOL     OW14197   6.650   2.130   0.320  0.4891  0.3079  0.4319
 4433SOL    HW114198   6.613   2.144   0.228 -0.0616  1.4369  0.8067
 4433SOL    HW214199   6.748   2.152   0.320  0.5335  0.1262  0.0880
 4434SOL     OW14200   5.421   1.596   0.880 -0.5358 -0.5607  0.5710
 4434SOL    HW114201   5.389   1.558   0.968  0.3223 -1.6037  0.4470
 4434SOL    HW214202   5.344   1.600   0.816 -1.6625  2.0595  1.9325
 4435SOL     OW14203   0.518   6.572   3.322  0.0691  0.3424 -0.4277
 4435SOL    HW114204   0.494   6.653   3.376 -0.2485  1.0503 -1.5968
 4435SOL    HW214205   0.476   6.579   3.231 -0.6605 -1.5318 -0.2794
 4436SOL     OW14206   2.768   0.924   1.468 -0.7035  0.1563  0.2175
 4436SOL    HW114207   2.777   0.891   1.562 -0.8558  2.0902  0.9499
 4436SOL    HW214208   2.671   0.927   1.443 -0.7917  1.2526  0.6352
 4437SOL     OW14209   0.307   1.288   4.917 -0.1933  0.1247  0.5567
 4437SOL    HW114210   0.289   1.348   4.995 -1.9348  0.0557  0.2426
 4437SOL    HW214211   0.246   1.312   4.841 -0.4143 -1.5457  0.1577
 4438SOL     OW14212   0.125   5.856   6.282  0.4142 -0.2090 -0.3447
 4438SOL    HW114213   0.026   5.846   6.279  0.4711 -0.7855 -0.3029
 4438SOL    HW214214   0.153   5.892   6.371  0.1496  1.0806 -0.7567
 4439SOL     OW14215   0.860   1.758   4.379  0.0177 -0.5058  0.4253
 4439SOL    HW114216   0.807   1.800   4.453  2.2029 -0.3622  2.0135
 4439SOL    HW214217   0.839   1.804   4.292 -1.2460  0.5853  1.2731
 4440SOL     OW14218   5.336   2.405   4.135 -0.1523 -0.2250 -0.0630
 4440SOL    HW114219   5.294   2.316   4.149 -1.8870  0.5543 -0.1295
 4440SOL    HW214220   5.433   2.400   4.160  0.0473 -2.3726 -1.0531
 4441SOL     OW14221   3.423   0.484   3.522  0.0084  0.2962  0.4788
 4441SOL    HW114222   3.495   0.542   3.485  0.9610 -0.9403  0.3528
 4441SOL    HW214223   3.459   0.428   3.596 -0.6021 -0.8793 -0.0714
 4442SOL     OW14224   0.917   5.659   6.466  0.1012  0.0280 -0.3280
 4442SOL    HW114225   0.996   5.619   6.419 -0.2498 -0.4742 -0.4971
 4442SOL    HW214226   0.871   5.724   6.405  1.2766  1.5256  0.2972
 4443SOL     OW14227   1.729   3.049   4.080 -0.0661  0.5457  0.0676
 4443SOL    HW114228   1.668   2.974   4.053 -0.6038  0.9649  0.1009
 4443SOL    HW214229   1.717   3.126   4.017 -0.9683  1.3518  1.1718
 4444SOL     OW14230   5.978   0.964   3.748  0.7861 -0.0761 -0.3024
 4444SOL    HW114231   6.074   0.936   3.746  0.4939 -1.3471  1.1238
 4444SOL    HW214232   5.967   1.039   3.814  0.8243  0.1637 -0.5699
 4445SOL     OW14233   1.207   1.673   0.383  0.1902  0.1271 -0.4861
 4445SOL    HW114234   1.242   1.616   0.308 -1.3227  0.8514 -1.8123
 4445SOL    HW214235   1.283   1.724   0.424  1.1840 -0.9354 -0.9384
 4446SOL     OW14236   5.787   1.428   2.517  0.1198  0.5095  0.7232
 4446SOL    HW114237   5.832   1.339   2.507 -0.2154  0.3449  0.6634
 4446SOL    HW214238   5.798   1.480   2.432  0.2437  0.4905  0.7280
 4447SOL     OW14239   1.793   3.306   4.992  0.2246  0.3680 -0.1233
 4447SOL    HW114240   1.797   3.353   4.904 -0.6905 -1.3145 -1.1055
 4447SOL    HW214241   1.881   3.313   5.038  0.3438  2.3342 -0.5754
 4448SOL     OW14242   0.620   4.001   2.911 -0.3116 -0.0584 -0.5814
 4448SOL    HW114243   0.606   3.911   2.953  0.1641 -0.1849 -0.6960
 4448SOL    HW214244   0.704   4.001   2.858  0.1459  0.7045  0.1150
 4449SOL     OW14245   0.527   3.141   5.748 -1.4405 -0.4800 -0.1955
 4449SOL    HW114246   0.524   3.093   5.835 -3.0490  1.1507  0.7229
 4449SOL    HW214247   0.558   3.078   5.676  1.0057 -1.5588  1.6802
 4450SOL     OW14248   7.010   3.716   0.099 -0.1404  0.4686 -0.6329
 4450SOL    HW114249   6.976   3.752   0.012  0.2524  0.5886 -0.7390
 4450SOL    HW214250   7.049   3.791   0.153  1.7119  0.0628 -1.3278
 4451SOL     OW14251   6.639   6.329   1.001  0.4804 -0.5528 -0.5161
 4451SOL    HW114252   6.668   6.396   0.933  2.4658 -2.2540 -1.4403
 4451SOL    HW214253   6.561   6.365   1.052 -0.1513  1.3720 -2.6928
 4452SOL     OW14254   0.685   1.296   3.392  0.5307 -0.2184  0.0728
 4452SOL    HW114255   0.678   1.388   3.429 -0.4747 -0.1786 -0.1809
 4452SOL    HW214256   0.774   1.283   3.350 -0.0760  1.3966 -1.8774
 4453SOL     OW14257   3.810   1.433   4.927  0.0216 -0.5358 -0.0096
 4453SOL    HW114258   3.874   1.434   4.851  0.0687 -1.0557  0.0197
 4453SOL    HW214259   3.793   1.527   4.958 -0.9774 -0.2005 -1.4819
 4454SOL     OW14260   5.469   5.457   5.890  0.1873  0.2263  0.0078
 4454SOL    HW114261   5.479   5.537   5.832  0.6257  0.4822  0.4310
 4454SOL    HW214262   5.372   5.440   5.908  0.0345 -0.0063 -0.9939
 4455SOL     OW14263   6.100   4.017   3.904  0.5718  0.1945 -0.3666
 4455SOL    HW114264   6.010   4.060   3.914  0.8232  0.4233  1.3488
 4455SOL    HW214265   6.125   4.012   3.808 -1.8059 -0.9843 -0.9977
 4456SOL     OW14266   6.188   2.500   3.163  0.2672  0.3871 -0.4730
 4456SOL    HW114267   6.244   2.442   3.222 -0.1489  0.1943 -0.2644
 4456SOL    HW214268   6.098   2.514   3.205  0.6031  1.7855 -0.1562
 4457SOL     OW14269   5.510   0.913   5.661 -0.0827 -0.1944  0.0257
 4457SOL    HW114270   5.430   0.928   5.719 -0.6974  0.6359 -0.9974
 4457SOL    HW214271   5.509   0.818   5.628  0.3322 -0.7046  1.4222
 4458SOL     OW14272   1.354   3.380   3.591  0.1605  0.1586  0.2548
 4458SOL    HW114273   1.258   3.399   3.612 -0.4472 -0.9153 -1.3198
 4458SOL    HW214274   1.368   3.281   3.585  1.3622  0.3075  0.4386
 4459SOL     OW14275   1.071   6.487   4.255  0.5649 -0.1035  0.1957
 4459SOL    HW114276   1.059   6.558   4.324 -3.3912 -0.4711  0.1228
 4459SOL    HW214277   1.053   6.398   4.296 -1.3151 -0.3677 -1.0846
 4460SOL     OW14278   5.277   4.541   2.845  0.5579 -0.1563  0.2128
 4460SOL    HW114279   5.201   4.606   2.841  1.0573  0.4768  0.7901
 4460SOL    HW214280   5.326   4.551   2.931  0.2000 -1.8378  0.6513
 4461SOL     OW14281   0.058   0.193   1.701  0.0464 -0.3196  0.1966
 4461SOL    HW114282   0.083   0.102   1.732 -1.2463 -0.4735  0.8692
 4461SOL    HW214283   0.087   0.261   1.769 -1.0795 -0.4746  0.8593
 4462SOL     OW14284   5.953   6.391   0.983 -0.0671  0.6989  0.3227
 4462SOL    HW114285   6.004   6.323   0.930 -0.8057  1.3818 -1.3531
 4462SOL    HW214286   5.887   6.436   0.923  0.3426  2.8308  1.4015
 4463SOL     OW14287   0.769   0.012   0.078  0.2328  0.5017  0.0499
 4463SOL    HW114288   0.784   0.100   0.034  0.0934 -0.7644 -2.8143
 4463SOL    HW214289   0.857  -0.032   0.096  0.3425 -0.3766 -2.2624
 4464SOL     OW14290   3.197   1.376   1.569  0.5564 -0.1799  0.3799
 4464SOL    HW114291   3.190   1.408   1.663 -0.0817  0.2652  0.1876
 4464SOL    HW214292   3.282   1.409   1.529  0.9816 -0.6272  0.8856
 4465SOL     OW14293   4.900   6.561   1.998 -0.6363 -0.2472 -0.4374
 4465SOL    HW114294   4.936   6.471   2.024 -0.2929 -0.2842 -1.0092
 4465SOL    HW214295   4.852   6.602   2.075  3.4055  1.2637  1.6095
 4466SOL     OW14296   1.366   6.165   2.072 -1.2128  0.1574 -0.1993
 4466SOL    HW114297   1.363   6.086   2.132 -0.5223  0.1513 -0.1594
 4466SOL    HW214298   1.425   6.235   2.111 -0.8022  0.1791 -0.8314
 4467SOL     OW14299   5.767   5.014   2.047  0.0497  0.5140  0.0881
 4467SOL    HW114300   5.827   5.012   2.127  0.1974  1.2653  0.0029
 4467SOL    HW214301   5.717   4.928   2.041  0.0185  0.4601  0.9945
 4468SOL     OW14302   2.442   2.380   5.157 -0.6043  0.4793 -0.3599
 4468SOL    HW114303   2.509   2.450   5.134 -0.1246 -0.5186 -2.2146
 4468SOL    HW214304   2.401   2.344   5.073  0.4051 -2.6411  0.3480
 4469SOL     OW14305   6.474   0.647   5.316 -0.7135  0.6580 -0.4710
 4469SOL    HW114306   6.497   0.691   5.230  0.1339 -0.0002 -0.5991
 4469SOL    HW214307   6.521   0.559   5.322 -0.8610  0.6343  0.6105
 4470SOL     OW14308   4.263   1.300   6.421 -0.1046 -0.4311  0.7250
 4470SOL    HW114309   4.279   1.325   6.517 -0.4322  1.9179  0.2206
 4470SOL    HW214310   4.339   1.334   6.365 -0.9783  0.1813 -0.1216
 4471SOL     OW14311   4.268   1.469   5.958 -0.4475 -0.5010 -0.8774
 4471SOL    HW114312   4.306   1.455   6.049 -0.5854  0.4689 -0.6521
 4471SOL    HW214313   4.309   1.551   5.917 -0.6663 -0.7099 -1.5305
 4472SOL     OW14314   6.386   6.848   1.294 -0.3049  0.3926  0.0158
 4472SOL    HW114315   6.482   6.830   1.314 -0.3468  1.3885  1.2211
 4472SOL    HW214316   6.338   6.869   1.379 -1.3734  0.8972 -0.6948
 4473SOL     OW14317   5.849   2.447   0.816 -0.4479  0.1616  0.6666
 4473SOL    HW114318   5.895   2.359   0.803 -1.3837 -0.0894 -1.2142
 4473SOL    HW214319   5.755   2.430   0.845 -0.6103  0.5559  0.3663
 4474SOL     OW14320   4.251   1.305   2.440  0.3744  0.2601  0.3933
 4474SOL    HW114321   4.190   1.244   2.490 -2.5770  2.0743 -0.6748
 4474SOL    HW214322   4.235   1.294   2.342  1.4333  1.1406  0.1061
 4475SOL     OW14323   4.930   2.592   0.829 -0.3474  0.1259  0.1476
 4475SOL    HW114324   4.860   2.521   0.819 -0.8484  0.7103 -0.6042
 4475SOL    HW214325   4.888   2.682   0.821  0.1330  0.5572  2.0783
 4476SOL     OW14326   1.905   1.544   6.779 -0.0629 -0.0921 -0.1084
 4476SOL    HW114327   1.960   1.466   6.809  1.4497  0.1488 -2.0577
 4476SOL    HW214328   1.913   1.618   6.846  0.8267 -0.5863  0.3562
 4477SOL     OW14329   3.447   0.440   6.794  0.2072 -0.3866 -0.3139
 4477SOL    HW114330   3.388   0.477   6.722 -0.4310 -0.3621  0.2212
 4477SOL    HW214331   3.536   0.416   6.754  0.0532  0.1443 -1.0018
 4478SOL     OW14332   6.875   0.185   5.543 -0.3256 -0.4035  0.0919
 4478SOL    HW114333   6.838   0.252   5.608 -1.4005 -1.0471  0.1718
 4478SOL    HW214334   6.856   0.215   5.450  1.3950  0.6216  0.0415
 4479SOL     OW14335   0.835   1.259   5.154  0.3024  0.2272  0.0738
 4479SOL    HW114336   0.854   1.291   5.247  0.3217 -0.6323  0.3765
 4479SOL    HW214337   0.895   1.306   5.089  1.9661 -0.8382  0.7626
 4480SOL     OW14338   5.551   0.241   4.246 -0.0674  0.3166 -0.3602
 4480SOL    HW114339   5.490   0.245   4.167  0.1751 -1.5742 -0.7005
 4480SOL    HW214340   5.524   0.165   4.305  1.7321 -0.3969 -0.3788
 4481SOL     OW14341   4.351   0.907   1.006  0.6697 -0.1204  0.3921
 4481SOL    HW114342   4.417   0.958   0.950  1.2996 -0.9604  0.3391
 4481SOL    HW214343   4.388   0.895   1.098 -0.1408  0.8149  0.8548
 4482SOL     OW14344   1.469   4.058   1.543 -0.2394  0.2812 -0.0243
 4482SOL    HW114345   1.418   4.089   1.463  0.4453  0.5082 -0.3751
 4482SOL    HW214346   1.404   4.030   1.614 -0.8706 -0.7774 -0.9736
 4483SOL     OW14347   6.777   5.234   0.476  0.1408 -0.5119  0.3084
 4483SOL    HW114348   6.828   5.220   0.391  1.7441  2.0339  0.7660
 4483SOL    HW214349   6.830   5.199   0.553 -0.0014 -0.2289  0.5354
 4484SOL     OW14350   6.881   2.463   1.824 -0.0201 -0.6519  0.0357
 4484SOL    HW114351   6.785   2.467   1.853  0.7086  0.0751  2.7124
 4484SOL    HW214352   6.912   2.555   1.801 -0.2028 -1.0401 -1.9183
 4485SOL     OW14353   4.674   1.505   2.376  0.8602 -0.5830  0.5534
 4485SOL    HW114354   4.722   1.497   2.464  1.0930  3.1526  0.9157
 4485SOL    HW214355   4.576   1.511   2.392  0.8094 -1.0588  0.4358
 4486SOL     OW14356   1.917   2.308   3.135 -0.2425  0.3459 -0.3219
 4486SOL    HW114357   1.918   2.213   3.165 -1.7086 -0.2506 -1.9572
 4486SOL    HW214358   2.010   2.340   3.119  0.2888 -0.6396  0.7192
 4487SOL     OW14359   1.123   4.484   1.009  0.4200 -0.1960  0.5007
 4487SOL    HW114360   1.160   4.572   1.040  0.9623  0.7260 -2.4022
 4487SOL    HW214361   1.183   4.446   0.939 -1.6149 -1.0785 -0.8679
 4488SOL     OW14362   5.240   1.120   0.798 -0.2370 -0.0898  0.3866
 4488SOL    HW114363   5.169   1.143   0.864 -0.4551  0.4434 -0.0226
 4488SOL    HW214364   5.329   1.122   0.843 -0.1615  2.2084  0.2867
 4489SOL     OW14365   6.758   3.625   2.789  0.5163  0.0067  0.0103
 4489SOL    HW114366   6.818   3.607   2.867  0.2174 -1.6087 -0.0896
 4489SOL    HW214367   6.731   3.538   2.747  0.5148  0.8225 -1.7890
 4490SOL     OW14368   0.750   1.563   6.759 -0.2245  0.2860  0.0315
 4490SOL    HW114369   0.729   1.494   6.691 -1.2780  1.1315 -0.5304
 4490SOL    HW214370   0.840   1.604   6.739  0.2952 -0.7316  0.2382
 4491SOL     OW14371   0.274   4.455   1.315 -0.4353  0.3598 -0.2366
 4491SOL    HW114372   0.369   4.476   1.291 -0.1161  1.4741  1.7221
 4491SOL    HW214373   0.232   4.402   1.242  1.7392 -0.3204 -1.0834
 4492SOL     OW14374   6.340   1.786   1.538 -0.3623 -0.2051  0.0286
 4492SOL    HW114375   6.379   1.743   1.620 -0.0216 -1.9866 -1.0234
 4492SOL    HW214376   6.306   1.715   1.476  0.1826  1.0497 -1.7857
 4493SOL     OW14377   4.066   1.003   5.332  0.0069 -0.4446  0.4617
 4493SOL    HW114378   4.163   1.028   5.329  0.3091 -1.6096 -0.0641
 4493SOL    HW214379   4.010   1.086   5.342  1.0235  0.2927  0.1910
 4494SOL     OW14380   1.832   0.623   0.975 -0.2033  0.3906 -0.5867
 4494SOL    HW114381   1.816   0.618   1.074  1.2197  0.1424 -0.3468
 4494SOL    HW214382   1.756   0.670   0.931 -2.4440 -2.2668  0.1847
 4495SOL     OW14383   1.638   1.565   0.285  0.2725 -0.5543  0.2997
 4495SOL    HW114384   1.670   1.516   0.204 -0.2321 -1.1280  0.4376
 4495SOL    HW214385   1.606   1.656   0.259  2.0915  0.0934  0.1776
 4496SOL     OW14386   5.481   5.007   0.599  0.6466  0.5811 -0.0358
 4496SOL    HW114387   5.406   5.062   0.563  0.9547  0.7607 -0.4134
 4496SOL    HW214388   5.542   4.980   0.524  0.4675 -0.3350  0.1291
 4497SOL     OW14389   3.130   4.936   1.048  0.3853 -0.1464 -0.2420
 4497SOL    HW114390   3.209   4.941   1.109  0.3833 -0.1536 -0.2387
 4497SOL    HW214391   3.155   4.887   0.965  0.1483 -0.9303  0.1369
 4498SOL     OW14392   1.263   2.278   0.833  0.2448 -0.2943  0.0985
 4498SOL    HW114393   1.341   2.249   0.889  0.5622  0.2235 -0.0640
 4498SOL    HW214394   1.288   2.361   0.783  0.1394 -1.0053 -1.1813
 4499SOL     OW14395   0.163   6.073   3.511 -0.5899 -0.6575 -0.2650
 4499SOL    HW114396   0.209   6.057   3.424 -1.2889 -1.7453 -0.4510
 4499SOL    HW214397   0.071   6.107   3.495  0.5008  2.9078  0.1093
 4500SOL     OW14398   0.491   4.252   3.763 -0.5192  0.1132 -0.6185
 4500SOL    HW114399   0.544   4.331   3.792 -1.8027  0.6188  0.4713
 4500SOL    HW214400   0.437   4.275   3.682 -0.6629  0.2701 -0.4796
 4501SOL     OW14401   6.007   5.440   2.273 -0.0334 -0.6843 -0.2641
 4501SOL    HW114402   6.020   5.429   2.372 -1.4040  0.0743  0.0259
 4501SOL    HW214403   6.092   5.470   2.231  0.6774 -1.4007  0.6148
 4502SOL     OW14404   1.613   0.993   3.613  0.3256 -0.2820  0.1414
 4502SOL    HW114405   1.698   0.951   3.584  0.3119  0.3087 -0.8042
 4502SOL    HW214406   1.630   1.052   3.692  0.8277 -0.0359 -0.1470
 4503SOL     OW14407   0.409   5.694   6.993  0.6301  0.0124 -0.2205
 4503SOL    HW114408   0.373   5.774   7.040  1.1991 -0.7476  1.5797
 4503SOL    HW214409   0.373   5.611   7.036  0.1872 -0.7298 -1.9364
 4504SOL     OW14410   2.516   0.677   3.915 -0.3240  0.2585  0.0536
 4504SOL    HW114411   2.428   0.631   3.927 -0.8243  1.5068  1.4334
 4504SOL    HW214412   2.503   0.776   3.917  1.2080  0.4850  1.4295
 4505SOL     OW14413   6.588   0.978   6.068  0.4096 -0.5161 -0.0553
 4505SOL    HW114414   6.584   1.031   6.152  1.3462 -0.7634  0.1550
 4505SOL    HW214415   6.572   1.039   5.990 -1.8572 -0.5220  0.3371
 4506SOL     OW14416   5.329   1.179   6.021 -0.6120  0.3056 -0.1574
 4506SOL    HW114417   5.323   1.082   6.044 -0.8935  0.4987  0.5878
 4506SOL    HW214418   5.241   1.223   6.037 -0.3181  0.8079  0.1006
 4507SOL     OW14419   1.901   6.480   3.987 -0.3059  0.5133 -0.1246
 4507SOL    HW114420   1.875   6.509   4.079 -0.1148 -1.2460  0.5336
 4507SOL    HW214421   1.819   6.458   3.934 -0.3719  0.3910  0.0280
 4508SOL     OW14422   0.845   3.124   1.192  0.1548  0.0595  0.3189
 4508SOL    HW114423   0.900   3.093   1.114  1.1983  1.0318  0.6403
 4508SOL    HW214424   0.905   3.149   1.268 -0.9070 -2.6951  2.2030
 4509SOL     OW14425   2.380   0.914   2.237  0.1725  0.1388 -0.2010
 4509SOL    HW114426   2.435   0.876   2.311 -0.6011  0.3665  0.5028
 4509SOL    HW214427   2.349   0.840   2.177  1.5541  0.0468 -0.8481
 4510SOL     OW14428   5.739   0.993   0.061 -0.1276 -0.5866  0.2904
 4510SOL    HW114429   5.679   0.974   0.138  0.7773 -0.7569  0.9769
 4510SOL    HW214430   5.805   0.919   0.051 -0.3457 -0.6532 -0.7729
 4511SOL     OW14431   0.979   1.448   0.086  0.3248  0.1545 -0.2185
 4511SOL    HW114432   0.951   1.402   0.170 -1.1442 -1.0822 -1.3370
 4511SOL    HW214433   0.917   1.525   0.068  1.5201  1.3529  0.5452
 4512SOL     OW14434   1.422   3.141   1.779 -0.5976  0.1313 -0.0892
 4512SOL    HW114435   1.342   3.201   1.779 -0.6576  0.1672  2.5022
 4512SOL    HW214436   1.503   3.193   1.805  0.1191 -0.1459 -1.6218
 4513SOL     OW14437   6.467   5.424   6.911 -0.4741 -0.3087 -0.0327
 4513SOL    HW114438   6.487   5.461   6.820  0.3773  0.3584  0.4119
 4513SOL    HW214439   6.541   5.363   6.939  0.1631  0.8589  0.9267
 4514SOL     OW14440   6.827   3.228   4.518 -0.2280  0.1319  0.5718
 4514SOL    HW114441   6.758   3.297   4.494 -0.9749 -0.0403  2.0967
 4514SOL    HW214442   6.907   3.240   4.460 -0.0996  2.6867  1.1390
 4515SOL     OW14443   4.292   1.740   5.289 -0.3276  0.4944 -0.2900
 4515SOL    HW114444   4.304   1.712   5.194 -1.3370 -0.4509 -0.1683
 4515SOL    HW214445   4.289   1.839   5.295 -0.4328  0.5583 -1.2641
 4516SOL     OW14446   4.201   6.694   5.820  0.0187  0.9061  0.1649
 4516SOL    HW114447   4.124   6.683   5.758 -1.1437  2.4729  1.2582
 4516SOL    HW214448   4.188   6.634   5.900  1.3236 -0.8272 -0.8579
 4517SOL     OW14449   0.595   3.905   4.763  0.2816 -0.3183 -0.4949
 4517SOL    HW114450   0.509   3.906   4.813 -0.2343  1.8701 -1.3096
 4517SOL    HW214451   0.647   3.822   4.786 -0.7471 -0.3023  2.1724
 4518SOL     OW14452   1.842   2.269   5.294  0.4737  0.1510 -0.5580
 4518SOL    HW114453   1.878   2.308   5.378 -0.9743 -2.0355  1.1880
 4518SOL    HW214454   1.753   2.311   5.273 -1.8306 -2.8897  2.1624
 4519SOL     OW14455   2.621   0.884   0.290 -0.1824  0.1590 -0.6588
 4519SOL    HW114456   2.537   0.830   0.297 -0.6956  0.8551 -1.2625
 4519SOL    HW214457   2.700   0.823   0.290 -0.7367 -0.5730 -0.9887
 4520SOL     OW14458   3.798   4.402   1.551  0.4007 -0.3281 -0.2097
 4520SOL    HW114459   3.887   4.358   1.555  0.2336 -0.6337  0.2507
 4520SOL    HW214460   3.803   4.492   1.594  0.3852 -0.5320  0.2299
 4521SOL     OW14461   4.859   3.758   0.643  0.2846 -0.5611 -0.6485
 4521SOL    HW114462   4.823   3.825   0.708 -0.3603 -0.1470 -1.4149
 4521SOL    HW214463   4.940   3.796   0.597  0.0799 -0.4141 -0.8880
 4522SOL     OW14464   4.139   6.933   0.213 -0.2572 -0.8283  0.1308
 4522SOL    HW114465   4.098   6.982   0.135  0.2478  1.2527  1.0952
 4522SOL    HW214466   4.080   6.945   0.293  0.9458  0.0325  0.9078
 4523SOL     OW14467   0.615   0.370   4.405  0.4360 -0.3988  0.2390
 4523SOL    HW114468   0.654   0.458   4.433  2.7245 -1.1596 -0.3485
 4523SOL    HW214469   0.545   0.386   4.335  2.3454  0.8894 -1.4760
 4524SOL     OW14470   0.014   6.863   0.462 -0.4941 -0.2060 -0.1799
 4524SOL    HW114471   0.035   6.823   0.372 -1.3311  2.1346 -1.4989
 4524SOL    HW214472  -0.070   6.822   0.497 -0.1311 -1.1895 -0.4044
 4525SOL     OW14473   0.898   3.873   2.129 -0.0261  0.5705  0.2378
 4525SOL    HW114474   0.938   3.817   2.201 -1.1310  0.6008  0.9004
 4525SOL    HW214475   0.967   3.937   2.094  0.9627 -0.4943  0.1639
 4526SOL     OW14476   0.251   6.076   3.262  0.5533  0.0683  0.5337
 4526SOL    HW114477   0.207   6.166   3.259  0.6128  0.0762 -0.3044
 4526SOL    HW214478   0.226   6.024   3.180 -0.5760 -1.2127  1.6331
 4527SOL     OW14479   3.372   0.654   6.161  0.1525 -0.3999  0.0307
 4527SOL    HW114480   3.472   0.648   6.156  0.4055  1.4629  1.6053
 4527SOL    HW214481   3.341   0.733   6.108 -0.4922 -0.9563 -0.4301
 4528SOL     OW14482   3.458   4.093   1.252 -0.1005  0.6210 -0.1563
 4528SOL    HW114483   3.359   4.100   1.260 -0.1866  0.2367 -0.7886
 4528SOL    HW214484   3.490   4.014   1.304 -0.2007  0.3964 -0.4315
 4529SOL     OW14485   4.532   5.076   5.302  0.2429  0.2247 -0.5985
 4529SOL    HW114486   4.485   5.101   5.387 -2.2799  0.3906 -1.9248
 4529SOL    HW214487   4.611   5.135   5.288  0.3270  0.6201  1.2882
 4530SOL     OW14488   0.517   0.882   5.011 -0.3365  0.0194  0.3978
 4530SOL    HW114489   0.452   0.948   5.049 -0.5657  0.5895 -0.9235
 4530SOL    HW214490   0.561   0.832   5.086 -0.9214  0.9334  1.3905
 4531SOL     OW14491   5.705   2.697   0.623 -0.1007  0.2968  0.2174
 4531SOL    HW114492   5.722   2.619   0.564 -1.8150 -0.1089  0.1889
 4531SOL    HW214493   5.686   2.665   0.716  0.2262  0.7577  0.4474
 4532SOL     OW14494   4.329   4.611   2.012 -0.4872 -0.1323  0.5706
 4532SOL    HW114495   4.352   4.562   2.096 -0.7231 -0.7652  0.2765
 4532SOL    HW214496   4.331   4.547   1.935 -0.7113  0.3457  0.1635
 4533SOL     OW14497   6.169   5.234   4.919 -0.1334 -0.0015 -0.2809
 4533SOL    HW114498   6.179   5.135   4.915  2.5832  0.2310 -0.7907
 4533SOL    HW214499   6.102   5.264   4.851 -0.1005 -1.3793 -0.9488
 4534SOL     OW14500   3.585   4.509   5.804 -0.8024  0.4362  0.0178
 4534SOL    HW114501   3.553   4.416   5.786  1.3070 -0.3703  0.2348
 4534SOL    HW214502   3.525   4.552   5.871 -2.7107 -0.1797 -1.2029
 4535SOL     OW14503   0.488   3.318   5.005 -0.2075  0.4872 -0.3381
 4535SOL    HW114504   0.453   3.333   5.097 -1.4150  1.1518 -0.8823
 4535SOL    HW214505   0.572   3.264   5.010 -1.9964 -2.4313  0.9810
 4536SOL     OW14506   5.077   4.444   5.481 -0.4912  0.2161  0.1333
 4536SOL    HW114507   5.073   4.504   5.401 -2.4037  1.5864  1.1894
 4536SOL    HW214508   5.015   4.367   5.468  2.0714 -1.7740 -1.2873
 4537SOL     OW14509   5.645   2.959   5.197  0.4524  0.4631  0.3506
 4537SOL    HW114510   5.570   2.982   5.135 -0.7533 -2.1615  0.7016
 4537SOL    HW214511   5.699   2.883   5.159  0.9506  0.1766  1.5509
 4538SOL     OW14512   1.763   4.040   2.259  0.5289 -0.0490 -0.1386
 4538SOL    HW114513   1.704   4.081   2.328  2.4674 -0.8927  2.1230
 4538SOL    HW214514   1.806   4.112   2.204  0.8184  0.7644  1.1249
 4539SOL     OW14515   1.687   0.626   4.596 -0.6340 -0.0136  0.0848
 4539SOL    HW114516   1.775   0.632   4.548 -0.6088 -1.6264 -0.1158
 4539SOL    HW214517   1.656   0.531   4.596 -0.3641 -0.2188  3.7485
 4540SOL     OW14518   4.200   4.805   4.657  0.4127 -0.1494  0.2266
 4540SOL    HW114519   4.105   4.814   4.685  0.3440 -1.1453  0.3432
 4540SOL    HW214520   4.255   4.775   4.736  1.2338  2.5275  0.7655
 4541SOL     OW14521   1.846   5.774   1.511 -0.0813  0.0059  0.2045
 4541SOL    HW114522   1.832   5.784   1.413 -1.0387  0.9755  0.4265
 4541SOL    HW214523   1.888   5.857   1.548 -2.5268  0.9426  1.0819
 4542SOL     OW14524   1.928   0.155   6.037  0.0870  0.6856 -0.7276
 4542SOL    HW114525   1.840   0.200   6.051 -0.4201  0.1587 -2.0804
 4542SOL    HW214526   1.983   0.163   6.121 -0.6180  2.3622 -0.3850
 4543SOL     OW14527   5.317   2.414   2.382 -0.3087 -0.0030  0.4654
 4543SOL    HW114528   5.336   2.511   2.395  1.6903 -0.2585 -0.2085
 4543SOL    HW214529   5.218   2.400   2.376 -0.6867  1.8327  1.5570
 4544SOL     OW14530   5.663   5.090   1.066 -0.0307 -0.1733  0.7432
 4544SOL    HW114531   5.741   5.033   1.090  0.3294 -0.7654 -1.6022
 4544SOL    HW214532   5.604   5.041   1.002 -0.2785  1.6652 -0.5123
 4545SOL     OW14533   1.736   1.241   6.232  0.2823 -0.3012  0.7505
 4545SOL    HW114534   1.774   1.177   6.299  0.9358  0.5036  1.1792
 4545SOL    HW214535   1.708   1.325   6.279  0.2827  0.0794  0.0809
 4546SOL     OW14536   5.374   6.771   5.850 -0.0965  0.2768 -0.2900
 4546SOL    HW114537   5.407   6.784   5.757  1.9296 -0.9735  0.2095
 4546SOL    HW214538   5.448   6.788   5.915 -1.0445 -0.4089  1.0284
 4547SOL     OW14539   1.391   4.278   4.538 -0.4875 -0.4708 -0.4171
 4547SOL    HW114540   1.419   4.214   4.610 -0.8685  0.0408  0.1865
 4547SOL    HW214541   1.412   4.371   4.566 -2.7775 -0.0488  0.0754
 4548SOL     OW14542   1.425   2.721   4.417 -0.4020  0.1610  0.0663
 4548SOL    HW114543   1.402   2.626   4.438 -0.3047  0.6543  2.7761
 4548SOL    HW214544   1.354   2.781   4.454  2.2242  1.3974  3.6444
 4549SOL     OW14545   2.704   0.769   6.322  0.1409 -0.1673  1.0559
 4549SOL    HW114546   2.717   0.794   6.226  2.5892  1.4415  1.6971
 4549SOL    HW214547   2.734   0.675   6.336 -0.6307 -0.5605  0.2061
 4550SOL     OW14548   6.651   4.836   1.348 -0.2840  0.0777  0.6547
 4550SOL    HW114549   6.594   4.879   1.278 -0.3447  0.0696  0.6993
 4550SOL    HW214550   6.626   4.739   1.356  0.0568 -0.0386  0.3416
 4551SOL     OW14551   0.067   6.175   6.651 -0.2312  0.1530  0.1501
 4551SOL    HW114552   0.139   6.162   6.583 -0.3968  0.0899 -0.0122
 4551SOL    HW214553  -0.021   6.184   6.605 -0.7194 -2.5110  0.4547
 4552SOL     OW14554   3.359   7.012   5.195  0.1912 -0.0367 -0.3561
 4552SOL    HW114555   3.344   6.919   5.228 -0.7773 -0.7501 -2.6499
 4552SOL    HW214556   3.292   7.074   5.236  0.2110 -0.5233  0.4235
 4553SOL     OW14557   6.313   0.907   5.666 -0.3212  0.2153  0.8502
 4553SOL    HW114558   6.261   0.992   5.654 -0.0006  0.2478 -0.4941
 4553SOL    HW214559   6.395   0.910   5.608  0.2484 -0.5744  1.5996
 4554SOL     OW14560   2.294   5.093   3.130 -0.1896 -0.3785  0.1435
 4554SOL    HW114561   2.320   4.997   3.127 -0.3326 -0.5409  2.2776
 4554SOL    HW214562   2.259   5.122   3.041 -0.0737 -2.2583 -0.5494
 4555SOL     OW14563   4.790   6.669   3.414  0.1866 -0.2519 -0.0251
 4555SOL    HW114564   4.774   6.609   3.493 -1.3103  0.8694  0.5978
 4555SOL    HW214565   4.739   6.754   3.428  1.7468  0.9143 -1.1622
 4556SOL     OW14566   1.399   5.083   5.794 -0.3913  0.0592  0.0087
 4556SOL    HW114567   1.422   5.090   5.697  0.1321  1.2976  0.2002
 4556SOL    HW214568   1.331   5.152   5.817  0.2614  0.4811  0.7304
 4557SOL     OW14569   6.087   6.742   4.800 -0.2574  0.3987 -0.2407
 4557SOL    HW114570   6.098   6.834   4.836 -0.0349  0.4762 -0.5102
 4557SOL    HW214571   6.060   6.746   4.704 -1.9474  0.2148  0.1860
 4558SOL     OW14572   4.295   1.005   1.807  0.6045 -0.4779  0.7435
 4558SOL    HW114573   4.330   0.913   1.794  2.1069 -0.2305  2.6918
 4558SOL    HW214574   4.345   1.068   1.748  2.2854 -0.3846  2.2228
 4559SOL     OW14575   2.284   0.765   5.297  0.0376 -0.3169  0.2222
 4559SOL    HW114576   2.255   0.787   5.203  1.7700 -1.0832 -0.5437
 4559SOL    HW214577   2.258   0.671   5.318  0.2274 -0.3626  0.2537
 4560SOL     OW14578   5.942   3.389   1.464 -0.2662  0.0082  0.6193
 4560SOL    HW114579   6.004   3.311   1.453  0.3056  0.4712  0.5472
 4560SOL    HW214580   5.964   3.459   1.396 -2.6544 -0.9542 -1.2898
 4561SOL     OW14581   2.918   0.418   5.242  0.2066 -0.1705 -0.0967
 4561SOL    HW114582   2.969   0.367   5.312 -0.7399 -2.5107 -1.0169
 4561SOL    HW214583   2.865   0.489   5.287 -1.1184 -2.1884  1.7890
 4562SOL     OW14584   0.047   1.731   2.734  0.2241  0.4020 -0.2738
 4562SOL    HW114585  -0.033   1.713   2.677 -1.4951  0.5826  1.9494
 4562SOL    HW214586   0.020   1.787   2.813  2.8231  1.6062 -0.1201
 4563SOL     OW14587   5.908   2.597   2.913  0.0992 -0.4023  0.1762
 4563SOL    HW114588   5.986   2.544   2.947 -0.6377 -0.4920  1.8288
 4563SOL    HW214589   5.831   2.535   2.898 -1.1986  0.2108  3.3968
 4564SOL     OW14590   0.112   3.788   5.018  0.7765  0.0234 -0.2990
 4564SOL    HW114591   0.111   3.735   4.934 -2.7402 -0.8603  0.1402
 4564SOL    HW214592   0.127   3.728   5.096 -1.8253 -0.2661  0.0812
 4565SOL     OW14593   4.738   1.967   3.417 -0.6951  0.0518 -0.2674
 4565SOL    HW114594   4.701   1.916   3.495  1.3897 -1.3328 -0.1029
 4565SOL    HW214595   4.812   2.026   3.449  1.2866 -1.7337 -1.3559
 4566SOL     OW14596   1.681   4.975   0.448  0.4450 -0.4476 -0.0287
 4566SOL    HW114597   1.611   4.917   0.406 -1.1400  0.4059  1.3156
 4566SOL    HW214598   1.689   4.952   0.545  1.2249  0.2598  0.0904
 4567SOL     OW14599   0.455   0.736   0.896 -0.0830 -0.2952  0.1946
 4567SOL    HW114600   0.397   0.683   0.833 -0.4588 -0.1861  0.4461
 4567SOL    HW214601   0.399   0.802   0.946 -0.3090 -2.1638  2.6156
 4568SOL     OW14602   3.208   3.070   1.633 -0.1897  0.3351 -0.1485
 4568SOL    HW114603   3.118   3.108   1.653  1.0671  3.2909  0.4942
 4568SOL    HW214604   3.242   3.108   1.547  0.8459  0.0732  0.1262
 4569SOL     OW14605   4.405   1.360   6.186  0.0615  0.0760  0.1217
 4569SOL    HW114606   4.498   1.325   6.176 -0.0297 -0.4590  0.9840
 4569SOL    HW214607   4.408   1.453   6.223  0.2478 -0.3471  1.2175
 4570SOL     OW14608   1.186   1.316   5.328 -0.5965  0.3181 -0.0545
 4570SOL    HW114609   1.272   1.365   5.320 -0.8285  1.6082  3.4961
 4570SOL    HW214610   1.203   1.217   5.323  0.9803  0.5656 -0.1301
 4571SOL     OW14611   6.395   6.885   5.387  0.1890 -0.4212 -0.0561
 4571SOL    HW114612   6.452   6.942   5.446 -1.7541  0.5697  0.9600
 4571SOL    HW214613   6.413   6.788   5.407  2.4564 -0.1946 -0.7610
 4572SOL     OW14614   6.107   2.990   5.368  0.1450  0.6983 -0.0161
 4572SOL    HW114615   6.079   2.995   5.272  1.2149  0.3626 -0.3496
 4572SOL    HW214616   6.053   2.920   5.415 -0.7536  1.2299 -0.2346
 4573SOL     OW14617   6.339   3.822   3.294 -0.2794 -0.5423  0.4398
 4573SOL    HW114618   6.357   3.767   3.213 -1.7797  0.4489 -0.6401
 4573SOL    HW214619   6.277   3.773   3.355 -1.6956 -0.0741 -0.5685
 4574SOL     OW14620   2.875   6.140   1.468  0.5953  0.3247 -0.1538
 4574SOL    HW114621   2.959   6.132   1.522  1.1486 -0.1805 -1.0576
 4574SOL    HW214622   2.899   6.172   1.376 -0.1063 -0.6574 -0.6860
 4575SOL     OW14623   6.011   4.762   4.194  0.1751  0.0006 -0.2043
 4575SOL    HW114624   5.920   4.773   4.154 -0.3413  0.5950  1.0735
 4575SOL    HW214625   6.007   4.695   4.268  1.0317 -0.8087 -0.8668
 4576SOL     OW14626   1.993   3.047   4.025  0.8260  0.1717 -0.7781
 4576SOL    HW114627   2.056   2.975   4.053  0.1384  0.8760  3.2619
 4576SOL    HW214628   1.900   3.010   4.021  0.7607  0.3567 -0.9852
 4577SOL     OW14629   2.401   4.944   5.266  0.0006 -0.0439 -0.2473
 4577SOL    HW114630   2.443   4.953   5.176 -0.6601  1.0331 -0.4688
 4577SOL    HW214631   2.358   4.854   5.274 -1.2814  0.4012 -1.6209
 4578SOL     OW14632   6.208   6.770   2.884 -0.3607 -0.7647 -0.2159
 4578SOL    HW114633   6.257   6.806   2.804  0.7215 -0.4189  0.5747
 4578SOL    HW214634   6.273   6.724   2.944 -0.4581  1.9801  2.1784
 4579SOL     OW14635   5.886   4.069   2.361  0.1634 -0.3680 -0.2294
 4579SOL    HW114636   5.866   3.986   2.310  2.0060 -1.3985  0.6234
 4579SOL    HW214637   5.817   4.138   2.341 -1.7527 -2.2668 -0.5027
 4580SOL     OW14638   5.561   2.784   1.133  0.6555  0.1705 -0.1143
 4580SOL    HW114639   5.536   2.877   1.105  1.3155 -0.1111 -1.7026
 4580SOL    HW214640   5.618   2.788   1.215 -0.2628  1.0861  0.5060
 4581SOL     OW14641   4.508   0.461   0.649 -0.6252 -0.7259 -0.4521
 4581SOL    HW114642   4.560   0.474   0.564 -0.6047 -0.8266 -0.4544
 4581SOL    HW214643   4.568   0.420   0.718  0.2983  2.0651  0.5760
 4582SOL     OW14644   6.105   1.656   4.883 -0.0616  0.2722 -0.0973
 4582SOL    HW114645   6.011   1.623   4.872 -0.1943  0.5687  0.1226
 4582SOL    HW214646   6.131   1.711   4.804 -0.0281  0.0814 -0.2184
 4583SOL     OW14647   0.362   0.129   3.771  0.0059  0.2764  0.2423
 4583SOL    HW114648   0.375   0.229   3.770 -1.7979  0.5538 -1.1636
 4583SOL    HW214649   0.329   0.101   3.861 -1.1465  1.2343  0.1500
 4584SOL     OW14650   2.474   3.614   6.580 -0.0045  0.4868 -0.0828
 4584SOL    HW114651   2.554   3.673   6.583  0.4595 -0.0650 -0.9559
 4584SOL    HW214652   2.405   3.647   6.644  0.6642  1.3414  0.2133
 4585SOL     OW14653   0.356   6.404   2.631  0.1148 -0.3186  0.0684
 4585SOL    HW114654   0.412   6.352   2.696 -1.1853 -0.7978  0.8451
 4585SOL    HW214655   0.373   6.502   2.644  0.3032 -0.4321  0.7400
 4586SOL     OW14656   2.785   3.319   6.842 -0.0282  0.1123  0.1788
 4586SOL    HW114657   2.856   3.271   6.895  0.5282 -0.0005 -0.6552
 4586SOL    HW214658   2.818   3.335   6.749 -2.2249 -2.7847 -1.2756
 4587SOL     OW14659   1.211   6.004   6.014 -0.4660  0.1059 -0.4228
 4587SOL    HW114660   1.131   5.945   6.012 -0.5143  0.1838 -1.2501
 4587SOL    HW214661   1.275   5.972   6.084 -0.6277 -0.7359 -0.6538
 4588SOL     OW14662   2.471   3.876   1.524  0.1001 -0.0050  0.1380
 4588SOL    HW114663   2.559   3.863   1.479 -0.0231 -0.2896 -0.0258
 4588SOL    HW214664   2.461   3.810   1.598  0.5837  0.8980  1.0300
 4589SOL     OW14665   5.362   4.912   4.990 -0.3030 -0.6923  0.1814
 4589SOL    HW114666   5.427   4.890   5.063 -1.0229  0.5835  1.2660
 4589SOL    HW214667   5.406   4.971   4.923 -0.0900 -0.5276  0.4639
 4590SOL     OW14668   0.006   1.274   3.157  0.1065 -0.0006 -0.1721
 4590SOL    HW114669   0.098   1.315   3.163 -0.0513  0.2977  0.2771
 4590SOL    HW214670  -0.011   1.219   3.238 -0.1361 -0.0071 -0.2272
 4591SOL     OW14671   2.679   0.608   2.440 -0.0238 -0.5349 -0.0739
 4591SOL    HW114672   2.647   0.697   2.409  0.3670 -1.0607 -2.1073
 4591SOL    HW214673   2.602   0.555   2.474 -0.0830  1.0224  2.5659
 4592SOL     OW14674   6.875   0.047   5.162  0.3855 -0.3426  0.1017
 4592SOL    HW114675   6.900   0.022   5.069 -0.3993  0.2055 -0.2644
 4592SOL    HW214676   6.781   0.016   5.181  1.4447 -2.9540  1.6588
 4593SOL     OW14677   0.346   2.427   6.640 -0.1243 -0.4725  0.3545
 4593SOL    HW114678   0.348   2.431   6.540  2.1166 -2.0353  0.2560
 4593SOL    HW214679   0.324   2.517   6.676 -1.2360  0.0769 -1.5248
 4594SOL     OW14680   0.051   1.667   4.357  0.6201  0.8196  0.1233
 4594SOL    HW114681   0.055   1.594   4.288  0.3314 -0.4205  1.3876
 4594SOL    HW214682   0.139   1.673   4.404  0.2956  0.5067  0.7876
 4595SOL     OW14683   1.187   1.097   3.726 -0.3094 -0.0816  0.1595
 4595SOL    HW114684   1.104   1.045   3.707 -1.3786  1.3700  0.7172
 4595SOL    HW214685   1.247   1.094   3.645 -1.7328  0.3846 -0.9411
 4596SOL     OW14686   3.177   6.281   0.160  0.2237  0.2052 -0.2537
 4596SOL    HW114687   3.207   6.215   0.091  1.2875 -0.5718  0.9153
 4596SOL    HW214688   3.081   6.263   0.183  0.8042 -1.7823  0.9021
 4597SOL     OW14689   2.801   0.628   4.397  0.7931 -0.4176  0.8001
 4597SOL    HW114690   2.744   0.708   4.381  0.1743 -0.3754  2.8529
 4597SOL    HW214691   2.877   0.627   4.332 -1.3581 -0.3650 -1.8846
 4598SOL     OW14692   4.612   5.050   2.591  0.0897  0.2569  0.1028
 4598SOL    HW114693   4.518   5.052   2.557  0.1657 -0.3045 -0.1517
 4598SOL    HW214694   4.612   5.060   2.691 -0.1352  1.8950 -0.0290
 4599SOL     OW14695   4.327   5.245   0.157 -0.0747  0.3352 -0.2181
 4599SOL    HW114696   4.304   5.183   0.082 -1.2869  2.5723 -1.8123
 4599SOL    HW214697   4.414   5.290   0.136  0.8293 -0.8061  0.9570
 4600SOL     OW14698   5.912   2.950   2.248  0.0815  0.6736  0.1723
 4600SOL    HW114699   5.903   2.953   2.348  0.8751  0.8085  0.2436
 4600SOL    HW214700   5.823   2.969   2.206 -0.6585 -1.0780  0.8518
 4601SOL     OW14701   2.814   6.886   3.761 -0.2757  0.5013  0.2834
 4601SOL    HW114702   2.794   6.860   3.666 -0.0880  2.7751 -0.4448
 4601SOL    HW214703   2.772   6.820   3.823  0.3418 -1.5353 -1.3695
 4602SOL     OW14704   1.293   1.012   0.221  0.2010  0.3928  0.1930
 4602SOL    HW114705   1.373   0.998   0.163 -0.9568  1.9305 -1.9389
 4602SOL    HW214706   1.290   1.107   0.252 -1.3391  0.6605 -0.6912
 4603SOL     OW14707   5.812   5.505   0.894 -0.6605 -0.4158  0.2750
 4603SOL    HW114708   5.847   5.418   0.859 -0.8466 -0.7175  0.8234
 4603SOL    HW214709   5.857   5.580   0.847 -1.9541 -0.7892 -1.6529
 4604SOL     OW14710   4.566   5.231   0.411 -0.5161  0.5903  0.0471
 4604SOL    HW114711   4.617   5.252   0.328 -1.2833  0.3415 -0.4962
 4604SOL    HW214712   4.500   5.304   0.429 -1.5135 -0.1460 -0.5085
 4605SOL     OW14713   5.075   6.008   2.855  0.3868 -0.0948 -0.1654
 4605SOL    HW114714   4.981   6.016   2.887 -0.6029  0.8780 -2.9534
 4605SOL    HW214715   5.098   5.912   2.841 -0.7491 -0.2791 -0.8615
 4606SOL     OW14716   5.659   4.535   1.022 -0.2898 -0.3189 -0.6314
 4606SOL    HW114717   5.563   4.521   0.998 -0.0156 -0.9659 -1.4087
 4606SOL    HW214718   5.706   4.581   0.946 -0.2065  0.9765  0.1706
 4607SOL     OW14719   1.488   3.317   6.332 -0.4288 -0.2705  0.5675
 4607SOL    HW114720   1.404   3.356   6.371 -0.1713  0.8134  0.0829
 4607SOL    HW214721   1.556   3.389   6.322 -0.2672 -0.6425 -1.2675
 4608SOL     OW14722   5.337   1.471   5.818 -0.1523 -0.3941  0.4164
 4608SOL    HW114723   5.331   1.407   5.742  0.4047  0.0790 -0.0433
 4608SOL    HW214724   5.378   1.426   5.897 -0.8663 -0.9278  0.4842
 4609SOL     OW14725   4.045   0.105   6.267 -0.6241  0.0503 -0.2111
 4609SOL    HW114726   4.038   0.204   6.277  0.8791  0.2560 -1.0406
 4609SOL    HW214727   4.070   0.064   6.355  0.3306  0.5769 -0.2302
 4610SOL     OW14728   4.850   2.158   0.527  0.6207  0.6781  0.1119
 4610SOL    HW114729   4.950   2.161   0.529  0.6178  1.0969 -0.1975
 4610SOL    HW214730   4.820   2.106   0.447  0.5934  0.0492  0.5273
 4611SOL     OW14731   2.193   0.956   4.303 -0.4557  0.1812 -0.5879
 4611SOL    HW114732   2.205   0.933   4.206  0.2084 -0.4892 -0.3576
 4611SOL    HW214733   2.272   0.922   4.355  0.1967  2.3079 -0.0981
 4612SOL     OW14734   1.461   6.200   4.136 -0.0387  0.1376 -0.0497
 4612SOL    HW114735   1.476   6.117   4.082 -1.4246  0.7037 -1.3687
 4612SOL    HW214736   1.516   6.274   4.099  0.4053  0.0821  0.4836
 4613SOL     OW14737   3.016   0.950   2.874  0.2272  0.2863 -0.2579
 4613SOL    HW114738   2.975   0.913   2.957 -0.2789  0.3506 -0.4736
 4613SOL    HW214739   3.090   0.891   2.844 -0.8713 -0.8316 -0.8651
 4614SOL     OW14740   2.836   4.345   0.987 -0.1750 -0.3491  0.3409
 4614SOL    HW114741   2.860   4.310   0.897 -1.7446  0.1544 -0.2928
 4614SOL    HW214742   2.894   4.424   1.009 -1.2987  0.9791 -1.2464
 4615SOL     OW14743   3.995   3.957   1.389  0.0575  0.1446  0.1015
 4615SOL    HW114744   3.991   4.035   1.327 -0.8145 -0.9120 -1.2353
 4615SOL    HW214745   4.082   3.910   1.378  0.2032  0.3816  0.2283
 4616SOL     OW14746   4.040   6.218   5.567 -0.3650  0.0038  0.1029
 4616SOL    HW114747   4.124   6.243   5.520 -1.3521  0.3750 -1.5407
 4616SOL    HW214748   3.969   6.197   5.500 -0.7182 -3.5475  1.3559
 4617SOL     OW14749   1.674   5.347   2.119  0.1213  0.7376  0.0440
 4617SOL    HW114750   1.767   5.370   2.089  0.7393 -0.1387  1.2101
 4617SOL    HW214751   1.673   5.336   2.218 -0.6061 -1.8832 -0.1810
 4618SOL     OW14752   5.755   3.263   6.755 -0.4699  0.1994  0.4597
 4618SOL    HW114753   5.679   3.323   6.732 -0.6270 -0.0088  0.4345
 4618SOL    HW214754   5.722   3.185   6.808 -0.1758  0.4471  1.0152
 4619SOL     OW14755   1.705   0.455   3.554 -0.1670  0.0539  0.4364
 4619SOL    HW114756   1.796   0.480   3.587  0.5727 -1.2181 -0.5412
 4619SOL    HW214757   1.678   0.367   3.592 -1.4505  0.8613  1.4925
 4620SOL     OW14758   0.565   0.083   5.394 -0.3044 -0.2295 -0.1889
 4620SOL    HW114759   0.483   0.037   5.429 -0.3630 -0.5965 -0.7888
 4620SOL    HW214760   0.541   0.177   5.367 -0.8211 -0.6997 -1.4599
 4621SOL     OW14761   3.037   4.807   2.658 -0.4697 -0.0665  0.0244
 4621SOL    HW114762   3.076   4.805   2.566 -1.8431  1.0452 -0.6039
 4621SOL    HW214763   2.938   4.812   2.653 -0.5411  0.7100  1.5740
 4622SOL     OW14764   6.744   5.299   3.498  0.1165 -0.0727  0.7610
 4622SOL    HW114765   6.821   5.354   3.530  0.1329 -1.3735  3.2184
 4622SOL    HW214766   6.658   5.347   3.517  0.2319  1.0883 -1.3863
 4623SOL     OW14767   1.591   4.711   5.620 -0.0483  0.6451 -0.3453
 4623SOL    HW114768   1.593   4.635   5.685  2.9564  0.6668 -0.2689
 4623SOL    HW214769   1.504   4.760   5.628 -0.6777 -0.7126  2.0096
 4624SOL     OW14770   3.841   5.969   6.496 -0.3454  0.0495 -0.6567
 4624SOL    HW114771   3.794   5.885   6.523  1.1067  0.3199  3.4703
 4624SOL    HW214772   3.930   5.947   6.457 -0.8191 -0.3276 -1.5442
 4625SOL     OW14773   3.945   3.152   3.361 -0.3405 -0.2977 -0.3363
 4625SOL    HW114774   3.851   3.126   3.340 -0.1914 -0.9110 -0.2578
 4625SOL    HW214775   4.006   3.117   3.290 -0.1139 -0.3342 -0.1243
 4626SOL     OW14776   5.701   1.035   0.534 -1.0197  0.4173  1.6681
 4626SOL    HW114777   5.671   1.030   0.630 -0.5930 -0.0574  1.7829
 4626SOL    HW214778   5.723   1.129   0.511 -0.6510  0.4594  2.1881
 4627SOL     OW14779   2.344   4.690   5.194  0.3979  0.4154  0.2184
 4627SOL    HW114780   2.428   4.648   5.160 -0.0301 -0.5056  0.2629
 4627SOL    HW214781   2.270   4.622   5.192 -0.0495  0.8453  1.3447
 4628SOL     OW14782   1.699   0.336   2.439 -0.0714 -0.2753  0.4463
 4628SOL    HW114783   1.735   0.356   2.530  0.7263 -0.1110  0.1034
 4628SOL    HW214784   1.668   0.242   2.435  1.6653 -0.8840  0.3457
 4629SOL     OW14785   4.821   5.091   5.995  0.1299 -0.4298 -0.4603
 4629SOL    HW114786   4.767   5.021   5.949 -0.8058 -0.6983  1.0087
 4629SOL    HW214787   4.761   5.151   6.047  1.1038  0.2928 -0.1405
 4630SOL     OW14788   4.175   1.502   6.935 -0.0129 -0.4888 -0.0740
 4630SOL    HW114789   4.080   1.501   6.967 -1.5423  0.1287 -3.9577
 4630SOL    HW214790   4.198   1.411   6.900  0.2369 -0.2590 -0.5184
 4631SOL     OW14791   4.564   6.096   2.345 -0.4042  0.2937  0.0352
 4631SOL    HW114792   4.508   6.156   2.402  0.5847  1.2041  0.0891
 4631SOL    HW214793   4.628   6.151   2.292 -1.6107 -0.4984 -2.3601
 4632SOL     OW14794   1.527   5.711   2.400 -0.1804  0.3091  0.6474
 4632SOL    HW114795   1.491   5.669   2.317 -3.0175 -0.1684  2.0141
 4632SOL    HW214796   1.612   5.665   2.426 -1.8604 -3.0234  0.7288
 4633SOL     OW14797   2.517   2.167   0.945  0.4848 -0.2188 -0.0572
 4633SOL    HW114798   2.579   2.217   0.885  0.7611 -1.4092 -0.8045
 4633SOL    HW214799   2.515   2.071   0.918 -0.5161 -0.4998  0.9315
 4634SOL     OW14800   6.440   2.033   1.565  0.4291  0.3704  0.3276
 4634SOL    HW114801   6.534   2.040   1.530  0.2506  0.7904 -0.0710
 4634SOL    HW214802   6.405   1.941   1.546  0.2422  0.6714 -0.8465
 4635SOL     OW14803   4.418   4.888   5.146 -0.2588 -0.2436  0.4952
 4635SOL    HW114804   4.459   4.953   5.211 -0.4280 -1.2056  1.5967
 4635SOL    HW214805   4.425   4.795   5.183 -0.2169 -0.8473 -0.9537
 4636SOL     OW14806   4.617   1.208   2.169  0.0136  0.2376 -0.1362
 4636SOL    HW114807   4.581   1.274   2.103  0.2612 -0.3447 -0.8744
 4636SOL    HW214808   4.653   1.257   2.249 -0.3191  0.9543 -0.4154
 4637SOL     OW14809   6.192   0.443   2.934 -0.4605  0.2999  0.5730
 4637SOL    HW114810   6.170   0.432   2.837 -0.1641 -0.0464  0.5425
 4637SOL    HW214811   6.253   0.369   2.963 -0.5097  0.4284  1.0118
 4638SOL     OW14812   6.226   3.157   4.351  0.0625  0.9775 -0.0397
 4638SOL    HW114813   6.174   3.091   4.404 -1.2525  1.6946 -0.3861
 4638SOL    HW214814   6.309   3.182   4.400  1.4870 -2.1220 -0.6055
 4639SOL     OW14815   0.205   5.138   3.029 -0.1660 -0.6298  0.4662
 4639SOL    HW114816   0.120   5.146   3.080 -1.3211  0.8548 -1.5399
 4639SOL    HW214817   0.241   5.230   3.010  0.5784 -1.1393 -0.7571
 4640SOL     OW14818   2.176   5.870   5.126 -0.3174  0.7020 -0.3645
 4640SOL    HW114819   2.136   5.821   5.048 -0.8896 -1.6165  1.2852
 4640SOL    HW214820   2.274   5.851   5.131 -0.7455 -1.4331  0.9814
 4641SOL     OW14821   5.110   4.128   2.442 -0.2540  0.5595  0.0441
 4641SOL    HW114822   5.133   4.081   2.356 -1.7370 -1.9226  0.8877
 4641SOL    HW214823   5.166   4.091   2.516 -0.9547  0.6194  0.6170
 4642SOL     OW14824   5.853   3.790   5.347 -0.0782 -0.5726  0.0035
 4642SOL    HW114825   5.768   3.810   5.297 -0.6228 -1.4105  0.5721
 4642SOL    HW214826   5.831   3.749   5.435  0.9188 -0.3648  0.3629
 4643SOL     OW14827   5.025   4.322   2.134  0.8750  0.3857  0.2426
 4643SOL    HW114828   5.039   4.227   2.163  1.2110  0.9262  1.9536
 4643SOL    HW214829   4.961   4.324   2.058 -0.8961 -1.0784  1.6008
 4644SOL     OW14830   0.886   4.160   4.802  0.1537  0.2916  0.4845
 4644SOL    HW114831   0.902   4.256   4.780 -2.6762  0.8545  0.5026
 4644SOL    HW214832   0.889   4.147   4.901 -1.1636  0.7835  0.6140
 4645SOL     OW14833   0.156   0.229   0.290  0.1059  0.0186  0.0507
 4645SOL    HW114834   0.174   0.229   0.192  0.9296  3.6286  0.0453
 4645SOL    HW214835   0.067   0.187   0.307 -1.2783  1.5738 -2.6127
 4646SOL     OW14836   5.486   1.064   2.388 -0.8579  0.2075  0.5015
 4646SOL    HW114837   5.574   1.053   2.342 -0.9774  0.1796  0.2781
 4646SOL    HW214838   5.428   1.126   2.335 -0.7407  0.7285  0.9733
 4647SOL     OW14839   5.943   2.839   5.529  0.6476  0.0343  0.6396
 4647SOL    HW114840   5.941   2.761   5.591  0.7583  0.0163  0.6197
 4647SOL    HW214841   5.853   2.848   5.484  0.7721 -0.3511  0.3070
 4648SOL     OW14842   4.595   5.314   2.515 -0.3017 -0.8653 -0.2664
 4648SOL    HW114843   4.588   5.366   2.600  1.6786 -0.0725 -0.5291
 4648SOL    HW214844   4.625   5.221   2.535 -3.1666 -1.8009  0.1399
 4649SOL     OW14845   6.635   1.406   2.194 -0.4202 -0.1750  0.0916
 4649SOL    HW114846   6.729   1.400   2.159 -0.2618  1.4334  0.1611
 4649SOL    HW214847   6.572   1.375   2.123 -0.0482  2.2669 -1.4290
 4650SOL     OW14848   3.826   6.604   4.735  0.0942 -0.0735 -0.1252
 4650SOL    HW114849   3.752   6.567   4.680 -0.0156 -0.9020  0.5549
 4650SOL    HW214850   3.913   6.566   4.703  0.2244  0.8034 -0.8436
 4651SOL     OW14851   5.559   5.241   0.733  0.6227 -0.2203 -0.0886
 4651SOL    HW114852   5.503   5.164   0.704  0.2772 -0.1165  0.3037
 4651SOL    HW214853   5.522   5.280   0.817  1.5541 -0.4523  0.4462
 4652SOL     OW14854   6.730   3.580   3.476  0.3098 -0.2733  0.2155
 4652SOL    HW114855   6.638   3.574   3.514  0.5284 -0.3544  0.7502
 4652SOL    HW214856   6.725   3.600   3.378 -0.2412  1.2776  0.5316
 4653SOL     OW14857   4.623   2.275   5.105  0.2550  0.1891  0.1527
 4653SOL    HW114858   4.610   2.325   5.191 -0.1143  1.5889 -0.6806
 4653SOL    HW214859   4.692   2.203   5.118 -1.1122 -0.8527  2.0825
 4654SOL     OW14860   5.039   2.635   1.834  0.0468 -0.4165  0.1122
 4654SOL    HW114861   5.079   2.592   1.754 -2.2830 -2.2547 -0.1521
 4654SOL    HW214862   4.941   2.615   1.838 -0.3396  1.4808  2.2431
 4655SOL     OW14863   3.845   3.593   4.462  0.1172 -0.0685 -0.0977
 4655SOL    HW114864   3.893   3.557   4.382  0.1287 -0.2650 -0.0030
 4655SOL    HW214865   3.911   3.609   4.536  0.0606 -0.1684 -0.0273
 4656SOL     OW14866   5.096   2.151   3.035 -0.6002 -0.1964 -0.8363
 4656SOL    HW114867   5.000   2.176   3.021 -0.8721 -1.5964 -1.6385
 4656SOL    HW214868   5.149   2.176   2.954 -0.1611  1.0826 -0.1726
 4657SOL     OW14869   4.008   3.175   4.013 -0.3643 -0.4432 -1.0241
 4657SOL    HW114870   4.070   3.173   3.935 -0.5140 -0.7973 -1.1363
 4657SOL    HW214871   4.051   3.224   4.089 -0.4644  0.4324 -1.5258
 4658SOL     OW14872   2.821   2.453   0.938  0.4898  0.8634 -0.1978
 4658SOL    HW114873   2.777   2.431   1.025  1.5361  0.9800  0.3811
 4658SOL    HW214874   2.772   2.408   0.863 -0.0785  0.2826  0.5105
 4659SOL     OW14875   2.017   5.386   4.200  0.3155  0.1128  0.0429
 4659SOL    HW114876   2.092   5.436   4.244  0.1933  0.4894 -0.1770
 4659SOL    HW214877   1.951   5.450   4.163  0.2007 -0.2134 -0.3201
 4660SOL     OW14878   3.320   5.257   2.912  0.6590  0.1693  0.1963
 4660SOL    HW114879   3.220   5.254   2.913  0.5572 -2.7783  3.4073
 4660SOL    HW214880   3.352   5.311   2.834 -3.3765  1.4992 -0.7631
 4661SOL     OW14881   3.492   3.194   3.602 -0.5435 -0.0358  0.2952
 4661SOL    HW114882   3.451   3.206   3.512 -1.5267  2.7586  1.0233
 4661SOL    HW214883   3.571   3.254   3.611 -0.1345 -0.6773  1.1281
 4662SOL     OW14884   4.942   5.228   1.259 -0.0838  0.1095 -0.2969
 4662SOL    HW114885   5.018   5.166   1.239 -1.2473 -0.9411 -1.6862
 4662SOL    HW214886   4.921   5.224   1.357  0.4866 -0.9473 -0.1998
 4663SOL     OW14887   4.456   0.829   2.868 -0.0838  0.0655  0.1785
 4663SOL    HW114888   4.370   0.787   2.841 -0.0265  0.8840 -1.4016
 4663SOL    HW214889   4.498   0.873   2.789  0.6323  1.7125  1.4059
 4664SOL     OW14890   2.699   1.279   0.183  0.4766 -0.0697  0.3878
 4664SOL    HW114891   2.759   1.307   0.109 -1.8919 -0.8922 -1.9790
 4664SOL    HW214892   2.638   1.207   0.152 -2.2758  1.2062  2.3582
 4665SOL     OW14893   3.365   2.529   1.482 -0.0135 -0.8427 -0.8408
 4665SOL    HW114894   3.413   2.492   1.562  1.5476  0.7353 -1.0030
 4665SOL    HW214895   3.266   2.513   1.493  0.3299 -2.3361  0.4805
 4666SOL     OW14896   6.596   3.128   6.404 -0.1470 -0.7478 -0.7035
 4666SOL    HW114897   6.624   3.046   6.455 -0.5265 -0.0178  0.7392
 4666SOL    HW214898   6.628   3.210   6.453 -0.2766 -0.0181 -1.8118
 4667SOL     OW14899   0.280   6.961   5.908 -0.7483 -0.0570  0.1837
 4667SOL    HW114900   0.269   6.866   5.878  1.9979  0.1677 -2.0390
 4667SOL    HW214901   0.319   7.014   5.833 -0.6788  2.4686  1.9017
 4668SOL     OW14902   0.258   2.773   6.991 -0.5283  0.5585 -0.7364
 4668SOL    HW114903   0.199   2.853   6.994  0.4383  1.2618  0.3392
 4668SOL    HW214904   0.344   2.793   7.038 -0.8300 -1.5783  0.9149
 4669SOL     OW14905   3.193   4.072   3.370 -0.5884  0.3943 -0.4782
 4669SOL    HW114906   3.167   4.169   3.367  0.9242  0.8097 -0.5608
 4669SOL    HW214907   3.234   4.051   3.458 -1.1168 -0.2447 -0.3727
 4670SOL     OW14908   2.125   5.197   0.537  0.6019 -0.3084  0.2011
 4670SOL    HW114909   2.081   5.123   0.486 -0.2449  2.8115 -4.1482
 4670SOL    HW214910   2.222   5.201   0.512  0.3265  0.8510 -0.7464
 4671SOL     OW14911   4.361   0.992   3.064 -0.2376  0.3859 -0.1161
 4671SOL    HW114912   4.424   0.932   3.015 -1.1990  0.1845 -1.1575
 4671SOL    HW214913   4.406   1.078   3.085  0.5840 -0.0052 -0.2415
 4672SOL     OW14914   3.259   6.497   4.074 -0.4169  0.0604 -0.7122
 4672SOL    HW114915   3.264   6.399   4.054  0.1409 -0.2872  0.9574
 4672SOL    HW214916   3.178   6.515   4.130  0.4332  0.2537  0.4769
 4673SOL     OW14917   0.432   6.675   1.481  0.2703 -0.0974 -0.7399
 4673SOL    HW114918   0.351   6.639   1.526 -0.7166 -0.0423 -2.3888
 4673SOL    HW214919   0.496   6.710   1.550 -0.0587 -2.2230  0.7295
 4674SOL     OW14920   5.383   4.703   1.231  0.1155  0.6896  0.0523
 4674SOL    HW114921   5.419   4.612   1.212  0.3762  0.3957  1.7475
 4674SOL    HW214922   5.449   4.754   1.286 -0.1505  1.8121 -0.6339
 4675SOL     OW14923   3.113   1.444   2.592 -0.1314  0.0823  0.0413
 4675SOL    HW114924   3.136   1.362   2.539  1.7633  0.7384 -0.2114
 4675SOL    HW214925   3.058   1.418   2.672  0.4105 -1.4309 -0.0498
 4676SOL     OW14926   1.060   2.475   5.761 -0.0718 -0.0197  0.5536
 4676SOL    HW114927   0.964   2.464   5.788 -0.4771  0.3532 -0.7019
 4676SOL    HW214928   1.073   2.439   5.669  0.5688  1.6712 -0.0547
 4677SOL     OW14929   4.508   2.215   1.598 -0.0039  0.0891 -0.0292
 4677SOL    HW114930   4.518   2.309   1.566  0.1783  0.3021  0.6398
 4677SOL    HW214931   4.504   2.154   1.520 -0.6025  0.6989 -0.4848
 4678SOL     OW14932   1.165   5.833   6.975 -0.4473 -0.1130  0.1184
 4678SOL    HW114933   1.153   5.931   6.994 -1.3882 -0.0772 -0.6069
 4678SOL    HW214934   1.198   5.787   7.058 -0.0284  0.8049  0.4793
 4679SOL     OW14935   4.818   4.903   5.583 -0.5925  0.2704  0.0071
 4679SOL    HW114936   4.878   4.981   5.567  1.1140 -0.7935  0.9271
 4679SOL    HW214937   4.748   4.899   5.511 -0.9617  2.8099  0.1448
 4680SOL     OW14938   0.368   0.906   5.497 -0.0747  0.1580  0.6128
 4680SOL    HW114939   0.370   0.837   5.569 -0.0721 -0.8130 -0.2962
 4680SOL    HW214940   0.274   0.934   5.479 -0.0718  0.4258  1.0093
 4681SOL     OW14941   0.147   4.939   3.657 -0.3443  0.0295  0.1292
 4681SOL    HW114942   0.166   4.859   3.601 -0.0790  0.6175 -0.6403
 4681SOL    HW214943   0.096   4.912   3.739 -0.3280 -0.9025 -0.1639
 4682SOL     OW14944   5.560   0.860   6.641  0.4352 -0.1249 -0.4436
 4682SOL    HW114945   5.595   0.928   6.706  2.4720 -1.4776 -0.0349
 4682SOL    HW214946   5.531   0.907   6.558  1.2266  1.3258  0.0466
 4683SOL     OW14947   2.682   2.100   6.152 -0.1082 -0.4169 -0.6165
 4683SOL    HW114948   2.736   2.170   6.105 -0.0847 -0.0072  0.0087
 4683SOL    HW214949   2.739   2.020   6.170  0.1308 -0.2140 -0.4728
 4684SOL     OW14950   3.654   0.180   6.895 -0.3393  0.0956 -0.1613
 4684SOL    HW114951   3.594   0.110   6.857  0.2903  0.7610 -2.5877
 4684SOL    HW214952   3.671   0.250   6.826  3.1511 -0.0276  0.3827
 4685SOL     OW14953   3.794   1.754   5.253  0.1099  0.0699  0.1299
 4685SOL    HW114954   3.714   1.811   5.270 -0.5711 -0.7749 -0.1509
 4685SOL    HW214955   3.831   1.722   5.341 -1.6180 -1.8660  0.2472
 4686SOL     OW14956   0.156   0.764   1.719  0.0575 -0.3226  0.1088
 4686SOL    HW114957   0.203   0.849   1.744 -1.4517  0.9327 -1.1263
 4686SOL    HW214958   0.123   0.771   1.625 -2.4962 -1.1691  0.8763
 4687SOL     OW14959   2.055   3.489   4.717 -0.3154 -0.2552 -0.2583
 4687SOL    HW114960   2.091   3.526   4.803  0.7129 -2.4629  0.3463
 4687SOL    HW214961   2.081   3.393   4.709 -0.4113 -0.1370 -3.0577
 4688SOL     OW14962   3.296   5.691   0.009  0.0784  0.0704  0.3249
 4688SOL    HW114963   3.228   5.753  -0.031 -0.5882  0.9552  2.6417
 4688SOL    HW214964   3.371   5.745   0.048  1.8108 -0.8591 -1.5276
 4689SOL     OW14965   5.118   2.858   5.665 -0.4995 -0.3904  0.3053
 4689SOL    HW114966   5.075   2.779   5.621 -2.1175 -1.0760  2.9289
 4689SOL    HW214967   5.051   2.903   5.725  0.4002  2.9450 -0.9708
 4690SOL     OW14968   2.994   6.567   1.043 -0.5071  0.1380  0.3306
 4690SOL    HW114969   2.942   6.499   0.992 -1.2123 -0.0454  1.2501
 4690SOL    HW214970   3.008   6.648   0.986 -2.5759  0.5369  0.2921
 4691SOL     OW14971   5.001   3.430   5.515  0.1183 -0.5908 -0.6054
 4691SOL    HW114972   4.965   3.447   5.423 -1.6697 -0.6031  0.0513
 4691SOL    HW214973   4.968   3.342   5.548  0.4694 -0.4367  0.1786
 4692SOL     OW14974   6.077   3.728   0.104 -0.5202 -0.2493  0.5206
 4692SOL    HW114975   5.990   3.758   0.066  0.2584 -0.4706 -1.5496
 4692SOL    HW214976   6.080   3.751   0.202 -2.4559  0.6746  0.4188
 4693SOL     OW14977   5.286   4.155   5.745 -0.1886  0.1526 -0.4327
 4693SOL    HW114978   5.219   4.099   5.793  0.1174 -0.9103 -1.2214
 4693SOL    HW214979   5.368   4.101   5.727  0.2204  0.9365 -0.9849
 4694SOL     OW14980   0.987   0.130   1.036  0.1012 -0.0596  1.0479
 4694SOL    HW114981   0.965   0.182   0.953  1.1828  0.9842  1.3957
 4694SOL    HW214982   0.908   0.131   1.098 -0.7531 -0.9415  0.0083
 4695SOL     OW14983   1.073   1.936   6.315  0.3917  0.1381 -1.0231
 4695SOL    HW114984   1.121   1.890   6.390  0.8385 -0.7000 -1.8031
 4695SOL    HW214985   0.981   1.959   6.344  0.2892 -0.8989 -0.4660
 4696SOL     OW14986   3.628   5.917   6.961 -0.4770 -1.0031  0.0658
 4696SOL    HW114987   3.565   5.874   7.026  0.0178 -0.1381  1.1585
 4696SOL    HW214988   3.577   5.975   6.898 -0.8257 -0.6666  0.6515
 4697SOL     OW14989   5.423   5.769   1.501 -0.1210  0.5351  0.4574
 4697SOL    HW114990   5.368   5.705   1.555  0.9986  0.8730  2.0550
 4697SOL    HW214991   5.520   5.750   1.515  0.2449 -0.2350 -2.5403
 4698SOL     OW14992   5.674   4.765   0.851 -0.0149 -0.6936  0.0401
 4698SOL    HW114993   5.688   4.772   0.752  1.1431 -0.6752  0.1896
 4698SOL    HW214994   5.593   4.816   0.876  0.2004  0.0886 -0.7885
 4699SOL     OW14995   6.540   6.180   0.343 -0.4901 -0.4232  0.3818
 4699SOL    HW114996   6.638   6.200   0.348 -0.5630  0.3825 -0.8703
 4699SOL    HW214997   6.519   6.137   0.255 -1.4027  0.3909  0.1800
 4700SOL     OW14998   1.407   1.312   0.826 -0.2166 -0.3635  0.3746
 4700SOL    HW114999   1.371   1.387   0.882 -2.7636 -2.3129  1.5302
 4700SOL    HW215000   1.336   1.243   0.812  2.2884 -3.1421  0.3146
 4701SOL     OW15001   2.578   0.116   4.698 -0.1185  0.5901 -0.5624
 4701SOL    HW115002   2.610   0.210   4.715  0.6900  0.3776 -0.8597
 4701SOL    HW215003   2.654   0.061   4.666 -0.3705 -0.4271  0.5250
 4702SOL     OW15004   3.924   3.242   4.380  0.3833 -0.0819  0.0375
 4702SOL    HW115005   3.939   3.283   4.470  0.2694  0.7760 -0.3288
 4702SOL    HW215006   3.826   3.229   4.365  0.3543  0.5529 -0.3065
 4703SOL     OW15007   6.166   1.294   2.394  0.3216 -0.1681 -0.5311
 4703SOL    HW115008   6.186   1.319   2.489  0.5126 -0.6484 -0.4417
 4703SOL    HW215009   6.251   1.271   2.347  0.2446  0.2127 -0.8649
 4704SOL     OW15010   6.629   3.022   3.471 -0.3681 -0.5924  0.4304
 4704SOL    HW115011   6.530   3.004   3.470 -0.0327 -2.6503 -0.7938
 4704SOL    HW215012   6.669   2.991   3.385  1.4774 -0.4943  1.2198
 4705SOL     OW15013   6.585   5.207   6.097  0.1608  0.0596  0.0122
 4705SOL    HW115014   6.660   5.256   6.052  0.1107  0.8224  0.7292
 4705SOL    HW215015   6.594   5.109   6.080  2.2807 -0.0457  1.4332
 4706SOL     OW15016   3.114   5.277   2.024 -0.3164 -0.2442 -0.3556
 4706SOL    HW115017   3.187   5.228   1.977 -0.6893 -0.7478 -0.4174
 4706SOL    HW215018   3.076   5.220   2.097 -0.5809  0.0501 -0.2564
 4707SOL     OW15019   3.946   0.178   3.315  0.0176 -0.5048  0.7374
 4707SOL    HW115020   3.908   0.085   3.308 -1.3491 -0.0138  1.3432
 4707SOL    HW215021   3.883   0.243   3.272  1.0786  0.1381  0.1047
 4708SOL     OW15022   0.708   6.833   6.915  0.0195  0.3420 -0.0695
 4708SOL    HW115023   0.722   6.918   6.966  1.2314 -0.8545  1.7213
 4708SOL    HW215024   0.706   6.756   6.978 -0.3853 -1.0642 -1.7046
 4709SOL     OW15025   3.678   2.387   6.966  0.2113  0.8124  0.7264
 4709SOL    HW115026   3.704   2.416   6.874 -1.9810  1.1576  0.1608
 4709SOL    HW215027   3.635   2.297   6.962 -0.5567  1.1398  1.2941
 4710SOL     OW15028   5.381   4.623   5.317 -0.7191 -0.2668  0.0361
 4710SOL    HW115029   5.306   4.658   5.261 -2.5891 -1.7633  1.4653
 4710SOL    HW215030   5.393   4.682   5.397  1.0643  1.1271 -1.2057
 4711SOL     OW15031   3.911   2.208   1.035  0.1638  0.6074 -0.3820
 4711SOL    HW115032   3.962   2.293   1.019 -0.4221  0.7166 -1.7800
 4711SOL    HW215033   3.859   2.217   1.120  2.3531  0.5263  1.0453
 4712SOL     OW15034   4.570   0.666   5.775  0.2130  0.4126 -0.2118
 4712SOL    HW115035   4.494   0.675   5.839 -0.7396 -2.7169 -0.7101
 4712SOL    HW215036   4.552   0.721   5.693  0.7168  3.2286  1.4392
 4713SOL     OW15037   3.349   3.276   5.912  0.1780  0.1190  0.2680
 4713SOL    HW115038   3.369   3.294   5.816 -0.9465  0.6487  0.1196
 4713SOL    HW215039   3.281   3.341   5.945 -0.0192 -0.5431  1.2094
 4714SOL     OW15040   6.866   2.300   5.540 -0.1632 -0.2941  0.4788
 4714SOL    HW115041   6.866   2.359   5.621  0.4526  1.1769 -0.5469
 4714SOL    HW215042   6.811   2.342   5.468 -1.5258 -2.0661  0.4257
 4715SOL     OW15043   6.850   6.576   2.294  0.4605 -0.3203  0.4357
 4715SOL    HW115044   6.827   6.542   2.386  0.2008  1.5643  1.1180
 4715SOL    HW215045   6.891   6.502   2.241  3.4012 -0.7878  3.0273
 4716SOL     OW15046   0.415   0.569   0.327 -0.1654 -0.1353 -0.1928
 4716SOL    HW115047   0.409   0.510   0.247 -0.6615 -1.0586  0.5066
 4716SOL    HW215048   0.464   0.522   0.400 -2.1205 -0.4392  1.0019
 4717SOL     OW15049   0.314   4.400   0.399 -0.3727 -0.0782 -0.0246
 4717SOL    HW115050   0.226   4.448   0.406 -0.8969 -1.1340  0.9616
 4717SOL    HW215051   0.306   4.324   0.336 -0.0185  0.1050 -0.2964
 4718SOL     OW15052   3.830   3.588   2.342 -0.2473  0.1346 -0.0910
 4718SOL    HW115053   3.921   3.554   2.316 -0.4223 -2.1002  1.8856
 4718SOL    HW215054   3.760   3.528   2.302 -0.7565  0.4458  0.3293
 4719SOL     OW15055   0.684   1.223   4.428 -0.2416 -0.5073  0.5589
 4719SOL    HW115056   0.710   1.131   4.398  0.9629  0.2414 -0.8370
 4719SOL    HW215057   0.719   1.239   4.520 -3.6331 -2.7069  2.4499
 4720SOL     OW15058   6.713   3.140   1.964 -0.1436  0.0027  0.0695
 4720SOL    HW115059   6.708   3.238   1.984  1.4832  0.2506 -0.5295
 4720SOL    HW215060   6.755   3.127   1.874 -0.1495 -1.2520  0.2350
 4721SOL     OW15061   5.257   6.915   4.227 -0.0455 -0.3751 -0.0352
 4721SOL    HW115062   5.195   6.911   4.148  1.6804 -1.5989 -1.4359
 4721SOL    HW215063   5.345   6.875   4.201  0.7288 -0.4253  2.4300
 4722SOL     OW15064   6.817   2.815   5.359 -0.2542  0.3245 -0.6719
 4722SOL    HW115065   6.801   2.909   5.329 -1.5721  1.1877  2.3567
 4722SOL    HW215066   6.911   2.806   5.393 -0.5392  0.9737  0.3204
 4723SOL     OW15067   2.609   1.184   4.522 -0.1567 -0.5328 -0.0109
 4723SOL    HW115068   2.658   1.142   4.599  0.0943  1.8757  1.2132
 4723SOL    HW215069   2.654   1.159   4.437  0.6563 -1.7654  0.7431
 4724SOL     OW15070   4.528   4.027   0.551  0.3259  0.1651  0.0374
 4724SOL    HW115071   4.620   4.044   0.585 -0.6139  1.6641  2.0411
 4724SOL    HW215072   4.462   4.038   0.626 -1.5020 -0.8825 -1.3251
 4725SOL     OW15073   4.571   6.414   5.379 -0.0903  0.3546  0.1083
 4725SOL    HW115074   4.649   6.465   5.413 -0.1424 -0.1235  0.9482
 4725SOL    HW215075   4.583   6.316   5.398 -0.5253  0.1840 -0.4582
 4726SOL     OW15076   2.673   1.694   3.619  0.2825 -0.0538  0.0592
 4726SOL    HW115077   2.622   1.675   3.535  0.9750 -0.4658 -0.2742
 4726SOL    HW215078   2.609   1.716   3.692 -0.3614 -0.3046 -0.4171
 4727SOL     OW15079   5.305   4.277   4.642 -0.3009 -0.0210 -0.0400
 4727SOL    HW115080   5.387   4.219   4.646  0.2372  0.7772  1.2735
 4727SOL    HW215081   5.296   4.316   4.550  1.5438  0.9032  0.1236
 4728SOL     OW15082   1.319   0.623   2.563 -0.1141  0.4760 -0.2224
 4728SOL    HW115083   1.380   0.637   2.484  0.1983  0.0699 -0.0599
 4728SOL    HW215084   1.375   0.616   2.646 -0.3554 -0.3075 -0.1242
 4729SOL     OW15085   2.596   1.969   5.199  0.2625  0.3339 -0.1340
 4729SOL    HW115086   2.621   2.038   5.132 -0.1597  1.6047  0.9582
 4729SOL    HW215087   2.665   1.966   5.272  0.0231 -0.0497  0.0847
 4730SOL     OW15088   6.257   5.498   2.196 -0.2297 -0.2422 -0.1844
 4730SOL    HW115089   6.278   5.524   2.290  0.1021 -1.2771  0.0464
 4730SOL    HW215090   6.221   5.577   2.146 -0.1510  0.3843  0.7302
 4731SOL     OW15091   4.372   5.054   2.495 -0.6104 -1.0630  0.0741
 4731SOL    HW115092   4.335   5.063   2.403  0.4365 -1.6182 -0.4140
 4731SOL    HW215093   4.346   4.966   2.533 -2.6513 -0.0987  1.0857
 4732SOL     OW15094   0.940   2.129   1.939 -0.4081 -0.0708  0.2112
 4732SOL    HW115095   0.966   2.222   1.966  0.0476 -0.0210 -0.3657
 4732SOL    HW215096   0.868   2.095   1.999 -0.9753  0.8749  0.0895
 4733SOL     OW15097   6.431   3.231   4.510  0.3080  0.3654  0.0151
 4733SOL    HW115098   6.366   3.282   4.567  1.2506  1.0318  0.5217
 4733SOL    HW215099   6.423   3.133   4.530 -1.8543  0.1981 -1.3065
 4734SOL     OW15100   6.111   4.232   2.350  0.4374  0.3897  0.2697
 4734SOL    HW115101   6.188   4.171   2.331 -0.1751 -0.7795  1.4179
 4734SOL    HW215102   6.026   4.180   2.353 -0.2524  1.4692  0.2430
 4735SOL     OW15103   6.343   5.625   1.442 -0.1905  0.2746 -0.6125
 4735SOL    HW115104   6.370   5.588   1.531  0.9206  1.9849 -0.1803
 4735SOL    HW215105   6.422   5.623   1.380 -0.9340 -0.8334 -1.5737
 4736SOL     OW15106   1.858   2.915   1.667  0.6486  0.5229  0.2720
 4736SOL    HW115107   1.904   2.830   1.692 -0.7191 -0.8650 -1.7038
 4736SOL    HW215108   1.907   2.958   1.591  2.0857  2.2889  2.0528
 4737SOL     OW15109   3.270   3.719   5.120  0.3022 -0.1365  0.0765
 4737SOL    HW115110   3.354   3.724   5.065  0.0891  0.3728 -0.2095
 4737SOL    HW215111   3.278   3.782   5.197 -0.0365  0.3253 -0.2604
 4738SOL     OW15112   2.637   4.652   4.909 -0.2417  0.3750  0.3456
 4738SOL    HW115113   2.717   4.640   4.967 -0.5465  0.5731  0.8164
 4738SOL    HW215114   2.665   4.678   4.817  0.3175 -1.1250  0.0609
 4739SOL     OW15115   1.712   6.210   2.021 -0.1425 -0.5384  0.9141
 4739SOL    HW115116   1.647   6.237   2.092 -1.7977 -1.3398 -0.2501
 4739SOL    HW215117   1.685   6.249   1.934  1.6551  0.1119  0.6044
 4740SOL     OW15118   0.877   3.312   5.329 -0.3514 -0.5192 -0.6454
 4740SOL    HW115119   0.950   3.305   5.261 -1.0904  0.4573 -1.5773
 4740SOL    HW215120   0.858   3.408   5.348 -1.7871 -0.7262 -0.8814
 4741SOL     OW15121   3.995   3.179   6.727 -0.2566 -0.3590  0.4320
 4741SOL    HW115122   3.931   3.255   6.730 -1.4937 -1.1471 -2.3147
 4741SOL    HW215123   3.954   3.099   6.772  1.3284  0.6393  3.9558
 4742SOL     OW15124   1.520   1.230   5.840 -0.2192 -0.8229  0.2455
 4742SOL    HW115125   1.536   1.201   5.935  0.4333 -1.4644 -0.0591
 4742SOL    HW215126   1.422   1.250   5.829 -0.2412 -0.3475  1.1574
 4743SOL     OW15127   5.741   4.559   6.485  0.6087 -0.0041 -0.2796
 4743SOL    HW115128   5.829   4.520   6.510 -0.1648 -0.4931  1.9231
 4743SOL    HW215129   5.755   4.634   6.420  2.5908 -0.3558 -0.3137
 4744SOL     OW15130   6.135   4.294   0.436  0.4886 -0.0240  0.6773
 4744SOL    HW115131   6.174   4.323   0.348 -0.9325 -0.7913 -0.2522
 4744SOL    HW215132   6.115   4.375   0.491  2.0354  0.4418  0.6126
 4745SOL     OW15133   5.572   4.976   3.749  0.1634  0.4255  0.1952
 4745SOL    HW115134   5.666   4.986   3.715 -0.5207  2.9912 -1.2213
 4745SOL    HW215135   5.521   4.914   3.688 -0.1780  2.4765 -1.7397
 4746SOL     OW15136   4.194   1.216   1.554  0.9600  0.0999 -0.0044
 4746SOL    HW115137   4.281   1.229   1.506  1.5838 -1.9269  0.5027
 4746SOL    HW215138   4.195   1.266   1.640  1.8671 -0.3584  0.2628
 4747SOL     OW15139   6.906   5.810   6.549 -0.3585 -0.0708 -0.2414
 4747SOL    HW115140   6.827   5.818   6.611 -0.3405 -1.6139  0.0222
 4747SOL    HW215141   6.896   5.876   6.475 -1.9658 -0.2977 -0.2756
 4748SOL     OW15142   2.375   6.037   5.998  0.2896 -0.2973 -0.3158
 4748SOL    HW115143   2.396   6.127   6.035  0.6184 -0.6048  0.2615
 4748SOL    HW215144   2.373   6.041   5.898  0.6141  0.2768 -0.3001
 4749SOL     OW15145   0.565   1.728   5.446  0.3620  0.5012  0.4598
 4749SOL    HW115146   0.535   1.633   5.433  0.7387  0.4801 -0.2932
 4749SOL    HW215147   0.494   1.779   5.494 -0.6840  0.3396 -0.8664
 4750SOL     OW15148   4.082   0.255   2.640  0.1368 -0.3721  0.2057
 4750SOL    HW115149   4.073   0.303   2.727  0.6486  0.5066 -0.2189
 4750SOL    HW215150   4.101   0.321   2.567  0.0042 -1.1304 -0.5259
 4751SOL     OW15151   0.512   1.711   4.313 -0.1485  0.2288 -0.3358
 4751SOL    HW115152   0.523   1.671   4.222  1.2174  0.4785 -0.2892
 4751SOL    HW215153   0.596   1.701   4.365 -1.2264 -0.8283  1.2992
 4752SOL     OW15154   5.892   5.640   2.048  0.5923 -0.0343  0.4098
 4752SOL    HW115155   5.851   5.639   2.139 -2.4389  3.1100 -0.7356
 4752SOL    HW215156   5.991   5.653   2.057  0.4227 -0.0359  3.2295
 4753SOL     OW15157   1.938   0.698   5.337 -0.1075  0.0393 -0.3574
 4753SOL    HW115158   1.931   0.763   5.412  1.9267 -0.1056  0.0062
 4753SOL    HW215159   1.896   0.611   5.364  1.3834 -0.3018  0.9947
 4754SOL     OW15160   2.266   5.801   3.338  0.5104  0.0184  0.2499
 4754SOL    HW115161   2.353   5.851   3.340  0.3410  0.4314 -1.3841
 4754SOL    HW215162   2.284   5.704   3.349  1.2343  0.0626 -0.4302
 4755SOL     OW15163   5.890   0.766   4.773  0.5107 -0.6109 -0.4020
 4755SOL    HW115164   5.965   0.827   4.746 -1.4101  2.0506 -0.1145
 4755SOL    HW215165   5.821   0.765   4.700 -0.4141 -0.8269  0.4578
 4756SOL     OW15166   4.294   2.418   0.480 -0.5886  0.2740 -0.0558
 4756SOL    HW115167   4.279   2.419   0.579  0.2948  0.4095  0.0779
 4756SOL    HW215168   4.205   2.421   0.434 -0.9909  2.5373  0.7263
 4757SOL     OW15169   1.790   4.947   1.750 -0.1640  0.3857  0.9163
 4757SOL    HW115170   1.736   4.990   1.822 -0.5158  1.4915  0.0262
 4757SOL    HW215171   1.873   4.908   1.788 -1.6408 -1.5519  2.3765
 4758SOL     OW15172   0.022   0.867   2.737  0.5682  0.2050  0.0461
 4758SOL    HW115173   0.061   0.957   2.756  2.5739 -0.0005 -2.4581
 4758SOL    HW215174   0.096   0.803   2.714 -1.0179 -1.1164 -1.7006
 4759SOL     OW15175   5.715   2.037   0.158  0.4839 -0.1442  0.2166
 4759SOL    HW115176   5.620   2.051   0.185  0.5668 -0.4075  0.6667
 4759SOL    HW215177   5.775   2.058   0.236  0.9095  1.5511 -0.5145
 4760SOL     OW15178   5.756   1.627   5.651 -0.3739  0.0900 -0.3379
 4760SOL    HW115179   5.832   1.668   5.702 -0.0261 -1.2549  0.2884
 4760SOL    HW215180   5.792   1.580   5.570 -0.3103 -1.6181  0.6134
 4761SOL     OW15181   0.009   4.600   5.550  0.2376  0.3491 -0.0863
 4761SOL    HW115182   0.032   4.686   5.503  0.2217 -0.0201 -0.7857
 4761SOL    HW215183   0.057   4.524   5.505  1.0681  0.1083  1.1595
 4762SOL     OW15184   0.942   2.935   2.847  0.2058  0.3560  0.1685
 4762SOL    HW115185   1.008   2.952   2.920  0.4673 -1.1751  0.3176
 4762SOL    HW215186   0.967   2.988   2.766  1.5213 -0.0435  0.2896
 4763SOL     OW15187   3.977   6.246   0.499 -0.4631 -0.0394 -0.3194
 4763SOL    HW115188   4.059   6.207   0.540 -0.1928  0.5945 -0.2498
 4763SOL    HW215189   4.002   6.316   0.432 -0.9537  1.4603  0.9931
 4764SOL     OW15190   3.407   2.093   2.874 -0.0478 -0.6771  0.2275
 4764SOL    HW115191   3.401   2.020   2.806 -0.9089 -0.8517  0.4758
 4764SOL    HW215192   3.317   2.108   2.915 -0.3630  1.7403 -1.1012
 4765SOL     OW15193   7.004   0.952   0.612  0.0569 -0.0441 -0.9333
 4765SOL    HW115194   7.077   0.985   0.552  0.1834  0.4673 -0.5041
 4765SOL    HW215195   6.974   1.026   0.672 -1.2919 -0.0465 -1.5654
 4766SOL     OW15196   0.191   1.894   6.246  0.0771  0.6156 -0.8532
 4766SOL    HW115197   0.242   1.893   6.332  0.8509  1.5150 -1.2710
 4766SOL    HW215198   0.178   1.801   6.213 -1.1333  0.1847  0.7377
 4767SOL     OW15199   4.980   1.131   0.967 -0.0735 -0.0117  0.2189
 4767SOL    HW115200   4.988   1.032   0.972  0.1245 -0.0095 -0.0799
 4767SOL    HW215201   4.996   1.170   1.058 -1.7406 -0.3636  0.6974
 4768SOL     OW15202   6.664   4.680   7.007  0.0699 -0.2918 -0.4241
 4768SOL    HW115203   6.709   4.742   6.942 -2.3122  0.8985 -1.0324
 4768SOL    HW215204   6.702   4.696   7.098  0.8269  0.7058 -0.8807
 4769SOL     OW15205   1.781   0.894   4.890  0.2154  0.3679  0.0302
 4769SOL    HW115206   1.799   0.902   4.988  0.7188 -0.0692 -0.0232
 4769SOL    HW215207   1.701   0.834   4.876 -1.0547  1.9495  0.2461
 4770SOL     OW15208   1.762   5.951   5.723 -0.0714  0.1415 -0.4892
 4770SOL    HW115209   1.848   5.901   5.714 -0.3492 -0.4733  0.1451
 4770SOL    HW215210   1.717   5.957   5.634 -0.2779 -1.2029 -0.4992
 4771SOL     OW15211   4.887   4.506   5.785 -0.8040 -0.0275  0.6316
 4771SOL    HW115212   4.916   4.597   5.816  0.1498  0.1803 -0.7481
 4771SOL    HW215213   4.800   4.514   5.735 -1.8713 -0.2312  2.3979
 4772SOL     OW15214   5.065   0.043   1.815  0.1354  0.2853  0.3591
 4772SOL    HW115215   4.985   0.102   1.828 -0.1918  0.3475 -1.6066
 4772SOL    HW215216   5.054  -0.040   1.868 -1.5609  0.0235 -0.3333
 4773SOL     OW15217   4.589   0.933   2.657  0.2009  0.0734 -0.0102
 4773SOL    HW115218   4.637   0.981   2.731  0.2852 -1.2308  0.8181
 4773SOL    HW215219   4.651   0.923   2.579  0.5596  0.2867  0.2429
 4774SOL     OW15220   2.328   2.583   4.625 -0.3478  0.5261 -0.1131
 4774SOL    HW115221   2.362   2.660   4.680 -0.6571 -0.2215  1.1673
 4774SOL    HW215222   2.405   2.538   4.580  0.0046  0.6710  0.3375
 4775SOL     OW15223   2.121   3.515   4.158 -0.1036 -0.3851  0.3163
 4775SOL    HW115224   2.121   3.431   4.105 -1.7358 -0.6474  0.6645
 4775SOL    HW215225   2.144   3.494   4.254 -0.7646 -0.4881  0.4567
 4776SOL     OW15226   1.624   2.094   5.045 -0.1828 -0.3417 -0.2825
 4776SOL    HW115227   1.636   2.017   4.982 -0.3049 -0.8850  0.3450
 4776SOL    HW215228   1.654   2.067   5.137 -2.1735 -0.3622  0.4167
 4777SOL     OW15229   3.209   5.624   4.378 -0.7510  0.6093  0.2578
 4777SOL    HW115230   3.183   5.698   4.316 -0.3155 -0.4240 -1.2179
 4777SOL    HW215231   3.127   5.578   4.413 -0.9974  1.0819  0.2986
 4778SOL     OW15232   0.687   5.143   3.969  0.2555 -0.8338 -0.0162
 4778SOL    HW115233   0.641   5.121   3.883  0.5795 -1.5825 -0.0113
 4778SOL    HW215234   0.778   5.101   3.970  0.0304 -1.3402  0.9300
 4779SOL     OW15235   2.507   4.105   0.405 -0.4524 -0.4549  0.1434
 4779SOL    HW115236   2.458   4.186   0.374 -1.1421 -0.7275  0.4866
 4779SOL    HW215237   2.441   4.035   0.434  0.0663 -1.8531 -1.8424
 4780SOL     OW15238   6.839   6.902   5.863 -0.3398  0.2178  0.0963
 4780SOL    HW115239   6.824   6.893   5.961 -0.7430  0.5102  0.0646
 4780SOL    HW215240   6.910   6.970   5.846 -0.3164  0.2152  0.1845
 4781SOL     OW15241   2.697   5.345   6.219  0.3531 -0.4672 -0.4176
 4781SOL    HW115242   2.684   5.368   6.123 -5.0974  0.6144  0.2715
 4781SOL    HW215243   2.717   5.428   6.271 -0.5950 -0.3594 -0.2052
 4782SOL     OW15244   6.747   2.661   5.602 -0.3054 -0.1606  0.1260
 4782SOL    HW115245   6.835   2.683   5.645 -0.8434  0.5810  0.8974
 4782SOL    HW215246   6.740   2.709   5.514 -0.1212  0.1414  0.2738
 4783SOL     OW15247   0.071   6.059   5.076  0.0133  0.0417 -0.3590
 4783SOL    HW115248   0.092   6.092   5.168 -0.4678  0.8010 -0.5167
 4783SOL    HW215249   0.115   5.970   5.062  2.4046  1.1695 -0.3821
 4784SOL     OW15250   0.873   4.285   3.922  0.6541  0.2188 -0.2007
 4784SOL    HW115251   0.886   4.383   3.907  2.5327  0.0297  0.0068
 4784SOL    HW215252   0.962   4.240   3.929 -0.1726 -1.5349 -0.4315
 4785SOL     OW15253   1.463   5.949   3.015  0.1406  0.3531 -0.1467
 4785SOL    HW115254   1.388   5.950   3.082  0.1697 -0.2929 -0.0980
 4785SOL    HW215255   1.454   5.869   2.956  0.8070  0.2565 -0.1266
 4786SOL     OW15256   4.843   2.134   5.186  0.0304 -0.4491 -0.1290
 4786SOL    HW115257   4.827   2.124   5.284 -0.0690  0.4053 -0.0454
 4786SOL    HW215258   4.937   2.166   5.171 -0.0058 -0.4217 -0.2957
 4787SOL     OW15259   3.477   3.910   4.717  0.0186 -0.3153  0.1026
 4787SOL    HW115260   3.523   3.921   4.805  1.2707 -3.1318 -0.0873
 4787SOL    HW215261   3.539   3.933   4.642  0.2449 -1.4602 -0.0876
 4788SOL     OW15262   6.932   0.619   4.536 -0.2870  0.4460 -0.6672
 4788SOL    HW115263   6.837   0.624   4.506 -0.3820  1.4611 -0.2218
 4788SOL    HW215264   6.989   0.679   4.479 -0.3292  1.7278  0.5830
 4789SOL     OW15265   1.980   2.294   2.403 -1.0186  0.5947  0.5672
 4789SOL    HW115266   1.911   2.255   2.463  0.2917  0.9145  2.3701
 4789SOL    HW215267   1.937   2.325   2.318 -2.7503 -0.8755  0.8470
 4790SOL     OW15268   1.138   2.760   6.115 -0.4429 -0.3790  0.5321
 4790SOL    HW115269   1.091   2.671   6.108 -0.3081 -0.3377 -1.7410
 4790SOL    HW215270   1.103   2.809   6.194 -3.7998 -0.6562 -0.5786
 4791SOL     OW15271   1.749   4.659   1.527 -0.4514  0.0964  0.1190
 4791SOL    HW115272   1.840   4.618   1.523 -0.1110  0.9341 -1.7588
 4791SOL    HW215273   1.753   4.753   1.491 -2.1787 -0.1100 -0.7108
 4792SOL     OW15274   4.345   0.615   6.396  0.1457  0.7038 -0.5346
 4792SOL    HW115275   4.266   0.564   6.361 -1.6705  1.8095  1.6907
 4792SOL    HW215276   4.414   0.550   6.428 -0.4685 -0.3112 -1.2009
 4793SOL     OW15277   4.960   2.161   1.078 -0.0232 -0.3594 -0.3685
 4793SOL    HW115278   5.036   2.173   1.143 -0.2744 -0.1549 -0.1086
 4793SOL    HW215279   4.997   2.137   0.988  0.2949 -1.2834 -0.0018
 4794SOL     OW15280   6.781   6.915   6.160  1.1523  0.4521 -0.6279
 4794SOL    HW115281   6.861   6.929   6.219  1.0140 -0.6210 -0.1530
 4794SOL    HW215282   6.757   6.818   6.160 -0.5016  0.8348 -0.3097
 4795SOL     OW15283   0.523   3.758   2.997 -0.3934 -0.0520 -0.4417
 4795SOL    HW115284   0.485   3.793   3.082 -1.3572  0.6930 -1.1550
 4795SOL    HW215285   0.451   3.713   2.944 -0.1851  0.8889 -1.5657
 4796SOL     OW15286   6.313   2.817   2.004  0.3214 -0.3349  0.1166
 4796SOL    HW115287   6.237   2.751   2.000  0.7473 -0.7914 -0.6496
 4796SOL    HW215288   6.278   2.905   2.034 -0.2428 -0.9349  1.2884
 4797SOL     OW15289   0.845   6.517   5.849  0.6410  0.9038 -0.0136
 4797SOL    HW115290   0.763   6.568   5.876  0.6036  0.9305 -0.1815
 4797SOL    HW215291   0.873   6.543   5.757  0.9373  1.0187  0.1061
 4798SOL     OW15292   5.372   6.250   4.817 -0.3535  0.1171  0.1160
 4798SOL    HW115293   5.325   6.164   4.798 -1.0271  0.5151 -0.0834
 4798SOL    HW215294   5.417   6.283   4.735 -0.1498 -0.0122  0.1763
 4799SOL     OW15295   2.605   6.847   1.871  0.5474 -0.0616  0.0996
 4799SOL    HW115296   2.676   6.777   1.868 -0.3779 -1.0133 -1.2773
 4799SOL    HW215297   2.612   6.905   1.790  0.7914  0.9392  0.8184
 4800SOL     OW15298   6.042   2.281   4.833 -0.4486  0.3718  0.4640
 4800SOL    HW115299   5.981   2.290   4.753 -0.7491  0.8279  0.7386
 4800SOL    HW215300   6.107   2.207   4.817 -0.3958  0.5701 -0.2805
 4801SOL     OW15301   2.294   4.836   0.150  0.3109 -0.2347  0.3508
 4801SOL    HW115302   2.276   4.879   0.238  1.2447 -2.3294  1.6543
 4801SOL    HW215303   2.372   4.880   0.106 -0.1284  0.7943  0.5816
 4802SOL     OW15304   1.863   5.347   2.587  0.6611  0.5454  0.0630
 4802SOL    HW115305   1.861   5.344   2.487 -0.2129 -0.0653  0.0869
 4802SOL    HW215306   1.956   5.333   2.619  0.9183  0.5536 -0.6563
 4803SOL     OW15307   1.364   6.756   4.004  0.1039  0.5392  0.1127
 4803SOL    HW115308   1.386   6.820   4.078 -0.5769 -1.0094  1.7204
 4803SOL    HW215309   1.358   6.806   3.917 -0.3324  2.6415  1.2837
 4804SOL     OW15310   5.204   5.480   4.122  0.7172 -0.5055 -0.4440
 4804SOL    HW115311   5.153   5.458   4.206 -0.0653 -3.4853 -1.5545
 4804SOL    HW215312   5.139   5.507   4.051  1.0613 -0.9526 -0.9257
 4805SOL     OW15313   0.614   2.637   3.598  0.6232 -0.4348 -0.2800
 4805SOL    HW115314   0.604   2.590   3.686  2.3076 -1.3586 -0.5426
 4805SOL    HW215315   0.695   2.696   3.601  0.9778 -0.8480 -1.3564
 4806SOL     OW15316   6.676   2.888   6.934 -0.5316 -0.4256 -0.8368
 4806SOL    HW115317   6.587   2.933   6.924 -0.9574 -0.3118  2.3415
 4806SOL    HW215318   6.740   2.923   6.866 -2.3323  1.0326 -1.8530
 4807SOL     OW15319   2.765   4.752   4.056  0.0929  0.4573 -0.0212
 4807SOL    HW115320   2.708   4.687   4.107  2.7329 -1.6189  0.5475
 4807SOL    HW215321   2.829   4.797   4.118  0.2860  1.3914 -0.8666
 4808SOL     OW15322   5.337   6.514   0.363  0.1529 -0.0899 -0.0476
 4808SOL    HW115323   5.317   6.579   0.290  0.6587  1.8027  1.4276
 4808SOL    HW215324   5.264   6.517   0.432  1.0009  0.1570  0.8550
 4809SOL     OW15325   3.015   0.561   6.821  0.6455 -0.3599 -0.1865
 4809SOL    HW115326   3.023   0.559   6.722 -0.8298 -2.4109 -0.3159
 4809SOL    HW215327   2.983   0.652   6.850  0.4489  0.0584 -1.6361
 4810SOL     OW15328   1.765   6.873   3.464  0.2671 -0.8176  0.8524
 4810SOL    HW115329   1.821   6.920   3.532 -2.0559  1.2878  1.4615
 4810SOL    HW215330   1.810   6.877   3.375  0.7840  1.4400  1.1646
 4811SOL     OW15331   4.274   0.226   1.887 -0.4397  0.2939  0.4947
 4811SOL    HW115332   4.201   0.163   1.911  1.4745 -2.3094 -0.0290
 4811SOL    HW215333   4.343   0.226   1.959  0.6614 -0.0056 -0.5163
 4812SOL     OW15334   2.020   3.258   1.634 -0.0359 -0.0606  0.5357
 4812SOL    HW115335   2.041   3.353   1.660  0.4367 -0.4303  1.5536
 4812SOL    HW215336   2.054   3.196   1.705 -0.2002 -1.0080 -0.2001
 4813SOL     OW15337   6.349   6.269   0.548  0.0787  0.4639  0.3177
 4813SOL    HW115338   6.285   6.328   0.498  0.5603  0.5700 -0.1768
 4813SOL    HW215339   6.417   6.232   0.485  0.6315  0.5143  0.8725
 4814SOL     OW15340   1.731   4.489   0.967  0.4347 -0.1360  0.3727
 4814SOL    HW115341   1.710   4.526   0.877 -0.8838  1.0984  1.1318
 4814SOL    HW215342   1.715   4.390   0.968 -0.7570  0.0290 -0.4311
 4815SOL     OW15343   3.203   0.745   1.140  0.2811  0.1590  0.4325
 4815SOL    HW115344   3.160   0.710   1.057  1.6482 -1.7333  0.4594
 4815SOL    HW215345   3.135   0.752   1.213 -0.5228 -0.0657 -0.2847
 4816SOL     OW15346   2.562   1.762   5.041  0.4637 -0.1151  0.1092
 4816SOL    HW115347   2.569   1.834   5.110 -1.0131  0.0710  0.1031
 4816SOL    HW215348   2.503   1.794   4.966 -0.4213 -1.4069  0.2226
 4817SOL     OW15349   0.652   6.504   6.902 -0.4074 -0.2596  0.2189
 4817SOL    HW115350   0.598   6.552   6.833  0.0228  0.1275  0.1469
 4817SOL    HW215351   0.689   6.420   6.864  0.0823  0.1043 -0.1219
 4818SOL     OW15352   4.004   0.748   0.021  0.3472  0.5330 -0.0417
 4818SOL    HW115353   3.965   0.829  -0.023 -1.3301  2.3225  4.1944
 4818SOL    HW215354   3.931   0.692   0.060  1.6875 -0.8221  0.6371
 4819SOL     OW15355   3.106   0.093   0.973  0.1408  0.4042 -0.4751
 4819SOL    HW115356   3.054   0.039   1.038  1.1939  0.1748  0.2040
 4819SOL    HW215357   3.199   0.056   0.965  0.5017  1.3588 -0.9332
 4820SOL     OW15358   2.382   5.932   2.252 -0.1822  0.3550  0.0243
 4820SOL    HW115359   2.389   6.004   2.320 -0.9263 -0.1515  0.6478
 4820SOL    HW215360   2.470   5.884   2.245  0.2548  1.1724 -0.2497
 4821SOL     OW15361   0.734   2.548   6.043 -0.4608  0.0137 -0.7764
 4821SOL    HW115362   0.784   2.501   6.115 -2.8323 -1.2581  0.1072
 4821SOL    HW215363   0.750   2.647   6.051 -1.1280 -0.0270  1.8932
 4822SOL     OW15364   6.485   1.803   4.712 -0.2069 -0.0826  0.0426
 4822SOL    HW115365   6.564   1.746   4.732 -0.7583 -1.0679 -0.4897
 4822SOL    HW215366   6.513   1.899   4.707  0.3986 -0.0146  2.9703
 4823SOL     OW15367   0.588   3.816   1.703  0.7377 -0.0851  0.0913
 4823SOL    HW115368   0.639   3.767   1.632 -1.2514 -1.6153 -0.3833
 4823SOL    HW215369   0.556   3.903   1.666  2.9049  0.9189  0.4085
 4824SOL     OW15370   3.649   1.793   3.557 -0.2755 -0.6318  0.3643
 4824SOL    HW115371   3.615   1.827   3.645  0.2481  1.4032 -0.1565
 4824SOL    HW215372   3.749   1.802   3.555 -0.4018  0.9940 -1.0265
 4825SOL     OW15373   6.544   5.964   1.233  0.0625  0.0975  0.3796
 4825SOL    HW115374   6.553   5.942   1.330  0.8139 -2.1514 -0.1363
 4825SOL    HW215375   6.627   5.935   1.185  0.0132  1.8387 -0.8521
 4826SOL     OW15376   0.581   6.400   4.828  0.2929  0.0245 -0.1532
 4826SOL    HW115377   0.523   6.319   4.823 -1.3848  1.1439  0.3207
 4826SOL    HW215378   0.543   6.464   4.895  2.3867  0.5951  0.5527
 4827SOL     OW15379   6.710   3.786   1.553 -0.1015 -0.2896 -0.4122
 4827SOL    HW115380   6.702   3.707   1.492 -0.7428 -0.3513 -0.2564
 4827SOL    HW215381   6.693   3.870   1.501  1.5896 -0.1459 -0.8124
 4828SOL     OW15382   4.622   2.495   2.311 -0.1113 -0.1882 -0.4786
 4828SOL    HW115383   4.699   2.559   2.318  0.4854 -1.0229  0.8489
 4828SOL    HW215384   4.554   2.533   2.248  1.2054  0.7337 -1.4121
 4829SOL     OW15385   1.502   2.601   2.518 -0.5214 -0.0602  0.5305
 4829SOL    HW115386   1.559   2.675   2.482 -2.2891  1.1715  0.1800
 4829SOL    HW215387   1.422   2.588   2.460 -0.8825 -1.4270  1.2822
 4830SOL     OW15388   1.180   1.368   0.633  0.2009  0.0031  0.0093
 4830SOL    HW115389   1.138   1.438   0.574 -0.8310 -1.0975 -0.6047
 4830SOL    HW215390   1.158   1.388   0.729 -1.4280 -0.3044 -0.2674
 4831SOL     OW15391   2.295   6.104   2.662  1.2167 -0.5359 -0.5204
 4831SOL    HW115392   2.196   6.105   2.674  1.2016 -0.3358 -0.6545
 4831SOL    HW215393   2.316   6.116   2.565  1.4161  1.7712 -0.2469
 4832SOL     OW15394   0.632   6.992   3.423 -0.0197 -0.3309 -0.2185
 4832SOL    HW115395   0.594   7.075   3.464 -0.4224 -0.7876  0.3456
 4832SOL    HW215396   0.558   6.928   3.403  0.0312  0.2666 -2.6109
 4833SOL     OW15397   5.606   4.076   0.975 -0.5288  0.1830  0.6565
 4833SOL    HW115398   5.642   4.136   0.903 -2.2358 -0.3359 -0.7099
 4833SOL    HW215399   5.665   4.081   1.055  1.8137  0.3205 -0.9776
 4834SOL     OW15400   2.645   2.414   6.186 -0.0896 -0.4028 -0.1934
 4834SOL    HW115401   2.687   2.354   6.255  0.2414 -0.0684 -0.1039
 4834SOL    HW215402   2.545   2.407   6.193 -0.0540 -1.0567 -0.2786
 4835SOL     OW15403   5.612   2.498   5.238 -0.0460 -0.2025 -0.4672
 4835SOL    HW115404   5.588   2.585   5.196  0.3294 -0.1765 -0.6312
 4835SOL    HW215405   5.700   2.507   5.286 -0.4038 -0.2666  0.2156
 4836SOL     OW15406   2.110   6.729   6.680  0.0960  0.5689 -0.9302
 4836SOL    HW115407   2.184   6.796   6.675 -0.8672  1.6581 -1.0521
 4836SOL    HW215408   2.028   6.773   6.718 -0.5933 -0.5156 -1.1187
 4837SOL     OW15409   5.514   4.274   6.172  0.2743  0.4508  0.1763
 4837SOL    HW115410   5.573   4.243   6.097  0.1027  0.2719  0.1171
 4837SOL    HW215411   5.561   4.260   6.259  0.0962 -0.1941  0.1679
 4838SOL     OW15412   3.349   6.525   0.093  0.1950  0.3256 -0.7667
 4838SOL    HW115413   3.281   6.455   0.117 -0.3046  0.5179 -1.5575
 4838SOL    HW215414   3.351   6.535  -0.007  0.2128  1.4828 -0.6564
 4839SOL     OW15415   5.701   0.133   1.014 -0.0216  0.5871  0.4566
 4839SOL    HW115416   5.723   0.070   1.088 -0.3002 -0.0760 -0.0134
 4839SOL    HW215417   5.601   0.137   1.002 -0.0276  1.3655  0.6862
 4840SOL     OW15418   3.988   6.791   1.246 -0.9978  0.3120 -0.1484
 4840SOL    HW115419   3.949   6.701   1.228 -1.3995  0.6772 -1.2371
 4840SOL    HW215420   4.011   6.799   1.342  0.6005 -1.5331 -0.3318
 4841SOL     OW15421   3.737   1.064   4.022  0.0686 -0.4898 -0.1442
 4841SOL    HW115422   3.800   1.005   3.971 -1.0799 -1.0289 -1.0143
 4841SOL    HW215423   3.665   1.097   3.960  0.1680  1.0991  0.5377
 4842SOL     OW15424   2.437   4.930   6.218 -0.2051 -0.6591  0.0577
 4842SOL    HW115425   2.375   4.938   6.141 -0.3616 -0.4596  0.2028
 4842SOL    HW215426   2.390   4.956   6.302  0.0821 -0.4694  0.1639
 4843SOL     OW15427   4.039   0.202   0.732  0.4008  0.5507 -0.5693
 4843SOL    HW115428   3.966   0.144   0.695  0.1462 -0.4404  1.3413
 4843SOL    HW215429   4.064   0.169   0.823  2.3421  1.6817 -0.6399
 4844SOL     OW15430   3.878   5.654   2.797  0.2637  0.3280  0.1615
 4844SOL    HW115431   3.894   5.566   2.842 -0.3086 -0.5932 -1.3743
 4844SOL    HW215432   3.796   5.697   2.836 -0.2023 -0.4294  0.0354
 4845SOL     OW15433   5.989   5.190   3.823  0.3217 -0.1032 -0.1968
 4845SOL    HW115434   5.936   5.269   3.791  0.4244 -0.6132 -1.7074
 4845SOL    HW215435   5.939   5.142   3.895  0.1142  1.1406  0.5163
 4846SOL     OW15436   0.001   3.008   0.175 -0.7551 -0.5520 -0.4752
 4846SOL    HW115437  -0.080   2.949   0.177 -0.6586 -0.7204  2.2403
 4846SOL    HW215438   0.055   2.988   0.094 -3.7559  0.1075 -2.8317
 4847SOL     OW15439   2.629   1.880   0.906  0.2062  0.1620 -0.3027
 4847SOL    HW115440   2.705   1.881   0.841  0.4613  1.8773 -0.0159
 4847SOL    HW215441   2.664   1.887   0.999 -0.1918 -1.7111  0.0257
 4848SOL     OW15442   1.462   2.069   0.191 -0.2197  0.1649  0.3108
 4848SOL    HW115443   1.402   2.017   0.129 -0.4084 -0.0375  0.6573
 4848SOL    HW215444   1.533   2.008   0.227 -0.4020  0.1609  0.6675
 4849SOL     OW15445   0.550   2.679   2.154  0.0058  0.0709 -0.0797
 4849SOL    HW115446   0.633   2.663   2.102  0.5557  1.1563  0.4386
 4849SOL    HW215447   0.474   2.700   2.092  0.1311 -0.8478 -0.5466
 4850SOL     OW15448   4.543   0.270   2.507  0.1597  0.3322  0.3649
 4850SOL    HW115449   4.520   0.361   2.474 -1.2979  0.2068  0.9592
 4850SOL    HW215450   4.478   0.204   2.470  0.7996 -0.3791  0.4787
 4851SOL     OW15451   0.720   4.825   4.793  0.2828  0.2651 -0.0072
 4851SOL    HW115452   0.805   4.840   4.843 -1.3592  1.3657  2.6368
 4851SOL    HW215453   0.720   4.732   4.755  1.8712 -0.4102  1.5300
 4852SOL     OW15454   2.648   0.844   4.407 -0.5355  0.4308  0.6524
 4852SOL    HW115455   2.617   0.903   4.333  0.3391 -1.0157 -0.9402
 4852SOL    HW215456   2.734   0.879   4.444 -1.6389  1.8985  1.9578
 4853SOL     OW15457   6.632   5.441   3.066  0.6023  0.0389  0.2092
 4853SOL    HW115458   6.702   5.383   3.108 -0.0545 -0.0187  1.2464
 4853SOL    HW215459   6.551   5.386   3.047  0.1550  0.5077  0.7445
 4854SOL     OW15460   1.243   5.832   4.347  0.5118  0.2787  0.2475
 4854SOL    HW115461   1.220   5.738   4.320 -1.9276  0.1633  2.4078
 4854SOL    HW215462   1.239   5.891   4.266 -2.1101 -0.7868 -0.5105
 4855SOL     OW15463   6.126   0.712   1.956  0.2525 -0.5319 -0.6103
 4855SOL    HW115464   6.044   0.768   1.943 -0.2343 -1.3817 -1.3490
 4855SOL    HW215465   6.130   0.643   1.884  0.7531 -1.5432  0.3643
 4856SOL     OW15466   2.860   4.554   6.673 -0.4257 -0.1048 -0.2662
 4856SOL    HW115467   2.823   4.559   6.581 -1.2172 -0.3353  0.0309
 4856SOL    HW215468   2.831   4.634   6.726 -1.1506 -0.6584  0.1946
 4857SOL     OW15469   6.795   2.379   6.563 -1.1238 -0.0336  0.1177
 4857SOL    HW115470   6.745   2.293   6.576  0.9425 -1.0498  1.9869
 4857SOL    HW215471   6.873   2.362   6.502 -0.6028  0.4743  0.6444
 4858SOL     OW15472   5.360   6.602   1.927 -0.1106  0.0479 -0.5704
 4858SOL    HW115473   5.342   6.697   1.953 -0.9273 -0.1361 -0.4360
 4858SOL    HW215474   5.442   6.570   1.973  1.3866  1.3172 -2.1862
 4859SOL     OW15475   3.210   2.333   0.275 -0.4521 -0.4285  0.4753
 4859SOL    HW115476   3.206   2.304   0.180 -1.6522 -0.4786  0.5273
 4859SOL    HW215477   3.218   2.432   0.280 -0.0482 -0.4506  0.3296
 4860SOL     OW15478   4.771   6.317   2.235 -0.6434 -0.5248 -0.0439
 4860SOL    HW115479   4.862   6.283   2.257 -0.7475 -1.3638 -0.8375
 4860SOL    HW215480   4.739   6.275   2.151 -2.1171 -0.8921  0.6618
 4861SOL     OW15481   5.817   3.100   2.876 -0.2005  0.1535  0.2549
 4861SOL    HW115482   5.858   3.181   2.834 -0.7971  1.7295  2.5309
 4861SOL    HW215483   5.862   3.018   2.841  1.9405  1.5616 -0.5023
 4862SOL     OW15484   4.604   1.001   3.346 -0.3107 -0.0872 -0.4040
 4862SOL    HW115485   4.608   1.098   3.372 -0.3688 -0.5286  1.3950
 4862SOL    HW215486   4.608   0.945   3.429 -0.8895 -1.6132 -1.3817
 4863SOL     OW15487   1.618   2.786   2.343  0.5497 -0.1079 -0.5303
 4863SOL    HW115488   1.717   2.770   2.338  0.6131 -1.3327  2.4878
 4863SOL    HW215489   1.595   2.868   2.291  3.4600  1.3432  0.2519
 4864SOL     OW15490   0.773   2.505   1.744 -0.3080  0.1451 -0.2034
 4864SOL    HW115491   0.759   2.511   1.843 -0.8405 -0.1911 -0.2545
 4864SOL    HW215492   0.704   2.561   1.697 -0.1530  0.1797 -0.3907
 4865SOL     OW15493   0.309   6.092   0.969 -0.1474  0.4401  0.2543
 4865SOL    HW115494   0.323   6.145   1.052  0.6192  1.6645 -0.6174
 4865SOL    HW215495   0.380   6.022   0.962 -0.4725  0.0481  0.8415
 4866SOL     OW15496   5.155   0.415   4.431  0.1434 -0.4065 -0.5256
 4866SOL    HW115497   5.204   0.358   4.497  0.4455 -0.1044 -0.4917
 4866SOL    HW215498   5.094   0.478   4.479 -0.1251 -0.6349 -0.5609
 4867SOL     OW15499   0.300   0.926   1.020  0.5865 -0.0998  0.4238
 4867SOL    HW115500   0.303   1.013   0.971 -2.9457  0.0959  0.3489
 4867SOL    HW215501   0.315   0.941   1.117  1.3488  0.3619  0.2442
 4868SOL     OW15502   6.609   0.199   0.521  0.0381 -0.1429 -0.3200
 4868SOL    HW115503   6.551   0.210   0.602 -0.5128 -0.9141 -0.6010
 4868SOL    HW215504   6.651   0.108   0.523  2.5464  0.9436  0.7031
 4869SOL     OW15505   4.607   0.603   5.254  0.0994  0.0107 -0.4224
 4869SOL    HW115506   4.598   0.538   5.178  1.8224  0.8438 -1.4076
 4869SOL    HW215507   4.671   0.676   5.228  1.7269 -0.3275  2.2876
 4870SOL     OW15508   2.802   6.248   0.583 -0.5233  0.3516 -0.1659
 4870SOL    HW115509   2.854   6.181   0.531  0.3355  0.1445  0.9215
 4870SOL    HW215510   2.819   6.339   0.547  2.0363  0.5189  1.1918
 4871SOL     OW15511   2.601   2.074   2.474  0.3480  0.2906  0.1817
 4871SOL    HW115512   2.626   1.977   2.473  1.2054  0.3601  3.4895
 4871SOL    HW215513   2.653   2.123   2.404  0.6830 -1.4458 -0.8420
 4872SOL     OW15514   6.961   2.560   1.488  0.5304  0.0996  0.0191
 4872SOL    HW115515   6.977   2.552   1.587  2.4391 -0.7527 -0.2936
 4872SOL    HW215516   7.037   2.610   1.446 -0.4681  0.8283 -0.9884
 4873SOL     OW15517   4.566   2.327   3.142 -0.2090 -0.4093 -0.3046
 4873SOL    HW115518   4.489   2.337   3.080 -1.2510  1.1060  1.1288
 4873SOL    HW215519   4.544   2.370   3.230  1.6406 -1.4272  0.7350
 4874SOL     OW15520   5.057   1.461   0.203 -0.0144 -0.2732 -0.5657
 4874SOL    HW115521   5.124   1.458   0.278 -0.6335 -0.8688 -0.0264
 4874SOL    HW215522   4.974   1.507   0.234 -0.5498 -1.1663 -0.6526
 4875SOL     OW15523   3.671   3.118   1.260 -0.3587  0.3551  0.0558
 4875SOL    HW115524   3.725   3.048   1.213  2.7287  0.4981  2.9548
 4875SOL    HW215525   3.584   3.080   1.290  0.7642 -1.9781  0.5779
 4876SOL     OW15526   5.237   4.357   0.747 -0.3858  1.3681  0.0363
 4876SOL    HW115527   5.220   4.414   0.666  0.3367 -0.6174 -1.6200
 4876SOL    HW215528   5.329   4.317   0.740 -0.9710 -0.2335  0.9203
 4877SOL     OW15529   5.589   0.604   7.013  0.3302 -0.7130  0.0410
 4877SOL    HW115530   5.588   0.549   6.929  1.9718  0.7553 -1.0147
 4877SOL    HW215531   5.681   0.643   7.026 -0.0940 -0.2683  2.1227
 4878SOL     OW15532   1.505   4.807   0.996 -0.1625 -0.2489  0.8454
 4878SOL    HW115533   1.592   4.786   0.950  0.1111  2.9335 -0.3431
 4878SOL    HW215534   1.523   4.841   1.088  0.1298  2.2432 -0.0548
 4879SOL     OW15535   1.019   0.337   5.098  0.2647 -0.0125  0.3257
 4879SOL    HW115536   1.000   0.393   5.179 -0.1614  2.0465 -1.1215
 4879SOL    HW215537   1.106   0.365   5.058  0.3338 -0.8120 -0.0942
 4880SOL     OW15538   0.807   0.794   6.395  0.2204  0.0740  0.0137
 4880SOL    HW115539   0.859   0.712   6.420 -0.0627 -0.9879 -2.5929
 4880SOL    HW215540   0.856   0.845   6.325 -0.8636  0.6717 -0.3281
 4881SOL     OW15541   1.714   1.473   0.004 -0.4303 -0.3957  0.5052
 4881SOL    HW115542   1.632   1.438  -0.041 -0.0723 -0.3660 -0.1944
 4881SOL    HW215543   1.728   1.569  -0.022  0.2647 -0.6355 -0.0439
 4882SOL     OW15544   2.051   1.599   5.031 -0.3365  0.3472  0.1153
 4882SOL    HW115545   2.062   1.507   5.068  0.4997  0.8824  1.2503
 4882SOL    HW215546   2.140   1.642   5.018 -0.5947  0.2755 -2.3992
 4883SOL     OW15547   3.495   3.461   3.415  0.0355  0.1065  0.7786
 4883SOL    HW115548   3.420   3.415   3.367 -0.4505  0.2908  1.3487
 4883SOL    HW215549   3.578   3.457   3.359 -0.3039 -0.4209  0.3031
 4884SOL     OW15550   5.253   3.024   1.906  0.5070  0.0668  0.0645
 4884SOL    HW115551   5.164   2.995   1.941  0.6780  0.2425  0.6499
 4884SOL    HW215552   5.239   3.086   1.828  0.1013  0.7705  0.6863
 4885SOL     OW15553   0.912   2.849   1.410 -0.4914 -0.2552  0.0828
 4885SOL    HW115554   0.978   2.892   1.348 -1.3026  0.2755 -0.4317
 4885SOL    HW215555   0.961   2.801   1.482  0.4585  0.9344  0.2688
 4886SOL     OW15556   1.569   4.006   0.656  0.1895  0.1024 -0.4461
 4886SOL    HW115557   1.561   3.922   0.603 -0.5554  0.5961 -1.1331
 4886SOL    HW215558   1.643   4.062   0.619  0.0243  0.2055 -0.6163
 4887SOL     OW15559   6.101   2.196   3.407 -0.0586 -0.6835 -0.2244
 4887SOL    HW115560   6.066   2.115   3.361 -2.2066  0.5071 -0.8616
 4887SOL    HW215561   6.028   2.236   3.464  0.7627  1.0497 -0.3145
 4888SOL     OW15562   6.236   5.886   6.768 -0.1164  0.4721  0.1012
 4888SOL    HW115563   6.297   5.930   6.702  0.7626 -0.3734  0.3250
 4888SOL    HW215564   6.143   5.920   6.755  0.5786  2.7716  0.5978
 4889SOL     OW15565   2.512   1.047   3.346 -0.0875 -0.6153 -0.0832
 4889SOL    HW115566   2.421   1.007   3.352 -0.7616  1.0305  2.0432
 4889SOL    HW215567   2.510   1.141   3.381  2.2974 -0.2821 -0.6208
 4890SOL     OW15568   2.174   3.291   3.995  0.4992 -0.4260 -0.1650
 4890SOL    HW115569   2.125   3.206   4.018 -1.2220  0.1297 -1.5366
 4890SOL    HW215570   2.187   3.295   3.896  1.9212  0.2346  0.0334
 4891SOL     OW15571   1.720   5.593   2.551  0.0891  0.6956  0.3071
 4891SOL    HW115572   1.790   5.523   2.560 -0.3696  0.0900 -0.6761
 4891SOL    HW215573   1.692   5.625   2.642 -0.0914 -0.7858  0.7966
 4892SOL     OW15574   2.517   0.066   2.438 -0.3976  0.3075 -0.2614
 4892SOL    HW115575   2.523  -0.015   2.381  2.4028  1.4516 -1.7752
 4892SOL    HW215576   2.446   0.127   2.403 -2.1302 -1.1335  0.5564
 4893SOL     OW15577   5.983   5.122   1.317 -0.4389  0.1433 -0.3555
 4893SOL    HW115578   5.908   5.150   1.377  0.0133 -0.2416  0.4176
 4893SOL    HW215579   6.013   5.199   1.261  0.1043  0.9449  0.9848
 4894SOL     OW15580   5.125   6.175   2.639  0.1443  1.1416 -0.2870
 4894SOL    HW115581   5.112   6.120   2.723  1.0948  0.7151 -0.4056
 4894SOL    HW215582   5.193   6.246   2.656 -0.6083  1.8745 -0.3293
 4895SOL     OW15583   3.054   6.713   6.284 -0.5594  0.0399  0.0302
 4895SOL    HW115584   3.147   6.678   6.287  0.1661  1.7407 -1.0693
 4895SOL    HW215585   3.056   6.813   6.277 -2.4850  0.1684  0.6724
 4896SOL     OW15586   3.097   5.144   3.339 -0.0952  0.8254  0.0488
 4896SOL    HW115587   3.190   5.108   3.331 -0.4050 -0.1782  0.7382
 4896SOL    HW215588   3.039   5.105   3.267 -0.6918 -0.9991  1.4351
 4897SOL     OW15589   1.937   5.512   2.927  0.1326 -0.6684 -0.3288
 4897SOL    HW115590   1.890   5.528   2.840  0.2719  0.3164 -0.2360
 4897SOL    HW215591   1.997   5.589   2.947  0.0572 -0.8511  0.6736
 4898SOL     OW15592   5.218   3.215   3.046  0.2593 -0.5117  0.0430
 4898SOL    HW115593   5.143   3.240   2.985  0.9544  1.0852 -0.2131
 4898SOL    HW215594   5.184   3.155   3.118 -0.8423 -1.3870 -1.1501
 4899SOL     OW15595   4.846   3.042   0.978 -0.6571 -0.1606 -0.3961
 4899SOL    HW115596   4.884   2.989   0.902  0.8229  0.8442 -0.4019
 4899SOL    HW215597   4.899   3.024   1.061 -1.2897 -0.0637  0.0348
 4900SOL     OW15598   3.018   5.454   1.810 -0.0649 -0.5702  0.1467
 4900SOL    HW115599   3.024   5.373   1.869  2.9931  0.7822  1.9684
 4900SOL    HW215600   3.086   5.447   1.737 -0.0444  0.1504  0.0884
 4901SOL     OW15601   4.308   2.943   6.911 -0.3495  0.1679 -0.1485
 4901SOL    HW115602   4.349   3.033   6.927 -0.5267 -0.0858  1.9042
 4901SOL    HW215603   4.212   2.944   6.939 -1.0379 -0.0401 -2.3128
 4902SOL     OW15604   5.971   5.688   6.851 -0.2343 -0.1601 -0.5108
 4902SOL    HW115605   6.040   5.760   6.839 -2.4306  2.3151  0.5151
 4902SOL    HW215606   5.978   5.651   6.944  2.1289 -2.8247 -1.6137
 4903SOL     OW15607   2.605   3.092   1.700 -0.7945 -0.0148  0.1095
 4903SOL    HW115608   2.654   3.177   1.679 -0.2014 -0.1383  0.9376
 4903SOL    HW215609   2.657   3.014   1.664  0.1543 -0.2173  1.7996
 4904SOL     OW15610   4.933   4.764   6.011 -0.3146  0.3400 -0.2341
 4904SOL    HW115611   4.961   4.801   6.100 -2.2153  0.5391  0.3296
 4904SOL    HW215612   4.839   4.729   6.018 -0.3337 -0.0472 -2.0616
 4905SOL     OW15613   1.639   5.044   4.776  0.5186  0.1397 -0.0541
 4905SOL    HW115614   1.632   5.118   4.710 -0.4731 -1.3219 -1.6822
 4905SOL    HW215615   1.554   5.037   4.828  0.2950 -0.3309 -0.4702
 4906SOL     OW15616   4.368   3.234   0.692 -0.2246 -0.2854 -0.0518
 4906SOL    HW115617   4.392   3.307   0.757 -0.5856 -0.1889 -0.0282
 4906SOL    HW215618   4.411   3.253   0.604 -0.8017  0.2662 -0.2163
 4907SOL     OW15619   0.993   3.956   5.791 -0.1301 -0.8263  0.0749
 4907SOL    HW115620   1.049   3.874   5.794 -1.3941 -1.7091  0.4958
 4907SOL    HW215621   1.013   4.007   5.707  0.5350 -1.6718 -0.2918
 4908SOL     OW15622   2.548   1.585   0.914  0.2181  1.1359 -0.0323
 4908SOL    HW115623   2.593   1.674   0.910 -0.7802  1.6362 -0.5531
 4908SOL    HW215624   2.470   1.585   0.852 -1.4631  0.8644  1.9807
 4909SOL     OW15625   4.533   4.129   1.055  0.4068  0.2330  0.0862
 4909SOL    HW115626   4.629   4.105   1.067  0.0868 -1.2324 -0.1093
 4909SOL    HW215627   4.512   4.211   1.107  2.4415  2.2816 -2.0894
 4910SOL     OW15628   0.305   5.940   4.924 -0.2157  0.0567 -0.0719
 4910SOL    HW115629   0.353   5.999   4.989  0.0257  0.0392 -0.2341
 4910SOL    HW215630   0.323   5.972   4.831  1.2675 -1.2264 -0.2785
 4911SOL     OW15631   6.801   0.006   4.603 -0.0471 -0.5241  0.2701
 4911SOL    HW115632   6.756  -0.069   4.652 -0.1257  0.4666  1.7861
 4911SOL    HW215633   6.793   0.090   4.657  0.7892  0.3931 -0.9863
 4912SOL     OW15634   3.016   4.171   0.327 -0.2728  0.5921  0.1888
 4912SOL    HW115635   3.069   4.180   0.411  0.4594 -1.9352  0.0819
 4912SOL    HW215636   3.009   4.261   0.282 -0.5523  1.9801  2.7918
 4913SOL     OW15637   5.201   2.529   0.714 -0.1267 -0.0274  0.0260
 4913SOL    HW115638   5.113   2.547   0.758  1.1658 -0.8058  3.1426
 4913SOL    HW215639   5.204   2.577   0.626 -3.7780 -0.3202 -0.4175
 4914SOL     OW15640   2.740   6.256   4.704  1.0755 -0.2196  0.5891
 4914SOL    HW115641   2.743   6.191   4.628 -0.0989  0.0993  0.2533
 4914SOL    HW215642   2.651   6.301   4.706  2.4919  2.9064 -0.4523
 4915SOL     OW15643   5.903   6.210   2.231 -0.2186  0.2800 -0.2621
 4915SOL    HW115644   5.867   6.224   2.324 -0.2005  1.1106 -0.3738
 4915SOL    HW215645   5.983   6.268   2.218  0.0709 -0.1986 -0.6421
 4916SOL     OW15646   5.073   3.287   4.311  0.1554  0.2848  0.2899
 4916SOL    HW115647   5.002   3.330   4.256  1.4277  0.8269 -0.9765
 4916SOL    HW215648   5.070   3.325   4.404  0.6515  2.4798 -0.5333
 4917SOL     OW15649   1.185   4.250   5.211 -0.0293  0.3374 -0.1231
 4917SOL    HW115650   1.141   4.300   5.286  1.2022  1.9429 -0.4097
 4917SOL    HW215651   1.210   4.314   5.138  2.2775 -0.5276 -0.1909
 4918SOL     OW15652   1.726   5.113   6.860  0.1068  0.4164  0.0698
 4918SOL    HW115653   1.787   5.039   6.830 -0.6530 -0.1905 -0.0123
 4918SOL    HW215654   1.631   5.085   6.846 -0.1819  2.0283 -1.4269
 4919SOL     OW15655   5.026   2.647   5.532 -0.1480  0.7456  0.3792
 4919SOL    HW115656   5.006   2.693   5.446 -2.0158 -0.7175 -0.0407
 4919SOL    HW215657   5.066   2.557   5.514 -1.2370  0.1161  0.9823
 4920SOL     OW15658   3.097   4.397   6.583  0.2228  0.2362 -0.6749
 4920SOL    HW115659   3.010   4.427   6.621  0.2263 -0.5093 -0.0497
 4920SOL    HW215660   3.095   4.407   6.483 -0.1036  1.4021 -0.5558
 4921SOL     OW15661   1.723   5.192   0.734 -0.2054  0.2010 -0.1929
 4921SOL    HW115662   1.716   5.223   0.829  3.1542 -0.2465  0.3237
 4921SOL    HW215663   1.809   5.224   0.695 -0.4018 -1.6203 -2.3116
 4922SOL     OW15664   5.283   0.014   0.252 -0.5649  0.1923 -0.5223
 4922SOL    HW115665   5.257   0.110   0.246 -2.5813 -0.2501  0.1920
 4922SOL    HW215666   5.344   0.001   0.330 -0.0559  0.9283 -0.7901
 4923SOL     OW15667   4.038   4.266   1.519  0.1693  0.3872  0.1469
 4923SOL    HW115668   4.018   4.237   1.426 -1.5660  1.5275  0.1146
 4923SOL    HW215669   4.135   4.288   1.527  0.7970 -1.7395 -0.7801
 4924SOL     OW15670   0.527   0.217   4.592 -0.0301 -0.1769  0.1803
 4924SOL    HW115671   0.563   0.285   4.528  0.1263 -1.1529 -0.7949
 4924SOL    HW215672   0.603   0.178   4.644 -0.3596  2.5118  3.0078
 4925SOL     OW15673   2.718   2.273   6.939  0.8309 -0.6718  0.1500
 4925SOL    HW115674   2.635   2.218   6.945  1.1596 -1.2353 -0.3797
 4925SOL    HW215675   2.720   2.338   7.015 -0.1077 -0.6293  0.1525
 4926SOL     OW15676   2.002   0.975   2.110  0.2802 -0.0212  0.6097
 4926SOL    HW115677   2.037   0.882   2.104 -1.2398 -1.0052  4.2617
 4926SOL    HW215678   2.078   1.040   2.101  1.9475 -1.7515  1.4847
 4927SOL     OW15679   1.210   2.893   0.049 -0.3636  0.2096 -0.4565
 4927SOL    HW115680   1.298   2.871   0.006 -0.3679 -1.8287  0.4461
 4927SOL    HW215681   1.199   2.838   0.131 -2.2764  0.8256 -0.2566
 4928SOL     OW15682   1.906   4.279   3.155 -0.4471  0.2657 -0.1012
 4928SOL    HW115683   1.964   4.200   3.136 -0.9479  0.2696 -1.8009
 4928SOL    HW215684   1.918   4.348   3.084 -1.4624  0.8720  0.2874
 4929SOL     OW15685   6.441   2.215   2.460  0.2203 -0.7561 -0.2326
 4929SOL    HW115686   6.398   2.126   2.476  0.2207 -0.8443 -0.7101
 4929SOL    HW215687   6.465   2.224   2.364 -0.3956  0.0385 -0.3171
 4930SOL     OW15688   6.481   6.568   1.044  0.2545 -0.5652  0.1649
 4930SOL    HW115689   6.463   6.609   1.134 -2.2718  1.2184 -1.0266
 4930SOL    HW215690   6.555   6.617   0.999  1.1110 -1.0712  0.9761
 4931SOL     OW15691   5.518   1.368   6.091 -0.4269 -0.4316 -0.4161
 4931SOL    HW115692   5.488   1.278   6.060 -0.8833  0.4515 -2.7501
 4931SOL    HW215693   5.604   1.393   6.047 -1.9678  1.5941 -2.5027
 4932SOL     OW15694   0.443   1.258   0.320  0.2521 -0.2534 -0.2301
 4932SOL    HW115695   0.348   1.263   0.288 -0.4401  0.5266  1.8020
 4932SOL    HW215696   0.479   1.166   0.301 -0.3315 -0.0990 -2.4220
 4933SOL     OW15697   1.545   0.588   3.347  0.6148 -0.6606 -0.5266
 4933SOL    HW115698   1.572   0.515   3.411 -1.2605 -2.3431 -1.5524
 4933SOL    HW215699   1.562   0.557   3.253  1.0073  0.7924 -0.9543
 4934SOL     OW15700   2.036   2.095   1.092  0.3643 -0.0632 -0.1866
 4934SOL    HW115701   2.106   2.089   1.163 -0.6348 -0.3611  0.8177
 4934SOL    HW215702   2.049   2.178   1.039  0.8956  0.3889  0.6294
 4935SOL     OW15703   2.153   3.860   1.992 -0.4411 -0.0668  0.0150
 4935SOL    HW115704   2.237   3.894   1.949  1.6666 -3.0918  1.3624
 4935SOL    HW215705   2.121   3.779   1.943 -1.0303 -0.4954  1.0719
 4936SOL     OW15706   0.227   0.570   1.887 -0.5114  0.2943 -0.2689
 4936SOL    HW115707   0.189   0.637   1.824 -2.0645 -0.2213  0.0725
 4936SOL    HW215708   0.247   0.614   1.974 -0.9683  0.4537 -0.2390
 4937SOL     OW15709   1.720   3.436   3.676  0.0219  0.1306  0.0670
 4937SOL    HW115710   1.645   3.470   3.618  0.1108  0.0292 -0.1075
 4937SOL    HW215711   1.769   3.513   3.716  1.1304  0.2525 -1.4726
 4938SOL     OW15712   1.713   2.635   5.400 -0.2266 -0.1532  0.2121
 4938SOL    HW115713   1.718   2.656   5.302  0.6087  0.0584  0.2871
 4938SOL    HW215714   1.772   2.698   5.450 -1.4439  0.4134  0.9784
 4939SOL     OW15715   0.661   1.094   2.532  0.2113 -0.9951  0.6506
 4939SOL    HW115716   0.702   1.137   2.452  1.4731 -0.9693  1.2811
 4939SOL    HW215717   0.659   0.995   2.520 -1.0320 -0.9072 -0.0412
 4940SOL     OW15718   2.847   2.549   0.179 -0.0735 -0.6090 -0.3006
 4940SOL    HW115719   2.816   2.642   0.196 -1.6896 -0.8717 -1.5763
 4940SOL    HW215720   2.810   2.488   0.250 -0.9809 -0.6225 -0.7694
 4941SOL     OW15721   1.737   5.336   6.450 -0.3932 -0.0139  0.0671
 4941SOL    HW115722   1.794   5.310   6.528 -0.9352 -1.0888  0.1230
 4941SOL    HW215723   1.674   5.410   6.478  2.2969  2.6922 -0.5476
 4942SOL     OW15724   1.597   0.546   2.302 -0.0310  0.3699  0.7461
 4942SOL    HW115725   1.543   0.479   2.251  0.7965  0.6049 -0.4974
 4942SOL    HW215726   1.652   0.499   2.371  0.4776 -0.2523 -0.0550
 4943SOL     OW15727   1.798   4.934   5.293 -0.5620  0.1469  0.6479
 4943SOL    HW115728   1.824   4.843   5.260  1.7198  0.6835  0.8226
 4943SOL    HW215729   1.772   4.928   5.389 -0.9975 -0.3958  0.5043
 4944SOL     OW15730   2.781   4.016   0.364 -0.6830 -0.2092  0.4183
 4944SOL    HW115731   2.702   4.071   0.388  0.3478  1.2626  0.5730
 4944SOL    HW215732   2.858   4.076   0.342 -0.2687 -1.5338 -2.1376
 4945SOL     OW15733   0.627   3.824   2.178 -0.3498  0.1913 -0.5481
 4945SOL    HW115734   0.598   3.728   2.177 -1.1133  0.3498  1.7599
 4945SOL    HW215735   0.726   3.828   2.164  0.2824 -1.2621  2.6134
 4946SOL     OW15736   6.172   0.580   6.591  0.1195 -0.3482 -0.1765
 4946SOL    HW115737   6.266   0.586   6.626 -0.7651  0.9199  2.1699
 4946SOL    HW215738   6.164   0.636   6.509  0.6686  2.3526  1.4954
 4947SOL     OW15739   4.709   1.556   4.987  0.2465 -0.3248 -0.1789
 4947SOL    HW115740   4.757   1.526   4.904 -0.1537  1.0598 -0.9558
 4947SOL    HW215741   4.758   1.524   5.068  0.9310 -1.2785 -0.9477
 4948SOL     OW15742   2.970   6.434   3.639  0.6046 -0.0527  0.2286
 4948SOL    HW115743   3.060   6.390   3.650  0.2483 -0.7142  0.6136
 4948SOL    HW215744   2.971   6.494   3.559  1.8048  1.0205  1.0177
 4949SOL     OW15745   0.825   3.037   3.320 -0.3138 -0.3718 -0.5206
 4949SOL    HW115746   0.891   3.112   3.315  0.1637 -0.8409 -3.5376
 4949SOL    HW215747   0.741   3.065   3.273  0.1258 -1.8678 -2.3276
 4950SOL     OW15748   2.281   2.103   5.980  0.3116  0.0271  0.3523
 4950SOL    HW115749   2.353   2.103   6.050 -0.4960 -0.2409  1.2074
 4950SOL    HW215750   2.283   2.016   5.931  1.8113  0.7550 -0.9849
 4951SOL     OW15751   5.310   6.118   4.498 -0.3660  0.2665 -0.5574
 4951SOL    HW115752   5.324   6.216   4.510  0.0767  0.4927 -2.5748
 4951SOL    HW215753   5.223   6.091   4.538  0.3038  1.1076  1.6234
 4952SOL     OW15754   2.614   4.596   2.031  0.0461  0.3164  0.5237
 4952SOL    HW115755   2.616   4.572   2.128 -0.9247 -1.0537  0.2365
 4952SOL    HW215756   2.707   4.606   1.997  0.4035  0.3826  1.4804
 4953SOL     OW15757   4.876   6.799   0.908  0.2013  0.0841 -0.0272
 4953SOL    HW115758   4.928   6.752   0.979  1.5081  0.3935 -0.7532
 4953SOL    HW215759   4.826   6.875   0.949 -1.1009 -1.2487  0.9767
 4954SOL     OW15760   1.393   6.711   5.971  0.2609  0.6924 -1.2389
 4954SOL    HW115761   1.477   6.717   6.026 -0.1026 -0.0733 -0.5763
 4954SOL    HW215762   1.352   6.621   5.983 -0.9705  1.2489 -1.0722
 4955SOL     OW15763   4.952   0.444   2.668 -0.0976  0.2976 -0.4287
 4955SOL    HW115764   4.908   0.434   2.579  0.0090 -1.1882 -0.3362
 4955SOL    HW215765   4.955   0.541   2.693 -0.0129  0.7528 -2.0901
 4956SOL     OW15766   4.069   6.494   3.259  0.2569 -0.0647 -0.0953
 4956SOL    HW115767   4.018   6.531   3.181  0.6840 -0.4961 -0.5836
 4956SOL    HW215768   4.166   6.488   3.235  0.6722  1.4358  1.0668
 4957SOL     OW15769   6.808   1.588   0.764 -0.4382  0.6217 -0.2500
 4957SOL    HW115770   6.774   1.510   0.713  0.1161  0.6322 -0.6465
 4957SOL    HW215771   6.902   1.570   0.794 -0.9275  0.3928  1.2323
 4958SOL     OW15772   0.859   3.725   6.017 -0.4929  0.4356  0.4763
 4958SOL    HW115773   0.945   3.675   6.020 -0.6673  0.0992  0.0131
 4958SOL    HW215774   0.851   3.771   5.928 -1.5778 -0.9614 -0.1930
 4959SOL     OW15775   0.469   1.118   5.728 -0.0833 -0.5670  0.2138
 4959SOL    HW115776   0.504   1.186   5.664 -1.1007 -0.9963 -0.8200
 4959SOL    HW215777   0.430   1.041   5.678 -0.5883 -1.0871  1.3573
 4960SOL     OW15778   2.640   4.549   0.127 -0.0954 -0.0973  0.5086
 4960SOL    HW115779   2.667   4.583   0.217 -0.6553 -0.7397  0.9264
 4960SOL    HW215780   2.544   4.572   0.110  0.5874  1.9991 -0.8870
 4961SOL     OW15781   2.347   4.538   1.145  0.7198 -0.0698 -0.1770
 4961SOL    HW115782   2.442   4.509   1.135  0.4144 -0.6943 -1.5282
 4961SOL    HW215783   2.297   4.517   1.061 -0.3738  1.1960  0.1235
 4962SOL     OW15784   6.877   0.932   2.498 -0.2049  0.0693 -0.2161
 4962SOL    HW115785   6.908   0.890   2.583 -0.3203  1.2083  0.4122
 4962SOL    HW215786   6.877   1.031   2.508 -0.6858  0.2056 -1.3888
 4963SOL     OW15787   6.196   1.403   3.866  0.9776  0.0129 -0.1012
 4963SOL    HW115788   6.125   1.416   3.796 -0.4464 -2.1177  0.8307
 4963SOL    HW215789   6.283   1.381   3.821  0.9713  2.0563 -1.2526
 4964SOL     OW15790   0.986   6.254   3.025  0.2979  0.1596 -0.0080
 4964SOL    HW115791   1.047   6.184   2.989  0.5389  1.0971 -1.5040
 4964SOL    HW215792   1.025   6.292   3.109  0.0148 -1.6546  1.0037
 4965SOL     OW15793   4.712   0.223   0.316 -0.1166 -0.0462 -0.5588
 4965SOL    HW115794   4.726   0.189   0.409 -0.9854  1.8956  0.3292
 4965SOL    HW215795   4.720   0.147   0.252  1.8993 -1.2073  0.9348
 4966SOL     OW15796   1.166   6.872   5.929 -0.3110  0.4934  0.1432
 4966SOL    HW115797   1.145   6.815   6.008  3.4345 -1.4013  0.0334
 4966SOL    HW215798   1.197   6.814   5.853 -0.9065  2.4398 -1.6965
 4967SOL     OW15799   0.814   0.869   3.452 -0.2652  0.1298  0.0771
 4967SOL    HW115800   0.822   0.968   3.439  1.0467 -0.1151 -1.3880
 4967SOL    HW215801   0.742   0.849   3.518 -1.3590  2.0106 -0.4664
 4968SOL     OW15802   2.616   6.115   5.209  0.1176  0.0445 -0.4752
 4968SOL    HW115803   2.705   6.073   5.188 -0.0467  0.4282 -2.0618
 4968SOL    HW215804   2.544   6.045   5.202  0.2632 -0.2704  0.8274
 4969SOL     OW15805   0.068   3.196   2.140  0.2123 -0.4764 -0.2412
 4969SOL    HW115806   0.157   3.239   2.148  1.0390 -1.9737 -1.0090
 4969SOL    HW215807  -0.001   3.253   2.185  1.7162  0.1347  1.3800
 4970SOL     OW15808   4.291   5.138   5.085  0.0741  0.1472 -0.2671
 4970SOL    HW115809   4.352   5.215   5.067 -0.6917  0.5814 -1.0915
 4970SOL    HW215810   4.342   5.053   5.073  1.6408  0.4216  3.0863
 4971SOL     OW15811   2.478   4.480   5.041 -0.0199  0.3359 -0.5230
 4971SOL    HW115812   2.549   4.491   4.972  0.2483 -2.9056 -0.9088
 4971SOL    HW215813   2.516   4.435   5.122 -1.3134 -0.1680 -0.1606
 4972SOL     OW15814   0.794   0.881   5.453 -0.5142  0.1628 -0.4483
 4972SOL    HW115815   0.869   0.836   5.405 -0.1591  0.9320 -0.6258
 4972SOL    HW215816   0.780   0.837   5.541 -0.2076 -0.3247 -0.6378
 4973SOL     OW15817   1.910   3.144   2.395 -0.0104 -0.2225  0.2679
 4973SOL    HW115818   1.893   3.105   2.304  0.4774  0.5341 -0.1521
 4973SOL    HW215819   1.831   3.199   2.422 -0.6670 -1.4090  0.8278
 4974SOL     OW15820   0.534   0.570   4.080  0.3319  0.6340 -0.3339
 4974SOL    HW115821   0.455   0.551   4.022 -0.1199  2.9276 -0.5754
 4974SOL    HW215822   0.618   0.553   4.030  0.0133 -1.0686 -0.3411
 4975SOL     OW15823   5.664   0.178   2.651  0.7754 -0.3960  0.5633
 4975SOL    HW115824   5.613   0.104   2.696 -2.4057  1.3962  0.2038
 4975SOL    HW215825   5.634   0.266   2.689  3.0320  0.8352 -0.3559
 4976SOL     OW15826   1.679   5.293   0.972  0.1054 -0.5433  0.7867
 4976SOL    HW115827   1.608   5.235   1.013 -0.8847  1.1605  1.5950
 4976SOL    HW215828   1.726   5.343   1.045  0.6906 -0.0632  0.0815
 4977SOL     OW15829   0.727   0.070   4.719  0.0006 -0.0414 -0.1452
 4977SOL    HW115830   0.783   0.139   4.673  1.5306  0.3738  2.1541
 4977SOL    HW215831   0.778  -0.016   4.725 -1.4502 -1.1054 -1.9744
 4978SOL     OW15832   1.183   6.962   0.999 -0.2724 -0.6942 -0.5359
 4978SOL    HW115833   1.111   7.028   1.020  1.0726  1.2479 -1.6862
 4978SOL    HW215834   1.172   6.930   0.905  0.6695  0.0676 -0.9178
 4979SOL     OW15835   3.193   4.811   5.257  0.5715  0.4246  0.1140
 4979SOL    HW115836   3.174   4.879   5.328 -1.2614  0.5547 -0.4334
 4979SOL    HW215837   3.149   4.724   5.282  0.9254  0.1282 -0.2872
 4980SOL     OW15838   1.470   5.108   5.534 -0.1814  0.1845  0.3942
 4980SOL    HW115839   1.423   5.169   5.470 -0.4100  1.2418  1.5308
 4980SOL    HW215840   1.559   5.082   5.496 -0.6805  0.0632 -0.7348
 4981SOL     OW15841   4.199   6.299   4.761 -0.3146 -0.1767 -0.8703
 4981SOL    HW115842   4.111   6.260   4.787  0.5328 -1.6035 -0.0203
 4981SOL    HW215843   4.259   6.227   4.727  0.9887  0.5150 -0.1339
 4982SOL     OW15844   1.951   0.198   2.262 -0.0122 -0.0451 -0.0166
 4982SOL    HW115845   1.853   0.184   2.278  0.2394  0.8128  2.8254
 4982SOL    HW215846   1.966   0.291   2.230 -0.0950  0.0278  0.1511
 4983SOL     OW15847   6.699   3.461   5.215  0.6208 -0.2977 -0.4578
 4983SOL    HW115848   6.714   3.555   5.246  0.5967 -0.6631  0.7207
 4983SOL    HW215849   6.601   3.440   5.218  0.6863 -0.5599 -0.1157
 4984SOL     OW15850   2.238   2.715   0.764  0.3441  0.0650  0.1877
 4984SOL    HW115851   2.307   2.681   0.827  0.1385 -0.4819  0.1217
 4984SOL    HW215852   2.213   2.809   0.789 -0.2200 -0.3708  1.3313
 4985SOL     OW15853   0.727   4.908   6.853 -0.6044 -0.6717 -0.2558
 4985SOL    HW115854   0.726   4.867   6.762  0.6522 -1.2311 -0.0260
 4985SOL    HW215855   0.821   4.924   6.882 -0.9096 -1.8762  1.5503
 4986SOL     OW15856   1.843   2.793   5.833  0.1759  0.2915  0.1943
 4986SOL    HW115857   1.864   2.832   5.743 -2.4534  0.0231 -0.6035
 4986SOL    HW215858   1.809   2.700   5.821 -0.2827  0.2900  1.4706
 4987SOL     OW15859   6.781   4.714   0.246 -0.2527  0.6614  0.1922
 4987SOL    HW115860   6.773   4.810   0.271  1.0723  1.4262 -1.9688
 4987SOL    HW215861   6.851   4.670   0.303  0.8605  1.6458 -0.3724
 4988SOL     OW15862   0.797   6.424   5.334 -0.0340 -0.7839 -0.1198
 4988SOL    HW115863   0.892   6.397   5.319 -0.4009 -1.2873 -1.6407
 4988SOL    HW215864   0.794   6.494   5.405  1.7801  1.3531 -1.9933
 4989SOL     OW15865   3.222   6.825   6.542 -0.5187  0.4082 -0.3812
 4989SOL    HW115866   3.147   6.791   6.485  1.2459 -1.0588 -1.9441
 4989SOL    HW215867   3.222   6.776   6.629 -1.6400  0.7739 -0.1568
 4990SOL     OW15868   1.044   3.113   1.835 -0.7239  0.4085  0.1257
 4990SOL    HW115869   1.089   3.198   1.807  0.7221 -1.3069 -3.3856
 4990SOL    HW215870   1.111   3.052   1.877 -0.2338 -1.1000 -2.6256
 4991SOL     OW15871   1.984   6.438   2.932 -0.4135  0.4487 -0.2134
 4991SOL    HW115872   1.915   6.442   2.859  1.0473 -0.7182 -1.7436
 4991SOL    HW215873   1.973   6.517   2.993 -2.0833  1.1368 -1.3330
 4992SOL     OW15874   1.176   0.432   0.077 -0.0999  0.2366 -0.2496
 4992SOL    HW115875   1.112   0.506   0.098  0.0347  0.2917 -0.0286
 4992SOL    HW215876   1.268   0.459   0.107 -0.0170  0.0599 -0.3473
 4993SOL     OW15877   1.216   5.650   5.135 -0.2843  0.4469  0.0405
 4993SOL    HW115878   1.311   5.654   5.103 -1.1509 -0.1310 -2.8674
 4993SOL    HW215879   1.188   5.742   5.164  1.1089  0.6321  0.9263
 4994SOL     OW15880   0.300   3.581   3.333  0.3292  0.1666  0.0732
 4994SOL    HW115881   0.372   3.531   3.284 -0.9502 -0.7478 -0.9464
 4994SOL    HW215882   0.270   3.659   3.277 -0.8396 -0.6285 -0.4306
 4995SOL     OW15883   4.135   0.065   0.953  0.2920 -0.1718  0.1756
 4995SOL    HW115884   4.193  -0.002   1.000  0.2996  0.0007  0.4173
 4995SOL    HW215885   4.109   0.137   1.018  0.0150 -0.1158  0.0038
 4996SOL     OW15886   2.450   0.496   1.244 -0.4254  0.4817 -0.4085
 4996SOL    HW115887   2.365   0.542   1.268 -1.5881 -0.9360 -1.5783
 4996SOL    HW215888   2.449   0.403   1.279 -0.8771 -0.6510 -3.1409
 4997SOL     OW15889   5.319   4.029   2.600 -0.6801  0.2684 -0.7440
 4997SOL    HW115890   5.414   4.051   2.620  0.0995 -2.1957 -1.4376
 4997SOL    HW215891   5.283   3.969   2.672 -0.5197 -1.7308 -2.2571
 4998SOL     OW15892   1.855   6.420   3.236  0.0853 -0.2501  0.3305
 4998SOL    HW115893   1.889   6.492   3.297  0.3333  0.3775 -0.5243
 4998SOL    HW215894   1.755   6.424   3.233  0.1072  2.3086 -2.2218
 4999SOL     OW15895   5.000   4.475   6.405  0.2462  0.6802 -0.2087
 4999SOL    HW115896   5.070   4.448   6.339 -0.4425  1.2249 -1.1966
 4999SOL    HW215897   4.931   4.404   6.412 -1.4964  1.9744 -2.7101
 5000SOL     OW15898   1.895   5.763   2.752 -0.2647  0.4578 -0.4348
 5000SOL    HW115899   1.864   5.800   2.664  1.1840  0.9577 -0.7550
 5000SOL    HW215900   1.870   5.826   2.826 -2.6292 -0.5570 -0.2688
 5001SOL     OW15901   1.296   0.914   6.698 -0.0748 -0.2715  0.0026
 5001SOL    HW115902   1.264   0.823   6.724  1.0047 -0.4427  0.7907
 5001SOL    HW215903   1.251   0.982   6.755  1.3650 -0.5610  1.5837
 5002SOL     OW15904   2.142   6.877   2.020  0.4050  0.1413  0.6112
 5002SOL    HW115905   2.063   6.816   2.019 -0.0563  0.6648 -2.1296
 5002SOL    HW215906   2.217   6.836   1.968  0.2183  1.6775 -0.9587
 5003SOL     OW15907   3.092   0.433   2.207  0.0595  0.5139 -0.1041
 5003SOL    HW115908   3.133   0.523   2.222  2.1840 -0.3481 -0.3663
 5003SOL    HW215909   3.162   0.362   2.219 -1.5299 -1.1146  0.0049
 5004SOL     OW15910   0.781   2.606   2.737  0.0702 -0.2877  0.3708
 5004SOL    HW115911   0.706   2.575   2.796 -0.0125 -1.1672 -0.1785
 5004SOL    HW215912   0.869   2.578   2.777  0.0230 -0.7122  0.1823
 5005SOL     OW15913   3.876   1.128   2.978  0.6067  0.6917 -0.5684
 5005SOL    HW115914   3.930   1.211   2.967  1.4136  0.7467  2.6225
 5005SOL    HW215915   3.825   1.133   3.064 -1.1430 -1.1685 -1.4260
 5006SOL     OW15916   6.691   3.671   3.229  0.5083  0.0203  0.0708
 5006SOL    HW115917   6.753   3.747   3.212  0.2442 -0.0175 -1.1601
 5006SOL    HW215918   6.601   3.693   3.191  0.0293 -0.3171  0.9846
 5007SOL     OW15919   6.519   5.037   2.051 -0.3197  0.5210 -0.1948
 5007SOL    HW115920   6.472   4.949   2.062 -1.9604  1.3148 -0.5341
 5007SOL    HW215921   6.587   5.048   2.123 -2.1973  0.2626  1.7077
 5008SOL     OW15922   2.975   2.559   6.737 -0.8504 -0.3430 -0.1955
 5008SOL    HW115923   3.021   2.610   6.664 -1.4449  0.1049 -0.2696
 5008SOL    HW215924   3.023   2.573   6.823 -0.8437  0.1230 -0.2733
 5009SOL     OW15925   2.076   0.324   5.518 -0.3639  0.0380 -0.4282
 5009SOL    HW115926   2.066   0.264   5.597  1.6062  0.0212 -0.1272
 5009SOL    HW215927   1.988   0.335   5.472 -1.7468  0.6860  2.2123
 5010SOL     OW15928   2.375   6.598   6.710 -0.4713  0.1266  0.8141
 5010SOL    HW115929   2.299   6.621   6.649 -0.8300 -1.7220  0.4970
 5010SOL    HW215930   2.454   6.570   6.656 -0.0169  0.6738  1.1784
 5011SOL     OW15931   1.277   3.647   6.855 -0.5306  0.0829  0.3450
 5011SOL    HW115932   1.190   3.659   6.904 -0.3828  0.1728  0.5884
 5011SOL    HW215933   1.353   3.665   6.918 -0.3000 -1.7025  0.6197
 5012SOL     OW15934   1.612   1.135   6.905 -0.1013  0.4174  0.5412
 5012SOL    HW115935   1.586   1.125   7.001 -1.3945 -0.0062  0.1762
 5012SOL    HW215936   1.647   1.047   6.871 -0.2884  0.3779  0.4495
 5013SOL     OW15937   3.869   3.711   5.683  0.0086  0.2347  0.6544
 5013SOL    HW115938   3.864   3.719   5.782  0.0830 -0.2665  0.7000
 5013SOL    HW215939   3.868   3.614   5.657  1.8640  0.2865  0.2620
 5014SOL     OW15940   3.324   4.096   5.138 -0.1163  0.1622 -0.0027
 5014SOL    HW115941   3.290   4.159   5.207 -0.5403  1.5477 -1.4037
 5014SOL    HW215942   3.246   4.059   5.086  0.0971 -1.7859  0.9710
 5015SOL     OW15943   6.053   0.449   3.708 -0.1394  1.1023 -0.1512
 5015SOL    HW115944   6.032   0.479   3.801 -0.0389  1.7772 -0.3409
 5015SOL    HW215945   5.980   0.389   3.675 -1.6081  3.0440 -0.6317
 5016SOL     OW15946   5.989   5.976   6.698  0.0300 -0.3686 -0.4714
 5016SOL    HW115947   5.920   5.931   6.641 -0.5036 -0.3009  0.1126
 5016SOL    HW215948   5.948   6.003   6.785  0.8997 -0.7400  0.0733
 5017SOL     OW15949   2.702   2.387   4.075  0.2853 -0.0658  0.1751
 5017SOL    HW115950   2.687   2.346   4.165 -1.8472 -0.7702 -0.4480
 5017SOL    HW215951   2.634   2.457   4.057 -0.2222 -0.9159 -1.4354
 5018SOL     OW15952   2.212   0.653   6.821  0.3678  0.4649 -0.0324
 5018SOL    HW115953   2.297   0.656   6.873  1.5175 -1.3301 -1.6480
 5018SOL    HW215954   2.200   0.739   6.771  1.9107  0.3384 -0.7053
 5019SOL     OW15955   6.378   6.968   4.422  0.3585 -0.5732 -0.3808
 5019SOL    HW115956   6.478   6.970   4.425  0.4901 -0.5491 -2.7516
 5019SOL    HW215957   6.343   6.940   4.512  2.3391  1.7624  1.2630
 5020SOL     OW15958   5.840   6.769   1.437 -0.0880 -0.1301 -0.3512
 5020SOL    HW115959   5.837   6.864   1.409  0.0760  0.1499  0.5368
 5020SOL    HW215960   5.778   6.715   1.381 -0.4167  0.5524 -0.6515
 5021SOL     OW15961   0.360   1.954   4.229  1.1098  0.4349 -0.3516
 5021SOL    HW115962   0.297   1.984   4.301  0.9459  0.5059 -0.5237
 5021SOL    HW215963   0.397   1.865   4.252  1.2424  0.5638 -0.0618
 5022SOL     OW15964   6.043   0.200   4.431 -0.3929  0.5835 -0.4693
 5022SOL    HW115965   6.112   0.251   4.482  0.7851  0.2828 -1.6895
 5022SOL    HW215966   6.082   0.169   4.344 -1.1221 -2.1822  0.0990
 5023SOL     OW15967   5.562   0.923   4.143  0.0583 -0.0393 -0.3333
 5023SOL    HW115968   5.568   0.826   4.168 -0.9205 -0.4085 -1.3965
 5023SOL    HW215969   5.623   0.940   4.065 -0.4383 -0.0262 -0.7263
 5024SOL     OW15970   1.357   5.169   5.297 -0.2660 -0.1704  0.2557
 5024SOL    HW115971   1.305   5.254   5.283  0.1750  0.1687  0.6369
 5024SOL    HW215972   1.303   5.091   5.265 -1.1001  0.1460  0.8611
 5025SOL     OW15973   1.521   0.379   2.680 -0.4100 -0.6669  0.5406
 5025SOL    HW115974   1.506   0.461   2.737  1.1708  0.6157 -0.8068
 5025SOL    HW215975   1.444   0.369   2.617 -0.1459  0.4051  0.0191
 5026SOL     OW15976   1.783   6.604   5.692 -0.4251 -0.0718  0.1468
 5026SOL    HW115977   1.865   6.588   5.637 -2.2469  0.0635 -2.8462
 5026SOL    HW215978   1.764   6.702   5.695 -3.0096 -0.2862 -3.4819
 5027SOL     OW15979   1.244   5.470   1.571  0.5569  0.2728 -0.4927
 5027SOL    HW115980   1.235   5.371   1.574  0.5858  0.3019  1.4418
 5027SOL    HW215981   1.319   5.494   1.509  2.3337 -1.0844  0.9934
 5028SOL     OW15982   6.515   5.535   4.658 -0.2245 -0.4150 -0.6037
 5028SOL    HW115983   6.468   5.592   4.590  0.9975  0.7045 -0.5460
 5028SOL    HW215984   6.614   5.542   4.646  0.0233 -0.4060  1.1070
 5029SOL     OW15985   1.508   4.593   3.894  0.3834 -0.6303  0.4367
 5029SOL    HW115986   1.542   4.592   3.988 -2.1760  0.2633  1.4656
 5029SOL    HW215987   1.448   4.514   3.880  0.2413 -0.4038 -0.2653
 5030SOL     OW15988   3.822   5.072   1.842 -0.3941 -0.5617 -0.4515
 5030SOL    HW115989   3.776   5.048   1.928 -1.0677  1.4488 -0.1937
 5030SOL    HW215990   3.801   5.003   1.773 -3.0404 -0.2637 -0.0517
 5031SOL     OW15991   0.571   4.208   6.992  0.2864 -0.1920 -0.0751
 5031SOL    HW115992   0.661   4.248   6.977  0.6441 -1.4911 -1.6756
 5031SOL    HW215993   0.503   4.258   6.939  0.5844 -1.0839 -1.3339
 5032SOL     OW15994   0.765   1.740   3.034 -0.0836 -0.2516 -0.0838
 5032SOL    HW115995   0.762   1.803   2.957 -0.9799 -0.4785 -0.2451
 5032SOL    HW215996   0.839   1.674   3.020  0.2823  0.2037 -0.3422
 5033SOL     OW15997   1.227   0.368   4.902 -0.3088  0.3426 -0.6968
 5033SOL    HW115998   1.206   0.283   4.852 -2.7216  0.3168  0.2323
 5033SOL    HW215999   1.223   0.445   4.838  2.7342 -0.2171 -1.7319
 5034SOL     OW16000   5.184   1.880   6.833  0.3404 -0.0658  0.5635
 5034SOL    HW116001   5.263   1.885   6.772 -0.1200 -0.4736 -0.0762
 5034SOL    HW216002   5.119   1.813   6.799 -0.1882  0.1021  1.2041
 5035SOL     OW16003   0.140   5.182   6.258 -0.3262  0.0387 -0.0416
 5035SOL    HW116004   0.235   5.200   6.284 -0.3902  1.1719 -0.5446
 5035SOL    HW216005   0.138   5.108   6.190  0.0140 -1.3558  1.3996
 5036SOL     OW16006   5.195   0.913   6.717 -0.1080 -0.6470  0.0719
 5036SOL    HW116007   5.253   0.992   6.700 -1.6088  0.8252  1.4646
 5036SOL    HW216008   5.252   0.831   6.726  1.3886 -0.0126 -2.6354
 5037SOL     OW16009   1.608   1.190   3.795 -0.2600 -0.6081  0.0311
 5037SOL    HW116010   1.582   1.287   3.791  0.2864 -0.4680 -0.1663
 5037SOL    HW216011   1.611   1.160   3.890 -0.9992 -0.5917  0.0699
 5038SOL     OW16012   2.319   4.851   5.975 -0.0188 -0.1306  0.2008
 5038SOL    HW116013   2.392   4.850   5.906  2.0094  0.1327  2.2069
 5038SOL    HW216014   2.328   4.771   6.034  0.0497  1.0103  1.8018
 5039SOL     OW16015   5.257   1.510   4.549 -0.6999 -0.2285  0.5499
 5039SOL    HW116016   5.298   1.441   4.609  0.6334 -0.9749 -1.1348
 5039SOL    HW216017   5.171   1.475   4.513 -0.4146 -0.7087  0.3186
 5040SOL     OW16018   4.892   1.707   0.142 -0.2848  0.0224 -0.6534
 5040SOL    HW116019   4.961   1.766   0.100 -0.6378  0.3226 -0.8224
 5040SOL    HW216020   4.857   1.749   0.225 -0.0290 -0.2835 -0.3903
 5041SOL     OW16021   2.199   6.588   4.952 -0.4478  0.5158  0.2703
 5041SOL    HW116022   2.172   6.656   5.020 -2.3112 -0.2673  0.3586
 5041SOL    HW216023   2.264   6.524   4.993 -0.8408  0.6001  1.0415
 5042SOL     OW16024   1.226   5.050   6.251 -0.1849 -0.0789 -0.3080
 5042SOL    HW116025   1.214   5.095   6.163  0.4741  0.3364 -0.1905
 5042SOL    HW216026   1.301   4.984   6.245 -0.7220 -0.7006 -0.2996
 5043SOL     OW16027   5.405   3.322   2.736 -0.0039 -0.0028  0.1473
 5043SOL    HW116028   5.497   3.308   2.773  0.5680  1.1217 -0.7807
 5043SOL    HW216029   5.371   3.236   2.698  2.1196  0.2453 -2.6326
 5044SOL     OW16030   6.276   5.959   4.379  0.1353  0.3075 -0.4865
 5044SOL    HW116031   6.198   5.896   4.383  0.1300  0.3312 -0.2055
 5044SOL    HW216032   6.244   6.050   4.356  0.1911  0.1254 -1.3148
 5045SOL     OW16033   0.364   3.262   1.152 -0.8901 -0.0535  0.3729
 5045SOL    HW116034   0.444   3.300   1.105  0.0967 -1.5976  0.6934
 5045SOL    HW216035   0.340   3.174   1.111 -1.0827 -0.6194  1.6342
 5046SOL     OW16036   0.367   2.387   0.160 -0.4691 -0.9182  0.3255
 5046SOL    HW116037   0.437   2.316   0.170 -2.3100 -2.5453  2.5419
 5046SOL    HW216038   0.304   2.362   0.086 -0.0927 -0.6438 -0.0952
 5047SOL     OW16039   3.796   5.175   0.662 -0.3261  0.4788 -0.6734
 5047SOL    HW116040   3.724   5.113   0.632  0.5590 -0.4019 -1.0469
 5047SOL    HW216041   3.769   5.270   0.645 -2.4733  0.3544  1.5701
 5048SOL     OW16042   1.358   3.823   4.103 -0.4396 -0.1555 -0.1047
 5048SOL    HW116043   1.265   3.848   4.076 -0.3611 -0.0740 -0.3033
 5048SOL    HW216044   1.388   3.883   4.178 -0.7511 -0.5510  0.3391
 5049SOL     OW16045   4.819   2.792   5.873  0.0110  0.0619  0.1289
 5049SOL    HW116046   4.896   2.835   5.919 -0.3642  0.3790  0.4702
 5049SOL    HW216047   4.738   2.794   5.932 -0.0042 -1.1841  0.1873
 5050SOL     OW16048   6.960   7.007   4.897 -0.1669  0.5077 -0.2712
 5050SOL    HW116049   6.897   7.080   4.871  0.2390  0.7846 -0.4870
 5050SOL    HW216050   6.975   6.947   4.818  0.6383  1.0341 -0.5247
 5051SOL     OW16051   3.823   2.936   3.618 -0.5511 -0.2832 -0.1139
 5051SOL    HW116052   3.899   2.974   3.566 -1.8282 -0.1597 -2.0082
 5051SOL    HW216053   3.744   2.926   3.557 -2.5726  1.1535  2.1358
 5052SOL     OW16054   0.381   4.527   3.351  0.3274  0.0860 -0.1308
 5052SOL    HW116055   0.383   4.481   3.440  2.4481 -0.2204 -0.2964
 5052SOL    HW216056   0.467   4.511   3.303 -0.5079  0.8260 -1.9672
 5053SOL     OW16057   5.619   2.429   6.208  0.0260  0.2110  0.2908
 5053SOL    HW116058   5.534   2.377   6.201 -0.5479  1.2031 -0.3107
 5053SOL    HW216059   5.678   2.386   6.277 -0.8924 -0.5668  0.6275
 5054SOL     OW16060   5.645   6.223   3.104 -0.5318 -0.1194  0.1714
 5054SOL    HW116061   5.662   6.230   3.202 -0.9037  0.6088  0.1915
 5054SOL    HW216062   5.732   6.223   3.054 -0.3814  1.4203  0.3956
 5055SOL     OW16063   4.692   1.594   6.972  0.2024 -0.5489  0.2555
 5055SOL    HW116064   4.665   1.641   6.888 -1.3344  0.4240  1.2573
 5055SOL    HW216065   4.758   1.651   7.022 -2.6702  1.3558  2.1418
 5056SOL     OW16066   0.404   4.956   3.095 -0.2848  0.0398 -0.3058
 5056SOL    HW116067   0.338   5.029   3.078  0.4874  1.3252  1.7981
 5056SOL    HW216068   0.385   4.879   3.035 -0.7106  2.1926 -3.1089
 5057SOL     OW16069   5.284   5.117   3.081 -0.1075 -0.6909  0.4427
 5057SOL    HW116070   5.320   5.151   3.168 -0.3800 -0.9695  0.6639
 5057SOL    HW216071   5.188   5.092   3.092  0.0096 -1.2529  0.2034
 5058SOL     OW16072   3.475   3.346   5.676  0.1817 -0.0926 -0.2737
 5058SOL    HW116073   3.476   3.270   5.610 -0.9394 -0.4120  0.0646
 5058SOL    HW216074   3.499   3.431   5.628  1.6304 -0.6657 -0.6189
 5059SOL     OW16075   0.970   5.544   0.651 -0.1044  0.0586 -0.1229
 5059SOL    HW116076   0.974   5.467   0.588  0.8101 -0.8977  1.0640
 5059SOL    HW216077   0.939   5.512   0.741  0.0546  1.1202  0.3243
 5060SOL     OW16078   2.517   2.452   4.489 -0.1410 -0.1281  0.7070
 5060SOL    HW116079   2.616   2.443   4.479 -0.0173  1.4431  0.3386
 5060SOL    HW216080   2.475   2.361   4.489  1.0964 -0.7489 -1.2732
 5061SOL     OW16081   1.468   0.670   6.022  0.1038 -0.6985  0.1819
 5061SOL    HW116082   1.515   0.622   5.947 -1.1167 -0.4582 -0.7710
 5061SOL    HW216083   1.446   0.763   5.993 -0.7435 -0.7355  0.6974
 5062SOL     OW16084   6.321   2.346   3.359 -0.5853 -0.4876  0.6377
 5062SOL    HW116085   6.401   2.291   3.386 -0.0538  0.6725  1.5120
 5062SOL    HW216086   6.238   2.303   3.394 -0.5920 -2.6410 -1.6943
 5063SOL     OW16087   0.124   6.773   2.656  0.4798 -0.4113  0.2839
 5063SOL    HW116088   0.068   6.707   2.706 -0.5311 -0.0614 -0.3532
 5063SOL    HW216089   0.128   6.746   2.559  0.2493  0.3297  0.0620
 5064SOL     OW16090   0.211   5.641   2.984 -0.0497 -0.2623 -0.2838
 5064SOL    HW116091   0.247   5.564   3.038 -0.6273 -0.6162 -0.3891
 5064SOL    HW216092   0.222   5.621   2.887  2.5697  1.1233 -0.3598
 5065SOL     OW16093   4.365   5.510   3.251  0.2787 -0.1332  0.7184
 5065SOL    HW116094   4.439   5.489   3.187 -0.4442 -0.3775 -0.0569
 5065SOL    HW216095   4.381   5.463   3.338  0.0090 -1.8698 -0.1267
 5066SOL     OW16096   5.509   4.148   3.665 -0.0220  0.0184 -0.0753
 5066SOL    HW116097   5.476   4.092   3.740  0.2106  0.3556  0.2837
 5066SOL    HW216098   5.604   4.126   3.645  0.0601  0.2589  0.0450
 5067SOL     OW16099   1.815   1.288   3.647 -0.3342 -0.4446  0.5495
 5067SOL    HW116100   1.743   1.242   3.699 -0.3187  0.1938  1.1528
 5067SOL    HW216101   1.795   1.386   3.643  0.0848 -0.3795  0.0246
 5068SOL     OW16102   5.523   4.949   4.015 -0.3379  0.3065 -0.2490
 5068SOL    HW116103   5.433   4.909   4.033 -0.8523  1.8443  0.7532
 5068SOL    HW216104   5.523   4.993   3.926 -0.6114  0.3946 -0.2056
 5069SOL     OW16105   0.651   6.505   5.123 -0.0480 -0.0073 -0.3762
 5069SOL    HW116106   0.693   6.455   5.198 -0.4405 -1.3241 -0.9902
 5069SOL    HW216107   0.556   6.475   5.112  0.2442 -0.4673 -1.9091
 5070SOL     OW16108   6.373   5.550   5.814 -0.2292  0.2169 -0.4999
 5070SOL    HW116109   6.424   5.533   5.730  0.0648  0.8798 -0.4569
 5070SOL    HW216110   6.324   5.637   5.807  0.3669  0.6298  0.2764
 5071SOL     OW16111   6.050   3.476   0.380  0.1185 -0.1974  0.0604
 5071SOL    HW116112   6.004   3.515   0.301  0.7776  0.6814  0.0984
 5071SOL    HW216113   6.130   3.425   0.350  1.0494  1.1257  0.2200
 5072SOL     OW16114   2.667   2.425   3.157 -0.0843 -0.4644  0.5365
 5072SOL    HW116115   2.617   2.338   3.158 -0.4482 -0.2607  1.8716
 5072SOL    HW216116   2.762   2.409   3.186 -0.2901 -0.3584  1.3025
 5073SOL     OW16117   1.853   4.865   6.842 -0.2873  0.7699  0.2581
 5073SOL    HW116118   1.785   4.806   6.886 -0.0387  0.0230 -0.3302
 5073SOL    HW216119   1.922   4.808   6.797  0.6901  1.5157  0.7765
 5074SOL     OW16120   2.245   2.476   6.313  0.2892  0.8600  0.8500
 5074SOL    HW116121   2.301   2.411   6.365  1.3477 -0.0838 -1.3108
 5074SOL    HW216122   2.296   2.507   6.232 -1.1406  2.4871  0.5112
 5075SOL     OW16123   2.074   1.784   3.373 -0.7060 -0.1566 -0.5237
 5075SOL    HW116124   2.096   1.796   3.276 -1.0968  0.5189 -0.5388
 5075SOL    HW216125   2.154   1.804   3.428 -1.1873  2.2151 -0.5765
 5076SOL     OW16126   4.314   5.800   1.522 -0.1873  0.3577  0.1675
 5076SOL    HW116127   4.332   5.703   1.511  0.3600  0.3988  0.6453
 5076SOL    HW216128   4.239   5.814   1.587 -1.0103  0.2293 -0.7338
 5077SOL     OW16129   1.010   4.032   1.783 -0.4514 -0.9515  0.2954
 5077SOL    HW116130   1.023   4.115   1.729  1.6981 -1.9928 -0.8944
 5077SOL    HW216131   0.983   4.058   1.876 -1.6474  0.9750 -0.5115
 5078SOL     OW16132   0.585   0.769   5.246 -0.0189  0.5988  0.6962
 5078SOL    HW116133   0.660   0.816   5.293 -0.2444  0.2935  1.3650
 5078SOL    HW216134   0.500   0.783   5.295 -0.2730  0.3296  0.3400
 5079SOL     OW16135   0.195   6.344   0.112  0.7176 -0.4943  0.0191
 5079SOL    HW116136   0.263   6.416   0.098  1.3313 -1.3035 -1.4539
 5079SOL    HW216137   0.198   6.280   0.035 -2.1994 -0.2031 -0.4609
 5080SOL     OW16138   2.520   4.846   5.781 -0.1037 -0.6301 -0.2644
 5080SOL    HW116139   2.522   4.802   5.691  2.0776 -1.3089  0.0798
 5080SOL    HW216140   2.559   4.938   5.774  0.2691 -0.7652  0.0185
 5081SOL     OW16141   2.328   0.515   6.359 -0.5363  0.5189  0.6543
 5081SOL    HW116142   2.257   0.523   6.429 -1.0911  2.4943 -0.0841
 5081SOL    HW216143   2.372   0.603   6.346  0.0815  0.0009 -0.9540
 5082SOL     OW16144   0.499   4.841   0.397  0.5119 -0.2495  0.0318
 5082SOL    HW116145   0.505   4.750   0.438  1.7622 -0.8500 -1.3546
 5082SOL    HW216146   0.570   4.900   0.436 -1.4153  0.7507  2.2270
 5083SOL     OW16147   6.882   6.018   1.698  0.0431  0.0576  0.1940
 5083SOL    HW116148   6.873   5.919   1.707  1.1978 -0.0081  0.7917
 5083SOL    HW216149   6.835   6.048   1.615 -0.2969 -0.9848 -0.0128
 5084SOL     OW16150   5.661   5.235   3.552  0.1940 -0.1770 -0.1357
 5084SOL    HW116151   5.664   5.335   3.549  1.1365 -0.1650  0.8976
 5084SOL    HW216152   5.693   5.203   3.640 -1.2736 -1.3721  0.0073
 5085SOL     OW16153   5.493   5.662   5.733 -0.4633 -0.2106  0.5283
 5085SOL    HW116154   5.473   5.759   5.742 -1.1949 -0.2563 -0.4862
 5085SOL    HW216155   5.430   5.620   5.668 -0.5591 -1.4997  1.4109
 5086SOL     OW16156   1.620   1.330   1.593  0.1545  0.1548  0.1889
 5086SOL    HW116157   1.550   1.269   1.557  0.8655  0.2081 -1.4019
 5086SOL    HW216158   1.705   1.279   1.607  0.8890  0.7824 -1.5865
 5087SOL     OW16159   1.248   5.211   4.751  0.3154  0.4645  0.2157
 5087SOL    HW116160   1.269   5.288   4.811 -0.0717  0.5764  0.2091
 5087SOL    HW216161   1.326   5.195   4.690  0.9358 -0.0126  1.1137
 5088SOL     OW16162   3.208   1.252   2.423  0.8430  0.6334  0.5552
 5088SOL    HW116163   3.262   1.324   2.379  0.4656  0.4393 -0.2497
 5088SOL    HW216164   3.262   1.168   2.428  0.0491 -0.1236 -1.9711
 5089SOL     OW16165   6.490   6.841   2.718 -0.5182 -0.0972 -0.3772
 5089SOL    HW116166   6.558   6.900   2.676 -2.1202  1.6742 -0.6493
 5089SOL    HW216167   6.458   6.773   2.652  0.8430 -0.8710 -0.2770
 5090SOL     OW16168   0.076   2.065   5.904  0.3231 -0.3082  0.2406
 5090SOL    HW116169   0.093   2.070   5.805  0.4308 -0.6375  0.2418
 5090SOL    HW216170  -0.020   2.084   5.922  0.3286 -0.1225  0.0838
 5091SOL     OW16171   1.660   7.012   4.564  0.3805  0.1528 -0.0062
 5091SOL    HW116172   1.607   6.949   4.507  0.0749  0.4592 -0.0712
 5091SOL    HW216173   1.620   7.014   4.656  1.2887 -0.8609  0.4297
 5092SOL     OW16174   6.432   4.405   1.918 -0.0211  0.1227 -0.1343
 5092SOL    HW116175   6.369   4.378   1.845 -1.3654  1.6051  0.4200
 5092SOL    HW216176   6.495   4.476   1.884 -0.2701  0.3998 -0.0230
 5093SOL     OW16177   0.232   5.213   1.320  0.2387 -0.2847  0.0348
 5093SOL    HW116178   0.212   5.275   1.397  1.1547  2.3229 -1.6717
 5093SOL    HW216179   0.246   5.121   1.355 -1.4948  0.3405  2.7303
 5094SOL     OW16180   3.777   4.726   6.276 -0.1204  0.6840 -0.0823
 5094SOL    HW116181   3.837   4.647   6.273  1.3903  1.7419  1.0348
 5094SOL    HW216182   3.681   4.695   6.273  0.4118 -1.2097  1.0621
 5095SOL     OW16183   3.919   0.613   4.310  0.3330 -0.1424  0.4349
 5095SOL    HW116184   3.940   0.653   4.399 -2.0392 -0.8949  1.4116
 5095SOL    HW216185   3.820   0.611   4.296  0.5873 -0.9510 -1.8127
 5096SOL     OW16186   2.897   6.669   5.569  0.0586 -0.1307  0.0226
 5096SOL    HW116187   2.806   6.697   5.538 -0.6317 -1.2721  0.9377
 5096SOL    HW216188   2.965   6.694   5.499 -1.2602 -1.4951 -1.8409
 5097SOL     OW16189   6.616   1.926   0.472  0.4863 -0.1552  0.2604
 5097SOL    HW116190   6.699   1.879   0.442  0.3677  0.6671 -1.4349
 5097SOL    HW216191   6.612   2.018   0.432 -1.3320 -0.2445  0.1243
 5098SOL     OW16192   3.710   4.422   0.210  0.1818  0.2549 -0.2517
 5098SOL    HW116193   3.619   4.381   0.213  1.0668 -1.7609  1.6076
 5098SOL    HW216194   3.723   4.480   0.290  0.3529  1.0198 -0.8199
 5099SOL     OW16195   3.504   5.749   1.311  0.4068 -0.2760 -0.2146
 5099SOL    HW116196   3.450   5.819   1.266  1.5776 -0.0248 -1.2705
 5099SOL    HW216197   3.573   5.713   1.248  0.8412 -1.2769  0.7819
 5100SOL     OW16198   5.530   3.415   3.991  0.6162  0.2261 -0.0853
 5100SOL    HW116199   5.508   3.368   3.906 -0.6195  1.2662 -0.3694
 5100SOL    HW216200   5.454   3.404   4.056  1.4526 -0.3782  0.8278
 5101SOL     OW16201   6.384   5.566   1.722  0.8165 -0.3952  0.4923
 5101SOL    HW116202   6.339   5.479   1.706  0.5376 -0.3794  1.1748
 5101SOL    HW216203   6.334   5.618   1.791  0.6755  0.5422 -0.2923
 5102SOL     OW16204   6.301   6.485   3.379 -0.7303 -0.7884 -0.4723
 5102SOL    HW116205   6.303   6.408   3.443 -0.8341 -1.9528 -1.8173
 5102SOL    HW216206   6.268   6.453   3.290 -0.2592  0.7069 -1.2134
 5103SOL     OW16207   0.758   3.056   0.831 -0.6073 -0.0734 -0.0223
 5103SOL    HW116208   0.765   2.981   0.765  0.3834 -0.1065  0.0984
 5103SOL    HW216209   0.709   3.024   0.912  1.0750 -1.0740  0.6549
 5104SOL     OW16210   2.366   0.417   0.915  0.0291  0.3874  0.6587
 5104SOL    HW116211   2.444   0.477   0.934  1.3033 -0.8813 -0.2845
 5104SOL    HW216212   2.370   0.388   0.819 -1.7745  0.4933  0.5227
 5105SOL     OW16213   1.863   3.159   5.560 -0.0971 -0.0037 -0.2662
 5105SOL    HW116214   1.775   3.140   5.604 -1.8941 -2.0477 -4.1943
 5105SOL    HW216215   1.928   3.190   5.629 -3.0495 -0.9953  3.3457
 5106SOL     OW16216   0.669   4.411   1.655 -0.3103 -0.0295  0.7649
 5106SOL    HW116217   0.582   4.426   1.701 -1.1240  1.5810 -1.1716
 5106SOL    HW216218   0.654   4.364   1.569  0.6226  0.9549  0.0350
 5107SOL     OW16219   2.010   5.184   1.580 -0.2872 -0.0883  0.5328
 5107SOL    HW116220   2.098   5.156   1.618 -0.3593  1.3650  1.8602
 5107SOL    HW216221   2.024   5.231   1.493  0.2668  0.2482  0.8032
 5108SOL     OW16222   2.929   3.140   0.648 -0.0637  0.6876 -0.2518
 5108SOL    HW116223   2.836   3.176   0.654  0.2051  1.2874  0.4760
 5108SOL    HW216224   2.930   3.047   0.686 -0.4329  0.5271 -0.6179
 5109SOL     OW16225   1.574   5.426   6.022 -0.1287 -0.2853  0.5612
 5109SOL    HW116226   1.594   5.333   6.053 -0.8845 -0.6261  0.0433
 5109SOL    HW216227   1.479   5.448   6.042  0.5605  1.1316  2.5178
 5110SOL     OW16228   4.332   3.600   5.494  0.1213 -0.4369 -0.2067
 5110SOL    HW116229   4.254   3.636   5.545 -1.0169 -3.9913  0.8223
 5110SOL    HW216230   4.319   3.619   5.396 -1.3144  0.2180  0.0824
 5111SOL     OW16231   0.618   0.954   5.884 -0.0971 -0.4923  0.5501
 5111SOL    HW116232   0.711   0.991   5.887 -0.5219  0.6331  0.5382
 5111SOL    HW216233   0.555   1.025   5.851 -1.0692 -0.9861  1.2858
 5112SOL     OW16234   2.410   3.588   1.458 -0.3487 -0.1353 -0.5718
 5112SOL    HW116235   2.442   3.586   1.363 -1.3682 -0.6524 -0.9071
 5112SOL    HW216236   2.318   3.551   1.464 -0.2521 -0.2310  0.6482
 5113SOL     OW16237   1.215   4.703   1.109 -0.2286  0.1494 -0.7254
 5113SOL    HW116238   1.314   4.714   1.112 -0.1421 -0.1886 -1.7972
 5113SOL    HW216239   1.177   4.765   1.040 -0.8973  1.0586  0.4347
 5114SOL     OW16240   0.083   4.484   6.603  0.2902  0.1748 -0.0773
 5114SOL    HW116241   0.014   4.460   6.535  0.0375 -2.7566  1.0576
 5114SOL    HW216242   0.046   4.553   6.666 -0.3774  1.0146 -1.3460
 5115SOL     OW16243   6.771   6.985   0.644  0.5221  0.1671  0.1018
 5115SOL    HW116244   6.835   6.989   0.720  0.2510 -3.4657  0.6901
 5115SOL    HW216245   6.790   6.904   0.588 -1.6192  0.6833 -1.5124
 5116SOL     OW16246   1.699   4.337   2.438  0.5311  0.0969  0.1669
 5116SOL    HW116247   1.664   4.385   2.519 -0.4969  1.7832 -1.2295
 5116SOL    HW216248   1.798   4.328   2.446  0.5368  0.8819  1.2892
 5117SOL     OW16249   6.331   3.868   5.021  0.1078  0.1031 -0.6451
 5117SOL    HW116250   6.343   3.860   4.922 -2.0936 -1.2191 -0.8588
 5117SOL    HW216251   6.377   3.792   5.067 -0.1732 -0.1506 -0.7802
 5118SOL     OW16252   1.019   1.039   2.267 -0.0169  0.2350  0.7716
 5118SOL    HW116253   1.101   0.982   2.273 -0.8002 -0.8432  1.7398
 5118SOL    HW216254   1.008   1.072   2.174  0.9556 -0.4516  0.3952
 5119SOL     OW16255   0.718   5.446   3.305 -0.6352 -0.5740 -0.1152
 5119SOL    HW116256   0.752   5.536   3.332 -2.0108 -0.7962  2.6790
 5119SOL    HW216257   0.794   5.381   3.302  0.3468  0.5516 -2.0013
 5120SOL     OW16258   6.497   6.022   1.830  0.0825  0.5508  0.0477
 5120SOL    HW116259   6.550   6.011   1.746  2.2901  1.1858  1.2626
 5120SOL    HW216260   6.487   6.119   1.851 -1.9533  0.4620 -0.3225
 5121SOL     OW16261   0.052   4.275   4.882 -0.2267 -0.8789  0.1599
 5121SOL    HW116262   0.081   4.320   4.798 -1.1848 -1.8410 -0.7243
 5121SOL    HW216263   0.002   4.191   4.859 -0.7890 -0.9886  1.6813
 5122SOL     OW16264   1.037   5.974   6.716 -0.1655 -0.3695 -0.0294
 5122SOL    HW116265   1.013   6.070   6.731 -0.6837 -0.5668  0.4840
 5122SOL    HW216266   0.956   5.917   6.734  0.1627 -0.9074 -0.2355
 5123SOL     OW16267   5.479   5.778   6.145  0.1468  1.2555  0.3787
 5123SOL    HW116268   5.406   5.757   6.079  1.2833 -0.8481 -0.3117
 5123SOL    HW216269   5.451   5.856   6.201 -2.3372  0.9649 -0.3029
 5124SOL     OW16270   0.691   4.573   5.231  0.2482 -0.4777 -0.2926
 5124SOL    HW116271   0.700   4.670   5.209 -2.4063 -0.1950 -0.4104
 5124SOL    HW216272   0.674   4.562   5.329  0.5315 -0.8288 -0.2794
 5125SOL     OW16273   1.452   0.750   1.312 -0.1047 -0.0102 -0.2577
 5125SOL    HW116274   1.529   0.689   1.297 -0.6785 -1.0578  0.9349
 5125SOL    HW216275   1.453   0.784   1.406 -2.9033 -2.7759  0.9574
 5126SOL     OW16276   2.136   2.008   6.925 -0.7881 -1.1605  0.2784
 5126SOL    HW116277   2.175   2.069   6.994 -0.3817  0.3079 -1.1799
 5126SOL    HW216278   2.208   1.953   6.883 -0.7117 -0.6527 -0.2840
 5127SOL     OW16279   3.381   6.982   4.331  0.6202  0.2668  0.0498
 5127SOL    HW116280   3.374   7.035   4.246 -0.9663  1.1570  0.6777
 5127SOL    HW216281   3.373   6.885   4.310 -1.7248  0.5481 -0.7209
 5128SOL     OW16282   6.497   1.875   4.174  0.3640  0.3244 -0.3628
 5128SOL    HW116283   6.436   1.910   4.102 -0.2040  1.3353  0.5696
 5128SOL    HW216284   6.455   1.795   4.217 -1.0975  1.8911  1.2776
 5129SOL     OW16285   6.752   6.845   4.180  0.1528  0.4984  0.2049
 5129SOL    HW116286   6.757   6.869   4.082 -1.9019  2.0097  0.4126
 5129SOL    HW216287   6.807   6.763   4.196  2.0347  1.2192 -1.8663
 5130SOL     OW16288   5.862   1.726   1.889 -0.0338 -0.1413  0.2497
 5130SOL    HW116289   5.848   1.791   1.814 -0.0664  0.2747  0.6171
 5130SOL    HW216290   5.777   1.676   1.905  0.0100 -0.3277 -0.0757
 5131SOL     OW16291   6.524   1.146   6.526  0.2302 -0.1081  0.0892
 5131SOL    HW116292   6.512   1.229   6.580  1.7867  1.8170 -2.2999
 5131SOL    HW216293   6.616   1.109   6.540  0.3286 -0.1150 -0.5439
 5132SOL     OW16294   4.468   4.185   6.484 -0.2087  0.2016 -0.2639
 5132SOL    HW116295   4.400   4.175   6.412  0.4424  0.4872 -0.9337
 5132SOL    HW216296   4.491   4.282   6.495  1.2836 -0.0141 -1.1940
 5133SOL     OW16297   0.873   3.000   5.091 -0.0943 -0.5794  0.0676
 5133SOL    HW116298   0.959   3.024   5.046 -0.7117 -1.3939 -1.6660
 5133SOL    HW216299   0.869   2.901   5.104 -1.3137 -0.7279 -1.1647
 5134SOL     OW16300   4.911   4.759   6.418  0.3778 -0.3923  0.3064
 5134SOL    HW116301   4.920   4.660   6.422 -0.1075 -0.5886 -1.8311
 5134SOL    HW216302   4.829   4.783   6.366  0.7834  1.1211  0.2929
 5135SOL     OW16303   3.903   5.411   3.156 -0.1071  1.2665  0.1862
 5135SOL    HW116304   3.848   5.403   3.239  0.1926 -0.3170  0.2594
 5135SOL    HW216305   3.929   5.320   3.124  0.4109  1.8799 -1.2330
 5136SOL     OW16306   3.411   5.115   1.940  0.0478 -0.2756  0.6142
 5136SOL    HW116307   3.402   5.022   1.975 -1.3277 -0.5389 -0.3663
 5136SOL    HW216308   3.489   5.160   1.984  0.5238 -1.7652  1.3520
 5137SOL     OW16309   6.447   6.498   0.106 -0.2621  0.5991 -0.1384
 5137SOL    HW116310   6.474   6.533   0.016 -1.9661 -1.8281 -1.7131
 5137SOL    HW216311   6.457   6.399   0.108 -0.6634  0.5398  2.2596
 5138SOL     OW16312   1.340   4.059   5.341  0.0202  0.1092 -0.0092
 5138SOL    HW116313   1.277   4.112   5.285 -2.4009 -0.2632  2.1504
 5138SOL    HW216314   1.330   3.962   5.319 -0.7306 -0.0122  0.8102
 5139SOL     OW16315   5.740   2.766   4.802 -0.1569 -0.0324 -0.3033
 5139SOL    HW116316   5.757   2.845   4.742  1.1947  1.0099  1.3777
 5139SOL    HW216317   5.646   2.736   4.791  0.0699 -0.0278 -3.0879
 5140SOL     OW16318   6.711   3.867   6.697 -0.0919 -0.2020  0.1373
 5140SOL    HW116319   6.630   3.923   6.679 -1.2152 -0.9744  2.4089
 5140SOL    HW216320   6.691   3.771   6.673  1.1102 -0.0335 -1.7738
 5141SOL     OW16321   3.657   0.409   1.842  0.8230 -0.1962  0.2975
 5141SOL    HW116322   3.638   0.413   1.940  2.9179  1.1142  0.7139
 5141SOL    HW216323   3.599   0.474   1.794 -0.4546 -1.0814  0.5751
 5142SOL     OW16324   2.152   2.516   4.423  0.1659  0.0175 -0.3099
 5142SOL    HW116325   2.076   2.580   4.430  0.0965 -0.0233 -0.7055
 5142SOL    HW216326   2.213   2.529   4.502 -1.0795 -1.0299  0.8707
 5143SOL     OW16327   0.973   4.699   2.073  0.0845  0.2332 -0.2614
 5143SOL    HW116328   1.001   4.699   1.977  1.5348  0.9823  0.1383
 5143SOL    HW216329   1.019   4.624   2.121 -0.6950 -0.1875 -0.1573
 5144SOL     OW16330   0.519   5.754   6.529  0.4108 -0.1875 -0.1682
 5144SOL    HW116331   0.541   5.701   6.610 -0.9145 -1.6014 -0.6882
 5144SOL    HW216332   0.422   5.743   6.506  0.9591 -0.7787 -2.5679
 5145SOL     OW16333   1.464   6.704   2.363 -0.4547 -0.2045  0.1791
 5145SOL    HW116334   1.452   6.607   2.384  0.2549 -0.1334  0.9755
 5145SOL    HW216335   1.448   6.758   2.446 -1.8595  0.4585 -0.4913
 5146SOL     OW16336   0.181   1.427   0.442  0.5262  0.1500  0.6520
 5146SOL    HW116337   0.134   1.514   0.431  0.3379  0.1681  1.5171
 5146SOL    HW216338   0.169   1.372   0.360  3.7692  2.3591 -1.5671
 5147SOL     OW16339   3.240   5.213   6.263 -0.3647  0.1020  0.1586
 5147SOL    HW116340   3.276   5.175   6.348  0.3548  1.6260  0.5772
 5147SOL    HW216341   3.181   5.291   6.283 -0.7636  0.0397 -0.7129
 5148SOL     OW16342   4.587   4.940   2.256  0.3396  0.2827  0.1416
 5148SOL    HW116343   4.623   5.015   2.199 -0.9147  1.5779  0.9920
 5148SOL    HW216344   4.600   4.963   2.352 -0.3373 -0.4668  0.4172
 5149SOL     OW16345   5.826   0.480   2.247 -0.7125 -0.4417 -0.0967
 5149SOL    HW116346   5.905   0.469   2.188 -1.4195  0.9785 -1.3808
 5149SOL    HW216347   5.747   0.434   2.206 -0.5834 -1.9862  1.2507
 5150SOL     OW16348   0.204   4.481   3.626 -0.3495 -0.0388 -0.1966
 5150SOL    HW116349   0.285   4.517   3.673 -0.2156  1.2503 -1.3741
 5150SOL    HW216350   0.181   4.392   3.665  0.7135  0.2550  1.2020
 5151SOL     OW16351   1.814   2.454   1.201 -0.1353  0.4408  0.0254
 5151SOL    HW116352   1.899   2.473   1.154 -0.8138  0.6994 -1.1425
 5151SOL    HW216353   1.755   2.535   1.198 -0.6859  0.0540  0.2377
 5152SOL     OW16354   6.505   3.552   0.697 -0.2457 -0.4470 -0.1210
 5152SOL    HW116355   6.547   3.505   0.775  0.2834 -0.1875 -0.2430
 5152SOL    HW216356   6.504   3.650   0.714  0.6392 -0.3036 -0.7845
 5153SOL     OW16357   5.556   2.535   2.718 -0.2309 -0.8658 -0.3364
 5153SOL    HW116358   5.572   2.631   2.741  0.0693 -1.0470  0.2464
 5153SOL    HW216359   5.467   2.506   2.755 -0.8076 -0.5335 -1.4258
 5154SOL     OW16360   5.520   3.979   6.804 -0.2177  0.1332  0.3847
 5154SOL    HW116361   5.532   3.880   6.804 -0.5392  0.0900 -0.0907
 5154SOL    HW216362   5.582   4.020   6.737 -1.3613  0.0769 -0.7461
 5155SOL     OW16363   1.667   0.902   4.563  0.7579  0.2344 -0.5079
 5155SOL    HW116364   1.659   0.804   4.582  2.2740  0.0377 -0.7612
 5155SOL    HW216365   1.762   0.924   4.544  0.0343  1.2292 -3.4453
 5156SOL     OW16366   4.993   2.977   1.204  0.3447 -0.9021  0.5386
 5156SOL    HW116367   4.972   3.037   1.282 -2.3631 -1.2069  0.1551
 5156SOL    HW216368   5.006   2.884   1.236 -1.0897 -1.0871  0.6663
 5157SOL     OW16369   6.810   5.391   0.769  1.1358 -0.1545  0.0156
 5157SOL    HW116370   6.834   5.298   0.741 -1.5682 -0.7237 -0.7538
 5157SOL    HW216371   6.711   5.396   0.787  0.9727  2.8195 -1.0649
 5158SOL     OW16372   2.891   2.186   2.259  0.1692  0.1472 -0.1458
 5158SOL    HW116373   2.892   2.230   2.169  0.5606  0.1900 -0.1201
 5158SOL    HW216374   2.984   2.177   2.293  0.3763 -2.9890 -1.2691
 5159SOL     OW16375   1.945   1.693   5.816  0.0697 -0.4747 -0.1193
 5159SOL    HW116376   1.870   1.668   5.878 -0.5306 -1.0267 -1.0306
 5159SOL    HW216377   1.961   1.791   5.820 -0.0687 -0.4870  0.7844
 5160SOL     OW16378   0.620   4.919   3.502  0.1545  0.3182 -0.2039
 5160SOL    HW116379   0.541   4.882   3.454 -0.5580  1.6886 -0.1616
 5160SOL    HW216380   0.691   4.942   3.437  0.4453 -0.7189 -0.2660
 5161SOL     OW16381   3.590   1.907   5.314 -0.4482  0.6004  0.1688
 5161SOL    HW116382   3.499   1.870   5.302 -0.9176  1.6487  0.3881
 5161SOL    HW216383   3.585   2.007   5.320  0.5227  0.5835  1.8988
 5162SOL     OW16384   5.737   4.724   1.211 -0.1104 -0.1700 -0.3294
 5162SOL    HW116385   5.833   4.696   1.216  0.2579  0.8955 -1.0580
 5162SOL    HW216386   5.687   4.659   1.153  0.3962 -0.1849 -0.7656
 5163SOL     OW16387   0.662   0.879   1.310  0.3354  0.2689 -0.9642
 5163SOL    HW116388   0.693   0.889   1.216 -1.1230 -0.3524 -1.5413
 5163SOL    HW216389   0.699   0.954   1.366  1.1385  0.6891 -2.0330
 5164SOL     OW16390   6.344   4.341   6.630 -0.3529  0.3417  0.4959
 5164SOL    HW116391   6.428   4.297   6.600  0.4425 -0.2486  3.3118
 5164SOL    HW216392   6.337   4.431   6.589  0.6649 -0.3293 -1.2509
 5165SOL     OW16393   2.039   6.365   0.244 -0.1949  0.5453  0.1767
 5165SOL    HW116394   1.984   6.345   0.163 -0.7485 -0.7929  0.8512
 5165SOL    HW216395   2.047   6.283   0.300 -0.0268  1.5016  1.6046
 5166SOL     OW16396   1.290   2.900   2.249 -0.3352  1.0852 -0.2629
 5166SOL    HW116397   1.386   2.918   2.228 -0.7122  1.5967 -1.6812
 5166SOL    HW216398   1.277   2.901   2.348  1.2449  0.2498 -0.0169
 5167SOL     OW16399   6.405   4.546   2.631  0.3897  0.2734 -0.0231
 5167SOL    HW116400   6.369   4.557   2.724  2.3483 -0.7284  0.9341
 5167SOL    HW216401   6.367   4.617   2.572  0.0685  1.7557  1.8522
 5168SOL     OW16402   4.843   4.755   4.946  0.2033 -0.0405 -0.2143
 5168SOL    HW116403   4.889   4.811   5.014  0.2519 -0.1412 -0.1647
 5168SOL    HW216404   4.850   4.658   4.971  0.1788 -0.0741 -0.3354
 5169SOL     OW16405   4.942   6.149   1.267  0.0649  0.0841  0.6258
 5169SOL    HW116406   4.924   6.114   1.176  0.7736  0.4267  0.3487
 5169SOL    HW216407   4.882   6.104   1.333  0.6102 -1.2701  0.2125
 5170SOL     OW16408   6.295   2.813   4.663 -0.4712 -0.5877 -0.6839
 5170SOL    HW116409   6.246   2.727   4.657  0.2721 -0.9761 -1.3635
 5170SOL    HW216410   6.380   2.807   4.610  0.6510 -0.1840  0.9670
 5171SOL     OW16411   2.374   4.382   2.346  0.1948 -0.3713  0.0641
 5171SOL    HW116412   2.361   4.304   2.285  1.4080 -0.2208 -0.4268
 5171SOL    HW216413   2.371   4.351   2.441 -1.7722 -0.5954 -0.0484
 5172SOL     OW16414   1.297   3.114   6.226  0.0123 -0.4287 -0.2468
 5172SOL    HW116415   1.366   3.179   6.258 -0.0174  0.6041 -2.1107
 5172SOL    HW216416   1.232   3.095   6.299 -0.3969  2.2245  0.1775
 5173SOL     OW16417   6.677   5.779   5.879  0.1757  0.0819  0.0026
 5173SOL    HW116418   6.621   5.774   5.962  1.3880 -0.6525  0.7952
 5173SOL    HW216419   6.704   5.687   5.851 -0.3138  0.3032 -1.3082
 5174SOL     OW16420   0.559   0.788   3.265 -0.6484 -0.0974  0.3099
 5174SOL    HW116421   0.575   0.848   3.188 -1.9715  1.7034  1.3672
 5174SOL    HW216422   0.629   0.803   3.335 -0.6763 -0.1918  0.3595
 5175SOL     OW16423   0.112   4.312   5.894  0.1403  0.2494  0.1305
 5175SOL    HW116424   0.105   4.396   5.948 -0.2678 -0.8504  1.8685
 5175SOL    HW216425   0.164   4.331   5.810 -0.6337  2.3971  0.0708
 5176SOL     OW16426   0.345   3.653   2.829 -0.0234 -0.3695 -0.5345
 5176SOL    HW116427   0.358   3.692   2.738 -2.3809  0.1536 -0.7137
 5176SOL    HW216428   0.261   3.598   2.830  0.0564 -0.5111  1.2667
 5177SOL     OW16429   5.209   1.754   5.481 -0.2052  0.4388 -0.0001
 5177SOL    HW116430   5.170   1.780   5.393  0.1130 -0.0752 -0.2969
 5177SOL    HW216431   5.286   1.814   5.503 -1.9992  2.4237  1.2740
 5178SOL     OW16432   0.403   2.406   6.343 -0.0685  0.7338 -0.3915
 5178SOL    HW116433   0.484   2.449   6.383  1.0633 -1.4477 -0.2109
 5178SOL    HW216434   0.394   2.436   6.247  2.1873 -0.5235 -1.0629
 5179SOL     OW16435   3.468   6.498   6.875 -0.0631 -0.6729  0.3684
 5179SOL    HW116436   3.528   6.541   6.941 -0.1923  0.3227 -0.1461
 5179SOL    HW216437   3.522   6.456   6.802  0.0367 -0.4468  0.3116
 5180SOL     OW16438   1.137   1.353   6.884  0.0630 -0.6611 -0.6533
 5180SOL    HW116439   1.070   1.367   6.957  0.7167 -2.8860  0.4558
 5180SOL    HW216440   1.117   1.416   6.809 -0.9645  1.3437  1.1661
 5181SOL     OW16441   5.562   6.646   0.806  0.1358  0.3339  0.1968
 5181SOL    HW116442   5.619   6.692   0.874 -1.4103  0.9805  1.0943
 5181SOL    HW216443   5.604   6.655   0.716  2.6437 -1.1850  1.0835
 5182SOL     OW16444   6.615   2.867   2.115  0.2331 -0.6062 -0.4227
 5182SOL    HW116445   6.706   2.902   2.136  0.8240 -2.3660  0.0610
 5182SOL    HW216446   6.595   2.883   2.018  1.5147 -1.1652 -0.8009
 5183SOL     OW16447   5.362   0.403   3.853  0.4282 -0.3021 -0.1042
 5183SOL    HW116448   5.362   0.499   3.878 -4.2483  0.5819 -2.2674
 5183SOL    HW216449   5.337   0.348   3.932  0.2411  0.6594  0.5186
 5184SOL     OW16450   6.039   2.354   6.535 -0.6570  0.1271 -0.2230
 5184SOL    HW116451   6.123   2.338   6.483 -0.7673  0.4863 -0.5229
 5184SOL    HW216452   6.059   2.414   6.612 -0.8370  1.1567 -0.9491
 5185SOL     OW16453   5.710   1.332   5.893 -0.2180  0.0487 -0.0083
 5185SOL    HW116454   5.649   1.282   5.832 -0.4432  0.7131 -0.3343
 5185SOL    HW216455   5.798   1.348   5.846  0.4356 -1.4234  0.6723
 5186SOL     OW16456   0.982   3.432   0.718  0.0963 -0.3550 -0.4238
 5186SOL    HW116457   1.067   3.454   0.766 -0.3630  0.7094 -0.0760
 5186SOL    HW216458   0.963   3.504   0.651 -0.3351 -0.7848 -0.7651
 5187SOL     OW16459   6.333   6.467   2.800 -0.1199 -0.6629  0.7707
 5187SOL    HW116460   6.287   6.555   2.791  2.6049  0.8669  0.6861
 5187SOL    HW216461   6.416   6.467   2.744  0.8455 -2.6375  2.0856
 5188SOL     OW16462   2.407   3.839   0.098 -0.1482 -0.5778  0.6847
 5188SOL    HW116463   2.456   3.794   0.023 -2.3078 -0.5192 -0.8299
 5188SOL    HW216464   2.440   3.933   0.107  0.8953 -0.9175  0.5710
 5189SOL     OW16465   1.825   0.132   5.148  0.1068  0.3251 -0.3009
 5189SOL    HW116466   1.756   0.102   5.214  1.7591 -0.3081  1.2523
 5189SOL    HW216467   1.842   0.230   5.159  2.2085 -0.1932  2.2016
 5190SOL     OW16468   3.613   6.008   5.110 -0.2373  0.9809  0.3117
 5190SOL    HW116469   3.600   6.016   5.011 -1.5374  0.5130  0.4322
 5190SOL    HW216470   3.613   6.099   5.151  0.9053  1.2166 -0.1763
 5191SOL     OW16471   3.916   3.756   3.869 -0.3465  0.1455  0.6124
 5191SOL    HW116472   3.974   3.732   3.947  2.0622  0.1524 -1.0890
 5191SOL    HW216473   3.879   3.672   3.829 -0.5909  0.0621  1.0025
 5192SOL     OW16474   4.389   0.771   5.025 -0.5281  0.2749 -0.1202
 5192SOL    HW116475   4.435   0.840   5.079 -0.2819  1.0664 -1.2999
 5192SOL    HW216476   4.455   0.704   4.992 -0.7658 -0.5524  1.0194
 5193SOL     OW16477   4.073   0.361   6.863  0.1015  0.0484  0.6373
 5193SOL    HW116478   4.073   0.451   6.820 -0.9277  0.4769  1.4946
 5193SOL    HW216479   3.995   0.353   6.925  1.3356 -0.6677  2.1787
 5194SOL     OW16480   5.926   5.982   1.304 -0.3891 -0.3926 -0.0686
 5194SOL    HW116481   5.868   5.991   1.222 -1.8362  0.8844  1.0442
 5194SOL    HW216482   5.997   5.914   1.286  0.2741  0.8747 -2.9143
 5195SOL     OW16483   3.390   4.940   3.278 -0.4261  0.2721 -0.5275
 5195SOL    HW116484   3.393   4.921   3.377  1.1212 -1.7722 -0.8879
 5195SOL    HW216485   3.481   4.929   3.240 -1.4078 -1.3802 -2.5686
 5196SOL     OW16486   2.746   6.470   4.143 -0.3563  0.3543 -0.5126
 5196SOL    HW116487   2.769   6.423   4.057 -0.2339 -0.1212 -0.2254
 5196SOL    HW216488   2.803   6.434   4.217 -2.0651 -0.9799  0.2505
 5197SOL     OW16489   0.235   0.710   6.513  0.8249  0.4301 -0.5371
 5197SOL    HW116490   0.271   0.791   6.466  2.3722 -0.1576 -0.4118
 5197SOL    HW216491   0.311   0.654   6.545 -0.2292 -0.3857  0.5886
 5198SOL     OW16492   0.519   6.210   0.190 -0.1387  0.1684  0.1480
 5198SOL    HW116493   0.576   6.274   0.240  1.1801 -1.5585  0.9568
 5198SOL    HW216494   0.573   6.167   0.117 -0.9211 -0.1860 -0.2374
 5199SOL     OW16495   4.731   4.097   3.373  0.1012 -0.0269 -0.4065
 5199SOL    HW116496   4.828   4.101   3.349  0.4252  0.8522  0.9148
 5199SOL    HW216497   4.722   4.102   3.473 -1.3249  0.4118 -0.5413
 5200SOL     OW16498   2.280   5.928   0.880  0.1067 -0.2053 -0.1923
 5200SOL    HW116499   2.311   6.020   0.861  1.3669 -0.7760 -0.9994
 5200SOL    HW216500   2.182   5.921   0.861  0.2649  0.6273 -1.3975
 5201SOL     OW16501   5.162   4.115   2.978  0.5992  0.5025  0.7551
 5201SOL    HW116502   5.178   4.028   2.930  0.2347 -1.1114  3.3694
 5201SOL    HW216503   5.250   4.152   3.008  0.8683  1.7250 -1.3448
 5202SOL     OW16504   6.959   3.514   5.397  0.0712  0.4394  0.0102
 5202SOL    HW116505   6.954   3.457   5.315  0.0484  2.0555 -1.1465
 5202SOL    HW216506   6.901   3.474   5.469 -1.2754 -0.0940 -1.3239
 5203SOL     OW16507   6.340   3.193   1.048 -0.0871  0.2371  0.3239
 5203SOL    HW116508   6.303   3.281   1.078  0.5124  0.9195 -0.8424
 5203SOL    HW216509   6.373   3.202   0.953 -0.1524 -1.2852  0.1414
 5204SOL     OW16510   2.249   2.732   1.567  0.9677  0.1607 -0.1015
 5204SOL    HW116511   2.299   2.818   1.569 -0.9856  1.3872 -1.0511
 5204SOL    HW216512   2.278   2.675   1.645  0.1087  2.9911  2.5048
 5205SOL     OW16513   4.591   3.473   5.418 -0.3955  0.7792  0.2386
 5205SOL    HW116514   4.615   3.498   5.324 -0.2044 -0.4145 -0.0384
 5205SOL    HW216515   4.499   3.504   5.439 -0.9907 -0.2045 -0.8326
 5206SOL     OW16516   6.857   0.736   1.945  0.0950 -0.0854 -0.1992
 5206SOL    HW116517   6.881   0.721   1.849  1.4844  3.5082 -0.5891
 5206SOL    HW216518   6.899   0.666   2.002  0.6632 -1.3229 -2.0512
 5207SOL     OW16519   3.680   0.568   2.618 -0.1350  0.3584  0.0727
 5207SOL    HW116520   3.700   0.548   2.522  0.6471  0.6100  0.1773
 5207SOL    HW216521   3.596   0.622   2.624 -1.3687 -1.4187 -0.3150
 5208SOL     OW16522   3.208   2.116   3.210  0.3820  0.3404 -0.0899
 5208SOL    HW116523   3.305   2.119   3.186  0.6165  0.4870  0.8340
 5208SOL    HW216524   3.193   2.165   3.296 -0.2413 -0.9980  0.6045
 5209SOL     OW16525   4.487   4.042   6.890 -0.1465  0.3774 -0.2172
 5209SOL    HW116526   4.475   4.140   6.873  1.2745  0.3771 -1.4141
 5209SOL    HW216527   4.583   4.024   6.911  0.0068 -0.9670 -1.8419
 5210SOL     OW16528   3.100   0.387   4.800  0.1402 -0.0149  0.1501
 5210SOL    HW116529   3.196   0.361   4.808 -0.1554 -1.2907 -0.3369
 5210SOL    HW216530   3.086   0.440   4.716  0.6147  1.2280  0.8177
 5211SOL     OW16531   6.330   3.763   1.223 -0.1182  0.2538  0.8388
 5211SOL    HW116532   6.428   3.776   1.217 -0.1379 -0.1472 -1.0313
 5211SOL    HW216533   6.305   3.737   1.316  1.7711 -1.3232  0.9719
 5212SOL     OW16534   5.835   1.400   5.399 -0.3434 -0.0102 -0.3401
 5212SOL    HW116535   5.804   1.321   5.451  0.6164 -1.0651 -1.3171
 5212SOL    HW216536   5.773   1.414   5.321 -1.4581  1.2301  0.7217
 5213SOL     OW16537   3.232   4.308   0.104 -0.0654  0.5067 -0.3721
 5213SOL    HW116538   3.136   4.309   0.130  0.4016  1.9251  1.5079
 5213SOL    HW216539   3.249   4.233   0.039 -2.0051 -1.1119  0.8877
 5214SOL     OW16540   5.345   6.971   6.486  0.2279 -0.1061  0.9891
 5214SOL    HW116541   5.245   6.975   6.487  0.1844 -1.0770  1.5330
 5214SOL    HW216542   5.376   6.932   6.399 -0.0019 -2.2881  1.8320
 5215SOL     OW16543   2.377   5.532   6.053 -0.6247  0.4352  0.2189
 5215SOL    HW116544   2.433   5.468   6.106 -0.8367  0.2834  0.2621
 5215SOL    HW216545   2.280   5.515   6.072 -0.6819  0.7965  0.2611
 5216SOL     OW16546   4.978   5.231   3.442  0.2624 -0.0706 -1.0194
 5216SOL    HW116547   4.882   5.261   3.447  0.0869 -0.5042 -1.6791
 5216SOL    HW216548   5.012   5.216   3.535 -0.3837 -0.1357 -0.7833
 5217SOL     OW16549   4.028   2.467   5.407  0.0918  0.0390 -0.2341
 5217SOL    HW116550   4.055   2.377   5.440  2.6801  0.9697  0.4166
 5217SOL    HW216551   4.080   2.489   5.325 -1.4907  0.4488 -1.1677
 5218SOL     OW16552   0.507   3.439   2.969  0.4578  0.0935  0.6316
 5218SOL    HW116553   0.500   3.503   2.891 -0.0541  2.4925  2.5194
 5218SOL    HW216554   0.452   3.358   2.950 -0.9029  1.2928 -0.8786
 5219SOL     OW16555   1.725   3.058   0.147  0.2703  0.3523  0.0282
 5219SOL    HW116556   1.805   3.116   0.161  0.7587 -0.6961  2.0337
 5219SOL    HW216557   1.753   2.972   0.104  0.4151 -0.3481  1.4541
 5220SOL     OW16558   2.535   5.690   5.913  0.1383 -0.9592 -0.1999
 5220SOL    HW116559   2.473   5.625   5.957 -1.8451 -0.4997 -2.1452
 5220SOL    HW216560   2.521   5.781   5.951 -2.0531 -0.4299 -2.0313
 5221SOL     OW16561   1.409   0.897   0.583 -0.4303  0.5432 -0.3118
 5221SOL    HW116562   1.351   0.977   0.597 -0.9925  0.0943  0.0196
 5221SOL    HW216563   1.352   0.820   0.554  0.1326  0.3184 -0.8567
 5222SOL     OW16564   5.605   6.400   4.133  0.4412  0.0996  0.3151
 5222SOL    HW116565   5.554   6.485   4.122  1.8464  0.9544  0.1418
 5222SOL    HW216566   5.542   6.327   4.160 -0.9136  1.0111 -0.2259
 5223SOL     OW16567   1.228   1.048   1.648  0.0390 -0.7460 -0.0766
 5223SOL    HW116568   1.190   0.967   1.602 -2.2015 -1.5559  2.8978
 5223SOL    HW216569   1.158   1.120   1.651  0.3274 -0.5043  1.4520
 5224SOL     OW16570   1.867   6.026   6.757 -0.1374  0.0174 -0.1473
 5224SOL    HW116571   1.948   5.973   6.734  1.2881  1.9896  0.0938
 5224SOL    HW216572   1.817   6.048   6.673 -1.0940 -2.1006 -0.2060
 5225SOL     OW16573   0.801   3.589   5.445  0.8886 -0.5667  0.4279
 5225SOL    HW116574   0.828   3.585   5.541  1.9839  1.0561  0.2272
 5225SOL    HW216575   0.765   3.679   5.424  2.3432 -0.2849 -1.0770
 5226SOL     OW16576   5.128   4.949   2.610  0.2655 -0.0625  0.6937
 5226SOL    HW116577   5.129   4.909   2.701  0.3375  0.1385  0.7834
 5226SOL    HW216578   5.182   4.893   2.548 -0.2110 -0.4785  0.6524
 5227SOL     OW16579   0.312   2.751   4.838 -0.1886 -0.5312  0.0649
 5227SOL    HW116580   0.281   2.795   4.922 -1.9960 -1.5625  0.0041
 5227SOL    HW216581   0.317   2.819   4.764 -1.3050 -0.0929  0.3634
 5228SOL     OW16582   3.843   5.122   3.031  0.4315 -0.1602 -0.3766
 5228SOL    HW116583   3.844   5.024   3.013  0.3439 -0.4142  0.8986
 5228SOL    HW216584   3.777   5.167   2.971 -0.2767 -1.0333 -0.2674
 5229SOL     OW16585   0.909   2.175   2.396 -0.1763  0.1246  0.4541
 5229SOL    HW116586   0.914   2.134   2.487 -0.3622 -2.2262 -0.5113
 5229SOL    HW216587   0.983   2.138   2.339 -0.5557  0.9203 -0.5796
 5230SOL     OW16588   5.420   2.641   2.495 -0.0542 -0.0894 -0.3426
 5230SOL    HW116589   5.344   2.700   2.521 -0.0015 -0.3930  0.5572
 5230SOL    HW216590   5.441   2.579   2.571  1.1352  0.0405 -0.5467
 5231SOL     OW16591   3.861   2.919   4.080 -0.4192 -0.3784  0.1987
 5231SOL    HW116592   3.926   2.994   4.069  1.0090 -1.5384  0.3645
 5231SOL    HW216593   3.797   2.919   4.004 -1.0578  1.5439  0.6750
 5232SOL     OW16594   2.179   4.904   3.602 -0.0565 -0.0235  0.1127
 5232SOL    HW116595   2.238   4.857   3.668 -0.9655 -0.5370  0.5739
 5232SOL    HW216596   2.088   4.864   3.604 -0.2543  0.3327 -1.0625
 5233SOL     OW16597   4.720   5.742   1.124 -0.1805  0.1038  0.2431
 5233SOL    HW116598   4.636   5.742   1.070  0.4211 -1.2633 -0.7627
 5233SOL    HW216599   4.697   5.732   1.221 -1.2556  2.1846  0.2557
 5234SOL     OW16600   4.681   6.889   6.715  0.2256 -0.2687 -0.3061
 5234SOL    HW116601   4.645   6.861   6.804 -0.7285 -2.4476 -1.3059
 5234SOL    HW216602   4.626   6.964   6.679 -1.7574 -1.7933 -0.6255
 5235SOL     OW16603   5.511   2.437   3.495  0.2495  0.1335  0.1596
 5235SOL    HW116604   5.553   2.473   3.411 -1.6566  0.0051 -0.9008
 5235SOL    HW216605   5.520   2.504   3.568  0.7496  0.8243 -0.5183
 5236SOL     OW16606   5.742   3.355   0.782  0.2986 -0.0469  0.2758
 5236SOL    HW116607   5.748   3.390   0.688 -0.7573 -1.0184 -0.1740
 5236SOL    HW216608   5.674   3.408   0.833  0.9566  0.5567  0.5350
 5237SOL     OW16609   2.624   6.955   0.075 -0.1409  0.5260 -0.6360
 5237SOL    HW116610   2.676   6.869   0.068  1.2097  0.9157  2.6205
 5237SOL    HW216611   2.542   6.940   0.130 -1.8695  0.6590 -3.0169
 5238SOL     OW16612   4.308   6.462   5.337  0.6257  0.7602  0.0090
 5238SOL    HW116613   4.281   6.554   5.306  0.6727  1.2949  1.4945
 5238SOL    HW216614   4.406   6.460   5.354  0.6455  0.3907 -0.1512
 5239SOL     OW16615   4.083   5.739   1.646 -0.1521  0.3344  0.0995
 5239SOL    HW116616   4.110   5.718   1.740  0.6848  0.6966 -0.0463
 5239SOL    HW216617   4.051   5.655   1.601  0.8422 -0.1469  0.2621
 5240SOL     OW16618   5.938   2.436   4.487 -0.6243 -0.0683  0.1099
 5240SOL    HW116619   5.946   2.504   4.560  1.7200 -0.8064  0.6228
 5240SOL    HW216620   5.897   2.353   4.523 -3.7617  1.0543 -0.5826
 5241SOL     OW16621   0.488   5.129   6.611  1.1353 -0.5457  0.0244
 5241SOL    HW116622   0.540   5.120   6.696  0.8267 -0.9583  0.1746
 5241SOL    HW216623   0.526   5.203   6.556  0.5898  0.5280  1.0536
 5242SOL     OW16624   5.961   1.990   6.056 -0.5339 -0.6205  0.1645
 5242SOL    HW116625   6.030   1.930   6.096  0.2074 -1.2435 -1.9322
 5242SOL    HW216626   5.883   1.997   6.118  0.9396 -0.7157  2.1255
 5243SOL     OW16627   3.552   6.283   2.415  0.5158  0.9761  0.9350
 5243SOL    HW116628   3.630   6.265   2.475 -0.2698  1.0942  2.0219
 5243SOL    HW216629   3.468   6.252   2.459 -0.0498  0.7456 -0.2712
 5244SOL     OW16630   4.098   3.611   1.222 -0.1639  0.0099 -0.1238
 5244SOL    HW116631   4.146   3.530   1.256 -1.0680 -0.5908 -0.2423
 5244SOL    HW216632   4.045   3.652   1.296 -2.8908 -1.8437 -0.8914
 5245SOL     OW16633   5.930   1.170   2.483  0.6048  0.1257 -0.5946
 5245SOL    HW116634   6.011   1.214   2.444  0.7401 -0.5931 -1.1527
 5245SOL    HW216635   5.917   1.081   2.440 -0.3116  0.1014 -0.2898
 5246SOL     OW16636   3.170   4.943   4.656 -0.0513  0.2766  0.7049
 5246SOL    HW116637   3.265   4.955   4.687  0.5602 -1.7062 -0.2412
 5246SOL    HW216638   3.108   4.969   4.730  1.2677 -0.1734  2.0341
 5247SOL     OW16639   3.511   0.735   1.010  0.8511  0.0336 -0.3229
 5247SOL    HW116640   3.561   0.670   1.066 -1.6236  0.4190  2.6405
 5247SOL    HW216641   3.414   0.709   1.007  0.2756  2.0552 -1.4180
 5248SOL     OW16642   4.469   6.609   5.739 -0.1995  0.3029 -0.2618
 5248SOL    HW116643   4.556   6.652   5.763 -0.4413  0.5107  0.2596
 5248SOL    HW216644   4.397   6.643   5.800 -0.5435 -0.2740 -0.3388
 5249SOL     OW16645   2.375   2.230   6.833 -0.1444  0.0931 -0.3766
 5249SOL    HW116646   2.413   2.159   6.891 -1.3024  1.3179  2.0106
 5249SOL    HW216647   2.449   2.284   6.793  0.7541  1.2149  2.5891
 5250SOL     OW16648   3.123   3.966   0.195 -0.1643  0.2287 -0.1860
 5250SOL    HW116649   3.090   4.057   0.219 -0.9035 -0.2673  0.7335
 5250SOL    HW216650   3.071   3.897   0.246  0.5198 -0.6987 -0.7163
 5251SOL     OW16651   7.015   1.716   1.258 -0.1013 -0.5146 -0.3997
 5251SOL    HW116652   7.105   1.738   1.296 -0.5532  0.4550  0.1786
 5251SOL    HW216653   7.009   1.750   1.164 -0.3476  0.7769  0.0563
 5252SOL     OW16654   3.480   3.774   6.589  0.1745 -0.1223 -0.6612
 5252SOL    HW116655   3.477   3.843   6.661  1.0340 -1.3034  0.5566
 5252SOL    HW216656   3.535   3.807   6.513 -0.5533  1.0512 -0.7067
 5253SOL     OW16657   4.537   2.407   4.248  0.3858 -0.2380  0.0362
 5253SOL    HW116658   4.555   2.505   4.254  0.6303 -0.3430  1.1892
 5253SOL    HW216659   4.573   2.361   4.329 -0.7995 -1.1126  0.0983
 5254SOL     OW16660   6.738   2.620   2.826 -0.2288  1.0071 -0.0094
 5254SOL    HW116661   6.731   2.533   2.778  1.1268  0.4251  0.7724
 5254SOL    HW216662   6.647   2.651   2.853 -0.7653  0.0518 -0.6761
 5255SOL     OW16663   2.478   2.491   3.601 -0.5043 -0.0588  0.0092
 5255SOL    HW116664   2.449   2.585   3.585  0.7688  0.5770  1.1704
 5255SOL    HW216665   2.459   2.466   3.697  1.9289  0.1316  0.6134
 5256SOL     OW16666   4.727   1.868   4.641 -0.0362  0.2379 -0.4292
 5256SOL    HW116667   4.699   1.778   4.672 -1.7709  1.4114  1.7198
 5256SOL    HW216668   4.653   1.910   4.588  0.3019  0.8370 -0.4372
 5257SOL     OW16669   3.818   5.723   6.225  0.0996 -0.7061 -0.7248
 5257SOL    HW116670   3.913   5.729   6.254 -0.1013 -1.9258  0.2921
 5257SOL    HW216671   3.809   5.760   6.132  1.0537  1.8539  0.1307
 5258SOL     OW16672   4.300   0.853   3.796  0.4048  0.0868  1.0468
 5258SOL    HW116673   4.397   0.864   3.816  0.2974 -1.2601  2.4929
 5258SOL    HW216674   4.250   0.839   3.882 -1.3471  2.4856  0.5346
 5259SOL     OW16675   0.589   2.302   2.778 -0.0773  0.8208  0.1226
 5259SOL    HW116676   0.629   2.310   2.687  1.4262 -1.7721  0.4630
 5259SOL    HW216677   0.496   2.264   2.771  1.2011 -2.5451 -0.2955
 5260SOL     OW16678   1.784   6.954   5.918  0.2398 -0.6062  0.3608
 5260SOL    HW116679   1.834   7.017   5.977 -1.6734 -0.1580  1.5983
 5260SOL    HW216680   1.688   6.952   5.945 -0.1200 -2.6942 -0.8286
 5261SOL     OW16681   5.961   2.965   4.226 -0.0505 -0.2186 -0.5758
 5261SOL    HW116682   5.967   2.867   4.211  4.2082 -0.8754  3.1286
 5261SOL    HW216683   6.024   3.012   4.164 -0.5515 -0.0347 -0.9524
 5262SOL     OW16684   3.433   0.481   4.485 -0.2758  0.3362  0.4820
 5262SOL    HW116685   3.528   0.477   4.518  0.0506  0.9324 -0.3511
 5262SOL    HW216686   3.399   0.388   4.470 -0.2078  0.0747  1.8251
 5263SOL     OW16687   1.835   1.003   0.841 -0.0941 -0.4984 -0.8851
 5263SOL    HW116688   1.741   1.007   0.806 -0.7247  0.4273  0.8313
 5263SOL    HW216689   1.839   1.042   0.933  1.8058 -1.4207 -0.5222
 5264SOL     OW16690   2.140   2.933   3.024  0.5839  0.4027  0.1023
 5264SOL    HW116691   2.102   2.858   3.078  1.4518  0.4291  0.7740
 5264SOL    HW216692   2.119   2.918   2.928 -0.2535 -0.0914  0.3490
 5265SOL     OW16693   5.102   3.899   5.508 -0.3518  0.1534  0.5038
 5265SOL    HW116694   5.156   3.979   5.481  0.2055 -0.7312 -1.0897
 5265SOL    HW216695   5.159   3.838   5.563 -0.8511  0.9292  1.9382
 5266SOL     OW16696   2.346   4.808   3.830  0.1296 -0.1204  0.4046
 5266SOL    HW116697   2.422   4.870   3.849  0.5203  0.3417 -2.2067
 5266SOL    HW216698   2.382   4.719   3.803 -0.3599 -0.6267  1.3725
 5267SOL     OW16699   3.293   3.639   2.884  1.2527  0.3809  0.3993
 5267SOL    HW116700   3.348   3.645   2.801  1.9166 -1.3950  0.6639
 5267SOL    HW216701   3.332   3.700   2.954  1.5106  0.8413 -0.1385
 5268SOL     OW16702   1.555   1.751   0.730  0.1723  0.1159 -0.0731
 5268SOL    HW116703   1.622   1.682   0.704 -0.0078  0.2097 -0.8085
 5268SOL    HW216704   1.598   1.819   0.790  0.4896 -0.3281  0.2031
 5269SOL     OW16705   3.568   5.039   0.615 -0.5137  0.2081  0.5254
 5269SOL    HW116706   3.519   5.119   0.651  0.8191  1.0856  0.4358
 5269SOL    HW216707   3.555   5.034   0.516  0.4986  1.1285  0.3244
 5270SOL     OW16708   0.519   0.473   0.833  0.3744  0.0526 -0.7161
 5270SOL    HW116709   0.559   0.388   0.866 -1.8548 -0.7735  0.0550
 5270SOL    HW216710   0.543   0.547   0.896 -0.7975 -0.8023  0.8346
 5271SOL     OW16711   5.207   5.284   5.237 -0.3620  0.0964 -0.0652
 5271SOL    HW116712   5.246   5.365   5.193 -0.9226  0.8217  0.7357
 5271SOL    HW216713   5.280   5.230   5.279 -0.0412  0.5277 -0.0612
 5272SOL     OW16714   6.040   6.336   5.855 -0.3531  0.0118  0.3226
 5272SOL    HW116715   5.948   6.372   5.841 -1.4287 -2.2115  1.1905
 5272SOL    HW216716   6.059   6.333   5.954  0.4344 -0.0939  0.1741
 5273SOL     OW16717   1.528   0.511   3.086 -0.4896  0.0400  0.7827
 5273SOL    HW116718   1.561   0.547   2.999 -3.7103 -0.0684 -0.6353
 5273SOL    HW216719   1.533   0.411   3.086 -2.6306 -0.1402 -0.3885
 5274SOL     OW16720   0.166   0.512   5.568  0.2006  0.4603 -0.0946
 5274SOL    HW116721   0.153   0.437   5.634 -0.6529  0.1907 -0.5469
 5274SOL    HW216722   0.182   0.597   5.618  0.9075  0.0359  0.4336
 5275SOL     OW16723   0.548   0.060   6.271 -0.3216  0.3129  0.1843
 5275SOL    HW116724   0.502   0.080   6.357  0.6173  2.1257  0.3094
 5275SOL    HW216725   0.494   0.095   6.195 -0.0281  0.8362  0.2110
 5276SOL     OW16726   4.127   4.696   5.479 -0.3447  0.0833  0.2056
 5276SOL    HW116727   4.047   4.727   5.427  0.2240 -0.7207 -1.2181
 5276SOL    HW216728   4.104   4.689   5.576 -1.8887  0.2049 -0.1316
 5277SOL     OW16729   5.106   5.845   1.620 -0.2865  0.1460  0.4190
 5277SOL    HW116730   5.168   5.772   1.646  0.7173  1.7809  3.1040
 5277SOL    HW216731   5.020   5.806   1.588  1.3232 -2.1488 -1.3728
 5278SOL     OW16732   1.275   6.355   1.894  0.0438  0.1911 -0.0667
 5278SOL    HW116733   1.342   6.358   1.819  0.9421  0.3028  0.7226
 5278SOL    HW216734   1.293   6.275   1.951 -2.6139 -1.7467 -1.7229
 5279SOL     OW16735   0.259   2.671   6.709 -0.5091 -0.2303 -0.2518
 5279SOL    HW116736   0.263   2.711   6.800 -1.4255 -1.5844  0.4222
 5279SOL    HW216737   0.213   2.734   6.646 -0.6924  0.3352  0.4416
 5280SOL     OW16738   0.340   4.263   3.511  0.3150  0.2306 -0.5906
 5280SOL    HW116739   0.430   4.277   3.472  1.1173 -0.8014  0.7972
 5280SOL    HW216740   0.285   4.207   3.448  0.6431  0.8050 -1.4076
 5281SOL     OW16741   6.209   3.300   5.761 -0.7186  0.4325 -0.1614
 5281SOL    HW116742   6.141   3.262   5.698 -0.4821  0.8112 -0.6524
 5281SOL    HW216743   6.273   3.358   5.710 -0.5976  0.8416  0.4455
 5282SOL     OW16744   1.267   1.471   6.575 -0.7151 -0.1559 -0.1455
 5282SOL    HW116745   1.364   1.455   6.595 -0.5016  0.7904 -0.3408
 5282SOL    HW216746   1.233   1.400   6.515  0.4417  0.6199 -1.7985
 5283SOL     OW16747   5.076   2.976   4.541  0.5500 -0.4528 -0.0664
 5283SOL    HW116748   5.114   2.971   4.448  0.6578 -0.7833 -0.0061
 5283SOL    HW216749   4.984   2.938   4.541 -0.6692  2.2794 -0.6574
 5284SOL     OW16750   0.015   1.207   2.483  0.4718  0.0631  0.0709
 5284SOL    HW116751  -0.019   1.299   2.464 -1.7562 -0.1580  2.4382
 5284SOL    HW216752   0.025   1.156   2.397  1.0820  2.2305 -1.2227
 5285SOL     OW16753   0.250   0.504   1.149  0.3518 -0.0488  0.0955
 5285SOL    HW116754   0.213   0.456   1.228  3.6268 -2.6580  0.2959
 5285SOL    HW216755   0.349   0.490   1.145  0.4685  0.6793 -4.0001
 5286SOL     OW16756   1.590   4.274   2.012  0.7341 -0.5642  0.2911
 5286SOL    HW116757   1.570   4.363   1.970  1.7113 -1.0626 -1.3158
 5286SOL    HW216758   1.647   4.289   2.093  1.6381  0.2473 -0.4640
 5287SOL     OW16759   1.746   6.862   5.661  0.2114 -0.3451  0.4509
 5287SOL    HW116760   1.783   6.912   5.583  0.8208  0.0021  0.9511
 5287SOL    HW216761   1.775   6.907   5.746 -1.4379  0.0041  0.8702
 5288SOL     OW16762   4.275   4.617   6.988  0.0260 -0.1669 -0.2151
 5288SOL    HW116763   4.237   4.676   6.917 -1.5567 -1.3393 -0.4026
 5288SOL    HW216764   4.203   4.556   7.022  1.4401 -1.5480  0.4206
 5289SOL     OW16765   0.916   2.392   1.536  0.2182 -0.4114 -0.2162
 5289SOL    HW116766   0.863   2.436   1.609  1.7277 -0.3775  0.9118
 5289SOL    HW216767   0.976   2.322   1.576  2.9167  1.2903 -1.0025
 5290SOL     OW16768   3.082   4.239   5.220  0.1878  0.6331  0.4786
 5290SOL    HW116769   3.051   4.160   5.166 -1.3883  1.1863  0.5122
 5290SOL    HW216770   3.036   4.321   5.188  0.1604  1.1750  1.8507
 5291SOL     OW16771   2.532   0.578   2.958 -0.1021  0.1634 -0.1759
 5291SOL    HW116772   2.598   0.628   2.902 -0.1489  0.5796  0.1317
 5291SOL    HW216773   2.449   0.634   2.969 -1.2082 -1.0398 -1.9681
 5292SOL     OW16774   6.892   3.778   1.015  0.0004 -0.1434  0.2741
 5292SOL    HW116775   6.893   3.868   1.058 -1.4450  0.0434 -0.0399
 5292SOL    HW216776   6.978   3.764   0.966  0.3509  0.9561  0.5357
 5293SOL     OW16777   0.239   5.388   1.087 -0.3907 -0.2224  0.1649
 5293SOL    HW116778   0.213   5.329   1.164 -0.3200 -0.7345 -0.1955
 5293SOL    HW216779   0.247   5.482   1.119 -0.9377 -0.3360  0.6597
 5294SOL     OW16780   6.012   0.697   5.948 -0.0431 -0.0613  0.2619
 5294SOL    HW116781   6.076   0.622   5.930 -0.7034 -0.9161  1.3907
 5294SOL    HW216782   6.062   0.783   5.953  0.9754 -0.6720  0.8005
 5295SOL     OW16783   3.123   1.026   1.425 -0.1166 -0.8216 -0.3349
 5295SOL    HW116784   3.198   1.061   1.369 -1.3077  1.7180 -0.4875
 5295SOL    HW216785   3.127   1.067   1.516 -1.8119  0.1145 -0.6482
 5296SOL     OW16786   6.477   0.359   4.641  0.4267  0.2621  0.1469
 5296SOL    HW116787   6.548   0.337   4.574 -0.7190 -0.4645 -0.8762
 5296SOL    HW216788   6.509   0.338   4.733  0.8953 -1.8135 -0.4450
 5297SOL     OW16789   5.357   5.097   3.516  0.1044 -0.1963  0.2525
 5297SOL    HW116790   5.441   5.053   3.547 -0.7802 -1.5486  0.8268
 5297SOL    HW216791   5.375   5.148   3.433  1.0019 -2.5131 -1.0645
 5298SOL     OW16792   3.397   0.297   4.818 -0.6308  0.5915 -0.4206
 5298SOL    HW116793   3.362   0.205   4.799  0.9963  0.1999 -1.8182
 5298SOL    HW216794   3.471   0.292   4.884  1.1186  0.5124 -2.2911
 5299SOL     OW16795   4.089   3.784   4.462  0.0510 -0.2799  0.3520
 5299SOL    HW116796   4.139   3.870   4.474 -0.4513  0.1100 -0.2687
 5299SOL    HW216797   3.991   3.802   4.459 -0.0342 -0.7938 -0.4000
 5300SOL     OW16798   5.984   6.422   1.260  0.1359 -0.2516  0.2881
 5300SOL    HW116799   5.907   6.483   1.277  0.5553  0.8121 -1.3834
 5300SOL    HW216800   5.990   6.401   1.162 -0.3434 -3.5239  0.8371
 5301SOL     OW16801   0.687   2.345   2.530 -0.3486  0.1836  0.2823
 5301SOL    HW116802   0.759   2.285   2.494 -2.1719 -1.4711 -0.8606
 5301SOL    HW216803   0.697   2.436   2.490  0.3275 -0.3807 -0.9197
 5302SOL     OW16804   6.103   5.204   6.569  0.1938  0.1309  0.1781
 5302SOL    HW116805   6.019   5.225   6.619 -0.3254 -1.8732  0.2519
 5302SOL    HW216806   6.155   5.136   6.619  0.6008 -0.5244 -1.0797
 5303SOL     OW16807   4.946   5.330   4.826  0.6823  0.1600 -0.3989
 5303SOL    HW116808   5.022   5.343   4.889  0.4024  0.7793 -0.1895
 5303SOL    HW216809   4.980   5.287   4.742  1.9222  3.3086 -1.6624
 5304SOL     OW16810   3.879   0.760   6.583 -0.3802  0.2468 -0.1547
 5304SOL    HW116811   3.925   0.836   6.539  0.9507 -0.0357  0.6854
 5304SOL    HW216812   3.782   0.782   6.595  0.0457  1.9626  0.4008
 5305SOL     OW16813   6.786   5.983   4.637 -0.1525 -0.0327 -0.2745
 5305SOL    HW116814   6.772   6.061   4.698  2.4552  0.1157  0.2488
 5305SOL    HW216815   6.803   6.016   4.544  2.5285  0.1930  0.2415
 5306SOL     OW16816   2.285   5.397   6.617  0.6065 -0.2089  0.0405
 5306SOL    HW116817   2.324   5.447   6.539 -0.1984  0.4486  0.0421
 5306SOL    HW216818   2.355   5.339   6.657  1.4345  0.5233 -0.2986
 5307SOL     OW16819   2.689   6.109   2.679 -0.0529  0.2890  0.6715
 5307SOL    HW116820   2.779   6.125   2.722  0.3904  2.3619 -0.8589
 5307SOL    HW216821   2.667   6.187   2.620 -2.4964 -0.5917  0.3439
 5308SOL     OW16822   1.341   2.894   4.055  0.2203  0.6903  0.0181
 5308SOL    HW116823   1.316   2.802   4.085 -0.4099  0.0319 -2.2800
 5308SOL    HW216824   1.344   2.956   4.134  1.6099 -1.4613  1.7671
 5309SOL     OW16825   2.289   1.934   4.552 -0.0559  0.0637  0.0102
 5309SOL    HW116826   2.248   1.844   4.563  1.6243 -0.8119 -0.5984
 5309SOL    HW216827   2.258   1.994   4.627  0.9568 -1.8434  2.0804
 5310SOL     OW16828   0.530   0.763   6.991 -0.3232  0.7619  0.0334
 5310SOL    HW116829   0.620   0.778   7.031 -0.7374 -1.7063  2.2304
 5310SOL    HW216830   0.525   0.671   6.951 -2.1421  0.3382  1.0715
 5311SOL     OW16831   3.497   4.706   1.514  0.3705  1.0070 -0.0537
 5311SOL    HW116832   3.472   4.660   1.430 -0.0569  0.6993  0.2362
 5311SOL    HW216833   3.520   4.638   1.584 -0.9806  1.1763  0.5994
 5312SOL     OW16834   4.382   0.571   6.039 -0.0274 -0.4935  0.4327
 5312SOL    HW116835   4.292   0.573   6.082 -0.4832  1.3363 -0.5139
 5312SOL    HW216836   4.403   0.477   6.009 -1.4601 -1.0006  0.9464
 5313SOL     OW16837   6.181   3.925   2.701  0.3854  0.6779  0.6353
 5313SOL    HW116838   6.110   3.956   2.765 -0.8042  1.3428 -0.9098
 5313SOL    HW216839   6.173   3.827   2.687 -2.4761  1.1108 -1.9126
 5314SOL     OW16840   0.856   0.296   5.845  0.2099  0.3447 -0.6058
 5314SOL    HW116841   0.881   0.255   5.933  2.4777  2.7249 -0.0106
 5314SOL    HW216842   0.924   0.271   5.777  0.1910  1.0369 -0.8812
 5315SOL     OW16843   3.777   2.169   0.106 -0.1031  0.2163  0.0458
 5315SOL    HW116844   3.797   2.267   0.105  2.1378  0.0402  4.5082
 5315SOL    HW216845   3.847   2.120   0.055 -0.8779  0.8135 -1.6580
 5316SOL     OW16846   1.309   4.110   4.749 -0.6901 -0.2127 -0.0068
 5316SOL    HW116847   1.244   4.181   4.720 -0.4610 -0.6374 -1.6587
 5316SOL    HW216848   1.319   4.114   4.848 -3.3960 -0.2724  0.3592
 5317SOL     OW16849   6.092   1.927   1.165 -0.1320  0.2410 -0.1912
 5317SOL    HW116850   6.011   1.883   1.203 -1.2288  1.1801 -1.3463
 5317SOL    HW216851   6.122   1.999   1.226 -0.2771  0.0116  0.1566
 5318SOL     OW16852   6.676   6.914   1.553  0.5926 -0.0016  0.3085
 5318SOL    HW116853   6.649   6.907   1.649  1.1944 -1.9063  0.3824
 5318SOL    HW216854   6.739   6.991   1.541 -0.8506  1.3424  1.0818
 5319SOL     OW16855   4.596   5.008   5.818  0.4046 -0.2340  0.0336
 5319SOL    HW116856   4.618   4.971   5.728  1.7511 -0.3174  0.3664
 5319SOL    HW216857   4.548   4.939   5.872  2.1166 -1.2395  0.3489
 5320SOL     OW16858   4.706   4.096   6.698  0.5595 -0.2613 -0.2947
 5320SOL    HW116859   4.769   4.018   6.704  0.7783 -0.0763 -0.1689
 5320SOL    HW216860   4.649   4.085   6.617 -0.6555 -1.4636  0.6756
 5321SOL     OW16861   3.954   5.674   5.665 -0.3107 -0.6770 -0.0261
 5321SOL    HW116862   3.983   5.700   5.573 -0.1637  0.6266  0.3640
 5321SOL    HW216863   4.028   5.624   5.710  1.7248  2.9186  1.0858
 5322SOL     OW16864   0.390   2.435   0.798 -0.4556  0.2090  0.4804
 5322SOL    HW116865   0.477   2.386   0.792 -0.3936  0.2693  0.8495
 5322SOL    HW216866   0.325   2.381   0.852 -1.0493 -0.4043 -0.8181
 5323SOL     OW16867   1.721   0.706   6.164  0.4828 -0.6985  0.3116
 5323SOL    HW116868   1.791   0.644   6.127  1.4430  0.4708  0.1308
 5323SOL    HW216869   1.634   0.689   6.117  1.3410 -0.1966 -1.5628
 5324SOL     OW16870   6.321   1.597   3.174 -0.5519 -0.5379  0.0655
 5324SOL    HW116871   6.374   1.540   3.237 -0.2453 -0.6613 -0.2982
 5324SOL    HW216872   6.301   1.545   3.090 -2.3290 -0.9399  0.6845
 5325SOL     OW16873   1.030   2.049   5.815  0.7462 -0.0306 -0.0509
 5325SOL    HW116874   1.122   2.079   5.839  1.2540 -2.1056  0.8195
 5325SOL    HW216875   0.966   2.077   5.887  0.9699  0.0374  0.1227
 5326SOL     OW16876   5.495   2.085   6.895 -0.1264  0.5656  0.2327
 5326SOL    HW116877   5.444   2.108   6.813 -1.0684 -3.0693 -0.3718
 5326SOL    HW216878   5.581   2.040   6.870 -0.9468 -1.6191  1.1527
 5327SOL     OW16879   4.934   3.670   0.087  0.5869  0.5443 -0.1183
 5327SOL    HW116880   4.883   3.674   0.173  1.0004 -0.6472  0.2065
 5327SOL    HW216881   5.001   3.595   0.092  1.6178  1.3816 -0.9378
 5328SOL     OW16882   5.185   4.016   4.114 -0.1399  0.6213 -0.3495
 5328SOL    HW116883   5.156   4.103   4.154 -1.1697 -0.2855  0.9551
 5328SOL    HW216884   5.109   3.976   4.064  0.3189  0.4370 -0.9121
 5329SOL     OW16885   1.329   5.214   4.445 -0.2560 -0.2726  0.7811
 5329SOL    HW116886   1.405   5.176   4.392 -1.3131  0.0184 -1.0198
 5329SOL    HW216887   1.359   5.297   4.492  0.9238 -0.9735  1.3226
 5330SOL     OW16888   5.560   3.852   6.108  0.1018  0.6858  0.3229
 5330SOL    HW116889   5.505   3.769   6.107  0.5921  0.1949  3.4392
 5330SOL    HW216890   5.501   3.932   6.098 -1.1868  0.1347  2.7769
 5331SOL     OW16891   1.936   0.534   4.742 -0.2462  0.1622 -0.0239
 5331SOL    HW116892   1.941   0.629   4.771 -0.2630  0.1094  0.1594
 5331SOL    HW216893   1.841   0.511   4.719  0.0222  0.6776 -1.7942
 5332SOL     OW16894   5.774   5.652   5.617  0.3135  0.1128  0.0204
 5332SOL    HW116895   5.696   5.693   5.663 -0.5915 -1.1316 -0.3345
 5332SOL    HW216896   5.742   5.585   5.550  1.6921 -0.7514  0.1715
 5333SOL     OW16897   2.610   4.314   7.006 -1.0035  0.2218  0.3145
 5333SOL    HW116898   2.699   4.277   6.979 -1.1430  0.6044 -0.7083
 5333SOL    HW216899   2.623   4.395   7.062 -0.6962  0.4778 -0.1177
 5334SOL     OW16900   2.066   0.748   0.880  0.5906  0.8063 -0.1772
 5334SOL    HW116901   2.063   0.834   0.932  3.5061 -0.3330  2.1946
 5334SOL    HW216902   1.990   0.690   0.910  0.6117  1.2429  0.7934
 5335SOL     OW16903   2.107   3.811   2.855 -0.1449 -0.1388  0.0457
 5335SOL    HW116904   2.028   3.871   2.852 -0.0415 -0.0396 -0.8791
 5335SOL    HW216905   2.084   3.729   2.908 -0.9117 -0.1772 -0.3301
 5336SOL     OW16906   4.213   1.034   4.224  0.1769  0.4555  0.4905
 5336SOL    HW116907   4.291   1.030   4.286  0.0516  1.3706  0.7290
 5336SOL    HW216908   4.242   1.073   4.137  0.2090 -0.2040  0.2013
 5337SOL     OW16909   3.657   1.281   5.128 -0.1816  0.1626  0.1120
 5337SOL    HW116910   3.714   1.352   5.087  0.4081 -0.3004  0.1169
 5337SOL    HW216911   3.646   1.205   5.064  2.4267 -1.4890  1.4246
 5338SOL     OW16912   3.001   3.013   0.156 -0.7373 -0.3473  0.4998
 5338SOL    HW116913   3.045   2.927   0.130 -0.6776 -1.1322  2.9932
 5338SOL    HW216914   3.067   3.071   0.204 -1.5716 -0.2397  1.5481
 5339SOL     OW16915   3.508   1.289   6.352 -0.0240  0.2952 -0.0433
 5339SOL    HW116916   3.462   1.330   6.430 -0.8251 -1.8692  0.6975
 5339SOL    HW216917   3.596   1.334   6.337 -0.6549  1.9206  0.9726
 5340SOL     OW16918   3.327   1.860   1.075 -0.3894  0.2633  0.3124
 5340SOL    HW116919   3.329   1.941   1.017  0.7029  0.0805  0.0790
 5340SOL    HW216920   3.232   1.830   1.088 -0.7506  1.2147 -0.0988
 5341SOL     OW16921   4.927   3.145   1.442 -0.0922 -0.3008 -0.3323
 5341SOL    HW116922   4.909   3.240   1.418 -1.0899 -1.0317 -2.8408
 5341SOL    HW216923   4.842   3.102   1.475 -0.0784 -0.7168 -0.8128
 5342SOL     OW16924   1.008   5.097   0.315  0.2708 -0.0655 -0.0769
 5342SOL    HW116925   1.019   5.021   0.379  0.2188 -0.2549 -0.2929
 5342SOL    HW216926   0.911   5.122   0.310  0.4609  1.0480  1.1846
 5343SOL     OW16927   5.839   2.669   0.321  0.3757  0.0541  0.7638
 5343SOL    HW116928   5.912   2.723   0.363  2.0868 -1.4793 -0.0806
 5343SOL    HW216929   5.826   2.698   0.226 -0.0795  0.2765  0.8910
 5344SOL     OW16930   4.115   2.258   3.001  0.0929  0.0635  0.6637
 5344SOL    HW116931   4.035   2.204   2.977  1.0672 -1.5832  0.9792
 5344SOL    HW216932   4.156   2.296   2.918 -1.3096  1.4573  0.5416
 5345SOL     OW16933   0.877   0.336   0.822 -0.2503  0.3552 -0.1856
 5345SOL    HW116934   0.973   0.350   0.800  0.5058 -0.6903  2.1601
 5345SOL    HW216935   0.852   0.392   0.902 -0.2590 -2.6994  2.1153
 5346SOL     OW16936   2.430   1.327   1.273  0.3287  0.2959 -0.1868
 5346SOL    HW116937   2.507   1.373   1.229  0.0345 -0.7091 -1.8626
 5346SOL    HW216938   2.438   1.334   1.372  0.9874  2.7418 -0.3565
 5347SOL     OW16939   3.072   5.690   6.459 -0.1366 -0.7007  0.1084
 5347SOL    HW116940   3.145   5.751   6.493 -2.7251  1.5580  2.0565
 5347SOL    HW216941   3.032   5.641   6.536 -0.8985 -1.6799 -0.8882
 5348SOL     OW16942   2.146   3.964   4.636  0.3999  0.2764 -0.1506
 5348SOL    HW116943   2.053   3.936   4.609 -0.7113  2.0057  1.6091
 5348SOL    HW216944   2.175   3.910   4.715  1.4574 -1.1119 -1.4336
 5349SOL     OW16945   5.266   5.316   6.043  0.3145  0.3121 -0.5668
 5349SOL    HW116946   5.267   5.306   6.142  0.5728 -0.0624 -0.6036
 5349SOL    HW216947   5.213   5.241   6.002  0.3906  0.3410 -0.7214
 5350SOL     OW16948   3.696   3.064   5.289  0.3882  0.2113  0.2380
 5350SOL    HW116949   3.740   3.046   5.377 -1.4364 -2.1748  0.7616
 5350SOL    HW216950   3.756   3.035   5.214  0.2224 -1.9446  0.8944
 5351SOL     OW16951   4.867   0.479   5.645  0.7665  1.0732  0.2809
 5351SOL    HW116952   4.965   0.495   5.634  0.7321  2.4913  1.7427
 5351SOL    HW216953   4.820   0.566   5.657 -0.5178  0.3313  0.8117
 5352SOL     OW16954   1.217   5.973   4.092  0.2275 -0.0924 -0.1083
 5352SOL    HW116955   1.279   5.958   4.014 -0.4329  1.1539 -0.9081
 5352SOL    HW216956   1.176   6.064   4.085 -1.7331 -0.8789  0.3621
 5353SOL     OW16957   2.160   2.222   2.033  0.4755  0.1448 -0.2822
 5353SOL    HW116958   2.198   2.130   2.045  1.7461  0.4501 -1.6311
 5353SOL    HW216959   2.060   2.218   2.045  0.7287 -0.9559  1.9112
 5354SOL     OW16960   0.252   0.612   4.679  0.2637  0.0997  0.3370
 5354SOL    HW116961   0.305   0.652   4.753  1.5996 -1.5090  0.3108
 5354SOL    HW216962   0.209   0.527   4.712 -1.4806  0.8435  0.0600
 5355SOL     OW16963   1.686   3.154   2.770  0.5931  0.1535  0.2398
 5355SOL    HW116964   1.728   3.241   2.744  1.6017 -0.5045 -0.3783
 5355SOL    HW216965   1.750   3.079   2.754 -0.1365 -0.6849  1.0807
 5356SOL     OW16966   2.060   1.821   1.353 -0.2610 -0.1099  0.2972
 5356SOL    HW116967   2.131   1.813   1.422  1.0538 -0.2368 -1.0017
 5356SOL    HW216968   2.068   1.745   1.289 -1.1901  0.2035 -0.2071
 5357SOL     OW16969   5.274   5.495   5.077 -0.1774 -0.4599 -0.1481
 5357SOL    HW116970   5.271   5.430   5.001 -0.2653 -0.1462 -0.4138
 5357SOL    HW216971   5.202   5.563   5.065 -0.8139 -0.9597  0.7106
 5358SOL     OW16972   6.403   3.245   4.940  0.2836 -0.0395 -0.3046
 5358SOL    HW116973   6.386   3.278   4.847  1.7432 -0.3732 -0.7040
 5358SOL    HW216974   6.353   3.159   4.953 -0.7659  0.5378 -0.4109
 5359SOL     OW16975   6.466   4.938   6.470 -0.4127 -0.0979  0.0174
 5359SOL    HW116976   6.529   5.013   6.452 -0.9789  0.3458 -0.1452
 5359SOL    HW216977   6.465   4.876   6.391  0.3042 -0.4626  0.2880
 5360SOL     OW16978   6.602   3.824   2.916 -0.4193  0.0145 -0.5570
 5360SOL    HW116979   6.641   3.916   2.912 -0.7616  0.1403 -2.7752
 5360SOL    HW216980   6.667   3.759   2.877 -1.6843 -0.0072 -2.8297
 5361SOL     OW16981   3.954   0.614   4.038  0.0069  0.1913  0.1645
 5361SOL    HW116982   3.947   0.635   4.136 -0.7552 -0.7518  0.3352
 5361SOL    HW216983   4.034   0.555   4.022 -0.2115 -0.1525  0.3219
 5362SOL     OW16984   1.313   2.651   4.165 -0.2324 -0.3163  0.6216
 5362SOL    HW116985   1.228   2.628   4.211  0.2059 -0.0058  1.6225
 5362SOL    HW216986   1.384   2.670   4.233  0.5966 -0.4104 -0.1909
 5363SOL     OW16987   3.048   1.502   6.745  0.0919  0.0417  0.6048
 5363SOL    HW116988   3.063   1.460   6.656  1.2745  1.9943 -0.1954
 5363SOL    HW216989   2.950   1.516   6.759 -0.1343 -0.6638 -0.2036
 5364SOL     OW16990   5.259   4.871   1.496  0.1940 -0.8616  0.0229
 5364SOL    HW116991   5.306   4.818   1.425  1.1092  0.4866 -0.4144
 5364SOL    HW216992   5.249   4.966   1.465 -2.4804 -0.9884  0.2791
 5365SOL     OW16993   5.433   3.237   6.418  0.3791  0.4231  0.7825
 5365SOL    HW116994   5.441   3.141   6.447 -1.2589  0.0995  0.2421
 5365SOL    HW216995   5.516   3.263   6.368  0.1750 -1.2287 -0.5005
 5366SOL     OW16996   2.477   1.813   2.036 -1.0425 -1.0159  0.0147
 5366SOL    HW116997   2.481   1.912   2.025  0.8395 -1.0152  0.4227
 5366SOL    HW216998   2.406   1.790   2.104  1.2414  0.4035  3.1244
 5367SOL     OW16999   1.495   2.552   6.195  0.2267 -0.1670  0.1841
 5367SOL    HW117000   1.567   2.490   6.163 -0.6137 -1.6912  1.0870
 5367SOL    HW217001   1.529   2.604   6.274  0.2128 -1.2352  0.9161
 5368SOL     OW17002   5.822   6.325   0.112 -0.5988  0.4183 -0.6359
 5368SOL    HW117003   5.801   6.241   0.162  1.7137 -0.4807 -1.0275
 5368SOL    HW217004   5.741   6.384   0.109 -1.2296  0.0013  3.0759
 5369SOL     OW17005   1.095   1.807   2.511 -0.1709  0.6576  0.4458
 5369SOL    HW117006   1.191   1.837   2.518 -0.3376  1.4369 -0.4750
 5369SOL    HW217007   1.085   1.745   2.434 -0.2587 -0.0967  1.0487
 5370SOL     OW17008   1.056   1.715   1.800  0.3033  0.6770 -0.4129
 5370SOL    HW117009   1.132   1.776   1.820 -0.2493  2.1015 -2.3094
 5370SOL    HW217010   1.061   1.686   1.704 -0.9952  0.0018 -0.3016
 5371SOL     OW17011   6.731   1.408   3.201  0.4182  0.1262 -0.1897
 5371SOL    HW117012   6.633   1.426   3.206  0.7321  2.3324 -0.6613
 5371SOL    HW217013   6.749   1.338   3.132 -0.7252  0.9335 -1.3571
 5372SOL     OW17014   0.151   2.582   0.907 -0.1116  0.4925  0.4513
 5372SOL    HW117015   0.112   2.647   0.842 -0.0563  0.2607  0.1835
 5372SOL    HW217016   0.190   2.505   0.857  0.6594  0.7029  0.7178
 5373SOL     OW17017   6.160   4.401   4.235  0.5329  0.7244  0.1467
 5373SOL    HW117018   6.144   4.320   4.179 -0.3318  1.1718 -0.2723
 5373SOL    HW217019   6.192   4.476   4.177 -0.3321  1.1797  0.2533
 5374SOL     OW17020   4.543   5.951   3.218  0.0092 -0.1369 -0.2208
 5374SOL    HW117021   4.609   5.963   3.293 -1.2669 -0.9141  1.0754
 5374SOL    HW217022   4.541   5.855   3.191 -1.0567 -0.2558  0.2298
 5375SOL     OW17023   3.577   5.656   4.547 -0.0196  0.0966 -0.2121
 5375SOL    HW117024   3.499   5.706   4.584  0.1535  1.1460 -1.2260
 5375SOL    HW217025   3.563   5.640   4.449 -0.3911 -2.4806  0.1826
 5376SOL     OW17026   1.455   6.182   2.757 -0.1763 -0.2619  0.1552
 5376SOL    HW117027   1.507   6.240   2.694 -1.3349  0.5326 -0.0909
 5376SOL    HW217028   1.477   6.208   2.851 -2.1956  2.0716  0.0823
 5377SOL     OW17029   1.680   0.442   6.313  0.0825  0.4621  0.0840
 5377SOL    HW117030   1.662   0.540   6.312 -0.1220  0.4218 -0.2511
 5377SOL    HW217031   1.778   0.426   6.321  0.0624  0.6901  0.9892
 5378SOL     OW17032   3.776   2.506   0.814 -0.1831 -1.1568  0.0692
 5378SOL    HW117033   3.687   2.465   0.799 -0.8341  0.1267  0.2477
 5378SOL    HW217034   3.787   2.527   0.912  0.3962 -1.4815  0.0783
 5379SOL     OW17035   4.218   2.307   2.739  0.1963 -0.2041 -0.1012
 5379SOL    HW117036   4.197   2.331   2.644  0.1882  0.1316 -0.0144
 5379SOL    HW217037   4.262   2.217   2.741 -0.3259 -0.4705 -0.3690
 5380SOL     OW17038   2.413   0.633   0.020 -0.6629  0.3650  0.0137
 5380SOL    HW117039   2.385   0.676   0.106 -0.6984  0.5918 -0.1108
 5380SOL    HW217040   2.465   0.550   0.039  1.0670  1.4766  0.2759
 5381SOL     OW17041   5.375   6.034   6.318  0.3786 -0.6083  0.3302
 5381SOL    HW117042   5.472   6.033   6.296  0.4848 -0.3757  0.7695
 5381SOL    HW217043   5.363   6.053   6.416 -0.0513 -1.9186  0.5623
 5382SOL     OW17044   4.210   1.542   5.041  0.0397 -0.1956  0.4321
 5382SOL    HW117045   4.155   1.539   5.124  2.1359 -0.4564  1.8996
 5382SOL    HW217046   4.219   1.636   5.010  1.5412  0.3154  2.2072
 5383SOL     OW17047   4.707   6.699   4.237 -0.7574 -0.1444  0.2921
 5383SOL    HW117048   4.663   6.621   4.281  1.1257 -0.6540  1.3676
 5383SOL    HW217049   4.676   6.784   4.279  0.7415 -0.5991  2.4891
 5384SOL     OW17050   1.217   4.621   3.541  0.3255 -0.0551 -0.5757
 5384SOL    HW117051   1.189   4.717   3.540  0.0696 -0.1217 -1.8546
 5384SOL    HW217052   1.307   4.613   3.497  0.4458 -0.3730 -0.2701
 5385SOL     OW17053   4.075   3.465   5.459  0.0758  0.3086 -0.3180
 5385SOL    HW117054   4.071   3.365   5.448  3.6703  0.1283 -1.1643
 5385SOL    HW217055   4.146   3.489   5.524  0.6119  2.3523 -1.5743
 5386SOL     OW17056   0.528   3.134   7.001 -0.1583  0.0254  0.6036
 5386SOL    HW117057   0.444   3.185   7.020 -1.4069 -0.9065 -1.8298
 5386SOL    HW217058   0.599   3.197   6.970 -1.1874  0.5141 -0.8844
 5387SOL     OW17059   0.861   2.600   5.426 -0.4985  0.1443 -0.2089
 5387SOL    HW117060   0.856   2.657   5.344 -0.4172  0.6367  0.1266
 5387SOL    HW217061   0.848   2.656   5.507 -0.9605 -0.4004  0.1052
 5388SOL     OW17062   2.817   0.191   3.264 -0.3186 -0.5913  0.2984
 5388SOL    HW117063   2.862   0.133   3.333 -1.0966 -0.1612  1.1893
 5388SOL    HW217064   2.817   0.144   3.176  0.6612 -1.1743  0.5937
 5389SOL     OW17065   5.389   2.889   4.266 -0.1615 -0.4042 -0.6121
 5389SOL    HW117066   5.410   2.900   4.169 -0.0124 -0.9556 -0.6487
 5389SOL    HW217067   5.291   2.899   4.281 -0.2307 -0.6750 -0.8780
 5390SOL     OW17068   4.073   2.176   2.211 -0.0284 -0.2066 -0.3939
 5390SOL    HW117069   3.977   2.156   2.228  0.1806 -0.8281  0.1249
 5390SOL    HW217070   4.083   2.225   2.125 -0.5829 -2.4661 -1.8180
 5391SOL     OW17071   0.534   5.563   0.475 -0.3081 -0.1293 -0.1032
 5391SOL    HW117072   0.479   5.645   0.459  1.2438  1.2794  1.3917
 5391SOL    HW217073   0.572   5.565   0.567  3.1016 -0.4471 -1.3521
 5392SOL     OW17074   4.749   5.310   3.612  0.1961 -0.3827  0.1087
 5392SOL    HW117075   4.679   5.314   3.683 -1.0366 -0.6160 -1.0560
 5392SOL    HW217076   4.792   5.400   3.602 -0.6240  0.0159  0.1531
 5393SOL     OW17077   3.141   5.743   2.938  0.3586  0.4692  0.3005
 5393SOL    HW117078   3.093   5.659   2.963 -0.3084  0.6005 -0.4952
 5393SOL    HW217079   3.200   5.726   2.859 -0.1947  0.8742 -0.2042
 5394SOL     OW17080   5.223   5.759   6.398  0.0586  0.4423 -0.0004
 5394SOL    HW117081   5.209   5.809   6.312 -0.2465  1.5433  0.6672
 5394SOL    HW217082   5.135   5.732   6.436  0.1466  0.6879  0.3841
 5395SOL     OW17083   6.058   5.834   0.748 -0.0399  0.3559  0.6593
 5395SOL    HW117084   6.012   5.913   0.707 -0.3157  0.1494  0.5704
 5395SOL    HW217085   6.006   5.752   0.729  0.1189  0.1836  0.9650
 5396SOL     OW17086   4.443   5.913   3.912 -0.2377  0.3649  0.1190
 5396SOL    HW117087   4.394   5.928   3.998 -0.0916 -0.0591  0.2813
 5396SOL    HW217088   4.407   5.974   3.841 -1.0027  0.0450  0.2270
 5397SOL     OW17089   1.716   5.522   1.427  0.0793  0.4074 -0.1165
 5397SOL    HW117090   1.617   5.505   1.422 -0.1523  1.7975 -0.6737
 5397SOL    HW217091   1.732   5.615   1.459  1.2178  0.1756  0.0168
 5398SOL     OW17092   3.503   6.350   2.172  0.0849  0.1968  0.5648
 5398SOL    HW117093   3.509   6.449   2.181 -0.1518  0.4032 -1.2209
 5398SOL    HW217094   3.522   6.307   2.260 -0.0810  1.8308  1.4267
 5399SOL     OW17095   6.595   6.173   5.946 -0.2142 -0.5029 -0.2091
 5399SOL    HW117096   6.672   6.159   5.885  0.5688  1.4271  0.2451
 5399SOL    HW217097   6.514   6.198   5.893 -0.2670 -1.5211 -0.6212
 5400SOL     OW17098   4.483   6.107   1.348 -0.1272  0.5854 -0.2044
 5400SOL    HW117099   4.467   6.013   1.317 -1.3361  0.7876 -0.2614
 5400SOL    HW217100   4.516   6.106   1.442  0.8896  0.0738 -0.5477
 5401SOL     OW17101   1.386   4.352   1.786  0.0908  0.4422  0.8212
 5401SOL    HW117102   1.464   4.298   1.819  0.1748  0.5032  0.7240
 5401SOL    HW217103   1.362   4.421   1.855 -0.1118  0.1847  1.0099
 5402SOL     OW17104   4.949   0.663   6.351  0.0898  0.6092 -0.2041
 5402SOL    HW117105   4.864   0.713   6.334 -0.0862  0.0046 -1.1844
 5402SOL    HW217106   4.934   0.597   6.424  0.2910  1.8621  1.0169
 5403SOL     OW17107   5.965   6.086   3.500 -0.1629  0.4640  0.4662
 5403SOL    HW117108   5.880   6.051   3.460  0.1138  1.9042 -1.5508
 5403SOL    HW217109   6.025   6.010   3.521  0.1863 -0.4748 -3.2120
 5404SOL     OW17110   0.056   6.273   3.179  0.3493  0.1367  0.1422
 5404SOL    HW117111   0.035   6.362   3.139  0.6626  2.2449  4.1501
 5404SOL    HW217112  -0.016   6.246   3.243  1.0449 -1.6897  0.2427
 5405SOL     OW17113   0.866   1.261   3.829 -0.1399  0.2300  0.2587
 5405SOL    HW117114   0.824   1.349   3.849  0.2399  0.3219  0.6598
 5405SOL    HW217115   0.889   1.215   3.915  0.1083 -0.0443  0.0458
 5406SOL     OW17116   5.673   1.748   4.547 -0.2361  0.3232  0.1791
 5406SOL    HW117117   5.581   1.720   4.520  0.5254 -2.8832  0.5938
 5406SOL    HW217118   5.677   1.848   4.552 -3.3628  0.6000 -0.8716
 5407SOL     OW17119   1.020   2.427   2.845 -0.4817  0.4388 -0.2805
 5407SOL    HW117120   1.001   2.395   2.752 -2.1687  1.7655 -0.4423
 5407SOL    HW217121   1.040   2.348   2.904 -0.7448 -0.5428 -1.4538
 5408SOL     OW17122   4.097   1.762   6.026  0.3341 -0.4739  0.2580
 5408SOL    HW117123   4.082   1.708   6.109 -1.0336 -0.9827 -0.2926
 5408SOL    HW217124   4.109   1.858   6.052  2.0352 -0.9025  1.1822
 5409SOL     OW17125   5.165   4.913   3.510 -0.0303 -0.1606  0.1379
 5409SOL    HW117126   5.218   4.997   3.506  1.1983 -0.8398  1.3552
 5409SOL    HW217127   5.106   4.914   3.591 -1.3503  0.2500 -0.7818
 5410SOL     OW17128   0.136   3.545   1.119 -0.2828  0.1378 -0.3240
 5410SOL    HW117129   0.091   3.480   1.180 -1.3335  0.3938 -0.7993
 5410SOL    HW217130   0.232   3.519   1.107  0.3043  0.7679  2.3736
 5411SOL     OW17131   6.877   4.972   0.353 -0.1802  0.0220  0.3023
 5411SOL    HW117132   6.959   4.963   0.410  1.6992  0.2384 -2.1799
 5411SOL    HW217133   6.892   5.043   0.285 -2.1185 -0.5441 -0.7798
 5412SOL     OW17134   5.798   4.581   3.832  0.1493 -0.0094  0.2782
 5412SOL    HW117135   5.885   4.534   3.826  1.2377  1.6711  1.7440
 5412SOL    HW217136   5.758   4.591   3.741  0.7895 -1.9832 -0.2613
 5413SOL     OW17137   1.177   3.988   4.447 -0.5347  0.7298  0.5948
 5413SOL    HW117138   1.100   3.985   4.511 -0.2781 -1.6740  0.8966
 5413SOL    HW217139   1.256   3.941   4.488 -0.1051 -0.1450 -1.1561
 5414SOL     OW17140   6.294   3.209   6.825  0.3545 -0.1968  0.0916
 5414SOL    HW117141   6.327   3.147   6.897 -0.5618 -1.0786 -0.2336
 5414SOL    HW217142   6.201   3.184   6.799  0.1402  1.0239 -0.4009
 5415SOL     OW17143   3.933   4.834   1.441  0.3734 -0.2172  0.2698
 5415SOL    HW117144   3.888   4.820   1.353  0.8155 -1.1475  0.1832
 5415SOL    HW217145   3.943   4.746   1.488  0.9593  0.1447  0.8401
 5416SOL     OW17146   6.737   0.918   3.464 -0.3606 -0.4136  0.1301
 5416SOL    HW117147   6.818   0.974   3.480 -1.3792  1.0459  0.4331
 5416SOL    HW217148   6.764   0.823   3.447  1.4887  0.2878 -1.1454
 5417SOL     OW17149   6.463   5.326   4.897  0.4267 -0.0653  1.0604
 5417SOL    HW117150   6.419   5.347   4.984 -0.4546 -1.7112  1.0561
 5417SOL    HW217151   6.393   5.301   4.830  1.0699  1.3838 -0.2110
 5418SOL     OW17152   5.817   4.404   5.860  1.2207 -0.1951 -0.1502
 5418SOL    HW117153   5.897   4.448   5.902 -0.8263  1.7809  1.9961
 5418SOL    HW217154   5.734   4.450   5.891 -0.7563 -1.3306 -3.2789
 5419SOL     OW17155   0.688   4.053   5.642 -0.2529  0.7596  0.0815
 5419SOL    HW117156   0.721   4.077   5.551 -0.4541  0.5709 -0.0425
 5419SOL    HW217157   0.683   3.954   5.650  0.9305  0.7427  0.7172
 5420SOL     OW17158   3.418   6.407   1.111  0.4235  0.3338  0.5619
 5420SOL    HW117159   3.455   6.497   1.089  0.3173  0.5112  1.0828
 5420SOL    HW217160   3.462   6.338   1.054  1.7071  0.5150  1.2955
 5421SOL     OW17161   1.355   2.745   5.959  0.1984  0.2593  0.4235
 5421SOL    HW117162   1.267   2.754   6.007 -0.1270  0.8594 -0.2587
 5421SOL    HW217163   1.426   2.719   6.024 -0.2968  0.7344  1.1729
 5422SOL     OW17164   6.219   1.417   4.995 -0.4536 -0.4722  0.2223
 5422SOL    HW117165   6.177   1.403   5.084 -0.1013  0.7599  0.6106
 5422SOL    HW217166   6.177   1.497   4.951  1.5358  0.9026  0.6914
 5423SOL     OW17167   1.846   3.956   2.697 -0.1437  0.4015 -0.0636
 5423SOL    HW117168   1.782   4.027   2.726 -0.3457  0.5213 -0.7681
 5423SOL    HW217169   1.806   3.866   2.715 -0.5860  0.4760 -0.6291
 5424SOL     OW17170   3.694   5.056   3.808  0.2197  0.0357 -0.4145
 5424SOL    HW117171   3.728   4.971   3.848 -1.3989  0.0952  1.2003
 5424SOL    HW217172   3.597   5.046   3.785 -0.1683  1.6253  0.3819
 5425SOL     OW17173   5.874   4.133   3.865 -0.1416  0.0508  0.5072
 5425SOL    HW117174   5.916   4.220   3.839  0.4974 -0.2436  0.5406
 5425SOL    HW217175   5.841   4.086   3.783 -1.4851  0.8083  0.5743
 5426SOL     OW17176   7.006   5.163   3.202 -0.3079  0.4708  0.0799
 5426SOL    HW117177   7.067   5.116   3.266 -1.5107 -0.5523  0.4984
 5426SOL    HW217178   6.918   5.181   3.245 -1.0469  0.0254 -1.1683
 5427SOL     OW17179   4.671   3.232   5.864 -0.1260 -0.6273  0.4580
 5427SOL    HW117180   4.578   3.198   5.848 -0.4164  0.0558  0.6350
 5427SOL    HW217181   4.698   3.292   5.788 -0.1498 -0.1770  0.8006
 5428SOL     OW17182   5.977   3.292   2.741 -0.3748 -0.2615 -0.2400
 5428SOL    HW117183   6.072   3.270   2.761 -0.5625 -1.4271 -0.5392
 5428SOL    HW217184   5.971   3.347   2.658 -0.0043 -0.8866 -0.6888
 5429SOL     OW17185   4.274   1.963   0.838  0.0712 -0.3101  0.0155
 5429SOL    HW117186   4.257   1.991   0.933 -0.3995  0.2215 -0.2180
 5429SOL    HW217187   4.367   1.929   0.829  0.1603 -0.2371  0.6455
 5430SOL     OW17188   2.968   1.029   3.760 -0.1626 -0.8219 -0.1037
 5430SOL    HW117189   2.994   0.933   3.745 -0.5150 -0.6355 -2.2450
 5430SOL    HW217190   2.869   1.039   3.747 -0.5055 -0.5362  2.4000
 5431SOL     OW17191   5.442   6.853   1.130  0.5003  0.4815  0.7446
 5431SOL    HW117192   5.530   6.828   1.090  0.0705  2.2318 -1.4828
 5431SOL    HW217193   5.457   6.903   1.215  1.5961  0.0163  0.8467
 5432SOL     OW17194   1.752   0.987   1.369  0.5378 -0.1872 -0.3043
 5432SOL    HW117195   1.834   1.036   1.398  0.5076 -1.4744  2.3245
 5432SOL    HW217196   1.755   0.894   1.406 -2.8380  0.2348  1.4449
 5433SOL     OW17197   5.129   3.878   1.872  0.0007 -0.0150  0.2133
 5433SOL    HW117198   5.141   3.924   1.783 -1.7377 -0.6529 -0.3816
 5433SOL    HW217199   5.215   3.834   1.898  0.5657  0.2580 -1.1021
 5434SOL     OW17200   6.724   4.442   1.655  0.3336 -0.0676  0.1736
 5434SOL    HW117201   6.637   4.413   1.615 -0.3237  0.9143  0.8669
 5434SOL    HW217202   6.707   4.506   1.730  1.6987  1.0358 -0.4221
 5435SOL     OW17203   5.682   0.961   1.499 -0.6630  0.0160  0.5153
 5435SOL    HW117204   5.675   0.950   1.598  0.4740  2.3090  0.9171
 5435SOL    HW217205   5.773   0.932   1.468 -0.0068  1.8271  0.6201
 5436SOL     OW17206   3.394   1.851   0.624  0.3813  0.0102 -0.4343
 5436SOL    HW117207   3.478   1.797   0.621  0.3030 -0.0752 -2.2031
 5436SOL    HW217208   3.381   1.897   0.536 -1.1627  0.4416 -0.0155
 5437SOL     OW17209   6.443   4.254   1.302  0.3409  0.3549  0.1226
 5437SOL    HW117210   6.344   4.256   1.299  0.3615  1.1866 -0.2405
 5437SOL    HW217211   6.480   4.267   1.210  0.7840  3.1512  0.5996
 5438SOL     OW17212   5.969   3.591   1.255  0.0084  0.2587  0.2077
 5438SOL    HW117213   5.900   3.531   1.216 -1.7012  3.7727 -2.7816
 5438SOL    HW217214   5.925   3.671   1.295  2.2462  0.6996  2.0075
 5439SOL     OW17215   3.477   5.857   0.453 -0.0303  0.2572 -0.4016
 5439SOL    HW117216   3.417   5.913   0.510  0.5399  0.1273  0.3358
 5439SOL    HW217217   3.513   5.781   0.508  0.0260 -0.2370 -1.1085
 5440SOL     OW17218   0.780   0.940   4.605 -0.2040  0.3901  0.4739
 5440SOL    HW117219   0.715   1.011   4.632 -1.9217 -0.6488 -0.7325
 5440SOL    HW217220   0.782   0.868   4.675  0.0151  0.6631  0.7465
 5441SOL     OW17221   5.754   1.579   3.653  0.5018 -0.1676  0.3208
 5441SOL    HW117222   5.667   1.535   3.672 -0.7651  1.6570 -0.9031
 5441SOL    HW217223   5.769   1.584   3.554 -0.8094  4.3686  0.1096
 5442SOL     OW17224   0.543   6.052   0.634 -0.3577 -0.4212 -0.0300
 5442SOL    HW117225   0.613   6.035   0.565  0.7071 -0.4767  1.0296
 5442SOL    HW217226   0.498   5.966   0.658  0.9284 -0.8111  1.0558
 5443SOL     OW17227   0.011   5.123   0.919  0.1261 -0.3315  0.5656
 5443SOL    HW117228   0.097   5.111   0.969  0.7077  1.0811 -0.0424
 5443SOL    HW217229  -0.065   5.126   0.985  0.8555  1.2746  1.4070
 5444SOL     OW17230   3.390   4.275   6.624 -0.3088  0.3261 -0.6228
 5444SOL    HW117231   3.414   4.215   6.547  1.4518  2.0866 -1.5449
 5444SOL    HW217232   3.305   4.324   6.603 -0.4940 -0.1026 -0.8909
 5445SOL     OW17233   0.548   4.797   6.223 -0.1813 -0.0076 -0.1402
 5445SOL    HW117234   0.488   4.743   6.164  0.2383 -0.9710  0.2859
 5445SOL    HW217235   0.623   4.739   6.255  0.5542  0.9689 -0.0573
 5446SOL     OW17236   2.541   2.984   0.110  0.0554  0.3943 -0.1809
 5446SOL    HW117237   2.632   2.954   0.080 -0.0312  0.6257 -0.6806
 5446SOL    HW217238   2.472   2.922   0.072  0.0365 -0.0700  0.5962
 5447SOL     OW17239   5.977   4.455   6.537  0.3440 -0.1401 -0.7101
 5447SOL    HW117240   6.039   4.509   6.595 -1.3923  2.4291 -1.0893
 5447SOL    HW217241   6.026   4.376   6.502  2.3322 -0.1969  1.8466
 5448SOL     OW17242   6.361   6.706   3.868  0.0306  0.4697  0.1872
 5448SOL    HW117243   6.421   6.772   3.822 -0.2726  1.9027  1.7502
 5448SOL    HW217244   6.409   6.666   3.947 -0.2976 -0.0956  0.1090
 5449SOL     OW17245   1.782   0.520   1.323  0.3512  0.3868  0.1258
 5449SOL    HW117246   1.766   0.468   1.407 -2.3097  3.2100  1.5775
 5449SOL    HW217247   1.703   0.511   1.263  0.4659  1.5606 -0.2236
 5450SOL     OW17248   3.256   0.219   0.308  0.2346  0.2607  0.0633
 5450SOL    HW117249   3.273   0.160   0.387  0.2530  0.8662  0.5214
 5450SOL    HW217250   3.305   0.305   0.320  0.3977  0.2866 -0.7070
 5451SOL     OW17251   1.012   1.127   2.767  0.3078 -0.5357  0.2314
 5451SOL    HW117252   1.018   1.159   2.672  0.0734 -0.1030  0.3582
 5451SOL    HW217253   0.951   1.048   2.772 -1.1756  0.5753  0.2894
 5452SOL     OW17254   2.124   2.788   6.230  0.4001  0.0386  0.1654
 5452SOL    HW117255   2.183   2.730   6.286  0.8646 -0.0007 -0.3610
 5452SOL    HW217256   2.171   2.875   6.212  1.5427 -1.0359 -2.6038
 5453SOL     OW17257   4.857   5.056   2.482  0.4787 -0.3255  0.3612
 5453SOL    HW117258   4.769   5.033   2.523  0.3382 -2.2880 -0.8470
 5453SOL    HW217259   4.931   5.012   2.534  0.7012  0.8307  1.0343
 5454SOL     OW17260   5.956   1.017   2.035 -0.2361 -0.1954 -0.3881
 5454SOL    HW117261   5.908   0.952   1.977 -0.1296  0.1432 -0.8648
 5454SOL    HW217262   6.041   0.977   2.069  0.0775 -0.1321 -1.0869
 5455SOL     OW17263   5.143   0.406   1.267  0.0710 -0.4101 -0.0022
 5455SOL    HW117264   5.071   0.372   1.326  0.0548 -2.1232 -0.9465
 5455SOL    HW217265   5.107   0.423   1.175  0.3733  1.0144  0.1087
 5456SOL     OW17266   4.975   3.924   1.283 -0.1364  0.2681 -0.2229
 5456SOL    HW117267   4.934   3.843   1.325  0.0817  0.8729  1.2199
 5456SOL    HW217268   5.068   3.904   1.253  0.3778  0.2942  1.2797
 5457SOL     OW17269   6.610   5.065   5.129 -0.5032 -0.1604  0.0767
 5457SOL    HW117270   6.577   5.105   5.044 -0.9288  3.9158  1.9214
 5457SOL    HW217271   6.533   5.034   5.183 -0.3151 -1.6604 -0.4789
 5458SOL     OW17272   1.806   3.554   0.773  0.2746 -0.0656 -0.3825
 5458SOL    HW117273   1.725   3.583   0.724  0.3760 -0.5169 -0.8203
 5458SOL    HW217274   1.836   3.627   0.835  0.4279  0.7012 -1.3395
 5459SOL     OW17275   3.785   1.569   3.702  0.3487 -0.0901 -0.6162
 5459SOL    HW117276   3.709   1.627   3.672  0.2881  1.0411  1.5373
 5459SOL    HW217277   3.871   1.607   3.668  0.1392 -0.1394 -1.2249
 5460SOL     OW17278   0.687   1.963   6.119 -0.0993 -0.2803  0.2959
 5460SOL    HW117279   0.768   2.021   6.121  1.9040 -2.9086  2.0676
 5460SOL    HW217280   0.663   1.942   6.024  2.3323 -0.7185 -0.2860
 5461SOL     OW17281   4.598   3.135   1.333  0.4348  0.4340 -0.1564
 5461SOL    HW117282   4.525   3.132   1.264  2.1831  2.2656 -2.2056
 5461SOL    HW217283   4.685   3.154   1.289  1.7096  1.3357  2.5500
 5462SOL     OW17284   5.715   3.549   6.219  0.1807  0.0430  0.2491
 5462SOL    HW117285   5.653   3.578   6.147  1.0830  0.8442 -0.2329
 5462SOL    HW217286   5.808   3.542   6.182  0.2217 -2.1821  0.6913
 5463SOL     OW17287   3.873   3.487   3.819  0.1319  0.2117  0.5419
 5463SOL    HW117288   3.882   3.505   3.721 -1.5500 -1.2905  0.0854
 5463SOL    HW217289   3.962   3.459   3.855  0.8114  0.9378 -0.4968
 5464SOL     OW17290   0.227   6.649   2.096  0.2594 -0.1773 -0.0891
 5464SOL    HW117291   0.292   6.678   2.025  0.2200  1.0192  0.3364
 5464SOL    HW217292   0.135   6.643   2.056  0.2432  0.4543 -0.1574
 5465SOL     OW17293   0.614   2.953   4.053  0.2160 -0.1180  0.0165
 5465SOL    HW117294   0.610   2.866   4.101 -0.3971 -0.6822 -1.0258
 5465SOL    HW217295   0.639   2.938   3.958  1.9739  1.0354  0.2539
 5466SOL     OW17296   2.059   6.801   2.367  0.0185 -0.2647 -0.8028
 5466SOL    HW117297   2.086   6.827   2.460 -1.5771  1.0907 -0.6690
 5466SOL    HW217298   2.112   6.722   2.338 -0.3439 -1.5475  1.7600
 5467SOL     OW17299   2.534   0.428   5.456  0.4517 -0.2189 -0.0497
 5467SOL    HW117300   2.442   0.390   5.467  0.1044  0.9992  1.4418
 5467SOL    HW217301   2.588   0.409   5.538  0.9020  0.7632 -0.1044
 5468SOL     OW17302   5.238   4.498   3.579 -0.5028  0.2570 -0.7733
 5468SOL    HW117303   5.253   4.568   3.510  1.0323  0.7466 -0.0015
 5468SOL    HW217304   5.243   4.540   3.670 -0.2660 -0.7244 -0.3215
 5469SOL     OW17305   6.556   0.437   3.696 -0.4452 -0.1537 -0.1018
 5469SOL    HW117306   6.617   0.516   3.712 -2.2783  1.3121 -0.0076
 5469SOL    HW217307   6.558   0.412   3.600 -0.1911  0.2964 -0.2168
 5470SOL     OW17308   3.397   5.183   0.006  0.5035 -0.0461  0.3185
 5470SOL    HW117309   3.358   5.257  -0.048  2.6410  0.7865 -0.1736
 5470SOL    HW217310   3.443   5.118  -0.054 -1.6513 -2.0698  0.7020
 5471SOL     OW17311   3.332   3.896   5.321  0.0301 -0.5471  0.5068
 5471SOL    HW117312   3.414   3.883   5.377  0.6212 -0.0170 -0.2033
 5471SOL    HW217313   3.347   3.974   5.259 -0.8053 -0.7887 -0.0040
 5472SOL     OW17314   4.961   4.008   1.546  0.2686  0.4107  0.2905
 5472SOL    HW117315   4.897   3.943   1.585  1.3773 -0.0642  1.4019
 5472SOL    HW217316   4.963   3.997   1.446 -0.8083 -0.0640  0.3068
 5473SOL     OW17317   1.482   2.307   5.897  0.4086 -0.7760  0.2345
 5473SOL    HW117318   1.467   2.402   5.869 -0.5795 -0.8571  0.4573
 5473SOL    HW217319   1.581   2.291   5.906  0.6690 -0.1851 -1.2006
 5474SOL     OW17320   0.105   5.737   1.245 -0.2088 -0.0703  0.2651
 5474SOL    HW117321   0.113   5.828   1.284 -1.1373 -0.7124  2.0604
 5474SOL    HW217322   0.193   5.711   1.205  0.5273  1.0085  1.1038
 5475SOL     OW17323   6.705   6.792   4.801  0.0900  0.2824  0.4322
 5475SOL    HW117324   6.778   6.811   4.867  1.1491  0.1403 -0.6443
 5475SOL    HW217325   6.691   6.693   4.795  0.0867  0.2866  0.3639
 5476SOL     OW17326   2.167   3.851   0.788 -0.2097 -0.5084 -0.3437
 5476SOL    HW117327   2.144   3.947   0.770 -1.0600 -0.6226  0.0730
 5476SOL    HW217328   2.238   3.845   0.858 -1.4099 -0.1965  0.9570
 5477SOL     OW17329   3.284   5.721   4.624 -0.2450  0.7329 -0.2461
 5477SOL    HW117330   3.275   5.691   4.529 -0.2985  3.6873 -1.2770
 5477SOL    HW217331   3.193   5.733   4.664 -0.2304 -1.5278  0.6215
 5478SOL     OW17332   4.556   6.764   1.466 -0.3349  0.2062  0.7696
 5478SOL    HW117333   4.564   6.791   1.370 -0.0121  1.2267  1.0757
 5478SOL    HW217334   4.646   6.737   1.501 -0.0395  1.7858  1.3295
 5479SOL     OW17335   2.178   6.568   6.932  0.4885  0.0476 -0.3293
 5479SOL    HW117336   2.172   6.468   6.935  0.9564  0.0185 -0.2984
 5479SOL    HW217337   2.218   6.597   6.846 -0.0841  0.2352 -0.5364
 5480SOL     OW17338   4.740   2.264   1.240 -0.0213  0.4254 -0.4881
 5480SOL    HW117339   4.696   2.347   1.208 -0.3990  0.1506 -0.6858
 5480SOL    HW217340   4.809   2.235   1.173 -1.6113 -0.7928 -1.6687
 5481SOL     OW17341   5.221   0.982   1.644 -0.6329 -0.4131  0.0379
 5481SOL    HW117342   5.230   1.080   1.664 -1.4624 -0.2506 -0.3594
 5481SOL    HW217343   5.136   0.947   1.682 -1.0140 -0.6622 -0.9993
 5482SOL     OW17344   0.130   6.233   5.588  0.0825  0.7166  0.6665
 5482SOL    HW117345   0.124   6.140   5.626  0.7331  0.1924 -0.4734
 5482SOL    HW217346   0.225   6.264   5.592 -0.0432  1.1258  0.5310
 5483SOL     OW17347   0.708   3.589   2.395  0.0365 -0.5039  0.6517
 5483SOL    HW117348   0.788   3.554   2.347  0.0375  0.3449  0.0056
 5483SOL    HW217349   0.661   3.514   2.441  2.1274 -0.8072  2.4512
 5484SOL     OW17350   4.942   4.655   6.867  0.0752 -0.2437 -0.6200
 5484SOL    HW117351   4.875   4.725   6.887 -0.1150  0.1095 -2.3742
 5484SOL    HW217352   5.011   4.691   6.805  0.8915 -1.1435 -0.2742
 5485SOL     OW17353   4.191   0.852   0.425 -0.4674 -0.6836 -0.1603
 5485SOL    HW117354   4.218   0.834   0.331 -0.0558  1.9550 -0.6420
 5485SOL    HW217355   4.269   0.893   0.474 -1.2420 -0.2862  0.7660
 5486SOL     OW17356   4.455   1.918   4.547 -0.1085 -0.2009  0.3975
 5486SOL    HW117357   4.393   1.840   4.538 -0.2360  0.0028 -0.5962
 5486SOL    HW217358   4.431   1.970   4.629 -1.1762 -0.2009  0.1047
 5487SOL     OW17359   1.026   1.053   3.341  0.4198  0.1464  0.5682
 5487SOL    HW117360   1.051   1.150   3.339 -0.9377  0.5231  0.2052
 5487SOL    HW217361   0.967   1.033   3.262  0.2317 -0.8422  0.9461
 5488SOL     OW17362   2.835   0.945   6.475 -0.1707 -0.2500 -0.5072
 5488SOL    HW117363   2.764   0.893   6.428 -0.9230  0.3198 -0.0213
 5488SOL    HW217364   2.818   0.943   6.574  0.2779  0.2044 -0.4173
 5489SOL     OW17365   4.821   2.568   0.357 -0.2760  0.1382  0.0897
 5489SOL    HW117366   4.902   2.626   0.365  1.2889 -1.7753 -0.9855
 5489SOL    HW217367   4.806   2.544   0.261 -1.4630 -0.4638  0.4061
 5490SOL     OW17368   2.264   5.124   6.008  0.2418  0.1169  0.0294
 5490SOL    HW117369   2.289   5.038   5.964  0.2402  0.7510 -1.2569
 5490SOL    HW217370   2.179   5.112   6.059 -0.3513 -0.3674 -1.0533
 5491SOL     OW17371   4.437   4.669   0.693  0.2671  0.2682 -0.5822
 5491SOL    HW117372   4.408   4.665   0.597 -0.6881  1.0361 -0.3426
 5491SOL    HW217373   4.492   4.589   0.715  0.5233  0.1004 -1.7810
 5492SOL     OW17374   5.707   0.105   5.874 -0.1381 -0.8360  0.6420
 5492SOL    HW117375   5.785   0.132   5.929  0.0253  1.2803 -0.5340
 5492SOL    HW217376   5.726   0.122   5.777 -1.1959 -2.5044  0.0843
 5493SOL     OW17377   4.556   4.486   3.218  0.3778  0.0169 -0.4596
 5493SOL    HW117378   4.564   4.456   3.313  2.0785 -1.9341 -1.1357
 5493SOL    HW217379   4.635   4.541   3.193 -0.2128  0.7878 -0.6856
 5494SOL     OW17380   3.228   6.841   1.162  0.7124  0.5576 -0.1026
 5494SOL    HW117381   3.225   6.829   1.261  2.4096  0.3262 -0.0542
 5494SOL    HW217382   3.273   6.762   1.120 -0.9478  0.1354 -1.1937
 5495SOL     OW17383   6.198   5.413   5.270  0.8144 -0.0918  0.1728
 5495SOL    HW117384   6.109   5.453   5.291  0.3443 -0.3614 -1.1554
 5495SOL    HW217385   6.245   5.387   5.354  0.2559  1.3632  0.9614
 5496SOL     OW17386   2.597   4.455   5.305 -0.2697  0.0420 -0.0184
 5496SOL    HW117387   2.648   4.539   5.285 -0.0839 -0.0115  0.2217
 5496SOL    HW217388   2.662   4.380   5.322 -0.4104  0.1728  1.1661
 5497SOL     OW17389   0.049   0.621   3.486  0.2710 -0.3114  0.0735
 5497SOL    HW117390   0.084   0.530   3.461  0.2519 -1.1852  2.8998
 5497SOL    HW217391  -0.050   0.621   3.481  0.2849 -0.3455 -0.2247
 5498SOL     OW17392   1.049   6.926   3.840  0.4603 -0.5031 -0.4215
 5498SOL    HW117393   1.146   6.949   3.849  0.3452 -0.2890  0.4123
 5498SOL    HW217394   1.039   6.830   3.818  0.8416 -0.9040  1.0291
 5499SOL     OW17395   3.433   4.325   0.503 -0.0642 -0.5355 -0.2480
 5499SOL    HW117396   3.521   4.293   0.539 -0.5949 -2.7753 -0.7547
 5499SOL    HW217397   3.435   4.324   0.403  0.0980  1.7892 -0.3103
 5500SOL     OW17398   0.071   2.302   2.657  0.5937  0.3524 -0.2908
 5500SOL    HW117399   0.140   2.366   2.691 -0.3704  1.5460 -0.5015
 5500SOL    HW217400   0.115   2.228   2.607  1.7345  0.9089 -0.1306
 5501SOL     OW17401   3.128   2.028   6.857 -0.1244  0.1878  0.4976
 5501SOL    HW117402   3.086   2.074   6.779 -2.6072 -1.6123  0.6366
 5501SOL    HW217403   3.188   1.955   6.824  2.8219  2.5423  0.3023
 5502SOL     OW17404   2.802   4.726   5.992 -0.1405 -0.8259 -0.4243
 5502SOL    HW117405   2.715   4.677   5.986 -0.2281 -0.8739  0.9002
 5502SOL    HW217406   2.794   4.801   6.057  1.4081 -2.2387  1.5378
 5503SOL     OW17407   0.736   0.447   3.860 -0.1992 -0.0432  0.2155
 5503SOL    HW117408   0.778   0.529   3.898 -0.0585  0.4721 -0.9954
 5503SOL    HW217409   0.793   0.367   3.881  1.9726  0.7472 -2.1386
 5504SOL     OW17410   0.682   4.001   0.609  0.0567  0.0785 -0.6063
 5504SOL    HW117411   0.691   3.907   0.576  2.2017  0.2103 -0.5042
 5504SOL    HW217412   0.644   4.000   0.702 -1.5473 -0.5567 -1.2430
 5505SOL     OW17413   6.750   0.532   1.280  0.1521 -0.4523  0.3229
 5505SOL    HW117414   6.669   0.570   1.235  0.6668 -0.0071 -0.2503
 5505SOL    HW217415   6.808   0.486   1.212  0.7051 -0.1820  0.6017
 5506SOL     OW17416   2.189   3.722   6.247 -0.1920 -0.2989  0.0615
 5506SOL    HW117417   2.192   3.624   6.268  1.9668 -0.2475  0.2573
 5506SOL    HW217418   2.162   3.735   6.152  0.7186 -1.1840 -0.3378
 5507SOL     OW17419   3.391   4.123   3.148  0.4241 -0.1191  0.1443
 5507SOL    HW117420   3.330   4.079   3.082  1.2868 -0.8063 -0.2097
 5507SOL    HW217421   3.340   4.140   3.233 -0.8868  1.3984 -0.8946
 5508SOL     OW17422   0.796   4.137   3.693  0.3817  0.4537 -0.1228
 5508SOL    HW117423   0.805   4.191   3.777 -0.1486  0.0181  0.2211
 5508SOL    HW217424   0.711   4.085   3.696  1.3165 -1.1068 -0.0398
 5509SOL     OW17425   0.998   5.361   4.209 -0.1839 -0.6987 -0.0661
 5509SOL    HW117426   0.907   5.322   4.225 -0.0323 -1.1245 -0.2342
 5509SOL    HW217427   1.037   5.323   4.125  0.2065 -0.6225  0.0777
 5510SOL     OW17428   6.430   3.686   3.077  0.0921 -0.1020  0.3607
 5510SOL    HW117429   6.394   3.604   3.033  0.4217 -0.6413  1.0726
 5510SOL    HW217430   6.490   3.734   3.013  0.8241 -1.0508  0.3078
 5511SOL     OW17431   2.491   3.058   6.793  0.4702  0.6015 -0.1803
 5511SOL    HW117432   2.548   2.978   6.813  1.8382  1.2701 -1.2062
 5511SOL    HW217433   2.506   3.127   6.864 -0.4200  0.1240  0.4960
 5512SOL     OW17434   1.025   6.627   0.531  0.2430  0.0572 -0.5621
 5512SOL    HW117435   1.024   6.713   0.479  1.4902 -0.1621 -0.9833
 5512SOL    HW217436   1.078   6.559   0.480 -0.6445 -0.9307 -0.1803
 5513SOL     OW17437   6.628   1.711   4.443 -0.0699  0.1270  0.8939
 5513SOL    HW117438   6.597   1.616   4.433 -1.2122  0.6631 -1.0575
 5513SOL    HW217439   6.691   1.733   4.369 -1.8168  1.6342 -0.2205
 5514SOL     OW17440   0.910   4.799   6.274  0.6514 -0.1149  0.4698
 5514SOL    HW117441   0.848   4.727   6.304  0.3047  0.0086  0.0562
 5514SOL    HW217442   1.003   4.778   6.304  0.8633 -1.5954 -1.0832
 5515SOL     OW17443   6.027   5.897   4.788 -0.2547 -0.5799 -0.1636
 5515SOL    HW117444   6.056   5.991   4.808 -0.8377  0.3321 -3.1542
 5515SOL    HW217445   5.931   5.885   4.813 -0.6232  0.1457 -1.1633
 5516SOL     OW17446   6.399   3.731   4.303  0.0506  0.0048  0.0787
 5516SOL    HW117447   6.464   3.755   4.375 -0.5606 -0.5010  0.8229
 5516SOL    HW217448   6.388   3.631   4.300 -1.6262  0.1110  0.8678
 5517SOL     OW17449   0.223   0.374   2.339 -0.0530  0.0272  0.0923
 5517SOL    HW117450   0.285   0.418   2.404 -1.0974 -0.1504  1.2392
 5517SOL    HW217451   0.269   0.367   2.250  0.8651  1.6232  0.3875
 5518SOL     OW17452   6.059   5.385   3.204  0.3527  0.5335 -0.0802
 5518SOL    HW117453   6.000   5.413   3.279  1.3955 -1.3998  1.5750
 5518SOL    HW217454   6.066   5.285   3.203  0.9016  0.5349 -2.3652
 5519SOL     OW17455   5.266   4.869   4.109 -0.1039 -0.0180  0.0217
 5519SOL    HW117456   5.309   4.866   4.199 -1.2953 -1.2037  0.5873
 5519SOL    HW217457   5.292   4.787   4.057 -0.1912  0.1847 -0.3423
 5520SOL     OW17458   0.783   4.365   6.905 -0.3334  0.1576  0.3866
 5520SOL    HW117459   0.740   4.401   6.823 -1.2207 -3.3061 -0.8623
 5520SOL    HW217460   0.882   4.358   6.891 -0.3716  0.4124 -0.0114
 5521SOL     OW17461   6.834   5.771   4.089 -0.0482 -0.4181 -0.4448
 5521SOL    HW117462   6.746   5.765   4.136 -0.0288  0.1926 -0.3150
 5521SOL    HW217463   6.824   5.828   4.007 -0.1782 -1.7976 -1.4376
 5522SOL     OW17464   1.572   5.547   6.458  0.1452 -0.4610  0.3145
 5522SOL    HW117465   1.554   5.589   6.369  2.5136 -0.6696 -0.3127
 5522SOL    HW217466   1.626   5.609   6.514  0.3529 -1.1210  0.8634
 5523SOL     OW17467   0.057   5.670   1.671  0.0409 -0.0340 -0.5057
 5523SOL    HW117468   0.122   5.694   1.599  2.7085  0.9214  2.0204
 5523SOL    HW217469   0.102   5.610   1.737 -2.6687 -1.8290 -0.1275
 5524SOL     OW17470   0.805   2.395   6.299  0.0809  0.3874  0.1864
 5524SOL    HW117471   0.742   2.467   6.328  0.8083  1.1671 -0.1260
 5524SOL    HW217472   0.885   2.394   6.358  0.5745  0.5644 -0.4668
 5525SOL     OW17473   3.760   2.192   6.067 -0.6568 -0.2964  0.3674
 5525SOL    HW117474   3.825   2.243   6.010 -0.6516 -1.5792 -0.8256
 5525SOL    HW217475   3.800   2.104   6.093 -1.0742 -0.1697  1.4875
 5526SOL     OW17476   6.490   0.095   1.448 -0.2563 -0.5272  0.1288
 5526SOL    HW117477   6.543   0.177   1.467 -1.6077  0.2272  0.7288
 5526SOL    HW217478   6.553   0.020   1.426  1.0372  0.3909  0.5465
 5527SOL     OW17479   6.592   3.883   3.632  0.5030  0.0934 -0.2636
 5527SOL    HW117480   6.556   3.895   3.539  0.3901 -0.0211 -0.2352
 5527SOL    HW217481   6.524   3.836   3.688  0.3036  0.7577  0.0597
 5528SOL     OW17482   2.803   1.736   2.014  0.5309 -0.7107 -0.3421
 5528SOL    HW117483   2.714   1.779   2.030 -0.0973 -1.9724 -0.2884
 5528SOL    HW217484   2.876   1.801   2.035 -0.3436  1.1390 -2.5741
 5529SOL     OW17485   1.186   5.355   6.594  0.3876 -0.7363  0.4710
 5529SOL    HW117486   1.148   5.293   6.662  0.6441  1.5087  2.8062
 5529SOL    HW217487   1.282   5.374   6.616 -0.0553  1.5171  0.6892
 5530SOL     OW17488   5.547   6.478   4.653 -0.0855 -0.3744  0.0764
 5530SOL    HW117489   5.575   6.568   4.684 -0.1202 -0.5116  0.5058
 5530SOL    HW217490   5.621   6.436   4.600  0.4258 -0.6191  0.9662
 5531SOL     OW17491   1.231   5.459   3.168  0.0284 -0.3839 -0.5134
 5531SOL    HW117492   1.251   5.514   3.250 -0.2238 -1.2402  0.1349
 5531SOL    HW217493   1.136   5.473   3.141 -0.2903 -1.1724  0.1800
 5532SOL     OW17494   2.824   4.803   1.735  0.1826  0.1033 -0.3425
 5532SOL    HW117495   2.886   4.881   1.744 -0.7991  0.7509  0.9892
 5532SOL    HW217496   2.852   4.731   1.799 -0.0370  0.1113 -0.2389
 5533SOL     OW17497   6.987   2.724   2.772  0.1881 -0.4062 -0.3605
 5533SOL    HW117498   6.996   2.767   2.682  1.0566  0.5941  0.1739
 5533SOL    HW217499   6.892   2.698   2.788  0.0272 -0.5954 -1.5609
 5534SOL     OW17500   5.196   3.763   3.775  0.2490  0.0604 -0.4638
 5534SOL    HW117501   5.231   3.772   3.682  0.5067 -0.1235 -0.3834
 5534SOL    HW217502   5.215   3.671   3.810  1.4864  0.5868  0.3132
 5535SOL     OW17503   3.008   5.064   5.817 -0.3177 -0.1494  0.0326
 5535SOL    HW117504   3.038   5.075   5.911  0.4765  0.4655 -0.2807
 5535SOL    HW217505   2.908   5.064   5.813 -0.3570 -0.7645  0.9302
 5536SOL     OW17506   0.737   1.682   5.666 -0.0607 -0.0998  0.5142
 5536SOL    HW117507   0.827   1.725   5.672  0.0993 -0.5862  1.7520
 5536SOL    HW217508   0.686   1.723   5.590  0.4536  1.6137  1.0361
 5537SOL     OW17509   2.808   1.510   2.190 -0.2679 -0.2066  0.1547
 5537SOL    HW117510   2.815   1.595   2.138  4.6440 -1.6220 -2.0464
 5537SOL    HW217511   2.850   1.523   2.280 -0.0494 -0.2021  0.0504
 5538SOL     OW17512   0.202   5.463   0.628  0.0316 -0.1173  0.8193
 5538SOL    HW117513   0.151   5.487   0.545  0.2457  0.6035  0.8905
 5538SOL    HW217514   0.183   5.368   0.652  1.0757 -0.7896 -0.8649
 5539SOL     OW17515   3.671   0.886   0.211  0.3474  0.1611 -0.0915
 5539SOL    HW117516   3.768   0.909   0.214 -0.0744  2.0781  1.6368
 5539SOL    HW217517   3.659   0.787   0.214  2.2458 -0.0713  2.3225
 5540SOL     OW17518   4.188   6.136   6.792  0.6353 -0.3962 -0.0287
 5540SOL    HW117519   4.238   6.105   6.873  0.3738  2.0293  1.1616
 5540SOL    HW217520   4.235   6.216   6.754  0.2638 -0.9860 -1.7765
 5541SOL     OW17521   4.213   6.530   1.723  0.2410 -0.9733  0.3446
 5541SOL    HW117522   4.119   6.508   1.749  0.0018  0.2081  0.5442
 5541SOL    HW217523   4.254   6.452   1.676 -0.9383 -1.4058 -0.0013
 5542SOL     OW17524   6.507   5.478   3.462 -0.1243  0.3107  0.3838
 5542SOL    HW117525   6.490   5.532   3.379  0.5880 -0.3017 -0.1748
 5542SOL    HW217526   6.495   5.536   3.542 -0.3853  1.0303 -0.1577
 5543SOL     OW17527   6.323   5.888   1.115 -0.2687 -0.8459  0.0071
 5543SOL    HW117528   6.398   5.939   1.156 -1.2204 -1.3232  2.5440
 5543SOL    HW217529   6.261   5.855   1.188 -1.3126 -3.0234 -1.7365
 5544SOL     OW17530   0.441   6.409   2.334 -0.4224  0.1585  0.1859
 5544SOL    HW117531   0.519   6.346   2.327  0.2391  1.1134 -2.1966
 5544SOL    HW217532   0.427   6.434   2.430  0.6600 -1.9048  0.9429
 5545SOL     OW17533   3.518   3.158   4.669 -0.8239 -0.6925  0.5746
 5545SOL    HW117534   3.599   3.207   4.703 -0.9379 -1.4903  2.0852
 5545SOL    HW217535   3.499   3.187   4.575  1.9078 -1.3407 -0.2726
 5546SOL     OW17536   4.659   2.018   1.220  0.4189  0.3473  0.2804
 5546SOL    HW117537   4.680   2.110   1.252  0.7695  0.0033  1.0705
 5546SOL    HW217538   4.744   1.967   1.205  0.2634 -0.9081  3.0793
 5547SOL     OW17539   0.309   0.139   2.179 -0.1238 -0.1206  0.3542
 5547SOL    HW117540   0.262   0.060   2.218  0.2828 -1.1897 -1.2710
 5547SOL    HW217541   0.282   0.151   2.084 -1.1064  2.4623  0.8847
 5548SOL     OW17542   1.508   5.258   4.949  0.1643  0.5263  0.0749
 5548SOL    HW117543   1.433   5.323   4.948  0.3437  0.7390 -1.0804
 5548SOL    HW217544   1.473   5.165   4.960 -0.0658  0.8288  2.1212
 5549SOL     OW17545   0.008   0.131   7.017  0.2032  0.2644  0.0027
 5549SOL    HW117546  -0.025   0.101   7.106 -0.4792 -0.7769 -0.5841
 5549SOL    HW217547   0.082   0.072   6.986 -0.5047 -0.2640 -0.7336
 5550SOL     OW17548   1.023   6.367   7.011  0.0469  0.1685 -0.5038
 5550SOL    HW117549   1.085   6.438   7.045 -0.5127  0.5655 -0.3062
 5550SOL    HW217550   0.947   6.356   7.074 -0.2095 -0.1562 -0.8662
 5551SOL     OW17551   1.289   3.534   2.369  0.0850 -0.2155  0.2547
 5551SOL    HW117552   1.257   3.484   2.450 -1.0802 -0.9060 -0.5982
 5551SOL    HW217553   1.277   3.476   2.289 -1.6242  1.5195 -0.8335
 5552SOL     OW17554   1.236   0.134   2.708 -0.2177  0.0279 -0.6833
 5552SOL    HW117555   1.257   0.049   2.756  1.7476  1.0617  0.4078
 5552SOL    HW217556   1.165   0.184   2.758 -0.3857 -0.3160 -0.5716
 5553SOL     OW17557   3.733   6.670   5.843 -0.7505  0.0686  0.1540
 5553SOL    HW117558   3.700   6.712   5.927 -1.3170 -1.0389  0.5150
 5553SOL    HW217559   3.777   6.582   5.864 -0.9071 -0.2312 -0.7027
 5554SOL     OW17560   0.835   4.837   1.152  0.6634  0.0286  0.2624
 5554SOL    HW117561   0.903   4.897   1.111  1.4281  0.2259  1.7272
 5554SOL    HW217562   0.753   4.890   1.176  0.1240 -0.1300 -1.1323
 5555SOL     OW17563   2.456   5.193   6.640  0.7143  0.4815 -0.1183
 5555SOL    HW117564   2.467   5.143   6.726  0.6796  2.0608  0.8341
 5555SOL    HW217565   2.542   5.236   6.615  0.6072  0.3918 -0.6501
 5556SOL     OW17566   0.148   0.287   1.296  0.2722 -0.9421  0.2923
 5556SOL    HW117567   0.108   0.363   1.347 -0.2778  0.4689 -2.0753
 5556SOL    HW217568   0.207   0.234   1.356  0.4236  1.1686  2.1365
 5557SOL     OW17569   3.634   0.809   1.860 -0.1090  0.6432  0.0584
 5557SOL    HW117570   3.722   0.769   1.833 -1.1734 -1.9919  0.1682
 5557SOL    HW217571   3.643   0.854   1.948  0.9235 -0.4527  0.5393
 5558SOL     OW17572   2.770   1.543   6.765 -0.6759 -0.1665 -0.4258
 5558SOL    HW117573   2.778   1.633   6.723  0.2588  0.1323  0.3564
 5558SOL    HW217574   2.699   1.490   6.718 -0.4667  0.5690 -1.5994
 5559SOL     OW17575   3.214   6.180   0.414 -0.3861  0.0814  0.5300
 5559SOL    HW117576   3.193   6.207   0.320  0.7250 -0.5447  0.0822
 5559SOL    HW217577   3.313   6.175   0.425 -0.4691  1.1762  2.0488
 5560SOL     OW17578   4.605   0.905   3.610 -0.1221  0.0685  0.6595
 5560SOL    HW117579   4.701   0.881   3.622 -0.4379 -1.1148  0.9477
 5560SOL    HW217580   4.561   0.917   3.699 -0.2496  0.6209  0.5305
 5561SOL     OW17581   4.658   6.794   6.373 -0.5453  0.7923  0.1155
 5561SOL    HW117582   4.738   6.849   6.399  0.7182  0.2698 -2.3434
 5561SOL    HW217583   4.684   6.697   6.371 -1.4081  0.5579 -0.1546
 5562SOL     OW17584   2.013   5.060   6.100 -0.0792 -0.4367  0.6052
 5562SOL    HW117585   2.027   4.976   6.048 -0.0569  0.4462 -0.8533
 5562SOL    HW217586   2.002   5.037   6.197  1.4589 -1.9850  0.4662
 5563SOL     OW17587   2.900   3.557   4.185  0.2937 -0.0748  0.0056
 5563SOL    HW117588   2.857   3.557   4.095 -1.2951 -0.5254  0.7319
 5563SOL    HW217589   2.949   3.643   4.199  0.0051  0.2710 -1.0168
 5564SOL     OW17590   0.662   0.388   6.163  0.1372 -0.5556  0.2875
 5564SOL    HW117591   0.723   0.463   6.137 -0.0079  0.4452  2.5804
 5564SOL    HW217592   0.567   0.415   6.147  0.1525 -1.1702 -0.9881
 5565SOL     OW17593   4.642   7.010   4.234 -0.5453  0.3392 -0.4064
 5565SOL    HW117594   4.594   7.045   4.315 -1.3066  0.8902 -1.0825
 5565SOL    HW217595   4.726   7.062   4.221 -0.7552  0.6988 -0.3457
 5566SOL     OW17596   1.869   3.174   3.578  0.5601  0.2527  0.2762
 5566SOL    HW117597   1.828   3.122   3.653  0.2527 -0.6683 -0.5015
 5566SOL    HW217598   1.824   3.263   3.569  1.4700  0.9207  1.9927
 5567SOL     OW17599   1.256   6.157   0.275 -0.5709 -0.6087  0.3162
 5567SOL    HW117600   1.174   6.101   0.265 -1.4879  0.8565 -0.7458
 5567SOL    HW217601   1.328   6.124   0.214 -1.4151 -0.1070 -0.9804
 5568SOL     OW17602   0.365   6.087   0.372 -0.5131  0.4566  0.0849
 5568SOL    HW117603   0.406   6.124   0.455 -1.3968  0.6858  0.4270
 5568SOL    HW217604   0.405   6.132   0.292 -0.1875  0.7653  0.4175
 5569SOL     OW17605   6.555   0.023   0.166  0.1923  0.2806  0.0905
 5569SOL    HW117606   6.576   0.099   0.105 -1.1456 -0.0185 -0.8139
 5569SOL    HW217607   6.455   0.013   0.172  0.2688  0.4975  2.6226
 5570SOL     OW17608   3.694   2.370   6.312  0.1557  0.0448 -0.1260
 5570SOL    HW117609   3.745   2.312   6.248  0.5963 -0.9354  1.0801
 5570SOL    HW217610   3.621   2.317   6.354 -1.5271  1.2615 -1.3481
 5571SOL     OW17611   6.739   3.750   6.367  0.2386  0.4271 -0.4154
 5571SOL    HW117612   6.826   3.732   6.413  0.4688  0.1470 -0.9546
 5571SOL    HW217613   6.752   3.822   6.299 -0.6217  2.5718  1.5732
 5572SOL     OW17614   0.278   3.131   6.071 -0.4367 -0.0763  0.0167
 5572SOL    HW117615   0.290   3.231   6.075  0.1260 -0.1697  2.1359
 5572SOL    HW217616   0.180   3.109   6.078 -0.4498  0.3151  1.3174
 5573SOL     OW17617   4.917   6.299   4.914 -0.3599 -0.7243 -0.0484
 5573SOL    HW117618   4.920   6.238   4.993  0.3784 -0.1723  0.3688
 5573SOL    HW217619   4.967   6.383   4.936  1.0083 -1.0966 -1.5682
 5574SOL     OW17620   3.109   2.161   2.422 -0.1307 -0.2392 -0.2106
 5574SOL    HW117621   3.136   2.070   2.454  0.5346  0.4619  1.2835
 5574SOL    HW217622   3.071   2.213   2.498 -2.4030  0.0702 -1.4765
 5575SOL     OW17623   1.815   2.548   3.098  0.7022  0.4041 -0.8226
 5575SOL    HW117624   1.845   2.454   3.115  0.8830  0.3673 -1.3235
 5575SOL    HW217625   1.715   2.551   3.097  0.6193  0.6762  1.7001
 5576SOL     OW17626   6.603   3.911   4.769  0.1827  0.0733  0.5042
 5576SOL    HW117627   6.561   3.989   4.814 -0.4448  0.7813 -1.2150
 5576SOL    HW217628   6.701   3.910   4.789  0.1591  1.1721  0.7476
 5577SOL     OW17629   3.140   6.909   0.413 -0.4671 -0.0880 -0.4099
 5577SOL    HW117630   3.181   6.830   0.366 -1.5319 -0.5758 -0.5506
 5577SOL    HW217631   3.115   6.883   0.506  0.1615  0.4103 -0.0931
 5578SOL     OW17632   4.368   1.693   6.654 -0.5350 -0.0187 -0.4982
 5578SOL    HW117633   4.285   1.737   6.688 -0.3411 -1.3842  1.9376
 5578SOL    HW217634   4.359   1.594   6.660  1.3860 -0.2031  0.1995
 5579SOL     OW17635   0.931   3.394   6.560 -0.5170  0.3103  0.2566
 5579SOL    HW117636   0.905   3.443   6.643 -0.9817  1.4116 -0.5071
 5579SOL    HW217637   0.868   3.418   6.486  0.2083 -0.2163 -0.5565
 5580SOL     OW17638   5.641   2.037   5.646  0.3101  0.3061  0.2180
 5580SOL    HW117639   5.682   2.073   5.730  0.5843  0.4969  0.0059
 5580SOL    HW217640   5.624   2.113   5.583  1.0468  0.0428 -0.3019
 5581SOL     OW17641   6.284   0.715   3.946  0.3635  0.6868 -0.3518
 5581SOL    HW117642   6.327   0.776   4.012 -2.7109  1.1207  1.4231
 5581SOL    HW217643   6.264   0.627   3.989 -0.6454  0.5629 -1.0425
 5582SOL     OW17644   4.519   6.630   6.601 -0.0718  0.7333  0.2452
 5582SOL    HW117645   4.570   6.710   6.568 -0.0190  0.2478 -0.8982
 5582SOL    HW217646   4.494   6.644   6.697 -0.3730  2.2776 -0.0287
 5583SOL     OW17647   5.687   1.962   1.326 -0.3707 -0.1818 -0.1847
 5583SOL    HW117648   5.677   2.022   1.406 -0.6349 -2.3316  1.4969
 5583SOL    HW217649   5.619   1.987   1.257 -0.6026  1.3002  0.5405
 5584SOL     OW17650   3.998   1.962   4.368 -0.2631  0.2132  0.1647
 5584SOL    HW117651   3.944   1.889   4.409 -0.7206  0.2774 -0.3024
 5584SOL    HW217652   4.063   1.998   4.435  1.2729 -1.8629 -0.1230
 5585SOL     OW17653   2.001   4.491   6.721  0.4809  0.2420  0.0907
 5585SOL    HW117654   1.905   4.503   6.746  0.8089  1.4859  0.8217
 5585SOL    HW217655   2.033   4.570   6.670  0.9904 -0.4089 -0.6282
 5586SOL     OW17656   3.678   0.916   4.564  0.5183 -0.0614  0.2990
 5586SOL    HW117657   3.673   1.010   4.532  1.6192  0.1485  0.6731
 5586SOL    HW217658   3.686   0.854   4.486 -0.0922  0.1587  0.0590
 5587SOL     OW17659   3.433   0.741   6.671 -0.1093 -0.2403  0.0520
 5587SOL    HW117660   3.343   0.783   6.657  0.0430 -0.1465 -0.7049
 5587SOL    HW217661   3.459   0.691   6.589  1.5507  1.6956 -0.6976
 5588SOL     OW17662   3.214   0.699   0.383 -0.0235 -0.0283 -0.3732
 5588SOL    HW117663   3.144   0.762   0.349  0.7010  0.1830 -1.5304
 5588SOL    HW217664   3.236   0.722   0.478 -1.9517 -0.5066  0.2334
 5589SOL     OW17665   6.853   5.021   4.211 -0.2457 -0.0414 -0.3855
 5589SOL    HW117666   6.912   5.044   4.133 -1.3130  1.5345 -0.7838
 5589SOL    HW217667   6.847   5.100   4.272 -1.5784 -0.3395 -0.1093
 5590SOL     OW17668   3.147   5.746   0.554  0.3948 -0.0768  0.0980
 5590SOL    HW117669   3.198   5.682   0.497  0.9753  1.3485 -1.0361
 5590SOL    HW217670   3.155   5.719   0.650 -0.7518 -2.6205 -0.4453
 5591SOL     OW17671   4.902   0.254   5.872 -0.2520 -0.3193 -0.1194
 5591SOL    HW117672   4.817   0.302   5.897 -0.1561  0.5194 -1.3249
 5591SOL    HW217673   4.981   0.307   5.904 -0.1355 -1.4386  1.6204
 5592SOL     OW17674   5.483   1.174   2.003  0.0407 -0.2695 -0.1616
 5592SOL    HW117675   5.398   1.159   2.053  0.6868 -0.7861  0.8006
 5592SOL    HW217676   5.561   1.158   2.063  0.8309 -0.0433 -1.0973
 5593SOL     OW17677   6.019   1.629   0.105  0.4481  0.1582  0.8624
 5593SOL    HW117678   5.993   1.573   0.183  0.0202 -1.9749 -0.7216
 5593SOL    HW217679   5.947   1.626   0.036  0.8898  1.8516  0.2789
 5594SOL     OW17680   5.653   4.879   5.059  0.2406 -0.1928 -0.0557
 5594SOL    HW117681   5.656   4.979   5.061  1.6511 -0.2277  0.3818
 5594SOL    HW217682   5.653   4.844   5.153  1.8221 -0.6327 -0.2036
 5595SOL     OW17683   1.363   3.539   2.043  0.2658 -0.2216  0.2262
 5595SOL    HW117684   1.401   3.629   2.059 -2.1191  1.1597 -1.2933
 5595SOL    HW217685   1.359   3.521   1.945 -0.6619 -1.3272  0.4381
 5596SOL     OW17686   4.734   5.752   3.347  0.6679  0.1536  0.4006
 5596SOL    HW117687   4.736   5.833   3.406 -0.9671  1.0837 -0.7388
 5596SOL    HW217688   4.669   5.685   3.385 -0.9301  1.0491 -0.6083
 5597SOL     OW17689   4.775   4.180   6.981 -0.0827  0.0006  0.4403
 5597SOL    HW117690   4.870   4.193   6.953 -0.1829 -0.9303 -0.4054
 5597SOL    HW217691   4.759   4.225   7.068 -0.0096  3.9563 -1.3936
 5598SOL     OW17692   4.816   4.333   4.560 -0.1562 -0.1011  0.4011
 5598SOL    HW117693   4.875   4.412   4.543 -0.1501  0.2772  2.0300
 5598SOL    HW217694   4.867   4.249   4.540  0.2936  0.2639 -0.0223
 5599SOL     OW17695   6.011   3.610   1.986 -0.9711  0.4741  0.0757
 5599SOL    HW117696   6.110   3.625   1.987 -1.2651  2.8404 -0.8493
 5599SOL    HW217697   5.964   3.696   1.970 -3.2425 -0.5109  0.9608
 5600SOL     OW17698   6.805   2.713   0.651  0.2057  0.0889 -0.0741
 5600SOL    HW117699   6.753   2.652   0.591  0.9420 -1.5948  0.9349
 5600SOL    HW217700   6.766   2.710   0.743  1.0963  0.0627  0.3114
 5601SOL     OW17701   5.612   2.850   1.481 -0.1316 -1.2871 -0.4450
 5601SOL    HW117702   5.648   2.914   1.549  1.7089 -0.8773 -1.7253
 5601SOL    HW217703   5.514   2.864   1.471  0.1291  1.0403 -0.3417
 5602SOL     OW17704   1.875   0.628   4.361  0.2185  0.0237  0.1405
 5602SOL    HW117705   1.819   0.546   4.363 -0.1267  0.2680  1.0556
 5602SOL    HW217706   1.878   0.664   4.267 -1.8633  0.4749  0.1944
 5603SOL     OW17707   0.629   3.185   1.928 -0.4831 -0.1814  0.7451
 5603SOL    HW117708   0.620   3.118   1.854 -1.2855 -0.6095  1.2103
 5603SOL    HW217709   0.636   3.276   1.889 -0.2097 -0.4624  0.1192
 5604SOL     OW17710   2.420   6.828   5.269  0.1708  0.1643 -0.4091
 5604SOL    HW117711   2.375   6.744   5.298  0.7656 -0.1986 -0.5165
 5604SOL    HW217712   2.392   6.904   5.328 -0.8499  0.0239 -0.7015
 5605SOL     OW17713   1.023   6.924   0.167 -0.2176  0.3375 -0.0166
 5605SOL    HW117714   1.053   6.852   0.105 -2.2390  0.5844 -1.3878
 5605SOL    HW217715   1.085   7.002   0.160  0.4127 -0.2061 -0.6394
 5606SOL     OW17716   6.040   6.315   5.553 -0.1321 -0.1344  0.1755
 5606SOL    HW117717   6.028   6.229   5.502 -2.3926 -0.0267  0.4005
 5606SOL    HW217718   6.044   6.295   5.651  0.7529 -0.0746  0.1559
 5607SOL     OW17719   0.112   0.202   0.953 -0.0337 -0.7432 -0.4633
 5607SOL    HW117720   0.196   0.155   0.980  0.7278  0.3229 -0.8888
 5607SOL    HW217721   0.101   0.285   1.008  0.1375  0.0509 -1.5927
 5608SOL     OW17722   0.409   4.568   1.743  0.1236 -0.8380  0.0059
 5608SOL    HW117723   0.353   4.576   1.660  1.1027 -1.2113 -0.7080
 5608SOL    HW217724   0.364   4.618   1.818 -0.0704  0.7545 -1.1147
 5609SOL     OW17725   1.066   6.674   3.783  0.1595 -0.4215  0.1149
 5609SOL    HW117726   1.054   6.623   3.868 -0.5896 -0.2808  0.1033
 5609SOL    HW217727   1.133   6.627   3.725  1.7155  0.2269  1.3430
 5610SOL     OW17728   4.702   2.055   2.822 -0.0274 -0.0775  0.3005
 5610SOL    HW117729   4.708   2.038   2.723  0.9714  0.0975  0.3163
 5610SOL    HW217730   4.607   2.046   2.852 -0.2548 -0.7195 -0.5691
 5611SOL     OW17731   4.434   1.998   1.416  0.0926  0.7055  0.5140
 5611SOL    HW117732   4.507   1.989   1.348  0.7877  2.0341  1.0591
 5611SOL    HW217733   4.347   1.970   1.374  0.8711 -0.8335 -0.1599
 5612SOL     OW17734   2.060   4.582   5.024  0.5362  0.0148 -0.4743
 5612SOL    HW117735   2.044   4.631   5.109 -0.5644  2.7475 -2.1488
 5612SOL    HW217736   1.979   4.529   4.999  0.1337  0.7743 -0.7868
 5613SOL     OW17737   0.434   6.660   2.669 -0.1220  0.2896  0.2406
 5613SOL    HW117738   0.428   6.704   2.758 -0.2500  2.4540 -0.7661
 5613SOL    HW217739   0.435   6.730   2.597 -1.2453 -1.3928 -1.5288
 5614SOL     OW17740   6.704   1.201   1.393 -0.3493 -0.4830  0.2036
 5614SOL    HW117741   6.735   1.163   1.480  1.3770 -1.6951 -0.8718
 5614SOL    HW217742   6.736   1.143   1.318 -1.3902  0.7772 -1.2894
 5615SOL     OW17743   2.871   4.196   1.551 -0.0985 -0.5634  0.0417
 5615SOL    HW117744   2.858   4.213   1.453  2.7591 -0.8692 -0.4845
 5615SOL    HW217745   2.809   4.255   1.604 -1.3313 -0.0085 -1.9167
 5616SOL     OW17746   3.077   1.840   0.309  0.2764  0.7426 -0.5042
 5616SOL    HW117747   3.045   1.774   0.376 -0.6442 -1.5257 -3.0003
 5616SOL    HW217748   2.999   1.874   0.256  1.1132  1.4313 -1.3265
 5617SOL     OW17749   5.484   0.164   6.598 -0.5431  0.1727  0.6846
 5617SOL    HW117750   5.422   0.097   6.558  1.0613 -2.7642  2.6837
 5617SOL    HW217751   5.521   0.223   6.526 -2.2484 -0.8933 -1.1547
 5618SOL     OW17752   5.582   4.454   4.728 -0.2461 -0.0340 -0.4781
 5618SOL    HW117753   5.530   4.536   4.752  3.2030  2.0721  0.5168
 5618SOL    HW217754   5.612   4.407   4.811  1.0040 -0.0639 -0.9198
 5619SOL     OW17755   3.727   3.330   4.727  0.5459 -0.9215  0.4489
 5619SOL    HW117756   3.782   3.370   4.654  1.5104 -0.8918  1.1705
 5619SOL    HW217757   3.669   3.400   4.767 -0.8303 -1.1827 -1.0172
 5620SOL     OW17758   3.130   6.558   2.824  0.2472 -0.2615 -0.0371
 5620SOL    HW117759   3.200   6.611   2.873  0.5091  0.4130 -1.1120
 5620SOL    HW217760   3.041   6.601   2.836 -0.2307 -1.6974  2.2098
 5621SOL     OW17761   2.927   0.712   5.466 -0.2869  0.5282  0.3269
 5621SOL    HW117762   2.833   0.716   5.432  0.0284  0.2534 -0.5919
 5621SOL    HW217763   2.991   0.739   5.394  0.4826 -1.3787  0.2463
 5622SOL     OW17764   4.086   6.857   3.221  0.3530  0.2998  0.1019
 5622SOL    HW117765   4.088   6.781   3.286  0.8477  0.6243  0.4760
 5622SOL    HW217766   4.148   6.837   3.146  1.4685  0.8814  0.8429
 5623SOL     OW17767   4.381   5.444   4.412 -0.2389  0.6013  0.4689
 5623SOL    HW117768   4.441   5.424   4.335 -1.4774  0.8740 -0.6104
 5623SOL    HW217769   4.303   5.381   4.411 -0.3093  0.6642  1.4546
 5624SOL     OW17770   0.593   6.357   1.690  0.1257  0.0462  0.7815
 5624SOL    HW117771   0.665   6.302   1.732  0.1611 -0.8159 -0.3588
 5624SOL    HW217772   0.612   6.454   1.703  0.4772 -0.1902  2.1478
 5625SOL     OW17773   1.575   6.969   6.518  0.2721 -0.3816  0.1966
 5625SOL    HW117774   1.517   6.919   6.582 -0.5182 -1.3456 -1.2297
 5625SOL    HW217775   1.563   6.932   6.426  0.7104  1.5342 -0.6815
 5626SOL     OW17776   1.164   0.745   1.178 -0.2422  0.4604 -0.0584
 5626SOL    HW117777   1.163   0.651   1.143 -1.3342  0.0917  0.8924
 5626SOL    HW217778   1.246   0.759   1.234 -0.8267 -0.4260  1.0514
 5627SOL     OW17779   2.524   0.873   1.345 -0.1362  0.3018 -0.0779
 5627SOL    HW117780   2.440   0.924   1.359  0.6266  1.2505  1.1869
 5627SOL    HW217781   2.506   0.775   1.359 -0.8222  0.5855  1.2171
 5628SOL     OW17782   0.276   6.907   6.253  0.2660 -0.4386  0.1874
 5628SOL    HW117783   0.310   6.872   6.341 -2.2438 -0.4081  1.2407
 5628SOL    HW217784   0.329   6.987   6.227  0.0233  0.5630  2.5378
 5629SOL     OW17785   1.772   3.052   0.446  0.3114  0.0847  0.0685
 5629SOL    HW117786   1.684   3.036   0.490  0.8786 -1.5286  0.7260
 5629SOL    HW217787   1.759   3.061   0.348 -0.4996 -1.2036  0.0338
 5630SOL     OW17788   3.618   5.540   6.016 -0.7403 -0.0374 -0.3204
 5630SOL    HW117789   3.630   5.443   5.997  0.7687  0.0130  0.2323
 5630SOL    HW217790   3.537   5.554   6.073 -1.6929 -0.8223 -1.4615
 5631SOL     OW17791   0.846   6.437   4.652  0.5449 -0.5632 -0.5290
 5631SOL    HW117792   0.751   6.414   4.669  0.6946 -1.1645 -0.4582
 5631SOL    HW217793   0.870   6.411   4.558  0.9653 -1.5737 -0.1563
 5632SOL     OW17794   0.499   2.812   0.084  0.1572  0.1505 -0.3718
 5632SOL    HW117795   0.550   2.868   0.018 -0.3288  0.4683 -0.4769
 5632SOL    HW217796   0.560   2.785   0.158  0.3306  1.0288 -0.1876
 5633SOL     OW17797   0.233   4.608   1.558 -0.1208 -0.2544  0.5474
 5633SOL    HW117798   0.138   4.615   1.588  0.2052 -0.0183  1.5528
 5633SOL    HW217799   0.238   4.555   1.474 -1.2010  0.1744  0.1995
 5634SOL     OW17800   2.919   3.304   1.376  0.9419 -0.1896  0.0622
 5634SOL    HW117801   2.982   3.227   1.381  1.7079  0.4256  0.0601
 5634SOL    HW217802   2.825   3.271   1.385  1.2453 -1.1456 -0.2007
 5635SOL     OW17803   2.898   3.511   3.588 -0.0049  0.5258 -0.1805
 5635SOL    HW117804   2.858   3.423   3.563 -0.6713  0.3335  1.4090
 5635SOL    HW217805   2.992   3.517   3.554 -0.1288 -0.5798 -0.7485
 5636SOL     OW17806   3.660   6.446   1.841  0.0214  0.2985  0.1825
 5636SOL    HW117807   3.655   6.487   1.750 -0.7372 -2.3007 -1.0308
 5636SOL    HW217808   3.753   6.410   1.856  0.2273  0.9794  0.5707
 5637SOL     OW17809   0.055   4.262   5.155 -0.0104 -0.3540  0.6690
 5637SOL    HW117810   0.066   4.165   5.176 -1.6158 -0.5810  0.5545
 5637SOL    HW217811   0.053   4.275   5.056 -0.4049 -0.2867  0.6844
 5638SOL     OW17812   1.631   6.642   3.064  0.4346 -0.0866  0.7036
 5638SOL    HW117813   1.599   6.737   3.068 -0.1901 -0.1654 -1.2921
 5638SOL    HW217814   1.587   6.589   3.136 -0.5293  0.7784  0.7820
 5639SOL     OW17815   2.073   1.341   0.739 -0.3514 -0.5951  0.2694
 5639SOL    HW117816   2.139   1.267   0.755  0.2297 -0.1765 -0.1569
 5639SOL    HW217817   1.989   1.322   0.789  0.8264 -0.1206  2.5623
 5640SOL     OW17818   5.385   6.165   2.157  0.2259  0.7483  0.1085
 5640SOL    HW117819   5.324   6.090   2.132  0.0211  0.6910  0.7673
 5640SOL    HW217820   5.445   6.137   2.232 -0.3938  1.4848  0.9025
 5641SOL     OW17821   1.358   2.296   2.096 -0.7608 -0.2126 -0.2487
 5641SOL    HW117822   1.371   2.301   2.195  0.0571 -0.2835 -0.3480
 5641SOL    HW217823   1.338   2.387   2.060 -0.3820 -0.0704 -0.1053
 5642SOL     OW17824   5.033   6.271   1.787 -0.1119  0.2880 -0.2939
 5642SOL    HW117825   4.973   6.274   1.708 -0.1961  0.7099 -0.2175
 5642SOL    HW217826   5.100   6.345   1.781  0.2166 -0.0006 -0.2345
 5643SOL     OW17827   5.188   6.925   0.560  0.1162  0.1345  0.7846
 5643SOL    HW117828   5.162   7.002   0.502  1.5899 -1.0879 -1.6433
 5643SOL    HW217829   5.106   6.884   0.601 -1.0124  0.8979 -0.6264
 5644SOL     OW17830   3.933   6.401   3.485 -0.1853  0.4912 -0.3105
 5644SOL    HW117831   3.903   6.307   3.504  0.0167  0.4715 -0.0941
 5644SOL    HW217832   3.947   6.412   3.387  0.3464  0.1298 -0.2784
 5645SOL     OW17833   4.617   1.590   1.934  0.0380 -0.0869 -0.1391
 5645SOL    HW117834   4.579   1.498   1.941 -2.0655  0.5911 -1.5146
 5645SOL    HW217835   4.698   1.589   1.874  0.4275 -1.1166  0.3914
 5646SOL     OW17836   6.251   4.531   6.181 -0.1647 -0.0246 -0.0368
 5646SOL    HW117837   6.300   4.486   6.256  1.1687 -0.1308 -0.9380
 5646SOL    HW217838   6.177   4.586   6.219 -1.3304 -2.2815  1.1568
 5647SOL     OW17839   6.733   2.591   6.695 -0.5926 -0.3778  0.5229
 5647SOL    HW117840   6.772   2.516   6.642 -2.5961 -1.1782  0.0775
 5647SOL    HW217841   6.676   2.554   6.768 -1.9617  0.6700  0.0363
 5648SOL     OW17842   5.624   5.321   6.810  0.4006  0.8140 -0.4997
 5648SOL    HW117843   5.580   5.343   6.723 -0.2707  0.7945 -0.1713
 5648SOL    HW217844   5.624   5.402   6.868  1.0909  0.9028 -0.6100
 5649SOL     OW17845   2.041   0.052   3.987 -0.1583 -0.2187  0.2665
 5649SOL    HW117846   2.063   0.023   4.080  0.0906 -0.1548  0.2277
 5649SOL    HW217847   2.099   0.003   3.921 -2.0588 -2.1570 -0.0558
 5650SOL     OW17848   1.375   6.910   2.887 -0.2604  0.4484  0.2325
 5650SOL    HW117849   1.460   6.934   2.933  0.3145 -0.8226 -0.1202
 5650SOL    HW217850   1.298   6.928   2.948  0.4509 -0.7773  1.5565
 5651SOL     OW17851   2.535   3.600   0.321 -0.1263  0.5081 -0.3283
 5651SOL    HW117852   2.587   3.524   0.283 -0.1989  0.3663 -0.1477
 5651SOL    HW217853   2.578   3.686   0.295 -0.8348  0.4659 -1.7381
 5652SOL     OW17854   2.989   6.489   5.027  0.5990  0.0614 -0.1014
 5652SOL    HW117855   2.972   6.422   4.955  1.1999 -0.1898 -0.0154
 5652SOL    HW217856   2.944   6.575   5.003  2.7610  0.7668 -2.0414
 5653SOL     OW17857   4.913   2.845   6.718 -0.1623 -0.1953 -0.0023
 5653SOL    HW117858   4.906   2.932   6.668 -0.4164 -0.0830  0.2253
 5653SOL    HW217859   4.898   2.769   6.654  0.9809 -0.1144 -0.3874
 5654SOL     OW17860   2.310   1.322   2.975  0.3566 -0.0468 -0.2849
 5654SOL    HW117861   2.407   1.333   2.998  0.3555  1.9036 -1.0463
 5654SOL    HW217862   2.300   1.316   2.875 -0.4038  1.1462 -0.2946
 5655SOL     OW17863   4.999   5.154   5.132  0.1198  0.0326 -0.4224
 5655SOL    HW117864   4.987   5.170   5.034 -0.9204 -2.0427 -0.7014
 5655SOL    HW217865   5.083   5.198   5.164  0.1589  1.2523 -2.0946
 5656SOL     OW17866   3.207   0.847   4.146 -0.2978 -0.5468  0.4865
 5656SOL    HW117867   3.233   0.896   4.229  0.2606 -1.7257  1.0228
 5656SOL    HW217868   3.178   0.913   4.077  0.7051  0.5608  1.0842
 5657SOL     OW17869   5.408   1.820   1.787  0.1508  0.0855  0.1480
 5657SOL    HW117870   5.484   1.836   1.725  0.2014 -1.1094 -0.1302
 5657SOL    HW217871   5.328   1.790   1.735 -0.0364 -0.1942  0.5854
 5658SOL     OW17872   5.894   4.945   0.903  0.1064  0.0215  0.2712
 5658SOL    HW117873   5.839   4.863   0.914 -0.9977  0.3362 -2.1939
 5658SOL    HW217874   5.985   4.930   0.941 -0.8330 -1.4189  2.1006
 5659SOL     OW17875   2.322   5.861   4.537  0.6353  0.4244 -0.2391
 5659SOL    HW117876   2.361   5.787   4.483 -0.2699  0.7563 -1.3936
 5659SOL    HW217877   2.271   5.923   4.477 -0.1628  0.9718  0.9528
 5660SOL     OW17878   3.505   4.202   1.829 -0.5665  0.4337 -0.0717
 5660SOL    HW117879   3.500   4.126   1.764  0.6023  0.3077 -0.0510
 5660SOL    HW217880   3.531   4.286   1.780  2.1270 -0.0242  0.4037
 5661SOL     OW17881   0.906   2.633   6.749 -0.0572  0.1795 -0.3310
 5661SOL    HW117882   0.868   2.701   6.686 -2.1984  0.0515  0.7206
 5661SOL    HW217883   0.870   2.542   6.725 -0.5634  0.0707  0.7727
 5662SOL     OW17884   2.000   1.376   4.792  0.0370  0.3594 -0.3690
 5662SOL    HW117885   1.973   1.289   4.834 -1.5276  0.8545 -0.2777
 5662SOL    HW217886   1.944   1.393   4.711 -2.2795  2.8775  1.5379
 5663SOL     OW17887   2.513   0.175   6.606 -0.0887 -0.1925  0.1921
 5663SOL    HW117888   2.546   0.219   6.690  3.6046  0.5004 -1.4242
 5663SOL    HW217889   2.527   0.237   6.528 -1.8814 -1.4357 -1.2144
 5664SOL     OW17890   5.325   1.149   1.307  0.5022 -0.1316  0.4044
 5664SOL    HW117891   5.386   1.149   1.228 -1.6924 -1.1150 -1.4045
 5664SOL    HW217892   5.375   1.120   1.389  2.4955 -0.5246 -0.8999
 5665SOL     OW17893   5.578   3.881   3.301  0.4120  0.3876 -0.1915
 5665SOL    HW117894   5.568   3.782   3.308  1.3907  0.2911  0.0223
 5665SOL    HW217895   5.574   3.907   3.204  2.5110 -0.1721 -0.4913
 5666SOL     OW17896   3.159   0.438   1.430  0.1006 -0.0775 -0.2726
 5666SOL    HW117897   3.085   0.414   1.367  0.9453 -1.9030 -0.6398
 5666SOL    HW217898   3.244   0.395   1.399  1.3451  1.9972  0.1317
 5667SOL     OW17899   2.723   4.944   6.129 -0.1764  0.5490 -0.1016
 5667SOL    HW117900   2.769   5.015   6.182 -0.9262  1.1188 -0.1967
 5667SOL    HW217901   2.626   4.942   6.151 -0.1735 -0.4607 -0.0972
 5668SOL     OW17902   6.519   1.098   0.778 -0.2473  0.5885 -0.0746
 5668SOL    HW117903   6.543   1.076   0.872 -1.4173 -0.7416 -0.0575
 5668SOL    HW217904   6.533   1.196   0.762 -0.9994  1.0429  1.7945
 5669SOL     OW17905   1.348   3.087   0.417  0.2103  0.0752  0.0420
 5669SOL    HW117906   1.384   3.095   0.324 -2.5408  0.9797 -1.0613
 5669SOL    HW217907   1.258   3.130   0.421 -0.3175 -1.0789  2.8377
 5670SOL     OW17908   4.254   1.766   0.617 -0.3866  0.2888  0.3217
 5670SOL    HW117909   4.336   1.751   0.562 -2.2107  2.3202 -3.2860
 5670SOL    HW217910   4.265   1.849   0.671 -0.1213  0.6967 -0.3448
 5671SOL     OW17911   3.876   6.916   3.502 -0.1925  0.4954  0.0237
 5671SOL    HW117912   3.854   6.873   3.590 -1.0952 -0.5411 -0.6706
 5671SOL    HW217913   3.935   6.855   3.449 -1.7830 -0.1213 -1.1247
 5672SOL     OW17914   5.121   5.869   3.481 -0.1219  0.2000 -0.1558
 5672SOL    HW117915   5.145   5.825   3.568 -0.1005 -0.2582 -0.3871
 5672SOL    HW217916   5.157   5.962   3.480  0.5425 -0.0432  0.0265
 5673SOL     OW17917   6.595   0.866   2.794  0.2162  0.5960 -0.3877
 5673SOL    HW117918   6.503   0.904   2.806  0.3989  1.0694 -0.4481
 5673SOL    HW217919   6.614   0.802   2.868  0.3360  1.5117  0.4084
 5674SOL     OW17920   5.925   6.166   1.732  0.3268 -0.2088 -0.4011
 5674SOL    HW117921   5.931   6.189   1.634 -0.5251 -0.0337 -0.4253
 5674SOL    HW217922   5.829   6.152   1.756  0.4956  0.1934  0.5150
 5675SOL     OW17923   2.977   0.190   2.273  0.1224  0.0893  0.0351
 5675SOL    HW117924   2.899   0.189   2.336 -0.4866 -1.4713 -0.6858
 5675SOL    HW217925   3.018   0.281   2.272 -2.2904  1.2584 -0.2685
 5676SOL     OW17926   2.340   6.317   6.644  0.1772  0.6522  0.1069
 5676SOL    HW117927   2.419   6.256   6.645 -0.7239 -0.5679  0.3705
 5676SOL    HW217928   2.340   6.371   6.561 -0.1833 -1.3834 -1.2973
 5677SOL     OW17929   1.745   5.321   1.665  0.3195  0.1264  0.0880
 5677SOL    HW117930   1.832   5.272   1.671  0.0529 -0.1981  1.7647
 5677SOL    HW217931   1.760   5.409   1.620  1.3237 -0.3074 -0.4818
 5678SOL     OW17932   2.260   3.629   6.753 -0.1254 -0.3239  0.4303
 5678SOL    HW117933   2.179   3.685   6.772  0.6179  0.1467  2.4263
 5678SOL    HW217934   2.236   3.532   6.760 -0.3433 -0.1830  1.9680
 5679SOL     OW17935   1.055   4.586   4.108  0.3689 -0.0952  0.1149
 5679SOL    HW117936   0.986   4.522   4.142  1.7882 -1.6031  0.2696
 5679SOL    HW217937   1.145   4.542   4.110  1.2447  1.5820 -0.7262
 5680SOL     OW17938   5.830   3.070   1.172  0.4065  0.0234 -0.0521
 5680SOL    HW117939   5.860   3.054   1.266  3.7039  1.2433 -0.7680
 5680SOL    HW217940   5.892   3.134   1.127 -0.6440 -1.0164 -3.3016
 5681SOL     OW17941   5.514   1.310   2.947 -0.2709 -0.1797  0.0199
 5681SOL    HW117942   5.500   1.262   2.860  1.4055  2.2058 -1.6865
 5681SOL    HW217943   5.611   1.329   2.960 -0.5798  0.2477  2.0365
 5682SOL     OW17944   4.335   1.324   0.956  0.9830  0.0430  0.0892
 5682SOL    HW117945   4.317   1.338   0.859  0.4101 -1.4280 -0.0489
 5682SOL    HW217946   4.249   1.315   1.005  1.2724  0.8049  0.7480
 5683SOL     OW17947   5.798   2.801   6.431  0.1460 -0.0772  0.4226
 5683SOL    HW117948   5.784   2.881   6.372  2.4348  0.5795  0.6623
 5683SOL    HW217949   5.862   2.738   6.387  1.1715 -0.0176  1.7690
 5684SOL     OW17950   2.026   4.561   1.494 -0.5680  0.7250 -0.1690
 5684SOL    HW117951   2.109   4.607   1.525 -0.7785  0.1703  1.3454
 5684SOL    HW217952   2.047   4.465   1.474 -0.6505  0.8291 -0.7664
 5685SOL     OW17953   5.458   4.519   6.449 -0.2865  0.3675 -0.4409
 5685SOL    HW117954   5.431   4.429   6.484 -0.3250 -0.2810 -2.0707
 5685SOL    HW217955   5.558   4.528   6.452 -0.2047 -0.1746 -1.2786
 5686SOL     OW17956   1.182   4.376   1.294 -0.7527  0.1989 -0.3530
 5686SOL    HW117957   1.095   4.370   1.343 -1.3668 -1.8647 -1.5266
 5686SOL    HW217958   1.164   4.379   1.195  0.4607 -1.2439 -0.6736
 5687SOL     OW17959   6.298   5.379   2.628  0.6625 -0.1459  0.4841
 5687SOL    HW117960   6.263   5.296   2.583  0.2110  0.4954 -0.3848
 5687SOL    HW217961   6.245   5.397   2.710  0.6886 -0.6567  0.6177
 5688SOL     OW17962   2.685   5.467   5.958  0.1177  0.2750  0.9419
 5688SOL    HW117963   2.617   5.423   5.899  0.4778  0.1459  0.6185
 5688SOL    HW217964   2.655   5.561   5.978  0.7866  0.9233 -0.8565
 5689SOL     OW17965   0.768   5.289   6.247  0.0620  0.2533  0.1293
 5689SOL    HW117966   0.679   5.307   6.205  0.6778 -0.7040 -1.7215
 5689SOL    HW217967   0.774   5.193   6.274 -0.2576  0.8162  2.3791
 5690SOL     OW17968   5.653   2.629   2.266 -0.6761 -0.8317  0.1071
 5690SOL    HW117969   5.669   2.609   2.363  1.2559 -2.6543 -0.4949
 5690SOL    HW217970   5.601   2.713   2.257  1.0398  0.6278  2.6899
 5691SOL     OW17971   5.231   3.649   6.503  0.7601 -0.1936  0.4577
 5691SOL    HW117972   5.196   3.701   6.581  0.7896 -0.8521  0.9159
 5691SOL    HW217973   5.242   3.553   6.529  1.1671 -0.3406 -0.2339
 5692SOL     OW17974   0.998   5.872   1.390 -0.3962 -0.1094  0.3516
 5692SOL    HW117975   0.981   5.781   1.426 -2.6435 -0.2672 -0.8979
 5692SOL    HW217976   0.913   5.924   1.389 -0.2400  0.3586 -3.2315
 5693SOL     OW17977   1.451   5.141   0.647 -0.0426 -0.3662 -0.2205
 5693SOL    HW117978   1.548   5.146   0.671  0.7106  5.5188 -2.8473
 5693SOL    HW217979   1.397   5.179   0.722  0.1311  0.1185 -0.3404
 5694SOL     OW17980   2.353   5.369   2.758  0.1787  0.5861  0.0355
 5694SOL    HW117981   2.333   5.456   2.803 -0.7493  0.5845 -0.3573
 5694SOL    HW217982   2.394   5.306   2.823  1.8623  1.6583  0.0780
 5695SOL     OW17983   4.910   3.736   6.173  0.1437 -0.0121  0.0495
 5695SOL    HW117984   4.851   3.805   6.132 -0.7229 -0.3667  0.6712
 5695SOL    HW217985   4.878   3.645   6.148  1.7623 -0.2317 -1.4442
 5696SOL     OW17986   2.792   2.575   6.049 -0.0599  0.6471 -0.0486
 5696SOL    HW117987   2.740   2.602   5.968 -1.5873  0.8266  0.9528
 5696SOL    HW217988   2.735   2.517   6.108  1.4804 -0.6221  0.2700
 5697SOL     OW17989   6.888   2.981   0.842  0.2163 -0.0821  0.0113
 5697SOL    HW117990   6.939   3.006   0.760  3.2925 -1.0976  1.4664
 5697SOL    HW217991   6.798   2.947   0.816  1.6215 -1.8373 -3.1232
 5698SOL     OW17992   0.691   6.137   4.237 -0.2106  0.5922 -0.3281
 5698SOL    HW117993   0.764   6.072   4.256  0.0009  0.6283 -0.9919
 5698SOL    HW217994   0.613   6.090   4.197 -0.5814  0.5476  0.4192
 5699SOL     OW17995   1.384   4.745   2.577  0.3308  0.5820 -0.1240
 5699SOL    HW117996   1.339   4.687   2.645 -1.0419  0.1080 -1.3901
 5699SOL    HW217997   1.466   4.698   2.543 -0.8959 -0.8147 -1.3178
 5700SOL     OW17998   4.982   5.329   2.409  0.2567  0.3531  0.1832
 5700SOL    HW117999   4.893   5.318   2.453  0.3191 -0.6129  0.0809
 5700SOL    HW218000   4.977   5.297   2.315  0.7252  0.2678  0.1846
 5701SOL     OW18001   0.906   6.257   6.384 -0.2475  0.1145 -0.0347
 5701SOL    HW118002   0.956   6.341   6.402  0.7660 -0.6793  0.9820
 5701SOL    HW218003   0.878   6.215   6.470  0.2574 -1.1616 -0.4684
 5702SOL     OW18004   6.242   3.755   2.322  0.3791 -0.3253  0.2925
 5702SOL    HW118005   6.146   3.738   2.303  0.5787 -1.4512  0.2278
 5702SOL    HW218006   6.263   3.851   2.305 -0.7559 -0.0376  0.4428
 5703SOL     OW18007   6.767   3.110   4.740 -0.0777  0.0180 -0.0817
 5703SOL    HW118008   6.760   3.186   4.805 -0.9566 -0.8451  0.8818
 5703SOL    HW218009   6.789   3.145   4.649 -3.8287  1.8544 -0.4625
 5704SOL     OW18010   3.985   3.615   0.507 -0.0066 -0.6093  0.1033
 5704SOL    HW118011   3.895   3.615   0.463  0.7576  2.0626 -1.7005
 5704SOL    HW218012   4.055   3.591   0.440  0.6979 -2.6749  1.4916
 5705SOL     OW18013   4.585   0.436   2.913  0.5781  0.2323  0.1446
 5705SOL    HW118014   4.644   0.400   2.841  0.1734  0.1205 -0.1361
 5705SOL    HW218015   4.509   0.487   2.871  1.0852  1.3332  0.5272
 5706SOL     OW18016   5.514   0.364   0.443  0.0705  0.2389 -0.4892
 5706SOL    HW118017   5.558   0.295   0.385  4.7991  2.8542 -0.6088
 5706SOL    HW218018   5.518   0.335   0.539  0.0084 -0.5408 -0.7162
 5707SOL     OW18019   6.877   3.655   4.557 -0.5060  0.1994 -0.2649
 5707SOL    HW118020   6.784   3.675   4.527 -0.3953 -0.3286 -1.0051
 5707SOL    HW218021   6.913   3.578   4.503 -0.6761 -1.5305  1.9621
 5708SOL     OW18022   6.205   4.850   1.574  0.0031 -0.5043 -0.6632
 5708SOL    HW118023   6.279   4.887   1.517 -0.5819  2.4339  0.3206
 5708SOL    HW218024   6.244   4.818   1.660  0.4229 -1.4435 -1.1870
 5709SOL     OW18025   4.814   5.769   4.086 -0.0515  0.2167  0.0355
 5709SOL    HW118026   4.911   5.778   4.109 -0.2127  0.4262  0.6474
 5709SOL    HW218027   4.779   5.857   4.054  0.0287  0.0679 -0.4744
 5710SOL     OW18028   5.688   1.069   6.793  0.4430  0.5463  0.0340
 5710SOL    HW118029   5.781   1.076   6.757  0.4258  0.0391 -0.1209
 5710SOL    HW218030   5.690   1.026   6.883  0.1803 -1.6885 -0.9545
 5711SOL     OW18031   4.585   2.677   4.252  0.4150 -0.2006  0.2685
 5711SOL    HW118032   4.513   2.666   4.184 -0.0517 -1.4562  0.9191
 5711SOL    HW218033   4.630   2.765   4.240 -1.5030  0.8038  0.1012
 5712SOL     OW18034   1.857   4.545   0.082 -0.2019 -0.3911  0.1771
 5712SOL    HW118035   1.831   4.450   0.094 -0.9584 -0.0312  1.5916
 5712SOL    HW218036   1.793   4.590   0.020 -1.2518 -0.2390  1.3466
 5713SOL     OW18037   2.067   3.433   3.140 -0.3826 -0.6916 -0.0244
 5713SOL    HW118038   2.040   3.340   3.165 -0.4500 -0.3760  1.1529
 5713SOL    HW218039   2.166   3.443   3.149 -0.3582 -0.6882 -0.2902
 5714SOL     OW18040   2.991   5.932   1.747 -0.2297  0.0444  0.1037
 5714SOL    HW118041   2.956   5.927   1.841 -1.9859  3.3605 -0.2172
 5714SOL    HW218042   2.952   5.858   1.693 -1.0303 -0.5671  1.4677
 5715SOL     OW18043   0.731   3.138   4.356 -0.3537 -0.2104 -0.1418
 5715SOL    HW118044   0.825   3.163   4.334 -1.2118  3.3029 -0.4526
 5715SOL    HW218045   0.682   3.113   4.273 -0.2750  0.2257 -0.3203
 5716SOL     OW18046   4.830   0.604   2.090  0.1471  0.0260 -0.3068
 5716SOL    HW118047   4.732   0.621   2.083  0.0254 -0.8012 -0.7663
 5716SOL    HW218048   4.845   0.513   2.131  0.7134  0.0028 -0.5636
 5717SOL     OW18049   1.313   2.160   3.251  0.4833 -0.0373 -0.0968
 5717SOL    HW118050   1.305   2.148   3.350 -2.4642 -0.5086 -0.3155
 5717SOL    HW218051   1.262   2.088   3.205  1.6102  0.3241 -1.9826
 5718SOL     OW18052   4.207   1.113   2.846 -0.2551  0.0611 -0.5245
 5718SOL    HW118053   4.268   1.062   2.906 -0.9292 -0.5666 -0.3651
 5718SOL    HW218054   4.167   1.190   2.897  0.1157  0.2602 -0.5284
 5719SOL     OW18055   4.989   4.350   3.462  0.0945  0.2574 -0.0474
 5719SOL    HW118056   5.083   4.383   3.477  0.1916 -0.3355  0.6880
 5719SOL    HW218057   4.991   4.251   3.444 -0.2676  0.4765 -1.4388
 5720SOL     OW18058   6.168   2.710   5.237  0.1409  0.0899  0.5169
 5720SOL    HW118059   6.262   2.742   5.251  0.0517  0.0834  1.1663
 5720SOL    HW218060   6.115   2.782   5.193  0.2829  0.3474  0.7625
 5721SOL     OW18061   4.482   5.632   6.645  0.4827 -0.3058 -0.6573
 5721SOL    HW118062   4.517   5.591   6.729  0.8631 -1.1271 -1.2078
 5721SOL    HW218063   4.556   5.639   6.578  0.2154  0.4741 -0.8861
 5722SOL     OW18064   5.480   5.929   0.533 -0.2815  0.3145 -0.1156
 5722SOL    HW118065   5.448   6.017   0.497 -1.7106 -0.4299 -0.7093
 5722SOL    HW218066   5.480   5.932   0.633  1.7493  1.6890 -0.0834
 5723SOL     OW18067   0.169   0.903   3.956 -0.2761 -0.3180  0.0372
 5723SOL    HW118068   0.088   0.957   3.981  0.0738  0.6853 -0.9156
 5723SOL    HW218069   0.151   0.853   3.871 -0.2228 -0.8730  0.3456
 5724SOL     OW18070   1.611   0.891   0.376 -0.6051  0.2748 -0.7666
 5724SOL    HW118071   1.524   0.920   0.417  0.4468  1.2028  0.9541
 5724SOL    HW218072   1.684   0.952   0.408  0.7425 -0.7185 -1.8602
 5725SOL     OW18073   2.372   4.507   1.636 -0.2241 -0.8590  0.1619
 5725SOL    HW118074   2.381   4.573   1.562 -0.3779 -1.6332 -0.5686
 5725SOL    HW218075   2.372   4.414   1.598  0.1477 -1.2922  1.1729
 5726SOL     OW18076   0.009   4.560   0.614  0.4205 -0.0144  0.2408
 5726SOL    HW118077   0.100   4.540   0.652  1.0049 -1.1435 -1.6254
 5726SOL    HW218078   0.016   4.568   0.514 -1.4769  0.2823  0.1044
 5727SOL     OW18079   5.562   4.934   5.622 -0.2202 -0.3265 -0.9083
 5727SOL    HW118080   5.526   4.992   5.694 -1.3663 -0.5147 -1.3126
 5727SOL    HW218081   5.493   4.868   5.594  1.0202 -1.8539 -0.5195
 5728SOL     OW18082   1.543   6.779   6.267  0.2502 -0.3182 -0.0211
 5728SOL    HW118083   1.639   6.749   6.268 -0.3145 -2.4869 -2.0734
 5728SOL    HW218084   1.494   6.736   6.343  0.9329  1.0859  1.2546
 5729SOL     OW18085   1.690   6.363   4.402 -0.0262  0.5360 -0.3683
 5729SOL    HW118086   1.731   6.309   4.475  0.9049  2.5720  0.7042
 5729SOL    HW218087   1.605   6.321   4.372  0.7866 -1.6268  0.1931
 5730SOL     OW18088   2.813   6.759   4.366 -0.1170 -0.5132  0.0386
 5730SOL    HW118089   2.847   6.671   4.401 -2.2029 -0.6868  1.8111
 5730SOL    HW218090   2.758   6.743   4.284  1.3712 -0.5527 -1.0050
 5731SOL     OW18091   1.684   4.278   6.029  0.5768  0.0455 -0.2111
 5731SOL    HW118092   1.733   4.234   5.953 -1.0244 -1.1595 -0.6068
 5731SOL    HW218093   1.640   4.362   5.996 -1.5589 -1.3521 -1.1756
 5732SOL     OW18094   4.196   0.230   4.555  0.1749  0.6567 -1.2427
 5732SOL    HW118095   4.217   0.139   4.592  0.8000  1.0026 -0.7332
 5732SOL    HW218096   4.172   0.222   4.458  0.2293 -0.0467 -1.2038
 5733SOL     OW18097   5.262   6.795   2.886 -0.0330 -0.3163  0.2326
 5733SOL    HW118098   5.361   6.802   2.869  0.2393 -2.8585  0.2783
 5733SOL    HW218099   5.239   6.699   2.905 -2.7761 -0.0795 -1.4060
 5734SOL     OW18100   2.840   5.605   0.704  0.3471  0.3700 -0.2478
 5734SOL    HW118101   2.779   5.528   0.719 -0.8293  1.1421 -0.9066
 5734SOL    HW218102   2.846   5.661   0.786  1.7370 -0.7446  0.4602
 5735SOL     OW18103   4.889   5.771   1.837  0.1560  0.0420 -0.2132
 5735SOL    HW118104   4.883   5.784   1.738 -2.6405 -0.5027 -0.1867
 5735SOL    HW218105   4.981   5.795   1.868  0.8640  1.0090 -2.8083
 5736SOL     OW18106   3.866   6.003   4.683  0.1907  0.3992 -0.1229
 5736SOL    HW118107   3.849   5.904   4.684 -0.5853  0.5168 -0.7497
 5736SOL    HW218108   3.862   6.037   4.589  2.5278  0.7095 -0.1691
 5737SOL     OW18109   4.588   5.579   3.473  0.0012  0.1436 -0.5556
 5737SOL    HW118110   4.578   5.488   3.434  2.4927 -0.9380  1.0708
 5737SOL    HW218111   4.508   5.600   3.530 -1.1055 -0.5320 -1.8188
 5738SOL     OW18112   1.398   6.791   3.299 -0.3092 -0.1291  0.8426
 5738SOL    HW118113   1.414   6.692   3.299  1.0354  0.0241  2.9700
 5738SOL    HW218114   1.326   6.813   3.364 -3.2541  0.0630 -2.2160
 5739SOL     OW18115   0.910   6.440   0.246  0.6122  0.1046  0.3233
 5739SOL    HW118116   1.005   6.431   0.276 -0.0491 -1.6291  2.1676
 5739SOL    HW218117   0.852   6.381   0.303 -1.8125  2.3667  0.3839
 5740SOL     OW18118   1.969   5.480   6.932 -0.0991  0.1836 -0.0860
 5740SOL    HW118119   1.885   5.533   6.917 -1.9532 -1.8330  2.2235
 5740SOL    HW218120   2.022   5.522   7.005 -1.2727 -0.6822  1.3336
 5741SOL     OW18121   1.180   5.709   2.128  0.1651 -0.3193 -0.2642
 5741SOL    HW118122   1.213   5.797   2.095  0.3763 -1.3619 -3.0768
 5741SOL    HW218123   1.082   5.702   2.111  0.0171 -0.4202  0.5587
 5742SOL     OW18124   2.136   1.055   4.624  0.1117  0.1312 -0.3244
 5742SOL    HW118125   2.173   1.143   4.594 -0.8674  0.9288  0.7721
 5742SOL    HW218126   2.177   0.982   4.568 -0.0195  1.3622 -2.1259
 5743SOL     OW18127   1.169   3.644   1.159  0.5454 -0.2995 -0.9362
 5743SOL    HW118128   1.089   3.609   1.208  0.4257  0.3199 -0.6813
 5743SOL    HW218129   1.245   3.655   1.223  0.1745  1.2000 -0.7305
 5744SOL     OW18130   6.412   3.539   2.295 -0.1154  0.0116 -0.4413
 5744SOL    HW118131   6.349   3.615   2.308 -0.2824  0.0356 -1.3164
 5744SOL    HW218132   6.438   3.534   2.199  1.5829  0.2865 -0.0268
 5745SOL     OW18133   1.756   4.718   6.000 -0.2191 -0.4527  0.5024
 5745SOL    HW118134   1.829   4.783   5.979 -0.5787 -0.5201 -1.1061
 5745SOL    HW218135   1.737   4.720   6.098  0.9742  0.5809  0.7419
 5746SOL     OW18136   3.977   1.500   5.604  0.0525 -0.2472 -0.8266
 5746SOL    HW118137   4.057   1.461   5.558 -0.4455 -0.9595 -1.1137
 5746SOL    HW218138   3.980   1.478   5.701 -0.0246 -0.6670 -0.9179
 5747SOL     OW18139   2.041   1.842   0.362 -0.0215  0.7652 -0.0257
 5747SOL    HW118140   1.988   1.925   0.376  0.1532  0.9962 -0.7108
 5747SOL    HW218141   1.988   1.778   0.306 -0.0131  0.5540  0.2054
 5748SOL     OW18142   3.601   6.242   2.869  0.1019  0.0553  0.2599
 5748SOL    HW118143   3.600   6.158   2.922 -0.9825 -0.4417 -0.5215
 5748SOL    HW218144   3.616   6.320   2.930  1.7023 -0.7222  0.9292
 5749SOL     OW18145   2.543   0.725   4.926  0.0023  0.0736 -0.2531
 5749SOL    HW118146   2.610   0.723   4.851 -0.7316  1.3854 -0.9734
 5749SOL    HW218147   2.499   0.635   4.934  0.0544 -0.0745 -1.4333
 5750SOL     OW18148   2.147   6.871   2.784 -0.2747 -1.0176  0.3589
 5750SOL    HW118149   2.107   6.960   2.806  0.8452 -0.8602  1.9948
 5750SOL    HW218150   2.074   6.804   2.773 -1.2159  0.3093 -2.2314
 5751SOL     OW18151   2.056   1.263   1.084 -0.4316 -0.2000  0.2131
 5751SOL    HW118152   2.130   1.329   1.071  0.0322 -0.4249  1.5619
 5751SOL    HW218153   1.974   1.295   1.038  0.0471  0.8508  0.0675
 5752SOL     OW18154   3.820   2.162   3.853  0.1831  0.5678 -0.2265
 5752SOL    HW118155   3.726   2.145   3.824  0.2986  2.4808 -1.8961
 5752SOL    HW218156   3.821   2.232   3.923  0.2969 -0.4983  0.8737
 5753SOL     OW18157   3.022   1.884   1.172 -0.2844  0.2670 -0.2746
 5753SOL    HW118158   3.028   1.853   1.267 -0.6168 -0.1618 -0.3856
 5753SOL    HW218159   2.939   1.846   1.131  1.3952 -2.1701 -1.6696
 5754SOL     OW18160   2.018   6.812   5.661  0.6025  0.1720 -1.3022
 5754SOL    HW118161   1.935   6.852   5.623 -0.8511 -0.1424  1.3152
 5754SOL    HW218162   2.037   6.725   5.615 -1.8519 -0.8665 -0.5272
 5755SOL     OW18163   0.700   5.925   5.095 -0.1994  0.0944 -0.3437
 5755SOL    HW118164   0.671   5.862   5.023 -0.3991 -0.5118  0.2579
 5755SOL    HW218165   0.651   5.904   5.180 -1.1030  1.7840 -0.4233
 5756SOL     OW18166   1.596   1.106   4.073  0.0550  0.2022  0.0787
 5756SOL    HW118167   1.608   1.014   4.109 -3.2649  0.1490  1.3998
 5756SOL    HW218168   1.573   1.168   4.148 -0.8434  1.4267 -1.1575
 5757SOL     OW18169   3.095   5.037   2.169  0.6011  0.8089  0.0391
 5757SOL    HW118170   3.086   4.957   2.111 -0.9232 -0.1480  1.5250
 5757SOL    HW218171   3.156   5.016   2.246 -1.3550  0.3619  1.5303
 5758SOL     OW18172   2.045   0.866   0.385  0.0316  0.6149  0.0500
 5758SOL    HW118173   2.067   0.892   0.479 -1.2025 -0.0092  0.5333
 5758SOL    HW218174   1.975   0.795   0.385  1.6969 -1.1511 -1.2935
 5759SOL     OW18175   4.952   6.706   2.913  0.0810  0.3258 -0.2260
 5759SOL    HW118176   5.037   6.666   2.878  0.4115  1.0028 -0.1987
 5759SOL    HW218177   4.894   6.633   2.949  1.5208  0.0458  1.6519
 5760SOL     OW18178   4.517   5.735   0.923 -0.7074  0.4622 -0.2551
 5760SOL    HW118179   4.575   5.662   0.888  0.1667  1.3251 -0.6861
 5760SOL    HW218180   4.454   5.699   0.991 -0.7560 -0.8000 -0.9546
 5761SOL     OW18181   2.144   2.190   2.584 -0.2250  0.6604 -0.6400
 5761SOL    HW118182   2.075   2.217   2.517 -3.4098 -0.5489  1.8809
 5761SOL    HW218183   2.158   2.265   2.649 -0.5186  0.3082 -0.1606
 5762SOL     OW18184   2.327   4.664   4.645 -0.1323 -0.5910 -0.2669
 5762SOL    HW118185   2.227   4.677   4.646 -0.2259 -1.2560  0.4911
 5762SOL    HW218186   2.357   4.633   4.735  0.9295  0.7488 -0.1185
 5763SOL     OW18187   0.439   4.044   1.613 -0.9812 -0.1632 -0.6402
 5763SOL    HW118188   0.474   4.098   1.690 -0.9021 -0.5898 -0.3740
 5763SOL    HW218189   0.366   4.096   1.568 -1.0279  0.0948 -0.2801
 5764SOL     OW18190   5.291   3.693   3.473  0.2962  0.5875  0.1069
 5764SOL    HW118191   5.358   3.637   3.423  0.5205  0.1684  0.8548
 5764SOL    HW218192   5.304   3.789   3.449  1.4649  0.5677  0.5552
 5765SOL     OW18193   6.577   5.219   4.437 -0.7467  0.4867 -0.4061
 5765SOL    HW118194   6.548   5.127   4.412 -0.1531  0.1340  0.1664
 5765SOL    HW218195   6.635   5.257   4.365  3.0592 -1.4959  1.3400
 5766SOL     OW18196   0.058   5.802   4.892  0.4871  0.1942  0.2445
 5766SOL    HW118197   0.147   5.845   4.908  0.4814 -0.2621  1.7123
 5766SOL    HW218198   0.045   5.786   4.794  3.4077 -2.5556  0.1657
 5767SOL     OW18199   0.799   1.363   4.224  0.2039 -0.2605  0.0432
 5767SOL    HW118200   0.760   1.329   4.310  1.9015  0.5457  1.1834
 5767SOL    HW218201   0.842   1.452   4.240  1.8912 -0.7833 -1.2785
 5768SOL     OW18202   1.593   2.607   4.881  0.0440  0.3552 -0.2861
 5768SOL    HW118203   1.498   2.603   4.910 -0.2358 -0.8891 -1.2920
 5768SOL    HW218204   1.634   2.516   4.889  1.0206  0.7751 -0.3164
 5769SOL     OW18205   5.674   2.678   0.900  0.0517 -0.0499 -0.5402
 5769SOL    HW118206   5.654   2.761   0.951 -0.9658 -0.2830 -0.5460
 5769SOL    HW218207   5.761   2.640   0.931 -0.1240  0.2902  0.3922
 5770SOL     OW18208   3.527   0.307   0.108  0.0659 -0.6242 -0.1306
 5770SOL    HW118209   3.567   0.281   0.019 -0.4944  0.2413 -0.6496
 5770SOL    HW218210   3.594   0.290   0.180  0.7283 -0.8451 -0.7778
 5771SOL     OW18211   0.858   5.112   5.205 -0.3903  0.2813  0.3593
 5771SOL    HW118212   0.913   5.186   5.166  0.7446 -0.8970 -0.3647
 5771SOL    HW218213   0.856   5.036   5.141  0.2154 -1.1172  1.9234
 5772SOL     OW18214   4.028   2.389   0.022  0.6829  0.6228 -0.8541
 5772SOL    HW118215   4.075   2.475   0.001  2.8204 -0.5646 -1.0984
 5772SOL    HW218216   4.019   2.335  -0.062  2.7329 -0.9759 -0.1089
 5773SOL     OW18217   1.118   3.573   6.272 -0.0184  0.0124 -0.0324
 5773SOL    HW118218   1.067   3.656   6.294 -0.9271 -0.3394 -0.7612
 5773SOL    HW218219   1.142   3.525   6.357 -1.4629 -0.1516  0.3027
 5774SOL     OW18220   1.493   5.644   4.846  0.0876  0.2304 -0.1529
 5774SOL    HW118221   1.560   5.587   4.893 -1.2946  0.3919  2.2102
 5774SOL    HW218222   1.413   5.589   4.822  0.0414  0.5403 -0.7302
 5775SOL     OW18223   3.333   3.999   2.196  0.0738  0.5504  0.0819
 5775SOL    HW118224   3.412   4.031   2.249 -1.5501  1.7935  1.9186
 5775SOL    HW218225   3.250   4.015   2.249 -1.4320 -0.7311 -1.7773
 5776SOL     OW18226   3.168   6.150   6.084  0.0161 -0.0952 -0.1004
 5776SOL    HW118227   3.105   6.153   6.162 -0.1305  0.6688 -0.2353
 5776SOL    HW218228   3.192   6.244   6.058  2.3228 -0.3667  0.8205
 5777SOL     OW18229   5.388   5.290   0.035  0.5032 -0.1918  0.0952
 5777SOL    HW118230   5.423   5.226  -0.033  0.9761 -1.8388  1.8069
 5777SOL    HW218231   5.410   5.257   0.127 -0.9886  1.4310  1.1059
 5778SOL     OW18232   4.415   1.448   0.051 -0.0362 -0.3271 -0.4640
 5778SOL    HW118233   4.322   1.463   0.018  0.6641  0.0163 -2.3748
 5778SOL    HW218234   4.476   1.430  -0.026  1.0840 -2.9644  0.9085
 5779SOL     OW18235   6.998   6.631   3.781  0.0838  0.7245 -0.1896
 5779SOL    HW118236   7.073   6.571   3.809 -1.2393 -0.5164  0.8380
 5779SOL    HW218237   6.990   6.629   3.681 -1.1218 -2.4373 -0.1529
 5780SOL     OW18238   6.825   6.709   0.547  0.1600 -0.4048  0.3528
 5780SOL    HW118239   6.870   6.639   0.493  0.0320 -1.0555  1.0698
 5780SOL    HW218240   6.727   6.687   0.556 -0.2734  0.8277 -0.9280
 5781SOL     OW18241   4.727   0.795   6.276  0.1833 -0.0677 -0.0826
 5781SOL    HW118242   4.638   0.837   6.294 -0.0261 -0.5847  0.0884
 5781SOL    HW218243   4.717   0.722   6.209  0.2990 -0.8328  0.7147
 5782SOL     OW18244   2.671   1.473   5.191  0.1370  0.2640  0.2684
 5782SOL    HW118245   2.658   1.523   5.105 -0.4495 -1.6019 -0.7841
 5782SOL    HW218246   2.673   1.375   5.172  2.9372 -0.1300  2.0380
 5783SOL     OW18247   5.409   4.485   0.968  0.1854 -0.6790  0.1704
 5783SOL    HW118248   5.310   4.495   0.966  0.3470  1.3218 -1.7516
 5783SOL    HW218249   5.437   4.414   0.903 -0.0413 -2.6286  2.1159
 5784SOL     OW18250   3.524   2.487   1.233  0.4849  0.0742 -0.2538
 5784SOL    HW118251   3.428   2.514   1.243  0.4075 -0.5251  0.6251
 5784SOL    HW218252   3.570   2.492   1.321  0.2324 -3.5362  0.2259
 5785SOL     OW18253   0.520   1.683   0.126 -0.8523 -0.5608 -0.2993
 5785SOL    HW118254   0.460   1.752   0.085 -1.4902 -1.7557 -1.4142
 5785SOL    HW218255   0.552   1.717   0.215 -5.1751 -0.8143  1.6507
 5786SOL     OW18256   2.642   5.439   4.280 -0.5174 -1.1443  0.5088
 5786SOL    HW118257   2.720   5.496   4.306 -0.7754 -0.9515  0.8594
 5786SOL    HW218258   2.668   5.342   4.289 -0.1422 -1.0824  0.0966
 5787SOL     OW18259   6.161   5.414   5.912  0.0052  0.4325  0.0533
 5787SOL    HW118260   6.242   5.458   5.875  1.3428 -1.8330  0.0989
 5787SOL    HW218261   6.084   5.428   5.850  1.2565 -0.1059 -1.6983
 5788SOL     OW18262   3.787   0.897   2.834  0.1672  1.0035 -0.0293
 5788SOL    HW118263   3.854   0.940   2.895 -0.7933  0.6663  1.3253
 5788SOL    HW218264   3.696   0.933   2.855 -0.2291  0.6813 -1.1238
 5789SOL     OW18265   1.503   0.636   2.772  0.4347  0.0056  0.4313
 5789SOL    HW118266   1.514   0.695   2.851  1.3410  1.0183 -0.4282
 5789SOL    HW218267   1.556   0.672   2.695  0.3670 -1.4871 -0.3549
 5790SOL     OW18268   2.945   1.649   4.615  0.2656 -0.5488  0.2108
 5790SOL    HW118269   2.939   1.739   4.656  0.7437  0.4546 -1.7963
 5790SOL    HW218270   2.881   1.587   4.660  0.5434  0.5290  2.1830
 5791SOL     OW18271   2.470   1.428   5.612  0.0640  0.7435 -0.1434
 5791SOL    HW118272   2.452   1.504   5.675 -1.1308  0.8362 -0.5572
 5791SOL    HW218273   2.431   1.450   5.523  0.1127 -0.1658 -0.3989
 5792SOL     OW18274   0.726   0.943   4.346 -0.0562  0.1543  0.0667
 5792SOL    HW118275   0.759   0.951   4.440 -0.1979  2.4213 -0.0277
 5792SOL    HW218276   0.642   0.890   4.345  0.1845 -0.2838  1.1434
 5793SOL     OW18277   6.774   2.761   4.145 -0.3211 -0.0553  0.3958
 5793SOL    HW118278   6.821   2.738   4.059 -1.5663 -1.1908 -0.0182
 5793SOL    HW218279   6.686   2.803   4.124 -1.5091 -2.0808  1.0220
 5794SOL     OW18280   6.290   0.986   6.547 -0.6018 -0.2749  0.0803
 5794SOL    HW118281   6.312   0.896   6.508 -0.2065 -0.9880  1.8549
 5794SOL    HW218282   6.374   1.039   6.556 -0.7086 -0.0672 -0.1426
 5795SOL     OW18283   1.909   0.361   1.928 -0.2745 -0.6136 -0.5633
 5795SOL    HW118284   1.851   0.280   1.939 -0.7228 -0.2346 -0.0976
 5795SOL    HW218285   1.942   0.366   1.834 -2.3984  0.0918 -1.3312
 5796SOL     OW18286   7.007   0.438   0.823 -0.4209 -0.4695  0.5856
 5796SOL    HW118287   7.091   0.461   0.774 -1.9347  3.3622 -0.6260
 5796SOL    HW218288   6.928   0.452   0.762 -2.1008 -0.7756  2.5834
 5797SOL     OW18289   1.216   5.279   5.867 -0.0003  0.3021 -0.4960
 5797SOL    HW118290   1.230   5.309   5.962  0.2734 -0.2406 -0.3592
 5797SOL    HW218291   1.158   5.345   5.819  1.2132  1.4416 -0.4251
 5798SOL     OW18292   1.697   2.224   0.748  0.1091  0.0200 -0.0822
 5798SOL    HW118293   1.745   2.238   0.661  0.2008  0.2931  0.0101
 5798SOL    HW218294   1.630   2.151   0.738  1.2497 -1.0736  0.0692
 5799SOL     OW18295   6.215   1.872   0.379 -0.6851 -0.5269  0.3405
 5799SOL    HW118296   6.123   1.856   0.416 -1.8412  0.8340 -1.7515
 5799SOL    HW218297   6.260   1.784   0.363 -1.0012 -1.1861  2.7607
 5800SOL     OW18298   0.881   2.512   3.709 -0.1780 -0.0579 -0.6010
 5800SOL    HW118299   0.947   2.488   3.638  1.3486  0.2057  0.6709
 5800SOL    HW218300   0.927   2.514   3.798 -2.0871 -0.6712  0.4620
 5801SOL     OW18301   2.024   4.350   0.626  0.1772 -0.2495 -0.3724
 5801SOL    HW118302   2.049   4.313   0.537 -1.2980  0.8273 -1.2792
 5801SOL    HW218303   1.980   4.440   0.614  1.9799  0.9861  1.6029
 5802SOL     OW18304   0.732   1.647   0.574  0.2326  0.7725  0.7081
 5802SOL    HW118305   0.767   1.659   0.481  0.5483  2.8796  1.0357
 5802SOL    HW218306   0.640   1.685   0.580 -1.3134 -2.5855  0.4447
 5803SOL     OW18307   4.183   5.711   3.338 -0.0131  0.3711 -0.6432
 5803SOL    HW118308   4.116   5.710   3.265  1.0746 -0.1786 -1.6648
 5803SOL    HW218309   4.261   5.653   3.313  0.0794 -0.3872  1.2411
 5804SOL     OW18310   2.379   6.706   1.921  0.1447  0.6458  0.1299
 5804SOL    HW118311   2.440   6.769   1.873  0.6871 -0.0072 -0.0708
 5804SOL    HW218312   2.434   6.632   1.962 -0.3402  0.9939  1.4580
 5805SOL     OW18313   0.638   2.321   0.869 -0.6115  0.3565  0.0369
 5805SOL    HW118314   0.569   2.275   0.925  0.4212 -1.8515 -0.4172
 5805SOL    HW218315   0.716   2.346   0.926 -0.9630  1.1382  0.1877
 5806SOL     OW18316   1.667   3.422   0.994 -0.4707 -0.2669 -0.1660
 5806SOL    HW118317   1.713   3.344   1.036  0.5195  0.4929  0.2204
 5806SOL    HW218318   1.695   3.430   0.899  1.4773  1.0651  0.4445
 5807SOL     OW18319   1.641   4.350   5.251 -0.3334 -0.0895 -0.0650
 5807SOL    HW118320   1.696   4.273   5.217  0.4397  0.1105  0.6891
 5807SOL    HW218321   1.588   4.320   5.330  0.2287  0.2361  0.4386
 5808SOL     OW18322   2.372   2.479   6.054 -0.5963  0.2985 -0.2236
 5808SOL    HW118323   2.331   2.401   6.006  1.0780 -0.2859 -0.8070
 5808SOL    HW218324   2.368   2.560   5.996  1.1773 -0.3407 -1.3341
 5809SOL     OW18325   3.964   4.397   1.055  0.1577 -0.1930  0.2624
 5809SOL    HW118326   3.982   4.470   0.988  0.9613 -1.1038 -0.5411
 5809SOL    HW218327   3.869   4.369   1.049 -0.4003  1.3540  1.1733
 5810SOL     OW18328   4.215   0.566   4.206 -0.1042  0.5619 -0.4702
 5810SOL    HW118329   4.213   0.466   4.201 -0.1268  0.5805 -0.8697
 5810SOL    HW218330   4.166   0.596   4.288 -1.4182  0.3087 -1.1313
 5811SOL     OW18331   3.365   5.487   4.207 -0.0849  0.1463 -0.1685
 5811SOL    HW118332   3.295   5.521   4.270 -0.2462 -0.2256 -0.1488
 5811SOL    HW218333   3.334   5.500   4.113 -0.0245  0.3100 -0.1672
 5812SOL     OW18334   3.971   5.384   2.854 -0.1579 -0.1756 -0.7497
 5812SOL    HW118335   4.062   5.346   2.865 -0.3825 -0.5263 -0.0533
 5812SOL    HW218336   3.915   5.362   2.934 -0.7414  0.3540 -0.9982
 5813SOL     OW18337   0.811   0.569   0.375  0.2062  0.7884  0.6841
 5813SOL    HW118338   0.894   0.619   0.350  0.1938  0.7713  0.6058
 5813SOL    HW218339   0.795   0.497   0.307 -1.1150  2.2162 -0.6012
 5814SOL     OW18340   2.552   1.035   4.250  0.2369 -0.5458 -0.5599
 5814SOL    HW118341   2.473   1.080   4.208 -0.7808 -0.2093  1.6328
 5814SOL    HW218342   2.616   1.105   4.282 -0.3889 -0.6573  1.0267
 5815SOL     OW18343   5.479   1.902   0.962 -0.4640 -0.7535 -0.0123
 5815SOL    HW118344   5.539   1.822   0.966 -0.5832 -0.8586 -0.3556
 5815SOL    HW218345   5.385   1.873   0.948 -0.1547 -0.4791 -3.6902
 5816SOL     OW18346   6.817   0.941   5.052  0.1043  0.1282 -0.6457
 5816SOL    HW118347   6.781   0.934   4.959 -2.0186  0.7778  0.0693
 5816SOL    HW218348   6.911   0.907   5.054 -0.2528 -1.1707 -2.7408
 5817SOL     OW18349   4.021   5.891   5.842 -0.0024 -0.5446 -0.2568
 5817SOL    HW118350   3.971   5.975   5.821 -2.2412 -1.3181  1.5569
 5817SOL    HW218351   3.985   5.816   5.786  1.7620 -0.4388 -1.6336
 5818SOL     OW18352   4.023   3.223   5.977  0.6526 -0.1008  0.1358
 5818SOL    HW118353   4.023   3.204   5.879  0.6755  0.1289  0.0898
 5818SOL    HW218354   4.116   3.215   6.013  0.6999  0.1422  0.0719
 5819SOL     OW18355   0.532   2.432   5.620 -0.3538 -0.5258  0.1738
 5819SOL    HW118356   0.463   2.406   5.687  0.0147 -0.1770  0.6943
 5819SOL    HW218357   0.608   2.478   5.666 -0.6788  0.8827 -0.6397
 5820SOL     OW18358   4.491   6.890   3.706 -0.0525  0.2933 -0.0561
 5820SOL    HW118359   4.510   6.986   3.687  0.3696 -0.0222 -1.3349
 5820SOL    HW218360   4.403   6.865   3.667  0.3322 -0.1043 -0.6819
 5821SOL     OW18361   6.610   1.066   4.045 -0.3764  0.3213  0.1466
 5821SOL    HW118362   6.578   1.137   4.107 -2.2673  0.3607 -0.7945
 5821SOL    HW218363   6.618   1.104   3.953 -1.4207 -0.6469 -0.3700
 5822SOL     OW18364   3.539   2.101   4.258 -0.2984  0.2170  0.0668
 5822SOL    HW118365   3.630   2.123   4.223  0.0533  0.2431  0.9854
 5822SOL    HW218366   3.547   2.057   4.347 -1.1514 -0.5942 -0.2403
 5823SOL     OW18367   4.461   2.972   5.258  0.3197  0.1247  0.4813
 5823SOL    HW118368   4.492   2.880   5.234  1.3033  0.7385 -0.6996
 5823SOL    HW218369   4.538   3.025   5.293 -0.6904 -0.1647  3.5173
 5824SOL     OW18370   0.794   4.007   1.466  0.3378  0.5761  0.1382
 5824SOL    HW118371   0.893   4.001   1.458  0.2362  0.7910 -1.7346
 5824SOL    HW218372   0.770   4.051   1.553  1.8003 -0.9118  1.3565
 5825SOL     OW18373   2.943   1.676   0.936  0.2540 -0.4937 -0.0651
 5825SOL    HW118374   2.874   1.713   0.874 -0.6132 -1.7672  0.0955
 5825SOL    HW218375   3.034   1.696   0.900 -0.2164 -0.0220 -1.0319
 5826SOL     OW18376   6.473   2.628   6.347 -0.1451  0.5903 -0.4920
 5826SOL    HW118377   6.409   2.590   6.280 -1.7106  0.3839  1.0523
 5826SOL    HW218378   6.497   2.722   6.321 -2.2988  1.2314 -0.3479
 5827SOL     OW18379   2.739   1.521   0.584  0.1083 -0.0531  0.3997
 5827SOL    HW118380   2.660   1.483   0.535  0.3229 -0.8093  0.6409
 5827SOL    HW218381   2.804   1.449   0.604  0.4931  0.4310  0.9239
 5828SOL     OW18382   1.718   2.704   6.351  0.2880  0.0020  0.5065
 5828SOL    HW118383   1.752   2.767   6.280  1.0962 -0.1283  0.7655
 5828SOL    HW218384   1.713   2.752   6.438  0.2660 -0.1130  0.5677
 5829SOL     OW18385   5.269   5.292   4.845 -0.2184 -0.3158 -0.6349
 5829SOL    HW118386   5.369   5.288   4.849 -0.2623 -0.6743  0.2483
 5829SOL    HW218387   5.230   5.207   4.879 -0.8393  0.1040 -0.2668
 5830SOL     OW18388   4.110   2.917   6.481  0.7509 -0.2546  0.3121
 5830SOL    HW118389   4.113   3.017   6.484 -0.6722 -0.1975  2.7997
 5830SOL    HW218390   4.134   2.881   6.571 -1.5499 -2.0035  0.3030
 5831SOL     OW18391   6.826   0.821   6.649  0.3266 -0.0194  0.7284
 5831SOL    HW118392   6.853   0.863   6.562 -1.0529  0.1109  0.3364
 5831SOL    HW218393   6.882   0.858   6.723  0.5216  0.9741  0.1074
 5832SOL     OW18394   2.999   3.733   5.101  0.6361 -1.0979  0.1821
 5832SOL    HW118395   2.952   3.804   5.154 -1.1498  0.1655 -2.8512
 5832SOL    HW218396   3.097   3.736   5.122  0.1050 -0.4618  3.0269
 5833SOL     OW18397   0.253   2.828   3.379 -0.4503 -0.4096 -0.0190
 5833SOL    HW118398   0.200   2.898   3.427  0.3669  0.9430 -1.0352
 5833SOL    HW218399   0.306   2.870   3.306 -0.1100 -2.1372 -0.8189
 5834SOL     OW18400   1.626   1.632   4.093 -0.6464 -0.2080 -0.1826
 5834SOL    HW118401   1.538   1.590   4.067 -0.0394 -1.4767 -0.2603
 5834SOL    HW218402   1.692   1.618   4.020 -0.4704  1.0884 -0.2873
 5835SOL     OW18403   6.048   0.952   6.209 -0.1520  0.4150 -0.7115
 5835SOL    HW118404   6.124   1.016   6.196 -0.8601  1.1866 -1.1574
 5835SOL    HW218405   5.961   1.002   6.204 -0.7324 -0.6163 -1.3233
 5836SOL     OW18406   1.778   6.458   2.757  0.2915  0.1577 -0.2613
 5836SOL    HW118407   1.847   6.448   2.685  0.4338 -1.2317  0.0309
 5836SOL    HW218408   1.714   6.531   2.732  0.6192  0.0323 -1.5713
 5837SOL     OW18409   5.016   1.204   5.209  0.8266 -0.2303 -0.5019
 5837SOL    HW118410   4.977   1.194   5.118 -1.0678 -1.5761  0.4028
 5837SOL    HW218411   5.115   1.189   5.206  0.7814 -0.2637 -2.3007
 5838SOL     OW18412   0.767   2.249   3.666 -0.1965  0.4249  0.4342
 5838SOL    HW118413   0.801   2.343   3.657  0.0135  0.3398  0.3266
 5838SOL    HW218414   0.789   2.214   3.757 -0.6305  0.6195  0.6160
 5839SOL     OW18415   3.617   2.622   6.254 -0.0200  0.0209  0.1252
 5839SOL    HW118416   3.655   2.531   6.268 -1.0740 -0.3939  0.4354
 5839SOL    HW218417   3.558   2.646   6.332 -0.2290  0.7134 -0.2335
 5840SOL     OW18418   0.520   6.227   0.839 -0.1306  0.5233 -0.5092
 5840SOL    HW118419   0.426   6.220   0.871  0.2043  0.9344  0.6111
 5840SOL    HW218420   0.533   6.166   0.761 -0.8162 -0.9983  0.5190
 5841SOL     OW18421   4.907   6.659   1.459  0.1856 -0.6886 -0.3504
 5841SOL    HW118422   4.936   6.620   1.546  1.1188 -0.5509 -0.5854
 5841SOL    HW218423   4.935   6.755   1.454  1.4735 -1.0715 -1.3682
 5842SOL     OW18424   5.765   2.993   6.259 -0.6978  0.5463 -0.3979
 5842SOL    HW118425   5.750   3.092   6.267  0.3974  0.7638 -0.9089
 5842SOL    HW218426   5.732   2.961   6.170 -1.5140  0.3500 -0.0347
 5843SOL     OW18427   6.364   6.277   5.799 -0.2463  0.2715 -0.0673
 5843SOL    HW118428   6.350   6.201   5.737 -1.6728  0.8206 -0.4610
 5843SOL    HW218429   6.276   6.306   5.837  0.1068  2.2933 -0.6359
 5844SOL     OW18430   4.889   4.893   1.390  0.4550 -0.1399  0.1657
 5844SOL    HW118431   4.819   4.903   1.319 -0.5867 -0.9443  1.0515
 5844SOL    HW218432   4.951   4.818   1.366 -0.1112 -0.6444  0.2776
 5845SOL     OW18433   2.125   3.576   0.809  0.4534 -0.2587 -0.4916
 5845SOL    HW118434   2.220   3.556   0.782  0.6448  1.5179 -1.2890
 5845SOL    HW218435   2.104   3.672   0.788 -2.1010 -1.0533 -2.1123
 5846SOL     OW18436   5.271   1.492   3.915 -0.0179 -0.0027  0.4044
 5846SOL    HW118437   5.212   1.552   3.861  1.1253  1.1046  0.3395
 5846SOL    HW218438   5.251   1.505   4.012 -2.0551 -1.9757  0.3531
 5847SOL     OW18439   3.767   0.218   4.801 -0.1555  0.0296  0.5760
 5847SOL    HW118440   3.717   0.203   4.885 -2.0618  0.3450 -0.4538
 5847SOL    HW218441   3.812   0.308   4.804  0.6699 -0.3942  1.6273
 5848SOL     OW18442   3.262   6.210   4.055 -0.2657 -0.1107 -0.1902
 5848SOL    HW118443   3.343   6.160   4.086  1.6272  1.2105 -2.5778
 5848SOL    HW218444   3.232   6.172   3.967 -0.4203  1.2408 -0.7364
 5849SOL     OW18445   1.556   6.864   6.942 -0.1505 -0.1888 -0.1708
 5849SOL    HW118446   1.642   6.913   6.956 -1.4890  1.7087  2.2264
 5849SOL    HW218447   1.546   6.793   7.012 -1.8118  1.7244  1.7135
 5850SOL     OW18448   6.926   3.030   6.402  0.2520  0.3544  0.0472
 5850SOL    HW118449   6.937   2.990   6.311  0.9626  0.8562 -0.0995
 5850SOL    HW218450   6.841   2.997   6.443 -0.8495  1.2661 -1.3850
 5851SOL     OW18451   3.029   5.955   2.793  0.0496 -0.3881  0.1030
 5851SOL    HW118452   3.056   5.877   2.850 -2.6350 -1.7258 -0.3006
 5851SOL    HW218453   2.958   6.008   2.840 -0.9887 -0.5325 -1.2552
 5852SOL     OW18454   6.953   4.149   3.448  0.5117  0.5383 -0.2793
 5852SOL    HW118455   6.928   4.106   3.534  0.3782  1.8058  0.3288
 5852SOL    HW218456   6.953   4.248   3.458 -2.2711  0.8800 -2.4634
 5853SOL     OW18457   3.683   6.495   0.826 -0.2582 -0.0346  0.4669
 5853SOL    HW118458   3.710   6.449   0.741 -1.2825 -0.1821  0.2094
 5853SOL    HW218459   3.738   6.578   0.838  0.8276 -0.7188  0.3576
 5854SOL     OW18460   2.544   6.959   4.235 -0.5210  0.2874  0.3607
 5854SOL    HW118461   2.559   7.001   4.325  1.0403  1.2602 -0.3182
 5854SOL    HW218462   2.573   6.864   4.237  1.1478  0.7620  0.4653
 5855SOL     OW18463   6.125   5.155   2.010 -0.3228  0.3861 -0.4059
 5855SOL    HW118464   6.089   5.159   2.103  0.4567 -1.8664  0.0590
 5855SOL    HW218465   6.206   5.213   2.003 -1.3640  1.9348 -0.2162
 5856SOL     OW18466   2.658   7.013   5.584  0.7367  0.4709 -0.3853
 5856SOL    HW118467   2.700   7.087   5.531  0.4446 -0.1312 -1.4934
 5856SOL    HW218468   2.665   6.928   5.533 -0.8916  0.1525 -0.1380
 5857SOL     OW18469   3.210   7.003   5.600  0.7692  0.4043 -0.1024
 5857SOL    HW118470   3.115   6.974   5.614  0.9387  0.3255  1.0280
 5857SOL    HW218471   3.267   6.965   5.673  1.6701  0.4677 -0.7613
 5858SOL     OW18472   0.562   6.100   2.490  0.1423  0.3257  0.2872
 5858SOL    HW118473   0.501   6.035   2.536 -0.5065  0.8383  0.1816
 5858SOL    HW218474   0.653   6.061   2.482  0.0170 -0.1750  1.1193
 5859SOL     OW18475   1.514   5.704   6.216 -0.5253 -0.2342  0.3280
 5859SOL    HW118476   1.572   5.775   6.174  1.8621 -0.6107  2.7173
 5859SOL    HW218477   1.421   5.739   6.226  0.3683  2.2587  0.6266
 5860SOL     OW18478   0.575   3.520   0.704  0.1270  0.3253 -0.1479
 5860SOL    HW118479   0.477   3.521   0.683  0.1762 -0.9313 -0.4854
 5860SOL    HW218480   0.606   3.426   0.716  1.5451  0.6160 -1.2550
 5861SOL     OW18481   5.967   3.284   4.524  0.3781  0.3748 -0.3378
 5861SOL    HW118482   6.039   3.269   4.457 -0.1508 -0.5647 -0.7218
 5861SOL    HW218483   5.902   3.351   4.488  1.5514  1.9580  0.4181
 5862SOL     OW18484   0.878   3.072   6.670 -0.1212 -0.6729  0.0377
 5862SOL    HW118485   0.825   3.118   6.742  1.1499  0.0741  0.5336
 5862SOL    HW218486   0.909   3.140   6.603  2.0582 -0.7040  0.9456
 5863SOL     OW18487   5.037   3.125   5.091  0.3710 -0.9883  0.1462
 5863SOL    HW118488   5.090   3.046   5.059 -1.0367 -1.4497 -1.1487
 5863SOL    HW218489   5.061   3.205   5.036  1.0430 -0.7468  0.7778
 5864SOL     OW18490   0.991   3.300   4.446  0.0383  0.5881  0.1277
 5864SOL    HW118491   1.046   3.224   4.411  0.6027  1.3244 -0.5945
 5864SOL    HW218492   1.017   3.319   4.541 -1.1796 -1.1066  0.8618
 5865SOL     OW18493   2.688   6.934   1.090  0.4429  0.1133 -0.2674
 5865SOL    HW118494   2.782   6.950   1.121  0.4465 -0.5394  0.0771
 5865SOL    HW218495   2.637   6.887   1.161 -0.3579  1.0848 -0.1773
 5866SOL     OW18496   4.795   5.368   6.259  0.0713  0.0514 -0.1065
 5866SOL    HW118497   4.804   5.451   6.204 -0.3121 -0.5540 -1.0969
 5866SOL    HW218498   4.876   5.357   6.317 -0.0097  1.2683  0.2574
 5867SOL     OW18499   1.142   0.841   0.073  0.2354 -0.4589  0.7061
 5867SOL    HW118500   1.196   0.904   0.129 -0.4683 -0.2177  1.1330
 5867SOL    HW218501   1.110   0.888  -0.009  0.1320 -0.4049  0.7766
 5868SOL     OW18502   5.788   4.684   4.639  0.0406  0.0875  0.0300
 5868SOL    HW118503   5.760   4.779   4.627  0.4103  0.1496 -0.3647
 5868SOL    HW218504   5.740   4.626   4.574  3.3096  0.6496 -3.2125
 5869SOL     OW18505   4.788   5.565   3.627  0.4263  0.5155  0.3151
 5869SOL    HW118506   4.713   5.569   3.561  1.2611  0.4369 -0.6649
 5869SOL    HW218507   4.770   5.630   3.701 -0.8888  0.0658  0.4162
 5870SOL     OW18508   5.571   5.475   2.376 -0.5528 -0.1253 -0.3807
 5870SOL    HW118509   5.565   5.376   2.365 -1.4612 -0.1771  0.3907
 5870SOL    HW218510   5.544   5.500   2.469  0.5305  0.7836 -0.2886
 5871SOL     OW18511   5.214   6.139   3.402  0.4839 -1.1386  0.0110
 5871SOL    HW118512   5.269   6.214   3.438 -1.4471 -0.1588  1.0913
 5871SOL    HW218513   5.200   6.151   3.303 -0.6793  0.5864  0.3403
 5872SOL     OW18514   3.201   5.793   5.561  0.1054  0.9383  0.8343
 5872SOL    HW118515   3.249   5.718   5.606 -0.6637  0.4022  0.7791
 5872SOL    HW218516   3.246   5.816   5.475  0.2038  0.3873  0.7413
 5873SOL     OW18517   3.529   3.007   6.238  0.0327 -0.6298 -0.0627
 5873SOL    HW118518   3.505   3.004   6.336  1.2037 -0.0731  0.2597
 5873SOL    HW218519   3.461   3.062   6.189  0.5917  0.9433  0.8345
 5874SOL     OW18520   0.111   3.419   6.192  0.3358  0.1189  0.0077
 5874SOL    HW118521   0.090   3.361   6.271 -1.0387  1.5987  0.7762
 5874SOL    HW218522   0.093   3.514   6.215 -1.9131  0.4380 -2.6591
 5875SOL     OW18523   4.005   6.463   5.726 -0.0388 -0.0875  0.2131
 5875SOL    HW118524   3.963   6.446   5.637 -0.8820  2.5128  0.0348
 5875SOL    HW218525   4.103   6.447   5.719  0.3842  2.6870 -2.0494
 5876SOL     OW18526   6.363   3.782   4.754  0.5946  0.3066 -0.3040
 5876SOL    HW118527   6.461   3.802   4.761  0.6411  0.3456 -1.0021
 5876SOL    HW218528   6.344   3.694   4.795  0.6943  0.9203  1.1096
 5877SOL     OW18529   1.729   1.561   5.412 -0.0220 -0.0299 -0.3583
 5877SOL    HW118530   1.657   1.600   5.468 -2.2879 -1.9091 -1.7553
 5877SOL    HW218531   1.770   1.483   5.459 -0.6340 -0.4707 -0.5480
 5878SOL     OW18532   5.583   0.242   2.392 -0.7041 -0.3714 -0.1885
 5878SOL    HW118533   5.632   0.221   2.477 -0.1702 -2.6379 -0.9902
 5878SOL    HW218534   5.637   0.210   2.314 -1.3247  1.3875 -1.3947
 5879SOL     OW18535   3.090   3.063   2.723  0.1929  0.3211  0.2217
 5879SOL    HW118536   3.149   3.047   2.644  1.4307 -0.0495  1.1944
 5879SOL    HW218537   3.014   3.123   2.696  1.2988  1.2597 -0.9359
 5880SOL     OW18538   2.045   4.877   4.249 -0.0197 -0.7103 -0.3545
 5880SOL    HW118539   2.027   4.948   4.181 -0.6051 -0.7215 -0.2191
 5880SOL    HW218540   2.037   4.915   4.341 -1.5219 -1.1962 -0.2552
 5881SOL     OW18541   5.709   3.612   3.052  0.1826 -0.1421 -0.3732
 5881SOL    HW118542   5.766   3.667   2.991  0.1559  1.1031  0.6710
 5881SOL    HW218543   5.614   3.645   3.049  0.3041  0.3830  0.7994
 5882SOL     OW18544   4.698   4.533   6.907  0.2436  0.9896 -0.5091
 5882SOL    HW118545   4.645   4.601   6.957 -0.4258 -0.4593  0.8398
 5882SOL    HW218546   4.796   4.555   6.914  0.1832  0.7788  1.5927
 5883SOL     OW18547   4.596   5.787   5.891  0.5479 -0.0064 -0.4176
 5883SOL    HW118548   4.604   5.834   5.803  0.1545  0.5814 -0.1457
 5883SOL    HW218549   4.542   5.843   5.954  1.4140 -0.1018  0.4231
 5884SOL     OW18550   4.973   6.589   1.720 -0.2241  0.3950  0.0139
 5884SOL    HW118551   5.062   6.545   1.717 -0.1396  0.4650  1.2099
 5884SOL    HW218552   4.932   6.577   1.810 -0.5240  2.1060  0.1359
 5885SOL     OW18553   0.037   0.627   4.019 -0.2522 -0.3286  0.2716
 5885SOL    HW118554   0.032   0.603   3.922  2.9297 -2.9007  0.5554
 5885SOL    HW218555   0.075   0.719   4.028 -0.5949 -0.0493 -0.9157
 5886SOL     OW18556   3.677   0.429   6.371  0.9045 -0.4086  0.2103
 5886SOL    HW118557   3.623   0.357   6.415  0.4744 -0.4728 -0.4079
 5886SOL    HW218558   3.705   0.398   6.280  3.4344 -1.0674  1.1091
 5887SOL     OW18559   6.574   6.841   2.412  0.5715  0.0905 -0.2635
 5887SOL    HW118560   6.620   6.812   2.328  0.8396 -1.3935  0.3674
 5887SOL    HW218561   6.497   6.781   2.431 -0.7976  1.6989 -0.5442
 5888SOL     OW18562   2.410   4.304   6.191  0.5365 -0.8457  0.1216
 5888SOL    HW118563   2.313   4.322   6.208  0.4814 -1.0751  0.0541
 5888SOL    HW218564   2.454   4.387   6.156  0.1927 -0.9570 -0.5964
 5889SOL     OW18565   2.990   1.059   0.933  0.0861  0.5903 -0.0580
 5889SOL    HW118566   2.944   1.145   0.951  0.6013  0.5316  1.7028
 5889SOL    HW218567   3.068   1.049   0.994 -0.3439 -1.4115  0.2576
 5890SOL     OW18568   1.891   0.602   2.455  0.1494  0.0146 -0.2244
 5890SOL    HW118569   1.985   0.601   2.489  0.7146 -0.7976 -1.7379
 5890SOL    HW218570   1.886   0.552   2.369 -1.5666  0.5737 -0.4822
 5891SOL     OW18571   1.273   3.226   2.806 -0.0902 -0.2511  0.2329
 5891SOL    HW118572   1.276   3.145   2.865  1.6452 -0.0382  0.4976
 5891SOL    HW218573   1.311   3.203   2.716 -0.6950 -0.0195 -0.0881
 5892SOL     OW18574   0.892   5.798   1.016 -0.9921  0.3293  0.4725
 5892SOL    HW118575   0.848   5.714   1.050 -1.6216  0.3992 -0.1474
 5892SOL    HW218576   0.981   5.776   0.977 -2.1882 -0.4862 -1.9850
 5893SOL     OW18577   2.144   6.364   1.661 -0.3445  0.1216  0.0359
 5893SOL    HW118578   2.151   6.457   1.699 -2.0143 -0.0089  0.7480
 5893SOL    HW218579   2.114   6.301   1.732 -0.1710 -0.7991 -0.6929
 5894SOL     OW18580   1.933   0.476   3.739 -0.5021  0.0247  0.3041
 5894SOL    HW118581   2.016   0.420   3.731 -0.9364 -0.8970  1.8307
 5894SOL    HW218582   1.888   0.457   3.826 -2.8014 -0.1362 -0.8406
 5895SOL     OW18583   3.929   1.405   1.541 -0.2902  0.2536  0.1471
 5895SOL    HW118584   4.013   1.351   1.539 -1.6343 -1.9475 -0.1000
 5895SOL    HW218585   3.891   1.410   1.448 -1.4535 -0.5043  0.5647
 5896SOL     OW18586   0.753   5.552   0.932 -0.1640  0.5383  0.0808
 5896SOL    HW118587   0.845   5.513   0.942 -1.1931 -1.6725  1.7866
 5896SOL    HW218588   0.692   5.482   0.895 -1.5433  1.4093  0.6508
 5897SOL     OW18589   4.842   1.356   6.429  0.0854 -0.2046  0.3428
 5897SOL    HW118590   4.816   1.260   6.446 -1.2207 -0.3773 -2.2386
 5897SOL    HW218591   4.941   1.361   6.417 -0.0894 -1.8613 -2.6662
 5898SOL     OW18592   4.685   6.760   1.867  0.1757  0.4248 -0.1506
 5898SOL    HW118593   4.617   6.830   1.844 -0.1082 -0.5151 -2.3882
 5898SOL    HW218594   4.774   6.786   1.829  0.3907  0.1987  0.1876
 5899SOL     OW18595   1.911   0.284   0.886 -0.2507  0.2603  0.4053
 5899SOL    HW118596   1.818   0.319   0.871 -0.4587 -0.4248  0.0341
 5899SOL    HW218597   1.976   0.340   0.834 -0.5497  0.2401  0.0003
 5900SOL     OW18598   4.238   3.838   6.328  0.0642 -0.3921  0.1167
 5900SOL    HW118599   4.141   3.858   6.344  0.2762  0.3146  0.5405
 5900SOL    HW218600   4.279   3.802   6.411  0.2806 -0.2392  0.0765
 5901SOL     OW18601   6.922   1.838   5.620 -0.2893  0.5657  0.3343
 5901SOL    HW118602   6.979   1.818   5.700  0.9960  1.1059 -0.4148
 5901SOL    HW218603   6.962   1.914   5.569 -1.7208  0.9869 -0.2108
 5902SOL     OW18604   3.431   5.807   3.608 -0.2931  0.0502  0.6314
 5902SOL    HW118605   3.406   5.903   3.617  3.1306  0.9469  1.9229
 5902SOL    HW218606   3.395   5.755   3.685  0.4562  0.9629  1.6147
 5903SOL     OW18607   4.354   4.649   5.298 -0.7967  0.0767 -0.4175
 5903SOL    HW118608   4.270   4.668   5.349 -0.6718  0.0762 -0.2072
 5903SOL    HW218609   4.332   4.606   5.211 -0.9800 -0.6019 -0.0431
 5904SOL     OW18610   0.475   4.218   2.096 -1.0895  0.4441  0.2333
 5904SOL    HW118611   0.457   4.168   2.011 -0.4190 -0.4643  0.6237
 5904SOL    HW218612   0.569   4.251   2.096 -0.5918 -0.9420  1.3231
 5905SOL     OW18613   1.297   2.249   5.670 -0.3223 -0.1620  0.0230
 5905SOL    HW118614   1.376   2.297   5.708 -0.6215  0.2928  0.0827
 5905SOL    HW218615   1.223   2.314   5.653 -0.5437 -0.5144 -0.4151
 5906SOL     OW18616   1.831   0.545   0.147 -0.5712 -0.0782 -0.3087
 5906SOL    HW118617   1.813   0.626   0.203  0.5708 -1.0774  1.6114
 5906SOL    HW218618   1.916   0.558   0.095 -0.2636 -0.1177  0.1778
 5907SOL     OW18619   6.427   0.430   6.377 -0.0999 -0.3187  0.0943
 5907SOL    HW118620   6.500   0.427   6.310 -0.7231 -0.0293 -0.6082
 5907SOL    HW218621   6.458   0.479   6.458  0.0877  0.8789 -0.6864
 5908SOL     OW18622   3.053   0.927   0.407 -0.5172  0.3888 -0.0784
 5908SOL    HW118623   3.017   1.018   0.384 -0.7510  1.0680  2.5678
 5908SOL    HW218624   3.073   0.924   0.505 -0.5527 -2.4613 -0.0919
 5909SOL     OW18625   4.300   1.105   0.699  0.0669  0.3483  0.0267
 5909SOL    HW118626   4.285   1.159   0.616 -1.2463 -1.0268 -0.6983
 5909SOL    HW218627   4.332   1.164   0.773  1.4179  1.5979 -1.4798
 5910SOL     OW18628   5.378   6.756   5.565  0.4092  0.1583 -0.1191
 5910SOL    HW118629   5.341   6.808   5.488 -1.0837 -0.8225 -0.0924
 5910SOL    HW218630   5.358   6.659   5.554  2.0141 -0.2867  0.4867
 5911SOL     OW18631   5.664   4.980   3.389  0.6717 -0.5576 -0.8035
 5911SOL    HW118632   5.696   5.050   3.454  0.2157  0.3067 -1.4892
 5911SOL    HW218633   5.659   5.020   3.297 -2.8122 -0.4641 -0.6887
 5912SOL     OW18634   1.291   1.135   6.861  0.1233  0.1911 -0.0465
 5912SOL    HW118635   1.236   1.217   6.880  0.5968  0.0071  2.4899
 5912SOL    HW218636   1.388   1.159   6.860  0.2907 -0.3833  1.1521
 5913SOL     OW18637   5.331   5.536   1.292 -0.3703  0.6025 -0.4227
 5913SOL    HW118638   5.391   5.470   1.338 -0.6984  0.3846 -0.3044
 5913SOL    HW218639   5.386   5.609   1.252 -0.0895  0.8439  0.3974
 5914SOL     OW18640   6.834   4.777   6.123 -0.0414 -0.0151  0.1044
 5914SOL    HW118641   6.853   4.760   6.026 -1.4919  0.4555 -0.2939
 5914SOL    HW218642   6.918   4.767   6.176  0.8802  0.1853 -1.2653
 5915SOL     OW18643   0.068   3.616   4.745 -0.6718  0.3993 -0.3539
 5915SOL    HW118644   0.022   3.562   4.815  0.1739  0.5375  0.3168
 5915SOL    HW218645   0.002   3.640   4.673 -1.0727 -1.5790 -0.7273
 5916SOL     OW18646   4.825   6.021   2.957 -0.3932 -0.1340  0.2608
 5916SOL    HW118647   4.735   6.020   2.914  0.0259 -0.5592 -0.6350
 5916SOL    HW218648   4.819   6.067   3.046 -0.8673  2.8098 -1.1782
 5917SOL     OW18649   3.461   6.170   0.902  0.3331  0.2684 -0.9882
 5917SOL    HW118650   3.533   6.136   0.842  0.3980 -0.0100 -0.7578
 5917SOL    HW218651   3.406   6.238   0.854  1.0862  0.8844 -0.9842
 5918SOL     OW18652   4.346   0.113   2.370  0.4339  0.2544 -0.1522
 5918SOL    HW118653   4.306   0.183   2.311 -0.3020  0.7680  0.9169
 5918SOL    HW218654   4.355   0.028   2.319  1.5289  1.1624 -1.5274
 5919SOL     OW18655   3.678   4.700   6.017 -0.8606 -0.1049 -0.9085
 5919SOL    HW118656   3.620   4.672   5.940 -0.9576 -1.9238 -0.2226
 5919SOL    HW218657   3.774   4.689   5.993 -0.8676  0.0940 -1.0320
 5920SOL     OW18658   2.339   6.875   4.547 -0.3334  0.4389  0.4793
 5920SOL    HW118659   2.337   6.974   4.558 -0.8286  0.2890  1.9803
 5920SOL    HW218660   2.434   6.843   4.545 -0.0816  1.0787 -1.9568
 5921SOL     OW18661   6.632   0.990   0.005  0.0546  0.2470  0.1093
 5921SOL    HW118662   6.542   1.020   0.036  0.7408  2.5830  0.0492
 5921SOL    HW218663   6.683   0.951   0.082  0.1506  1.9650  0.9659
 5922SOL     OW18664   2.094   0.619   6.518 -0.1252 -0.3150  0.0079
 5922SOL    HW118665   2.051   0.562   6.588 -2.6688 -0.0494 -1.2364
 5922SOL    HW218666   2.101   0.713   6.550  2.0622 -0.8101  1.2095
 5923SOL     OW18667   2.603   1.527   1.180 -0.5926  0.5090 -0.4498
 5923SOL    HW118668   2.551   1.552   1.098 -0.8573  3.6694  0.5224
 5923SOL    HW218669   2.680   1.590   1.191  1.1545 -1.6476  0.2534
 5924SOL     OW18670   6.135   2.919   1.590  0.5024  0.5584  0.4797
 5924SOL    HW118671   6.166   2.920   1.685 -2.1267 -0.2551  1.4346
 5924SOL    HW218672   6.055   2.859   1.582  0.1991  1.2097 -2.1035
 5925SOL     OW18673   0.813   2.844   1.742 -0.2465  0.1922  0.3458
 5925SOL    HW118674   0.739   2.780   1.722 -0.5798  0.3203  1.1518
 5925SOL    HW218675   0.894   2.818   1.689 -0.9201  0.1882 -0.7125
 5926SOL     OW18676   0.260   3.217   5.714 -0.1695  0.6474  0.1771
 5926SOL    HW118677   0.356   3.205   5.740 -1.0113 -1.3582  2.7395
 5926SOL    HW218678   0.222   3.294   5.765 -0.1569  0.9047 -0.1971
 5927SOL     OW18679   2.079   6.391   5.357 -0.1560 -0.2702  0.1312
 5927SOL    HW118680   2.094   6.300   5.394 -0.4572  0.0291  1.0070
 5927SOL    HW218681   2.029   6.385   5.271  1.4216 -1.0373 -0.7769
 5928SOL     OW18682   3.527   1.170   4.378  0.4432  0.0455  0.5727
 5928SOL    HW118683   3.516   1.118   4.293  0.5320 -0.6928  1.0033
 5928SOL    HW218684   3.535   1.267   4.356 -0.5781 -0.0134 -0.2001
 5929SOL     OW18685   0.870   5.867   3.961  0.0607  0.0749 -0.1390
 5929SOL    HW118686   0.886   5.901   4.053 -0.4466 -3.6550  1.4890
 5929SOL    HW218687   0.956   5.865   3.910  0.6634  0.5570  0.8438
 5930SOL     OW18688   6.849   4.150   1.937  0.3480 -0.4539 -0.7437
 5930SOL    HW118689   6.931   4.094   1.924  1.6895  1.2595 -0.2181
 5930SOL    HW218690   6.843   4.178   2.033  0.5890  1.4799 -1.2512
 5931SOL     OW18691   1.221   1.572   0.096 -0.2083 -0.3026  0.2843
 5931SOL    HW118692   1.140   1.514   0.093 -1.4459  1.3496 -0.2802
 5931SOL    HW218693   1.194   1.667   0.080  1.7182  0.4503  1.1258
 5932SOL     OW18694   0.261   1.181   0.976 -0.2760  0.5999  0.3323
 5932SOL    HW118695   0.212   1.244   1.036 -0.4511  1.3279 -0.5582
 5932SOL    HW218696   0.337   1.228   0.932 -0.4012  0.1997 -0.3345
 5933SOL     OW18697   2.031   5.318   5.886 -0.3057 -0.2801  0.1835
 5933SOL    HW118698   1.968   5.279   5.953 -0.9063 -0.0139 -0.2124
 5933SOL    HW218699   2.060   5.409   5.916 -1.3992  0.2923 -0.3847
 5934SOL     OW18700   5.943   4.123   1.970  0.0129  0.7692  0.4198
 5934SOL    HW118701   5.976   4.160   1.884  0.0803  1.8626  0.8953
 5934SOL    HW218702   5.947   4.194   2.041 -3.6217  1.1016  0.4745
 5935SOL     OW18703   6.253   1.045   0.677  0.0673  0.3699 -0.2400
 5935SOL    HW118704   6.347   1.047   0.709 -0.7161  1.3079  2.2567
 5935SOL    HW218705   6.204   0.969   0.720 -0.4703  0.2594 -1.0266
 5936SOL     OW18706   4.679   1.482   0.890  0.1427 -0.5691  0.2149
 5936SOL    HW118707   4.653   1.390   0.919  2.2899 -1.9347 -1.7989
 5936SOL    HW218708   4.626   1.507   0.809 -0.2179 -0.1707  0.5754
 5937SOL     OW18709   0.238   6.833   2.947  0.2188  0.5398  0.4899
 5937SOL    HW118710   0.329   6.847   2.906  0.4295  0.3878  0.8980
 5937SOL    HW218711   0.176   6.798   2.877  0.5772  0.2748  0.2949
 5938SOL     OW18712   3.551   5.369   2.335  0.0395  0.1590  0.1222
 5938SOL    HW118713   3.513   5.426   2.262 -2.7429 -2.4744 -0.7002
 5938SOL    HW218714   3.565   5.425   2.416 -3.2333  1.9676 -0.3698
 5939SOL     OW18715   3.910   0.204   2.140 -0.2037 -0.3809 -0.2276
 5939SOL    HW118716   3.969   0.202   2.059  0.5143 -0.9267  0.2981
 5939SOL    HW218717   3.902   0.112   2.178 -0.3805 -0.0933  0.4406
 5940SOL     OW18718   6.915   3.977   6.534  0.2141 -0.1945 -0.5293
 5940SOL    HW118719   6.969   3.903   6.493 -0.1497  0.0293 -1.4420
 5940SOL    HW218720   6.854   3.938   6.604  2.5217 -0.2638  1.5714
 5941SOL     OW18721   5.897   5.153   1.859 -0.5396  0.2882  0.2347
 5941SOL    HW118722   5.828   5.106   1.913  0.2467 -1.5762 -0.2933
 5941SOL    HW218723   5.984   5.152   1.908 -0.5231  1.3414  0.2606
 5942SOL     OW18724   6.554   4.963   4.296  0.4945 -0.2271 -0.2029
 5942SOL    HW118725   6.522   4.883   4.347 -0.5281 -0.2552 -0.8486
 5942SOL    HW218726   6.613   4.933   4.221 -1.1355 -0.5461 -1.4028
 5943SOL     OW18727   0.053   3.599   2.774 -0.4434 -0.3884 -0.4696
 5943SOL    HW118728   0.048   3.681   2.717  0.3175 -0.0520 -0.0702
 5943SOL    HW218729   0.051   3.517   2.717 -3.2257 -0.1959 -0.7872
 5944SOL     OW18730   3.152   0.511   5.776  0.0686  0.5498 -0.0795
 5944SOL    HW118731   3.121   0.471   5.862 -1.4902  2.2253  0.1997
 5944SOL    HW218732   3.163   0.610   5.787  1.6131  0.5449 -1.3362
 5945SOL     OW18733   6.218   0.482   4.147  0.2163 -0.7059 -0.4704
 5945SOL    HW118734   6.195   0.551   4.216  0.1511 -0.9984 -0.1993
 5945SOL    HW218735   6.139   0.465   4.088  0.4352 -0.0554 -0.9700
 5946SOL     OW18736   3.245   2.131   4.336  0.0696 -0.0663  0.0252
 5946SOL    HW118737   3.311   2.167   4.270  0.5103  0.0296  0.5104
 5946SOL    HW218738   3.242   2.190   4.416  0.4356 -0.8278  0.6160
 5947SOL     OW18739   2.194   2.442   3.440 -0.0960 -0.0615  0.6466
 5947SOL    HW118740   2.261   2.452   3.366  0.5493 -0.8680  1.1025
 5947SOL    HW218741   2.228   2.489   3.521 -0.2260 -0.2006  0.7817
 5948SOL     OW18742   6.513   5.605   6.678 -0.2178  0.0009  0.0355
 5948SOL    HW118743   6.542   5.684   6.624  0.8276 -0.4374 -0.0819
 5948SOL    HW218744   6.447   5.551   6.625 -1.7561  1.3286  0.5321
 5949SOL     OW18745   0.929   6.041   0.002  0.1213 -0.3128 -0.6614
 5949SOL    HW118746   1.021   6.075  -0.019  0.7177 -0.5071  1.4148
 5949SOL    HW218747   0.929   5.941  -0.005  0.2328 -0.3539 -0.0870
 5950SOL     OW18748   2.958   2.968   5.458  0.0795 -0.1930  0.3445
 5950SOL    HW118749   2.867   2.965   5.418  0.5221  2.4148 -1.0792
 5950SOL    HW218750   2.966   3.048   5.518  1.2403 -0.7586  0.9891
 5951SOL     OW18751   4.807   2.738   1.254  0.2524  0.3367  0.2095
 5951SOL    HW118752   4.891   2.699   1.291 -0.1353 -0.2400  0.4922
 5951SOL    HW218753   4.759   2.787   1.327  0.8441  1.5542 -0.1896
 5952SOL     OW18754   5.664   6.398   2.658  0.0876 -0.1556 -0.3248
 5952SOL    HW118755   5.700   6.416   2.750  1.2527 -1.8135 -0.3974
 5952SOL    HW218756   5.613   6.477   2.626  1.9861  1.5689  0.6491
 5953SOL     OW18757   6.504   0.001   2.946 -0.2403 -0.0447  0.2895
 5953SOL    HW118758   6.515  -0.048   2.860 -1.2857 -1.6087  0.9860
 5953SOL    HW218759   6.587  -0.011   3.002 -0.1835 -0.3692  0.1372
 5954SOL     OW18760   1.953   3.960   5.013  0.2144 -0.0819  0.0897
 5954SOL    HW118761   2.022   3.918   5.072  0.3896 -2.4066 -1.6356
 5954SOL    HW218762   1.960   3.922   4.921 -0.4476  2.9495 -1.3605
 5955SOL     OW18763   0.428   6.195   5.017 -0.3216  0.3630  0.2705
 5955SOL    HW118764   0.343   6.234   5.053 -0.3558 -1.1831  2.0245
 5955SOL    HW218765   0.477   6.149   5.091  0.6249 -1.2508 -1.2923
 5956SOL     OW18766   2.378   1.311   6.296 -0.0725 -0.4789  0.9999
 5956SOL    HW118767   2.371   1.385   6.363 -1.3225 -1.1948  1.7114
 5956SOL    HW218768   2.286   1.284   6.266  0.4448 -0.4162 -0.7666
 5957SOL     OW18769   2.084   6.899   4.409  0.4950 -0.6265 -0.2373
 5957SOL    HW118770   2.058   6.980   4.462 -1.2031 -1.6464  0.5519
 5957SOL    HW218771   2.140   6.839   4.466  0.4016 -0.7622 -0.2906
 5958SOL     OW18772   4.821   1.728   2.969  0.2556 -0.4291  0.6681
 5958SOL    HW118773   4.886   1.763   2.901 -0.8688  0.0602 -0.1939
 5958SOL    HW218774   4.807   1.797   3.040 -0.5167  0.1368 -0.0118
 5959SOL     OW18775   1.705   6.066   2.571 -0.3866 -0.2449 -0.3662
 5959SOL    HW118776   1.732   6.099   2.662 -0.5362 -3.5203  1.0075
 5959SOL    HW218777   1.608   6.043   2.572 -0.1090 -1.5174 -0.9267
 5960SOL     OW18778   5.871   4.426   6.936  0.5998 -0.4066  0.4472
 5960SOL    HW118779   5.842   4.512   6.895  0.7589 -0.1146  0.9380
 5960SOL    HW218780   5.924   4.445   7.020 -0.7204 -1.0135  1.4550
 5961SOL     OW18781   3.698   1.041   5.580 -0.0037 -0.9551  0.4217
 5961SOL    HW118782   3.614   1.007   5.622 -0.5820 -0.1561 -0.0498
 5961SOL    HW218783   3.707   1.139   5.597 -1.1942 -0.1732 -2.7117
 5962SOL     OW18784   6.182   3.980   1.104  0.0690 -0.2367  0.5496
 5962SOL    HW118785   6.245   3.904   1.122  0.7010  0.3635  0.8954
 5962SOL    HW218786   6.187   4.046   1.179 -0.1573  0.3624  0.0431
 5963SOL     OW18787   6.111   2.205   4.299 -0.3323 -0.1012 -0.1831
 5963SOL    HW118788   6.083   2.288   4.251  1.9283 -0.0248 -1.5328
 5963SOL    HW218789   6.109   2.222   4.398 -1.1333  1.1185 -0.3802
 5964SOL     OW18790   5.116   1.489   2.301 -0.2552  0.1927 -0.1361
 5964SOL    HW118791   5.068   1.540   2.372 -0.5669  0.2979 -0.4191
 5964SOL    HW218792   5.059   1.414   2.269 -0.3639  0.5149 -0.7047
 5965SOL     OW18793   5.472   6.158   0.920  0.3262 -0.6670  0.0045
 5965SOL    HW118794   5.506   6.227   0.857  1.2513 -0.5335  0.6339
 5965SOL    HW218795   5.501   6.067   0.889  0.6005 -0.6198  0.1209
 5966SOL     OW18796   3.816   3.406   6.677  0.2509  0.2640  0.0020
 5966SOL    HW118797   3.744   3.456   6.724  0.2435  0.5861 -0.3467
 5966SOL    HW218798   3.843   3.456   6.594  2.2529  1.1929  1.1529
 5967SOL     OW18799   1.761   3.026   4.354 -0.1588 -0.2747 -0.0734
 5967SOL    HW118800   1.737   2.940   4.400 -3.4499  1.0275  0.9219
 5967SOL    HW218801   1.744   3.016   4.256 -1.8129 -0.4547  0.1902
 5968SOL     OW18802   6.904   2.308   1.388 -0.1048 -0.0663  0.2790
 5968SOL    HW118803   6.815   2.291   1.430 -0.2350 -0.0583  0.0105
 5968SOL    HW218804   6.944   2.391   1.428 -1.3886  1.4437 -1.4001
 5969SOL     OW18805   0.190   6.598   5.261  0.3137 -0.1016 -0.4156
 5969SOL    HW118806   0.261   6.661   5.291  0.6665  0.6686 -2.6326
 5969SOL    HW218807   0.110   6.650   5.229  0.4681 -0.7397 -1.9457
 5970SOL     OW18808   5.334   2.334   5.871  0.0299 -0.3806  0.3930
 5970SOL    HW118809   5.253   2.368   5.919  1.0244  1.1455  1.0569
 5970SOL    HW218810   5.374   2.258   5.924 -0.4833 -0.5914  0.4876
 5971SOL     OW18811   4.130   6.910   5.671 -0.0712 -0.6092  0.0877
 5971SOL    HW118812   4.178   6.848   5.733  1.1520 -0.2437 -0.4590
 5971SOL    HW218813   4.178   6.997   5.667 -2.7797  1.1434  2.2607
 5972SOL     OW18814   3.836   1.639   2.141 -0.0892 -0.2428 -0.3291
 5972SOL    HW118815   3.756   1.581   2.127  0.5921 -0.9947 -1.3036
 5972SOL    HW218816   3.858   1.687   2.056 -0.8126  1.7371  0.5295
 5973SOL     OW18817   2.964   1.943   2.055 -0.3181  0.0541 -0.2587
 5973SOL    HW118818   2.880   1.994   2.039 -0.8338 -0.5664  0.4078
 5973SOL    HW218819   3.036   2.005   2.085 -0.4271  0.6466 -1.1982
 5974SOL     OW18820   5.313   6.631   6.222  0.4535  0.5561 -0.1590
 5974SOL    HW118821   5.283   6.559   6.159  0.7031  0.9007 -0.6826
 5974SOL    HW218822   5.392   6.598   6.275 -0.0572  0.0950  0.3236
 5975SOL     OW18823   5.621   4.038   0.310 -0.3611 -0.1848  0.7053
 5975SOL    HW118824   5.615   3.976   0.388 -0.9673 -0.4712  0.4324
 5975SOL    HW218825   5.705   4.093   0.318  1.3340 -2.4818 -0.1168
 5976SOL     OW18826   3.426   3.821   3.045 -0.1242  0.1916  0.1267
 5976SOL    HW118827   3.463   3.818   3.138 -1.9910  0.5376  0.9153
 5976SOL    HW218828   3.396   3.914   3.024  2.9785  0.8591 -1.9978
 5977SOL     OW18829   5.502   5.403   1.482  0.2819 -0.2171  0.7577
 5977SOL    HW118830   5.430   5.346   1.521 -0.1193 -0.3368 -0.1434
 5977SOL    HW218831   5.529   5.473   1.548  0.1144 -0.8504  1.5141
 5978SOL     OW18832   6.682   1.797   1.577 -0.0421  0.3343  0.8864
 5978SOL    HW118833   6.720   1.840   1.495  0.6981  0.6377  1.3827
 5978SOL    HW218834   6.751   1.796   1.649 -0.2862 -1.0047  1.1322
 5979SOL     OW18835   4.045   2.747   5.306  0.3640  0.0378  0.3188
 5979SOL    HW118836   4.076   2.675   5.244  0.8466 -1.1583  1.8839
 5979SOL    HW218837   4.099   2.743   5.390  1.3840  3.1425 -0.0640
 5980SOL     OW18838   5.497   1.156   1.509 -0.6558  0.6427 -0.2153
 5980SOL    HW118839   5.529   1.224   1.574 -0.8022  1.1882 -0.7038
 5980SOL    HW218840   5.548   1.071   1.523 -0.3629  0.8940  0.2992
 5981SOL     OW18841   1.721   1.497   3.269  0.2609  0.4574  0.0491
 5981SOL    HW118842   1.647   1.551   3.308 -0.1328  2.1487 -2.7646
 5981SOL    HW218843   1.684   1.432   3.203  1.2145  0.8088 -0.8494
 5982SOL     OW18844   5.044   5.501   6.839 -0.1532  0.0481 -0.0246
 5982SOL    HW118845   4.990   5.417   6.836 -2.3505  1.3109  1.3399
 5982SOL    HW218846   5.132   5.486   6.793 -0.4905 -2.9317  0.1136
 5983SOL     OW18847   5.955   3.029   5.738 -0.2252 -0.0362 -0.5576
 5983SOL    HW118848   5.983   2.995   5.648 -1.1447 -0.3726 -0.7325
 5983SOL    HW218849   5.857   3.011   5.751  0.1802 -1.3472  1.0953
 5984SOL     OW18850   1.112   4.374   1.941 -0.1780  0.6172 -0.3622
 5984SOL    HW118851   1.058   4.437   1.886 -1.5806  0.0965  0.3663
 5984SOL    HW218852   1.144   4.420   2.024 -3.0933 -0.1129  1.3044
 5985SOL     OW18853   0.739   1.299   1.335  0.2936  0.0303 -0.3718
 5985SOL    HW118854   0.803   1.308   1.259 -0.0095 -1.1228 -0.7825
 5985SOL    HW218855   0.786   1.323   1.421  1.0766 -0.1615 -0.7359
 5986SOL     OW18856   2.397   2.681   5.523 -0.2329  0.2055  0.3442
 5986SOL    HW118857   2.456   2.629   5.461 -3.0187 -0.6135 -1.8237
 5986SOL    HW218858   2.408   2.779   5.504 -1.0308 -0.0199 -1.5885
 5987SOL     OW18859   4.782   0.929   2.429  0.3619 -0.4789 -0.3463
 5987SOL    HW118860   4.816   1.023   2.434 -0.8133 -0.0747  1.1137
 5987SOL    HW218861   4.858   0.865   2.436  1.2742  0.3253 -2.2054
 5988SOL     OW18862   0.507   2.387   1.338  0.5396  0.3400 -0.0771
 5988SOL    HW118863   0.438   2.332   1.291 -0.0250  0.6372  0.4016
 5988SOL    HW218864   0.520   2.473   1.289 -1.5545  1.5688  1.4057
 5989SOL     OW18865   0.646   2.724   0.284  0.2062  0.2216 -0.1060
 5989SOL    HW118866   0.635   2.643   0.341  0.2628 -0.6809 -1.3298
 5989SOL    HW218867   0.742   2.734   0.259 -0.2407 -1.5994 -3.0525
 5990SOL     OW18868   0.747   5.986   1.418  0.9001 -0.1939  0.0139
 5990SOL    HW118869   0.663   5.939   1.392  0.4659  0.2694  0.5687
 5990SOL    HW218870   0.755   6.071   1.367  1.7573 -0.9058 -1.0942
 5991SOL     OW18871   4.346   4.995   0.335 -0.0400 -0.0151 -0.6359
 5991SOL    HW118872   4.324   5.075   0.280  0.4117  0.1592 -0.5651
 5991SOL    HW218873   4.349   5.019   0.432 -1.6287 -0.4898 -0.4403
 5992SOL     OW18874   3.427   3.419   1.902  0.6430 -0.0075 -0.4214
 5992SOL    HW118875   3.337   3.449   1.869  0.6366 -0.5968 -0.9509
 5992SOL    HW218876   3.432   3.433   2.001 -0.3075 -0.6542 -0.2714
 5993SOL     OW18877   3.616   0.291   5.739 -0.6241  0.4542  0.6863
 5993SOL    HW118878   3.530   0.342   5.741 -0.8966  0.0764 -0.4993
 5993SOL    HW218879   3.603   0.200   5.779 -1.3357 -0.3696 -1.3040
 5994SOL     OW18880   0.421   6.807   6.566  0.1659  0.0818 -0.5695
 5994SOL    HW118881   0.491   6.859   6.616 -0.6517  0.6295  0.0153
 5994SOL    HW218882   0.418   6.714   6.603  0.7448 -0.0223 -0.7611
 5995SOL     OW18883   6.652   3.068   6.694 -0.8109 -0.0207  0.2700
 5995SOL    HW118884   6.584   3.024   6.753 -0.4918  1.2285  1.6349
 5995SOL    HW218885   6.640   3.167   6.698  1.0151  0.2262  0.4747
 5996SOL     OW18886   5.577   3.723   6.772  0.4630 -0.2428 -0.7168
 5996SOL    HW118887   5.528   3.644   6.808  2.6911 -1.4902 -0.2342
 5996SOL    HW218888   5.583   3.717   6.673  2.1688 -1.7452 -0.5847
 5997SOL     OW18889   4.801   2.087   5.577  0.0163  0.1569 -0.5599
 5997SOL    HW118890   4.702   2.076   5.564  0.1695 -1.4316 -0.6742
 5997SOL    HW218891   4.848   2.072   5.490  0.4705 -1.4185 -0.0845
 5998SOL     OW18892   5.132   1.511   6.556 -0.7633  0.2194  0.3541
 5998SOL    HW118893   5.194   1.590   6.553  0.0786 -0.4133  0.4513
 5998SOL    HW218894   5.110   1.483   6.463 -0.3269  0.0192  0.3079
 5999SOL     OW18895   3.170   2.790   1.455 -0.1344  0.1454 -0.0549
 5999SOL    HW118896   3.139   2.778   1.549 -1.1974  0.2942 -0.3732
 5999SOL    HW218897   3.161   2.703   1.406 -0.9885  0.4284 -0.4110
 6000SOL     OW18898   2.636   5.614   0.039  0.0124 -0.5608 -0.3184
 6000SOL    HW118899   2.564   5.643   0.101 -0.1267  1.5288 -1.3845
 6000SOL    HW218900   2.596   5.568  -0.040  0.0961 -1.8635  0.3527
 6001SOL     OW18901   2.841   3.141   5.984 -0.1744 -1.0202 -0.5101
 6001SOL    HW118902   2.875   3.066   5.925  1.7955 -1.1601  0.7011
 6001SOL    HW218903   2.889   3.225   5.960 -0.1477 -0.8406  0.1683
 6002SOL     OW18904   5.936   4.209   4.347 -0.1646 -0.1815 -0.2613
 6002SOL    HW118905   6.035   4.214   4.361  0.6348  0.9152 -4.7942
 6002SOL    HW218906   5.890   4.268   4.413  2.1576 -0.6142  1.8686
 6003SOL     OW18907   5.928   5.030   1.601 -0.0399 -0.0633  0.3134
 6003SOL    HW118908   5.941   5.080   1.687 -0.0884 -1.5269  1.2055
 6003SOL    HW218909   6.015   5.023   1.553  0.3769 -0.7965  1.1460
 6004SOL     OW18910   0.353   4.317   6.596  0.2140  0.2875  0.0639
 6004SOL    HW118911   0.254   4.329   6.607  0.2711 -1.0001  2.8764
 6004SOL    HW218912   0.370   4.248   6.525 -0.9016  0.4507 -0.3828
 6005SOL     OW18913   5.163   0.657   3.868 -0.2508 -0.5172 -0.1839
 6005SOL    HW118914   5.159   0.723   3.793  0.2789  1.0525  1.1141
 6005SOL    HW218915   5.255   0.655   3.906 -0.5765 -1.0983  0.5943
 6006SOL     OW18916   0.287   1.982   3.459  0.6573 -0.7339 -0.6133
 6006SOL    HW118917   0.283   2.074   3.419  0.8392  0.1599  1.3096
 6006SOL    HW218918   0.194   1.949   3.476  0.5585 -1.3555 -2.2029
 6007SOL     OW18919   5.177   4.610   4.284  0.6102 -0.2177  0.0103
 6007SOL    HW118920   5.097   4.610   4.224 -0.1806  0.2138  1.0286
 6007SOL    HW218921   5.206   4.705   4.301 -1.1575 -0.0731  2.7994
 6008SOL     OW18922   1.467   6.375   6.029  0.0094  0.6318 -0.3676
 6008SOL    HW118923   1.382   6.426   6.041  0.6635  1.6674  0.0062
 6008SOL    HW218924   1.512   6.363   6.117 -0.7876 -1.8408 -0.2279
 6009SOL     OW18925   1.790   0.343   5.746 -0.1196 -0.1930  0.0866
 6009SOL    HW118926   1.836   0.255   5.742  1.0863  0.3837  0.7779
 6009SOL    HW218927   1.857   0.415   5.764 -1.1199  0.8401 -0.1836
 6010SOL     OW18928   2.251   0.252   1.794  0.2279  0.0903 -0.1151
 6010SOL    HW118929   2.346   0.222   1.791  0.6097  0.8861  1.9388
 6010SOL    HW218930   2.191   0.173   1.805  0.7744 -0.3152  0.0066
 6011SOL     OW18931   5.471   6.217   5.735 -0.1324 -0.3936  0.0586
 6011SOL    HW118932   5.458   6.252   5.828 -0.4090 -2.2928  0.7806
 6011SOL    HW218933   5.424   6.129   5.726 -0.7473  0.1074 -2.1353
 6012SOL     OW18934   3.491   6.994   6.800 -0.9914 -0.1604  0.2972
 6012SOL    HW118935   3.393   6.997   6.820 -1.1571  0.4839 -0.5114
 6012SOL    HW218936   3.504   6.992   6.700 -0.1756  4.3018  0.1231
 6013SOL     OW18937   4.241   1.106   5.075  0.6589  0.4418 -0.1643
 6013SOL    HW118938   4.159   1.156   5.103  0.0356 -0.6791  0.0845
 6013SOL    HW218939   4.232   1.079   4.979  0.7875  0.4222 -0.1709
 6014SOL     OW18940   6.760   1.090   2.695 -0.3731 -0.3232  0.1264
 6014SOL    HW118941   6.838   1.134   2.741 -0.5217 -0.2061  0.2671
 6014SOL    HW218942   6.719   1.022   2.756  0.0376 -0.8728 -0.2011
 6015SOL     OW18943   0.686   5.931   3.783  0.3784  0.3975  0.1597
 6015SOL    HW118944   0.616   5.979   3.835  0.4457 -1.4908  2.1656
 6015SOL    HW218945   0.764   5.912   3.843 -0.3561 -3.6459  0.1032
 6016SOL     OW18946   3.928   1.175   2.287 -0.0862 -0.1670  0.5696
 6016SOL    HW118947   3.986   1.252   2.262 -0.7786  0.0104 -0.5294
 6016SOL    HW218948   3.844   1.208   2.329 -1.8029 -0.0587 -2.6539
 6017SOL     OW18949   5.800   6.880   0.773  0.4805 -0.3682 -0.5697
 6017SOL    HW118950   5.878   6.841   0.822  1.1440  2.1140  0.5133
 6017SOL    HW218951   5.829   6.907   0.680  0.5532 -0.6378 -0.6258
 6018SOL     OW18952   6.654   5.453   3.857  0.1365  0.1515 -0.0490
 6018SOL    HW118953   6.568   5.410   3.828 -0.6362  0.9526  0.9658
 6018SOL    HW218954   6.653   5.550   3.831  1.7251 -0.3087 -2.0403
 6019SOL     OW18955   6.453   2.320   4.054  0.2964  0.5874  0.5544
 6019SOL    HW118956   6.392   2.393   4.084  0.6237  1.1863 -0.2135
 6019SOL    HW218957   6.528   2.311   4.119  0.6559  1.4377  0.2695
 6020SOL     OW18958   3.972   4.580   1.284  0.5811 -0.0730 -0.3209
 6020SOL    HW118959   3.966   4.485   1.252 -0.3188 -0.2779  0.4139
 6020SOL    HW218960   3.906   4.636   1.236 -0.6083 -0.3347  0.9547
 6021SOL     OW18961   0.889   6.614   0.797 -0.4875  0.6701  0.1698
 6021SOL    HW118962   0.933   6.628   0.708  0.0238 -0.6031  0.2158
 6021SOL    HW218963   0.845   6.525   0.799 -0.4820  0.6812  1.2032
 6022SOL     OW18964   2.484   1.563   6.419 -0.5549  0.3505 -0.6605
 6022SOL    HW118965   2.515   1.542   6.327 -1.4900 -0.8061 -0.7284
 6022SOL    HW218966   2.430   1.647   6.419 -0.1147  0.6338 -1.0681
 6023SOL     OW18967   1.272   6.428   6.689  0.4742  0.2619 -0.4279
 6023SOL    HW118968   1.277   6.525   6.665 -1.1790  0.4011 -0.3283
 6023SOL    HW218969   1.195   6.413   6.750  1.6802 -0.8778  0.8940
 6024SOL     OW18970   4.065   5.740   6.291  0.0802  0.2920  0.9930
 6024SOL    HW118971   4.097   5.805   6.223 -2.2887  0.7710  0.2242
 6024SOL    HW218972   4.135   5.727   6.361  2.2441  0.4573 -1.0201
 6025SOL     OW18973   2.781   3.306   5.240  0.0577 -0.0270  0.1504
 6025SOL    HW118974   2.829   3.342   5.160  1.1126 -1.2951  0.1837
 6025SOL    HW218975   2.696   3.357   5.254 -0.6335 -0.3931 -2.3269
 6026SOL     OW18976   3.071   0.418   0.042 -0.0351 -0.5993 -0.2175
 6026SOL    HW118977   3.169   0.395   0.040  0.1427  0.1446 -0.5650
 6026SOL    HW218978   3.046   0.464  -0.043  0.0774  2.1268  1.1296
 6027SOL     OW18979   2.338   6.212   0.808  0.4694  0.4328 -0.2351
 6027SOL    HW118980   2.393   6.289   0.841  2.3857 -1.2084  0.6216
 6027SOL    HW218981   2.241   6.235   0.815  0.9852  2.9054 -0.4185
 6028SOL     OW18982   2.013   2.648   4.764  0.2036 -0.3186  0.5135
 6028SOL    HW118983   2.014   2.609   4.856  1.1680  0.1123  0.6897
 6028SOL    HW218984   2.101   2.691   4.745  0.0346 -0.4732 -0.6459
 6029SOL     OW18985   0.953   5.054   3.935 -0.3512  0.0585  0.3250
 6029SOL    HW118986   0.968   5.153   3.938 -0.0966  0.2110 -2.8865
 6029SOL    HW218987   1.023   5.008   3.990  1.0881  1.5696 -0.1605
 6030SOL     OW18988   2.202   4.600   6.236 -0.2200  0.2733 -0.2269
 6030SOL    HW118989   2.183   4.539   6.160 -1.5030 -1.2832  1.2536
 6030SOL    HW218990   2.116   4.630   6.278  0.4435  1.3064  0.4609
 6031SOL     OW18991   1.138   6.338   3.244  0.1531  0.2247 -0.0363
 6031SOL    HW118992   1.214   6.273   3.243  1.7913  2.0696  0.2511
 6031SOL    HW218993   1.087   6.328   3.329 -0.1689 -1.2394 -0.3652
 6032SOL     OW18994   2.078   0.516   0.373 -0.1451 -0.2076  0.1958
 6032SOL    HW118995   2.030   0.594   0.332 -0.3616 -1.0880 -1.3105
 6032SOL    HW218996   2.109   0.455   0.300  1.0583 -0.9328  1.2944
 6033SOL     OW18997   6.871   4.333   2.516 -0.0578  0.0985 -0.0068
 6033SOL    HW118998   6.954   4.386   2.501 -1.2695  1.7903 -1.1499
 6033SOL    HW218999   6.861   4.314   2.613  1.5742 -0.0303  0.1644
 6034SOL     OW19000   5.494   4.077   4.619  0.0658 -0.5920 -0.3566
 6034SOL    HW119001   5.559   4.060   4.693 -0.8457  0.8187  0.8238
 6034SOL    HW219002   5.544   4.088   4.533  1.3080 -0.4403  0.3565
 6035SOL     OW19003   1.747   6.547   6.786 -0.0148 -0.4655 -0.2595
 6035SOL    HW119004   1.791   6.472   6.736  1.1351 -0.0865  0.1398
 6035SOL    HW219005   1.804   6.573   6.864 -0.3929  0.8202 -0.3875
 6036SOL     OW19006   2.395   5.334   2.062 -0.2008  0.5685  0.0010
 6036SOL    HW119007   2.372   5.354   1.966  0.5624 -1.6924 -0.6965
 6036SOL    HW219008   2.487   5.297   2.068 -0.8881 -1.0629  1.3687
 6037SOL     OW19009   5.770   3.039   3.442 -0.0427 -0.2640  0.1379
 6037SOL    HW119010   5.820   3.117   3.481 -0.7051  0.3432 -0.1822
 6037SOL    HW219011   5.830   2.989   3.379  0.3138  0.1457  0.1438
 6038SOL     OW19012   1.160   6.569   4.035  0.6753  0.2046  1.1539
 6038SOL    HW119013   1.123   6.565   4.128 -0.9735  0.9103  0.5770
 6038SOL    HW219014   1.235   6.635   4.032  1.3253 -0.4622  2.1445
 6039SOL     OW19015   3.453   2.792   1.573 -0.0887  0.5310 -1.0965
 6039SOL    HW119016   3.403   2.873   1.543 -1.7923  0.8870  2.2287
 6039SOL    HW219017   3.390   2.715   1.581  0.3106  0.3666  0.9700
 6040SOL     OW19018   0.071   5.466   2.213  0.5965  0.7477 -0.0432
 6040SOL    HW119019   0.002   5.503   2.151  0.6610  1.3157  0.2199
 6040SOL    HW219020   0.049   5.491   2.307  0.3035 -0.4087  0.2136
 6041SOL     OW19021   4.605   2.673   2.064  0.4624 -0.0260 -0.4844
 6041SOL    HW119022   4.575   2.648   1.972 -1.5017 -3.6065  0.8981
 6041SOL    HW219023   4.572   2.765   2.087  0.0071  0.4720 -2.8908
 6042SOL     OW19024   3.184   0.289   6.284 -0.2383 -0.4702 -0.6179
 6042SOL    HW119025   3.281   0.311   6.270 -0.0816  0.4574  1.5370
 6042SOL    HW219026   3.159   0.212   6.226  2.1528 -1.6531 -0.1985
 6043SOL     OW19027   1.549   0.912   1.080  0.5140  0.0295  0.9457
 6043SOL    HW119028   1.524   0.873   1.169  2.6471 -1.9199  0.7680
 6043SOL    HW219029   1.647   0.930   1.078  0.2934  1.2575 -0.6014
 6044SOL     OW19030   2.489   6.063   6.860  0.2361  0.4050 -0.0795
 6044SOL    HW119031   2.453   5.986   6.913 -0.2342 -0.8960 -2.1608
 6044SOL    HW219032   2.504   6.034   6.765  2.3422  2.2289 -0.4027
 6045SOL     OW19033   0.249   5.604   2.713  0.8397  0.4932 -0.2641
 6045SOL    HW119034   0.222   5.700   2.707  0.0291  0.1842 -2.3246
 6045SOL    HW219035   0.345   5.594   2.689  1.0677  0.8354  0.4828
 6046SOL     OW19036   5.559   3.405   0.405  0.1771  0.4752 -0.6390
 6046SOL    HW119037   5.530   3.492   0.363  0.2465  0.7367 -0.1564
 6046SOL    HW219038   5.500   3.386   0.484 -0.4530 -0.4075 -1.3077
 6047SOL     OW19039   6.669   4.617   1.845  0.1944  0.4524  0.3909
 6047SOL    HW119040   6.640   4.712   1.858 -0.6799  0.2038  0.3839
 6047SOL    HW219041   6.751   4.599   1.898  0.5580  1.3048  0.1223
 6048SOL     OW19042   6.749   0.956   3.183 -0.7042  0.0761 -0.6701
 6048SOL    HW119043   6.748   0.873   3.126 -1.2669 -0.1115 -0.3903
 6048SOL    HW219044   6.737   0.930   3.279 -2.1163  0.5778 -0.6950
 6049SOL     OW19045   3.439   6.769   2.522  0.2096  0.9329  0.0081
 6049SOL    HW119046   3.378   6.742   2.596  1.6497  0.4497  1.0622
 6049SOL    HW219047   3.491   6.690   2.491 -0.0807  1.2150 -1.2605
 6050SOL     OW19048   2.320   4.579   5.481 -0.3856 -0.2241 -1.0508
 6050SOL    HW119049   2.283   4.565   5.389  0.7631 -1.1728 -1.3885
 6050SOL    HW219050   2.320   4.492   5.530  2.0137 -0.4422 -1.3241
 6051SOL     OW19051   5.579   4.563   6.025  0.8084  0.0512  0.5638
 6051SOL    HW119052   5.629   4.625   6.087  1.5045 -1.2819  1.3719
 6051SOL    HW219053   5.548   4.483   6.076 -1.5988  0.5126 -0.0853
 6052SOL     OW19054   0.756   2.033   6.724  0.5831 -0.4168 -0.2810
 6052SOL    HW119055   0.678   2.090   6.697  1.0225  0.0070 -0.6764
 6052SOL    HW219056   0.809   2.081   6.795  1.7623  0.3319 -1.6203
 6053SOL     OW19057   3.300   5.756   5.306 -0.5109  0.0789  0.1944
 6053SOL    HW119058   3.293   5.839   5.252  2.8876 -1.4219 -2.9441
 6053SOL    HW219059   3.387   5.754   5.355 -0.9080 -1.2402  0.9098
 6054SOL     OW19060   0.196   2.365   3.146  0.6367 -0.1436  0.0377
 6054SOL    HW119061   0.148   2.335   3.063  0.8389  0.9594 -0.4899
 6054SOL    HW219062   0.225   2.284   3.197 -0.8284 -0.8470 -0.1720
 6055SOL     OW19063   6.159   6.427   0.402 -0.0029  0.4740  0.3812
 6055SOL    HW119064   6.180   6.462   0.311  2.1729 -0.5242  0.4319
 6055SOL    HW219065   6.174   6.500   0.469  1.3946  0.3925  0.1891
 6056SOL     OW19066   4.756   1.981   3.704  0.2155 -0.3506  0.1340
 6056SOL    HW119067   4.844   2.027   3.712  1.2401 -2.1942 -0.0859
 6056SOL    HW219068   4.753   1.903   3.766 -1.1663 -0.4743 -0.0521
 6057SOL     OW19069   4.554   4.435   6.159 -0.0227  0.1149  0.6985
 6057SOL    HW119070   4.491   4.402   6.089  1.1983  0.6506 -0.7013
 6057SOL    HW219071   4.599   4.357   6.203  0.1263 -0.1929  0.0089
 6058SOL     OW19072   2.501   5.495   5.664 -0.0055 -0.1150  0.3785
 6058SOL    HW119073   2.523   5.536   5.752 -1.5838  1.6577  0.0135
 6058SOL    HW219074   2.406   5.465   5.664  0.3897 -1.4261 -0.2595
 6059SOL     OW19075   3.410   1.624   4.964 -0.6790 -0.6300 -0.1824
 6059SOL    HW119076   3.452   1.559   4.901  0.5814  0.5449 -0.6088
 6059SOL    HW219077   3.311   1.615   4.960 -0.5344 -2.6684 -0.0319
 6060SOL     OW19078   5.829   0.286   3.688  0.0731  0.1606  0.7475
 6060SOL    HW119079   5.862   0.193   3.702  2.4447  0.6799 -0.8877
 6060SOL    HW219080   5.729   0.285   3.682 -0.0186 -2.1213  1.6185
 6061SOL     OW19081   3.901   6.141   6.709  0.3080 -0.0806  0.1695
 6061SOL    HW119082   3.995   6.116   6.735  0.5381  0.7234  0.1285
 6061SOL    HW219083   3.882   6.106   6.618  0.2110 -1.1268  0.5769
 6062SOL     OW19084   0.182   1.104   2.230  0.2688 -0.0695 -0.6857
 6062SOL    HW119085   0.239   1.039   2.280 -0.2846  0.3826  0.5721
 6062SOL    HW219086   0.108   1.054   2.184  1.2914 -0.5898 -1.8413
 6063SOL     OW19087   1.661   5.232   4.327 -0.2027 -0.3888 -0.2092
 6063SOL    HW119088   1.636   5.309   4.268  0.5480 -0.2369 -0.3396
 6063SOL    HW219089   1.749   5.194   4.297  0.6125  0.2002  1.2761
 6064SOL     OW19090   4.186   1.934   2.241 -0.8845 -0.0861 -0.0814
 6064SOL    HW119091   4.134   2.020   2.235  1.2632  1.1587 -2.1849
 6064SOL    HW219092   4.156   1.872   2.169  0.1134  0.4253 -0.9604
 6065SOL     OW19093   5.726   0.979   5.824 -0.7492  0.1398 -0.8541
 6065SOL    HW119094   5.642   0.960   5.774 -0.5625  1.2711 -1.6549
 6065SOL    HW219095   5.708   0.981   5.922 -1.0497 -2.5367 -0.7707
 6066SOL     OW19096   2.490   4.132   5.837 -0.2929 -0.2112 -0.6018
 6066SOL    HW119097   2.502   4.073   5.758 -0.9634  0.1583 -0.9837
 6066SOL    HW219098   2.417   4.096   5.895 -0.1522 -0.1973 -0.4123
 6067SOL     OW19099   4.758   5.249   5.244  0.2091  0.1060  0.5735
 6067SOL    HW119100   4.850   5.225   5.214 -0.1247 -0.0682 -0.3483
 6067SOL    HW219101   4.762   5.294   5.333  1.0480 -1.3627  1.3234
 6068SOL     OW19102   2.600   4.736   2.900 -0.0071  0.8547 -0.0822
 6068SOL    HW119103   2.518   4.790   2.879  0.9591  2.2462 -0.4479
 6068SOL    HW219104   2.611   4.728   2.999 -0.8592  0.2104 -0.0338
 6069SOL     OW19105   0.458   3.983   6.963  0.4435  0.4128  0.3318
 6069SOL    HW119106   0.510   4.068   6.974  2.4363 -0.9198  1.7766
 6069SOL    HW219107   0.398   3.970   7.042 -0.7433  0.9803 -0.4315
 6070SOL     OW19108   2.001   2.771   4.426 -0.1482  0.5248 -0.1639
 6070SOL    HW119109   1.903   2.786   4.436 -0.0008  0.2740  2.2923
 6070SOL    HW219110   2.051   2.849   4.465  0.5994 -0.3428  0.6608
 6071SOL     OW19111   1.708   4.904   3.044  0.0326  0.8130  0.3521
 6071SOL    HW119112   1.791   4.957   3.026 -0.0732  1.0254  0.4742
 6071SOL    HW219113   1.712   4.864   3.135  0.4572 -0.0513 -0.0357
 6072SOL     OW19114   5.602   2.153   6.586  0.9025  0.3082 -0.2025
 6072SOL    HW119115   5.682   2.197   6.626 -0.9461  2.3501  1.5053
 6072SOL    HW219116   5.519   2.188   6.630 -1.0286 -0.8357 -2.6823
 6073SOL     OW19117   6.363   6.237   1.205 -0.2241  0.2381 -0.0099
 6073SOL    HW119118   6.285   6.207   1.260  0.5040 -0.2830  0.7571
 6073SOL    HW219119   6.447   6.229   1.259  0.2219  2.0716 -0.3492
 6074SOL     OW19120   2.584   1.470   6.163  0.1397 -0.2144  0.2412
 6074SOL    HW119121   2.508   1.493   6.101  0.0589  0.0775  0.4448
 6074SOL    HW219122   2.602   1.372   6.158 -0.0511 -0.2382 -0.0366
 6075SOL     OW19123   4.628   2.819   6.079  0.3155 -0.2514 -0.6599
 6075SOL    HW119124   4.621   2.770   6.167  2.0063  0.6281  0.0005
 6075SOL    HW219125   4.552   2.884   6.072  0.3465 -0.0855  0.3086
 6076SOL     OW19126   4.178   4.702   2.264 -0.2437 -0.4419 -0.0480
 6076SOL    HW119127   4.172   4.603   2.273  2.2617 -0.5144  1.7747
 6076SOL    HW219128   4.242   4.738   2.331 -1.1188  2.4603 -0.6137
 6077SOL     OW19129   6.251   6.268   0.906 -0.0969  0.0921 -0.3196
 6077SOL    HW119130   6.212   6.225   0.825  1.5276  0.4846 -1.3657
 6077SOL    HW219131   6.261   6.200   0.979 -0.5703 -0.5231 -0.8185
 6078SOL     OW19132   6.966   4.596   1.324 -0.1597  0.2567 -0.1082
 6078SOL    HW119133   6.989   4.559   1.234 -1.3535  0.6335 -0.5747
 6078SOL    HW219134   6.979   4.695   1.324 -0.6266  0.3173 -0.0080
 6079SOL     OW19135   2.044   5.050   2.853  0.4486  0.0872 -0.0034
 6079SOL    HW119136   2.014   5.113   2.782 -0.1709  0.6604  0.7406
 6079SOL    HW219137   2.112   4.987   2.816  0.8890  1.0183 -0.8401
 6080SOL     OW19138   0.614   3.636   0.294 -0.2743 -0.2457  0.0771
 6080SOL    HW119139   0.578   3.543   0.298 -0.4226 -0.6348 -4.9138
 6080SOL    HW219140   0.539   3.700   0.274  0.5365  0.1203 -1.9502
 6081SOL     OW19141   1.692   0.426   4.350  0.0466 -0.0331 -0.4555
 6081SOL    HW119142   1.633   0.502   4.322 -0.6956 -0.1817  0.6622
 6081SOL    HW219143   1.635   0.348   4.375  0.6968 -0.0405  1.0581
 6082SOL     OW19144   4.250   0.738   6.705 -0.2146 -0.4343  0.2611
 6082SOL    HW119145   4.307   0.712   6.628 -0.6692 -0.4808 -0.0636
 6082SOL    HW219146   4.167   0.682   6.706 -0.7799  0.3770  0.0785
 6083SOL     OW19147   0.209   3.245   4.953  0.2829  0.5855  0.0991
 6083SOL    HW119148   0.302   3.283   4.950 -0.1248  1.5615 -0.6528
 6083SOL    HW219149   0.197   3.182   4.876  0.4319  0.1814  0.4034
 6084SOL     OW19150   4.396   1.672   0.222  0.1654  0.5955  0.4362
 6084SOL    HW119151   4.433   1.593   0.172 -1.3259 -0.4532  0.9208
 6084SOL    HW219152   4.310   1.701   0.180 -1.6416 -0.9059  2.8079
 6085SOL     OW19153   4.701   4.994   6.638 -0.3474  0.5877  0.1700
 6085SOL    HW119154   4.680   5.082   6.680 -0.5169  0.0596  1.2134
 6085SOL    HW219155   4.617   4.952   6.603 -0.8277 -0.6074  2.5581
 6086SOL     OW19156   1.141   3.077   6.452  0.6270 -0.5909  0.1179
 6086SOL    HW119157   1.215   3.130   6.495  0.6655 -0.5957  0.0574
 6086SOL    HW219158   1.107   3.009   6.517  1.0184 -0.9269 -0.0219
 6087SOL     OW19159   0.441   0.522   6.612 -0.0339  0.1527 -0.3650
 6087SOL    HW119160   0.500   0.458   6.563 -1.8434 -1.9267  0.0131
 6087SOL    HW219161   0.421   0.486   6.703  0.1250  2.0709  0.4895
 6088SOL     OW19162   5.240   1.449   4.205 -0.0030 -0.5127  0.4615
 6088SOL    HW119163   5.316   1.511   4.225  0.0386 -0.7564  1.0803
 6088SOL    HW219164   5.241   1.373   4.270 -0.2126 -1.0241 -0.1310
 6089SOL     OW19165   2.434   6.454   0.862  0.3053  0.5286 -0.5134
 6089SOL    HW119166   2.402   6.499   0.779 -0.1537  0.6167 -0.2978
 6089SOL    HW219167   2.393   6.500   0.942  0.4007  0.1811 -0.2628
 6090SOL     OW19168   4.693   5.336   5.521  0.2242 -0.4883 -0.5958
 6090SOL    HW119169   4.717   5.306   5.613  2.9852  2.1943 -0.2653
 6090SOL    HW219170   4.597   5.362   5.518  0.1343 -0.4093  1.6125
 6091SOL     OW19171   5.362   6.554   4.080  0.4396  0.2105  0.0591
 6091SOL    HW119172   5.396   6.644   4.106 -1.0696  1.3132 -1.5278
 6091SOL    HW219173   5.279   6.534   4.131  1.3310 -0.7949  1.1748
 6092SOL     OW19174   0.181   6.139   6.932  0.5395  0.3186 -0.1332
 6092SOL    HW119175   0.136   6.193   6.861  1.4186  1.1034 -0.1134
 6092SOL    HW219176   0.187   6.044   6.903  0.6121  0.5743 -0.9791
 6093SOL     OW19177   3.825   6.925   5.814  0.3160 -0.3843  0.5707
 6093SOL    HW119178   3.811   6.830   5.786  0.4968 -0.1070 -0.5067
 6093SOL    HW219179   3.905   6.962   5.766 -1.5145  1.2396 -1.4157
 6094SOL     OW19180   5.751   4.207   4.101  0.0422  0.6677 -0.0726
 6094SOL    HW119181   5.806   4.150   4.041  1.8803  1.8441  0.4186
 6094SOL    HW219182   5.789   4.206   4.194 -0.4826  1.8543  0.1812
 6095SOL     OW19183   2.390   0.887   5.532 -0.0184  0.0113 -0.0842
 6095SOL    HW119184   2.391   0.808   5.594 -0.5946 -0.6865 -0.9277
 6095SOL    HW219185   2.332   0.866   5.453  1.3675  0.5141 -1.2994
 6096SOL     OW19186   5.253   2.371   3.158  0.1193 -0.4188  0.2553
 6096SOL    HW119187   5.194   2.398   3.234  0.6529 -3.3550  1.8848
 6096SOL    HW219188   5.208   2.298   3.106  0.9207 -0.3390 -0.5695
 6097SOL     OW19189   6.528   6.151   3.339 -0.0777  0.5540 -0.3817
 6097SOL    HW119190   6.458   6.081   3.353  0.7929  0.0071  1.5367
 6097SOL    HW219191   6.605   6.111   3.288  0.2593  0.2029  0.3923
 6098SOL     OW19192   3.056   0.080   6.593  0.1856 -0.0727 -0.8722
 6098SOL    HW119193   3.103   0.016   6.654 -0.0208 -0.8625 -1.5237
 6098SOL    HW219194   3.084   0.174   6.614  1.8630 -0.5004 -1.1042
 6099SOL     OW19195   1.967   6.217   4.041  0.9011 -0.4462  0.1387
 6099SOL    HW119196   1.957   6.314   4.017 -0.6239 -0.1551  1.7741
 6099SOL    HW219197   1.977   6.208   4.140  0.4539 -2.0053  0.0652
 6100SOL     OW19198   4.635   1.922   5.899 -0.0535 -0.5289 -0.3224
 6100SOL    HW119199   4.731   1.899   5.913  1.0099  1.9414 -2.6745
 6100SOL    HW219200   4.611   2.000   5.957 -0.5075 -0.8143 -0.1198
 6101SOL     OW19201   6.466   0.725   1.902  0.1617 -0.1330  0.2569
 6101SOL    HW119202   6.371   0.754   1.889  0.1771 -1.0918 -2.7691
 6101SOL    HW219203   6.520   0.801   1.938 -1.3900  0.9379  0.4291
 6102SOL     OW19204   2.127   4.665   6.559  0.0765  0.0324  0.1068
 6102SOL    HW119205   2.185   4.583   6.552 -0.6972 -0.4485 -0.8928
 6102SOL    HW219206   2.183   4.742   6.591  1.4912 -0.1979 -1.6253
 6103SOL     OW19207   4.856   5.976   5.593 -0.8772 -0.2541  0.1365
 6103SOL    HW119208   4.757   5.967   5.603 -1.3446  3.0975 -0.4482
 6103SOL    HW219209   4.878   5.995   5.498  0.0461  1.5035  0.6680
 6104SOL     OW19210   6.765   0.584   5.008  0.2792 -0.3851 -0.3686
 6104SOL    HW119211   6.804   0.542   4.926 -1.1192  0.4810 -1.5366
 6104SOL    HW219212   6.767   0.684   4.998 -0.4874 -0.2910  0.3565
 6105SOL     OW19213   2.988   6.865   6.993 -0.2815  0.4940  0.7828
 6105SOL    HW119214   2.930   6.844   7.072  0.1806  1.8278  1.5017
 6105SOL    HW219215   2.962   6.953   6.954 -0.3954 -0.0728 -0.4926
 6106SOL     OW19216   2.389   6.764   6.334 -0.1183 -0.1296 -0.0698
 6106SOL    HW119217   2.370   6.669   6.361  1.0150 -0.1174  0.8305
 6106SOL    HW219218   2.450   6.806   6.400  0.9427  0.6208 -1.4704
 6107SOL     OW19219   0.762   5.285   0.624 -0.4447  0.1251  0.2284
 6107SOL    HW119220   0.717   5.199   0.599 -0.9629  0.8428 -1.4602
 6107SOL    HW219221   0.861   5.273   0.625 -0.5156 -0.4867 -0.0468
 6108SOL     OW19222   1.505   2.389   0.200  0.1137  0.8435 -0.0243
 6108SOL    HW119223   1.547   2.418   0.114 -0.2415  0.3030 -0.3843
 6108SOL    HW219224   1.498   2.468   0.262  1.6980  0.9522  0.0762
 6109SOL     OW19225   1.082   2.164   3.496  0.5140  0.6963  0.3638
 6109SOL    HW119226   1.161   2.111   3.463  1.5004  1.9038  0.7232
 6109SOL    HW219227   1.001   2.138   3.444  0.8750 -1.4196  0.7644
 6110SOL     OW19228   5.375   2.932   6.256  0.2307  0.1520 -0.4492
 6110SOL    HW119229   5.440   2.856   6.256  0.9583  0.7408  0.7630
 6110SOL    HW219230   5.284   2.899   6.283  0.6440 -0.2145  0.5060
 6111SOL     OW19231   2.104   6.186   6.563  0.2605  0.0942  0.6985
 6111SOL    HW119232   2.199   6.210   6.582  0.6341 -1.1930  0.5427
 6111SOL    HW219233   2.088   6.091   6.589 -0.4566 -0.3044 -1.0458
 6112SOL     OW19234   0.756   5.719   3.364 -0.0237  0.7715  0.8883
 6112SOL    HW119235   0.705   5.701   3.280 -1.2646 -1.5664  2.0278
 6112SOL    HW219236   0.766   5.818   3.377 -2.3567  1.2840 -0.5410
 6113SOL     OW19237   3.329   2.389   5.398  0.2591 -0.2161  0.5359
 6113SOL    HW119238   3.291   2.373   5.307 -2.2606 -1.9319  1.7613
 6113SOL    HW219239   3.335   2.487   5.415  2.0215  0.1947 -1.8671
 6114SOL     OW19240   7.011   3.187   1.003  0.0649 -0.0149 -0.2184
 6114SOL    HW119241   7.085   3.150   0.946 -0.6824  0.5919 -1.6450
 6114SOL    HW219242   6.927   3.137   0.985 -0.4658  0.9690 -0.5940
 6115SOL     OW19243   5.333   3.488   3.057 -0.1175  0.4177  0.0918
 6115SOL    HW119244   5.359   3.422   2.986  1.9433 -0.0967  1.2588
 6115SOL    HW219245   5.357   3.580   3.027 -0.0008  0.2916 -0.2056
 6116SOL     OW19246   6.535   5.817   2.552 -0.5180  1.0067  0.3042
 6116SOL    HW119247   6.610   5.784   2.495 -0.6841 -0.5401  0.9259
 6116SOL    HW219248   6.521   5.915   2.537  0.1294  0.8477 -1.4883
 6117SOL     OW19249   4.723   4.837   0.801  0.1135  0.1835 -0.1671
 6117SOL    HW119250   4.691   4.923   0.762  1.7064  0.1732 -1.6098
 6117SOL    HW219251   4.710   4.763   0.735  0.2960 -0.3759  0.4113
 6118SOL     OW19252   4.693   2.331   6.810 -0.4827 -0.2010 -0.3519
 6118SOL    HW119253   4.791   2.351   6.820 -0.3699 -1.1416  0.6902
 6118SOL    HW219254   4.640   2.415   6.820  0.2426  0.4407 -1.6428
 6119SOL     OW19255   4.841   2.238   4.723 -0.7004 -0.1242 -0.3241
 6119SOL    HW119256   4.927   2.241   4.671  0.5286  1.8545  1.6129
 6119SOL    HW219257   4.840   2.156   4.781  0.7261  0.6342  0.8500
 6120SOL     OW19258   5.114   0.926   0.584  0.1590 -0.3838  0.6260
 6120SOL    HW119259   5.145   0.998   0.646 -1.1504  0.4639  0.3483
 6120SOL    HW219260   5.161   0.935   0.496  0.1445  0.0062  0.6581
 6121SOL     OW19261   2.912   6.279   0.210 -0.1483  0.3917 -0.4569
 6121SOL    HW119262   2.923   6.344   0.286  1.8790 -2.0080  1.4888
 6121SOL    HW219263   2.835   6.219   0.229 -0.2691  0.4327 -0.8256
 6122SOL     OW19264   2.271   4.075   4.439  0.8256 -0.7907  0.1052
 6122SOL    HW119265   2.364   4.073   4.478 -0.0249  1.7570  2.6106
 6122SOL    HW219266   2.206   4.039   4.506 -0.3335  0.5651 -0.2391
 6123SOL     OW19267   0.333   1.984   5.984  0.0723  0.0133 -0.4132
 6123SOL    HW119268   0.237   2.006   5.966 -0.3004  0.6658  1.9266
 6123SOL    HW219269   0.366   2.042   6.059  1.9549 -1.0051 -0.3969
 6124SOL     OW19270   2.759   0.356   1.961 -0.2681  0.1520  0.2253
 6124SOL    HW119271   2.784   0.260   1.946 -0.8788 -0.1020  0.7609
 6124SOL    HW219272   2.838   0.414   1.943 -0.1200 -0.3736 -0.9312
 6125SOL     OW19273   6.448   6.692   3.476  0.4354 -0.4631 -0.1729
 6125SOL    HW119274   6.411   6.605   3.446 -0.2174 -0.2360 -0.0449
 6125SOL    HW219275   6.431   6.762   3.407 -2.3112  0.3805  1.2170
 6126SOL     OW19276   1.824   1.001   1.887  0.1095  0.3336 -0.2266
 6126SOL    HW119277   1.876   0.960   1.812  1.2886  2.4388 -0.6372
 6126SOL    HW219278   1.879   0.999   1.971 -0.2340  0.1767 -0.0013
 6127SOL     OW19279   2.012   5.893   0.780  0.0490 -0.6875  0.3679
 6127SOL    HW119280   1.918   5.913   0.754 -0.1956 -1.6698  0.4408
 6127SOL    HW219281   2.072   5.908   0.702 -0.2222 -0.4356  0.2048
 6128SOL     OW19282   6.789   4.759   4.200 -0.5072 -0.3167  0.3504
 6128SOL    HW119283   6.824   4.852   4.202  0.1745 -0.5244 -1.0144
 6128SOL    HW219284   6.815   4.712   4.285 -1.1187  0.8026  1.1797
 6129SOL     OW19285   4.810   0.120   2.483  0.4765 -0.3921  0.1584
 6129SOL    HW119286   4.740   0.191   2.490 -0.1024 -0.7222 -1.6060
 6129SOL    HW219287   4.788   0.045   2.546 -0.4984 -0.2714 -0.0235
 6130SOL     OW19288   0.845   4.639   3.220  0.0964  0.4023 -0.6847
 6130SOL    HW119289   0.762   4.592   3.190  0.2341 -0.0422 -0.3883
 6130SOL    HW219290   0.885   4.589   3.297  0.8083  0.4457 -1.0199
 6131SOL     OW19291   6.366   3.013   3.397 -0.0851  0.4061 -0.7084
 6131SOL    HW119292   6.293   3.054   3.344 -0.9555  0.6803  0.6563
 6131SOL    HW219293   6.359   3.041   3.493 -0.4994 -2.5594  0.2538
 6132SOL     OW19294   5.606   2.838   2.653  0.4658  0.8320  0.3905
 6132SOL    HW119295   5.602   2.932   2.619 -0.1256  0.6046 -0.2090
 6132SOL    HW219296   5.594   2.775   2.576  0.3592  0.2768  0.8567
 6133SOL     OW19297   5.501   1.801   5.571  0.0538 -0.2138  0.4105
 6133SOL    HW119298   5.583   1.791   5.515 -0.5851  1.3912 -0.8850
 6133SOL    HW219299   5.510   1.884   5.627 -0.3858 -0.4476  0.8379
 6134SOL     OW19300   0.221   4.922   0.621 -0.1940  0.0083  0.1764
 6134SOL    HW119301   0.287   4.997   0.610 -0.5165  0.2380 -0.2177
 6134SOL    HW219302   0.257   4.856   0.687  1.8547 -1.4184 -2.1920
 6135SOL     OW19303   1.874   6.240   0.660 -0.0691  0.6171 -0.2246
 6135SOL    HW119304   1.841   6.334   0.673 -2.2191  0.0237 -0.9980
 6135SOL    HW219305   1.798   6.176   0.673  1.4971 -1.0991  0.9501
 6136SOL     OW19306   1.897   5.588   0.778  0.5342  0.4023 -0.0477
 6136SOL    HW119307   1.978   5.645   0.764  0.3400  0.7316  0.1559
 6136SOL    HW219308   1.919   5.493   0.757  1.1605  0.3819  0.6332
 6137SOL     OW19309   2.119   4.632   0.522  0.0119 -0.1884 -0.0006
 6137SOL    HW119310   2.056   4.633   0.444 -0.0919 -2.0366  0.0146
 6137SOL    HW219311   2.069   4.652   0.606 -0.4414 -0.9225 -0.0821
 6138SOL     OW19312   6.970   4.532   3.021 -0.0826  0.4878 -1.0180
 6138SOL    HW119313   7.021   4.500   3.102  0.7908  0.2245 -1.6548
 6138SOL    HW219314   6.889   4.475   3.008 -0.5731  0.9085  0.0107
 6139SOL     OW19315   6.576   2.702   4.915  0.3956  0.4005  0.2488
 6139SOL    HW119316   6.610   2.693   5.009 -0.3575 -1.9882  0.3498
 6139SOL    HW219317   6.487   2.658   4.907  0.4293  0.5850 -1.5895
 6140SOL     OW19318   2.272   1.718   6.875  0.0483  0.2991 -0.2368
 6140SOL    HW119319   2.207   1.687   6.944  0.3432 -0.8403 -0.4472
 6140SOL    HW219320   2.239   1.693   6.784  0.2854  0.6380 -0.4199
 6141SOL     OW19321   5.306   2.643   3.040 -0.0093  0.0748  0.0942
 6141SOL    HW119322   5.387   2.690   3.073  0.5757 -1.0677  0.3551
 6141SOL    HW219323   5.296   2.556   3.090  0.7528 -1.5946 -2.4672
 6142SOL     OW19324   4.806   3.788   3.165 -0.5431 -0.1194 -0.6456
 6142SOL    HW119325   4.716   3.757   3.195 -0.3552  1.0901  1.3636
 6142SOL    HW219326   4.797   3.874   3.116 -0.5692 -0.6218 -1.5453
 6143SOL     OW19327   5.228   2.632   4.032  0.6952 -0.1991  0.0434
 6143SOL    HW119328   5.221   2.565   3.959  0.9646  0.5560 -0.6949
 6143SOL    HW219329   5.294   2.601   4.101  0.6276 -0.7949 -0.1602
 6144SOL     OW19330   5.159   0.646   2.295  0.3155 -0.0398 -0.2271
 6144SOL    HW119331   5.248   0.666   2.254  0.5272 -0.4687  0.0172
 6144SOL    HW219332   5.151   0.548   2.310  0.5235  0.1717  1.3966
 6145SOL     OW19333   3.729   5.562   6.901  0.0006 -0.0483  0.0715
 6145SOL    HW119334   3.682   5.478   6.874 -0.9716  0.8823 -1.2728
 6145SOL    HW219335   3.720   5.575   6.999  2.1567 -2.6724  0.7339
 6146SOL     OW19336   6.017   6.366   1.891 -0.9122 -0.1834  0.1308
 6146SOL    HW119337   6.009   6.283   1.836 -0.8508  1.1704 -2.0237
 6146SOL    HW219338   6.071   6.346   1.973  1.6042 -1.6577 -1.7462
 6147SOL     OW19339   6.919   1.983   2.645 -0.2377 -0.1244 -0.1975
 6147SOL    HW119340   6.942   1.964   2.740 -2.1085 -0.7923  0.1576
 6147SOL    HW219341   6.915   1.897   2.593 -3.2245 -0.2648  0.1131
 6148SOL     OW19342   2.090   4.766   2.975 -0.2346  0.2406 -0.3814
 6148SOL    HW119343   2.007   4.728   2.933 -0.8251  2.4650 -1.4270
 6148SOL    HW219344   2.144   4.813   2.905  0.1281  1.7720  0.8711
 6149SOL     OW19345   6.623   3.378   6.529  0.5604  0.7783  0.5122
 6149SOL    HW119346   6.580   3.368   6.618 -0.3714 -1.4790 -0.1243
 6149SOL    HW219347   6.582   3.455   6.480 -1.6464 -0.3313  0.5510
 6150SOL     OW19348   0.256   3.221   3.651  0.1711 -0.2167  0.2381
 6150SOL    HW119349   0.231   3.139   3.702 -0.3942 -0.7381 -0.8383
 6150SOL    HW219350   0.247   3.301   3.711  1.6579 -1.0041  1.5898
 6151SOL     OW19351   3.859   1.735   1.858  0.6235  0.4437  0.5802
 6151SOL    HW119352   3.837   1.714   1.762  0.3244  1.0217  0.5182
 6151SOL    HW219353   3.831   1.828   1.879 -1.7124 -0.4703  1.9454
 6152SOL     OW19354   2.067   1.331   4.040 -0.2017  0.1497  0.1461
 6152SOL    HW119355   1.977   1.291   4.026 -0.1822 -1.1524  2.9092
 6152SOL    HW219356   2.058   1.428   4.060 -0.9142  0.1746 -0.2667
 6153SOL     OW19357   6.653   3.263   0.249 -0.0849  0.2423  0.2435
 6153SOL    HW119358   6.744   3.222   0.258 -0.3013 -0.5134 -0.8304
 6153SOL    HW219359   6.584   3.191   0.248 -0.5616  0.6955 -0.6537
 6154SOL     OW19360   1.123   3.952   5.139  0.0807 -0.3469  0.4441
 6154SOL    HW119361   1.093   3.908   5.054 -1.3671  0.5031  0.4803
 6154SOL    HW219362   1.142   3.882   5.208 -1.6957 -0.9639  0.3574
 6155SOL     OW19363   2.354   6.725   2.858 -0.0912  0.1311 -0.1888
 6155SOL    HW119364   2.308   6.809   2.830 -0.8033  0.2481  1.2490
 6155SOL    HW219365   2.287   6.654   2.878  0.1388  0.6561  3.0813
 6156SOL     OW19366   6.848   0.781   2.942 -0.2100 -0.2495 -0.4221
 6156SOL    HW119367   6.910   0.803   2.867  0.3315 -1.2974 -0.3046
 6156SOL    HW219368   6.831   0.682   2.943  0.7307 -0.4408  1.5391
 6157SOL     OW19369   6.820   5.759   1.611 -0.1455 -0.3203 -0.1400
 6157SOL    HW119370   6.908   5.726   1.644  0.6843  1.4122 -0.4884
 6157SOL    HW219371   6.811   5.741   1.513 -0.4415 -1.0350  0.0188
 6158SOL     OW19372   6.787   0.405   0.605  0.6009  0.2354  0.2760
 6158SOL    HW119373   6.725   0.328   0.593  0.8063 -0.6153  3.5561
 6158SOL    HW219374   6.857   0.403   0.534 -0.3559 -1.6206 -0.6913
 6159SOL     OW19375   4.355   1.269   0.464  0.4402 -0.8481 -0.3726
 6159SOL    HW119376   4.308   1.351   0.430  1.2127 -0.1782  0.1402
 6159SOL    HW219377   4.417   1.295   0.538 -0.0429 -2.0558  0.4715
 6160SOL     OW19378   5.221   4.995   5.696 -0.2021  0.6658 -0.0514
 6160SOL    HW119379   5.182   5.087   5.697 -1.9869 -0.0409  1.6069
 6160SOL    HW219380   5.147   4.928   5.699  1.0997 -0.7992  0.8163
 6161SOL     OW19381   4.668   6.145   2.007 -0.0158  0.1817  0.0457
 6161SOL    HW119382   4.761   6.125   1.977 -0.5646 -0.1828 -1.4590
 6161SOL    HW219383   4.605   6.079   1.966 -0.8979  0.0971  1.4635
 6162SOL     OW19384   1.065   0.406   4.181 -0.5406  0.2438  0.5523
 6162SOL    HW119385   1.120   0.468   4.125 -0.8897  0.5260  0.5191
 6162SOL    HW219386   1.094   0.413   4.276 -0.9085  0.8337  0.6288
 6163SOL     OW19387   2.351   1.922   2.319 -0.1315 -0.1455 -0.1272
 6163SOL    HW119388   2.401   1.992   2.370  0.4505 -0.9168  0.3936
 6163SOL    HW219389   2.372   1.832   2.358 -0.9739 -0.5968 -0.6909
 6164SOL     OW19390   4.945   1.995   4.478 -0.4184  0.2211 -0.2033
 6164SOL    HW119391   4.884   1.949   4.542 -0.4125 -1.7182 -1.5272
 6164SOL    HW219392   5.013   1.931   4.445 -0.8706  0.9416 -2.7100
 6165SOL     OW19393   5.455   4.663   4.943 -0.4693 -0.3774 -0.4422
 6165SOL    HW119394   5.536   4.664   5.003  0.3648 -2.3315 -1.4424
 6165SOL    HW219395   5.424   4.756   4.928  0.8108  0.3314  1.0238
 6166SOL     OW19396   2.709   6.609   2.475 -0.6356 -0.3955 -0.3334
 6166SOL    HW119397   2.710   6.664   2.558  0.6646 -0.9725  0.0661
 6166SOL    HW219398   2.802   6.599   2.440 -0.9749 -1.3955 -1.0154
 6167SOL     OW19399   3.568   1.142   0.700  0.3486  0.0849 -0.0176
 6167SOL    HW119400   3.599   1.078   0.770 -0.7888 -0.2455  0.1960
 6167SOL    HW219401   3.490   1.194   0.734  1.7893  2.2839  0.1620
 6168SOL     OW19402   2.614   2.048   0.593  0.4191 -1.0453 -0.3485
 6168SOL    HW119403   2.608   1.963   0.646 -0.2368  0.3880  2.0014
 6168SOL    HW219404   2.522   2.076   0.564  0.0330  0.7924  2.2705
 6169SOL     OW19405   0.041   0.079   5.894 -0.1445 -0.1344 -0.3928
 6169SOL    HW119406   0.114   0.020   5.926 -1.2009 -0.7858  0.8863
 6169SOL    HW219407   0.080   0.155   5.841  1.3317 -1.1578 -0.8216
 6170SOL     OW19408   6.960   4.224   4.225 -0.1879  0.2402  0.3227
 6170SOL    HW119409   6.995   4.312   4.257  1.5182 -0.5929  0.8453
 6170SOL    HW219410   6.957   4.159   4.300 -0.8497 -0.3422 -0.1895
 6171SOL     OW19411   1.735   5.451   5.700  1.1280 -0.2462  0.2836
 6171SOL    HW119412   1.692   5.370   5.739 -0.2685  0.2057 -0.2762
 6171SOL    HW219413   1.745   5.521   5.771  0.6060 -0.2229  0.3349
 6172SOL     OW19414   2.625   6.322   6.371  0.0389  0.0703 -0.0731
 6172SOL    HW119415   2.587   6.270   6.448 -0.0904 -1.9376 -1.3964
 6172SOL    HW219416   2.725   6.320   6.375  0.0330  0.1465  0.1409
 6173SOL     OW19417   2.589   4.425   0.723  0.2790  0.0672  0.5699
 6173SOL    HW119418   2.491   4.405   0.724  0.2089  0.2130 -0.8013
 6173SOL    HW219419   2.639   4.339   0.712  0.4300 -0.2172  2.9694
 6174SOL     OW19420   5.776   3.263   5.684  0.5854 -0.6105  0.0541
 6174SOL    HW119421   5.818   3.294   5.769 -0.3065 -2.6472  1.3238
 6174SOL    HW219422   5.848   3.237   5.619  1.2747  0.8380  0.2022
 6175SOL     OW19423   0.122   1.397   6.670 -0.4669  0.1422  0.3558
 6175SOL    HW119424   0.122   1.299   6.651  1.4010  0.4026 -1.3977
 6175SOL    HW219425   0.173   1.414   6.755  0.3073 -0.3441  0.0084
 6176SOL     OW19426   3.720   6.221   2.623 -0.2342 -0.7001 -0.7718
 6176SOL    HW119427   3.790   6.152   2.642  0.3858  0.3848  1.2237
 6176SOL    HW219428   3.684   6.256   2.710  0.0425  2.0247 -1.6686
 6177SOL     OW19429   2.323   6.267   4.220  0.1987 -0.2561 -0.2752
 6177SOL    HW119430   2.267   6.261   4.138  0.6087 -1.6460 -0.4791
 6177SOL    HW219431   2.375   6.183   4.231  1.9040  0.8002  0.1559
 6178SOL     OW19432   6.200   5.841   3.965  0.3354 -0.1216 -0.5561
 6178SOL    HW119433   6.113   5.834   4.014  0.5280 -0.7140 -0.2833
 6178SOL    HW219434   6.188   5.899   3.884  0.1025  1.1450  0.3611
 6179SOL     OW19435   5.397   2.574   0.154  0.2411  0.4412 -0.2846
 6179SOL    HW119436   5.400   2.627   0.239 -0.2228  1.1599 -0.7013
 6179SOL    HW219437   5.447   2.624   0.083 -0.3585  0.4029 -0.7328
 6180SOL     OW19438   4.858   4.039   5.566  0.4344 -1.0674 -0.5288
 6180SOL    HW119439   4.856   4.138   5.554 -0.0302 -0.8867  0.8724
 6180SOL    HW219440   4.943   4.003   5.529  0.3972 -0.2215 -1.4991
 6181SOL     OW19441   5.021   4.689   2.679 -0.5005  0.3309  0.2384
 6181SOL    HW119442   5.060   4.603   2.645 -0.2621  0.7627 -0.6223
 6181SOL    HW219443   4.924   4.692   2.655 -0.4170  0.4729 -0.0898
 6182SOL     OW19444   3.537   3.547   4.477 -0.9506 -0.5528 -0.0467
 6182SOL    HW119445   3.479   3.570   4.399 -2.0912 -3.6833 -0.2479
 6182SOL    HW219446   3.633   3.556   4.450 -1.2196  2.8071 -0.3020
 6183SOL     OW19447   6.803   6.417   3.848  0.9815  0.2791  0.0150
 6183SOL    HW119448   6.720   6.464   3.819  1.0136 -0.4273 -1.3240
 6183SOL    HW219449   6.883   6.461   3.806  1.1494  0.0726  0.1175
 6184SOL     OW19450   0.756   1.216   1.812 -0.7364  0.1225  0.6501
 6184SOL    HW119451   0.825   1.145   1.797 -0.8703  0.0251  0.5006
 6184SOL    HW219452   0.729   1.217   1.908 -1.3690 -0.6055  0.4855
 6185SOL     OW19453   4.149   4.511   0.289 -0.5181  0.2217 -0.0319
 6185SOL    HW119454   4.185   4.599   0.255 -0.8560  0.1647 -0.5561
 6185SOL    HW219455   4.058   4.525   0.326 -0.3094  0.2079  0.4911
 6186SOL     OW19456   1.417   1.817   5.350 -0.1619  0.4219 -0.0043
 6186SOL    HW119457   1.408   1.865   5.438 -0.5513 -1.4840  1.0630
 6186SOL    HW219458   1.509   1.829   5.315 -0.1069  1.5126  0.4825
 6187SOL     OW19459   0.631   0.094   2.931  0.1244 -0.0282 -0.4743
 6187SOL    HW119460   0.687   0.073   3.012  0.0332  0.5299 -0.2566
 6187SOL    HW219461   0.684   0.151   2.868  0.4681 -1.1181 -1.1868
 6188SOL     OW19462   4.590   6.819   4.498 -0.0476  0.1617 -0.0146
 6188SOL    HW119463   4.582   6.838   4.595  1.4466  0.5158  0.0648
 6188SOL    HW219464   4.553   6.729   4.478 -1.3072  0.5037  0.6978
 6189SOL     OW19465   0.409   0.871   6.315 -0.3216  0.0667 -0.0964
 6189SOL    HW119466   0.424   0.969   6.329 -0.6726  0.0287  0.5775
 6189SOL    HW219467   0.475   0.819   6.369 -0.0542 -0.0694 -0.5517
 6190SOL     OW19468   6.937   6.575   3.520  0.6181  0.1447  0.2323
 6190SOL    HW119469   6.939   6.481   3.486  1.3720 -0.0858  0.8801
 6190SOL    HW219470   6.843   6.608   3.520  0.3434 -0.6081 -0.0205
 6191SOL     OW19471   1.949   5.210   4.600 -0.4502  0.2778  0.2870
 6191SOL    HW119472   1.935   5.304   4.570 -0.2794  0.7890  1.7195
 6191SOL    HW219473   1.907   5.197   4.690  0.1585 -0.8008  0.4373
 6192SOL     OW19474   6.587   6.880   5.751 -0.0599 -0.5949 -0.3724
 6192SOL    HW119475   6.596   6.937   5.670  0.2513  1.0193  0.7482
 6192SOL    HW219476   6.668   6.892   5.809 -0.9110 -0.5970  0.8527
 6193SOL     OW19477   4.825   4.557   3.561  0.0200  0.0664  0.4209
 6193SOL    HW119478   4.854   4.652   3.544 -1.4729  0.2649 -1.4410
 6193SOL    HW219479   4.892   4.494   3.521 -1.1385  0.4848 -2.4638
 6194SOL     OW19480   0.250   6.431   0.869 -0.0235  0.4242  0.1928
 6194SOL    HW119481   0.207   6.507   0.820 -0.1778 -0.1355 -0.5571
 6194SOL    HW219482   0.189   6.400   0.942 -0.5728  0.1374 -0.3758
 6195SOL     OW19483   1.563   4.946   1.234  0.6590  0.2221 -0.3516
 6195SOL    HW119484   1.627   4.914   1.303  0.2477  1.9231  0.8852
 6195SOL    HW219485   1.476   4.969   1.277  0.1467  0.6231 -1.5560
 6196SOL     OW19486   0.077   1.730   5.246  0.0713  0.1219 -0.0060
 6196SOL    HW119487  -0.010   1.723   5.295  0.0705 -0.1718 -0.0475
 6196SOL    HW219488   0.121   1.817   5.269 -0.0664  0.1158  0.2889
 6197SOL     OW19489   0.080   5.391   6.413 -0.7932 -0.1653 -0.1195
 6197SOL    HW119490   0.002   5.448   6.388 -1.1371 -0.6174 -0.1041
 6197SOL    HW219491   0.081   5.310   6.354 -0.2884 -0.1207 -0.1689
 6198SOL     OW19492   4.550   2.543   6.893 -0.6865 -0.4657  0.2133
 6198SOL    HW119493   4.557   2.642   6.908 -1.7331 -0.1349 -1.2071
 6198SOL    HW219494   4.464   2.510   6.929  0.3520 -1.2047  2.1334
 6199SOL     OW19495   3.634   7.015   3.612  0.0497 -0.5063 -0.5386
 6199SOL    HW119496   3.709   6.967   3.567  0.7495 -1.6092  1.6423
 6199SOL    HW219497   3.607   6.965   3.694 -1.4279  1.1557  0.0567
 6200SOL     OW19498   2.942   0.224   2.709  0.5917 -0.1826  0.0378
 6200SOL    HW119499   2.911   0.306   2.758  1.1194 -0.3449  0.6515
 6200SOL    HW219500   3.042   0.223   2.706  0.5744 -0.3484 -0.7583
 6201SOL     OW19501   4.576   5.926   0.704  0.2951  0.3724 -0.4194
 6201SOL    HW119502   4.674   5.916   0.718  0.1992  0.9144  0.8317
 6201SOL    HW219503   4.527   5.892   0.785 -0.3063  3.9208  0.9356
 6202SOL     OW19504   1.810   5.683   5.455 -0.1189 -0.2953 -0.2026
 6202SOL    HW119505   1.756   5.600   5.443 -0.1439 -0.1165 -1.5295
 6202SOL    HW219506   1.876   5.691   5.380  1.8367 -0.5519  1.4289
 6203SOL     OW19507   2.682   5.612   6.293  0.2560  0.0900 -0.0914
 6203SOL    HW119508   2.625   5.649   6.219  1.1675  0.7727 -0.4739
 6203SOL    HW219509   2.753   5.679   6.316  0.1961 -0.2643  1.1708
 6204SOL     OW19510   4.591   2.901   0.322  0.2789  0.1038  0.1637
 6204SOL    HW119511   4.554   2.957   0.247 -1.7062 -2.2762 -0.7767
 6204SOL    HW219512   4.517   2.851   0.366  1.8769 -1.3864  1.3062
 6205SOL     OW19513   6.129   2.564   6.703 -0.0134 -0.2071 -0.2267
 6205SOL    HW119514   6.076   2.572   6.787 -0.5919 -0.0304 -0.6030
 6205SOL    HW219515   6.139   2.654   6.661  0.6852 -0.2209 -0.1032
 6206SOL     OW19516   3.160   1.479   1.825  0.5447  0.3569 -0.1555
 6206SOL    HW119517   3.110   1.562   1.800  0.9528 -0.1666 -2.9501
 6206SOL    HW219518   3.111   1.432   1.899 -0.4648  2.3078  0.4825
 6207SOL     OW19519   5.710   3.728   4.478  0.4745  0.5343  0.0366
 6207SOL    HW119520   5.806   3.746   4.495  0.8591 -1.3852  0.1495
 6207SOL    HW219521   5.669   3.684   4.558 -0.3156  0.7173 -0.2508
 6208SOL     OW19522   5.212   3.803   3.154 -0.1019 -0.6554  0.1405
 6208SOL    HW119523   5.142   3.746   3.197 -1.3126  0.0752 -0.7911
 6208SOL    HW219524   5.169   3.868   3.092  1.2092  1.5493  1.4300
 6209SOL     OW19525   3.572   1.196   2.157  0.6770 -0.5314 -0.4592
 6209SOL    HW119526   3.642   1.129   2.182 -0.0061 -1.4285 -0.9254
 6209SOL    HW219527   3.516   1.160   2.083  0.7686  0.8686 -1.2374
 6210SOL     OW19528   6.696   0.319   1.480  0.6887  0.1847  0.1832
 6210SOL    HW119529   6.708   0.392   1.412 -0.0953  0.3129  0.1767
 6210SOL    HW219530   6.719   0.354   1.571 -2.7384  1.4789  0.6959
 6211SOL     OW19531   6.424   5.330   3.800  0.4969 -0.2370  0.1766
 6211SOL    HW119532   6.382   5.355   3.713  0.5066 -1.0161 -0.0595
 6211SOL    HW219533   6.353   5.296   3.862  0.6318 -0.6081  0.1279
 6212SOL     OW19534   4.558   0.724   4.153  0.3764 -0.4920 -0.4981
 6212SOL    HW119535   4.630   0.716   4.084 -0.1987 -1.1745 -1.0291
 6212SOL    HW219536   4.470   0.738   4.108  0.1735  0.4754  0.1500
 6213SOL     OW19537   4.922   1.406   1.439 -0.2766 -0.0140 -0.2958
 6213SOL    HW119538   4.955   1.492   1.478 -2.1171  0.3083  0.6235
 6213SOL    HW219539   4.849   1.424   1.374  0.0742 -0.8320 -0.9356
 6214SOL     OW19540   5.561   2.008   0.406  0.2159  0.0250 -0.2110
 6214SOL    HW119541   5.550   1.924   0.459 -1.1948  1.9326  2.7871
 6214SOL    HW219542   5.488   2.013   0.337 -1.5766  0.0785  1.5849
 6215SOL     OW19543   4.415   3.728   5.802 -1.0997 -0.0252  0.0139
 6215SOL    HW119544   4.388   3.824   5.811  1.8149  0.7216  1.9146
 6215SOL    HW219545   4.487   3.721   5.734 -1.0456 -0.8294  0.1559
 6216SOL     OW19546   5.934   1.720   1.561 -0.1642 -0.2609 -0.1341
 6216SOL    HW119547   5.917   1.720   1.463  0.2637 -0.5752 -0.2137
 6216SOL    HW219548   5.936   1.625   1.595  0.5881 -0.2013  0.0099
 6217SOL     OW19549   0.564   6.783   1.170  0.2499  0.6936  0.1437
 6217SOL    HW119550   0.510   6.805   1.251  0.8596  0.5074  0.6054
 6217SOL    HW219551   0.656   6.819   1.180  0.2652  0.8819 -0.5783
 6218SOL     OW19552   2.263   1.573   2.553 -0.0975  0.0547  0.4420
 6218SOL    HW119553   2.330   1.627   2.603 -0.1225  0.1509  0.3713
 6218SOL    HW219554   2.287   1.570   2.456  2.4570 -3.7427  0.9768
 6219SOL     OW19555   3.099   5.184   0.831  0.1877  0.5384  0.1549
 6219SOL    HW119556   3.114   5.272   0.877  1.3962  0.2150  0.4141
 6219SOL    HW219557   3.128   5.110   0.891  0.9826  0.0657 -0.7819
 6220SOL     OW19558   4.687   6.106   2.587 -0.0920  0.8141 -0.0039
 6220SOL    HW119559   4.620   6.149   2.646 -0.6988  0.1976 -0.2273
 6220SOL    HW219560   4.650   6.097   2.494  0.6230  1.2351 -0.3376
 6221SOL     OW19561   6.831   5.871   3.832  0.2768  0.0103  0.4668
 6221SOL    HW119562   6.777   5.817   3.767 -0.9820  0.9980  0.6273
 6221SOL    HW219563   6.928   5.851   3.820  0.3456  1.6372 -3.2057
 6222SOL     OW19564   3.295   4.916   1.276 -0.1105 -0.7869  0.7118
 6222SOL    HW119565   3.289   4.816   1.273 -2.0528 -0.7177  1.0779
 6222SOL    HW219566   3.335   4.943   1.363 -0.7467 -1.2376  1.1607
 6223SOL     OW19567   2.659   5.963   6.416 -0.2333 -0.1939  0.1661
 6223SOL    HW119568   2.587   5.952   6.348 -0.4477 -0.5473  0.4417
 6223SOL    HW219569   2.749   5.953   6.372 -0.3626 -0.1760 -0.1034
 6224SOL     OW19570   3.023   1.715   1.806  0.1349  0.0678 -0.6936
 6224SOL    HW119571   3.002   1.733   1.710  0.0549  2.3721 -0.3028
 6224SOL    HW219572   2.938   1.706   1.857  0.1712 -1.8921 -0.9193
 6225SOL     OW19573   3.449   6.932   6.440  0.1113  0.4182  0.5702
 6225SOL    HW119574   3.485   6.877   6.364  0.2999 -0.6692  1.4147
 6225SOL    HW219575   3.382   6.878   6.491  0.0819  1.0863  1.2521
 6226SOL     OW19576   5.922   2.280   4.000 -0.4404 -0.2667 -0.1649
 6226SOL    HW119577   5.878   2.261   4.088  1.8184 -1.8583  0.6967
 6226SOL    HW219578   5.921   2.198   3.943  0.2498  0.0434 -0.6428
 6227SOL     OW19579   0.494   1.493   1.275 -0.3715 -0.1576  0.2893
 6227SOL    HW119580   0.548   1.410   1.291  0.0996  0.1855  0.5196
 6227SOL    HW219581   0.498   1.518   1.178  0.5262  0.2886  0.4267
 6228SOL     OW19582   4.395   2.293   5.764  0.2227  0.2918 -0.4075
 6228SOL    HW119583   4.296   2.304   5.775  0.3454  0.3925  0.6596
 6228SOL    HW219584   4.441   2.309   5.851  1.2859  1.3878 -1.1255
 6229SOL     OW19585   3.352   3.760   5.783 -0.0644  0.2797  0.2578
 6229SOL    HW119586   3.436   3.713   5.811 -0.3771 -0.2048  0.3875
 6229SOL    HW219587   3.341   3.844   5.837  2.1266  2.2158 -2.0649
 6230SOL     OW19588   1.167   4.619   0.253  0.0739  0.1794 -0.2648
 6230SOL    HW119589   1.209   4.685   0.316 -0.1987  0.8793 -0.8165
 6230SOL    HW219590   1.203   4.528   0.273 -0.4778  0.2727  1.3425
 6231SOL     OW19591   3.454   1.209   4.056  0.3406  0.0698  0.4438
 6231SOL    HW119592   3.452   1.111   4.073 -2.5464 -0.1156 -0.2888
 6231SOL    HW219593   3.396   1.230   3.976  2.2840  2.2159 -0.5408
 6232SOL     OW19594   4.128   6.034   1.597  0.5818 -0.7790  0.4013
 6232SOL    HW119595   4.141   6.041   1.498  0.4558 -1.1942  0.3525
 6232SOL    HW219596   4.072   5.953   1.617 -1.8252  0.8515  0.6115
 6233SOL     OW19597   6.846   0.891   3.926  0.3218  0.8465 -0.3610
 6233SOL    HW119598   6.786   0.962   3.889 -0.9686  1.7080  3.0043
 6233SOL    HW219599   6.921   0.933   3.978 -1.2247 -0.0583  2.8632
 6234SOL     OW19600   4.144   4.979   3.801 -0.2619 -0.3793 -0.8528
 6234SOL    HW119601   4.158   4.921   3.881 -1.4389 -2.5494 -2.1171
 6234SOL    HW219602   4.232   5.001   3.760  0.3983  1.0801  1.1446
 6235SOL     OW19603   0.265   2.337   5.139 -0.4153 -0.4688  0.5053
 6235SOL    HW119604   0.276   2.359   5.042  1.0298 -0.8751  0.5604
 6235SOL    HW219605   0.173   2.302   5.154  0.1415 -2.9101 -1.2169
 6236SOL     OW19606   0.585   2.911   5.611  0.3425 -0.0036  0.5380
 6236SOL    HW119607   0.498   2.883   5.652 -0.1514 -0.2557 -0.6475
 6236SOL    HW219608   0.649   2.835   5.616 -0.8670 -1.3576 -2.3102
 6237SOL     OW19609   5.712   2.579   2.514  0.5077 -0.2504 -0.2602
 6237SOL    HW119610   5.666   2.546   2.596 -0.9781  0.9437 -0.5610
 6237SOL    HW219611   5.803   2.614   2.538 -0.1285  0.6301  1.0103
 6238SOL     OW19612   5.255   2.074   0.335 -0.9276 -0.5297  0.1145
 6238SOL    HW119613   5.240   1.975   0.343 -0.6625 -0.5670  0.1632
 6238SOL    HW219614   5.201   2.121   0.404  1.0798 -0.8297  1.9976
 6239SOL     OW19615   0.559   5.096   5.091  0.0257 -0.0452 -0.7462
 6239SOL    HW119616   0.467   5.058   5.077 -0.0705 -0.1441  0.0746
 6239SOL    HW219617   0.563   5.139   5.181  0.9803 -0.6244 -0.5029
 6240SOL     OW19618   4.832   4.458   5.023  0.6892 -0.0855  0.0920
 6240SOL    HW119619   4.863   4.372   5.063 -0.1538 -0.2741  0.3536
 6240SOL    HW219620   4.734   4.455   5.007  1.0174 -0.1171 -2.2781
 6241SOL     OW19621   6.111   5.767   1.302 -0.5237 -0.2471 -0.1388
 6241SOL    HW119622   6.187   5.704   1.315 -0.0058  0.4973  0.5238
 6241SOL    HW219623   6.031   5.716   1.270  0.9253 -0.7246 -3.4300
 6242SOL     OW19624   6.146   5.762   5.079  0.4197 -0.3822 -0.4615
 6242SOL    HW119625   6.179   5.822   5.007 -2.3285  0.5739 -1.0395
 6242SOL    HW219626   6.187   5.672   5.069  1.8530  0.3737 -1.7861
 6243SOL     OW19627   4.373   3.370   1.139 -0.5691  0.2974 -0.2903
 6243SOL    HW119628   4.359   3.271   1.144 -1.2189  0.3239 -1.3780
 6243SOL    HW219629   4.307   3.417   1.198 -0.7629  0.1175 -0.3636
 6244SOL     OW19630   0.950   0.691   5.838  0.2271  0.1830  1.0486
 6244SOL    HW119631   0.968   0.708   5.934  2.0944 -1.4775  1.0488
 6244SOL    HW219632   0.943   0.778   5.789 -0.8624  1.0466  2.6608
 6245SOL     OW19633   2.458   3.165   0.275  0.6227 -0.1525  0.3862
 6245SOL    HW119634   2.485   3.083   0.224 -0.0823 -2.1398  3.0112
 6245SOL    HW219635   2.537   3.226   0.283  1.1216 -0.4266 -1.7641
 6246SOL     OW19636   1.520   7.015   3.450 -0.2253  0.0221  0.5277
 6246SOL    HW119637   1.432   6.979   3.421  0.3966  0.8016 -2.7691
 6246SOL    HW219638   1.584   6.939   3.466 -0.2964 -0.5463 -1.5398
 6247SOL     OW19639   6.568   4.154   1.959  0.0382  0.7582 -0.0496
 6247SOL    HW119640   6.659   4.164   1.919  0.2271  2.5540  0.7130
 6247SOL    HW219641   6.520   4.242   1.954 -1.9684 -0.3094 -1.1116
 6248SOL     OW19642   1.228   1.522   3.205 -0.0863  0.6302 -0.2739
 6248SOL    HW119643   1.246   1.478   3.117 -0.6357  1.1386 -0.6478
 6248SOL    HW219644   1.290   1.484   3.275  0.7475  0.6401 -0.9951
 6249SOL     OW19645   1.042   1.413   5.970  0.0106  0.1121 -0.3381
 6249SOL    HW119646   0.954   1.442   6.009  0.1089  1.5167 -1.1320
 6249SOL    HW219647   1.102   1.384   6.045 -0.7343  0.2043  0.3184
 6250SOL     OW19648   3.941   3.850   2.370  0.3553 -0.6821 -0.0287
 6250SOL    HW119649   3.870   3.788   2.338 -0.0711 -0.1168 -0.1930
 6250SOL    HW219650   3.914   3.891   2.457 -0.1967  0.6232 -0.7783
 6251SOL     OW19651   0.394   5.020   6.165  0.2238 -0.0313 -0.1883
 6251SOL    HW119652   0.461   4.948   6.188 -1.1331 -1.1263  0.4651
 6251SOL    HW219653   0.306   4.979   6.146 -0.6186  1.4794  0.2659
 6252SOL     OW19654   5.721   4.759   0.556  0.6336 -0.4288 -0.3440
 6252SOL    HW119655   5.711   4.838   0.496 -1.8224  0.6897  1.3407
 6252SOL    HW219656   5.637   4.705   0.555 -0.4382  0.8194  3.4682
 6253SOL     OW19657   1.885   4.534   4.019  0.2099 -0.3956  0.6881
 6253SOL    HW119658   1.950   4.491   3.956 -0.6539  0.1429 -0.5864
 6253SOL    HW219659   1.813   4.470   4.042 -0.0625 -0.2387  0.2708
 6254SOL     OW19660   6.854   5.951   6.338 -0.4417  0.0063  0.2585
 6254SOL    HW119661   6.843   6.050   6.340 -0.9861 -0.0639  1.4373
 6254SOL    HW219662   6.839   5.917   6.245 -1.8677  0.8517  0.1697
 6255SOL     OW19663   6.877   3.640   5.767  0.3171  0.0657 -0.2400
 6255SOL    HW119664   6.800   3.693   5.803  0.2854 -0.8472  1.1164
 6255SOL    HW219665   6.949   3.634   5.836  0.0275 -2.2260 -0.0405
 6256SOL     OW19666   5.489   5.369   6.564  0.0028  0.0716 -0.1341
 6256SOL    HW119667   5.416   5.372   6.495 -0.2313  0.0583  0.1119
 6256SOL    HW219668   5.568   5.320   6.526 -0.2293 -0.1871 -0.2956
 6257SOL     OW19669   4.622   4.720   0.311 -0.3739 -0.3338  0.3459
 6257SOL    HW119670   4.678   4.803   0.304 -0.3127 -0.4663 -1.1531
 6257SOL    HW219671   4.608   4.683   0.219 -0.4276 -1.9696  0.9918
 6258SOL     OW19672   6.950   6.584   6.263 -0.0571 -0.2236  0.1439
 6258SOL    HW119673   7.024   6.619   6.206 -0.8056  1.0524 -0.0861
 6258SOL    HW219674   6.862   6.595   6.215 -0.5812 -0.1353  1.0969
 6259SOL     OW19675   5.767   6.859   6.263  0.3173 -0.0189 -0.3701
 6259SOL    HW119676   5.700   6.851   6.190  1.2451  0.3486 -1.2936
 6259SOL    HW219677   5.752   6.787   6.331 -0.2872 -0.6361 -1.1435
 6260SOL     OW19678   5.928   3.082   1.751  0.4445  0.4091  0.0681
 6260SOL    HW119679   5.951   3.172   1.714  1.3961 -0.1640 -0.7720
 6260SOL    HW219680   6.011   3.038   1.785  0.0870 -0.4161 -0.1178
 6261SOL     OW19681   1.462   4.344   6.556  0.7042  0.0540  0.5950
 6261SOL    HW119682   1.469   4.441   6.530 -0.5988 -0.3061 -1.3405
 6261SOL    HW219683   1.420   4.293   6.481  3.8726 -2.5371  0.3340
 6262SOL     OW19684   2.117   6.810   4.144  0.4495  0.1369  0.2250
 6262SOL    HW119685   2.135   6.716   4.116  0.6721  0.2022  0.1451
 6262SOL    HW219686   2.130   6.819   4.242  1.7223  0.3780  0.0487
 6263SOL     OW19687   1.168   6.252   1.329  0.3726 -0.1273  0.0347
 6263SOL    HW119688   1.111   6.281   1.252  1.0363  0.4225 -0.2598
 6263SOL    HW219689   1.239   6.189   1.296 -0.0710 -0.8360  0.4042
 6264SOL     OW19690   0.124   4.419   3.265 -0.4480  0.4392 -0.1220
 6264SOL    HW119691   0.212   4.462   3.287 -0.2595  0.2826 -0.5452
 6264SOL    HW219692   0.060   4.433   3.340  0.9089 -2.1627  1.6766
 6265SOL     OW19693   1.570   0.265   6.570  0.0892 -0.0668  0.4566
 6265SOL    HW119694   1.631   0.222   6.637  1.7793 -0.3200 -1.1733
 6265SOL    HW219695   1.612   0.348   6.535 -1.1738  0.5360  0.3254
 6266SOL     OW19696   5.125   1.329   4.831  0.7188  0.0773  0.2638
 6266SOL    HW119697   5.107   1.256   4.896 -0.6997  0.1108 -0.0667
 6266SOL    HW219698   5.217   1.318   4.793  1.2236 -0.4505  1.5901
 6267SOL     OW19699   6.166   4.500   2.337 -0.1191 -0.5329 -0.0696
 6267SOL    HW119700   6.246   4.508   2.278 -1.7769  0.0623 -2.4141
 6267SOL    HW219701   6.130   4.407   2.331 -0.7382 -0.2652 -0.6738
 6268SOL     OW19702   3.735   1.954   1.129  0.4608  0.1177  0.0527
 6268SOL    HW119703   3.695   2.041   1.156 -3.5408 -1.1150 -1.1797
 6268SOL    HW219704   3.709   1.884   1.196  0.3908 -0.7921 -0.9035
 6269SOL     OW19705   1.576   6.915   3.112  0.2593  0.5942  0.0110
 6269SOL    HW119706   1.644   6.973   3.158  1.1600  1.3318 -2.0934
 6269SOL    HW219707   1.499   6.898   3.173  1.8426  0.6083  2.1185
 6270SOL     OW19708   3.444   1.206   3.308 -0.4190  0.1085 -0.3252
 6270SOL    HW119709   3.393   1.159   3.380  0.3917  1.0186  0.8665
 6270SOL    HW219710   3.432   1.304   3.317  2.7075  0.4585  0.9341
 6271SOL     OW19711   6.289   4.507   1.676 -0.1370 -0.5800  0.2215
 6271SOL    HW119712   6.336   4.582   1.723 -0.9491 -1.2365  2.1825
 6271SOL    HW219713   6.191   4.512   1.694 -0.3287 -1.5572 -0.4302
 6272SOL     OW19714   2.002   2.368   3.808  0.0624 -0.2387 -0.0291
 6272SOL    HW119715   1.939   2.376   3.731 -0.3783 -0.4837  0.3030
 6272SOL    HW219716   1.988   2.446   3.870 -0.1139 -0.4389  0.1866
 6273SOL     OW19717   4.962   0.535   5.126  0.5321  0.2070 -0.5620
 6273SOL    HW119718   5.030   0.491   5.067 -1.6395 -2.3510 -1.3383
 6273SOL    HW219719   4.919   0.465   5.184 -0.8306  1.8837  0.5230
 6274SOL     OW19720   0.716   5.685   2.976  0.0380  0.4584 -0.5178
 6274SOL    HW119721   0.705   5.591   2.946  0.5554  0.7052 -1.5309
 6274SOL    HW219722   0.654   5.704   3.052  1.8781 -1.5067  1.6134
 6275SOL     OW19723   3.343   6.959   2.270 -0.2686  0.1047  0.5476
 6275SOL    HW119724   3.373   6.928   2.361  1.8548  0.6067  0.0581
 6275SOL    HW219725   3.364   7.056   2.259 -3.5803  0.9654  0.7075
 6276SOL     OW19726   4.479   6.695   5.021  0.5265  0.3433  0.5020
 6276SOL    HW119727   4.479   6.666   5.116 -1.3961  0.7139  0.6426
 6276SOL    HW219728   4.435   6.785   5.013 -0.8275 -0.4037 -0.9127
 6277SOL     OW19729   0.524   2.115   2.464  0.5196  0.1275  0.3167
 6277SOL    HW119730   0.559   2.205   2.487  1.8468 -0.0665 -0.7727
 6277SOL    HW219731   0.432   2.123   2.427  1.2460  1.2681 -1.3693
 6278SOL     OW19732   0.851   2.133   5.512 -0.3786 -0.1510  0.0910
 6278SOL    HW119733   0.948   2.117   5.527 -0.1109  0.4018 -0.9560
 6278SOL    HW219734   0.811   2.057   5.461 -0.3418 -0.0730 -0.0554
 6279SOL     OW19735   4.728   2.136   1.744  0.0483 -0.2892 -0.3540
 6279SOL    HW119736   4.726   2.052   1.798 -0.3622 -0.0329  0.0341
 6279SOL    HW219737   4.638   2.152   1.703 -0.4683  1.0058  1.2120
 6280SOL     OW19738   3.106   3.731   5.900 -0.0624  0.3915  0.1669
 6280SOL    HW119739   3.030   3.779   5.855  0.1371 -0.4762 -1.1537
 6280SOL    HW219740   3.189   3.742   5.845 -0.0825 -1.6951 -0.3734
 6281SOL     OW19741   6.863   4.806   3.519  0.0862 -0.5916 -0.1553
 6281SOL    HW119742   6.802   4.775   3.446  1.4517  2.3163 -2.7899
 6281SOL    HW219743   6.942   4.745   3.525 -0.8173 -1.7773  0.0646
 6282SOL     OW19744   3.538   4.098   6.380 -0.2102  0.1744 -0.1952
 6282SOL    HW119745   3.541   4.077   6.282 -2.0557  0.7820 -0.4336
 6282SOL    HW219746   3.596   4.034   6.430  2.2652  1.0075 -1.8242
 6283SOL     OW19747   2.080   2.280   5.129 -0.4568  0.0085 -0.5883
 6283SOL    HW119748   1.994   2.267   5.180 -0.1347 -0.8432 -0.2397
 6283SOL    HW219749   2.117   2.191   5.104  0.9985  0.3110  0.3879
 6284SOL     OW19750   1.980   6.027   1.519  0.7204  0.3868  0.1775
 6284SOL    HW119751   1.943   6.113   1.554  0.3727  0.6400 -0.7763
 6284SOL    HW219752   1.988   6.032   1.420  0.5391 -0.7382  0.0906
 6285SOL     OW19753   0.196   3.931   6.232  0.3975 -0.3247 -0.3389
 6285SOL    HW119754   0.163   3.969   6.145  0.4115 -1.4504 -0.8574
 6285SOL    HW219755   0.278   3.877   6.216  0.8806  0.1316  0.5187
 6286SOL     OW19756   4.592   2.680   4.578  0.2861  0.5300  0.1823
 6286SOL    HW119757   4.617   2.773   4.605 -2.8786  1.2222  1.2621
 6286SOL    HW219758   4.613   2.666   4.482  0.2329  2.6448 -0.1843
 6287SOL     OW19759   4.740   2.510   2.593  0.0123 -0.3824  0.3696
 6287SOL    HW119760   4.748   2.566   2.510 -0.6719 -0.4653  0.2468
 6287SOL    HW219761   4.729   2.414   2.566 -0.0779 -0.4257  0.5630
 6288SOL     OW19762   2.741   4.913   0.083 -0.3225 -0.5076 -0.5652
 6288SOL    HW119763   2.799   4.834   0.063  0.6236 -0.6722  2.2567
 6288SOL    HW219764   2.676   4.889   0.155 -0.3105  1.1314  0.0499
 6289SOL     OW19765   0.432   0.537   5.860 -0.2496  0.4658 -0.5900
 6289SOL    HW119766   0.447   0.591   5.943 -1.3277 -0.3928  0.2063
 6289SOL    HW219767   0.519   0.497   5.831 -0.1268 -0.8116  1.3066
 6290SOL     OW19768   0.029   6.522   3.024  0.2294 -0.4590  0.0883
 6290SOL    HW119769  -0.037   6.561   2.960  1.1137 -1.1151 -1.2701
 6290SOL    HW219770   0.040   6.583   3.102 -1.5624 -0.0850  0.0927
 6291SOL     OW19771   0.201   0.014   6.856  0.4407  0.3003  0.0178
 6291SOL    HW119772   0.178  -0.067   6.802 -0.3014  0.6048 -0.1316
 6291SOL    HW219773   0.187   0.096   6.800  1.3041  0.5388  0.1265
 6292SOL     OW19774   1.039   4.411   6.788  0.0459  0.2638 -0.9184
 6292SOL    HW119775   1.122   4.359   6.770  0.4955  0.1647  1.1483
 6292SOL    HW219776   1.063   4.499   6.829 -0.8344 -0.3799  1.1433
 6293SOL     OW19777   2.339   1.798   1.511 -0.1579 -0.4090 -0.3260
 6293SOL    HW119778   2.315   1.788   1.608  1.5879 -1.6492  0.0404
 6293SOL    HW219779   2.438   1.801   1.502 -0.3019  0.2585 -2.0593
 6294SOL     OW19780   4.682   2.205   0.258  0.7862 -0.4138 -0.0263
 6294SOL    HW119781   4.676   2.297   0.220  0.8603 -0.9138 -1.2928
 6294SOL    HW219782   4.605   2.189   0.320  1.2716  0.8050  0.9204
 6295SOL     OW19783   5.962   3.784   3.583  0.1328 -0.0446  0.0730
 6295SOL    HW119784   5.916   3.831   3.508 -0.8875 -0.7486  0.2435
 6295SOL    HW219785   5.909   3.705   3.611  0.0619  0.6510  2.0985
 6296SOL     OW19786   1.750   5.056   2.389  0.3854 -0.0937 -0.5510
 6296SOL    HW119787   1.749   4.978   2.326  0.7144 -0.0160 -0.6548
 6296SOL    HW219788   1.667   5.055   2.444  0.1711 -0.2580 -0.8709
 6297SOL     OW19789   0.932   2.813   0.231 -0.5107 -0.0188  0.2011
 6297SOL    HW119790   0.931   2.905   0.271  2.0034  1.4446 -2.6730
 6297SOL    HW219791   1.020   2.770   0.250 -0.1690 -0.2175 -1.6186
 6298SOL     OW19792   6.445   3.695   6.545 -0.4483  0.2860 -0.4654
 6298SOL    HW119793   6.496   3.747   6.477  0.0137  1.7749  0.9461
 6298SOL    HW219794   6.506   3.670   6.620 -1.2490 -0.1106  0.0678
 6299SOL     OW19795   2.412   6.516   1.393 -0.3281 -0.1214 -0.3124
 6299SOL    HW119796   2.397   6.439   1.456 -2.3402  1.0335  0.7128
 6299SOL    HW219797   2.405   6.602   1.443  1.5037  0.7845 -1.5155
 6300SOL     OW19798   1.069   1.690   3.549  0.0155  0.0357 -0.0889
 6300SOL    HW119799   1.051   1.646   3.461 -0.5137 -0.1853  0.1273
 6300SOL    HW219800   0.998   1.757   3.568  0.1010  0.0475  0.1952
 6301SOL     OW19801   2.259   4.656   2.297 -0.3529 -0.4376  0.0799
 6301SOL    HW119802   2.357   4.647   2.315 -0.1533  0.9875 -0.2064
 6301SOL    HW219803   2.229   4.582   2.236  0.6865 -0.4773 -0.3932
 6302SOL     OW19804   5.139   6.409   5.013  0.1702  0.1913 -0.0998
 6302SOL    HW119805   5.143   6.455   5.101 -0.8410 -0.4957  0.3204
 6302SOL    HW219806   5.153   6.311   5.025 -1.8796 -0.1871 -0.4272
 6303SOL     OW19807   4.050   3.849   2.126 -0.0124 -0.1063  0.1202
 6303SOL    HW119808   4.101   3.928   2.090 -0.4930  0.1912  0.0873
 6303SOL    HW219809   4.001   3.876   2.208 -0.6351 -0.2172 -0.2083
 6304SOL     OW19810   2.357   5.630   2.893 -0.3808 -0.7857  0.4572
 6304SOL    HW119811   2.402   5.709   2.853  0.2756 -0.3866  1.9272
 6304SOL    HW219812   2.409   5.598   2.972 -1.5596 -1.6170  0.9268
 6305SOL     OW19813   3.155   4.287   0.916  0.1288 -0.5476  1.1190
 6305SOL    HW119814   3.111   4.323   0.998 -0.0038 -0.0476  0.8325
 6305SOL    HW219815   3.102   4.313   0.835 -0.5401 -2.2595  0.9634
 6306SOL     OW19816   4.391   6.882   4.115  0.2447  0.2613  0.3707
 6306SOL    HW119817   4.468   6.899   4.175 -0.0775 -0.4272  0.9959
 6306SOL    HW219818   4.414   6.913   4.022  1.3834 -0.1957  0.4773
 6307SOL     OW19819   4.694   6.553   0.083  0.5642 -0.3145  0.1094
 6307SOL    HW119820   4.718   6.617   0.157 -1.4636 -1.2387  1.6905
 6307SOL    HW219821   4.614   6.500   0.111 -0.2816 -0.7146 -2.8119
 6308SOL     OW19822   2.806   5.840   6.731 -0.2495  0.1922 -0.1612
 6308SOL    HW119823   2.843   5.885   6.813 -0.6620 -1.2642  0.8625
 6308SOL    HW219824   2.707   5.832   6.740 -0.1089 -1.6518  0.0910
 6309SOL     OW19825   2.726   6.751   2.703 -0.5139 -0.3468  0.1757
 6309SOL    HW119826   2.651   6.728   2.765 -0.0611 -0.5352  0.6602
 6309SOL    HW219827   2.789   6.815   2.748  0.8306 -1.9091  0.6601
 6310SOL     OW19828   6.764   6.140   3.742 -0.2935 -0.7955 -0.0573
 6310SOL    HW119829   6.777   6.227   3.789 -1.2042 -0.7774  0.1892
 6310SOL    HW219830   6.793   6.065   3.802  2.1049 -0.6252 -0.8909
 6311SOL     OW19831   1.608   1.467   4.813  0.0357 -0.1612  0.5188
 6311SOL    HW119832   1.580   1.506   4.725 -0.7801 -0.8763  0.4608
 6311SOL    HW219833   1.674   1.394   4.798 -0.3836 -0.5311  0.4819
 6312SOL     OW19834   4.615   3.573   6.600  0.4032 -0.4784 -0.2689
 6312SOL    HW119835   4.543   3.642   6.590 -0.5934 -1.5052 -0.3883
 6312SOL    HW219836   4.619   3.517   6.518  0.3857 -1.3186  0.2917
 6313SOL     OW19837   1.609   6.351   6.269 -0.6498  0.6027  0.3211
 6313SOL    HW119838   1.682   6.416   6.294 -0.7634  0.8806 -0.0539
 6313SOL    HW219839   1.552   6.333   6.349  0.0583  0.0826  0.7184
 6314SOL     OW19840   1.459   4.593   3.435  0.3715  0.2121 -0.4241
 6314SOL    HW119841   1.485   4.497   3.428  1.2665  0.0717  3.1151
 6314SOL    HW219842   1.471   4.637   3.346 -0.2809 -2.9156 -2.2267
 6315SOL     OW19843   5.623   5.520   5.437  0.1703  0.3451  0.2411
 6315SOL    HW119844   5.539   5.518   5.491 -1.0436 -1.2794 -1.5823
 6315SOL    HW219845   5.602   5.543   5.342  1.3928 -2.3624 -0.7945
 6316SOL     OW19846   6.356   3.664   5.852 -0.5782  0.1620  0.0694
 6316SOL    HW119847   6.343   3.712   5.766 -0.6656  2.0541  1.0760
 6316SOL    HW219848   6.421   3.589   5.839  0.3848  1.1983 -1.3664
 6317SOL     OW19849   0.184   3.557   3.570  0.3690  0.1403 -0.1661
 6317SOL    HW119850   0.247   3.549   3.493 -0.1651  2.3482 -0.8919
 6317SOL    HW219851   0.100   3.507   3.550  1.3355 -1.7525  0.2761
 6318SOL     OW19852   2.722   1.015   3.154  0.2029 -0.2057 -0.4353
 6318SOL    HW119853   2.782   1.094   3.164  1.4490 -1.0264 -1.2375
 6318SOL    HW219854   2.634   1.034   3.198  0.6571  1.4237 -0.1887
 6319SOL     OW19855   5.480   2.042   1.184  0.4133 -0.0745 -0.3374
 6319SOL    HW119856   5.428   2.117   1.226 -1.3826 -2.3354  1.8479
 6319SOL    HW219857   5.443   2.022   1.094  0.5064  1.2180 -0.6825
 6320SOL     OW19858   5.298   6.398   4.571 -0.2957  0.2046  0.3246
 6320SOL    HW119859   5.384   6.443   4.596 -0.4489  0.4495  0.4161
 6320SOL    HW219860   5.228   6.422   4.638 -0.2710 -0.5257  0.6311
 6321SOL     OW19861   3.311   6.778   5.381 -0.0890 -0.3993 -0.2472
 6321SOL    HW119862   3.346   6.763   5.474  0.3794 -2.1451 -0.6817
 6321SOL    HW219863   3.318   6.693   5.328 -1.6669  0.1826 -1.4561
 6322SOL     OW19864   4.738   2.958   6.475  0.0577 -0.4301  0.0093
 6322SOL    HW119865   4.804   2.954   6.400 -0.8951  1.1498 -0.9768
 6322SOL    HW219866   4.692   3.046   6.474 -1.2998 -1.0753  1.3379
 6323SOL     OW19867   0.909   2.424   5.217  0.2135  0.0560  0.0220
 6323SOL    HW119868   0.882   2.473   5.134  0.0641 -0.8833 -0.5056
 6323SOL    HW219869   0.866   2.465   5.297 -1.7781 -0.6239 -0.6485
 6324SOL     OW19870   6.961   4.537   1.594  0.0253  0.1011 -0.0471
 6324SOL    HW119871   6.882   4.485   1.627  0.4885 -0.5296  0.0755
 6324SOL    HW219872   6.945   4.563   1.498 -0.7079  0.7366  0.2325
 6325SOL     OW19873   4.097   0.098   3.077  0.0973  0.0650 -0.2458
 6325SOL    HW119874   4.092   0.182   3.131 -0.1003  0.0054 -0.1700
 6325SOL    HW219875   4.115   0.020   3.136 -1.8364 -0.2541 -0.0023
 6326SOL     OW19876   6.430   2.917   6.798  0.0099  0.0513  0.2644
 6326SOL    HW119877   6.366   2.935   6.872  0.1193  0.4287  0.2711
 6326SOL    HW219878   6.381   2.877   6.721 -0.2882  0.5786  0.1717
 6327SOL     OW19879   5.668   3.659   4.059 -0.0678  0.4227 -0.1693
 6327SOL    HW119880   5.602   3.592   4.026 -0.5670  0.6396  0.3592
 6327SOL    HW219881   5.760   3.635   4.028 -0.4346  0.2805 -1.1699
 6328SOL     OW19882   1.294   6.367   3.901 -0.2407 -0.2046 -0.0239
 6328SOL    HW119883   1.218   6.430   3.921  0.7604  1.1064 -0.2237
 6328SOL    HW219884   1.308   6.306   3.979 -2.0306 -1.0572 -0.3069
 6329SOL     OW19885   4.512   5.401   4.171 -0.2012  0.1726 -0.4935
 6329SOL    HW119886   4.503   5.418   4.073  1.1318 -0.5054 -0.7551
 6329SOL    HW219887   4.609   5.389   4.194 -0.3530  1.6103  1.1247
 6330SOL     OW19888   5.535   0.030   1.305 -0.2174 -0.0932 -0.0160
 6330SOL    HW119889   5.478   0.112   1.305 -0.6254 -0.3609 -0.7787
 6330SOL    HW219890   5.594   0.030   1.385 -2.0339 -0.3378  1.3839
 6331SOL     OW19891   1.620   1.958   6.321 -0.8789 -0.2562 -0.1068
 6331SOL    HW119892   1.575   2.025   6.261  0.3062  0.4993 -0.1959
 6331SOL    HW219893   1.613   1.988   6.416 -1.0996 -0.4608 -0.0580
 6332SOL     OW19894   4.659   0.118   5.165 -0.4921  0.9111  0.0708
 6332SOL    HW119895   4.680   0.022   5.184 -1.9463  0.2376 -1.5120
 6332SOL    HW219896   4.659   0.134   5.066 -0.7383  2.4385  0.2879
 6333SOL     OW19897   6.067   6.389   2.641  0.2850 -0.7124  0.0318
 6333SOL    HW119898   6.016   6.317   2.687 -1.1916  0.9731  1.1633
 6333SOL    HW219899   6.004   6.458   2.605  1.6688  1.3308  1.2461
 6334SOL     OW19900   3.020   6.386   4.743 -0.7114 -0.1440 -0.1563
 6334SOL    HW119901   3.074   6.321   4.691 -1.3785  1.7101 -3.3974
 6334SOL    HW219902   2.923   6.363   4.736 -0.9258  0.9320 -1.0525
 6335SOL     OW19903   5.213   3.493   2.431 -0.0328  0.3482 -0.4978
 6335SOL    HW119904   5.139   3.554   2.403 -0.7283  0.6280  1.7861
 6335SOL    HW219905   5.190   3.399   2.406 -0.1062  0.6775 -1.7586
 6336SOL     OW19906   1.712   6.812   1.149  0.2918  0.2049 -0.0701
 6336SOL    HW119907   1.633   6.864   1.117 -0.3801 -1.1972 -0.8023
 6336SOL    HW219908   1.682   6.744   1.216  0.0450 -3.0726 -3.1840
 6337SOL     OW19909   6.981   3.445   4.399 -0.0526  0.2880  0.3555
 6337SOL    HW119910   6.982   3.475   4.304 -0.8713 -1.9967 -0.4427
 6337SOL    HW219911   7.061   3.389   4.417 -0.0231  0.5174  0.9525
 6338SOL     OW19912   6.915   3.915   4.661 -0.1536 -0.5970  0.2016
 6338SOL    HW119913   6.914   3.904   4.760 -0.5887 -0.2363  0.2378
 6338SOL    HW219914   6.938   3.828   4.618 -0.0002 -0.7634  0.6169
 6339SOL     OW19915   6.469   6.611   5.430 -0.9666 -0.2563  0.7464
 6339SOL    HW119916   6.392   6.551   5.451  0.3393 -1.9759  0.8747
 6339SOL    HW219917   6.521   6.574   5.353 -0.6515  1.2573  0.1845
 6340SOL     OW19918   3.455   5.221   3.608  0.1234 -0.1208 -0.0465
 6340SOL    HW119919   3.379   5.285   3.597  0.4348  0.2857  0.1365
 6340SOL    HW219920   3.524   5.238   3.537  0.5710  0.2758  0.4726
 6341SOL     OW19921   0.539   0.234   1.851 -0.0514  0.2182 -0.0530
 6341SOL    HW119922   0.578   0.285   1.774  0.5031  0.9753  0.6978
 6341SOL    HW219923   0.592   0.255   1.934 -2.1389  1.4118  1.0567
 6342SOL     OW19924   4.901   1.029   6.229 -0.1039  0.2138 -0.3111
 6342SOL    HW119925   4.832   0.958   6.241 -0.8850  0.8397 -0.9782
 6342SOL    HW219926   4.935   1.058   6.318  0.7495 -1.4768 -0.0468
 6343SOL     OW19927   1.596   6.582   1.263  0.1820 -0.0206  0.1010
 6343SOL    HW119928   1.515   6.575   1.320  0.5884  1.6203  0.9607
 6343SOL    HW219929   1.653   6.500   1.274 -2.0025 -1.9002 -1.6671
 6344SOL     OW19930   0.154   5.088   1.649  0.5062 -0.8647  0.4711
 6344SOL    HW119931   0.191   5.173   1.610  1.4871 -1.6434 -0.3830
 6344SOL    HW219932   0.147   5.020   1.576 -0.0808 -1.5813  1.1896
 6345SOL     OW19933   5.245   5.325   1.498 -0.4684 -0.5552 -0.4476
 6345SOL    HW119934   5.187   5.275   1.562 -0.2195  0.5655  0.6789
 6345SOL    HW219935   5.191   5.398   1.455 -0.3409 -0.6064 -0.6983
 6346SOL     OW19936   1.608   3.619   2.513 -0.0154  0.2359  0.0861
 6346SOL    HW119937   1.523   3.611   2.461  0.3889 -0.1624 -0.5326
 6346SOL    HW219938   1.669   3.685   2.469  0.6190 -0.6308 -0.3684
 6347SOL     OW19939   3.655   0.061   0.453 -0.5792  0.4221 -0.3324
 6347SOL    HW119940   3.585   0.125   0.484 -0.6268  0.5396 -0.6755
 6347SOL    HW219941   3.615  -0.030   0.442 -0.5356  0.3531  0.0531
 6348SOL     OW19942   4.825   6.571   6.319  0.0302  0.0721 -0.6319
 6348SOL    HW119943   4.802   6.516   6.239 -0.0486 -0.1476 -0.4619
 6348SOL    HW219944   4.879   6.515   6.383 -1.4806 -0.3612  0.3130
 6349SOL     OW19945   5.548   6.257   6.124 -0.2818  0.0634 -0.2910
 6349SOL    HW119946   5.540   6.224   6.218  1.5464  1.5963  0.4786
 6349SOL    HW219947   5.641   6.242   6.091 -0.4188  1.0913 -1.2325
 6350SOL     OW19948   4.983   6.415   4.052 -0.2537 -0.2581  0.3979
 6350SOL    HW119949   5.006   6.502   4.009 -1.0365  0.4393  1.3766
 6350SOL    HW219950   5.049   6.346   4.021  0.4532  0.6860 -0.2943
 6351SOL     OW19951   1.786   0.339   0.424  0.3448 -0.2306  0.5300
 6351SOL    HW119952   1.806   0.241   0.425  0.8760 -0.1290  0.2637
 6351SOL    HW219953   1.870   0.390   0.406  0.5930  0.4190  3.1267
 6352SOL     OW19954   0.469   3.319   4.257 -0.1367  0.1794 -0.4354
 6352SOL    HW119955   0.525   3.343   4.177  1.6027  1.8663  1.1795
 6352SOL    HW219956   0.520   3.340   4.340 -2.1576 -0.8907  1.1481
 6353SOL     OW19957   4.507   3.817   5.474  0.5477 -0.3058  0.0507
 6353SOL    HW119958   4.463   3.740   5.520  1.6871  0.0375  1.8333
 6353SOL    HW219959   4.438   3.884   5.448 -0.2141 -0.7724  0.7987
 6354SOL     OW19960   6.803   2.784   0.131 -0.7489 -0.2228  0.1806
 6354SOL    HW119961   6.808   2.684   0.137  1.6839 -0.1074  1.3579
 6354SOL    HW219962   6.760   2.810   0.045 -1.6357 -2.2707 -0.0664
 6355SOL     OW19963   2.301   0.140   5.895 -0.3705 -0.1176  0.2082
 6355SOL    HW119964   2.247   0.064   5.931  0.7840 -1.0625  0.0095
 6355SOL    HW219965   2.312   0.210   5.966 -0.7744 -0.4992  0.6519
 6356SOL     OW19966   4.178   5.012   6.140  0.4337 -0.4847  0.2690
 6356SOL    HW119967   4.217   4.986   6.228 -0.5796 -0.1209  0.8553
 6356SOL    HW219968   4.078   5.003   6.144  0.2171  1.2257 -0.2404
 6357SOL     OW19969   6.353   4.766   5.872 -0.1835 -0.2331  0.0427
 6357SOL    HW119970   6.332   4.668   5.876  2.4257 -0.8466  1.0478
 6357SOL    HW219971   6.285   4.817   5.924 -0.6877 -1.7218  0.9006
 6358SOL     OW19972   1.461   0.407   1.771 -0.2193 -0.6905  0.1655
 6358SOL    HW119973   1.407   0.460   1.837  0.6125  0.3916  0.0217
 6358SOL    HW219974   1.400   0.358   1.709 -1.0772  0.9089 -0.3260
 6359SOL     OW19975   6.361   2.959   5.784  0.0125  0.2807 -0.0735
 6359SOL    HW119976   6.420   3.013   5.724 -0.1493  2.1262  1.3251
 6359SOL    HW219977   6.304   2.898   5.729  1.5210  0.1554 -1.6019
 6360SOL     OW19978   0.260   1.477   4.106 -0.2893  0.4093  0.3336
 6360SOL    HW119979   0.352   1.439   4.096 -0.3327 -0.1866  1.9120
 6360SOL    HW219980   0.263   1.576   4.093  0.4040  0.2856 -0.5354
 6361SOL     OW19981   2.270   5.210   4.582  0.3276 -0.0012  0.4147
 6361SOL    HW119982   2.278   5.193   4.484  0.0781 -0.9550  0.5421
 6361SOL    HW219983   2.190   5.161   4.617  0.4295  0.3104  1.0936
 6362SOL     OW19984   3.478   2.840   2.641 -0.3098 -0.3411  0.0090
 6362SOL    HW119985   3.524   2.817   2.727  0.4331 -2.1289 -0.8163
 6362SOL    HW219986   3.546   2.852   2.569 -1.0203 -1.4364 -0.8784
 6363SOL     OW19987   4.538   1.286   3.378 -0.1772 -0.1384 -0.1064
 6363SOL    HW119988   4.554   1.384   3.369  0.1291  0.0018  1.5636
 6363SOL    HW219989   4.450   1.271   3.424 -1.2710 -0.7334 -2.2600
 6364SOL     OW19990   4.486   6.322   6.833  0.2941 -0.3573  0.4195
 6364SOL    HW119991   4.438   6.400   6.874  1.0842 -0.0841  0.8470
 6364SOL    HW219992   4.483   6.329   6.734 -0.5832 -0.3691  0.4365
 6365SOL     OW19993   3.149   6.103   1.603 -0.0206  0.3277 -0.0415
 6365SOL    HW119994   3.106   6.034   1.661 -2.3172  1.3192 -0.4417
 6365SOL    HW219995   3.200   6.167   1.660 -2.1036  1.1939  0.9731
 6366SOL     OW19996   5.618   5.226   5.792  0.6525 -0.6618  1.1739
 6366SOL    HW119997   5.556   5.160   5.834  0.0574 -1.2480 -0.5416
 6366SOL    HW219998   5.601   5.317   5.831 -3.3991 -0.1919 -1.1706
 6367SOL     OW19999   4.121   3.083   5.747  0.2371  0.3650 -0.1539
 6367SOL    HW120000   4.208   3.132   5.737  1.2440 -1.2122  0.4800
 6367SOL    HW220001   4.076   3.077   5.658  1.4187  0.0942 -0.7588
 6368SOL     OW20002   6.119   6.906   3.467  0.1641 -0.0379 -0.0470
 6368SOL    HW120003   6.043   6.955   3.425 -0.6799  0.9690  2.4828
 6368SOL    HW220004   6.086   6.821   3.508  0.5571  0.0181  0.3887
 6369SOL     OW20005   4.991   3.398   2.620  0.4629 -0.0922 -0.8055
 6369SOL    HW120006   4.971   3.426   2.526  0.9269 -0.8449 -1.1448
 6369SOL    HW220007   5.018   3.301   2.621  1.0476  0.0664  0.0209
 6370SOL     OW20008   3.181   0.811   6.671  0.3184 -0.2932  0.1102
 6370SOL    HW120009   3.114   0.799   6.744  0.2505 -1.9534 -0.1869
 6370SOL    HW220010   3.140   0.784   6.584  1.1943 -0.7770 -0.1601
 6371SOL     OW20011   1.816   0.954   2.932 -0.3057  0.1868  0.0106
 6371SOL    HW120012   1.879   0.973   2.857  0.3346 -1.0892  0.1888
 6371SOL    HW220013   1.863   0.969   3.020 -0.0121 -1.3470  0.1464
 6372SOL     OW20014   3.266   4.420   1.441  0.0337 -0.6062  0.5726
 6372SOL    HW120015   3.323   4.338   1.434  1.7301  0.5446  0.0980
 6372SOL    HW220016   3.237   4.434   1.536  0.3906 -1.3241  0.7886
 6373SOL     OW20017   2.583   4.598   4.191 -0.1944  0.4545 -0.0308
 6373SOL    HW120018   2.554   4.628   4.282 -2.0311 -0.7898 -0.1634
 6373SOL    HW220019   2.508   4.552   4.145  1.0611 -0.0015 -1.7414
 6374SOL     OW20020   1.432   3.081   0.159 -0.0139 -0.1216  0.2571
 6374SOL    HW120021   1.527   3.082   0.130  0.1585  0.6409  0.7951
 6374SOL    HW220022   1.378   3.020   0.100  0.8468 -0.7442  0.1000
 6375SOL     OW20023   3.581   1.102   4.894  0.1503 -0.0826 -0.3480
 6375SOL    HW120024   3.672   1.067   4.868 -0.9600 -1.6821 -2.3458
 6375SOL    HW220025   3.526   1.115   4.812 -1.5686  0.4939  0.8607
 6376SOL     OW20026   0.356   6.031   2.914  0.2164 -0.7000 -0.0140
 6376SOL    HW120027   0.447   6.058   2.945  0.7183 -1.3058 -0.9088
 6376SOL    HW220028   0.321   5.958   2.972 -0.4138  0.6391  1.3486
 6377SOL     OW20029   2.101   1.471   5.867  0.2225 -0.0652 -0.1458
 6377SOL    HW120030   2.132   1.435   5.779 -1.9879 -0.8568 -0.6652
 6377SOL    HW220031   2.031   1.540   5.853  1.1695  1.1828  0.9895
 6378SOL     OW20032   4.801   5.392   4.146  0.3548 -0.6244  0.5098
 6378SOL    HW120033   4.839   5.315   4.094 -1.5549 -2.4752  1.6554
 6378SOL    HW220034   4.763   5.459   4.084 -1.5932 -2.6081 -0.5789
 6379SOL     OW20035   2.915   3.258   2.678 -0.5022  0.1716  0.5558
 6379SOL    HW120036   2.869   3.221   2.597  1.0378 -1.2978  0.3018
 6379SOL    HW220037   2.896   3.356   2.685 -0.5409  0.3822 -1.6905
 6380SOL     OW20038   5.022   0.595   4.794 -0.2105 -0.2857  0.0553
 6380SOL    HW120039   4.993   0.590   4.699  0.1912 -0.8834 -0.0429
 6380SOL    HW220040   4.969   0.664   4.842  0.2260  0.7008 -0.8407
 6381SOL     OW20041   2.759   0.571   5.907 -0.1537 -0.2691 -0.5529
 6381SOL    HW120042   2.845   0.619   5.927 -0.7784  0.0464  1.5991
 6381SOL    HW220043   2.695   0.635   5.864 -0.7279  0.7498  1.6414
 6382SOL     OW20044   5.078   2.326   6.218  0.0817 -0.5614 -0.5109
 6382SOL    HW120045   5.057   2.349   6.123 -0.6559  0.8133 -0.0438
 6382SOL    HW220046   4.993   2.322   6.270  0.5068 -1.0224  0.1603
 6383SOL     OW20047   5.199   6.516   1.117 -0.4754  0.0471  0.0895
 6383SOL    HW120048   5.231   6.573   1.042 -1.0415 -1.5139 -1.3865
 6383SOL    HW220049   5.277   6.485   1.171  0.3529 -1.6417 -1.9455
 6384SOL     OW20050   1.823   3.893   3.596 -0.4887 -0.0167  0.0950
 6384SOL    HW120051   1.753   3.930   3.534 -1.3480  0.3642  1.2461
 6384SOL    HW220052   1.887   3.836   3.544 -1.0032  0.5113 -1.1803
 6385SOL     OW20053   4.686   0.137   2.229 -0.4614 -0.4882  0.5458
 6385SOL    HW120054   4.712   0.139   2.326 -1.4176 -0.5041  0.8150
 6385SOL    HW220055   4.736   0.064   2.183  1.5992  0.8573  0.5353
 6386SOL     OW20056   4.594   6.296   3.568 -0.2820 -0.1204  0.1722
 6386SOL    HW120057   4.575   6.390   3.540 -0.1340 -0.4614 -1.1640
 6386SOL    HW220058   4.521   6.237   3.533 -0.2728 -0.5335  0.8402
 6387SOL     OW20059   2.543   2.470   5.416  0.1177  0.2472 -0.3032
 6387SOL    HW120060   2.595   2.400   5.464 -0.6655 -0.2770 -0.2048
 6387SOL    HW220061   2.518   2.436   5.325 -0.0262  0.5066 -0.3619
 6388SOL     OW20062   0.433   5.790   0.345 -0.2633  0.7564 -0.0143
 6388SOL    HW120063   0.469   5.773   0.254 -1.7065 -0.0134 -0.4697
 6388SOL    HW220064   0.403   5.886   0.353  2.1024  1.5226  0.4964
 6389SOL     OW20065   0.275   3.272   2.475 -0.1784  0.2080  0.0149
 6389SOL    HW120066   0.273   3.348   2.410  0.5193  0.0278 -0.2248
 6389SOL    HW220067   0.282   3.186   2.424  0.3129  0.0627  0.3289
 6390SOL     OW20068   4.209   0.284   0.314 -0.1286 -0.1844  0.2922
 6390SOL    HW120069   4.225   0.382   0.322 -0.6124  0.0144 -1.0625
 6390SOL    HW220070   4.254   0.237   0.390 -1.2384  1.2120  1.8822
 6391SOL     OW20071   4.407   2.522   0.964 -0.1999 -0.0737 -0.0614
 6391SOL    HW120072   4.358   2.456   0.906  1.4585  1.2360 -3.1743
 6391SOL    HW220073   4.342   2.566   1.026 -1.6389 -3.3200  0.9637
 6392SOL     OW20074   1.967   5.701   4.935 -0.2590  0.3011 -0.3824
 6392SOL    HW120075   1.916   5.728   5.017 -0.1778  1.2963 -0.6372
 6392SOL    HW220076   1.925   5.620   4.894 -1.8889  1.2852 -0.7790
 6393SOL     OW20077   6.261   2.595   6.155 -0.3047 -0.3294 -0.1545
 6393SOL    HW120078   6.302   2.653   6.085  1.5877  0.2725  1.3573
 6393SOL    HW220079   6.198   2.649   6.211  1.9104  0.5557  1.6327
 6394SOL     OW20080   4.753   4.095   2.742 -0.2703  0.4931 -0.2041
 6394SOL    HW120081   4.762   4.189   2.776 -0.8948  0.5821 -0.2735
 6394SOL    HW220082   4.768   4.095   2.643  0.7332  0.3576 -0.0664
 6395SOL     OW20083   2.822   5.061   6.766 -0.0295 -0.3643 -0.2131
 6395SOL    HW120084   2.797   5.152   6.799  1.1136 -0.4355  0.9450
 6395SOL    HW220085   2.875   5.069   6.682 -0.1228  0.0353 -0.2334
 6396SOL     OW20086   3.270   5.375   5.892 -0.4512 -0.2825  0.1335
 6396SOL    HW120087   3.335   5.314   5.846  0.7364  2.0507 -1.4993
 6396SOL    HW220088   3.177   5.347   5.870  0.0439 -1.5184 -0.5132
 6397SOL     OW20089   4.231   6.419   4.406 -0.3535  0.1409 -0.2788
 6397SOL    HW120090   4.258   6.471   4.324 -1.0185 -0.9778 -1.2390
 6397SOL    HW220091   4.312   6.394   4.457  0.1029  0.5704 -0.7720
 6398SOL     OW20092   0.149   3.476   7.002  0.5083  0.0412 -0.3865
 6398SOL    HW120093   0.087   3.460   6.926 -1.5585 -0.2380  1.2515
 6398SOL    HW220094   0.124   3.562   7.048  3.1899  1.4388 -1.3167
 6399SOL     OW20095   4.529   3.852   1.379  0.3096 -0.0278 -0.7140
 6399SOL    HW120096   4.503   3.839   1.284 -1.3372 -2.0049 -0.0750
 6399SOL    HW220097   4.555   3.947   1.395 -0.4555  0.5788 -2.8587
 6400SOL     OW20098   1.657   3.097   0.820  0.9644 -0.4037 -0.1844
 6400SOL    HW120099   1.729   3.133   0.761  1.5160  1.0993  1.3141
 6400SOL    HW220100   1.697   3.046   0.895  0.4628 -0.0016  0.3726
 6401SOL     OW20101   0.778   3.547   2.825 -0.2937 -0.7278  0.5150
 6401SOL    HW120102   0.745   3.461   2.864 -1.2267 -2.0554 -2.7876
 6401SOL    HW220103   0.710   3.618   2.838 -0.4742 -1.0533  1.4172
 6402SOL     OW20104   1.013   5.985   3.579 -0.5087  0.1698 -0.2379
 6402SOL    HW120105   1.006   5.906   3.518 -1.5815  2.3499 -3.1979
 6402SOL    HW220106   0.923   6.005   3.617 -0.5080  0.7256 -0.5304
 6403SOL     OW20107   6.453   1.275   1.431  0.3647 -0.0842  0.2345
 6403SOL    HW120108   6.551   1.257   1.426  0.4175  0.5574 -2.1558
 6403SOL    HW220109   6.403   1.206   1.380 -0.3404  0.1779  0.5593
 6404SOL     OW20110   0.375   4.853   3.992  0.1587  0.9317  0.0905
 6404SOL    HW120111   0.318   4.926   3.955  1.3245  1.9217  0.1902
 6404SOL    HW220112   0.456   4.840   3.935  0.4491  0.3804  0.6019
 6405SOL     OW20113   6.200   5.313   0.862 -0.2275 -0.0624 -0.4778
 6405SOL    HW120114   6.129   5.262   0.911 -0.9611  1.4019  0.0364
 6405SOL    HW220115   6.287   5.263   0.868 -0.6210 -0.6365  1.1093
 6406SOL     OW20116   5.379   2.681   1.708 -0.5930  0.1712 -0.2824
 6406SOL    HW120117   5.446   2.753   1.729  1.2276 -1.3578 -0.6274
 6406SOL    HW220118   5.289   2.723   1.694  0.3360  2.3402 -0.1762
 6407SOL     OW20119   5.772   2.742   0.035 -0.3556 -0.7241 -0.2653
 6407SOL    HW120120   5.755   2.828   0.084 -0.0795  0.1204 -1.6055
 6407SOL    HW220121   5.686   2.708  -0.002 -0.5718 -1.3852  0.7988
 6408SOL     OW20122   5.447   1.815   6.988 -0.4808 -0.1354 -0.5844
 6408SOL    HW120123   5.456   1.909   6.954 -0.5056 -0.3110 -1.0915
 6408SOL    HW220124   5.351   1.788   6.988 -0.5057 -0.0491 -0.1257
 6409SOL     OW20125   2.319   1.688   3.622  0.4794 -0.6564 -0.0430
 6409SOL    HW120126   2.288   1.761   3.562 -1.4244 -1.0213  0.4212
 6409SOL    HW220127   2.392   1.722   3.681 -0.3613  0.8673  0.1637
 6410SOL     OW20128   2.312   0.782   4.727 -0.3958  0.2445 -0.1821
 6410SOL    HW120129   2.219   0.781   4.764 -0.2889 -0.1781  0.0815
 6410SOL    HW220130   2.375   0.744   4.795 -0.2360 -0.8098 -0.9072
 6411SOL     OW20131   1.794   0.727   3.389 -0.1333  0.3493  0.4066
 6411SOL    HW120132   1.715   0.677   3.354  1.3468 -0.3909 -2.1224
 6411SOL    HW220133   1.855   0.664   3.436 -0.3323  0.6309  1.0451
 6412SOL     OW20134   4.749   2.930   2.904  0.1486 -0.3930  0.2514
 6412SOL    HW120135   4.770   2.901   2.998  0.8180  1.3436  0.6708
 6412SOL    HW220136   4.728   3.028   2.903 -2.4485 -0.8718 -1.0359
 6413SOL     OW20137   6.465   0.850   0.393  0.2816 -0.5199 -0.1754
 6413SOL    HW120138   6.510   0.780   0.338  2.1992  0.6718 -0.2118
 6413SOL    HW220139   6.514   0.862   0.479 -0.2559  0.4732  0.0108
 6414SOL     OW20140   1.883   5.115   6.342  0.3837 -0.2467 -0.6873
 6414SOL    HW120141   1.892   5.054   6.421 -0.4205  0.0273 -0.3691
 6414SOL    HW220142   1.829   5.196   6.369  2.1455  1.0398 -0.8582
 6415SOL     OW20143   0.237   4.030   4.598  0.2528 -0.1061 -0.3408
 6415SOL    HW120144   0.171   4.037   4.523 -1.6658 -2.7197  0.9413
 6415SOL    HW220145   0.290   4.114   4.604 -4.2156  3.0660 -0.3065
 6416SOL     OW20146   5.457   0.497   1.660  0.3414  0.1878 -0.5620
 6416SOL    HW120147   5.478   0.594   1.643  0.9786  0.2663  0.5625
 6416SOL    HW220148   5.390   0.465   1.593  1.2590  0.9809 -1.9070
 6417SOL     OW20149   4.607   4.035   1.738 -0.3851  0.3673  0.3072
 6417SOL    HW120150   4.564   4.107   1.792  1.1116  0.3160  1.6369
 6417SOL    HW220151   4.605   4.061   1.641  0.5930  2.4932  0.7923
 6418SOL     OW20152   4.120   0.575   6.160 -0.6245 -0.7560  0.0260
 6418SOL    HW120153   4.097   0.668   6.189  0.9539  0.0903 -1.2066
 6418SOL    HW220154   4.065   0.550   6.081 -1.7312 -1.2679  0.9449
 6419SOL     OW20155   6.767   2.664   2.479  0.2176  0.3232  0.4892
 6419SOL    HW120156   6.698   2.731   2.507 -0.5106 -0.3348  0.3370
 6419SOL    HW220157   6.742   2.574   2.515  1.0919  0.1024  0.5616
 6420SOL     OW20158   1.709   4.383   3.374  0.3048 -0.2491 -0.1852
 6420SOL    HW120159   1.661   4.296   3.360 -0.7795  0.2296  0.4740
 6420SOL    HW220160   1.805   4.372   3.349 -0.0344 -1.3607 -1.0716
 6421SOL     OW20161   3.706   3.491   3.189  0.5153 -0.2185  0.3997
 6421SOL    HW120162   3.708   3.415   3.124 -0.0268 -1.7282  2.0752
 6421SOL    HW220163   3.721   3.577   3.140  1.8038 -1.4338 -1.4601
 6422SOL     OW20164   3.526   6.274   6.535  0.7923 -0.7506  0.3336
 6422SOL    HW120165   3.545   6.178   6.553 -0.8020 -0.7483  2.3928
 6422SOL    HW220166   3.496   6.285   6.440 -0.5291 -2.5718  0.4897
 6423SOL     OW20167   0.019   5.523   6.989  0.0993  0.7215  0.1161
 6423SOL    HW120168  -0.051   5.459   6.959  1.0234  0.6737 -2.1018
 6423SOL    HW220169  -0.016   5.578   7.065 -2.1037  0.3142 -0.5407
 6424SOL     OW20170   6.635   4.202   5.882 -0.2384 -0.6601 -0.0578
 6424SOL    HW120171   6.627   4.114   5.928  0.7934 -0.2346  0.9762
 6424SOL    HW220172   6.596   4.274   5.939 -0.8675 -0.4040 -0.7936
 6425SOL     OW20173   0.693   6.518   1.180 -0.7030  0.2353 -0.5602
 6425SOL    HW120174   0.637   6.501   1.099  1.1377 -0.2564 -1.7929
 6425SOL    HW220175   0.658   6.597   1.229 -2.9568 -0.5558 -0.7762
 6426SOL     OW20176   5.739   0.250   4.850 -0.4194 -0.0530  0.0966
 6426SOL    HW120177   5.670   0.323   4.851  1.1377  1.4914 -0.1172
 6426SOL    HW220178   5.828   0.289   4.827  0.2405 -2.2562 -1.4603
 6427SOL     OW20179   5.660   0.020   2.980 -0.6121  0.0826 -0.0088
 6427SOL    HW120180   5.609   0.014   2.894  0.5491 -2.1546 -0.6107
 6427SOL    HW220181   5.758   0.018   2.961 -0.3135  0.5626  1.3325
 6428SOL     OW20182   2.987   1.344   5.197 -0.4573  0.0368 -0.5885
 6428SOL    HW120183   2.939   1.368   5.113 -0.6631  0.4804 -0.3448
 6428SOL    HW220184   2.922   1.306   5.263 -0.0435 -1.8327 -1.1942
 6429SOL     OW20185   0.588   4.555   3.119 -0.1676  0.1488  0.1333
 6429SOL    HW120186   0.585   4.623   3.046 -1.4622 -0.7810 -0.7324
 6429SOL    HW220187   0.578   4.463   3.079 -1.0386 -0.3690  1.4843
 6430SOL     OW20188   0.320   3.711   1.784  0.4402 -0.5373  0.2434
 6430SOL    HW120189   0.269   3.781   1.834  1.2222 -0.5204  1.0397
 6430SOL    HW220190   0.418   3.733   1.785  0.9565 -2.5845  2.1456
 6431SOL     OW20191   2.358   3.920   0.509  0.3889  0.1933  0.1670
 6431SOL    HW120192   2.329   3.846   0.449 -0.4979 -0.3552  1.2305
 6431SOL    HW220193   2.440   3.891   0.560 -0.6113 -0.5341  1.4172
 6432SOL     OW20194   5.885   6.954   3.368  0.0075  0.0456  0.3241
 6432SOL    HW120195   5.806   6.959   3.429  0.9268  2.0030  1.4295
 6432SOL    HW220196   5.869   7.012   3.288  0.2663  0.3434  0.4865
 6433SOL     OW20197   0.468   6.045   5.262  0.3221 -0.0588 -0.2477
 6433SOL    HW120198   0.465   5.950   5.294  1.1395  0.0552  0.1786
 6433SOL    HW220199   0.539   6.095   5.311  0.5122  0.5447 -1.1186
 6434SOL     OW20200   5.097   6.383   6.817  0.0158 -0.4422  0.0567
 6434SOL    HW120201   5.007   6.423   6.835  0.1733 -0.2600  0.4547
 6434SOL    HW220202   5.149   6.443   6.755  0.3193  0.0671  0.7972
 6435SOL     OW20203   5.727   4.640   6.839 -0.4712 -0.2857  0.2787
 6435SOL    HW120204   5.652   4.610   6.781 -0.5150  0.0036  0.1808
 6435SOL    HW220205   5.764   4.726   6.803 -0.7865  0.1288  0.9259
 6436SOL     OW20206   4.873   2.966   5.411  0.1642 -0.2120  0.1508
 6436SOL    HW120207   4.969   2.958   5.387  0.7436  1.9841  1.4102
 6436SOL    HW220208   4.820   2.988   5.330  1.0274  0.3344 -0.2814
 6437SOL     OW20209   6.410   5.299   6.280  0.2594  0.3123 -0.5859
 6437SOL    HW120210   6.466   5.279   6.199  0.1557 -2.6640 -0.0252
 6437SOL    HW220211   6.467   5.336   6.352  0.9671 -0.0212 -0.9673
 6438SOL     OW20212   0.182   3.453   5.823  0.8526  0.3122  0.2037
 6438SOL    HW120213   0.274   3.461   5.861 -0.3770  1.4950  3.2031
 6438SOL    HW220214   0.125   3.528   5.857 -1.3425 -0.6024 -1.2506
 6439SOL     OW20215   5.917   2.359   5.491  0.1828  0.2756  0.0647
 6439SOL    HW120216   5.869   2.310   5.418  0.0637  1.2189 -0.5090
 6439SOL    HW220217   5.861   2.357   5.574 -0.2519  0.2585 -0.2242
 6440SOL     OW20218   0.946   1.410   6.445  0.2952  0.3889 -0.5891
 6440SOL    HW120219   0.979   1.322   6.408  0.6476 -0.0198  0.6556
 6440SOL    HW220220   0.990   1.485   6.395  1.8068 -0.1529 -0.1250
 6441SOL     OW20221   3.873   0.708   5.800 -0.4117  0.4017  0.1964
 6441SOL    HW120222   3.789   0.659   5.820  0.2372 -0.9528 -0.2634
 6441SOL    HW220223   3.910   0.676   5.712  0.9041  0.4902  0.6910
 6442SOL     OW20224   0.351   2.370   5.831  0.1015 -0.4192 -0.1745
 6442SOL    HW120225   0.281   2.325   5.888  1.2538 -0.9981  0.8246
 6442SOL    HW220226   0.318   2.460   5.802 -1.1746 -0.8017  0.0102
 6443SOL     OW20227   4.617   1.146   4.011 -0.0383 -0.3377  0.2926
 6443SOL    HW120228   4.638   1.130   4.107 -0.2380 -1.2254  0.1950
 6443SOL    HW220229   4.686   1.207   3.972  0.7541 -0.9538  0.6891
 6444SOL     OW20230   4.124   3.316   4.210  0.5277  0.1748 -0.3369
 6444SOL    HW120231   4.203   3.351   4.261  0.0842 -0.0866  0.5524
 6444SOL    HW220232   4.062   3.270   4.273 -0.5771  0.8018 -0.9453
 6445SOL     OW20233   3.259   4.026   2.942 -0.4283 -0.2562 -0.5976
 6445SOL    HW120234   3.177   3.978   2.973 -1.1592  1.1039 -0.3456
 6445SOL    HW220235   3.287   3.990   2.854 -0.3300 -1.8478  0.0613
 6446SOL     OW20236   5.761   1.066   6.402 -0.1223 -0.5932 -0.5934
 6446SOL    HW120237   5.808   1.030   6.483 -0.2343 -0.4541 -0.4657
 6446SOL    HW220238   5.731   1.160   6.420  1.7849  0.2556 -1.5633
 6447SOL     OW20239   4.232   1.440   5.457  0.4055  0.0804 -0.2200
 6447SOL    HW120240   4.327   1.409   5.462  0.3894  0.1739  0.7309
 6447SOL    HW220241   4.230   1.536   5.428  0.4337 -0.8348 -3.7975
 6448SOL     OW20242   0.976   6.905   5.479 -0.2309  0.4033 -0.7319
 6448SOL    HW120243   0.984   6.886   5.381  0.0888  1.8762 -1.0173
 6448SOL    HW220244   0.903   6.972   5.494 -1.2481 -0.8823  0.2037
 6449SOL     OW20245   5.763   6.930   4.460 -0.1102 -0.2517 -0.4447
 6449SOL    HW120246   5.758   7.005   4.393  2.3298 -0.5136 -1.0181
 6449SOL    HW220247   5.859   6.909   4.479 -0.6993 -0.6539  2.6831
 6450SOL     OW20248   0.270   4.607   5.224  0.5019  0.4790 -0.7309
 6450SOL    HW120249   0.184   4.565   5.196  0.1220 -1.2028  2.4354
 6450SOL    HW220250   0.251   4.686   5.283  0.8649 -1.6426  2.4775
 6451SOL     OW20251   6.401   6.358   3.988 -0.0235 -0.2793  0.0223
 6451SOL    HW120252   6.341   6.381   3.911 -0.3568 -0.6537  0.1690
 6451SOL    HW220253   6.433   6.264   3.978  2.1010  0.5066 -1.0790
 6452SOL     OW20254   1.467   3.768   2.333  0.7764 -0.4172  0.0519
 6452SOL    HW120255   1.465   3.796   2.237 -1.2813  1.4830  0.5577
 6452SOL    HW220256   1.387   3.712   2.354 -0.0767  1.0912  1.0911
 6453SOL     OW20257   2.702   5.372   6.602 -0.2812  0.4482 -0.3613
 6453SOL    HW120258   2.689   5.372   6.502  1.8627 -0.1141 -0.6862
 6453SOL    HW220259   2.782   5.427   6.625 -1.1844  1.2018  1.1679
 6454SOL     OW20260   1.508   0.825   3.868  0.9032  0.2892 -0.0422
 6454SOL    HW120261   1.533   0.877   3.787  0.4348 -0.6306 -0.7926
 6454SOL    HW220262   1.424   0.861   3.907  0.7639  0.3086 -0.3621
 6455SOL     OW20263   2.717   0.214   4.999 -0.1443 -0.4958  0.2606
 6455SOL    HW120264   2.722   0.252   4.907 -1.5143 -0.6333  0.1102
 6455SOL    HW220265   2.807   0.179   5.025  0.5800  0.7265 -0.4967
 6456SOL     OW20266   2.762   5.412   3.644  0.3375 -0.3400  0.1667
 6456SOL    HW120267   2.723   5.495   3.604 -0.9173 -1.7304 -1.6666
 6456SOL    HW220268   2.800   5.355   3.571 -0.4949 -2.2087  1.1374
 6457SOL     OW20269   3.667   4.071   2.032  0.4896  0.4310 -0.2371
 6457SOL    HW120270   3.688   3.981   1.993 -1.3958 -0.8715  1.5479
 6457SOL    HW220271   3.612   4.123   1.968 -0.6031 -0.7521 -0.3016
 6458SOL     OW20272   3.760   2.714   5.293 -0.8577  0.0720  0.1400
 6458SOL    HW120273   3.739   2.730   5.197 -0.6703  0.6141  0.1855
 6458SOL    HW220274   3.854   2.745   5.312 -1.3185  1.1113  0.7743
 6459SOL     OW20275   0.684   5.890   6.052 -0.7983 -0.4275  0.0497
 6459SOL    HW120276   0.691   5.794   6.079  0.3587  0.2715  2.5106
 6459SOL    HW220277   0.591   5.923   6.069 -0.9779 -0.8767 -0.0394
 6460SOL     OW20278   5.188   6.249   3.946 -0.9157  0.5109 -0.3626
 6460SOL    HW120279   5.283   6.232   3.919 -0.8593  0.6063 -0.2221
 6460SOL    HW220280   5.136   6.164   3.936 -0.8001  0.4396 -0.3710
 6461SOL     OW20281   3.165   5.318   6.685 -0.5200 -0.2715 -0.3296
 6461SOL    HW120282   3.135   5.235   6.732  0.4603 -1.6179 -1.9638
 6461SOL    HW220283   3.210   5.379   6.751  0.7391 -2.0548  0.5374
 6462SOL     OW20284   6.983   3.457   4.956  0.1271 -1.1346 -0.0030
 6462SOL    HW120285   6.922   3.380   4.973  0.6802 -1.2947  1.4089
 6462SOL    HW220286   7.077   3.430   4.978  0.4028 -0.2356 -0.0455
 6463SOL     OW20287   6.755   5.615   4.922 -0.0619 -0.0407 -0.0546
 6463SOL    HW120288   6.779   5.586   4.830  3.5467 -0.3847  0.8496
 6463SOL    HW220289   6.830   5.595   4.984 -1.2729  2.5734  2.5189
 6464SOL     OW20290   4.917   1.708   3.572 -0.0201  0.3525 -0.2585
 6464SOL    HW120291   4.826   1.673   3.551  0.6816 -1.6021 -0.2409
 6464SOL    HW220292   4.951   1.760   3.494 -0.4233 -0.4937 -1.0169
 6465SOL     OW20293   6.299   2.512   4.176  0.0036 -0.1391 -0.1147
 6465SOL    HW120294   6.348   2.569   4.109 -0.2177  2.0219  1.4308
 6465SOL    HW220295   6.201   2.527   4.167 -0.0925 -0.7561 -0.0873
 6466SOL     OW20296   3.306   5.697   1.741 -0.1543 -0.1744  0.8642
 6466SOL    HW120297   3.276   5.759   1.669  0.4171  1.8924  2.3205
 6466SOL    HW220298   3.260   5.720   1.827  1.7955 -0.1955  1.9765
 6467SOL     OW20299   5.951   0.378   4.730 -0.1938  0.0618  0.3544
 6467SOL    HW120300   5.983   0.461   4.776 -0.9504  0.7822 -0.3848
 6467SOL    HW220301   6.030   0.322   4.705  0.6299  2.0491 -1.9152
 6468SOL     OW20302   4.032   2.915   6.980  0.5750  0.5265  0.3328
 6468SOL    HW120303   3.974   2.976   7.034  1.5052  1.4683  0.2968
 6468SOL    HW220304   3.985   2.892   6.895 -0.6773 -0.5459  1.2728
 6469SOL     OW20305   0.136   2.081   2.525 -0.6725 -0.6754  0.4723
 6469SOL    HW120306   0.072   2.056   2.597 -0.2037 -0.2683  1.0444
 6469SOL    HW220307   0.086   2.100   2.441 -1.1858 -1.6174  0.5587
 6470SOL     OW20308   0.769   5.360   2.415  0.0624  0.0363 -0.0695
 6470SOL    HW120309   0.707   5.387   2.341 -0.0152  1.4650  0.4785
 6470SOL    HW220310   0.715   5.335   2.496  0.1266 -2.0123 -0.5932
 6471SOL     OW20311   6.207   0.151   6.689  0.2065 -0.4749 -0.0510
 6471SOL    HW120312   6.300   0.183   6.706  0.5539 -0.4942 -1.7155
 6471SOL    HW220313   6.174   0.099   6.767  0.9831  0.8930  1.2362
 6472SOL     OW20314   1.626   7.009   5.319 -0.0471 -0.0518 -0.9837
 6472SOL    HW120315   1.553   7.077   5.324 -0.1200 -0.1914  0.4668
 6472SOL    HW220316   1.586   6.919   5.302  0.1392  0.3608 -4.0368
 6473SOL     OW20317   3.109   2.232   6.105 -0.5650  0.1083 -0.2821
 6473SOL    HW120318   3.172   2.184   6.045 -1.3578 -0.5326 -0.6257
 6473SOL    HW220319   3.120   2.331   6.093  0.1753 -0.0023 -0.5354
 6474SOL     OW20320   3.924   1.726   4.486  0.1022 -0.1190  0.0220
 6474SOL    HW120321   3.966   1.730   4.577 -0.8662 -0.5853  0.5070
 6474SOL    HW220322   3.831   1.691   4.494 -0.2193  0.4309 -1.0798
 6475SOL     OW20323   1.204   6.775   6.400  0.3849 -0.0792 -0.2546
 6475SOL    HW120324   1.224   6.814   6.310 -0.8295 -3.9647 -2.4727
 6475SOL    HW220325   1.284   6.726   6.434  0.1244 -0.6796 -0.4799
 6476SOL     OW20326   1.528   1.125   6.099  0.3141  0.6737 -0.1626
 6476SOL    HW120327   1.578   1.179   6.168 -0.0848  0.8399 -0.0035
 6476SOL    HW220328   1.465   1.063   6.145  2.2569 -1.4866 -0.2106
 6477SOL     OW20329   0.707   0.951   0.120 -0.5330 -0.2347 -0.2819
 6477SOL    HW120330   0.684   1.022   0.053 -0.2937  0.3457  0.2407
 6477SOL    HW220331   0.641   0.953   0.195  0.7336  0.9697  0.8659
 6478SOL     OW20332   0.738   4.896   0.693 -0.0877  0.2162 -0.1678
 6478SOL    HW120333   0.665   4.898   0.624  0.4836  1.6139 -0.7557
 6478SOL    HW220334   0.769   4.802   0.704 -0.5507 -0.1184 -1.4387
 6479SOL     OW20335   2.288   4.383   4.095  0.4574  0.3252 -0.3060
 6479SOL    HW120336   2.322   4.477   4.095  1.9669 -0.1817 -1.3275
 6479SOL    HW220337   2.200   4.379   4.046 -0.6773  1.5062  1.5337
 6480SOL     OW20338   1.848   0.250   4.608 -0.6353 -0.3921 -0.2237
 6480SOL    HW120339   1.923   0.299   4.652  1.4240 -0.9948 -2.7945
 6480SOL    HW220340   1.838   0.160   4.649 -0.6872  0.0740  0.8225
 6481SOL     OW20341   0.506   3.252   1.593 -0.4346 -1.0609  0.3389
 6481SOL    HW120342   0.575   3.189   1.559 -2.1944 -2.2389 -1.2546
 6481SOL    HW220343   0.422   3.242   1.539 -1.3247  1.5075  1.0881
 6482SOL     OW20344   6.784   2.316   2.109 -0.3523  0.0204 -0.0846
 6482SOL    HW120345   6.694   2.345   2.076 -0.8009 -0.9587  0.2300
 6482SOL    HW220346   6.810   2.230   2.064  1.4240  1.3811 -1.7939
 6483SOL     OW20347   2.622   6.712   5.470  0.1124  1.0451  0.0087
 6483SOL    HW120348   2.526   6.732   5.487 -0.1152 -0.2232  0.3192
 6483SOL    HW220349   2.633   6.670   5.380  0.1263 -0.3203  0.6151
 6484SOL     OW20350   3.337   1.522   6.818  0.7128 -0.2035 -0.0439
 6484SOL    HW120351   3.361   1.490   6.910  0.3928 -1.8013 -0.4847
 6484SOL    HW220352   3.238   1.514   6.805  0.7111  0.3587 -0.4010
 6485SOL     OW20353   1.693   0.166   1.452  0.0614 -0.2186 -0.4726
 6485SOL    HW120354   1.629   0.093   1.430  0.0801 -1.0533  1.8921
 6485SOL    HW220355   1.784   0.143   1.418 -0.1626 -0.7778 -0.6913
 6486SOL     OW20356   5.429   6.482   6.602 -0.0854  0.4319 -0.9295
 6486SOL    HW120357   5.454   6.498   6.698  0.1829  2.6221 -1.3031
 6486SOL    HW220358   5.512   6.485   6.545 -0.3994  0.6172 -1.3847
 6487SOL     OW20359   0.635   6.266   5.932  0.2332 -0.0001 -0.0671
 6487SOL    HW120360   0.700   6.290   5.859 -1.6259 -0.1009 -1.8438
 6487SOL    HW220361   0.609   6.349   5.982 -0.5981  0.5771 -1.3962
 6488SOL     OW20362   0.523   1.879   1.611  0.1937  0.0346 -0.3896
 6488SOL    HW120363   0.550   1.824   1.533  0.9621  0.1112 -0.1888
 6488SOL    HW220364   0.548   1.832   1.696  1.0270  0.7602 -0.2180
 6489SOL     OW20365   5.938   3.450   3.802  0.5194  0.0201  0.3267
 6489SOL    HW120366   5.948   3.478   3.898 -1.7454 -0.0873  0.6441
 6489SOL    HW220367   5.862   3.500   3.760 -1.2713 -2.8555 -0.1591
 6490SOL     OW20368   0.462   2.633   5.380 -0.3691  0.3647 -0.5215
 6490SOL    HW120369   0.495   2.570   5.451  0.7921 -0.5171 -1.7673
 6490SOL    HW220370   0.539   2.689   5.348 -1.0484  1.2801 -0.5648
 6491SOL     OW20371   6.520   2.420   0.797  0.1686  0.5046  0.0753
 6491SOL    HW120372   6.428   2.381   0.802 -0.2473  1.5287  0.5666
 6491SOL    HW220373   6.581   2.367   0.857 -0.1431 -0.0576 -0.1005
 6492SOL     OW20374   0.340   4.211   0.767 -0.1787  1.0289 -0.2414
 6492SOL    HW120375   0.403   4.234   0.841 -1.8134 -0.3800  1.6810
 6492SOL    HW220376   0.359   4.118   0.735 -2.0039  0.0703  1.2677
 6493SOL     OW20377   1.219   6.948   6.626  0.1744 -0.1337 -0.2182
 6493SOL    HW120378   1.228   7.045   6.604 -2.5850  0.0081 -1.0042
 6493SOL    HW220379   1.212   6.895   6.542  0.0338 -0.8342  0.2281
 6494SOL     OW20380   0.287   2.893   0.303 -0.2749 -0.3551  0.0090
 6494SOL    HW120381   0.190   2.907   0.283 -0.3008  1.9165  1.2993
 6494SOL    HW220382   0.317   2.805   0.266 -2.5977 -0.7388 -1.1488
 6495SOL     OW20383   0.834   3.287   5.952 -0.2495  0.4315 -0.1228
 6495SOL    HW120384   0.904   3.337   6.002 -1.5676  0.8111  1.4144
 6495SOL    HW220385   0.776   3.352   5.902 -0.1083  0.1942 -0.6047
 6496SOL     OW20386   1.027   3.211   3.188  0.6313 -0.8342  0.1741
 6496SOL    HW120387   1.017   3.216   3.089  3.3251 -1.6002 -0.2255
 6496SOL    HW220388   1.108   3.262   3.216  0.2204 -1.0815  1.9389
 6497SOL     OW20389   6.105   1.897   3.742 -0.2443  0.4708  0.4939
 6497SOL    HW120390   6.115   1.833   3.819 -0.1335  0.4086  0.4289
 6497SOL    HW220391   6.100   1.845   3.657  0.6313  0.5759  0.3645
 6498SOL     OW20392   4.968   5.891   0.446  0.5284 -0.1794 -0.6883
 6498SOL    HW120393   5.058   5.880   0.489  0.5035 -0.3354 -0.6749
 6498SOL    HW220394   4.916   5.961   0.495  1.1022  0.7976 -1.4542
 6499SOL     OW20395   5.719   0.762   0.592 -0.0468  0.5454 -0.6116
 6499SOL    HW120396   5.786   0.688   0.596 -1.6633 -1.1345 -2.4927
 6499SOL    HW220397   5.766   0.848   0.571  1.5992 -0.4397 -1.1568
 6500SOL     OW20398   5.431   6.428   5.012  0.5413  0.2162  0.2857
 6500SOL    HW120399   5.403   6.362   4.943  0.2697 -0.0102  0.6062
 6500SOL    HW220400   5.401   6.397   5.102 -0.0736  1.0290  0.3805
 6501SOL     OW20401   3.538   7.007   5.563  0.0361  0.0796  0.0266
 6501SOL    HW120402   3.613   6.965   5.513  0.3735  0.5691  0.1130
 6501SOL    HW220403   3.470   7.042   5.499  0.1155  0.0553 -0.0702
 6502SOL     OW20404   4.502   6.341   1.905  0.1275  0.5424 -0.6565
 6502SOL    HW120405   4.540   6.268   1.962 -2.0028 -1.9346 -2.1771
 6502SOL    HW220406   4.468   6.415   1.963 -1.8187 -1.7839  1.4062
 6503SOL     OW20407   5.539   1.322   1.174  0.5738 -0.5602 -0.3345
 6503SOL    HW120408   5.616   1.375   1.137  1.0113 -0.2985  0.8977
 6503SOL    HW220409   5.473   1.385   1.216  1.0575 -0.9571  1.0674
 6504SOL     OW20410   5.576   3.276   1.706 -0.3709  0.2483 -0.3123
 6504SOL    HW120411   5.644   3.306   1.773 -0.7226  1.4242 -0.4619
 6504SOL    HW220412   5.601   3.312   1.616  0.1250 -1.3581 -0.8535
 6505SOL     OW20413   6.878   0.472   4.159 -0.1526  0.0302  0.4535
 6505SOL    HW120414   6.797   0.530   4.150 -0.5971 -0.6739 -0.1936
 6505SOL    HW220415   6.957   0.520   4.122 -0.6187  0.0353 -0.5798
 6506SOL     OW20416   2.674   5.880   5.462 -0.3131  0.0350  0.1601
 6506SOL    HW120417   2.645   5.786   5.477 -1.1588  0.4706  1.4059
 6506SOL    HW220418   2.631   5.915   5.379  1.0341 -1.0546 -1.0614
 6507SOL     OW20419   5.991   3.200   0.620 -0.4005 -0.0346  0.5548
 6507SOL    HW120420   6.013   3.237   0.530  0.3539  0.3063  0.8692
 6507SOL    HW220421   5.937   3.268   0.671  1.3640  0.8657  1.2973
 6508SOL     OW20422   3.534   6.884   1.148 -0.3985 -0.6966  0.1645
 6508SOL    HW120423   3.504   6.884   1.243 -0.6432 -0.6274  0.0905
 6508SOL    HW220424   3.623   6.928   1.140 -0.3621 -0.7340  0.3655
 6509SOL     OW20425   4.781   2.589   1.647  0.4535 -0.2910  0.6583
 6509SOL    HW120426   4.826   2.671   1.613  0.8295 -0.8348 -0.2018
 6509SOL    HW220427   4.704   2.614   1.705 -0.1085  0.6858 -0.4701
 6510SOL     OW20428   1.233   4.215   6.689 -0.3318 -0.0066  0.1956
 6510SOL    HW120429   1.281   4.167   6.762 -1.2989  1.0003  1.5332
 6510SOL    HW220430   1.299   4.265   6.633  0.3533 -0.1822  0.8301
 6511SOL     OW20431   5.445   1.800   6.050  0.1229  0.4499  0.5084
 6511SOL    HW120432   5.381   1.729   6.081 -1.9500  1.7685 -0.4894
 6511SOL    HW220433   5.501   1.765   5.976 -1.5085  0.0614 -0.5932
 6512SOL     OW20434   6.908   0.732   1.326  0.1245  0.1834  0.2438
 6512SOL    HW120435   6.976   0.725   1.254 -0.2321 -0.1937 -0.0582
 6512SOL    HW220436   6.841   0.659   1.316 -1.0076  1.2557 -0.1711
 6513SOL     OW20437   6.857   4.480   6.490  0.0841 -0.3955  0.2532
 6513SOL    HW120438   6.815   4.409   6.546 -0.2173 -1.4039 -1.1808
 6513SOL    HW220439   6.818   4.569   6.513 -0.2791 -0.8352  1.3748
 6514SOL     OW20440   1.912   5.342   3.141 -0.2431  0.2102 -0.5921
 6514SOL    HW120441   1.814   5.340   3.164 -0.2675 -1.8281 -0.7056
 6514SOL    HW220442   1.929   5.415   3.076 -1.3432  1.8074  0.8182
 6515SOL     OW20443   0.819   6.640   4.159  0.0976  0.2568 -0.4363
 6515SOL    HW120444   0.883   6.565   4.172 -0.8556 -0.4519  0.2900
 6515SOL    HW220445   0.868   6.727   4.165  0.6845 -0.1840  2.3279
 6516SOL     OW20446   3.145   5.981   6.690  0.9274  0.1437 -0.1404
 6516SOL    HW120447   3.183   6.073   6.701 -1.3016  0.8370  3.5436
 6516SOL    HW220448   3.063   5.986   6.634  1.0019  0.3565 -0.2317
 6517SOL     OW20449   4.430   6.355   6.567  0.3314  0.7556  0.5230
 6517SOL    HW120450   4.479   6.441   6.552  1.6835 -0.0105  0.3761
 6517SOL    HW220451   4.411   6.312   6.478  0.2455  0.5914  0.6207
 6518SOL     OW20452   3.701   2.808   5.680 -0.3838 -0.6060  0.0855
 6518SOL    HW120453   3.659   2.761   5.758  1.8325 -0.7898  1.2229
 6518SOL    HW220454   3.772   2.749   5.640  0.4207  0.6085 -0.3199
 6519SOL     OW20455   1.928   5.375   4.964 -0.8791  0.6317 -0.3094
 6519SOL    HW120456   1.910   5.279   4.942 -0.6042  0.5901 -0.3654
 6519SOL    HW220457   1.950   5.425   4.880  1.6039  0.1611 -0.0137
 6520SOL     OW20458   4.028   6.163   5.132 -0.4309 -0.4988 -0.1103
 6520SOL    HW120459   3.995   6.254   5.157 -0.1539 -0.5074  0.2925
 6520SOL    HW220460   4.042   6.159   5.033 -0.1577 -0.0103 -0.0924
 6521SOL     OW20461   1.563   2.434   1.681 -0.0030  0.2178 -0.4062
 6521SOL    HW120462   1.533   2.529   1.682  1.1423  0.5946 -0.4980
 6521SOL    HW220463   1.551   2.396   1.589 -0.7740  0.1580 -0.2893
 6522SOL     OW20464   1.622   1.970   0.425  0.5136  0.7420 -0.8506
 6522SOL    HW120465   1.580   2.059   0.406  1.6728  1.1704 -1.5040
 6522SOL    HW220466   1.560   1.915   0.480 -1.1826  1.1181 -2.2826
 6523SOL     OW20467   2.933   5.049   3.140  0.1617 -0.4462  0.4710
 6523SOL    HW120468   2.907   4.979   3.206 -1.7496  0.6334  0.9337
 6523SOL    HW220469   2.885   5.033   3.054  3.6272 -2.6154 -1.2448
 6524SOL     OW20470   1.724   5.837   3.007  0.4822 -0.0890 -0.3721
 6524SOL    HW120471   1.719   5.738   3.001  1.6581 -0.1687 -0.2940
 6524SOL    HW220472   1.637   5.873   3.040 -0.6819 -0.9026 -2.4027
 6525SOL     OW20473   4.801   3.221   3.329 -0.5757  0.0171 -0.3576
 6525SOL    HW120474   4.716   3.186   3.291 -0.3703 -0.7749 -0.1045
 6525SOL    HW220475   4.868   3.147   3.334 -0.5099  0.1560  1.2779
 6526SOL     OW20476   0.110   3.728   0.869  0.2048 -0.0032 -0.3400
 6526SOL    HW120477   0.200   3.738   0.827  0.1960  1.6758 -0.0508
 6526SOL    HW220478   0.108   3.646   0.926  1.5904 -0.0090 -0.2700
 6527SOL     OW20479   7.009   5.050   3.983 -0.8768 -0.0498 -0.1301
 6527SOL    HW120480   7.033   4.955   3.960 -2.2170 -0.2048 -0.9714
 6527SOL    HW220481   7.040   5.111   3.910 -0.6789  0.0752  0.0562
 6528SOL     OW20482   6.510   5.320   0.467 -0.3136 -0.1504  0.0843
 6528SOL    HW120483   6.607   5.296   0.465 -0.2853 -0.0365 -1.4053
 6528SOL    HW220484   6.497   5.412   0.432 -0.9479 -0.0693  0.5016
 6529SOL     OW20485   5.871   6.529   1.611 -0.1642 -0.2610  0.4433
 6529SOL    HW120486   5.920   6.602   1.562 -0.7618 -0.5990 -0.6885
 6529SOL    HW220487   5.846   6.562   1.702  0.2687  0.6679  0.2433
 6530SOL     OW20488   2.987   0.560   4.596  0.1897  0.2935 -0.3155
 6530SOL    HW120489   2.899   0.561   4.547 -0.4364  0.0287  0.7694
 6530SOL    HW220490   3.031   0.648   4.585  0.0760  0.2376 -1.3662
 6531SOL     OW20491   6.532   6.363   5.575 -0.2666 -0.3195  0.8291
 6531SOL    HW120492   6.610   6.426   5.575 -1.0749  0.7488 -0.5742
 6531SOL    HW220493   6.502   6.347   5.669  0.8580  0.2383  1.3066
 6532SOL     OW20494   1.182   4.690   5.489 -0.4144 -0.2511  0.1019
 6532SOL    HW120495   1.264   4.738   5.519 -0.9382  0.3330  0.6279
 6532SOL    HW220496   1.114   4.689   5.563 -1.0356 -0.3678 -0.4554
 6533SOL     OW20497   1.576   4.715   2.855  0.4155  0.2190 -0.2842
 6533SOL    HW120498   1.506   4.707   2.784  0.7548  2.0241 -0.8653
 6533SOL    HW220499   1.546   4.782   2.923  0.8271 -0.2847  0.3990
 6534SOL     OW20500   2.506   1.818   4.230 -0.8100 -0.2845  0.0080
 6534SOL    HW120501   2.422   1.768   4.250 -1.9062  1.0725 -0.9958
 6534SOL    HW220502   2.543   1.856   4.315 -0.7530 -1.5480  0.5715
 6535SOL     OW20503   5.776   6.098   0.268  0.7649  0.2344 -0.3284
 6535SOL    HW120504   5.847   6.118   0.335  0.7942 -0.7412 -0.0419
 6535SOL    HW220505   5.739   6.006   0.286  0.0450  0.3798 -1.0092
 6536SOL     OW20506   5.882   0.987   0.952 -0.2078  0.3619  0.5232
 6536SOL    HW120507   5.839   0.960   1.039 -0.2922 -1.4332 -0.0249
 6536SOL    HW220508   5.817   1.036   0.896 -0.3744  0.9062  1.1758
 6537SOL     OW20509   6.079   2.551   0.717  0.2084  0.1156 -0.2887
 6537SOL    HW120510   6.125   2.524   0.801  1.3235  0.5807 -0.7343
 6537SOL    HW220511   5.984   2.520   0.719  0.6325 -1.1686  0.4940
 6538SOL     OW20512   5.983   1.030   3.455  0.2914  1.1593 -0.3543
 6538SOL    HW120513   5.889   1.051   3.427  0.1546  0.4476 -0.4572
 6538SOL    HW220514   5.982   0.994   3.549  0.5908  2.2164  0.0621
 6539SOL     OW20515   6.387   6.192   2.286 -0.0671 -0.4346 -0.1022
 6539SOL    HW120516   6.485   6.208   2.277 -0.3819  3.7345  1.5232
 6539SOL    HW220517   6.346   6.186   2.195  1.2055  2.4995 -0.9947
 6540SOL     OW20518   4.434   0.959   5.235 -0.0679  0.1500  0.3418
 6540SOL    HW120519   4.457   1.004   5.322  0.0723  1.0380 -0.1412
 6540SOL    HW220520   4.362   1.012   5.188 -0.7622 -0.8002  0.3127
 6541SOL     OW20521   2.469   1.612   0.386 -0.1198 -0.3771 -0.1085
 6541SOL    HW120522   2.378   1.643   0.413 -0.7910 -0.6372 -1.9079
 6541SOL    HW220523   2.508   1.676   0.320  1.0427 -0.2309  0.7012
 6542SOL     OW20524   2.907   6.371   6.460 -0.4658 -0.5889  0.2676
 6542SOL    HW120525   2.895   6.349   6.557 -1.2950 -1.8050 -0.0967
 6542SOL    HW220526   2.985   6.320   6.424 -0.4559 -0.5048  0.1700
 6543SOL     OW20527   0.721   6.903   0.346  0.0798  0.0475 -0.5725
 6543SOL    HW120528   0.631   6.914   0.303 -0.6277 -0.9482  0.5985
 6543SOL    HW220529   0.782   6.855   0.283  0.0369  1.3314 -1.6449
 6544SOL     OW20530   2.143   4.480   2.115  0.4991 -0.0083 -0.2263
 6544SOL    HW120531   2.119   4.383   2.124  1.2491 -0.0660  1.3808
 6544SOL    HW220532   2.235   4.488   2.076  0.4462  0.0574 -0.3382
 6545SOL     OW20533   1.289   2.321   1.403  0.7850 -0.0333 -0.7667
 6545SOL    HW120534   1.259   2.227   1.388  1.9020 -0.3767 -0.9409
 6545SOL    HW220535   1.388   2.326   1.396  0.8911  0.8629  0.8470
 6546SOL     OW20536   1.658   4.760   4.577 -0.1920 -0.1917  0.0011
 6546SOL    HW120537   1.746   4.756   4.530  0.7325 -0.4625  1.6877
 6546SOL    HW220538   1.606   4.839   4.543  0.3404 -0.4733 -1.5589
 6547SOL     OW20539   3.630   0.257   0.714 -0.6159  0.3166  0.0452
 6547SOL    HW120540   3.599   0.336   0.766 -0.4404  1.2018 -1.1649
 6547SOL    HW220541   3.727   0.242   0.731 -0.0023  1.9651 -1.6506
 6548SOL     OW20542   4.075   5.517   4.956 -0.5885 -0.4466  0.4800
 6548SOL    HW120543   4.136   5.596   4.965 -2.4589  1.2366 -0.6597
 6548SOL    HW220544   4.091   5.471   4.869 -1.9096  0.9629 -0.5654
 6549SOL     OW20545   5.427   2.696   5.043  0.1777 -0.0253 -0.1769
 6549SOL    HW120546   5.426   2.796   5.043 -0.5812  0.0373 -2.5254
 6549SOL    HW220547   5.336   2.662   5.068  0.6314 -0.1832  1.3488
 6550SOL     OW20548   1.476   6.077   0.073 -0.2538  0.6319  0.1272
 6550SOL    HW120549   1.465   5.993   0.020  1.5335  0.3518  0.1529
 6550SOL    HW220550   1.471   6.156   0.011 -1.3970  0.5083  0.0310
 6551SOL     OW20551   6.881   2.225   1.132  0.7510 -0.2621 -0.8511
 6551SOL    HW120552   6.874   2.240   1.230  1.5320 -1.6021 -0.5620
 6551SOL    HW220553   6.978   2.219   1.106  0.5933  1.1384 -1.8913
 6552SOL     OW20554   1.170   4.618   4.545 -0.1047  0.2968  0.7121
 6552SOL    HW120555   1.128   4.544   4.491 -1.7145 -0.2139  2.5243
 6552SOL    HW220556   1.160   4.704   4.495 -0.6169 -0.2932 -0.2604
 6553SOL     OW20557   2.893   3.467   4.771  0.5654  0.3971  0.2080
 6553SOL    HW120558   2.796   3.447   4.779  0.1532  1.8322 -0.7379
 6553SOL    HW220559   2.935   3.403   4.706  0.0517  0.3485 -0.0785
 6554SOL     OW20560   0.155   0.877   5.915 -0.3222 -0.0433  0.2351
 6554SOL    HW120561   0.150   0.869   6.015  0.3508  0.4760  0.3182
 6554SOL    HW220562   0.142   0.973   5.890 -0.1022 -0.1183 -0.1570
 6555SOL     OW20563   0.643   3.896   6.496 -0.1995 -0.7378  0.3521
 6555SOL    HW120564   0.594   3.935   6.574  1.2614 -1.1450  1.5226
 6555SOL    HW220565   0.603   3.931   6.411 -0.2130  1.7519  1.2974
 6556SOL     OW20566   2.015   6.339   6.365 -0.3631  0.1486 -0.1451
 6556SOL    HW120567   2.047   6.270   6.430 -0.1001  0.9177  0.5563
 6556SOL    HW220568   2.021   6.429   6.407 -1.8056  0.4897 -0.6393
 6557SOL     OW20569   1.499   3.607   0.023 -0.5734 -0.4917  0.1988
 6557SOL    HW120570   1.500   3.676   0.095  1.0916 -0.2200 -0.0484
 6557SOL    HW220571   1.515   3.517   0.063  0.5976 -0.3123  0.1685
 6558SOL     OW20572   3.740   6.839   0.253  0.0986  0.6412  0.4202
 6558SOL    HW120573   3.645   6.840   0.223 -0.0066  0.8546  0.7582
 6558SOL    HW220574   3.759   6.922   0.306 -0.0049 -0.2144  1.8346
 6559SOL     OW20575   0.681   0.828   2.491 -0.6505  0.2833 -0.0369
 6559SOL    HW120576   0.773   0.815   2.529 -0.8053  0.0852  0.2679
 6559SOL    HW220577   0.653   0.744   2.443 -1.2512 -0.1841  1.0944
 6560SOL     OW20578   0.260   4.357   5.670 -0.1964 -0.1598 -0.4898
 6560SOL    HW120579   0.323   4.306   5.612 -0.8115 -1.3721 -0.1313
 6560SOL    HW220580   0.251   4.451   5.636  1.6573  0.0020 -0.6401
 6561SOL     OW20581   0.616   3.009   1.062 -0.0498  0.2838  0.0187
 6561SOL    HW120582   0.641   3.033   1.155 -0.3796  0.9110 -0.0525
 6561SOL    HW220583   0.622   2.909   1.051  1.0774  0.3017  0.3763
 6562SOL     OW20584   5.247   5.161   1.287 -0.0309 -0.1397 -0.1617
 6562SOL    HW120585   5.335   5.137   1.245  0.9179  0.4722  1.3654
 6562SOL    HW220586   5.263   5.227   1.361 -1.7409 -0.3308  0.4151
 6563SOL     OW20587   6.501   2.047   6.219  0.3031  0.6459 -0.6966
 6563SOL    HW120588   6.589   2.093   6.227  0.6722 -0.0291 -0.7870
 6563SOL    HW220589   6.503   1.963   6.274 -0.7633  1.3160  0.4168
 6564SOL     OW20590   5.549   1.222   5.694  0.2403 -0.6759  0.0883
 6564SOL    HW120591   5.471   1.162   5.681  0.6778 -1.2001 -0.1499
 6564SOL    HW220592   5.549   1.293   5.623 -0.8774  0.2816  0.9993
 6565SOL     OW20593   4.747   3.908   6.981  0.2188 -0.4172 -0.2062
 6565SOL    HW120594   4.744   4.007   6.995  2.5920  0.1627 -2.7926
 6565SOL    HW220595   4.783   3.864   7.063 -0.8115  0.8262  0.9643
 6566SOL     OW20596   2.342   5.525   1.139  0.5986  0.2632 -0.3281
 6566SOL    HW120597   2.429   5.475   1.133 -0.0020 -0.9263  0.3799
 6566SOL    HW220598   2.300   5.507   1.228 -0.3317  0.8844 -0.6358
 6567SOL     OW20599   4.959   0.751   6.697  0.2537  0.0008  0.2510
 6567SOL    HW120600   5.005   0.674   6.740  1.1223  0.6969  0.5836
 6567SOL    HW220601   5.025   0.823   6.677 -0.6854  1.0348  0.7608
 6568SOL     OW20602   4.521   1.148   0.239  0.3779 -0.0454  0.5880
 6568SOL    HW120603   4.454   1.178   0.308 -1.5185  1.7298 -1.8627
 6568SOL    HW220604   4.583   1.224   0.219  0.4752 -0.3200 -0.1452
 6569SOL     OW20605   3.217   2.245   5.614  0.3562 -0.7452  0.3510
 6569SOL    HW120606   3.249   2.283   5.701 -1.3235  0.8523  0.3240
 6569SOL    HW220607   3.265   2.289   5.538  0.8499 -1.1686  0.4093
 6570SOL     OW20608   5.198   3.459   1.371 -0.1852 -0.3726 -0.1433
 6570SOL    HW120609   5.251   3.377   1.391 -1.9497 -1.5774 -0.2038
 6570SOL    HW220610   5.100   3.438   1.375 -0.6865  1.2359 -2.0985
 6571SOL     OW20611   1.451   5.753   0.434 -0.0599  0.8868 -0.2396
 6571SOL    HW120612   1.362   5.798   0.438 -0.3072  0.3288  1.4845
 6571SOL    HW220613   1.439   5.654   0.446  0.8489  0.9176  1.1857
 6572SOL     OW20614   5.800   0.743   3.677 -0.1434 -0.3698 -0.0089
 6572SOL    HW120615   5.844   0.665   3.633  1.6985  1.1664 -1.0180
 6572SOL    HW220616   5.869   0.811   3.703 -1.8169  1.7993 -0.9129
 6573SOL     OW20617   2.279   1.174   0.115  0.2246 -0.5590 -0.2798
 6573SOL    HW120618   2.288   1.232   0.033  2.3482  2.4647  1.8639
 6573SOL    HW220619   2.365   1.128   0.133  0.0342 -0.5681  0.6717
 6574SOL     OW20620   0.371   1.122   1.522 -0.8377  0.0901  0.1975
 6574SOL    HW120621   0.299   1.075   1.573 -0.6520 -0.4594 -0.0356
 6574SOL    HW220622   0.352   1.220   1.521  0.2592  0.4199  3.0841
 6575SOL     OW20623   5.484   5.917   3.611  0.1519 -0.5395 -0.3278
 6575SOL    HW120624   5.517   5.904   3.705 -2.7788 -0.3078  0.8445
 6575SOL    HW220625   5.428   5.838   3.584 -3.1433  1.4324  0.1282
 6576SOL     OW20626   3.668   5.955   5.554  0.1157  0.6903 -0.0944
 6576SOL    HW120627   3.579   5.996   5.530  0.3756  0.3790 -1.7142
 6576SOL    HW220628   3.690   5.883   5.488  1.5394  0.7119  0.3296
 6577SOL     OW20629   5.107   6.093   4.214 -0.2949  0.1527  0.3159
 6577SOL    HW120630   5.134   6.129   4.124  1.9201 -2.4957 -0.2225
 6577SOL    HW220631   5.061   6.164   4.266 -2.3890  1.6185 -3.1553
 6578SOL     OW20632   4.831   1.468   4.770 -0.0316  0.1190  0.1355
 6578SOL    HW120633   4.804   1.450   4.676 -0.0127 -2.8531  0.5972
 6578SOL    HW220634   4.927   1.496   4.773 -0.0874  0.4105 -0.7413
 6579SOL     OW20635   5.798   6.763   5.796  0.2828 -0.7116 -0.8716
 6579SOL    HW120636   5.740   6.693   5.756 -0.2630 -1.1940  0.6986
 6579SOL    HW220637   5.808   6.839   5.732 -0.3916 -1.5275 -1.9692
 6580SOL     OW20638   6.749   4.054   2.988 -0.6923  0.5877  0.2792
 6580SOL    HW120639   6.826   4.023   2.931 -1.2801  1.5592 -1.1247
 6580SOL    HW220640   6.764   4.027   3.083  0.8084 -0.2613 -0.1679
 6581SOL     OW20641   0.281   3.348   1.857  0.4953 -0.1136 -0.8548
 6581SOL    HW120642   0.347   3.404   1.808  0.6170  1.4225  0.9517
 6581SOL    HW220643   0.278   3.257   1.816  1.2725  0.7631 -3.0462
 6582SOL     OW20644   1.016   0.909   5.131  0.0941 -0.4844 -1.0397
 6582SOL    HW120645   0.935   0.938   5.079 -0.3770 -1.2705 -0.7615
 6582SOL    HW220646   1.077   0.988   5.144  0.1302 -0.2158 -2.5957
 6583SOL     OW20647   1.427   6.429   1.654  0.1041  0.6900  0.2371
 6583SOL    HW120648   1.456   6.514   1.700  2.1732  0.6383 -0.8691
 6583SOL    HW220649   1.388   6.452   1.565  1.4460  0.4582 -0.4266
 6584SOL     OW20650   6.601   6.565   2.718 -0.4832  0.7760  0.0570
 6584SOL    HW120651   6.655   6.502   2.774  0.7634  0.5813 -1.2988
 6584SOL    HW220652   6.622   6.660   2.744 -1.1209  0.6868  0.9668
 6585SOL     OW20653   6.630   4.958   6.041 -0.5140  0.5604 -0.2733
 6585SOL    HW120654   6.702   4.901   6.081 -0.4709  0.7391 -0.0961
 6585SOL    HW220655   6.603   4.920   5.952  0.3274  0.8984 -0.6898
 6586SOL     OW20656   4.510   6.967   1.804  0.0777  0.1337  0.1848
 6586SOL    HW120657   4.435   6.914   1.765  0.5139  0.0861 -0.6230
 6586SOL    HW220658   4.476   7.056   1.835 -0.0740  0.6926 -1.4886
 6587SOL     OW20659   6.659   0.898   1.984 -0.4102  0.0642 -0.2136
 6587SOL    HW120660   6.734   0.839   1.953 -1.5265 -1.0463 -0.9252
 6587SOL    HW220661   6.679   0.932   2.075  2.5607  2.6717 -1.6523
 6588SOL     OW20662   2.351   5.299   6.922  0.4446  0.1391 -0.1766
 6588SOL    HW120663   2.336   5.330   7.016  0.9810  1.4004 -0.4881
 6588SOL    HW220664   2.267   5.259   6.887 -0.5684  1.9693  0.0024
 6589SOL     OW20665   3.493   0.888   7.001 -0.1104  0.0809 -1.0622
 6589SOL    HW120666   3.501   0.792   6.974  0.5207 -1.0082  2.5227
 6589SOL    HW220667   3.551   0.906   7.080 -2.6219  2.5504  0.4156
 6590SOL     OW20668   6.731   6.491   0.810  0.4052  0.4492 -0.1932
 6590SOL    HW120669   6.723   6.524   0.716  0.6498 -0.8234 -0.6920
 6590SOL    HW220670   6.823   6.452   0.823  1.1023  2.4213  1.2048
 6591SOL     OW20671   1.407   4.868   4.046 -0.3109 -0.3787  0.3847
 6591SOL    HW120672   1.386   4.897   3.953 -1.5212 -0.6404  0.5575
 6591SOL    HW220673   1.440   4.947   4.099  0.5400 -0.2659 -0.2964
 6592SOL     OW20674   0.633   4.935   2.156  0.0458 -0.0174  0.1213
 6592SOL    HW120675   0.659   4.893   2.069 -1.1439  0.7395 -0.6412
 6592SOL    HW220676   0.577   5.016   2.137  0.0627  0.3573  1.5976
 6593SOL     OW20677   1.918   3.803   4.396  0.0595  0.1293  0.2173
 6593SOL    HW120678   1.984   3.806   4.321  0.6905 -0.3105  0.7430
 6593SOL    HW220679   1.836   3.853   4.370 -0.0218 -0.6120 -1.0514
 6594SOL     OW20680   5.029   6.792   5.051 -0.2680 -0.0427  0.3113
 6594SOL    HW120681   5.117   6.748   5.033  0.0188  0.1690  1.1444
 6594SOL    HW220682   5.044   6.881   5.094 -0.8313  1.1754 -1.8541
 6595SOL     OW20683   5.906   4.368   4.554 -0.0905 -0.4909 -0.2235
 6595SOL    HW120684   5.975   4.310   4.596 -0.2732 -1.7258 -1.5181
 6595SOL    HW220685   5.845   4.405   4.624 -0.1459 -2.1319  0.6443
 6596SOL     OW20686   4.273   4.714   4.403  0.4811 -0.4227  0.3126
 6596SOL    HW120687   4.206   4.736   4.474 -0.8332 -3.1892  0.0622
 6596SOL    HW220688   4.351   4.667   4.443  0.8150  0.0141  0.1893
 6597SOL     OW20689   1.748   6.677   2.564  0.0929 -0.4347  0.3165
 6597SOL    HW120690   1.766   6.648   2.470  1.9905  0.9437  0.1949
 6597SOL    HW220691   1.711   6.770   2.563 -2.0674 -1.2166  0.8877
 6598SOL     OW20692   0.542   1.613   2.686  0.1908 -0.3434 -0.3051
 6598SOL    HW120693   0.474   1.671   2.642 -0.2293 -1.7396 -1.5686
 6598SOL    HW220694   0.627   1.614   2.632  0.7405  0.3274  0.5353
 6599SOL     OW20695   6.928   3.970   4.955  0.4602 -0.0953  0.2757
 6599SOL    HW120696   7.002   3.921   5.002  0.3280  0.6062  1.2442
 6599SOL    HW220697   6.849   3.977   5.016 -0.4108 -0.8130 -0.7389
 6600SOL     OW20698   6.195   2.442   5.003  0.0787  0.4302  0.0608
 6600SOL    HW120699   6.144   2.401   4.929  0.2047 -0.0035  0.2147
 6600SOL    HW220700   6.288   2.462   4.972  0.4078 -0.5779  0.3638
 6601SOL     OW20701   1.422   4.311   3.093 -0.2197  0.4377 -0.0141
 6601SOL    HW120702   1.434   4.410   3.081 -0.3224  0.3263 -1.1739
 6601SOL    HW220703   1.331   4.285   3.063  0.2360 -0.1848 -0.8871
 6602SOL     OW20704   0.871   6.898   4.061  1.0513  0.4468  0.1826
 6602SOL    HW120705   0.884   6.975   4.122  0.3591  2.3322 -1.9111
 6602SOL    HW220706   0.919   6.915   3.975  0.4517 -1.2326 -0.5314
 6603SOL     OW20707   4.101   1.308   1.132 -0.1269 -0.3177  0.0883
 6603SOL    HW120708   4.024   1.246   1.148  1.0356 -1.8646 -0.0066
 6603SOL    HW220709   4.133   1.345   1.219 -1.4435  0.9942  0.0615
 6604SOL     OW20710   5.451   1.019   5.408  0.1296  0.0604 -0.0064
 6604SOL    HW120711   5.477   0.943   5.349 -1.2084 -0.7257  0.3909
 6604SOL    HW220712   5.477   0.998   5.503  0.8129  0.6232 -0.0575
 6605SOL     OW20713   5.586   6.241   6.417  0.2671 -0.0933  0.3883
 6605SOL    HW120714   5.684   6.253   6.433  0.3936  2.9923 -1.7144
 6605SOL    HW220715   5.543   6.201   6.498  3.1316 -1.1456  1.5317
 6606SOL     OW20716   4.922   1.166   2.412  0.0061 -0.1299  0.1499
 6606SOL    HW120717   5.016   1.140   2.433  0.6889  2.0537  0.0570
 6606SOL    HW220718   4.920   1.225   2.332 -1.7348 -1.9044 -1.2282
 6607SOL     OW20719   1.771   0.296   2.710  0.0236 -0.0629 -0.7428
 6607SOL    HW120720   1.678   0.333   2.702  0.1700  0.3922 -0.4135
 6607SOL    HW220721   1.819   0.343   2.784 -0.2007 -1.8185  0.5503
 6608SOL     OW20722   1.319   2.426   3.157  0.7206 -0.1341  0.1358
 6608SOL    HW120723   1.232   2.470   3.138 -0.0923 -2.3077 -1.6502
 6608SOL    HW220724   1.303   2.329   3.178  2.6790 -0.4420  0.3769
 6609SOL     OW20725   4.870   6.303   2.870 -0.4985  0.0087  0.5892
 6609SOL    HW120726   4.878   6.204   2.880 -1.5884 -0.4855 -2.2986
 6609SOL    HW220727   4.919   6.332   2.787 -1.3456  1.6577  0.6165
 6610SOL     OW20728   5.335   1.749   3.328  0.2369 -0.0773  0.1388
 6610SOL    HW120729   5.363   1.832   3.279  0.8564 -0.3725 -0.0097
 6610SOL    HW220730   5.258   1.707   3.281 -0.7637  0.9642  0.7751
 6611SOL     OW20731   1.353   5.486   0.473 -0.1258 -0.1572  0.2678
 6611SOL    HW120732   1.448   5.460   0.485 -0.1889 -0.8859 -0.6586
 6611SOL    HW220733   1.297   5.404   0.461 -0.6239  0.3183 -0.8050
 6612SOL     OW20734   2.824   6.766   5.202  0.3505 -0.5373  0.1704
 6612SOL    HW120735   2.917   6.762   5.239  2.0248  3.2208 -2.9007
 6612SOL    HW220736   2.781   6.852   5.229 -0.6802 -0.4658 -1.5446
 6613SOL     OW20737   4.157   5.584   0.016 -0.5496 -0.4654 -0.0202
 6613SOL    HW120738   4.197   5.564   0.106  0.2700  1.5489  0.1030
 6613SOL    HW220739   4.083   5.651   0.027  0.6891  1.1136 -1.0068
 6614SOL     OW20740   0.679   1.927   4.800  0.8075  0.2615 -0.5523
 6614SOL    HW120741   0.624   2.003   4.765 -0.5584 -0.9906 -1.2298
 6614SOL    HW220742   0.653   1.907   4.894  0.5519  0.0879 -0.6582
 6615SOL     OW20743   0.537   5.483   4.927  0.0699  0.1951  0.1133
 6615SOL    HW120744   0.472   5.446   4.861  1.0031 -1.1652 -0.0788
 6615SOL    HW220745   0.557   5.415   4.997  0.7900  0.8169  0.5323
 6616SOL     OW20746   1.253   4.827   6.651 -0.1237 -0.6975 -0.4800
 6616SOL    HW120747   1.273   4.882   6.732 -1.1928  0.2654 -0.8403
 6616SOL    HW220748   1.180   4.871   6.598  0.7614 -1.1261 -2.1388
 6617SOL     OW20749   5.779   0.512   3.483 -0.0240 -0.2571  0.0448
 6617SOL    HW120750   5.842   0.583   3.450  2.1815 -0.9760  2.4431
 6617SOL    HW220751   5.818   0.422   3.465 -1.8715 -0.8924 -1.1366
 6618SOL     OW20752   3.577   1.012   6.108 -0.4959 -0.3752 -0.2508
 6618SOL    HW120753   3.488   0.977   6.139 -0.7747 -0.3006 -0.9533
 6618SOL    HW220754   3.633   1.034   6.188 -0.7223 -1.3968  0.2117
 6619SOL     OW20755   4.725   5.150   1.736  0.0061 -0.3559  0.1342
 6619SOL    HW120756   4.767   5.226   1.785  2.0942  0.1836 -2.2848
 6619SOL    HW220757   4.750   5.064   1.782 -1.0385  0.2479  1.9547
 6620SOL     OW20758   2.035   0.882   3.282 -0.1138 -0.1235  0.2683
 6620SOL    HW120759   2.013   0.947   3.210 -0.0198  1.4523  1.6159
 6620SOL    HW220760   1.951   0.858   3.332  0.3396  1.8595  2.0973
 6621SOL     OW20761   6.242   0.215   0.410 -0.1870 -0.5250  0.1607
 6621SOL    HW120762   6.260   0.271   0.329  1.2499 -1.9002 -0.5410
 6621SOL    HW220763   6.167   0.151   0.390  1.0896 -1.8390 -0.6624
 6622SOL     OW20764   3.514   0.983   2.915 -0.6643 -0.5531  0.1186
 6622SOL    HW120765   3.480   0.908   2.972 -0.9278 -1.3862 -1.1047
 6622SOL    HW220766   3.437   1.032   2.874 -0.7209  2.5464  3.4264
 6623SOL     OW20767   3.363   5.531   6.123 -0.5080 -0.4839  0.2156
 6623SOL    HW120768   3.314   5.484   6.049 -1.1589 -1.4387  1.2317
 6623SOL    HW220769   3.315   5.616   6.145 -0.1787 -0.0716 -0.6055
 6624SOL     OW20770   0.646   1.592   5.101 -0.0755  0.0312 -0.2274
 6624SOL    HW120771   0.634   1.573   5.199 -2.5548  1.0701 -0.2573
 6624SOL    HW220772   0.615   1.685   5.082  0.8728  0.0254 -1.9418
 6625SOL     OW20773   3.518   6.433   0.295  0.2822 -0.4855 -0.0936
 6625SOL    HW120774   3.451   6.469   0.230 -0.2647 -2.0420 -0.4501
 6625SOL    HW220775   3.606   6.423   0.250 -0.0120 -1.2475 -0.5138
 6626SOL     OW20776   5.814   5.231   5.600  0.0341  0.5361  0.1436
 6626SOL    HW120777   5.865   5.149   5.625 -1.9723 -0.5927  0.7667
 6626SOL    HW220778   5.736   5.242   5.661 -0.0726  2.6241 -0.2902
 6627SOL     OW20779   5.195   2.752   2.623 -0.6338 -0.5277  0.0969
 6627SOL    HW120780   5.144   2.809   2.688 -0.8369 -0.1851 -0.3600
 6627SOL    HW220781   5.140   2.737   2.541  0.0357 -0.0539 -0.4516
 6628SOL     OW20782   0.128   3.652   5.242  0.7433  0.3359 -0.0680
 6628SOL    HW120783   0.222   3.621   5.260  1.0774  1.1841 -0.2566
 6628SOL    HW220784   0.068   3.620   5.314  0.9267 -1.2799 -0.5867
 6629SOL     OW20785   0.643   3.631   6.156 -0.6998  0.1277 -0.2867
 6629SOL    HW120786   0.689   3.682   6.084 -0.8418  1.0089  0.2341
 6629SOL    HW220787   0.709   3.573   6.203 -0.2424  0.8675  0.0033
 6630SOL     OW20788   2.271   1.324   6.911 -0.3633 -0.0766  0.1484
 6630SOL    HW120789   2.323   1.378   6.976 -0.6031 -0.1255  0.3837
 6630SOL    HW220790   2.313   1.331   6.820 -1.0015  1.3787 -0.0575
 6631SOL     OW20791   2.946   6.464   0.413 -0.1945 -0.0210 -0.6622
 6631SOL    HW120792   2.997   6.536   0.366  2.9452 -2.5763 -1.4947
 6631SOL    HW220793   2.989   6.445   0.501 -1.0600 -0.8120 -0.3982
 6632SOL     OW20794   1.796   0.759   1.500 -0.3402 -0.2097  0.1033
 6632SOL    HW120795   1.744   0.723   1.577 -1.2618  0.8920  0.0214
 6632SOL    HW220796   1.846   0.684   1.456 -0.1444 -0.9214  1.4924
 6633SOL     OW20797   3.810   5.968   2.753  0.0170  0.3766 -0.4017
 6633SOL    HW120798   3.832   6.055   2.798 -0.5048 -0.9891  2.6984
 6633SOL    HW220799   3.892   5.931   2.711 -0.0873  3.1493 -3.4859
 6634SOL     OW20800   6.453   3.184   0.799  0.0387  0.0462  0.3821
 6634SOL    HW120801   6.443   3.169   0.701 -0.0968 -0.6597  0.4962
 6634SOL    HW220802   6.479   3.279   0.817  1.5891 -0.2058 -0.4223
 6635SOL     OW20803   4.312   6.720   0.883  0.1002  0.8830 -0.3095
 6635SOL    HW120804   4.399   6.677   0.909 -0.0100  1.5881  1.3834
 6635SOL    HW220805   4.322   6.765   0.794  0.9883 -0.3468 -0.8632
 6636SOL     OW20806   5.266   1.159   0.289  0.1868 -0.0332  0.5411
 6636SOL    HW120807   5.341   1.217   0.321  0.1234  2.2160 -2.8870
 6636SOL    HW220808   5.303   1.086   0.232 -0.1582  1.0895 -1.1705
 6637SOL     OW20809   4.363   6.238   6.320 -0.3526 -0.1763  0.0948
 6637SOL    HW120810   4.276   6.279   6.348 -0.8118 -0.5429 -0.7427
 6637SOL    HW220811   4.369   6.239   6.220  0.7318  0.0846  0.1525
 6638SOL     OW20812   1.753   1.562   1.961  0.4825 -0.3843  0.1180
 6638SOL    HW120813   1.798   1.473   1.947  2.1205 -0.1394  3.0679
 6638SOL    HW220814   1.801   1.632   1.909  0.8708 -0.7930 -0.0828
 6639SOL     OW20815   6.143   6.235   3.654  0.7140 -0.3744 -0.1896
 6639SOL    HW120816   6.053   6.239   3.613  1.1122  1.0606 -0.9806
 6639SOL    HW220817   6.194   6.319   3.633  2.5872 -1.5456 -0.6071
 6640SOL     OW20818   4.672   1.735   3.833  0.2220  0.0947  0.3190
 6640SOL    HW120819   4.661   1.658   3.770  0.8698  1.8206 -2.0323
 6640SOL    HW220820   4.582   1.769   3.859 -0.0854 -1.6705  1.7493
 6641SOL     OW20821   2.705   4.898   3.668 -0.0517  0.1682 -0.4695
 6641SOL    HW120822   2.695   4.802   3.642  0.1174  0.5263 -1.9433
 6641SOL    HW220823   2.794   4.933   3.636  0.3588  0.5380  0.9979
 6642SOL     OW20824   6.884   0.109   1.495  0.0206 -0.4480  0.0699
 6642SOL    HW120825   6.834   0.191   1.466  1.6374  0.1861 -1.0843
 6642SOL    HW220826   6.936   0.130   1.578  2.1441  0.4507 -1.3988
 6643SOL     OW20827   0.816   4.609   1.010 -0.5829 -0.0356 -0.0980
 6643SOL    HW120828   0.890   4.551   1.044 -0.0536  0.2367 -0.7643
 6643SOL    HW220829   0.828   4.702   1.045 -0.9301 -0.1155  0.2438
 6644SOL     OW20830   6.583   1.810   3.470  0.3962 -0.2457 -0.0917
 6644SOL    HW120831   6.590   1.831   3.372  1.1589 -0.9416 -0.1931
 6644SOL    HW220832   6.614   1.888   3.523 -1.0703  0.5660 -0.3642
 6645SOL     OW20833   4.272   4.921   5.882 -0.1847 -0.0084 -0.3015
 6645SOL    HW120834   4.235   4.955   5.968  0.8312 -0.0881  0.1802
 6645SOL    HW220835   4.233   4.973   5.806  0.5845  1.5905  0.3536
 6646SOL     OW20836   5.773   2.024   6.402  0.0283 -0.3461  0.3264
 6646SOL    HW120837   5.704   2.048   6.471  0.2700  1.2080  0.0751
 6646SOL    HW220838   5.844   1.968   6.445  0.2393  0.6993  1.4026
 6647SOL     OW20839   0.323   6.719   1.791 -0.2362  1.0720  0.2685
 6647SOL    HW120840   0.419   6.714   1.765 -0.2296  1.9955  0.0915
 6647SOL    HW220841   0.269   6.662   1.730  0.4248 -1.1442  1.6354
 6648SOL     OW20842   3.386   4.629   5.956  0.0104  0.2148  0.5809
 6648SOL    HW120843   3.349   4.662   5.869  0.9027  0.0841  0.1449
 6648SOL    HW220844   3.355   4.688   6.030 -0.8726  0.2456  0.2014
 6649SOL     OW20845   2.760   2.305   4.476 -0.4934 -0.1552  0.1477
 6649SOL    HW120846   2.747   2.226   4.536 -0.4010  0.3183  0.8093
 6649SOL    HW220847   2.830   2.284   4.407 -0.7864 -0.7965  0.0384
 6650SOL     OW20848   6.573   5.993   6.861  0.2522  0.0694  0.0950
 6650SOL    HW120849   6.667   6.004   6.829 -0.0908  1.2461 -0.5842
 6650SOL    HW220850   6.559   5.900   6.894  1.1070 -0.6907 -1.6179
 6651SOL     OW20851   1.726   2.710   5.118 -0.1097  0.3319 -0.2848
 6651SOL    HW120852   1.673   2.692   5.035  1.7507 -0.0209 -1.4497
 6651SOL    HW220853   1.798   2.776   5.098  1.9522 -1.6017  0.3813
 6652SOL     OW20854   1.213   3.431   6.495 -0.0354 -0.6949 -0.2817
 6652SOL    HW120855   1.118   3.408   6.517 -0.4962  1.0507 -0.2942
 6652SOL    HW220856   1.267   3.430   6.579 -0.0833 -1.6012 -0.2586
 6653SOL     OW20857   0.403   5.262   5.521  0.2134  0.1718  1.1039
 6653SOL    HW120858   0.471   5.217   5.463  0.3502  0.5654  0.9559
 6653SOL    HW220859   0.349   5.325   5.467  1.2270  1.5480  1.6284
 6654SOL     OW20860   5.386   4.273   3.978  0.0550  0.9483  0.4865
 6654SOL    HW120861   5.472   4.312   3.945  0.9561  0.5769  2.2692
 6654SOL    HW220862   5.400   4.176   4.000 -1.1215  0.6057 -0.1579
 6655SOL     OW20863   2.804   6.790   3.436  0.0861 -0.1085  0.0987
 6655SOL    HW120864   2.886   6.764   3.386  1.8234  1.3077  2.0214
 6655SOL    HW220865   2.729   6.804   3.372  1.2101 -1.8130 -1.6863
 6656SOL     OW20866   5.621   1.793   3.758 -0.3518  0.1015  0.2523
 6656SOL    HW120867   5.679   1.727   3.710  0.0605  0.0769  0.7712
 6656SOL    HW220868   5.588   1.751   3.843 -1.7656 -0.1615 -0.4062
 6657SOL     OW20869   4.603   5.297   3.381 -0.6667 -0.4084 -0.1471
 6657SOL    HW120870   4.553   5.213   3.361  1.2306 -1.4319 -0.7646
 6657SOL    HW220871   4.641   5.292   3.474 -0.8418 -0.0510 -0.0499
 6658SOL     OW20872   0.541   6.998   6.732  0.0191 -0.8596 -0.2284
 6658SOL    HW120873   0.493   7.082   6.709  0.5444 -0.3349  0.5493
 6658SOL    HW220874   0.534   6.981   6.831  0.4271 -1.4059 -0.2876
 6659SOL     OW20875   0.662   0.339   2.066 -1.0074 -0.8218 -0.0070
 6659SOL    HW120876   0.761   0.340   2.056 -1.1383  0.5928 -1.6947
 6659SOL    HW220877   0.638   0.315   2.160  1.0563  2.2574  1.4646
 6660SOL     OW20878   6.161   4.925   6.282 -0.0567 -0.4809  0.2013
 6660SOL    HW120879   6.156   4.932   6.182  1.2359 -1.4267  0.0362
 6660SOL    HW220880   6.182   5.015   6.320 -0.3422 -0.1515 -0.4034
 6661SOL     OW20881   4.806   0.780   4.351 -0.1807 -0.1162 -0.3286
 6661SOL    HW120882   4.843   0.870   4.375  1.5298 -0.4543 -1.5925
 6661SOL    HW220883   4.716   0.792   4.308 -1.1228  0.7851  1.7094
 6662SOL     OW20884   6.506   6.161   6.567  0.1228 -0.3428 -0.2343
 6662SOL    HW120885   6.494   6.231   6.497  0.1074  0.1567  0.2626
 6662SOL    HW220886   6.440   6.087   6.552  1.0508 -0.9332 -1.5744
 6663SOL     OW20887   5.742   3.731   2.459  0.3722 -0.2383 -0.5936
 6663SOL    HW120888   5.820   3.766   2.408  1.0133  1.5958  1.5088
 6663SOL    HW220889   5.659   3.781   2.433  0.2752 -0.7783 -1.3452
 6664SOL     OW20890   5.846   2.736   2.083  0.4511 -0.2307 -0.3100
 6664SOL    HW120891   5.783   2.697   2.151  0.3851 -0.0472 -0.2643
 6664SOL    HW220892   5.879   2.825   2.116  1.2513 -0.6229 -0.0309
 6665SOL     OW20893   1.867   1.301   6.035  0.3066  0.0995 -0.6048
 6665SOL    HW120894   1.930   1.225   6.021 -0.4124 -0.6712  0.2021
 6665SOL    HW220895   1.807   1.281   6.112 -0.2620  1.2561 -0.7191
 6666SOL     OW20896   6.226   3.449   1.194 -0.3713  0.5425  0.0280
 6666SOL    HW120897   6.136   3.407   1.206  0.5069 -0.7769  2.9500
 6666SOL    HW220898   6.216   3.548   1.187 -1.9938  0.5614  1.7488
 6667SOL     OW20899   1.845   1.311   0.915 -0.4886  0.0165  0.1748
 6667SOL    HW120900   1.773   1.248   0.947 -1.3247  0.4366 -0.8031
 6667SOL    HW220901   1.810   1.405   0.917  0.5411  0.3995  1.0294
 6668SOL     OW20902   2.042   1.821   6.726 -0.3163 -0.3665 -0.1752
 6668SOL    HW120903   2.070   1.896   6.786  0.4404  0.0890 -1.0529
 6668SOL    HW220904   2.061   1.847   6.631 -1.9047 -0.8732 -0.6584
 6669SOL     OW20905   2.931   3.508   1.705  0.1716 -0.7513  0.0668
 6669SOL    HW120906   3.002   3.497   1.635  0.3495 -1.2983  0.3311
 6669SOL    HW220907   2.967   3.561   1.781  0.3118 -1.0613  0.2181
 6670SOL     OW20908   6.951   0.350   4.395 -0.4251 -0.2164 -0.3543
 6670SOL    HW120909   6.933   0.367   4.298 -1.0370  0.7104 -0.0946
 6670SOL    HW220910   6.970   0.437   4.441  0.1899 -0.6838  0.2966
 6671SOL     OW20911   3.186   5.505   2.150 -0.4539  0.1827 -0.0753
 6671SOL    HW120912   3.175   5.467   2.241 -2.1032 -0.2002 -0.3916
 6671SOL    HW220913   3.138   5.448   2.084  0.1228  0.8326 -1.0885
 6672SOL     OW20914   2.358   4.338   0.329 -0.4957 -0.3387 -0.6144
 6672SOL    HW120915   2.261   4.324   0.348 -0.6549 -0.2898 -1.3568
 6672SOL    HW220916   2.368   4.402   0.253  0.0603 -1.6746 -1.7283
 6673SOL     OW20917   0.839   0.224   4.534  0.1135  0.1030 -0.1524
 6673SOL    HW120918   0.777   0.185   4.465 -1.4326  0.1534  1.1569
 6673SOL    HW220919   0.927   0.176   4.530 -1.5255 -3.3404  1.0394
 6674SOL     OW20920   1.820   5.888   3.630  0.0260 -0.1180  0.2705
 6674SOL    HW120921   1.799   5.794   3.657  0.8562  0.0908  1.7850
 6674SOL    HW220922   1.884   5.887   3.553  0.7634 -0.8291  0.8683
 6675SOL     OW20923   1.853   3.246   0.717 -0.5409 -0.0898  0.0276
 6675SOL    HW120924   1.865   3.340   0.748 -3.6920  0.7785 -1.0397
 6675SOL    HW220925   1.870   3.240   0.619 -2.2461 -0.1403 -0.2963
 6676SOL     OW20926   2.476   1.691   2.663  0.9373  0.2308  0.2760
 6676SOL    HW120927   2.523   1.741   2.590 -1.0522 -0.4308 -1.5647
 6676SOL    HW220928   2.533   1.614   2.693  1.4465 -0.0004 -1.2177
 6677SOL     OW20929   6.315   6.535   5.063  0.2947 -0.3405  0.2553
 6677SOL    HW120930   6.264   6.482   5.131 -0.5378  1.5508  1.1912
 6677SOL    HW220931   6.283   6.511   4.971 -0.6518 -0.8463  0.7010
 6678SOL     OW20932   0.472   1.669   6.760  0.2649  0.4093  0.8409
 6678SOL    HW120933   0.503   1.757   6.797  1.1017  0.2202  0.6104
 6678SOL    HW220934   0.551   1.609   6.747 -0.3220 -0.4640  1.2117
 6679SOL     OW20935   3.587   0.981   5.850 -0.0503 -0.1691 -0.4820
 6679SOL    HW120936   3.684   1.001   5.837 -0.5093  1.5557 -1.5326
 6679SOL    HW220937   3.563   0.993   5.946  0.2853  1.8131 -0.6210
 6680SOL     OW20938   0.848   3.189   3.592 -0.4178  0.0336  0.0600
 6680SOL    HW120939   0.814   3.105   3.548  0.1025  0.0280 -0.3374
 6680SOL    HW220940   0.794   3.267   3.561 -0.8174 -0.1301  0.3273
 6681SOL     OW20941   4.615   5.528   3.913 -0.1274  0.5907 -0.1675
 6681SOL    HW120942   4.592   5.624   3.893 -0.7134  0.4831 -0.0349
 6681SOL    HW220943   4.612   5.475   3.828 -0.3073  0.5915 -0.1622
 6682SOL     OW20944   6.815   1.390   6.010 -0.5408 -0.2911  0.4795
 6682SOL    HW120945   6.784   1.395   5.915 -2.9910 -0.7969  1.1990
 6682SOL    HW220946   6.902   1.341   6.014 -0.4716 -0.4095 -1.4677
 6683SOL     OW20947   6.262   5.502   5.011  0.5343 -0.2587 -0.3065
 6683SOL    HW120948   6.212   5.425   4.971  0.2400 -0.6820  0.8354
 6683SOL    HW220949   6.248   5.502   5.110  0.7568  1.1092 -0.2638
 6684SOL     OW20950   0.977   1.579   2.917  0.5238  0.4173 -0.6619
 6684SOL    HW120951   0.929   1.564   2.830 -0.0394 -1.6142 -0.0705
 6684SOL    HW220952   1.067   1.535   2.913  0.4367  0.1927 -0.1792
 6685SOL     OW20953   1.582   4.426   6.289  0.3035 -0.1082 -0.0716
 6685SOL    HW120954   1.562   4.329   6.302 -0.6392  0.2462  1.4225
 6685SOL    HW220955   1.675   4.446   6.318  0.1379 -0.3812  0.6578
 6686SOL     OW20956   5.407   3.401   2.088 -0.4840  0.1445 -0.4102
 6686SOL    HW120957   5.441   3.357   2.171  1.0404  0.9415 -0.5804
 6686SOL    HW220958   5.439   3.350   2.008 -1.2597 -0.1486 -0.5445
 6687SOL     OW20959   1.925   3.075   6.863  0.2923 -0.1736  0.8664
 6687SOL    HW120960   1.932   3.052   6.765  0.5260  1.0252  0.5849
 6687SOL    HW220961   1.865   3.154   6.874 -0.4683 -0.8685  1.8001
 6688SOL     OW20962   4.060   1.862   0.401 -1.0097  0.2179  0.1322
 6688SOL    HW120963   4.138   1.835   0.458  0.0936 -1.7408 -2.1546
 6688SOL    HW220964   4.047   1.961   0.407  1.3157  0.5340  0.9795
 6689SOL     OW20965   1.276   4.043   0.651 -0.3938  0.0688  0.1017
 6689SOL    HW120966   1.214   3.979   0.606 -0.6978  1.5967 -1.7730
 6689SOL    HW220967   1.358   3.995   0.679 -0.8616 -1.2679 -0.7146
 6690SOL     OW20968   4.973   3.675   6.812  0.1265 -0.1882 -0.4324
 6690SOL    HW120969   5.069   3.699   6.793  0.4468 -1.0641  0.0290
 6690SOL    HW220970   4.958   3.675   6.910 -0.5123  0.5279 -0.5254
 6691SOL     OW20971   6.745   1.392   4.497 -0.6454  0.4084  0.1488
 6691SOL    HW120972   6.770   1.303   4.459  0.4134  1.4321 -1.7157
 6691SOL    HW220973   6.808   1.417   4.570 -0.1309  0.1844 -0.2165
 6692SOL     OW20974   1.358   4.107   5.025 -0.3941  0.1951  0.2680
 6692SOL    HW120975   1.303   4.046   5.083  1.5526  0.0963  2.1435
 6692SOL    HW220976   1.375   4.192   5.074  0.7392  0.3954 -0.4492
 6693SOL     OW20977   1.243   3.650   0.617  0.1332  0.6958  0.1672
 6693SOL    HW120978   1.230   3.629   0.714 -1.0086 -0.8544 -0.2762
 6693SOL    HW220979   1.153   3.664   0.575  0.3181 -1.9715 -1.3216
 6694SOL     OW20980   5.343   4.979   2.835  0.4693  0.0206  0.0399
 6694SOL    HW120981   5.327   5.052   2.902 -0.5093  0.6825 -0.8801
 6694SOL    HW220982   5.273   4.909   2.844  0.5420 -0.0655 -0.0619
 6695SOL     OW20983   1.926   6.485   4.784  0.6667 -0.0845  0.3855
 6695SOL    HW120984   2.023   6.488   4.763  0.3915 -0.6724 -1.0967
 6695SOL    HW220985   1.874   6.521   4.706 -0.2582  1.9131  1.8201
 6696SOL     OW20986   5.015   4.347   6.899 -0.2191 -0.0644 -0.5471
 6696SOL    HW120987   5.113   4.361   6.883 -0.2998 -1.1748 -2.2303
 6696SOL    HW220988   4.969   4.436   6.902  1.0396  0.5854  2.0229
 6697SOL     OW20989   4.538   2.043   0.502  0.0403 -0.3402  0.3432
 6697SOL    HW120990   4.443   2.069   0.520 -0.0520 -1.4570  1.6243
 6697SOL    HW220991   4.589   2.040   0.588  0.9725 -0.7646 -0.2058
 6698SOL     OW20992   2.551   1.229   0.665 -0.1783  0.3920  0.5045
 6698SOL    HW120993   2.564   1.286   0.584  0.8814 -0.7632 -0.1848
 6698SOL    HW220994   2.466   1.177   0.656  0.2956 -0.2743 -0.2313
 6699SOL     OW20995   3.418   3.385   5.386  0.5945 -0.9795 -0.0877
 6699SOL    HW120996   3.450   3.471   5.425  1.8958 -1.4596 -0.0673
 6699SOL    HW220997   3.373   3.402   5.298 -0.1111 -0.1761  0.4144
 6700SOL     OW20998   3.207   6.996   6.838  0.1103  0.1678  0.2397
 6700SOL    HW120999   3.189   7.091   6.864 -2.1086 -0.5049  1.3676
 6700SOL    HW221000   3.165   6.934   6.904  1.2593 -1.6289 -0.6234
 6701SOL     OW21001   6.218   2.815   6.613  0.5335 -0.4190  0.7680
 6701SOL    HW121002   6.138   2.870   6.638  0.6486 -0.0766  0.3853
 6701SOL    HW221003   6.230   2.817   6.514  2.2793  1.3033  0.9554
 6702SOL     OW21004   1.106   3.392   0.080 -0.3485  0.1420 -0.6183
 6702SOL    HW121005   1.150   3.405  -0.009  1.2556  1.1657  0.2718
 6702SOL    HW221006   1.091   3.295   0.097  2.6515 -0.3956 -0.5317
 6703SOL     OW21007   3.606   5.222   2.087 -0.2552 -0.1613 -0.2603
 6703SOL    HW121008   3.652   5.136   2.106  0.4883  0.0665 -0.9813
 6703SOL    HW221009   3.584   5.268   2.173  2.1813  0.4167  0.1313
 6704SOL     OW21010   6.197   2.713   5.662 -0.4968 -0.2563  0.7104
 6704SOL    HW121011   6.226   2.696   5.567  1.0980 -0.9120  1.2695
 6704SOL    HW221012   6.098   2.703   5.669 -0.5238 -1.3051 -0.6818
 6705SOL     OW21013   6.373   5.369   3.083  0.2914 -0.4546  0.4533
 6705SOL    HW121014   6.315   5.299   3.040 -1.3907  0.7084  0.7318
 6705SOL    HW221015   6.353   5.372   3.181 -2.4266  2.8185 -0.0420
 6706SOL     OW21016   6.466   7.013   2.027 -0.3176 -0.3004 -0.1381
 6706SOL    HW121017   6.449   7.040   2.122 -0.5600  0.0997 -0.2968
 6706SOL    HW221018   6.383   6.974   1.988 -0.7687  1.2312 -0.7677
 6707SOL     OW21019   2.677   4.746   5.259  0.7734  0.1399 -0.4160
 6707SOL    HW121020   2.738   4.707   5.190 -0.4322  0.7161 -1.8390
 6707SOL    HW221021   2.655   4.841   5.235 -0.6339 -0.0369  0.0913
 6708SOL     OW21022   6.313   6.904   3.256 -0.7609 -0.3452  0.0191
 6708SOL    HW121023   6.242   6.922   3.324 -1.2205  0.2296 -0.6012
 6708SOL    HW221024   6.306   6.970   3.182 -2.1164 -2.6835 -2.0714
 6709SOL     OW21025   2.692   5.810   1.881 -0.3547 -0.2312  0.1666
 6709SOL    HW121026   2.725   5.744   1.814 -2.2257 -2.9271  1.7115
 6709SOL    HW221027   2.593   5.819   1.873 -0.2964  1.4085  0.8998
 6710SOL     OW21028   3.186   3.129   3.972 -0.5438 -0.4320  0.2322
 6710SOL    HW121029   3.243   3.207   3.948 -2.3008  0.7885 -0.1795
 6710SOL    HW221030   3.226   3.081   4.050  1.0765  0.2889 -0.1177
 6711SOL     OW21031   0.547   3.009   3.583 -0.0529 -0.2012 -0.3269
 6711SOL    HW121032   0.498   3.079   3.532  0.2062 -0.3344 -0.7614
 6711SOL    HW221033   0.565   2.930   3.523  2.7408  0.7655 -0.9101
 6712SOL     OW21034   5.119   4.300   3.992 -0.4647 -0.1271 -0.0387
 6712SOL    HW121035   5.216   4.306   3.969 -0.6811 -0.6219 -1.1580
 6712SOL    HW221036   5.077   4.227   3.938 -2.3695  2.8390 -2.8655
 6713SOL     OW21037   0.957   5.047   2.113 -0.1189 -0.2294 -0.5617
 6713SOL    HW121038   0.958   5.010   2.206  0.1382  1.0356 -0.0464
 6713SOL    HW221039   0.885   5.001   2.060 -0.4583 -0.7589  0.3385
 6714SOL     OW21040   4.081   6.324   1.058  0.2733 -0.4907 -0.0423
 6714SOL    HW121041   4.158   6.265   1.082 -1.3542 -2.1871  1.2562
 6714SOL    HW221042   4.010   6.318   1.128 -0.7803  1.5697 -0.8359
 6715SOL     OW21043   0.853   4.294   3.490 -0.2444  0.6717  0.2421
 6715SOL    HW121044   0.828   4.240   3.570  0.1222 -0.1408 -0.1899
 6715SOL    HW221045   0.830   4.244   3.407 -0.9239  1.6416 -0.1781
 6716SOL     OW21046   2.199   5.272   2.250 -0.4222  0.1669  0.2621
 6716SOL    HW121047   2.278   5.275   2.189 -1.1855 -1.3186 -0.8669
 6716SOL    HW221048   2.212   5.337   2.324  0.5153  2.1107 -1.5120
 6717SOL     OW21049   3.378   5.225   6.514 -0.6030 -0.0447 -0.5226
 6717SOL    HW121050   3.449   5.278   6.468 -0.7867  0.1475 -0.5868
 6717SOL    HW221051   3.309   5.287   6.552 -0.0112 -0.1520  0.7598
 6718SOL     OW21052   1.979   1.752   2.424  0.3645  0.3330 -0.3893
 6718SOL    HW121053   2.034   1.711   2.497  0.9434  0.6559 -0.6443
 6718SOL    HW221054   2.001   1.849   2.415  2.6173 -0.3239 -3.0752
 6719SOL     OW21055   0.318   6.370   2.030  0.0559 -0.4783  0.2250
 6719SOL    HW121056   0.298   6.382   2.127 -0.3952  0.2228  0.0576
 6719SOL    HW221057   0.413   6.397   2.012 -0.3115  0.9081  0.2270
 6720SOL     OW21058   3.953   6.487   3.769 -0.1315 -0.3922  0.2647
 6720SOL    HW121059   4.049   6.475   3.794 -0.8769 -3.0585  2.2622
 6720SOL    HW221060   3.942   6.473   3.671  1.3883 -0.8352  0.1299
 6721SOL     OW21061   6.154   1.297   4.151 -0.3347 -0.1943 -0.2331
 6721SOL    HW121062   6.152   1.372   4.084  6.0152  0.9976  0.2343
 6721SOL    HW221063   6.190   1.215   4.108 -1.3618 -1.1169  0.6191
 6722SOL     OW21064   0.903   4.572   2.417  0.7237  0.2295  0.0938
 6722SOL    HW121065   0.920   4.639   2.489  2.1761  0.4679 -0.4443
 6722SOL    HW221066   0.826   4.603   2.360 -1.5273 -0.7276  2.4024
 6723SOL     OW21067   5.327   0.216   3.244 -0.7062 -0.1383  0.1186
 6723SOL    HW121068   5.370   0.285   3.303 -2.5882 -0.2914  1.8026
 6723SOL    HW221069   5.249   0.257   3.196 -0.2962 -0.4848 -0.8651
 6724SOL     OW21070   1.643   1.790   6.732  0.5031  1.2608  0.2230
 6724SOL    HW121071   1.725   1.787   6.790  0.9838 -2.4734 -0.3827
 6724SOL    HW221072   1.575   1.727   6.768  0.1093  0.1919 -2.2047
 6725SOL     OW21073   6.798   4.927   2.802  0.1261 -0.4344 -0.1842
 6725SOL    HW121074   6.875   4.984   2.833 -1.8358  1.8948  0.7414
 6725SOL    HW221075   6.826   4.831   2.801  2.3471  0.0592  2.3846
 6726SOL     OW21076   2.856   6.072   4.908  0.3814 -0.3480  0.4682
 6726SOL    HW121077   2.801   6.000   4.865  0.6325  1.0086 -2.3802
 6726SOL    HW221078   2.838   6.159   4.862  1.8666  0.9611  2.2200
 6727SOL     OW21079   0.007   1.814   2.303  0.2488  0.5009 -0.5414
 6727SOL    HW121080   0.017   1.764   2.216  0.1597  0.1564 -0.3553
 6727SOL    HW221081   0.036   1.909   2.290  0.0518  0.5004 -0.9970
 6728SOL     OW21082   1.685   4.990   6.217  0.5989 -0.0374 -0.5288
 6728SOL    HW121083   1.780   5.003   6.245  0.3213  1.6264 -0.2634
 6728SOL    HW221084   1.646   5.078   6.189 -0.4823 -0.9153 -1.8830
 6729SOL     OW21085   1.882   3.277   6.332  0.8283 -0.3334 -0.6093
 6729SOL    HW121086   1.913   3.336   6.257 -1.8044 -1.5443 -2.8436
 6729SOL    HW221087   1.805   3.321   6.379  1.0117 -0.5625 -0.0873
 6730SOL     OW21088   0.772   1.753   6.317  0.1493 -0.0561  0.4863
 6730SOL    HW121089   0.762   1.841   6.270  0.9200  0.9152  2.0473
 6730SOL    HW221090   0.691   1.698   6.301 -0.5888  1.1485 -0.1073
 6731SOL     OW21091   4.476   6.618   2.015 -0.2357 -0.5768  0.0260
 6731SOL    HW121092   4.564   6.627   1.968  0.6091  0.0581  1.6695
 6731SOL    HW221093   4.456   6.703   2.064 -1.1325 -1.1998  0.7576
 6732SOL     OW21094   5.695   0.546   1.801 -0.0169 -0.1590  0.3969
 6732SOL    HW121095   5.691   0.489   1.883  2.8693 -1.2448 -0.0838
 6732SOL    HW221096   5.610   0.537   1.749 -1.2160 -0.7975  2.3710
 6733SOL     OW21097   3.931   2.762   0.802 -0.3711 -0.2327  0.5942
 6733SOL    HW121098   3.888   2.672   0.792 -0.7286 -0.0212  0.1434
 6733SOL    HW221099   3.965   2.792   0.713  0.9802 -0.5165  0.9984
 6734SOL     OW21100   3.683   3.140   3.276 -0.3666 -0.5350  0.3086
 6734SOL    HW121101   3.590   3.176   3.281  0.5567  2.2502 -0.7872
 6734SOL    HW221102   3.719   3.151   3.184  2.0630  1.3800  1.3609
 6735SOL     OW21103   0.114   5.964   0.697  0.0272 -0.6761  0.0266
 6735SOL    HW121104   0.019   5.957   0.726 -0.3656 -1.0492 -1.2863
 6735SOL    HW221105   0.134   6.060   0.675 -0.8462 -0.9479 -2.1824
 6736SOL     OW21106   5.885   4.077   0.012 -0.3877  0.3881 -0.6915
 6736SOL    HW121107   5.893   4.100  -0.085 -1.6535  1.4279 -0.5778
 6736SOL    HW221108   5.798   4.030   0.028 -1.6939  2.9624  0.3757
 6737SOL     OW21109   5.284   4.369   4.388  0.9284  0.0178  0.3798
 6737SOL    HW121110   5.271   4.461   4.350  1.9345  0.6298  1.4556
 6737SOL    HW221111   5.362   4.326   4.344  0.5470 -0.2758 -0.0190
 6738SOL     OW21112   0.578   5.759   4.930  0.6575  0.5175 -0.4160
 6738SOL    HW121113   0.546   5.809   4.850  0.9615 -0.1222 -0.9452
 6738SOL    HW221114   0.557   5.661   4.919  0.3924  0.4651  0.4386
 6739SOL     OW21115   1.461   5.428   0.109  0.6910 -0.3976 -0.0345
 6739SOL    HW121116   1.363   5.435   0.131  0.2076  2.5760 -2.4296
 6739SOL    HW221117   1.514   5.473   0.181  0.5089 -2.7808  1.7287
 6740SOL     OW21118   4.450   1.211   4.760  0.1347 -0.3587  1.0356
 6740SOL    HW121119   4.360   1.167   4.770  0.4090 -1.8699 -1.8985
 6740SOL    HW221120   4.440   1.310   4.767 -1.8646 -0.4662  0.3206
 6741SOL     OW21121   3.486   2.474   1.721  0.3506  0.6251  0.3950
 6741SOL    HW121122   3.535   2.398   1.765 -0.3015  0.6835  1.2462
 6741SOL    HW221123   3.505   2.559   1.771 -0.1632  0.7438  0.3875
 6742SOL     OW21124   3.995   5.208   4.163 -0.3842 -0.3559 -0.3107
 6742SOL    HW121125   3.963   5.166   4.079 -1.7281 -0.4761  0.2340
 6742SOL    HW221126   3.999   5.138   4.235 -0.0643 -0.0786 -0.0553
 6743SOL     OW21127   4.727   2.268   1.996 -0.0172 -0.2314  0.4371
 6743SOL    HW121128   4.638   2.301   2.027  0.5276  1.6198  0.1562
 6743SOL    HW221129   4.720   2.234   1.903 -0.3980  0.0513  0.3619
 6744SOL     OW21130   5.892   1.455   4.824  0.3137 -0.1882 -0.0546
 6744SOL    HW121131   5.896   1.479   4.727 -2.0701 -1.5277 -0.5398
 6744SOL    HW221132   5.917   1.359   4.835 -0.5596 -0.3619  0.4904
 6745SOL     OW21133   5.517   5.488   1.753  0.3857 -0.4149 -0.5933
 6745SOL    HW121134   5.569   5.545   1.817  1.4655  0.9140 -2.5491
 6745SOL    HW221135   5.439   5.540   1.718  0.0133 -0.9890 -0.6195
 6746SOL     OW21136   1.389   4.979   3.806 -0.3128 -0.0581  0.2349
 6746SOL    HW121137   1.459   5.050   3.803 -0.4364  0.0670  0.3220
 6746SOL    HW221138   1.420   4.899   3.753 -1.1475  0.9278 -1.8510
 6747SOL     OW21139   4.144   4.694   1.635 -0.2076  0.3178 -0.2064
 6747SOL    HW121140   4.183   4.786   1.624  1.6449 -0.5364 -1.2301
 6747SOL    HW221141   4.142   4.648   1.547 -2.2305 -0.2561  0.0853
 6748SOL     OW21142   2.534   2.070   6.980 -0.2926  0.4234 -0.1181
 6748SOL    HW121143   2.526   2.090   7.078  0.3572  1.2985 -0.2284
 6748SOL    HW221144   2.549   1.972   6.967 -0.3550  0.3009  0.6585
 6749SOL     OW21145   3.315   6.262   6.732 -0.1806 -0.2394 -0.6276
 6749SOL    HW121146   3.391   6.267   6.796 -0.3033  1.1554 -0.5720
 6749SOL    HW221147   3.349   6.268   6.638 -0.0658 -1.5917 -0.6965
 6750SOL     OW21148   0.535   1.519   2.221  0.6568 -0.6033 -0.0654
 6750SOL    HW121149   0.504   1.437   2.268 -0.2528  0.3021  0.9922
 6750SOL    HW221150   0.633   1.532   2.235  0.2788  0.0824  2.3846
 6751SOL     OW21151   0.138   2.131   4.033 -0.3179 -0.5260 -0.0475
 6751SOL    HW121152   0.228   2.100   4.001 -0.5716 -0.4054 -0.8978
 6751SOL    HW221153   0.146   2.223   4.071 -0.2723 -0.0561 -1.1563
 6752SOL     OW21154   2.827   5.299   2.295  0.0316 -0.3333  0.2457
 6752SOL    HW121155   2.883   5.226   2.334  0.4267  0.1560  0.6304
 6752SOL    HW221156   2.871   5.387   2.315 -1.4902  0.1597  1.6099
 6753SOL     OW21157   5.645   5.504   4.727 -0.8308  0.2209 -0.4445
 6753SOL    HW121158   5.630   5.575   4.658  0.9315  2.1554  1.0208
 6753SOL    HW221159   5.731   5.456   4.707 -0.1842  0.9562  0.4721
 6754SOL     OW21160   5.509   6.845   4.445  0.1639 -0.7721 -0.2602
 6754SOL    HW121161   5.466   6.838   4.535  0.4549  0.7193  0.0148
 6754SOL    HW221162   5.595   6.896   4.453 -1.6416  2.8777 -1.9056
 6755SOL     OW21163   1.989   1.538   1.243 -0.0996  0.1953 -0.4625
 6755SOL    HW121164   1.938   1.528   1.158  0.8572 -2.7517 -0.8156
 6755SOL    HW221165   1.935   1.500   1.319 -1.0954  3.1105  0.4140
 6756SOL     OW21166   2.525   2.836   0.543 -0.7274 -0.6518  0.5910
 6756SOL    HW121167   2.525   2.778   0.462  0.4527  1.9986 -1.4789
 6756SOL    HW221168   2.435   2.879   0.553 -0.4573  0.1700 -0.2897
 6757SOL     OW21169   2.450   6.043   4.272  0.7108  0.6532 -0.5018
 6757SOL    HW121170   2.543   6.034   4.308  0.0218  1.2205  1.5430
 6757SOL    HW221171   2.448   6.013   4.177  2.1880 -3.1248  0.4861
 6758SOL     OW21172   4.829   2.881   7.001 -0.4688  0.4711  0.0327
 6758SOL    HW121173   4.904   2.861   7.065  1.0016  2.6955 -0.8684
 6758SOL    HW221174   4.850   2.842   6.912 -0.5053  0.8356 -0.1392
 6759SOL     OW21175   3.772   1.729   5.915 -0.3011 -0.2841  0.4795
 6759SOL    HW121176   3.831   1.649   5.906  1.3902  0.7973  1.4463
 6759SOL    HW221177   3.792   1.793   5.840 -0.2845  0.0535  0.7691
 6760SOL     OW21178   5.824   5.015   3.642 -0.3976  0.0452  0.0132
 6760SOL    HW121179   5.858   4.934   3.595 -1.4342  0.7305 -2.0517
 6760SOL    HW221180   5.901   5.063   3.684  0.6475 -0.4929 -1.1856
 6761SOL     OW21181   2.551   6.945   6.803 -0.5553 -0.1085  0.1213
 6761SOL    HW121182   2.601   7.028   6.826  1.2310 -0.9373 -0.5448
 6761SOL    HW221183   2.530   6.944   6.705 -0.3966 -0.4991  0.0856
 6762SOL     OW21184   2.380   1.614   2.294  0.0859  0.1311  0.2060
 6762SOL    HW121185   2.287   1.602   2.258 -0.0066  0.3749  0.3598
 6762SOL    HW221186   2.444   1.564   2.237  0.3088  2.6783 -1.9546
 6763SOL     OW21187   3.725   3.889   6.745 -0.1298  0.4037 -0.4064
 6763SOL    HW121188   3.819   3.859   6.761  0.0733  1.5239  0.5768
 6763SOL    HW221189   3.689   3.932   6.827 -1.1703  0.8764 -1.0901
 6764SOL     OW21190   1.524   6.735   6.713 -0.4626 -0.1804 -0.1465
 6764SOL    HW121191   1.524   6.792   6.795  0.7218  0.5895 -0.6583
 6764SOL    HW221192   1.586   6.658   6.725 -1.2025 -0.7473  0.1170
 6765SOL     OW21193   1.024   4.904   0.517 -0.1890  0.1968  0.1042
 6765SOL    HW121194   1.003   4.898   0.614  0.2338  0.6168  0.2237
 6765SOL    HW221195   1.105   4.849   0.496  0.7782  1.5015  0.3184
 6766SOL     OW21196   1.383   1.967   3.967 -0.5925 -0.0858  0.1546
 6766SOL    HW121197   1.335   1.996   3.884 -0.9645  0.3868  0.5273
 6766SOL    HW221198   1.324   1.980   4.046  0.4862  1.5153  0.7613
 6767SOL     OW21199   4.659   5.787   3.779  0.6459 -0.2537  0.4761
 6767SOL    HW121200   4.744   5.840   3.768 -0.6151  1.9320  0.8067
 6767SOL    HW221201   4.593   5.840   3.831 -0.9218 -1.9637  0.3195
 6768SOL     OW21202   3.486   2.739   6.480 -0.2616 -0.2762  0.0359
 6768SOL    HW121203   3.494   2.724   6.578  2.4005  0.0226 -0.0749
 6768SOL    HW221204   3.492   2.837   6.461  2.3671 -0.4786 -0.5637
 6769SOL     OW21205   2.029   5.466   6.669  0.3094  0.5048  0.3321
 6769SOL    HW121206   2.012   5.473   6.767 -0.6102 -1.6574  0.3900
 6769SOL    HW221207   2.125   5.443   6.653  1.3830  4.3482  0.4642
 6770SOL     OW21208   3.429   2.008   6.996  0.4674 -0.1564 -0.4236
 6770SOL    HW121209   3.351   1.961   6.956 -0.8694  1.0500  0.6544
 6770SOL    HW221210   3.510   1.950   6.991 -0.3772 -1.2680 -1.9595
 6771SOL     OW21211   3.095   6.878   3.663  0.3755  0.4663 -0.0318
 6771SOL    HW121212   3.005   6.867   3.704  0.0390 -2.7445 -1.3480
 6771SOL    HW221213   3.150   6.796   3.679  2.2765  1.4284 -1.1845
 6772SOL     OW21214   3.645   3.646   4.050  0.1667  0.0649 -0.4246
 6772SOL    HW121215   3.718   3.702   4.011  0.0179 -1.2835 -2.7961
 6772SOL    HW221216   3.684   3.564   4.091  0.1589  0.6171  0.7415
 6773SOL     OW21217   0.503   3.356   0.336  0.5346  0.4154  0.6148
 6773SOL    HW121218   0.528   3.368   0.432  0.1451 -0.3692  0.8244
 6773SOL    HW221219   0.528   3.264   0.306  1.3679  0.9152 -0.2698
 6774SOL     OW21220   3.067   0.776   1.785  0.1012 -0.2410 -0.7548
 6774SOL    HW121221   2.972   0.784   1.754 -0.1434 -1.2629 -0.3289
 6774SOL    HW221222   3.112   0.865   1.778 -0.7536  0.1620 -1.3859
 6775SOL     OW21223   0.527   1.422   3.871  0.3870 -0.2880  0.1020
 6775SOL    HW121224   0.552   1.382   3.959 -0.1960  0.3333  0.5606
 6775SOL    HW221225   0.467   1.359   3.821 -2.5827  0.9011  1.8763
 6776SOL     OW21226   3.193   5.132   0.537 -0.6078 -0.1459  0.0337
 6776SOL    HW121227   3.168   5.173   0.625  0.4225  1.3194 -0.3188
 6776SOL    HW221228   3.135   5.052   0.520 -1.7649  0.3576  1.3869
 6777SOL     OW21229   1.401   3.818   3.833 -0.5475 -0.3494  0.0533
 6777SOL    HW121230   1.455   3.901   3.818  0.1631 -0.7775  0.2108
 6777SOL    HW221231   1.373   3.814   3.929 -1.3163  0.1315 -0.1360
 6778SOL     OW21232   3.799   1.629   1.612  0.6725  0.1339  0.1480
 6778SOL    HW121233   3.862   1.699   1.580  2.7754 -0.5144  2.5457
 6778SOL    HW221234   3.843   1.540   1.608  0.3881 -0.2151  2.8177
 6779SOL     OW21235   1.572   1.632   1.359  0.0970 -0.1780  0.3640
 6779SOL    HW121236   1.570   1.732   1.366  0.2922 -0.2562  2.1974
 6779SOL    HW221237   1.655   1.598   1.404  0.4753 -1.1325 -1.0179
 6780SOL     OW21238   2.137   5.957   3.106  0.4280 -0.2053  0.0997
 6780SOL    HW121239   2.097   5.900   3.178 -0.1089  1.0683  0.8466
 6780SOL    HW221240   2.069   6.024   3.076  0.4286 -1.0606 -2.0385
 6781SOL     OW21241   1.418   3.937   5.685  0.4741  0.6637 -0.3225
 6781SOL    HW121242   1.378   4.021   5.723  1.5323  0.2058  1.9358
 6781SOL    HW221243   1.511   3.955   5.653  0.1993  0.6393 -1.1814
 6782SOL     OW21244   0.350   2.991   3.872 -0.5756  0.1620 -0.2404
 6782SOL    HW121245   0.309   3.022   3.958  1.8851 -1.5395  1.7233
 6782SOL    HW221246   0.385   3.069   3.820 -2.3704  1.2490  0.1340
 6783SOL     OW21247   2.085   0.031   1.775 -0.2794 -0.3879  0.0192
 6783SOL    HW121248   2.090  -0.012   1.865 -1.4661 -1.7246 -0.5104
 6783SOL    HW221249   2.003  -0.001   1.727  0.5723 -0.0750 -1.7330
 6784SOL     OW21250   4.241   1.305   3.405 -0.8078  0.2729  0.5510
 6784SOL    HW121251   4.242   1.307   3.305 -2.1172  3.5068  0.4917
 6784SOL    HW221252   4.156   1.262   3.437 -0.0589 -1.4388  0.3587
 6785SOL     OW21253   2.277   0.561   3.986  0.2953  0.0924  0.3026
 6785SOL    HW121254   2.297   0.574   4.084  0.8599 -1.7087  0.4592
 6785SOL    HW221255   2.248   0.467   3.970 -2.1074  0.9512 -0.9430
 6786SOL     OW21256   4.744   0.396   6.325  0.1355  0.2786  0.1471
 6786SOL    HW121257   4.761   0.475   6.266 -0.8266 -0.3631 -1.0295
 6786SOL    HW221258   4.679   0.335   6.281 -0.9651 -0.0186  2.0644
 6787SOL     OW21259   5.163   6.192   6.246 -0.3105 -0.5572  0.0800
 6787SOL    HW121260   5.179   6.254   6.169  0.4290  0.2072  0.8227
 6787SOL    HW221261   5.247   6.142   6.265  0.1428  0.6923  1.6020
 6788SOL     OW21262   1.999   4.777   0.760  0.2741  0.3097  0.0833
 6788SOL    HW121263   2.094   4.809   0.757  0.0683  0.8928 -0.3340
 6788SOL    HW221264   1.982   4.733   0.848  1.5213 -1.6661 -0.5854
 6789SOL     OW21265   1.679   2.385   1.938 -0.4317  0.2796 -0.1536
 6789SOL    HW121266   1.646   2.406   1.846 -0.2901  1.4349  0.0339
 6789SOL    HW221267   1.639   2.451   2.003 -1.9854 -1.6142  0.9192
 6790SOL     OW21268   5.195   3.019   3.248 -0.0239  0.0973  0.3666
 6790SOL    HW121269   5.287   3.009   3.284 -0.5394  1.1820  2.1552
 6790SOL    HW221270   5.185   2.966   3.164  1.9201 -0.8147  0.6644
 6791SOL     OW21271   1.523   1.287   3.523  0.3073  0.0184  0.1559
 6791SOL    HW121272   1.515   1.344   3.605 -0.4299  0.6418 -0.3321
 6791SOL    HW221273   1.537   1.192   3.550  0.6429  0.2969  0.9980
 6792SOL     OW21274   3.455   5.112   2.606 -0.0306  0.5399 -0.0278
 6792SOL    HW121275   3.436   5.209   2.615 -0.1145  0.4296  1.3604
 6792SOL    HW221276   3.511   5.095   2.526  0.6362  1.8349  0.1507
 6793SOL     OW21277   1.979   4.347   2.388  0.1212 -0.0239  0.5560
 6793SOL    HW121278   2.057   4.404   2.364 -0.1369  0.0024 -0.2338
 6793SOL    HW221279   1.972   4.341   2.488  2.5827 -1.9989  0.7298
 6794SOL     OW21280   0.229   1.994   2.035  0.4865 -0.6721 -0.1019
 6794SOL    HW121281   0.177   2.078   2.054 -0.3723 -0.6963 -2.1548
 6794SOL    HW221282   0.317   2.000   2.081  0.3664  1.2704 -0.0032
 6795SOL     OW21283   6.273   2.801   0.691  0.0495 -0.1607 -0.1694
 6795SOL    HW121284   6.304   2.849   0.609 -0.3278 -1.0845 -0.8707
 6795SOL    HW221285   6.233   2.713   0.665 -0.6134 -0.2114  0.9552
 6796SOL     OW21286   2.236   3.822   6.480  0.2260  0.0075 -0.3368
 6796SOL    HW121287   2.210   3.810   6.384  1.2978 -1.6159 -0.4791
 6796SOL    HW221288   2.298   3.747   6.507  0.2780  0.6610  1.5046
 6797SOL     OW21289   6.593   0.288   1.124 -0.0824 -0.4073  0.0148
 6797SOL    HW121290   6.687   0.318   1.111 -0.6763  1.0614 -1.2211
 6797SOL    HW221291   6.586   0.190   1.108  0.8982 -0.1957 -1.9347
 6798SOL     OW21292   2.992   5.568   2.719 -0.2587  0.2950  0.2937
 6798SOL    HW121293   2.958   5.571   2.813 -0.3844  0.5296  0.2418
 6798SOL    HW221294   2.983   5.659   2.677  1.8876  0.7774  0.7825
 6799SOL     OW21295   5.869   1.815   0.416 -0.4229 -0.3459 -0.3834
 6799SOL    HW121296   5.781   1.781   0.382 -0.1109  0.4744 -2.1297
 6799SOL    HW221297   5.856   1.905   0.458 -0.4157 -0.2207 -0.6491
 6800SOL     OW21298   6.925   0.402   1.094  0.1191 -0.4070  0.0122
 6800SOL    HW121299   6.969   0.317   1.123  1.3362 -0.6154 -2.2836
 6800SOL    HW221300   6.930   0.411   0.995 -2.2275  1.1546 -0.0479
 6801SOL     OW21301   1.451   6.427   2.438 -0.2605  0.2965  0.0678
 6801SOL    HW121302   1.411   6.458   2.524 -0.1084 -0.9944  0.6294
 6801SOL    HW221303   1.421   6.333   2.419 -0.8322  0.7843 -1.6468
 6802SOL     OW21304   6.619   6.693   6.445  0.0686 -0.1215  0.5072
 6802SOL    HW121305   6.681   6.766   6.472 -0.2083  0.0376  0.7307
 6802SOL    HW221306   6.556   6.673   6.521 -1.6230  1.2750 -0.4691
 6803SOL     OW21307   3.588   5.899   1.875 -0.0671  0.3300 -0.4812
 6803SOL    HW121308   3.531   5.896   1.957  1.5431 -2.7827  0.7400
 6803SOL    HW221309   3.532   5.888   1.794 -1.3783 -1.0316  0.5614
 6804SOL     OW21310   2.042   5.053   3.826  0.0202  0.6949  0.0882
 6804SOL    HW121311   2.089   5.065   3.739  0.1857  1.4662  0.2817
 6804SOL    HW221312   2.104   5.073   3.901  0.0170 -0.4272  0.4083
 6805SOL     OW21313   5.875   3.872   1.801 -0.4316 -0.1199 -0.1471
 6805SOL    HW121314   5.933   3.906   1.875  1.1902 -3.2786  0.1956
 6805SOL    HW221315   5.789   3.923   1.800 -0.3130  0.4130  3.5475
 6806SOL     OW21316   0.592   2.511   6.621  0.1169 -0.7862 -0.1408
 6806SOL    HW121317   0.501   2.475   6.641  0.0698 -1.2232 -1.0942
 6806SOL    HW221318   0.660   2.462   6.676 -0.0452 -1.7401 -0.7676
 6807SOL     OW21319   3.394   1.878   2.696  0.5253  0.3020  0.1828
 6807SOL    HW121320   3.388   1.870   2.597 -1.3452 -1.0916  0.3706
 6807SOL    HW221321   3.467   1.818   2.730  0.1817 -0.3677 -0.2375
 6808SOL     OW21322   1.335   1.551   3.547 -0.5745 -0.1408  0.1930
 6808SOL    HW121323   1.235   1.558   3.551 -0.4696  1.0454  1.6204
 6808SOL    HW221324   1.367   1.492   3.622 -0.0863  1.4920  1.3228
 6809SOL     OW21325   3.657   5.086   4.840 -0.1197 -0.0257 -0.2301
 6809SOL    HW121326   3.718   5.088   4.919  0.6531 -0.9578 -0.7774
 6809SOL    HW221327   3.658   5.175   4.794 -1.8325  1.0714  1.6961
 6810SOL     OW21328   5.221   6.584   5.255 -0.4146  0.1502 -0.1077
 6810SOL    HW121329   5.171   6.660   5.296  2.3216  1.0206  1.8462
 6810SOL    HW221330   5.304   6.618   5.210 -0.3256 -1.4694 -1.2688
 6811SOL     OW21331   4.612   3.175   5.421 -0.3568 -0.0906 -0.4751
 6811SOL    HW121332   4.698   3.181   5.371 -0.6865 -0.7564 -1.1380
 6811SOL    HW221333   4.574   3.267   5.434 -1.0100  0.0148 -2.7775
 6812SOL     OW21334   6.652   2.986   0.508  0.0564  0.4888  0.2274
 6812SOL    HW121335   6.667   3.079   0.543 -0.6525  0.0511  1.7832
 6812SOL    HW221336   6.641   2.923   0.585  0.2265 -0.8440 -0.8107
 6813SOL     OW21337   6.093   1.337   6.315 -0.0380  0.2670  0.4169
 6813SOL    HW121338   6.016   1.401   6.323 -1.2629 -1.1233  0.0842
 6813SOL    HW221339   6.080   1.279   6.234 -1.3387 -3.3986  2.9936
 6814SOL     OW21340   3.358   5.153   0.989 -0.3685 -0.0631 -0.0924
 6814SOL    HW121341   3.449   5.162   1.029 -0.4455  0.1026  0.0483
 6814SOL    HW221342   3.365   5.152   0.889 -0.1478 -0.7660 -0.0749
 6815SOL     OW21343   3.218   1.060   1.683 -0.1242 -0.5096 -0.5152
 6815SOL    HW121344   3.279   0.987   1.716 -2.5737 -3.2608 -1.5958
 6815SOL    HW221345   3.183   1.111   1.761  0.0876 -1.8392  0.4892
 6816SOL     OW21346   6.286   3.648   1.969  0.0767  0.0839  0.3755
 6816SOL    HW121347   6.323   3.734   1.934  0.9364 -0.1949  0.5764
 6816SOL    HW221348   6.310   3.574   1.906 -0.8910  0.0140  0.0600
 6817SOL     OW21349   3.311   3.373   2.995  0.6325 -0.4718  0.2051
 6817SOL    HW121350   3.221   3.336   2.973  0.0518  0.8819  0.1904
 6817SOL    HW221351   3.305   3.473   3.003  2.6905  0.0594 -2.8282
 6818SOL     OW21352   6.099   6.924   0.899  0.3057  0.0249 -0.3636
 6818SOL    HW121353   6.093   7.004   0.960 -1.3303  0.3905 -0.9729
 6818SOL    HW221354   6.103   6.955   0.804  0.4603 -0.6165 -0.5707
 6819SOL     OW21355   1.264   5.750   0.180  0.4953  0.2379  0.0944
 6819SOL    HW121356   1.346   5.808   0.181 -1.3241  3.1356 -2.3423
 6819SOL    HW221357   1.218   5.757   0.269 -0.4432  3.9818 -0.5162
 6820SOL     OW21358   3.290   4.944   4.071  0.0181 -0.0748 -0.1621
 6820SOL    HW121359   3.336   4.915   3.987  0.2706  0.5154 -0.2316
 6820SOL    HW221360   3.346   4.918   4.150  0.0710 -0.1036 -0.2088
 6821SOL     OW21361   6.681   4.477   0.685 -0.9082  0.8631  0.2919
 6821SOL    HW121362   6.774   4.470   0.719 -0.7377  1.5252 -0.0298
 6821SOL    HW221363   6.660   4.572   0.664 -1.7180  0.7485  0.5270
 6822SOL     OW21364   4.060   2.463   1.015 -0.2178  0.0275  0.4075
 6822SOL    HW121365   4.096   2.544   1.061 -0.3637 -0.2830  1.0791
 6822SOL    HW221366   3.970   2.485   0.976  1.2913  1.2869 -2.6829
 6823SOL     OW21367   1.056   2.869   0.940  0.4890 -0.2370  0.0521
 6823SOL    HW121368   1.100   2.877   1.029 -0.6041  0.4531  0.5501
 6823SOL    HW221369   0.991   2.944   0.928 -1.4233 -1.8466 -0.1443
 6824SOL     OW21370   1.465   0.356   3.819 -0.0340 -0.6383  0.4898
 6824SOL    HW121371   1.503   0.285   3.760 -1.0640  0.3236 -1.4704
 6824SOL    HW221372   1.428   0.430   3.761 -1.1200  0.3632  2.3713
 6825SOL     OW21373   4.305   4.714   3.353 -0.1879  0.4776 -0.2058
 6825SOL    HW121374   4.331   4.640   3.291  2.6878  0.6700  0.6078
 6825SOL    HW221375   4.301   4.800   3.302  0.6436  0.3945 -0.4291
 6826SOL     OW21376   6.166   6.898   2.271 -0.0665  0.3176 -0.3849
 6826SOL    HW121377   6.100   6.973   2.276 -0.6660 -0.2041 -0.2794
 6826SOL    HW221378   6.256   6.934   2.249 -0.3232  1.0798 -0.2131
 6827SOL     OW21379   4.771   6.871   5.191 -0.4314 -0.3527  0.0321
 6827SOL    HW121380   4.851   6.822   5.156  0.6539 -0.7374  2.7603
 6827SOL    HW221381   4.696   6.805   5.206 -0.2060 -0.5554  0.2917
 6828SOL     OW21382   2.447   1.664   4.650 -0.3091 -0.4272 -0.1693
 6828SOL    HW121383   2.430   1.583   4.705 -0.7630  0.7617  1.5387
 6828SOL    HW221384   2.434   1.746   4.707 -0.7707  0.8669 -2.0556
 6829SOL     OW21385   4.821   4.586   1.581 -0.1198 -0.1281 -0.0339
 6829SOL    HW121386   4.854   4.499   1.618 -2.6081 -1.3414 -0.4561
 6829SOL    HW221387   4.754   4.625   1.644  1.5272  1.9506  0.5289
 6830SOL     OW21388   2.595   5.209   4.013  0.0850  0.1469 -0.2239
 6830SOL    HW121389   2.507   5.243   4.047  1.1817  1.2481  1.7172
 6830SOL    HW221390   2.582   5.121   3.968 -1.9359  0.0681  0.4181
 6831SOL     OW21391   5.940   3.457   5.422 -0.5072 -0.3021 -0.1395
 6831SOL    HW121392   5.908   3.524   5.489 -1.3903 -0.2415 -0.6034
 6831SOL    HW221393   5.996   3.504   5.353 -0.3580 -0.2050  0.0464
 6832SOL     OW21394   4.673   5.203   2.114  0.3868 -0.6678  0.6230
 6832SOL    HW121395   4.599   5.178   2.053  0.2738  1.3504 -0.1248
 6832SOL    HW221396   4.640   5.269   2.182  1.3908  0.0331  0.4624
 6833SOL     OW21397   4.608   4.326   0.489 -0.6731  0.7630 -0.4787
 6833SOL    HW121398   4.551   4.308   0.410 -1.0259  1.1917 -0.3294
 6833SOL    HW221399   4.694   4.368   0.459 -1.0305  1.4300 -0.6038
 6834SOL     OW21400   4.873   1.018   2.732  0.2963  0.1361 -0.8095
 6834SOL    HW121401   4.965   1.056   2.738  0.6643 -0.7645 -0.5539
 6834SOL    HW221402   4.808   1.080   2.775  0.8102  0.7043 -0.8524
 6835SOL     OW21403   6.240   3.699   1.472  0.1908 -0.4286  0.3576
 6835SOL    HW121404   6.263   3.602   1.464  1.0553 -0.2081  0.0853
 6835SOL    HW221405   6.153   3.708   1.520  0.5951 -1.3066  1.3030
 6836SOL     OW21406   4.119   5.459   3.741  0.4370  0.6759  0.5594
 6836SOL    HW121407   4.184   5.429   3.811  0.3806  1.4707  0.9571
 6836SOL    HW221408   4.029   5.472   3.782 -0.0581 -0.6672 -0.0385
 6837SOL     OW21409   2.072   3.215   2.907  0.2533  0.1533 -0.4950
 6837SOL    HW121410   2.074   3.123   2.870  2.9586 -0.1486  0.2003
 6837SOL    HW221411   2.061   3.212   3.006 -1.2456  0.7081 -0.6058
 6838SOL     OW21412   0.652   6.665   0.533 -0.1502  0.0681  0.8431
 6838SOL    HW121413   0.668   6.708   0.622 -1.1128  0.4797  0.8279
 6838SOL    HW221414   0.654   6.735   0.461 -0.9978 -0.0043  0.7372
 6839SOL     OW21415   5.144   3.249   5.345  0.4898 -0.0596 -0.1068
 6839SOL    HW121416   5.107   3.198   5.268 -0.9007  2.0118 -0.8964
 6839SOL    HW221417   5.083   3.241   5.423  0.8265 -0.4525  0.1220
 6840SOL     OW21418   1.320   0.459   5.777 -0.0714 -0.5194  0.1943
 6840SOL    HW121419   1.411   0.500   5.780 -0.5081  0.5765 -0.7870
 6840SOL    HW221420   1.251   0.531   5.774 -0.9058 -1.3193 -0.5930
 6841SOL     OW21421   1.490   2.166   1.893  0.4208 -0.1380 -0.0618
 6841SOL    HW121422   1.581   2.207   1.894  0.9727 -1.2500  1.8075
 6841SOL    HW221423   1.429   2.219   1.952  0.9168 -1.4168  1.6961
 6842SOL     OW21424   1.404   0.506   0.214  0.6163 -0.0267 -0.2733
 6842SOL    HW121425   1.492   0.551   0.199  2.1648 -1.9777  2.1361
 6842SOL    HW221426   1.381   0.508   0.311 -0.7646 -1.7041 -0.5079
 6843SOL     OW21427   5.682   3.793   4.814  0.2681  0.4532 -0.2127
 6843SOL    HW121428   5.625   3.727   4.766 -0.9628  0.9482  0.5088
 6843SOL    HW221429   5.634   3.881   4.820  1.7468  1.3554 -0.9022
 6844SOL     OW21430   4.911   2.033   6.040 -0.5705 -0.6913  0.0852
 6844SOL    HW121431   4.918   2.073   6.132 -0.2164 -3.0089  1.1455
 6844SOL    HW221432   4.922   1.934   6.047  0.7484 -0.8061 -2.6315
 6845SOL     OW21433   6.029   0.271   5.422  0.0497  0.6443  0.3520
 6845SOL    HW121434   6.034   0.365   5.386  0.9054  0.5186  0.1141
 6845SOL    HW221435   5.977   0.214   5.358 -0.0490  0.8509  0.2474
 6846SOL     OW21436   1.047   1.558   2.061 -0.2354  0.4778 -0.0616
 6846SOL    HW121437   1.075   1.611   2.141 -5.8111  0.9674  2.0267
 6846SOL    HW221438   1.014   1.620   1.990  2.1933 -0.0829 -1.8039
 6847SOL     OW21439   0.145   0.134   5.249  0.0038 -0.2219  0.0250
 6847SOL    HW121440   0.089   0.184   5.315 -0.9821 -0.7274 -0.4046
 6847SOL    HW221441   0.131   0.036   5.260  0.5676 -0.3453 -0.3055
 6848SOL     OW21442   0.453   3.653   5.872 -0.0609  0.2876 -0.1045
 6848SOL    HW121443   0.412   3.706   5.946  1.0869 -0.3961  1.0568
 6848SOL    HW221444   0.393   3.655   5.792 -2.4186 -0.7533  1.5361
 6849SOL     OW21445   1.691   5.425   3.943  0.0669 -0.1079  0.5282
 6849SOL    HW121446   1.702   5.468   4.032 -0.9375  0.4627  0.3879
 6849SOL    HW221447   1.751   5.345   3.937 -0.1783 -0.4090  1.8688
 6850SOL     OW21448   0.199   5.641   4.059 -0.1019 -0.3643  0.3898
 6850SOL    HW121449   0.149   5.558   4.085  0.6367 -0.8169  0.3946
 6850SOL    HW221450   0.285   5.615   4.016  0.6618  0.3962  1.4204
 6851SOL     OW21451   0.258   6.615   0.491  0.3739 -0.5746  0.1420
 6851SOL    HW121452   0.291   6.690   0.433 -0.5478 -1.0228 -1.0016
 6851SOL    HW221453   0.229   6.652   0.579  2.5583  0.0114  0.6694
 6852SOL     OW21454   2.293   4.671   4.082  0.2669 -0.6919 -0.3023
 6852SOL    HW121455   2.199   4.660   4.114  1.2460 -0.3577  3.0555
 6852SOL    HW221456   2.293   4.728   3.999 -2.3220  2.8596  1.8213
 6853SOL     OW21457   0.122   3.840   3.485  0.5581  0.3547  0.2558
 6853SOL    HW121458   0.028   3.832   3.516  0.4221  0.9942  0.0156
 6853SOL    HW221459   0.173   3.757   3.510 -0.5963 -0.9584 -1.4932
 6854SOL     OW21460   4.845   6.563   6.884 -0.2478  0.1397  0.3273
 6854SOL    HW121461   4.807   6.478   6.847  0.1802 -0.0813  0.3878
 6854SOL    HW221462   4.815   6.574   6.979 -1.0963  0.5526  0.0270
 6855SOL     OW21463   5.427   5.239   3.303  0.2715 -0.5176 -0.3459
 6855SOL    HW121464   5.366   5.315   3.327 -0.2346 -0.9256 -0.3249
 6855SOL    HW221465   5.516   5.276   3.276  0.7544 -0.0179  1.7478
 6856SOL     OW21466   5.952   2.793   0.736 -0.5965  0.8738  0.1714
 6856SOL    HW121467   6.011   2.712   0.737 -1.3774  0.2843 -0.3143
 6856SOL    HW221468   5.859   2.766   0.709 -0.7567  2.0067 -0.4624
 6857SOL     OW21469   1.439   4.277   4.133 -0.4943 -0.0009 -0.0234
 6857SOL    HW121470   1.385   4.239   4.209 -1.9290  1.7315 -0.1120
 6857SOL    HW221471   1.512   4.334   4.170 -0.7165  0.2253  0.0699
 6858SOL     OW21472   5.783   6.452   5.473  0.2532  0.0885  0.6811
 6858SOL    HW121473   5.828   6.446   5.562  1.5652  0.9151  0.1113
 6858SOL    HW221474   5.852   6.463   5.401 -0.8597  2.1355 -0.1823
 6859SOL     OW21475   1.529   6.461   5.605  0.6090  0.2755  0.1013
 6859SOL    HW121476   1.614   6.487   5.650  1.1942 -0.5923 -0.4759
 6859SOL    HW221477   1.481   6.543   5.574  2.2600  0.7438 -1.4192
 6860SOL     OW21478   4.892   3.805   1.975 -0.7075 -0.2775 -0.2987
 6860SOL    HW121479   4.901   3.716   2.019 -0.7529 -0.4913 -0.7241
 6860SOL    HW221480   4.977   3.829   1.929 -1.1946 -0.8343 -1.5523
 6861SOL     OW21481   2.226   2.959   2.498  0.3510 -0.0640  0.2302
 6861SOL    HW121482   2.243   2.908   2.414  0.2648 -1.7515  1.2091
 6861SOL    HW221483   2.212   3.056   2.476 -2.3196 -0.8377 -1.9994
 6862SOL     OW21484   2.746   6.374   1.999 -0.4798  0.6268 -0.3726
 6862SOL    HW121485   2.822   6.340   1.943 -0.4781 -2.6386  1.3859
 6862SOL    HW221486   2.778   6.396   2.090 -1.1896  2.0044 -0.4314
 6863SOL     OW21487   5.841   2.707   4.166 -0.1205  0.1037 -0.9035
 6863SOL    HW121488   5.769   2.638   4.174  1.0246 -1.1861 -1.3530
 6863SOL    HW221489   5.826   2.763   4.085 -1.1269  0.4767 -0.4702
 6864SOL     OW21490   6.633   3.251   3.635 -0.0739  0.0727  0.7376
 6864SOL    HW121491   6.656   3.184   3.564  0.7966  0.5500  0.5520
 6864SOL    HW221492   6.603   3.337   3.592 -0.1732  0.1498  0.9586
 6865SOL     OW21493   1.961   5.082   3.113  0.2620  0.2740 -0.0886
 6865SOL    HW121494   1.974   5.054   3.018 -0.5525 -1.6711  0.3153
 6865SOL    HW221495   1.980   5.180   3.122 -1.8335  1.0516 -2.7155
 6866SOL     OW21496   4.241   1.493   0.401  0.2480 -0.6394 -0.7636
 6866SOL    HW121497   4.182   1.555   0.452  1.6421 -0.3920  0.6480
 6866SOL    HW221498   4.287   1.542   0.327  0.3555 -0.2993 -0.4723
 6867SOL     OW21499   4.768   5.608   5.504 -0.2751  0.2571  0.3287
 6867SOL    HW121500   4.817   5.643   5.584  1.6557 -2.2126  0.3860
 6867SOL    HW221501   4.743   5.512   5.520 -1.7922  0.3521 -1.2182
 6868SOL     OW21502   4.867   5.977   4.930  0.1073 -0.0205 -0.0091
 6868SOL    HW121503   4.804   6.050   4.956 -0.6541 -0.7707  0.3116
 6868SOL    HW221504   4.852   5.953   4.834  2.6422  2.4728 -1.1790
 6869SOL     OW21505   4.071   5.363   1.861  0.0663 -0.1288 -0.4364
 6869SOL    HW121506   4.122   5.279   1.875  0.2115 -0.5256 -2.9284
 6869SOL    HW221507   3.986   5.360   1.912  0.8152 -1.0557  0.8012
 6870SOL     OW21508   4.146   5.168   3.097 -0.2611  0.3017  0.3880
 6870SOL    HW121509   4.052   5.143   3.072 -0.1269 -1.6804  1.6643
 6870SOL    HW221510   4.146   5.212   3.186  0.1849 -1.9340  1.5633
 6871SOL     OW21511   1.973   4.626   1.003 -0.0701 -0.3954  0.6115
 6871SOL    HW121512   1.983   4.680   1.087  0.4947  0.3916  0.0605
 6871SOL    HW221513   1.893   4.566   1.011 -0.5928  0.3703  1.3268
 6872SOL     OW21514   3.634   4.008   0.378 -0.6104 -0.1180  0.2357
 6872SOL    HW121515   3.595   3.932   0.430 -1.0415 -1.1331 -1.4944
 6872SOL    HW221516   3.596   4.009   0.286  2.3127 -0.2819 -1.1049
 6873SOL     OW21517   2.296   3.014   6.190 -0.3099 -0.0427  0.4540
 6873SOL    HW121518   2.348   2.940   6.233 -0.1415 -1.2227 -1.6459
 6873SOL    HW221519   2.350   3.054   6.117 -1.3821  0.4572 -0.0866
 6874SOL     OW21520   5.816   5.195   4.880  0.0364 -0.2656  0.0351
 6874SOL    HW121521   5.823   5.293   4.863 -0.8637 -0.5882 -2.7401
 6874SOL    HW221522   5.778   5.179   4.971 -1.3959  2.0115 -0.0961
 6875SOL     OW21523   0.958   0.322   2.039  0.5905  0.0020  0.1144
 6875SOL    HW121524   1.004   0.233   2.039  0.1023 -0.2997  2.2159
 6875SOL    HW221525   1.027   0.395   2.039  1.0084 -0.3806 -0.2538
 6876SOL     OW21526   1.371   3.175   6.569 -0.1786  0.4041 -0.0042
 6876SOL    HW121527   1.464   3.154   6.539 -0.3966 -0.9629  0.2066
 6876SOL    HW221528   1.373   3.253   6.632  0.7501  0.7456 -0.4365
 6877SOL     OW21529   2.010   5.374   3.394 -0.0698 -0.3571  0.0251
 6877SOL    HW121530   2.059   5.289   3.415 -1.1800 -1.1440 -0.4632
 6877SOL    HW221531   2.002   5.385   3.295  2.0312  1.5111 -0.0123
 6878SOL     OW21532   3.853   2.930   6.777 -0.0272 -0.5292 -0.1211
 6878SOL    HW121533   3.780   2.995   6.797  0.6179  0.2048 -0.1099
 6878SOL    HW221534   3.837   2.887   6.688  0.0437  0.3467 -0.5574
 6879SOL     OW21535   3.517   6.061   3.037 -0.1335  0.2804  0.1108
 6879SOL    HW121536   3.452   5.986   3.027  0.2705  0.1144 -1.9093
 6879SOL    HW221537   3.586   6.037   3.105 -0.7895 -0.5861  0.4868
 6880SOL     OW21538   4.175   4.832   1.929 -0.2533  0.0315  0.4574
 6880SOL    HW121539   4.175   4.784   1.841 -0.3962  0.3660  0.2731
 6880SOL    HW221540   4.208   4.770   2.001 -0.1445 -0.2452  0.1709
 6881SOL     OW21541   0.256   2.768   1.774  0.4050 -0.3627  0.4480
 6881SOL    HW121542   0.313   2.687   1.791 -0.6558 -1.0202  0.9706
 6881SOL    HW221543   0.222   2.766   1.680  0.7253 -0.2914  0.3282
 6882SOL     OW21544   6.184   6.475   4.811 -0.5354 -0.2233 -0.0780
 6882SOL    HW121545   6.125   6.555   4.816 -1.1040 -0.6599  0.4097
 6882SOL    HW221546   6.142   6.406   4.753  0.0980 -0.0579 -0.7446
 6883SOL     OW21547   5.433   0.232   0.705 -0.6195 -0.5501  0.2597
 6883SOL    HW121548   5.380   0.307   0.745  1.0833 -0.8406  3.3794
 6883SOL    HW221549   5.418   0.149   0.759  2.0949 -0.9210  0.5582
 6884SOL     OW21550   4.971   3.244   3.869 -0.3662 -0.4832  0.3769
 6884SOL    HW121551   5.056   3.202   3.901 -0.8820 -1.2311  0.7856
 6884SOL    HW221552   4.945   3.203   3.782  0.2746  0.5400 -0.3184
 6885SOL     OW21553   6.216   0.865   5.933 -0.1740  0.0147  0.0007
 6885SOL    HW121554   6.244   0.891   5.841  0.2141 -3.4703 -1.0196
 6885SOL    HW221555   6.250   0.932   5.999  0.6630  1.9216 -2.2265
 6886SOL     OW21556   2.873   1.060   1.787  0.1715 -0.5341  0.7536
 6886SOL    HW121557   2.952   1.074   1.847  1.4497  1.1491 -1.1850
 6886SOL    HW221558   2.813   1.140   1.793 -1.8699 -2.0820  2.7292
 6887SOL     OW21559   2.311   3.008   1.584  0.2846  0.1932 -0.0189
 6887SOL    HW121560   2.322   3.028   1.487  1.4958 -0.6778 -0.0717
 6887SOL    HW221561   2.368   3.071   1.637 -0.3945  0.6840  0.1561
 6888SOL     OW21562   4.843   4.002   4.023  0.0159  0.4582 -0.0851
 6888SOL    HW121563   4.835   3.945   3.941 -1.7058  0.0694  0.2954
 6888SOL    HW221564   4.791   4.086   4.010 -1.3786 -0.1825  1.0318
 6889SOL     OW21565   6.000   2.645   6.930  0.3043  0.4319  0.1531
 6889SOL    HW121566   5.927   2.706   6.961 -0.8461 -0.7589 -0.1268
 6889SOL    HW221567   6.030   2.587   7.005  0.7838  0.7202  0.1921
 6890SOL     OW21568   0.414   4.596   4.484  0.0319 -0.0884  0.0437
 6890SOL    HW121569   0.458   4.675   4.527 -0.8811 -1.3043  3.5484
 6890SOL    HW221570   0.484   4.528   4.461  0.5596  0.6214 -0.4996
 6891SOL     OW21571   6.816   1.792   2.467 -0.1563 -0.3782 -0.4589
 6891SOL    HW121572   6.838   1.698   2.490  0.7334 -0.1997 -0.5683
 6891SOL    HW221573   6.885   1.830   2.406 -0.4807  0.3586 -0.3875
 6892SOL     OW21574   1.543   0.103   5.582  0.3617 -0.2929  0.6233
 6892SOL    HW121575   1.535   0.010   5.548  0.5206 -0.3924  0.8537
 6892SOL    HW221576   1.640   0.125   5.597  0.5469  0.6968 -1.6190
 6893SOL     OW21577   6.966   3.685   6.504  0.4310  0.5076  0.3126
 6893SOL    HW121578   7.013   3.662   6.419 -1.1886 -0.6066 -0.3331
 6893SOL    HW221579   6.963   3.604   6.563  1.5374  1.2692  1.4623
 6894SOL     OW21580   3.535   5.408   6.344  0.6550  0.1800  0.5757
 6894SOL    HW121581   3.588   5.345   6.287 -0.2722 -0.6650  0.6234
 6894SOL    HW221582   3.517   5.492   6.293  0.3787 -0.3151 -0.1529
 6895SOL     OW21583   0.027   6.741   3.160 -0.0976 -0.4567  0.3981
 6895SOL    HW121584  -0.070   6.767   3.158 -0.3165 -1.2094 -2.6634
 6895SOL    HW221585   0.082   6.821   3.188 -1.5285  0.0121  2.0543
 6896SOL     OW21586   4.017   6.474   2.765 -0.2355 -0.3069  0.4593
 6896SOL    HW121587   4.034   6.406   2.693 -0.7607  1.5590 -1.5234
 6896SOL    HW221588   4.076   6.553   2.751 -2.0634  1.1522  0.5466
 6897SOL     OW21589   0.447   3.907   3.214  0.1254  0.1002 -0.1335
 6897SOL    HW121590   0.482   3.998   3.192 -0.8455  0.9088  1.4298
 6897SOL    HW221591   0.468   3.886   3.310  2.5439 -2.4339 -1.0969
 6898SOL     OW21592   2.618   5.802   2.176 -0.3137 -0.4911 -0.2177
 6898SOL    HW121593   2.666   5.718   2.200  0.6673  0.0680 -0.2033
 6898SOL    HW221594   2.638   5.827   2.081  0.2390  0.2769  0.0888
 6899SOL     OW21595   1.861   0.002   1.282  0.1593  0.8052  0.3201
 6899SOL    HW121596   1.921  -0.076   1.300  0.8239  1.2899  0.2193
 6899SOL    HW221597   1.780  -0.030   1.233  0.5951  0.2263 -0.0422
 6900SOL     OW21598   3.948   5.155   3.899 -0.1073  0.7937  0.0235
 6900SOL    HW121599   4.031   5.104   3.878  0.4616  1.8934 -0.5085
 6900SOL    HW221600   3.872   5.119   3.844  0.5368  1.2182 -1.1897
 6901SOL     OW21601   2.731   4.295   6.493  0.1398 -0.3752  0.5288
 6901SOL    HW121602   2.731   4.395   6.493  0.7075 -0.3634 -0.4640
 6901SOL    HW221603   2.810   4.262   6.443  0.8062 -1.3464  2.1397
 6902SOL     OW21604   3.190   0.644   3.451  0.0958  0.3555 -0.5806
 6902SOL    HW121605   3.116   0.675   3.510 -0.9110 -0.4834 -1.3823
 6902SOL    HW221606   3.268   0.616   3.508  1.5611  5.1259  0.2483
 6903SOL     OW21607   1.577   1.866   5.786 -0.4674  0.7077  0.2394
 6903SOL    HW121608   1.624   1.803   5.848 -0.3434 -0.3880 -0.9148
 6903SOL    HW221609   1.499   1.819   5.744  0.5493  0.7683 -1.8460
 6904SOL     OW21610   1.352   5.426   3.619  0.0337  0.0371 -0.2161
 6904SOL    HW121611   1.412   5.354   3.654 -1.7012 -0.8445  1.1114
 6904SOL    HW221612   1.331   5.491   3.692 -0.9372  0.0867 -0.5215
 6905SOL     OW21613   3.202   1.958   3.636  0.0784  0.7397 -0.2708
 6905SOL    HW121614   3.300   1.945   3.625  0.0177  0.5645 -0.6456
 6905SOL    HW221615   3.185   2.032   3.701  0.4406 -0.8631  1.7611
 6906SOL     OW21616   3.214   1.717   0.828 -0.2613 -0.0826  0.6523
 6906SOL    HW121617   3.240   1.669   0.912 -0.1192  0.2803  0.8143
 6906SOL    HW221618   3.296   1.751   0.782 -0.4396  1.2805  1.2936
 6907SOL     OW21619   4.194   3.886   6.050 -0.0861  0.2341  0.1715
 6907SOL    HW121620   4.230   3.865   6.140  0.4656 -0.4743 -0.2060
 6907SOL    HW221621   4.152   3.804   6.011  1.4851 -0.0452 -1.0416
 6908SOL     OW21622   1.638   4.244   6.732 -0.7505  0.4141 -0.2664
 6908SOL    HW121623   1.603   4.241   6.826  0.6924 -1.5600  0.2806
 6908SOL    HW221624   1.567   4.279   6.671 -1.7463  1.7091  1.5317
 6909SOL     OW21625   6.322   4.144   2.052 -0.2997  0.1106 -0.2985
 6909SOL    HW121626   6.301   4.161   1.955  3.0821  3.5445 -0.6689
 6909SOL    HW221627   6.419   4.161   2.069 -1.0104  1.0941  3.9734
 6910SOL     OW21628   4.250   5.069   0.599 -0.0188 -0.3536 -0.5654
 6910SOL    HW121629   4.232   5.161   0.633 -0.7388 -0.4621 -0.6339
 6910SOL    HW221630   4.248   5.004   0.676 -0.2017 -0.4066 -0.6156
 6911SOL     OW21631   5.219   2.664   4.524  0.2317  0.2703 -0.1008
 6911SOL    HW121632   5.270   2.734   4.575  1.5888 -0.9663  0.2997
 6911SOL    HW221633   5.122   2.688   4.524  0.6305  2.0881  0.1177
 6912SOL     OW21634   0.688   6.027   4.606 -0.0518  0.4860 -0.0658
 6912SOL    HW121635   0.650   6.100   4.550  1.6371  0.6230 -1.1165
 6912SOL    HW221636   0.691   6.057   4.702  0.0308  1.5572 -0.3906
 6913SOL     OW21637   6.256   4.566   2.858  0.3259  0.1444 -0.2473
 6913SOL    HW121638   6.192   4.633   2.895 -0.6970 -0.9400  0.0054
 6913SOL    HW221639   6.206   4.483   2.832  1.7047 -1.0095  0.6328
 6914SOL     OW21640   1.932   5.793   3.940 -0.0538  0.6477  0.2543
 6914SOL    HW121641   1.860   5.862   3.929 -0.2410  0.7402  1.7671
 6914SOL    HW221642   1.904   5.708   3.897 -0.5867  1.0106 -0.1308
 6915SOL     OW21643   5.287   6.695   4.974 -0.3199  0.1930  0.3182
 6915SOL    HW121644   5.352   6.762   5.009 -0.7903 -0.1022  1.8354
 6915SOL    HW221645   5.332   6.605   4.969 -0.3439  0.1720  0.4775
 6916SOL     OW21646   0.781   4.900   0.363  0.4424 -0.9724  0.6514
 6916SOL    HW121647   0.774   4.861   0.271  1.1451 -0.5915  0.4235
 6916SOL    HW221648   0.875   4.893   0.395  0.5492  0.3411  0.6805
 6917SOL     OW21649   5.780   1.564   3.385 -0.1221 -0.4626  0.4967
 6917SOL    HW121650   5.700   1.538   3.331  0.4154 -2.3288  0.5137
 6917SOL    HW221651   5.800   1.661   3.372 -1.0163 -0.4923 -1.3121
 6918SOL     OW21652   3.570   1.369   1.272 -0.4060  0.2741 -0.3002
 6918SOL    HW121653   3.637   1.309   1.315  1.8282  2.8240 -0.0299
 6918SOL    HW221654   3.537   1.436   1.338 -0.7863  1.0738 -1.2759
 6919SOL     OW21655   1.543   3.515   3.464 -0.5191  0.1941  0.3980
 6919SOL    HW121656   1.473   3.465   3.515 -0.6241 -0.2125 -0.1258
 6919SOL    HW221657   1.505   3.600   3.429 -0.4753  0.4256  0.9093
 6920SOL     OW21658   5.183   3.859   2.834 -0.0383 -0.3134 -0.3962
 6920SOL    HW121659   5.228   3.772   2.855  0.7849  0.7322  2.8620
 6920SOL    HW221660   5.087   3.844   2.815  0.3145 -2.0152 -0.9609
 6921SOL     OW21661   4.069   2.180   5.112  0.1295 -0.5228 -0.0409
 6921SOL    HW121662   4.161   2.182   5.150 -0.0463 -0.5958  0.3986
 6921SOL    HW221663   4.032   2.272   5.109 -0.0281 -0.5680  0.4034
 6922SOL     OW21664   1.649   3.152   5.747  0.1139  0.1094 -0.5486
 6922SOL    HW121665   1.577   3.083   5.742  0.1071  0.0185  0.5508
 6922SOL    HW221666   1.657   3.185   5.842  1.2300  0.4240 -0.7427
 6923SOL     OW21667   2.674   2.684   5.820 -0.0453 -0.5789  0.0940
 6923SOL    HW121668   2.575   2.673   5.811 -0.7360  4.3834 -1.5064
 6923SOL    HW221669   2.720   2.624   5.755 -2.1265 -1.4730 -0.6490
 6924SOL     OW21670   3.503   5.275   4.331  0.7344  0.0122  0.5270
 6924SOL    HW121671   3.450   5.336   4.272  1.1137 -0.2887 -0.1241
 6924SOL    HW221672   3.474   5.289   4.426  0.0230  0.3943  0.2651
 6925SOL     OW21673   3.356   1.676   5.240 -0.0916 -0.4029  0.2066
 6925SOL    HW121674   3.387   1.694   5.146  0.0266 -1.1003  0.1064
 6925SOL    HW221675   3.325   1.581   5.247  0.6276 -0.5870  1.0633
 6926SOL     OW21676   3.827   5.549   1.235 -0.6316  0.5274 -0.0959
 6926SOL    HW121677   3.873   5.468   1.273  2.1081  1.4286 -1.1772
 6926SOL    HW221678   3.886   5.629   1.247 -3.1112  2.3547  0.6170
 6927SOL     OW21679   5.511   0.260   1.479  0.0407 -0.5405  0.5624
 6927SOL    HW121680   5.537   0.266   1.575  1.4642 -0.6446  0.2108
 6927SOL    HW221681   5.586   0.293   1.422 -0.7679 -0.5119 -0.5198
 6928SOL     OW21682   1.617   5.453   5.430  0.0087  1.0766 -0.0416
 6928SOL    HW121683   1.644   5.439   5.525 -1.4092 -0.3465  0.1829
 6928SOL    HW221684   1.656   5.381   5.373 -0.4323  1.0282 -0.2835
 6929SOL     OW21685   4.447   0.224   3.631 -0.3753 -0.3982  0.2320
 6929SOL    HW121686   4.481   0.289   3.563 -0.0230  0.3552  1.1079
 6929SOL    HW221687   4.348   0.218   3.624 -0.3985  0.1197  0.0341
 6930SOL     OW21688   0.514   2.319   4.560 -0.3790  0.4730 -0.0698
 6930SOL    HW121689   0.596   2.353   4.513 -0.8584 -1.4711 -2.5041
 6930SOL    HW221690   0.434   2.337   4.503 -1.5236  1.1206  1.6673
 6931SOL     OW21691   2.447   1.646   5.799  0.2323 -0.1446 -0.1608
 6931SOL    HW121692   2.533   1.697   5.798 -0.4259  1.0741  1.6858
 6931SOL    HW221693   2.427   1.616   5.892  0.0627 -2.9669 -1.0126
 6932SOL     OW21694   1.834   0.889   2.306  0.6247  0.4145 -0.4605
 6932SOL    HW121695   1.901   0.927   2.242  0.3043 -0.9491 -1.6458
 6932SOL    HW221696   1.882   0.857   2.388  1.5373 -0.9924 -1.4997
 6933SOL     OW21697   5.897   1.822   5.796 -0.4828 -0.5293  0.0157
 6933SOL    HW121698   5.989   1.800   5.830 -0.9970 -1.2121  1.0122
 6933SOL    HW221699   5.877   1.918   5.815  0.8057  0.2343 -2.0955
 6934SOL     OW21700   3.039   3.927   1.962 -0.9654  0.3674 -0.4153
 6934SOL    HW121701   3.129   3.971   1.956 -2.0974  2.6889 -1.8853
 6934SOL    HW221702   2.999   3.944   2.052 -0.9126  1.4515 -0.5832
 6935SOL     OW21703   1.356   4.869   5.605 -0.0503  0.5889  0.0213
 6935SOL    HW121704   1.312   4.881   5.694 -0.6572  0.4423 -0.2530
 6935SOL    HW221705   1.393   4.957   5.574  0.6694  0.5287  0.6670
 6936SOL     OW21706   0.218   5.530   4.382  0.3953  0.1585  0.3240
 6936SOL    HW121707   0.139   5.530   4.321 -0.3182  2.0143  1.1733
 6936SOL    HW221708   0.295   5.483   4.338 -0.7449 -0.4530 -1.0831
 6937SOL     OW21709   4.025   5.338   1.317 -0.1727 -0.2105  0.4489
 6937SOL    HW121710   4.030   5.373   1.410 -0.7527 -0.6630  0.6583
 6937SOL    HW221711   4.053   5.242   1.316 -1.7525 -0.6957  0.4562
 6938SOL     OW21712   5.990   3.198   3.879 -0.2450 -0.3480  0.0882
 6938SOL    HW121713   5.978   3.292   3.844 -0.9450 -0.6271 -0.4513
 6938SOL    HW221714   6.041   3.201   3.964 -0.3641  0.5456  0.1435
 6939SOL     OW21715   3.973   6.324   2.484  0.3050  0.2782 -0.4508
 6939SOL    HW121716   3.970   6.416   2.443  1.1956  0.2120 -0.6809
 6939SOL    HW221717   3.885   6.304   2.527  0.3437  1.5598  0.2887
 6940SOL     OW21718   5.788   5.611   2.286 -0.5846  0.3627 -0.0449
 6940SOL    HW121719   5.872   5.560   2.306 -0.3162  1.0210  0.5700
 6940SOL    HW221720   5.709   5.558   2.316 -0.4408 -0.5108 -1.1443
 6941SOL     OW21721   4.344   6.161   0.403  0.2057  0.7639  0.2625
 6941SOL    HW121722   4.301   6.095   0.341  1.8005 -0.5508  0.4897
 6941SOL    HW221723   4.441   6.138   0.414  0.3267  1.9429  1.9832
 6942SOL     OW21724   0.530   5.726   3.196  0.5042  0.4655 -0.0803
 6942SOL    HW121725   0.460   5.656   3.185  2.6560 -1.9180  0.3442
 6942SOL    HW221726   0.503   5.789   3.269 -1.0238 -0.5722  0.3069
 6943SOL     OW21727   6.507   1.570   1.308 -0.0465 -0.3584  0.1693
 6943SOL    HW121728   6.421   1.547   1.354  0.9093 -0.1761  2.1364
 6943SOL    HW221729   6.523   1.668   1.315  0.2557 -0.3693 -0.3282
 6944SOL     OW21730   2.377   6.695   3.188  0.5867 -0.2762 -0.0799
 6944SOL    HW121731   2.302   6.747   3.146  0.2776  0.1022  0.8941
 6944SOL    HW221732   2.367   6.598   3.164 -1.0055 -0.4503  1.0768
 6945SOL     OW21733   0.947   2.859   5.863  0.0924  0.2653 -0.1147
 6945SOL    HW121734   1.027   2.824   5.910  0.9053 -0.6072 -2.0523
 6945SOL    HW221735   0.973   2.937   5.805 -0.1847 -0.6898 -1.5913
 6946SOL     OW21736   3.581   2.305   0.720 -0.0780 -0.2572  0.5761
 6946SOL    HW121737   3.615   2.288   0.628  0.2684  0.5208  0.5549
 6946SOL    HW221738   3.484   2.325   0.718 -0.0478 -0.1372  0.3684
 6947SOL     OW21739   3.589   4.756   0.302  0.2502 -0.4519  0.3148
 6947SOL    HW121740   3.658   4.713   0.360 -0.2200  0.7927  1.8851
 6947SOL    HW221741   3.525   4.686   0.269  1.5624 -1.4449 -0.2066
 6948SOL     OW21742   1.910   1.839   4.290 -0.0784 -0.3852 -0.4381
 6948SOL    HW121743   1.848   1.900   4.241  0.6322 -0.4625 -1.4376
 6948SOL    HW221744   1.984   1.893   4.331 -0.3001 -0.4013 -0.0106
 6949SOL     OW21745   3.299   3.100   6.106  0.4581  0.4952  0.1518
 6949SOL    HW121746   3.291   3.163   6.029  0.7261  0.2756 -0.0593
 6949SOL    HW221747   3.216   3.105   6.162  0.7047  1.4397  0.4533
 6950SOL     OW21748   4.422   4.058   6.028  0.6212 -0.1512  0.2316
 6950SOL    HW121749   4.333   4.011   6.027  0.2645  0.3960  2.1740
 6950SOL    HW221750   4.460   4.060   5.935 -1.0256 -1.0844 -0.5022
 6951SOL     OW21751   2.322   0.790   0.978  0.2865  0.2688  0.1520
 6951SOL    HW121752   2.236   0.765   0.933  0.4599  1.1010 -0.6816
 6951SOL    HW221753   2.306   0.804   1.075 -0.7265  1.2398 -0.1297
 6952SOL     OW21754   4.164   1.605   3.683 -0.3387  0.5065 -0.0521
 6952SOL    HW121755   4.133   1.692   3.722 -2.0802 -0.6022  1.2000
 6952SOL    HW221756   4.096   1.571   3.617 -0.1549 -0.3475  0.1779
 6953SOL     OW21757   0.992   5.217   2.528  0.2921  0.0855  0.4097
 6953SOL    HW121758   0.927   5.252   2.461 -0.8274 -0.5300  1.1382
 6953SOL    HW221759   1.017   5.123   2.504 -0.4297 -0.2848  1.0413
 6954SOL     OW21760   1.514   1.168   1.336 -0.6093 -0.7289 -0.4736
 6954SOL    HW121761   1.510   1.079   1.380 -0.0091 -0.2001  0.7009
 6954SOL    HW221762   1.608   1.203   1.339 -1.1208  0.6324  0.5453
 6955SOL     OW21763   5.499   5.877   3.867  0.4016 -0.1672  0.4266
 6955SOL    HW121764   5.452   5.807   3.921  0.5296 -0.9395 -0.4257
 6955SOL    HW221765   5.491   5.965   3.912  1.2069 -0.9258  2.1209
 6956SOL     OW21766   4.963   0.215   5.573 -0.3764 -0.1281  0.4729
 6956SOL    HW121767   4.936   0.243   5.665 -1.3414 -0.1557  0.2180
 6956SOL    HW221768   5.062   0.204   5.568 -0.4619 -2.3893  2.1480
 6957SOL     OW21769   6.411   1.517   4.057  0.0219 -0.0116 -0.4651
 6957SOL    HW121770   6.506   1.544   4.075  0.4753 -1.4156 -0.6306
 6957SOL    HW221771   6.408   1.456   3.978 -0.8737 -0.9127  0.2389
 6958SOL     OW21772   6.535   0.685   1.176 -0.3405  0.3192 -0.1901
 6958SOL    HW121773   6.449   0.635   1.182 -0.3182  0.3257  0.1872
 6958SOL    HW221774   6.550   0.737   1.260  0.1647  0.1041 -0.1422
 6959SOL     OW21775   2.549   5.088   5.468  0.1426 -0.3588  0.8473
 6959SOL    HW121776   2.613   5.029   5.518  1.9546  0.9665  0.2083
 6959SOL    HW221777   2.525   5.046   5.381  0.9994 -0.4169  0.6279
 6960SOL     OW21778   2.255   2.937   4.345  0.3361  0.1317 -0.2408
 6960SOL    HW121779   2.315   2.886   4.283  2.8086  1.0039  1.2747
 6960SOL    HW221780   2.240   3.029   4.308  0.5645  0.1479 -0.3000
 6961SOL     OW21781   3.502   1.554   5.800 -0.0256  0.3874 -0.2484
 6961SOL    HW121782   3.533   1.582   5.709  0.3106 -1.3515 -0.7013
 6961SOL    HW221783   3.564   1.485   5.837  0.1009  1.3983  1.5180
 6962SOL     OW21784   6.280   4.637   3.845  0.2272  0.4382 -0.0167
 6962SOL    HW121785   6.356   4.702   3.843  0.1178  0.6136  0.8913
 6962SOL    HW221786   6.263   4.610   3.940 -3.9206  4.0746  0.5858
 6963SOL     OW21787   6.487   6.104   0.073  0.2800 -0.8038  0.1697
 6963SOL    HW121788   6.512   6.046  -0.005  1.4962  0.6439 -0.5752
 6963SOL    HW221789   6.408   6.160   0.047  0.8392 -0.1405 -0.1501
 6964SOL     OW21790   4.795   3.095   4.806 -0.6720 -0.0465 -0.0314
 6964SOL    HW121791   4.719   3.117   4.867 -0.5934 -0.7304  0.3245
 6964SOL    HW221792   4.856   3.174   4.800 -0.7015  0.0431  0.7499
 6965SOL     OW21793   4.046   5.001   0.183 -0.2346  0.0581 -0.6499
 6965SOL    HW121794   4.047   4.919   0.241  1.6807  1.1505  0.9768
 6965SOL    HW221795   4.026   5.081   0.240  1.1447  1.1011 -1.5968
 6966SOL     OW21796   0.011   4.035   1.702 -0.1445  0.6315  0.1921
 6966SOL    HW121797   0.105   4.016   1.727  0.3939  0.7871 -1.5372
 6966SOL    HW221798  -0.004   4.134   1.700 -0.1200  0.6323 -0.2101
 6967SOL     OW21799   0.483   0.467   0.563 -0.2112 -0.3955  0.3517
 6967SOL    HW121800   0.398   0.425   0.593 -0.8801  0.4909 -0.2396
 6967SOL    HW221801   0.543   0.481   0.642 -0.7981 -0.6134  0.8439
 6968SOL     OW21802   5.850   2.209   4.637 -0.3539  0.3761 -0.5968
 6968SOL    HW121803   5.865   2.110   4.639 -2.1115 -0.0494 -3.4528
 6968SOL    HW221804   5.755   2.230   4.658 -0.1934  1.4052 -0.8135
 6969SOL     OW21805   0.371   6.349   4.053 -0.0179  0.6230  0.7560
 6969SOL    HW121806   0.379   6.448   4.068  0.0529  0.6115  0.7939
 6969SOL    HW221807   0.277   6.320   4.072  0.1518  0.5484  1.5207
 6970SOL     OW21808   0.191   0.325   3.985 -0.1167 -0.3773  0.3889
 6970SOL    HW121809   0.236   0.362   4.067  1.6957  0.0323 -0.7317
 6970SOL    HW221810   0.222   0.232   3.968 -1.4105 -0.9066  0.8101
 6971SOL     OW21811   1.843   2.279   0.534 -0.6102  0.2990 -0.5816
 6971SOL    HW121812   1.835   2.356   0.471  1.6330 -0.6861 -2.2094
 6971SOL    HW221813   1.852   2.194   0.482 -1.9715 -0.9805  1.1563
 6972SOL     OW21814   6.237   6.111   3.873  0.3693  0.2494 -0.2966
 6972SOL    HW121815   6.200   6.166   3.798  0.5640  0.0318 -0.5555
 6972SOL    HW221816   6.337   6.108   3.865  0.4121  0.4236  0.1120
 6973SOL     OW21817   4.483   5.270   4.576  0.6069  0.0079 -0.3264
 6973SOL    HW121818   4.448   5.348   4.524  0.4498 -1.3068 -2.3250
 6973SOL    HW221819   4.454   5.185   4.531  1.8341 -1.2007  1.0634
 6974SOL     OW21820   5.482   3.051   0.103  0.4765 -0.0125 -0.3108
 6974SOL    HW121821   5.395   3.003   0.089  0.4991 -0.0199 -0.4281
 6974SOL    HW221822   5.530   3.059   0.015  1.7128 -2.0962  0.1135
 6975SOL     OW21823   2.688   5.880   4.777  0.3185  0.0351 -0.4246
 6975SOL    HW121824   2.598   5.903   4.813  0.6418 -0.6079  0.8406
 6975SOL    HW221825   2.701   5.781   4.780  0.2363 -0.1030 -2.6691
 6976SOL     OW21826   5.304   3.949   3.424 -0.5251 -0.0588 -0.2781
 6976SOL    HW121827   5.275   4.017   3.491 -1.7906 -0.0294 -0.8393
 6976SOL    HW221828   5.402   3.960   3.406 -0.2888  0.2948  1.1238
 6977SOL     OW21829   5.759   6.204   2.454 -0.2464 -0.1318  0.2131
 6977SOL    HW121830   5.689   6.133   2.462 -2.3352  1.7524 -0.1872
 6977SOL    HW221831   5.741   6.276   2.521 -1.1478  2.2827 -2.4261
 6978SOL     OW21832   6.515   2.159   0.073 -0.1139  0.2773  0.0087
 6978SOL    HW121833   6.479   2.233   0.016 -1.3807 -0.1458  0.2128
 6978SOL    HW221834   6.440   2.097   0.097  1.3460 -2.8358 -2.6930
 6979SOL     OW21835   6.456   4.922   4.665  0.1837 -0.4233  0.2845
 6979SOL    HW121836   6.381   4.942   4.602  0.4611  1.2798  0.4276
 6979SOL    HW221837   6.475   5.003   4.720  2.8057 -0.4279 -0.4666
 6980SOL     OW21838   4.686   4.858   6.283  0.3378 -0.3356  0.5451
 6980SOL    HW121839   4.671   4.790   6.211  0.6995 -2.5429  2.4047
 6980SOL    HW221840   4.604   4.866   6.339  0.4405  0.4950  0.5897
 6981SOL     OW21841   0.244   4.505   2.712 -0.3011 -0.3311 -0.5756
 6981SOL    HW121842   0.316   4.441   2.686 -1.4909 -1.8958 -0.2000
 6981SOL    HW221843   0.166   4.494   2.649 -0.3261  1.1564 -0.8367
 6982SOL     OW21844   0.133   1.655   6.525 -0.5036  0.2831 -0.3027
 6982SOL    HW121845   0.071   1.731   6.548 -0.0743  1.2959 -2.2997
 6982SOL    HW221846   0.105   1.573   6.576 -3.4701  0.6889 -1.0768
 6983SOL     OW21847   5.987   0.642   1.229  0.6316  0.1341 -0.0652
 6983SOL    HW121848   5.967   0.637   1.131 -0.0635 -3.1849  0.1430
 6983SOL    HW221849   5.903   0.631   1.281  1.0682  1.3090  0.9308
 6984SOL     OW21850   1.243   3.076   5.930 -0.1484  0.5651  0.1464
 6984SOL    HW121851   1.306   3.026   5.871  0.2611  1.1836  0.0439
 6984SOL    HW221852   1.261   3.053   6.025  0.1053  0.5947  0.1059
 6985SOL     OW21853   5.037   5.779   4.418  0.7151 -0.3231  0.5820
 6985SOL    HW121854   5.092   5.805   4.339  0.3761 -1.4927 -0.0532
 6985SOL    HW221855   4.972   5.708   4.392 -1.4322  1.3007  1.1891
 6986SOL     OW21856   0.777   0.978   4.060 -0.3001  0.5881  0.3577
 6986SOL    HW121857   0.690   0.969   4.012  0.0879 -1.9082 -0.0229
 6986SOL    HW221858   0.761   0.980   4.159 -0.7930  0.3138  0.2851
 6987SOL     OW21859   4.317   6.432   0.358 -0.5188  0.8857 -0.5396
 6987SOL    HW121860   4.303   6.335   0.380 -1.7498  0.6947 -1.9737
 6987SOL    HW221861   4.286   6.488   0.435 -0.3031  0.1648  0.0912
 6988SOL     OW21862   3.696   4.352   1.115  0.2073 -0.5007  0.5558
 6988SOL    HW121863   3.667   4.290   1.188  1.0704 -0.6427  0.7936
 6988SOL    HW221864   3.617   4.401   1.079 -0.2029 -0.2840  1.7258
 6989SOL     OW21865   5.199   0.553   5.357 -0.2248 -0.0054 -0.1416
 6989SOL    HW121866   5.208   0.546   5.457  1.1485  1.1270 -0.1439
 6989SOL    HW221867   5.112   0.597   5.335  0.1334  1.1784  0.6611
 6990SOL     OW21868   6.089   5.239   0.332  0.1487  0.1078 -0.1644
 6990SOL    HW121869   6.179   5.194   0.335 -0.2248 -0.7128 -0.8648
 6990SOL    HW221870   6.060   5.250   0.237 -0.4313  0.4947  0.0549
 6991SOL     OW21871   4.850   5.294   4.441 -0.4916  0.2352  0.3415
 6991SOL    HW121872   4.790   5.347   4.501 -1.4291  0.8403 -1.0787
 6991SOL    HW221873   4.796   5.255   4.366  0.5209 -1.1430  0.2998
 6992SOL     OW21874   4.732   6.226   4.726 -0.0737  0.2574 -0.1464
 6992SOL    HW121875   4.818   6.254   4.769  0.1421  2.3442 -1.7671
 6992SOL    HW221876   4.657   6.236   4.791  0.2064  3.4539 -0.1954
 6993SOL     OW21877   0.125   5.054   4.708 -0.3188  0.6367 -0.3767
 6993SOL    HW121878   0.222   5.042   4.730 -0.4792  0.2114  0.1176
 6993SOL    HW221879   0.089   4.971   4.666 -0.8188  0.2358  0.7861
 6994SOL     OW21880   5.469   2.971   6.507  1.0911  0.7306 -0.0508
 6994SOL    HW121881   5.539   2.904   6.532 -0.0480 -0.4740  0.0053
 6994SOL    HW221882   5.426   2.943   6.421 -0.7264  0.3033  0.9555
 6995SOL     OW21883   6.930   2.767   0.382  0.0680  0.0174 -0.3493
 6995SOL    HW121884   6.878   2.780   0.298  0.6543 -1.3747 -0.9519
 6995SOL    HW221885   6.870   2.730   0.453  0.0676 -0.9474 -0.8405
 6996SOL     OW21886   3.734   0.693   1.190 -0.4965 -0.7211 -0.5045
 6996SOL    HW121887   3.772   0.618   1.137 -0.0803  0.1215 -1.4446
 6996SOL    HW221888   3.808   0.744   1.234 -0.6534 -0.1407 -0.8855
 6997SOL     OW21889   0.839   1.803   1.999  0.2818  0.1942  0.3579
 6997SOL    HW121890   0.923   1.808   1.945 -0.5146  0.5710 -0.8891
 6997SOL    HW221891   0.827   1.889   2.050  0.3030  0.4214 -0.0147
 6998SOL     OW21892   0.506   0.225   3.517  0.3674  0.5420 -0.6274
 6998SOL    HW121893   0.407   0.208   3.512  0.1580  1.7306 -0.9538
 6998SOL    HW221894   0.525   0.294   3.587  0.6883  2.0141 -2.1003
 6999SOL     OW21895   5.173   2.420   5.442 -0.0612 -0.2531 -0.2483
 6999SOL    HW121896   5.171   2.345   5.376  1.9262 -0.2405 -0.3790
 6999SOL    HW221897   5.232   2.395   5.519 -0.4865  0.6441  0.3881
 7000SOL     OW21898   4.457   5.706   5.159  0.1838 -0.3778 -0.2398
 7000SOL    HW121899   4.470   5.608   5.146 -1.9929 -0.5968 -1.2389
 7000SOL    HW221900   4.381   5.738   5.102 -0.1052  1.6173  1.1260
 7001SOL     OW21901   0.334   6.877   3.624 -0.3052  0.3817 -0.4867
 7001SOL    HW121902   0.350   6.942   3.698 -0.4468  1.5248 -1.4449
 7001SOL    HW221903   0.419   6.863   3.573 -0.9323  2.1309 -2.1068
 7002SOL     OW21904   3.363   2.836   6.020  0.1018  0.3876 -0.4474
 7002SOL    HW121905   3.356   2.927   6.061  3.4377  0.1886  0.8462
 7002SOL    HW221906   3.343   2.767   6.090 -1.0072  0.0628 -1.0574
 7003SOL     OW21907   0.092   0.294   2.983  0.2083 -0.1813  0.0456
 7003SOL    HW121908   0.013   0.258   3.033 -0.0642 -0.7828 -0.8080
 7003SOL    HW221909   0.073   0.387   2.953 -1.0333 -1.0111 -1.9387
 7004SOL     OW21910   3.863   4.631   1.680 -0.0262  0.5083  0.7994
 7004SOL    HW121911   3.810   4.713   1.698 -0.7025  0.2290  0.1281
 7004SOL    HW221912   3.955   4.641   1.719  0.2806  2.0258 -0.2492
 7005SOL     OW21913   2.306   0.305   2.363  0.4558  0.1855  0.3243
 7005SOL    HW121914   2.245   0.240   2.408 -0.3281  0.6658 -0.0313
 7005SOL    HW221915   2.327   0.273   2.271 -0.5089  0.7714 -0.1150
 7006SOL     OW21916   2.029   0.332   1.667 -0.5148 -0.1863 -0.1233
 7006SOL    HW121917   2.003   0.258   1.605  2.5580  0.9192 -3.0028
 7006SOL    HW221918   2.122   0.317   1.701 -0.2785  1.7361  0.2012
 7007SOL     OW21919   0.162   5.765   6.586 -0.1004 -0.0658  0.2048
 7007SOL    HW121920   0.201   5.687   6.537 -0.4463 -0.6363  0.8173
 7007SOL    HW221921   0.063   5.759   6.584 -0.1339 -0.9186  2.2010
 7008SOL     OW21922   5.922   4.466   6.216 -0.5721  0.1799 -0.4676
 7008SOL    HW121923   5.959   4.538   6.275 -0.1189  1.1606 -1.8969
 7008SOL    HW221924   5.845   4.421   6.262  1.7384 -1.3405  2.2651
 7009SOL     OW21925   2.381   2.276   1.644 -0.0362  0.3123 -0.4289
 7009SOL    HW121926   2.433   2.324   1.715 -0.2414 -0.9131  0.5838
 7009SOL    HW221927   2.311   2.338   1.607  0.4028  1.1249  0.0599
 7010SOL     OW21928   5.289   0.468   6.900  0.0961 -0.5753 -0.3695
 7010SOL    HW121929   5.346   0.387   6.911  1.0132  0.1264  0.2385
 7010SOL    HW221930   5.342   0.541   6.857  0.5034  0.8976  2.3840
 7011SOL     OW21931   0.185   0.888   6.187  0.4023  0.9251  0.4246
 7011SOL    HW121932   0.274   0.870   6.229 -0.9864 -0.2364  3.0678
 7011SOL    HW221933   0.129   0.805   6.191 -1.7093  2.3188  1.2339
 7012SOL     OW21934   2.253   0.855   1.686 -0.7787 -0.8047  0.5255
 7012SOL    HW121935   2.172   0.798   1.693 -0.4333 -1.5492 -1.0032
 7012SOL    HW221936   2.311   0.821   1.611 -1.0524  2.1305 -1.1815
 7013SOL     OW21937   3.487   3.154   2.974  0.0522 -0.2534  0.0816
 7013SOL    HW121938   3.436   3.229   3.016  1.4500  0.3363  0.7891
 7013SOL    HW221939   3.424   3.078   2.955 -1.0124  0.2645  1.3360
 7014SOL     OW21940   1.174   0.238   0.373  0.4284 -0.6116 -0.6510
 7014SOL    HW121941   1.092   0.206   0.422 -0.9784 -0.5044 -2.7846
 7014SOL    HW221942   1.179   0.337   0.378 -1.9458 -0.1721 -3.7403
 7015SOL     OW21943   0.749   0.373   0.188 -0.3169 -0.3573  0.2224
 7015SOL    HW121944   0.677   0.336   0.247 -1.1049  0.8048  0.0383
 7015SOL    HW221945   0.762   0.313   0.109 -1.0431 -0.6273  0.2962
 7016SOL     OW21946   2.974   0.036   6.326 -0.0842  0.3089 -0.4677
 7016SOL    HW121947   3.017   0.038   6.417  0.4075  0.9933 -0.7101
 7016SOL    HW221948   3.031   0.087   6.261 -0.6426  0.1710 -1.0701
 7017SOL     OW21949   4.851   5.895   6.701 -0.3123 -0.0763  0.2885
 7017SOL    HW121950   4.829   5.992   6.707  0.1227  0.1371 -1.1393
 7017SOL    HW221951   4.902   5.867   6.782  0.8764  1.2405  0.0272
 7018SOL     OW21952   4.650   4.735   2.515  0.5964  0.1755  0.6332
 7018SOL    HW121953   4.678   4.676   2.439 -0.4961  1.0963 -0.5279
 7018SOL    HW221954   4.556   4.712   2.541 -0.1009  1.7929 -0.2928
 7019SOL     OW21955   5.261   6.588   2.577  0.1078  0.0278 -0.4766
 7019SOL    HW121956   5.179   6.574   2.520 -0.2629 -0.0949  0.0788
 7019SOL    HW221957   5.276   6.507   2.634  0.9978 -0.2167 -1.0299
 7020SOL     OW21958   0.930   4.618   0.627  0.1119  0.3475  0.2247
 7020SOL    HW121959   0.935   4.598   0.529 -0.0562 -1.7653  0.5918
 7020SOL    HW221960   0.892   4.539   0.675  3.0055  0.1170  2.3701
 7021SOL     OW21961   5.019   6.900   0.208 -0.0926  0.1434  0.0758
 7021SOL    HW121962   5.115   6.925   0.205  0.0194 -0.3472 -0.5828
 7021SOL    HW221963   4.963   6.981   0.226  0.2782  0.8442 -1.7283
 7022SOL     OW21964   3.734   5.855   1.439 -0.1767 -0.5539  0.3863
 7022SOL    HW121965   3.654   5.803   1.410  0.3914 -0.0998 -2.3040
 7022SOL    HW221966   3.731   5.947   1.399  2.2605 -0.9700 -1.0091
 7023SOL     OW21967   1.450   6.244   5.766  0.0552  0.2250 -0.0475
 7023SOL    HW121968   1.465   6.275   5.860 -0.6768  0.8711 -0.1353
 7023SOL    HW221969   1.486   6.312   5.703  0.0865  0.0322 -0.2381
 7024SOL     OW21970   5.816   1.771   0.952 -0.0609 -0.7224  0.5581
 7024SOL    HW121971   5.890   1.720   0.996  1.7639  1.2308 -0.1226
 7024SOL    HW221972   5.825   1.868   0.972 -4.3233 -0.5772  3.0915
 7025SOL     OW21973   1.277   3.284   2.183 -0.1364  0.2785  0.3903
 7025SOL    HW121974   1.193   3.238   2.155  2.5912 -3.5438 -2.5928
 7025SOL    HW221975   1.298   3.357   2.118  0.2589 -0.7075 -0.6125
 7026SOL     OW21976   3.191   1.954   4.031  0.2903 -0.2061  0.5236
 7026SOL    HW121977   3.236   1.934   4.118  2.4507  0.1630 -0.4450
 7026SOL    HW221978   3.168   1.868   3.985 -0.5520 -0.4010  1.2737
 7027SOL     OW21979   3.732   2.927   4.538  0.6030  0.2471 -0.2327
 7027SOL    HW121980   3.795   2.849   4.546  0.1393 -0.2318 -1.1875
 7027SOL    HW221981   3.695   2.931   4.446  0.0863  1.2004  0.0058
 7028SOL     OW21982   5.039   0.034   5.154  0.2067 -0.5421  0.3387
 7028SOL    HW121983   5.056   0.008   5.249 -1.2352  1.5670  1.2661
 7028SOL    HW221984   5.000   0.126   5.152 -0.0058 -0.6231 -2.3112
 7029SOL     OW21985   6.740   2.699   3.601  0.3387 -0.1725 -0.3970
 7029SOL    HW121986   6.703   2.624   3.656 -1.0340  1.1435  0.5441
 7029SOL    HW221987   6.734   2.784   3.652  1.7005  0.6403 -1.5197
 7030SOL     OW21988   1.104   6.748   4.410  0.7085  0.1149 -0.2007
 7030SOL    HW121989   1.180   6.740   4.474  0.2274 -0.3410  0.3248
 7030SOL    HW221990   1.126   6.816   4.340  1.8771 -0.4830 -0.4498
 7031SOL     OW21991   1.243   5.410   2.908  0.0354  0.0701  0.4417
 7031SOL    HW121992   1.299   5.334   2.874 -0.1208  0.1182  0.0728
 7031SOL    HW221993   1.256   5.419   3.007  0.3927 -0.1563  0.4176
 7032SOL     OW21994   3.108   3.887   5.484  0.2967  0.3852 -0.6925
 7032SOL    HW121995   3.194   3.859   5.441  0.9104 -2.4833  2.0697
 7032SOL    HW221996   3.128   3.945   5.563 -0.3669  0.1676 -0.3635
 7033SOL     OW21997   0.367   2.347   0.429 -0.6780 -0.4686 -0.1970
 7033SOL    HW121998   0.347   2.351   0.331  0.1374  1.1336 -0.3190
 7033SOL    HW221999   0.311   2.413   0.478  2.4053  2.5109 -0.2802
 7034SOL     OW22000   4.247   2.372   6.706  0.0111 -0.1332  0.3569
 7034SOL    HW122001   4.309   2.385   6.783  1.9176  1.2841 -1.2952
 7034SOL    HW222002   4.154   2.361   6.739  0.8198 -0.0634  2.8473
 7035SOL     OW22003   3.902   1.285   3.781  0.7372 -0.0494  0.4045
 7035SOL    HW122004   3.822   1.334   3.749  1.3148 -0.1007 -1.1739
 7035SOL    HW222005   3.958   1.346   3.837  0.5286  0.5303 -0.0132
 7036SOL     OW22006   5.657   4.090   4.373 -0.5738 -0.6986 -0.3552
 7036SOL    HW122007   5.651   3.999   4.331  0.5628 -1.3967  0.9414
 7036SOL    HW222008   5.751   4.109   4.399 -0.3604  1.7713 -2.5130
 7037SOL     OW22009   3.335   2.585   0.361 -0.3014  0.1178  0.2711
 7037SOL    HW122010   3.290   2.628   0.439  1.3659  0.9653  0.8129
 7037SOL    HW222011   3.362   2.491   0.386  0.0371  0.3132  0.6506
 7038SOL     OW22012   0.839   5.506   1.952 -0.2929  0.6951 -0.4319
 7038SOL    HW122013   0.779   5.524   1.874 -0.1938  0.7303 -0.5014
 7038SOL    HW222014   0.824   5.413   1.985  0.4478  0.2873 -1.2028
 7039SOL     OW22015   2.056   1.240   4.325  0.1398  0.0798  0.1222
 7039SOL    HW122016   2.053   1.302   4.247  1.5146  1.2027  0.9071
 7039SOL    HW222017   2.150   1.208   4.338 -0.5522 -2.3834 -0.3758
 7040SOL     OW22018   2.384   2.025   1.796  0.0672  0.7823  0.1023
 7040SOL    HW122019   2.379   2.056   1.891  3.0800  0.0212  0.6467
 7040SOL    HW222020   2.397   2.103   1.736 -0.1907  1.1589  0.5323
 7041SOL     OW22021   6.666   4.927   5.436  0.5744 -0.4934  0.0838
 7041SOL    HW122022   6.679   4.831   5.410  0.3268 -0.8751  1.3153
 7041SOL    HW222023   6.572   4.954   5.418  1.3201  0.4255 -3.0013
 7042SOL     OW22024   4.046   4.956   5.720 -0.0609  0.3377 -0.2967
 7042SOL    HW122025   4.005   4.971   5.810 -1.7361 -0.0751 -0.9555
 7042SOL    HW222026   4.004   4.875   5.678  0.2066  0.9168 -1.7211
 7043SOL     OW22027   4.678   2.271   2.465 -0.2932  0.6584  0.5937
 7043SOL    HW122028   4.668   2.336   2.389  0.4185  1.0018  0.7948
 7043SOL    HW222029   4.596   2.214   2.470 -0.0982  0.2204 -0.8191
 7044SOL     OW22030   5.312   4.426   4.898 -0.2449  0.0571  0.6673
 7044SOL    HW122031   5.382   4.498   4.899 -0.4638  0.2806  0.2444
 7044SOL    HW222032   5.287   4.405   4.803 -0.4339 -0.3318  0.8012
 7045SOL     OW22033   0.232   3.999   0.119  0.3637  0.1053  0.5885
 7045SOL    HW122034   0.171   3.961   0.189  0.8225 -0.0213  0.9270
 7045SOL    HW222035   0.201   3.970   0.029  0.7630 -1.1946  0.8434
 7046SOL     OW22036   1.685   4.660   6.933  0.3472  0.2031  0.3361
 7046SOL    HW122037   1.688   4.588   6.863  1.2205 -0.8157  1.3725
 7046SOL    HW222038   1.591   4.670   6.966 -0.2850  1.4192 -1.6529
 7047SOL     OW22039   6.597   5.825   6.561  0.2820 -0.2198 -1.0182
 7047SOL    HW122040   6.563   5.906   6.608 -0.9660 -1.0538 -0.4519
 7047SOL    HW222041   6.626   5.850   6.469 -1.0790  0.7021 -1.2263
 7048SOL     OW22042   2.507   2.920   5.838  0.0392  0.0734  0.0955
 7048SOL    HW122043   2.458   2.833   5.844 -3.6388  1.9441 -0.1765
 7048SOL    HW222044   2.471   2.984   5.906  0.9775  2.1041 -1.2090
 7049SOL     OW22045   0.757   5.646   4.581 -0.0112 -0.0496  0.2564
 7049SOL    HW122046   0.669   5.685   4.608 -1.2773 -0.2289 -3.0768
 7049SOL    HW222047   0.769   5.557   4.625 -2.1677 -0.6297 -0.1834
 7050SOL     OW22048   3.238   6.586   6.730  0.4342 -0.6986 -0.2574
 7050SOL    HW122049   3.146   6.577   6.769  0.7597  0.6548  0.9099
 7050SOL    HW222050   3.300   6.525   6.778  0.4161 -0.5914 -0.0974
 7051SOL     OW22051   5.496   4.967   2.118  0.1545 -0.1584  0.3075
 7051SOL    HW122052   5.523   4.993   2.026 -0.3047 -0.6325  0.0347
 7051SOL    HW222053   5.496   5.048   2.177  2.0461 -0.1262  0.3048
 7052SOL     OW22054   2.341   6.749   5.834  0.0992  0.3706  0.4790
 7052SOL    HW122055   2.403   6.730   5.910 -0.5707 -0.8521  0.7330
 7052SOL    HW222056   2.301   6.840   5.845 -0.3236  0.0308  1.8227
 7053SOL     OW22057   5.162   0.359   2.391 -0.3317  0.0881 -0.0278
 7053SOL    HW122058   5.155   0.382   2.488  1.0453  1.4356 -0.2078
 7053SOL    HW222059   5.209   0.272   2.380 -0.8665 -0.2765  0.5140
 7054SOL     OW22060   4.221   2.722   5.591  0.3732 -0.6662  0.2480
 7054SOL    HW122061   4.307   2.721   5.644  1.2624 -1.0155 -1.1498
 7054SOL    HW222062   4.144   2.719   5.654  1.3561  0.4824  1.5895
 7055SOL     OW22063   6.957   6.369   0.830  0.0934  0.2470  0.4091
 7055SOL    HW122064   6.996   6.287   0.871 -0.0586 -0.0620 -0.0704
 7055SOL    HW222065   6.971   6.368   0.731 -1.2202  0.0773  0.2121
 7056SOL     OW22066   0.934   0.646   3.361  0.0938  0.4780  1.1407
 7056SOL    HW122067   0.871   0.716   3.395 -1.3808 -0.1391 -0.1921
 7056SOL    HW222068   0.897   0.606   3.277  2.1304 -0.1517  0.4812
 7057SOL     OW22069   1.889   0.079   2.598  0.2921 -0.2591 -0.4008
 7057SOL    HW122070   1.843   0.164   2.626  0.5928  0.1377 -1.1036
 7057SOL    HW222071   1.860   0.005   2.659 -1.4693 -0.0713 -0.9562
 7058SOL     OW22072   5.223   6.973   5.770  0.6893 -0.0769  0.5757
 7058SOL    HW122073   5.265   6.897   5.820  1.3219 -0.1469 -0.0353
 7058SOL    HW222074   5.263   6.977   5.678 -1.3831 -0.7831 -0.4167
 7059SOL     OW22075   4.503   2.459   5.971  0.2873  0.6030 -0.8890
 7059SOL    HW122076   4.595   2.420   5.975  0.8582  1.9564  0.7980
 7059SOL    HW222077   4.509   2.559   5.970 -1.1607  0.7258 -0.1872
 7060SOL     OW22078   6.909   1.431   2.102 -0.1868 -0.7397 -0.0823
 7060SOL    HW122079   6.992   1.375   2.103 -0.7452 -1.6343  2.0739
 7060SOL    HW222080   6.933   1.526   2.080  1.1894 -1.2494 -0.9001
 7061SOL     OW22081   6.475   4.372   1.548 -0.2133 -0.0052  0.2778
 7061SOL    HW122082   6.455   4.324   1.463  1.6602 -1.4130  0.5511
 7061SOL    HW222083   6.409   4.446   1.562 -1.0287 -0.2467 -1.9667
 7062SOL     OW22084   3.107   2.809   5.851  0.3398  0.6755 -0.2975
 7062SOL    HW122085   3.148   2.852   5.770 -0.3103  1.5203 -0.1814
 7062SOL    HW222086   3.167   2.822   5.930  0.6573  0.4222 -0.4934
 7063SOL     OW22087   4.239   5.519   0.841 -0.2700  0.2248 -0.6623
 7063SOL    HW122088   4.226   5.617   0.825 -0.7438  0.4101  0.7449
 7063SOL    HW222089   4.184   5.490   0.920 -0.6544 -1.3152 -1.4453
 7064SOL     OW22090   5.677   1.737   4.228  0.4730  0.4328 -0.1387
 7064SOL    HW122091   5.628   1.658   4.265 -1.8296  0.8227 -2.1490
 7064SOL    HW222092   5.680   1.810   4.296 -1.0820  0.1025  0.3089
 7065SOL     OW22093   6.368   5.012   1.366 -0.1456  0.1674  0.2763
 7065SOL    HW122094   6.454   5.033   1.412  0.5452 -1.1866 -0.3221
 7065SOL    HW222095   6.373   5.039   1.270 -1.2674  2.1966  0.7435
 7066SOL     OW22096   4.292   3.087   5.447  0.4647 -0.7989 -0.0511
 7066SOL    HW122097   4.337   3.051   5.529  2.2812 -1.2548 -1.1910
 7066SOL    HW222098   4.337   3.052   5.365  0.8266  2.1283 -1.2632
 7067SOL     OW22099   4.216   6.408   6.703  0.3121 -0.1683  0.5186
 7067SOL    HW122100   4.289   6.414   6.635  0.2052 -1.4987  0.2579
 7067SOL    HW222101   4.224   6.484   6.767 -0.4161  1.9701 -1.7505
 7068SOL     OW22102   1.489   1.368   2.019 -0.7906 -0.1509  0.0965
 7068SOL    HW122103   1.545   1.292   1.987 -0.0253  0.2348  0.4974
 7068SOL    HW222104   1.511   1.451   1.966 -0.3483  0.2099  0.8353
 7069SOL     OW22105   6.915   0.494   4.801 -0.4164  0.6737  0.7909
 7069SOL    HW122106   7.013   0.476   4.790 -0.4246  1.3564 -0.5085
 7069SOL    HW222107   6.881   0.546   4.723 -1.2807  2.6379  2.3866
 7070SOL     OW22108   2.150   3.132   5.327  0.5960 -0.2422  0.2204
 7070SOL    HW122109   2.155   3.047   5.274  0.5752  0.0891 -0.3187
 7070SOL    HW222110   2.242   3.173   5.333  0.2892  0.6831 -1.1578
 7071SOL     OW22111   3.361   1.435   2.059 -0.2324  0.1768 -0.3095
 7071SOL    HW122112   3.389   1.345   2.026 -0.0772  0.4698 -1.0060
 7071SOL    HW222113   3.318   1.485   1.983 -0.5416  0.5947  0.1396
 7072SOL     OW22114   5.142   1.639   3.173 -0.3379 -0.5032  0.1747
 7072SOL    HW122115   5.211   1.578   3.135 -2.7452 -2.1651 -1.9037
 7072SOL    HW222116   5.116   1.707   3.103 -1.2119 -0.2745  0.7127
 7073SOL     OW22117   6.542   5.414   0.749 -0.2667 -0.2262 -0.1392
 7073SOL    HW122118   6.504   5.386   0.661 -0.0687  0.4530 -0.4494
 7073SOL    HW222119   6.512   5.507   0.770 -0.4544 -0.4502  0.5994
 7074SOL     OW22120   5.263   3.982   1.167  0.3114 -0.1901  0.7254
 7074SOL    HW122121   5.330   4.054   1.186  0.6604 -0.9600  2.6134
 7074SOL    HW222122   5.297   3.924   1.093  0.9886  0.3603  0.5955
 7075SOL     OW22123   6.122   1.225   4.605 -0.0387  0.8046 -0.0845
 7075SOL    HW122124   6.177   1.230   4.522  0.6046 -0.6646  0.2124
 7075SOL    HW222125   6.045   1.287   4.597  2.0997  3.6457 -0.1354
 7076SOL     OW22126   5.093   4.758   3.129  0.0616 -0.4374 -0.4846
 7076SOL    HW122127   5.041   4.680   3.164 -0.1395  0.1794  0.6677
 7076SOL    HW222128   5.049   4.843   3.159 -1.3555  0.2368 -4.0695
 7077SOL     OW22129   6.516   0.914   5.488  0.3421 -0.0551  0.3697
 7077SOL    HW122130   6.582   0.915   5.563  0.0119 -1.8825  0.7449
 7077SOL    HW222131   6.521   0.826   5.441 -1.0160  0.2106 -0.3263
 7078SOL     OW22132   2.468   5.025   6.868 -0.0353 -0.2204 -0.0590
 7078SOL    HW122133   2.372   5.005   6.889 -0.3199  0.9139 -0.2099
 7078SOL    HW222134   2.505   5.089   6.935  1.6275 -3.0737  1.9312
 7079SOL     OW22135   5.011   1.189   0.406  0.5753 -0.4371  0.9053
 7079SOL    HW122136   5.044   1.145   0.490  0.7363 -3.7471 -0.7443
 7079SOL    HW222137   5.087   1.202   0.343  0.0348 -0.5628  0.2093
 7080SOL     OW22138   1.484   0.288   7.013  0.2483  0.1214 -0.2921
 7080SOL    HW122139   1.445   0.275   7.105 -2.0863  0.4305 -1.1727
 7080SOL    HW222140   1.457   0.211   6.955  2.3879 -0.4843 -0.5668
 7081SOL     OW22141   1.625   3.571   6.782  0.2817 -1.0500  0.0044
 7081SOL    HW122142   1.563   3.587   6.859  1.8382  0.6551  0.9763
 7081SOL    HW222143   1.653   3.658   6.742  4.3670 -1.4288  1.5841
 7082SOL     OW22144   0.816   2.426   0.185  0.3643 -0.3943  0.1664
 7082SOL    HW122145   0.866   2.494   0.132  0.6708 -1.7266 -1.2884
 7082SOL    HW222146   0.750   2.473   0.244  0.4783  1.1566 -0.8855
 7083SOL     OW22147   5.957   2.276   2.712 -0.1356 -0.2518 -0.8790
 7083SOL    HW122148   5.858   2.264   2.717 -0.2254  0.3027 -1.1521
 7083SOL    HW222149   5.986   2.337   2.786 -0.2543  0.9911 -1.8257
 7084SOL     OW22150   3.790   1.835   6.738  0.3168 -0.6176 -0.1630
 7084SOL    HW122151   3.721   1.783   6.688  0.9597 -2.1427  0.4730
 7084SOL    HW222152   3.843   1.773   6.796  0.1429  0.9550  1.7864
 7085SOL     OW22153   2.786   3.708   0.984 -0.4255  0.4317  0.0595
 7085SOL    HW122154   2.815   3.651   1.060  0.1781  1.0782  0.3190
 7085SOL    HW222155   2.854   3.704   0.911 -0.7944  0.1605 -0.2843
 7086SOL     OW22156   5.810   3.747   6.471  0.2097 -0.0229 -0.2635
 7086SOL    HW122157   5.734   3.682   6.466  0.8220 -0.7055 -0.8995
 7086SOL    HW222158   5.883   3.709   6.527  0.1661  0.5598  0.2024
 7087SOL     OW22159   2.575   4.582   2.587  0.6433  0.2468  0.0343
 7087SOL    HW122160   2.554   4.527   2.667 -0.4711  0.6842  0.0569
 7087SOL    HW222161   2.518   4.553   2.510 -1.5171  2.6840  0.5910
 7088SOL     OW22162   5.078   1.047   4.072  0.0607 -0.3665  0.2925
 7088SOL    HW122163   5.008   1.069   4.140 -0.5317 -0.2808 -0.3423
 7088SOL    HW222164   5.101   1.129   4.020  0.3852 -0.4720  0.2664
 7089SOL     OW22165   6.774   1.114   6.634 -0.7511  0.0091 -1.3608
 7089SOL    HW122166   6.832   1.162   6.701  0.1694 -2.6288 -0.1063
 7089SOL    HW222167   6.825   1.102   6.549  0.0105 -0.9741 -0.7826
 7090SOL     OW22168   0.642   6.223   6.797 -0.3457  0.2358  0.0192
 7090SOL    HW122169   0.549   6.218   6.761 -0.3534  0.8667 -0.0609
 7090SOL    HW222170   0.653   6.156   6.870 -0.1433 -1.5050 -1.5353
 7091SOL     OW22171   0.577   5.970   5.800 -0.3394  0.2110  0.2179
 7091SOL    HW122172   0.627   5.998   5.718 -1.5561  0.4676 -0.4586
 7091SOL    HW222173   0.641   5.928   5.865  0.7433  0.5252 -0.6058
 7092SOL     OW22174   2.926   3.771   3.513 -0.3696 -0.2455 -0.1937
 7092SOL    HW122175   2.893   3.682   3.543  0.4487 -0.9638 -1.3680
 7092SOL    HW222176   2.851   3.837   3.514 -1.2068 -1.1881 -0.2743
 7093SOL     OW22177   0.074   1.670   6.980  0.2236  0.0261 -0.4168
 7093SOL    HW122178   0.149   1.613   6.948  0.1793 -0.0302 -0.4195
 7093SOL    HW222179   0.107   1.730   7.053  0.0148 -0.7642  0.3417
 7094SOL     OW22180   5.706   2.966   0.590 -0.3109  0.4748 -0.4041
 7094SOL    HW122181   5.721   3.028   0.668 -0.4757  0.2500 -0.1902
 7094SOL    HW222182   5.732   2.873   0.617  0.6798  0.5664 -0.9673
 7095SOL     OW22183   2.496   3.439   1.168  0.3537  0.1817  0.9687
 7095SOL    HW122184   2.429   3.486   1.109  1.4536 -0.3148 -0.7481
 7095SOL    HW222185   2.447   3.377   1.229 -0.8842  1.1977  1.0666
 7096SOL     OW22186   5.114   2.220   4.062  0.1840  0.5910 -0.1329
 7096SOL    HW122187   5.064   2.144   4.021  1.8127  0.5950 -2.3041
 7096SOL    HW222188   5.148   2.194   4.152 -1.7347 -0.1893  0.3984
 7097SOL     OW22189   0.605   4.795   3.808  0.9832 -0.0611 -0.0037
 7097SOL    HW122190   0.675   4.788   3.879  1.5026  0.6370 -0.4358
 7097SOL    HW222191   0.634   4.743   3.727  0.4054 -0.8329  0.2736
 7098SOL     OW22192   5.196   1.328   5.597  0.1804 -0.4015  0.0169
 7098SOL    HW122193   5.137   1.408   5.610  1.7936  0.7029  0.9084
 7098SOL    HW222194   5.272   1.353   5.536  0.9561 -1.1129  0.6756
 7099SOL     OW22195   6.159   4.878   2.035  0.1193  0.2951 -0.3228
 7099SOL    HW122196   6.180   4.976   2.035 -0.3434  0.4218  1.2760
 7099SOL    HW222197   6.095   4.858   1.960 -2.5940  1.9219  1.3665
 7100SOL     OW22198   1.627   5.557   1.746 -0.1704  0.3400 -0.2015
 7100SOL    HW122199   1.669   5.470   1.770  0.1104  0.2227 -1.0628
 7100SOL    HW222200   1.527   5.547   1.743 -0.2062  0.3271  0.7220
 7101SOL     OW22201   3.917   2.077   1.491  0.2215 -0.1919 -0.0288
 7101SOL    HW122202   3.926   2.157   1.432 -1.3014 -0.3180 -0.4684
 7101SOL    HW222203   3.881   2.105   1.580  1.9573 -0.0849  0.6765
 7102SOL     OW22204   3.585   5.529   2.559  0.6034  0.7417 -0.4059
 7102SOL    HW122205   3.567   5.620   2.596 -0.2932  1.1986 -1.8663
 7102SOL    HW222206   3.684   5.516   2.551  0.8264  0.6709  1.9124
 7103SOL     OW22207   1.497   1.596   5.631 -0.1681  0.8576  0.7488
 7103SOL    HW122208   1.528   1.517   5.684 -1.9928 -0.3059  0.1837
 7103SOL    HW222209   1.405   1.621   5.659 -0.5788  1.1732 -0.7914
 7104SOL     OW22210   1.799   4.101   0.578 -0.0305 -0.1508  0.7433
 7104SOL    HW122211   1.857   4.104   0.659  0.1846 -0.9337  0.6278
 7104SOL    HW222212   1.847   4.142   0.501 -0.1395  0.3682  0.9434
 7105SOL     OW22213   5.844   4.791   2.607  0.1770  0.6110  0.1436
 7105SOL    HW122214   5.921   4.727   2.610  0.6490  1.1504 -0.4336
 7105SOL    HW222215   5.760   4.742   2.632  0.6520 -0.0469  0.4874
 7106SOL     OW22216   5.717   4.024   1.251  0.1327 -0.1491 -0.2532
 7106SOL    HW122217   5.782   3.986   1.185 -0.1068 -1.6050  0.2973
 7106SOL    HW222218   5.766   4.076   1.320  0.4911  0.4864 -0.9746
 7107SOL     OW22219   3.709   5.662   6.494  0.3056  0.2220  0.6145
 7107SOL    HW122220   3.731   5.698   6.403 -2.7418  0.1929 -0.2336
 7107SOL    HW222221   3.744   5.568   6.501 -1.6618 -0.7794 -1.6329
 7108SOL     OW22222   5.133   6.912   3.654 -0.4770  0.0208 -0.1006
 7108SOL    HW122223   5.051   6.952   3.695 -0.3256 -0.2359  0.4530
 7108SOL    HW222224   5.107   6.857   3.575 -0.8192  0.0952 -0.0410
 7109SOL     OW22225   3.845   3.237   1.804  0.1138  0.0450  0.1089
 7109SOL    HW122226   3.896   3.321   1.822  0.2869 -0.0956  0.2883
 7109SOL    HW222227   3.870   3.201   1.714  0.9967 -0.4912  0.5548
 7110SOL     OW22228   6.176   3.318   0.845  0.4811 -0.6802  1.0026
 7110SOL    HW122229   6.237   3.304   0.767  1.9445 -0.4488  2.0681
 7110SOL    HW222230   6.140   3.412   0.843 -0.8796 -1.1857 -0.3015
 7111SOL     OW22231   4.157   5.491   6.117 -0.0919 -0.4532  0.4214
 7111SOL    HW122232   4.220   5.415   6.134 -0.3487 -0.5806  0.8419
 7111SOL    HW222233   4.088   5.494   6.190 -0.7503 -0.5004 -0.1840
 7112SOL     OW22234   2.906   5.821   3.379  0.0565 -0.3698 -0.1807
 7112SOL    HW122235   2.865   5.835   3.289  0.6563  0.4711 -0.3419
 7112SOL    HW222236   2.835   5.797   3.445 -0.9615  2.2796 -0.1753
 7113SOL     OW22237   6.214   5.004   3.779 -0.8324 -0.4779  0.9209
 7113SOL    HW122238   6.304   4.970   3.806  0.1159  0.8113 -0.4532
 7113SOL    HW222239   6.149   4.928   3.776  0.6394 -1.7580  0.2072
 7114SOL     OW22240   0.934   6.827   2.737  0.1081 -0.1272  0.6268
 7114SOL    HW122241   0.985   6.773   2.804 -0.7392  1.1821  2.3802
 7114SOL    HW222242   0.836   6.818   2.755 -0.2316 -0.8195 -1.3142
 7115SOL     OW22243   3.518   3.694   4.988 -0.1229 -0.0386 -0.3827
 7115SOL    HW122244   3.532   3.663   4.894  0.1048 -1.6495  0.1467
 7115SOL    HW222245   3.599   3.670   5.043 -0.8463 -0.4450  0.5328
 7116SOL     OW22246   6.620   2.673   3.357 -0.3537 -0.6791  0.2952
 7116SOL    HW122247   6.693   2.638   3.299 -1.4585 -0.1726 -1.4713
 7116SOL    HW222248   6.657   2.695   3.447  1.7447 -0.1033 -0.6433
 7117SOL     OW22249   5.645   0.980   4.742  0.5286  0.4449  0.1086
 7117SOL    HW122250   5.627   0.965   4.645  1.7859  0.8148 -0.2020
 7117SOL    HW222251   5.617   0.899   4.794  0.6017 -0.0844 -0.6632
 7118SOL     OW22252   0.525   5.805   4.641  0.3024  0.2677  0.0894
 7118SOL    HW122253   0.426   5.810   4.632  0.4328  0.2362 -1.9074
 7118SOL    HW222254   0.565   5.895   4.619  0.7936 -0.1998 -1.0158
 7119SOL     OW22255   1.076   0.632   0.255 -0.0498  0.2503 -0.1579
 7119SOL    HW122256   1.135   0.583   0.320 -0.4449 -1.5007 -1.0604
 7119SOL    HW222257   1.128   0.707   0.214  1.4696 -1.0281 -0.6723
 7120SOL     OW22258   1.586   2.162   3.967  0.0446  0.4013  0.1910
 7120SOL    HW122259   1.601   2.189   3.872  0.8811 -0.0903  0.1735
 7120SOL    HW222260   1.518   2.089   3.970 -1.7315  1.9649  0.1865
 7121SOL     OW22261   2.001   5.316   1.322 -0.1305  0.1622  0.2742
 7121SOL    HW122262   2.079   5.375   1.341 -0.9982  0.5360  3.1532
 7121SOL    HW222263   1.986   5.310   1.223  3.8564 -0.4487 -0.4332
 7122SOL     OW22264   6.336   2.491   5.516  0.8353 -0.1122 -0.2012
 7122SOL    HW122265   6.377   2.414   5.467  2.9986 -0.6097  2.1414
 7122SOL    HW222266   6.384   2.503   5.603 -3.2126  0.1676  2.2300
 7123SOL     OW22267   0.364   2.146   2.777  0.7022 -0.2364  0.0824
 7123SOL    HW122268   0.313   2.113   2.856 -0.9128  1.6325 -0.0999
 7123SOL    HW222269   0.375   2.072   2.710 -2.2141 -0.6487 -0.0577
 7124SOL     OW22270   3.690   6.617   6.593  0.8605  0.1110 -0.6004
 7124SOL    HW122271   3.709   6.552   6.667 -0.7861 -0.9436 -1.0613
 7124SOL    HW222272   3.591   6.619   6.575  1.1855  0.6711 -2.4913
 7125SOL     OW22273   2.687   5.625   3.473 -0.1456 -0.0831  0.3514
 7125SOL    HW122274   2.643   5.644   3.385 -0.3813 -2.2768 -0.0464
 7125SOL    HW222275   2.689   5.709   3.528  0.6294  1.5343 -1.9854
 7126SOL     OW22276   1.626   2.129   2.204 -0.3045  0.5434 -0.1590
 7126SOL    HW122277   1.676   2.209   2.238  0.0687 -0.0560  0.7609
 7126SOL    HW222278   1.531   2.154   2.188 -0.7620  0.6543  2.3183
 7127SOL     OW22279   5.706   1.719   4.837  0.1680  0.5295 -0.0034
 7127SOL    HW122280   5.702   1.703   4.738  2.5846  1.0874 -0.2439
 7127SOL    HW222281   5.723   1.816   4.855  0.2719  0.3459  0.9489
 7128SOL     OW22282   2.141   1.432   3.771 -0.1926 -0.0285 -0.0974
 7128SOL    HW122283   2.079   1.506   3.746 -1.9835 -1.4917 -0.1750
 7128SOL    HW222284   2.100   1.379   3.845  2.1600  0.4632  1.6664
 7129SOL     OW22285   0.976   0.918   6.644 -0.6238  0.2381 -0.0493
 7129SOL    HW122286   1.007   0.951   6.734  0.7167  1.5838 -0.9603
 7129SOL    HW222287   0.954   0.821   6.651  1.9147 -0.3606  1.1986
 7130SOL     OW22288   6.426   0.461   1.318 -0.1791 -0.2131 -0.3909
 7130SOL    HW122289   6.493   0.394   1.286  1.8812  2.1430 -1.3637
 7130SOL    HW222290   6.347   0.462   1.257  0.1903 -1.0814 -0.9035
 7131SOL     OW22291   1.023   0.706   2.103 -0.3910  0.4581 -0.3908
 7131SOL    HW122292   0.924   0.717   2.099 -0.3825  0.2876 -1.3469
 7131SOL    HW222293   1.062   0.777   2.161 -0.9986  1.0414 -0.6749
 7132SOL     OW22294   5.514   4.298   4.278  0.8280 -0.3367  0.3216
 7132SOL    HW122295   5.562   4.211   4.290  1.4208 -0.0656 -0.0459
 7132SOL    HW222296   5.472   4.301   4.187  2.7409  0.6627 -0.5879
 7133SOL     OW22297   6.490   3.488   3.580  0.4889 -0.5715 -0.6347
 7133SOL    HW122298   6.472   3.509   3.676  1.4426  2.1655 -0.9659
 7133SOL    HW222299   6.406   3.457   3.536 -0.6310  0.7224  0.4939
 7134SOL     OW22300   2.838   2.517   5.638 -0.2936 -0.5799  0.2520
 7134SOL    HW122301   2.925   2.558   5.667 -0.0695  0.2086 -1.4599
 7134SOL    HW222302   2.851   2.418   5.626  0.5281 -0.3857 -0.5450
 7135SOL     OW22303   1.761   3.460   6.553  0.5392  0.5834 -0.6436
 7135SOL    HW122304   1.853   3.499   6.551  0.1860  1.6372  1.1744
 7135SOL    HW222305   1.734   3.441   6.647  0.1699 -3.0152 -1.3189
 7136SOL     OW22306   3.956   6.198   2.856 -0.0862  0.0247 -0.5819
 7136SOL    HW122307   3.930   6.293   2.841 -1.1002 -0.0760  0.4489
 7136SOL    HW222308   4.055   6.192   2.871 -0.2707  1.2159  1.4804
 7137SOL     OW22309   6.455   4.776   2.056 -0.1561  0.9532 -0.1721
 7137SOL    HW122310   6.388   4.716   2.099 -0.3724 -0.7656 -2.6509
 7137SOL    HW222311   6.545   4.761   2.096 -0.5463  0.3703  0.5055
 7138SOL     OW22312   6.516   3.242   3.231  0.5168  0.5782 -0.0166
 7138SOL    HW122313   6.484   3.235   3.325 -1.6055 -1.2570 -0.7758
 7138SOL    HW222314   6.612   3.267   3.230  0.4910  1.0058  2.6121
 7139SOL     OW22315   5.673   1.971   3.550 -0.3208 -0.4146  0.4918
 7139SOL    HW122316   5.719   2.060   3.540  0.7239 -1.0200 -0.2738
 7139SOL    HW222317   5.678   1.942   3.646  0.6571 -0.3207  0.4846
 7140SOL     OW22318   6.856   1.703   0.525  0.5092  0.3355  0.0891
 7140SOL    HW122319   6.833   1.666   0.615  3.6236 -0.6772  0.5516
 7140SOL    HW222320   6.857   1.630   0.457 -0.4483  0.8666 -0.5267
 7141SOL     OW22321   1.712   1.385   2.724 -0.7634 -0.0206 -0.1658
 7141SOL    HW122322   1.692   1.294   2.760 -0.2157 -0.2298 -0.3810
 7141SOL    HW222323   1.724   1.449   2.800 -0.5624 -0.2591  0.0060
 7142SOL     OW22324   2.125   1.883   4.861 -0.1988  0.5925 -0.6834
 7142SOL    HW122325   2.039   1.834   4.846 -1.4330  2.1310  0.9029
 7142SOL    HW222326   2.121   1.972   4.817 -0.6134  1.8276  1.7078
 7143SOL     OW22327   3.215   0.715   5.060 -0.6456  0.2542  0.4090
 7143SOL    HW122328   3.281   0.781   5.026 -0.4046  0.1196  0.6112
 7143SOL    HW222329   3.223   0.630   5.008  0.0965 -0.1390  1.1488
 7144SOL     OW22330   6.428   0.415   6.914 -0.5357  0.0874 -0.3642
 7144SOL    HW122331   6.460   0.491   6.972  0.2553  0.1392 -0.8529
 7144SOL    HW222332   6.438   0.441   6.818  0.1893 -0.8163 -0.5414
 7145SOL     OW22333   0.393   3.381   6.012 -0.0948 -0.1079  0.3169
 7145SOL    HW122334   0.423   3.419   6.099 -0.5926 -1.2137  0.9823
 7145SOL    HW222335   0.473   3.352   5.959  0.2665  1.3741 -0.0057
 7146SOL     OW22336   4.489   0.312   3.141  0.3622 -0.8583  0.4176
 7146SOL    HW122337   4.540   0.354   3.065 -0.3776  0.7662  0.7608
 7146SOL    HW222338   4.422   0.378   3.175 -0.5810 -2.2332  1.2870
 7147SOL     OW22339   1.661   0.742   6.929  0.0173 -0.3256 -0.1115
 7147SOL    HW122340   1.649   0.642   6.927  3.7965 -1.0843 -4.6862
 7147SOL    HW222341   1.599   0.784   6.863  0.6791 -0.1628 -0.6471
 7148SOL     OW22342   1.111   5.898   5.182 -0.6022 -0.0676  0.3880
 7148SOL    HW122343   1.080   5.982   5.138 -1.3217 -0.8725 -0.7047
 7148SOL    HW222344   1.202   5.912   5.222 -0.5589  1.1145 -0.1080
 7149SOL     OW22345   5.714   2.163   1.043  0.2471  0.3779  0.2547
 7149SOL    HW122346   5.675   2.210   0.964 -1.1784 -2.5915 -0.9463
 7149SOL    HW222347   5.644   2.104   1.084  1.9747 -0.8489  1.5535
 7150SOL     OW22348   5.100   5.219   1.696 -0.2161  0.2159  0.2488
 7150SOL    HW122349   5.036   5.195   1.623  0.8808  0.2148 -0.7407
 7150SOL    HW222350   5.150   5.137   1.725  0.8908  0.5925 -0.5334
 7151SOL     OW22351   5.270   6.174   1.135  0.0620  0.3587 -0.7215
 7151SOL    HW122352   5.286   6.175   1.234  1.2790  0.4847 -0.8988
 7151SOL    HW222353   5.352   6.140   1.088 -0.9667 -1.0122 -1.6250
 7152SOL     OW22354   3.748   4.606   0.445  0.4212  0.3287  0.5220
 7152SOL    HW122355   3.844   4.622   0.467  0.5207 -2.2033  2.2998
 7152SOL    HW222356   3.699   4.575   0.526 -1.4756 -0.3772 -0.7993
 7153SOL     OW22357   3.357   6.674   5.647 -0.3127  0.2629  0.2821
 7153SOL    HW122358   3.379   6.647   5.741 -0.1813 -0.5436  0.0271
 7153SOL    HW222359   3.349   6.592   5.590  0.0174  0.7668 -0.5003
 7154SOL     OW22360   0.576   3.058   3.225 -0.0410 -0.1897  0.4158
 7154SOL    HW122361   0.492   3.076   3.275 -1.2505  1.0975 -1.9127
 7154SOL    HW222362   0.568   2.972   3.175  0.3565 -0.4433  0.7742
 7155SOL     OW22363   6.823   2.802   4.536  1.1771 -0.2087 -0.6662
 7155SOL    HW122364   6.856   2.765   4.449  0.7861 -1.4750 -0.2988
 7155SOL    HW222365   6.901   2.826   4.593  1.4474 -0.3682 -0.9623
 7156SOL     OW22366   0.032   3.478   1.843  0.1639 -0.1213 -0.1510
 7156SOL    HW122367   0.106   3.414   1.864 -1.4086 -2.4280 -1.1764
 7156SOL    HW222368   0.058   3.570   1.871  2.5188 -1.1932  1.4882
 7157SOL     OW22369   3.158   3.644   1.167 -0.1853  0.2067  0.0996
 7157SOL    HW122370   3.066   3.606   1.165  0.7843 -2.2859 -1.0497
 7157SOL    HW222371   3.216   3.586   1.225  1.3635 -0.1339 -1.7140
 7158SOL     OW22372   5.939   0.004   4.874  0.0402 -0.3304 -0.4629
 7158SOL    HW122373   5.841  -0.008   4.862  0.0262 -1.3811  0.5199
 7158SOL    HW222374   5.957   0.092   4.918 -0.4176  0.1177 -1.1709
 7159SOL     OW22375   5.657   5.912   2.765 -0.5451  0.1928 -0.7213
 7159SOL    HW122376   5.703   5.936   2.679  0.0410  1.4604 -0.0773
 7159SOL    HW222377   5.720   5.862   2.824 -1.5474 -2.4948 -1.7720
 7160SOL     OW22378   0.896   6.525   1.993  0.1762  0.4634  1.0196
 7160SOL    HW122379   0.807   6.564   1.972  0.3043  1.1512  1.7087
 7160SOL    HW222380   0.938   6.489   1.910  0.2291  2.1495  0.2940
 7161SOL     OW22381   6.385   6.621   2.012  0.0467  0.6105 -0.7179
 7161SOL    HW122382   6.481   6.644   1.995 -0.0994  0.7066 -1.4414
 7161SOL    HW222383   6.338   6.609   1.924 -0.6389  0.7217 -0.3691
 7162SOL     OW22384   0.093   6.429   1.321 -0.6716 -0.2360 -0.1988
 7162SOL    HW122385   0.046   6.495   1.380 -0.5651  0.1467 -0.5335
 7162SOL    HW222386   0.050   6.428   1.231 -1.5253 -1.6151  0.2036
 7163SOL     OW22387   3.248   1.204   5.349  0.4432 -0.2074 -0.0107
 7163SOL    HW122388   3.345   1.227   5.361  0.7976 -1.3501 -0.4959
 7163SOL    HW222389   3.201   1.278   5.302  1.8009 -0.9159 -2.6530
 7164SOL     OW22390   0.929   4.201   2.626  0.9780 -0.5964  0.2752
 7164SOL    HW122391   0.899   4.139   2.698  0.4915 -1.9077 -0.9974
 7164SOL    HW222392   0.923   4.155   2.538  2.4260  0.6564 -0.5291
 7165SOL     OW22393   2.461   6.029   3.395 -0.6260  0.4207 -0.1904
 7165SOL    HW122394   2.555   6.045   3.425 -0.7863  1.2621 -0.0971
 7165SOL    HW222395   2.409   6.114   3.403 -1.5909 -0.2121  0.4489
 7166SOL     OW22396   4.767   4.195   5.916  0.6495  0.5968 -0.2478
 7166SOL    HW122397   4.739   4.177   6.010  1.8828 -0.9895 -0.1308
 7166SOL    HW222398   4.847   4.255   5.915 -0.1021  1.6160 -0.3644
 7167SOL     OW22399   3.000   3.714   6.711  0.6006  0.3132  0.1389
 7167SOL    HW122400   3.007   3.809   6.682 -0.7783  0.8428  1.4090
 7167SOL    HW222401   3.060   3.657   6.655 -1.0604  1.4062 -2.9873
 7168SOL     OW22402   5.316   0.721   4.752  0.5173 -0.5297 -0.3773
 7168SOL    HW122403   5.312   0.807   4.701 -0.3900 -0.1130  0.3585
 7168SOL    HW222404   5.229   0.673   4.740  0.2902 -0.4167  0.7708
 7169SOL     OW22405   3.976   1.705   2.855  0.0528  0.0452 -0.3428
 7169SOL    HW122406   4.027   1.760   2.789 -0.0141 -0.7868 -1.1069
 7169SOL    HW222407   3.959   1.614   2.817 -0.5018 -0.2592  0.5915
 7170SOL     OW22408   3.094   1.027   5.476  0.2382 -0.2163  0.9697
 7170SOL    HW122409   3.157   1.088   5.427  0.0397 -0.2295  0.6954
 7170SOL    HW222410   3.102   0.935   5.438 -1.9978  0.3336 -1.0531
 7171SOL     OW22411   2.048   2.106   3.809  0.1650  0.1198  0.0808
 7171SOL    HW122412   2.039   2.204   3.790  0.2932  0.0863 -0.1721
 7171SOL    HW222413   1.979   2.077   3.875  1.3458  0.7819  1.6664
 7172SOL     OW22414   0.342   4.017   2.490  0.1549 -0.3228 -0.3031
 7172SOL    HW122415   0.299   4.086   2.548  1.1376 -1.1888  1.5450
 7172SOL    HW222416   0.273   3.951   2.461 -0.6818  1.0607 -1.6090
 7173SOL     OW22417   2.781   0.817   1.719  0.1923  0.4542 -0.0679
 7173SOL    HW122418   2.826   0.905   1.732  0.3449  0.3118  0.3805
 7173SOL    HW222419   2.771   0.771   1.807  3.0252 -1.4110 -0.6096
 7174SOL     OW22420   3.253   1.751   6.211 -0.2398  0.1058 -0.0797
 7174SOL    HW122421   3.266   1.699   6.127  0.2697  1.9149 -1.1898
 7174SOL    HW222422   3.191   1.702   6.272 -1.2269 -0.9237 -1.8301
 7175SOL     OW22423   3.377   1.177   0.333  0.2341  0.3588  0.3274
 7175SOL    HW122424   3.340   1.164   0.425 -1.0920 -0.7449 -0.3247
 7175SOL    HW222425   3.336   1.110   0.271 -0.9674  2.7460 -1.6505
 7176SOL     OW22426   1.785   3.793   2.396  0.5916  0.2881  0.0126
 7176SOL    HW122427   1.786   3.872   2.334 -1.5051  0.0896 -0.3257
 7176SOL    HW222428   1.860   3.802   2.461  0.7305  2.2889 -0.3481
 7177SOL     OW22429   6.171   2.127   0.502 -0.0739  0.5186 -0.1801
 7177SOL    HW122430   6.171   2.037   0.458 -0.0022 -0.3102  1.4462
 7177SOL    HW222431   6.085   2.141   0.550  1.2293 -0.2946  2.6165
 7178SOL     OW22432   5.199   2.104   2.585  0.3825  0.8031 -0.1096
 7178SOL    HW122433   5.101   2.115   2.568  0.4244 -0.4323 -1.3161
 7178SOL    HW222434   5.250   2.125   2.502  0.9673 -0.6159 -0.1417
 7179SOL     OW22435   5.846   6.958   5.570  0.0149 -0.1691  0.3323
 7179SOL    HW122436   5.941   6.927   5.582 -0.1024 -0.4205  0.6289
 7179SOL    HW222437   5.793   6.887   5.525  0.1319  0.2527 -0.4802
 7180SOL     OW22438   4.349   2.154   6.274 -0.6556 -0.2873 -0.4691
 7180SOL    HW122439   4.337   2.252   6.257  1.6333  0.2461  0.7109
 7180SOL    HW222440   4.364   2.139   6.372  1.0766 -1.5471 -0.8915
 7181SOL     OW22441   1.635   4.359   0.687 -0.1656  0.5979 -0.1637
 7181SOL    HW122442   1.607   4.297   0.760  0.0961  0.5131 -0.1361
 7181SOL    HW222443   1.617   4.316   0.598  2.0334 -0.4534 -0.1608
 7182SOL     OW22444   6.294   3.425   1.789  0.2607 -0.4320 -0.2218
 7182SOL    HW122445   6.326   3.348   1.844  1.0143 -0.2057 -0.3384
 7182SOL    HW222446   6.194   3.431   1.795  0.2792 -0.8218  0.5714
 7183SOL     OW22447   5.200   6.384   2.168 -0.4444  0.3405  0.2763
 7183SOL    HW122448   5.119   6.326   2.180 -0.4054  0.5405  1.7336
 7183SOL    HW222449   5.282   6.331   2.189 -0.3999  0.8350  1.4732
 7184SOL     OW22450   5.165   2.581   3.410  0.0815  0.3562 -0.2942
 7184SOL    HW122451   5.243   2.636   3.441  1.0233 -0.2292 -1.5504
 7184SOL    HW222452   5.081   2.635   3.417  0.6829  1.2253  0.4552
 7185SOL     OW22453   6.079   1.196   5.652  0.6716 -0.7862  0.1502
 7185SOL    HW122454   6.147   1.254   5.607  0.6751 -0.0611  1.0636
 7185SOL    HW222455   5.994   1.197   5.600  0.9177 -0.5940 -0.2546
 7186SOL     OW22456   3.723   0.842   3.158 -0.1309 -0.3600 -0.2129
 7186SOL    HW122457   3.746   0.939   3.153 -0.4206 -0.3472 -2.0933
 7186SOL    HW222458   3.636   0.826   3.111 -0.6775 -1.3826  1.0659
 7187SOL     OW22459   3.476   3.642   2.566 -0.2235 -0.1771 -0.2699
 7187SOL    HW122460   3.518   3.716   2.619 -0.2619 -0.0869 -0.3638
 7187SOL    HW222461   3.545   3.572   2.546 -0.5204 -0.8971  1.0771
 7188SOL     OW22462   6.398   2.290   1.422 -0.1734 -0.5493  0.2133
 7188SOL    HW122463   6.453   2.354   1.475  0.9070 -0.7517 -0.6136
 7188SOL    HW222464   6.394   2.202   1.470 -0.2626 -0.3597  0.5555
 7189SOL     OW22465   1.360   2.242   0.422 -0.0489 -0.0293  0.2589
 7189SOL    HW122466   1.267   2.278   0.425  0.2087  0.7222 -0.5262
 7189SOL    HW222467   1.405   2.273   0.339  0.7788 -0.7107  0.4424
 7190SOL     OW22468   3.929   5.459   0.222 -0.7787 -0.6686 -0.5888
 7190SOL    HW122469   3.991   5.389   0.258 -0.7080  0.2119  1.0993
 7190SOL    HW222470   3.968   5.498   0.138 -0.1793 -1.7038 -0.8116
 7191SOL     OW22471   1.628   3.169   3.050  0.0588 -0.1435  0.2263
 7191SOL    HW122472   1.671   3.260   3.048 -0.2627  0.0697  1.6914
 7191SOL    HW222473   1.612   3.138   2.957  1.0801  0.8747 -0.3213
 7192SOL     OW22474   6.400   5.133   2.803 -0.0288  0.1618  0.2049
 7192SOL    HW122475   6.494   5.164   2.819  0.5721 -1.6309  0.3502
 7192SOL    HW222476   6.344   5.157   2.882  1.3651 -2.6220  2.2198
 7193SOL     OW22477   1.251   6.325   5.054  0.0518  0.1704  0.8001
 7193SOL    HW122478   1.323   6.329   5.122  0.1405 -2.4781  0.9419
 7193SOL    HW222479   1.256   6.239   5.003 -2.5592  0.2003  0.3159
 7194SOL     OW22480   3.119   1.887   2.760 -0.4330  0.2090 -0.5608
 7194SOL    HW122481   3.214   1.858   2.743 -0.3511  0.0317  0.1762
 7194SOL    HW222482   3.119   1.970   2.815 -0.7162 -0.0177 -0.2183
 7195SOL     OW22483   0.506   6.231   1.464  0.1555  0.0096  0.4785
 7195SOL    HW122484   0.521   6.287   1.546 -1.1340  1.5703 -0.2813
 7195SOL    HW222485   0.584   6.242   1.402  0.7940 -0.5827  1.1624
 7196SOL     OW22486   4.588   2.516   1.168 -0.5860  0.0308  0.2885
 7196SOL    HW122487   4.619   2.611   1.176  0.2595 -0.1859 -0.3123
 7196SOL    HW222488   4.532   2.506   1.086  0.7894 -0.3564 -0.6283
 7197SOL     OW22489   1.751   1.371   5.802 -0.2681  0.2719  0.2845
 7197SOL    HW122490   1.812   1.365   5.881  0.3816  1.7541 -0.0766
 7197SOL    HW222491   1.665   1.323   5.822 -0.1312  0.6632  1.8993
 7198SOL     OW22492   5.069   4.672   1.393 -0.0152 -0.1763  0.1385
 7198SOL    HW122493   5.122   4.734   1.450  1.1410 -0.7130 -0.3218
 7198SOL    HW222494   5.026   4.602   1.450  2.1366 -1.4489  0.2901
 7199SOL     OW22495   2.322   6.137   1.898  1.0000 -0.0744  0.5242
 7199SOL    HW122496   2.415   6.112   1.925  0.7484 -2.3475 -0.4321
 7199SOL    HW222497   2.279   6.059   1.852 -1.2958  1.0027  0.6908
 7200SOL     OW22498   0.613   1.681   1.909  0.2217  0.6547 -0.2509
 7200SOL    HW122499   0.636   1.607   1.845  0.0009  1.6905 -1.5615
 7200SOL    HW222500   0.695   1.707   1.960  0.4136 -0.1581 -0.1205
 7201SOL     OW22501   0.510   5.703   3.720 -0.5365 -0.2039  0.1085
 7201SOL    HW122502   0.559   5.790   3.709 -1.0076 -0.0869 -1.2766
 7201SOL    HW222503   0.418   5.712   3.682 -1.2540 -0.7629  1.6511
 7202SOL     OW22504   0.460   4.807   4.672  0.3494 -0.7468  0.6129
 7202SOL    HW122505   0.553   4.802   4.708  1.7600 -0.8890 -2.6827
 7202SOL    HW222506   0.443   4.899   4.637 -0.7799 -0.7092  1.2334
 7203SOL     OW22507   1.592   0.345   4.632  0.6375 -0.5136  0.4745
 7203SOL    HW122508   1.583   0.325   4.730  0.6867  3.3452  1.4440
 7203SOL    HW222509   1.679   0.309   4.598  1.0749 -1.0851  2.1120
 7204SOL     OW22510   0.471   4.097   5.817 -0.4608  0.2659 -0.2748
 7204SOL    HW122511   0.434   4.190   5.824  0.1580  0.4818  0.2270
 7204SOL    HW222512   0.555   4.099   5.763 -0.9345 -0.1541 -1.0429
 7205SOL     OW22513   3.966   0.019   2.467  0.2664  0.0132  0.2297
 7205SOL    HW122514   4.013  -0.039   2.400  0.5659 -1.6290  1.7896
 7205SOL    HW222515   4.032   0.080   2.511  0.1984  0.5537 -0.3974
 7206SOL     OW22516   3.744   4.970   2.091  0.6300 -0.6919  0.0677
 7206SOL    HW122517   3.809   4.921   2.148 -0.2088 -2.3225 -0.3274
 7206SOL    HW222518   3.683   4.905   2.045 -0.3522  0.7032 -0.6985
 7207SOL     OW22519   5.085   1.868   4.966  0.0761  0.2759 -0.9016
 7207SOL    HW122520   5.083   1.805   4.888  0.3819  1.1807 -1.6582
 7207SOL    HW222521   5.102   1.961   4.933  1.7068  0.4713  0.3582
 7208SOL     OW22522   0.135   4.329   1.138  0.3017  0.0892  0.1467
 7208SOL    HW122523   0.056   4.382   1.107 -0.8569 -1.2244  0.7500
 7208SOL    HW222524   0.128   4.235   1.105  0.8008 -0.4590  1.5130
 7209SOL     OW22525   5.813   5.228   2.470 -0.2088 -0.7771  0.8547
 7209SOL    HW122526   5.785   5.143   2.514  2.4341 -1.0628  2.1860
 7209SOL    HW222527   5.858   5.287   2.537 -1.2375  1.3616 -0.2295
 7210SOL     OW22528   5.727   5.997   1.074 -0.1328 -0.3923 -0.3150
 7210SOL    HW122529   5.708   6.005   0.976  1.6759 -1.4390 -0.7921
 7210SOL    HW222530   5.701   5.905   1.105 -2.4277  0.5008  0.6660
 7211SOL     OW22531   5.489   4.450   3.266 -0.4870 -0.2164  0.4562
 7211SOL    HW122532   5.565   4.396   3.230 -0.4318  0.1255  0.0499
 7211SOL    HW222533   5.513   4.482   3.358 -0.9960 -1.8359  1.1865
 7212SOL     OW22534   6.430   5.582   0.394 -0.4637 -0.1312 -0.3030
 7212SOL    HW122535   6.419   5.591   0.295  0.7439  0.4883 -0.4013
 7212SOL    HW222536   6.442   5.673   0.434 -2.2655 -0.2569  0.6081
 7213SOL     OW22537   6.773   3.825   0.328  0.3867  0.2223 -0.1230
 7213SOL    HW122538   6.766   3.852   0.424  0.1506  1.0812 -0.3726
 7213SOL    HW222539   6.768   3.726   0.321  3.2029 -0.0827  1.0017
 7214SOL     OW22540   6.142   5.627   3.136  0.4821 -0.2840 -0.2312
 7214SOL    HW122541   6.128   5.530   3.154  0.4532 -0.1584  0.4559
 7214SOL    HW222542   6.085   5.681   3.198 -1.5179  0.1743 -2.3491
 7215SOL     OW22543   5.543   6.842   6.640 -0.5274 -0.4969  0.1900
 7215SOL    HW122544   5.471   6.864   6.575 -2.2876  0.9148  2.4525
 7215SOL    HW222545   5.594   6.925   6.662  0.6165 -1.1306 -0.0093
 7216SOL     OW22546   1.532   3.324   4.949 -0.8433  0.4406  0.5893
 7216SOL    HW122547   1.631   3.310   4.961 -0.7527  1.1248  0.6907
 7216SOL    HW222548   1.515   3.357   4.856 -0.9580  0.5207  0.6394
 7217SOL     OW22549   5.441   3.753   3.012 -0.2483  0.5159 -0.1232
 7217SOL    HW122550   5.353   3.769   3.056  0.4682  0.0384  1.5893
 7217SOL    HW222551   5.476   3.839   2.974  0.5737  1.7701  3.1749
 7218SOL     OW22552   4.890   0.300   5.258 -0.0621  0.3830  0.8106
 7218SOL    HW122553   4.799   0.262   5.241 -0.1708  1.1763 -0.5313
 7218SOL    HW222554   4.912   0.294   5.355 -1.1397 -0.7074  1.0031
 7219SOL     OW22555   3.932   2.090   2.901 -0.0676  1.3349  0.6090
 7219SOL    HW122556   3.924   2.018   2.970  2.8827  2.9328  2.8532
 7219SOL    HW222557   3.841   2.125   2.879 -1.3491 -1.1957  1.4627
 7220SOL     OW22558   2.831   5.233   4.928 -0.3489  0.1774  0.1056
 7220SOL    HW122559   2.833   5.244   5.027  1.2120  1.0854  0.0015
 7220SOL    HW222560   2.736   5.226   4.897 -0.8884  0.6990  1.5700
 7221SOL     OW22561   5.017   1.666   6.792 -0.0639 -0.2321  0.2949
 7221SOL    HW122562   4.921   1.683   6.812  0.0994  0.2027  0.7196
 7221SOL    HW222563   5.026   1.636   6.697 -0.4080  1.8041 -0.4356
 7222SOL     OW22564   3.711   0.097   2.532  0.1727  0.0100 -0.4598
 7222SOL    HW122565   3.802   0.076   2.495  0.5354 -1.2832  1.0459
 7222SOL    HW222566   3.679   0.184   2.494  1.8458  0.2831 -1.3554
 7223SOL     OW22567   5.107   6.796   5.373  0.3358  0.2993  0.4967
 7223SOL    HW122568   5.164   6.876   5.394 -0.3472  1.6292 -2.2736
 7223SOL    HW222569   5.011   6.817   5.392  0.3764 -0.8166  2.1354
 7224SOL     OW22570   4.044   1.916   5.367 -0.4249 -0.1056 -0.4093
 7224SOL    HW122571   4.076   1.908   5.272 -0.0729  0.0738 -0.3098
 7224SOL    HW222572   4.049   1.827   5.412  0.5236  0.0279 -0.2169
 7225SOL     OW22573   0.411   2.815   3.078 -0.8808  0.1193  0.5326
 7225SOL    HW122574   0.389   2.818   2.980 -0.1259 -0.9589  0.3203
 7225SOL    HW222575   0.402   2.721   3.111  2.7806 -0.3617  0.5453
 7226SOL     OW22576   3.991   0.495   5.941 -0.2609  0.1297  0.2377
 7226SOL    HW122577   3.934   0.576   5.931 -1.2832 -0.6482 -0.4178
 7226SOL    HW222578   3.989   0.442   5.857  0.4188 -0.5700  0.6433
 7227SOL     OW22579   5.002   0.031   3.235  0.3203 -0.1566  0.4048
 7227SOL    HW122580   5.099   0.015   3.215  0.0754 -0.1397 -0.8898
 7227SOL    HW222581   4.976   0.121   3.200 -0.7035 -1.0953 -1.4108
 7228SOL     OW22582   1.129   2.415   3.601 -0.2089  0.0497  0.4621
 7228SOL    HW122583   1.118   2.320   3.572  0.2975 -0.3935  1.6672
 7228SOL    HW222584   1.174   2.466   3.527 -0.2641 -0.6967 -0.1079
 7229SOL     OW22585   2.166   3.788   1.586 -0.1714  0.1735  0.4936
 7229SOL    HW122586   2.085   3.753   1.634 -1.1464 -0.5487 -1.5452
 7229SOL    HW222587   2.248   3.759   1.635 -1.0940  0.3439  2.2492
 7230SOL     OW22588   3.522   5.006   0.352  0.6204  0.1693  0.0602
 7230SOL    HW122589   3.558   4.913   0.348  0.2235 -0.0114  0.6322
 7230SOL    HW222590   3.574   5.064   0.289  1.1748 -0.3313  0.0432
 7231SOL     OW22591   4.553   5.765   2.670 -0.0032  0.3112 -0.3846
 7231SOL    HW122592   4.483   5.778   2.600 -1.0906 -0.4652  0.5120
 7231SOL    HW222593   4.563   5.668   2.689  0.2556  0.5099  0.5421
 7232SOL     OW22594   5.133   2.816   6.308  0.5801 -0.4869 -0.5090
 7232SOL    HW122595   5.058   2.882   6.312  0.3968 -0.5104 -2.4952
 7232SOL    HW222596   5.127   2.755   6.387 -0.8599  0.1733 -0.0621
 7233SOL     OW22597   4.278   6.745   4.313 -0.2042  0.5988 -0.2035
 7233SOL    HW122598   4.311   6.811   4.245 -1.5730  0.8034 -0.7147
 7233SOL    HW222599   4.317   6.655   4.293 -0.1981  0.7604 -0.9703
 7234SOL     OW22600   6.430   5.054   5.371  0.2344  0.1102  0.6469
 7234SOL    HW122601   6.410   5.138   5.421  1.0364  0.0309  1.1315
 7234SOL    HW222602   6.354   4.990   5.381 -0.9945  1.2465 -0.8328
 7235SOL     OW22603   5.563   0.777   5.187 -0.2438 -0.0550 -0.0992
 7235SOL    HW122604   5.464   0.773   5.196 -0.3741 -1.2125 -1.7128
 7235SOL    HW222605   5.590   0.755   5.094  1.6138 -1.4295  0.6798
 7236SOL     OW22606   5.762   3.588   3.639  0.1460 -0.4493  0.5501
 7236SOL    HW122607   5.710   3.669   3.668  0.9963 -0.4171  2.0900
 7236SOL    HW222608   5.700   3.521   3.599 -0.5356  1.0749 -1.1054
 7237SOL     OW22609   5.398   2.239   1.346 -0.0174 -0.4628 -0.2201
 7237SOL    HW122610   5.393   2.332   1.382 -1.2288 -0.5504 -0.1062
 7237SOL    HW222611   5.480   2.193   1.382 -0.4095 -0.0684  1.2628
 7238SOL     OW22612   6.731   6.495   4.816 -0.6337  0.0309  0.1502
 7238SOL    HW122613   6.773   6.439   4.744 -1.1901  0.8572 -0.8614
 7238SOL    HW222614   6.795   6.505   4.892  0.4093  0.0198 -0.6950
 7239SOL     OW22615   0.962   5.821   4.908 -0.4315 -0.3443  0.5772
 7239SOL    HW122616   0.993   5.889   4.974  0.6987 -1.3065  1.0824
 7239SOL    HW222617   0.971   5.730   4.948  1.0860 -1.0164 -1.1865
 7240SOL     OW22618   0.604   1.328   5.639  0.0575 -0.1427  0.6302
 7240SOL    HW122619   0.691   1.340   5.686  0.9782 -0.9168 -0.7957
 7240SOL    HW222620   0.593   1.400   5.571  1.1487 -1.8027 -1.4109
 7241SOL     OW22621   6.418   3.873   5.993  0.8290  0.6034  0.2204
 7241SOL    HW122622   6.390   3.787   5.951 -0.6973  1.0368  0.2917
 7241SOL    HW222623   6.344   3.939   5.986  1.8118  1.7817  0.5717
 7242SOL     OW22624   0.526   1.585   5.831 -0.3071 -0.1983  0.0745
 7242SOL    HW122625   0.559   1.491   5.827  0.6011  0.0762  0.7320
 7242SOL    HW222626   0.601   1.648   5.811 -0.7006  0.4077  0.4662
 7243SOL     OW22627   1.800   6.069   2.849 -0.1186 -0.4670  0.0299
 7243SOL    HW122628   1.865   6.112   2.911 -0.8605  1.3251 -0.3851
 7243SOL    HW222629   1.723   6.032   2.901 -0.2659  0.1688  0.2755
 7244SOL     OW22630   2.700   2.130   5.015 -0.1168  0.2094  0.2879
 7244SOL    HW122631   2.765   2.154   4.942  0.9813 -0.3792  1.0527
 7244SOL    HW222632   2.743   2.140   5.104 -1.9402  2.5242  1.0192
 7245SOL     OW22633   5.188   1.122   2.455 -0.2545 -0.7010 -0.1930
 7245SOL    HW122634   5.273   1.070   2.448  1.3912  1.7056  0.7721
 7245SOL    HW222635   5.174   1.150   2.550 -1.7080 -0.3753 -0.4802
 7246SOL     OW22636   5.706   2.677   1.857  0.2953  0.3004 -0.0583
 7246SOL    HW122637   5.757   2.720   1.931  0.1822 -1.8850  1.3559
 7246SOL    HW222638   5.626   2.734   1.834  0.2744  0.9766  1.5564
 7247SOL     OW22639   5.114   2.134   1.296 -0.2041  0.6867 -0.1874
 7247SOL    HW122640   5.202   2.164   1.259 -0.3862  0.6649 -0.6487
 7247SOL    HW222641   5.108   2.157   1.393  1.5160 -1.8749  0.6238
 7248SOL     OW22642   2.871   2.008   4.096  0.5060 -0.2645 -0.3964
 7248SOL    HW122643   2.835   1.946   4.166  0.0371  1.2001  0.6991
 7248SOL    HW222644   2.968   1.987   4.080  0.1252 -1.8766 -0.7446
 7249SOL     OW22645   4.757   1.297   3.791  0.5556 -0.2382 -0.0782
 7249SOL    HW122646   4.794   1.228   3.728 -0.0661 -1.6300  1.0275
 7249SOL    HW222647   4.727   1.377   3.738  0.9828 -0.9425 -1.4416
 7250SOL     OW22648   1.844   2.336   4.192  0.1446  0.2233  0.0022
 7250SOL    HW122649   1.887   2.391   4.120 -0.7606 -0.4810 -1.1203
 7250SOL    HW222650   1.746   2.356   4.194  0.0520 -0.2728  0.5931
 7251SOL     OW22651   3.910   1.388   0.098 -0.7888 -0.4660 -0.1515
 7251SOL    HW122652   3.979   1.355   0.162 -2.3055 -1.5522  0.9999
 7251SOL    HW222653   3.839   1.318   0.087 -1.3849  0.3536 -1.7963
 7252SOL     OW22654   3.394   4.180   4.403  0.1826  0.2444 -0.5103
 7252SOL    HW122655   3.356   4.175   4.496  0.4238 -1.5679 -0.4771
 7252SOL    HW222656   3.456   4.258   4.396  0.3826  0.2328  0.9353
 7253SOL     OW22657   2.418   1.508   5.370 -0.2180 -0.3224 -0.4340
 7253SOL    HW122658   2.507   1.508   5.324  0.2979  0.6419  0.5225
 7253SOL    HW222659   2.356   1.570   5.323  0.3369  0.7290  0.1866
 7254SOL     OW22660   4.503   0.704   0.198 -0.4299 -0.2215 -0.6066
 7254SOL    HW122661   4.527   0.778   0.261  1.1150 -0.6171 -0.6968
 7254SOL    HW222662   4.498   0.740   0.105 -1.0862  0.0287 -0.4852
 7255SOL     OW22663   1.033   4.108   6.547  0.5238  0.3179  0.0211
 7255SOL    HW122664   1.097   4.162   6.601 -0.6777  1.4363  0.3839
 7255SOL    HW222665   0.976   4.169   6.492 -1.4186 -0.4731  1.0287
 7256SOL     OW22666   6.153   0.139   2.809 -0.5887  0.6032  0.4255
 7256SOL    HW122667   6.149   0.224   2.756 -2.1651  1.1855  1.4080
 7256SOL    HW222668   6.098   0.069   2.764 -3.0743  1.5014  1.8704
 7257SOL     OW22669   2.324   1.315   2.320 -0.3869 -0.6386  0.3701
 7257SOL    HW122670   2.383   1.385   2.279 -1.2108  0.9246  1.7266
 7257SOL    HW222671   2.320   1.330   2.419 -2.0702 -1.4848  0.4577
 7258SOL     OW22672   0.661   3.645   4.651  0.5151 -0.0016 -0.4835
 7258SOL    HW122673   0.725   3.594   4.593 -0.2448  1.8837 -3.2283
 7258SOL    HW222674   0.616   3.583   4.714  1.9732 -2.1006 -1.3761
 7259SOL     OW22675   5.649   4.278   2.367 -0.2482  0.1458  0.2875
 7259SOL    HW122676   5.570   4.316   2.318  0.1740  0.2800 -0.3060
 7259SOL    HW222677   5.709   4.353   2.394 -0.8957  0.1512  1.7828
 7260SOL     OW22678   4.054   2.381   0.323 -0.0307 -0.6391  0.0341
 7260SOL    HW122679   3.995   2.454   0.356 -0.1272 -0.7946  0.2119
 7260SOL    HW222680   4.026   2.355   0.231  0.3198 -0.1155 -0.2229
 7261SOL     OW22681   5.575   1.146   3.158 -0.1964  0.0793 -0.0620
 7261SOL    HW122682   5.521   1.127   3.239  0.7216 -0.6895  0.3905
 7261SOL    HW222683   5.529   1.216   3.102 -0.1232  1.7388  1.8473
 7262SOL     OW22684   2.908   1.120   2.267  0.2150 -0.3051  0.4465
 7262SOL    HW122685   2.854   1.119   2.183 -0.3520  0.9389  0.7653
 7262SOL    HW222686   3.004   1.133   2.245  0.2347 -1.2952 -0.0700
 7263SOL     OW22687   1.240   3.391   1.403 -0.0787  0.4198  0.1260
 7263SOL    HW122688   1.179   3.469   1.386  0.8696  0.6605 -2.8233
 7263SOL    HW222689   1.327   3.425   1.439  0.8933  1.0738 -2.5417
 7264SOL     OW22690   1.682   6.761   2.164  0.0324  0.1922 -0.2930
 7264SOL    HW122691   1.607   6.713   2.210  0.9623 -0.5743  0.4724
 7264SOL    HW222692   1.722   6.828   2.227  0.3620  0.1944 -0.5029
 7265SOL     OW22693   6.226   1.516   5.680 -0.3232 -0.4133 -0.1574
 7265SOL    HW122694   6.285   1.442   5.649  0.6897 -1.5683  3.9319
 7265SOL    HW222695   6.273   1.604   5.670  0.6843 -0.9390 -0.1140
 7266SOL     OW22696   3.839   3.461   5.338  0.5075 -0.2795 -0.0137
 7266SOL    HW122697   3.917   3.477   5.398  0.8981 -0.2694 -0.5165
 7266SOL    HW222698   3.825   3.363   5.326  1.4528 -0.2946 -1.1962
 7267SOL     OW22699   6.593   1.166   3.545 -0.2753 -0.0294  0.4791
 7267SOL    HW122700   6.514   1.195   3.491  0.3711  0.7096 -0.0817
 7267SOL    HW222701   6.629   1.081   3.508 -2.0198 -1.5178  1.9723
 7268SOL     OW22702   0.615   0.007   3.818  0.3786  0.4916 -0.3190
 7268SOL    HW122703   0.528   0.050   3.796  1.4606  2.8508 -0.3532
 7268SOL    HW222704   0.610  -0.035   3.908 -0.5659  1.2956  0.0177
 7269SOL     OW22705   1.377   0.357   4.270 -0.6075 -0.4355 -0.0977
 7269SOL    HW122706   1.379   0.402   4.181 -1.3940  0.0644  0.1386
 7269SOL    HW222707   1.343   0.420   4.339  0.1078 -0.7838  0.5878
 7270SOL     OW22708   3.718   2.132   3.232 -0.2705  0.0029  0.3625
 7270SOL    HW122709   3.733   2.140   3.330  1.1743  1.0165  0.0806
 7270SOL    HW222710   3.779   2.062   3.195  0.3803  0.7719 -0.0488
 7271SOL     OW22711   4.582   1.960   2.341 -0.3731 -0.2149 -0.3003
 7271SOL    HW122712   4.535   2.048   2.340 -0.5784 -0.3206 -0.1272
 7271SOL    HW222713   4.575   1.917   2.251  3.3828  1.8397 -1.7936
 7272SOL     OW22714   3.515   1.629   1.718  0.1445  0.3216 -0.1990
 7272SOL    HW122715   3.457   1.710   1.708 -0.5384 -0.1987 -0.5054
 7272SOL    HW222716   3.600   1.642   1.667 -0.6709  0.1843 -1.6463
 7273SOL     OW22717   1.475   1.130   5.152  0.3103  0.5559  0.2045
 7273SOL    HW122718   1.437   1.162   5.066 -1.8258 -0.7571  0.5874
 7273SOL    HW222719   1.545   1.194   5.184  0.9257  1.2260 -2.3055
 7274SOL     OW22720   3.756   5.531   3.623  0.3678 -0.1265 -0.1757
 7274SOL    HW122721   3.770   5.506   3.719  0.7925 -1.6356 -0.6023
 7274SOL    HW222722   3.840   5.569   3.585  0.9742 -1.7736 -0.5725
 7275SOL     OW22723   3.227   1.715   2.306 -0.4120 -0.2941  0.4316
 7275SOL    HW122724   3.215   1.735   2.209 -2.9915 -3.1608  0.0056
 7275SOL    HW222725   3.285   1.635   2.317 -0.4628 -0.2323  1.2393
 7276SOL     OW22726   3.007   6.860   4.514 -0.7265  0.5898  0.2422
 7276SOL    HW122727   2.993   6.802   4.594  1.1296 -0.2682  0.0174
 7276SOL    HW222728   2.951   6.827   4.438 -0.6223 -0.1649  0.4837
 7277SOL     OW22729   2.607   6.144   2.277 -0.3096 -0.8474 -0.8395
 7277SOL    HW122730   2.693   6.193   2.285 -0.6463 -0.2527 -0.8197
 7277SOL    HW222731   2.586   6.128   2.181 -0.8386  0.2098 -0.9147
 7278SOL     OW22732   5.501   2.256   3.003  0.3312 -0.0345  0.3600
 7278SOL    HW122733   5.458   2.302   3.081  0.4003 -0.3378  0.5799
 7278SOL    HW222734   5.430   2.222   2.941  0.2291 -0.7925  0.8698
 7279SOL     OW22735   3.798   2.461   1.650 -0.0802  0.4253 -0.4015
 7279SOL    HW122736   3.772   2.414   1.735 -1.4452  0.3051 -0.8714
 7279SOL    HW222737   3.788   2.560   1.663  2.2754  0.6455  0.4081
 7280SOL     OW22738   6.342   3.367   0.595 -0.2524 -0.0137  0.5698
 7280SOL    HW122739   6.319   3.379   0.499  1.0704 -2.1025 -0.0824
 7280SOL    HW222740   6.380   3.452   0.631 -1.9637  1.1949 -0.3411
 7281SOL     OW22741   5.582   5.334   4.431 -0.0817  0.4608  0.2068
 7281SOL    HW122742   5.619   5.426   4.418 -0.1237  0.4339 -0.1097
 7281SOL    HW222743   5.630   5.290   4.507  0.2879  0.5583  0.0344
 7282SOL     OW22744   1.656   1.378   6.701 -0.2522 -0.1891 -0.4341
 7282SOL    HW122745   1.636   1.308   6.770  0.2877 -2.6048 -2.5665
 7282SOL    HW222746   1.727   1.439   6.734 -0.5096 -0.8328  1.3954
 7283SOL     OW22747   2.565   4.614   5.926  0.3410 -0.0975  0.3209
 7283SOL    HW122748   2.523   4.673   5.857 -0.5555  0.3335  1.2151
 7283SOL    HW222749   2.579   4.523   5.888  0.6881  0.3624 -0.7084
 7284SOL     OW22750   5.879   3.273   3.560 -0.7996 -0.5829  0.5417
 7284SOL    HW122751   5.931   3.278   3.646  0.8033  1.9893 -0.4316
 7284SOL    HW222752   5.788   3.312   3.574 -0.6661 -0.4713  1.1419
 7285SOL     OW22753   4.627   1.712   6.721 -0.4478  0.0723 -0.3694
 7285SOL    HW122754   4.533   1.711   6.687 -0.8353  1.0509  0.6200
 7285SOL    HW222755   4.688   1.674   6.651 -1.6205 -0.9765 -0.8622
 7286SOL     OW22756   3.079   0.271   3.981  0.2674 -0.2725  0.1401
 7286SOL    HW122757   3.047   0.204   3.914 -1.6553  0.0632  0.6532
 7286SOL    HW222758   3.000   0.307   4.032  1.4466  1.0773  1.0849
 7287SOL     OW22759   4.508   4.014   5.764  0.3856 -0.3417 -0.2050
 7287SOL    HW122760   4.583   3.952   5.743  2.3750  1.7671  0.2186
 7287SOL    HW222761   4.527   4.104   5.725 -1.1141  0.7077  1.3118
 7288SOL     OW22762   4.827   3.203   5.246  0.1662  0.0632 -0.3063
 7288SOL    HW122763   4.862   3.294   5.266 -0.6240  0.4137 -0.4666
 7288SOL    HW222764   4.884   3.159   5.177 -0.4469  1.1332 -1.5254
 7289SOL     OW22765   0.959   0.649   6.695  0.2300  0.4051  0.1807
 7289SOL    HW122766   0.930   0.615   6.784  0.1684  1.2440  0.4932
 7289SOL    HW222767   0.934   0.583   6.624 -0.1471 -0.0527  0.7339
 7290SOL     OW22768   5.862   0.616   2.686  0.2538  0.4973  0.1553
 7290SOL    HW122769   5.797   0.567   2.745 -1.1860  1.6042 -0.4479
 7290SOL    HW222770   5.922   0.673   2.742 -0.2678  0.5798  0.6452
 7291SOL     OW22771   2.624   2.355   6.536  0.3702 -0.3497 -0.1644
 7291SOL    HW122772   2.642   2.412   6.616 -2.1621  0.4506 -0.0635
 7291SOL    HW222773   2.708   2.344   6.482  1.6619  0.7162  1.5517
 7292SOL     OW22774   2.538   0.794   5.186 -0.3921 -0.1637  0.8300
 7292SOL    HW122775   2.555   0.793   5.088  2.2150 -0.4036  1.1972
 7292SOL    HW222776   2.443   0.768   5.204 -0.8378 -0.4537 -1.5869
 7293SOL     OW22777   0.171   0.677   4.994  0.3986  0.1667  0.0656
 7293SOL    HW122778   0.128   0.607   5.051  0.1437  1.0053  0.9118
 7293SOL    HW222779   0.264   0.649   4.971 -0.0357 -0.9218 -0.4682
 7294SOL     OW22780   6.162   2.833   3.557  0.4176  0.2284  0.2301
 7294SOL    HW122781   6.258   2.806   3.544  0.8336  1.8025 -0.2075
 7294SOL    HW222782   6.151   2.873   3.648  0.1419 -0.0527  0.3218
 7295SOL     OW22783   5.935   5.978   6.026  0.0346  0.6327  0.3386
 7295SOL    HW122784   5.890   5.901   6.072  0.2718  0.0345 -0.3957
 7295SOL    HW222785   6.019   5.945   5.982 -0.8981  0.8449 -1.7056
 7296SOL     OW22786   5.269   2.901   0.030 -0.3536  0.0252  0.5357
 7296SOL    HW122787   5.242   2.983  -0.020 -2.1317 -0.3995  0.7288
 7296SOL    HW222788   5.235   2.820  -0.017  0.7932 -0.5784  0.7068
 7297SOL     OW22789   5.406   2.020   4.370  1.1070  0.3530 -0.5469
 7297SOL    HW122790   5.489   2.006   4.425  0.1768 -2.2283  0.3428
 7297SOL    HW222791   5.423   1.991   4.276  1.2235 -0.1801 -0.3641
 7298SOL     OW22792   1.490   0.315   5.916  0.4345 -0.2260  0.0440
 7298SOL    HW122793   1.407   0.364   5.889  0.3087 -0.5506 -0.1544
 7298SOL    HW222794   1.556   0.317   5.841  0.7656  0.3763  0.3431
 7299SOL     OW22795   0.027   6.150   0.951 -0.4005  0.5202  0.6438
 7299SOL    HW122796   0.122   6.126   0.969 -0.0804  1.1365 -0.1458
 7299SOL    HW222797  -0.015   6.079   0.894  0.1431  1.1265 -0.5484
 7300SOL     OW22798   0.363   4.249   1.823 -0.2249 -0.0466 -0.3413
 7300SOL    HW122799   0.266   4.265   1.806 -0.3852  1.2547  1.4174
 7300SOL    HW222800   0.405   4.333   1.858  1.7129 -0.3914 -1.6747
 7301SOL     OW22801   0.561   4.675   0.857  0.7706 -0.1835  0.1288
 7301SOL    HW122802   0.510   4.628   0.929  0.6581 -0.8737 -0.3941
 7301SOL    HW222803   0.659   4.654   0.868  0.7221 -0.5208 -0.0947
 7302SOL     OW22804   4.550   0.917   3.866 -0.2099 -0.1458 -0.2431
 7302SOL    HW122805   4.609   0.842   3.898 -0.1627 -0.6358 -1.4265
 7302SOL    HW222806   4.577   1.002   3.911 -0.1398 -0.7933  0.9821
 7303SOL     OW22807   1.887   2.864   0.653 -0.3542  0.2332 -0.2057
 7303SOL    HW122808   1.875   2.946   0.597 -0.3224 -1.3951 -2.7472
 7303SOL    HW222809   1.801   2.814   0.657  0.4178 -1.2724 -1.5323
 7304SOL     OW22810   3.331   0.028   2.558  0.2450 -0.6870 -0.3682
 7304SOL    HW122811   3.330   0.069   2.648 -0.8295 -1.7070  0.1069
 7304SOL    HW222812   3.374  -0.063   2.563  0.8105 -0.4694 -1.0210
 7305SOL     OW22813   4.698   0.099   5.676  0.5489 -0.5963 -0.4459
 7305SOL    HW122814   4.795   0.095   5.701  1.0876 -1.2102 -2.4657
 7305SOL    HW222815   4.662   0.190   5.697  1.2351 -0.6818  1.3298
 7306SOL     OW22816   3.261   5.424   3.557 -0.3467 -1.0937 -0.1701
 7306SOL    HW122817   3.188   5.400   3.622 -0.2107  0.4457  0.5796
 7306SOL    HW222818   3.220   5.469   3.477 -0.2416 -0.5531  0.0846
 7307SOL     OW22819   0.882   6.592   3.549 -0.3175 -0.6757  0.2292
 7307SOL    HW122820   0.860   6.689   3.557 -0.4620 -0.8366  2.4278
 7307SOL    HW222821   0.974   6.576   3.587  0.5715 -1.1321 -1.9682
 7308SOL     OW22822   2.572   4.394   1.115  0.4014 -0.6007  0.3646
 7308SOL    HW122823   2.588   4.402   1.214 -0.0247 -0.8792  0.4589
 7308SOL    HW222824   2.660   4.390   1.068  0.6110 -0.1128  0.6994
 7309SOL     OW22825   4.797   0.544   4.210  0.0021 -0.3435 -0.6917
 7309SOL    HW122826   4.884   0.496   4.222  0.5070  0.2194 -1.8885
 7309SOL    HW222827   4.802   0.633   4.257 -0.8258 -1.2785  1.2740
 7310SOL     OW22828   3.011   3.193   5.626  0.0070  0.1641  0.5018
 7310SOL    HW122829   2.988   3.244   5.708  0.5095  1.8826 -0.3808
 7310SOL    HW222830   3.050   3.255   5.558  0.3132 -1.3482 -0.7570
 7311SOL     OW22831   2.612   6.079   1.987  0.3770  0.1319 -0.3503
 7311SOL    HW122832   2.662   5.995   1.964 -0.4302 -0.7383  0.8702
 7311SOL    HW222833   2.661   6.158   1.952  2.6180 -0.6605  0.7547
 7312SOL     OW22834   0.204   6.593   1.592  0.1703  0.3054  0.0894
 7312SOL    HW122835   0.197   6.500   1.629 -1.1526  0.1785 -0.4330
 7312SOL    HW222836   0.115   6.623   1.559  0.3271  2.1977  1.2366
 7313SOL     OW22837   5.432   1.823   1.410  0.1307  0.1204 -0.1561
 7313SOL    HW122838   5.467   1.868   1.328  1.5174 -0.8899 -0.1430
 7313SOL    HW222839   5.494   1.839   1.486  0.1463 -1.0076  0.0812
 7314SOL     OW22840   1.289   0.645   4.319 -0.9300  0.6541 -0.7520
 7314SOL    HW122841   1.389   0.648   4.317 -0.8153 -0.6408  0.9737
 7314SOL    HW222842   1.254   0.638   4.225  0.6882 -0.8235 -1.2890
 7315SOL     OW22843   6.058   4.692   6.369 -0.2854  0.0811  0.0735
 7315SOL    HW122844   6.080   4.786   6.343  0.1623 -0.4227 -1.4649
 7315SOL    HW222845   6.082   4.678   6.466  2.4575  0.7374 -0.4096
 7316SOL     OW22846   4.538   4.633   6.412 -0.4304  0.4835 -0.1455
 7316SOL    HW122847   4.507   4.585   6.494  1.1690 -0.3547  0.0086
 7316SOL    HW222848   4.584   4.569   6.351  1.9842  1.8132  0.1760
 7317SOL     OW22849   3.594   2.217   0.445 -0.5820  0.0802 -0.2365
 7317SOL    HW122850   3.591   2.305   0.399 -0.9675 -0.3376 -1.0250
 7317SOL    HW222851   3.553   2.147   0.387 -2.2239 -0.2516  1.2247
 7318SOL     OW22852   4.600   5.698   4.244  0.1229 -0.4849 -0.8465
 7318SOL    HW122853   4.640   5.759   4.176  1.3474  0.6642  0.8410
 7318SOL    HW222854   4.530   5.641   4.200  0.3341  0.7268 -2.8829
 7319SOL     OW22855   4.877   3.385   3.555 -0.2057  0.2123  0.0700
 7319SOL    HW122856   4.903   3.325   3.631  1.3769  0.2459 -0.4110
 7319SOL    HW222857   4.840   3.331   3.480  0.0034 -0.0313  0.1416
 7320SOL     OW22858   3.790   6.558   1.245 -0.0557 -0.4503  0.5591
 7320SOL    HW122859   3.794   6.458   1.245 -0.1650 -0.6101 -3.1038
 7320SOL    HW222860   3.711   6.589   1.296 -1.3078 -2.4016 -0.0942
 7321SOL     OW22861   0.877   0.513   6.921 -0.2539 -1.1106  0.7672
 7321SOL    HW122862   0.844   0.584   6.984 -0.5573 -0.2209 -0.3547
 7321SOL    HW222863   0.880   0.425   6.969  1.0738 -0.1975  2.4992
 7322SOL     OW22864   2.492   6.479   2.007 -0.0560  0.3346  0.4955
 7322SOL    HW122865   2.573   6.426   1.984 -0.3671 -0.8607  1.9790
 7322SOL    HW222866   2.496   6.506   2.103 -0.3736  2.2076  0.0166
 7323SOL     OW22867   2.195   4.177   4.886 -0.3455  0.2303 -0.1960
 7323SOL    HW122868   2.244   4.092   4.903 -0.1349  0.6560  1.4445
 7323SOL    HW222869   2.249   4.234   4.824  0.9662  0.4046  1.0420
 7324SOL     OW22870   0.198   5.160   6.646 -0.5727  0.2797 -0.4711
 7324SOL    HW122871   0.295   5.137   6.643 -1.0184 -2.0161  0.4650
 7324SOL    HW222872   0.187   5.256   6.671  1.4362  0.5093 -0.2839
 7325SOL     OW22873   4.923   3.537   2.050  0.8945 -0.4359 -0.1685
 7325SOL    HW122874   5.022   3.527   2.034  0.6715 -0.7083 -1.4279
 7325SOL    HW222875   4.879   3.448   2.047  0.4099 -0.1819 -1.0658
 7326SOL     OW22876   5.418   4.793   5.973 -0.5363 -0.4945  0.0696
 7326SOL    HW122877   5.329   4.750   5.964 -0.6002 -0.4453  0.4163
 7326SOL    HW222878   5.484   4.726   6.006 -0.6033 -0.3700  0.4709
 7327SOL     OW22879   1.335   2.332   3.804  0.6522 -0.2009  0.1274
 7327SOL    HW122880   1.311   2.254   3.862  2.1894 -2.6246 -2.2207
 7327SOL    HW222881   1.264   2.344   3.734  1.5433 -1.1993 -1.0095
 7328SOL     OW22882   6.149   0.696   5.655  0.2847  0.2936  0.1707
 7328SOL    HW122883   6.103   0.696   5.744  1.6073 -0.1444  0.8970
 7328SOL    HW222884   6.215   0.772   5.651  1.9065 -1.0276  0.5279
 7329SOL     OW22885   7.013   5.075   2.859  0.2738  0.2259  0.5485
 7329SOL    HW122886   6.971   5.158   2.823 -0.0459  0.8024  2.1870
 7329SOL    HW222887   7.095   5.098   2.911  0.5527 -0.5545  0.4705
 7330SOL     OW22888   2.174   4.882   1.429 -0.4717 -0.3463 -0.3439
 7330SOL    HW122889   2.253   4.944   1.435 -0.9534  0.2037  0.4507
 7330SOL    HW222890   2.098   4.930   1.385 -1.5605  0.4185  2.1994
 7331SOL     OW22891   0.980   1.119   1.968 -0.5100 -0.3850 -0.7046
 7331SOL    HW122892   1.045   1.195   1.980 -2.3797  1.1092  0.5836
 7331SOL    HW222893   1.030   1.037   1.943  1.8884  0.6978  0.1878
 7332SOL     OW22894   2.078   2.006   2.336 -0.1408  0.2214  0.3702
 7332SOL    HW122895   2.177   1.990   2.345 -0.4759 -1.3230  2.1794
 7332SOL    HW222896   2.049   2.071   2.406 -0.3817  0.9505 -0.3902
 7333SOL     OW22897   4.559   0.591   4.640 -0.3168  0.0189 -0.5956
 7333SOL    HW122898   4.490   0.521   4.659 -0.9434  0.9782  0.8952
 7333SOL    HW222899   4.555   0.617   4.544 -0.6220 -1.3992 -0.9877
 7334SOL     OW22900   0.400   3.964   0.618 -0.4640 -0.0991  0.4275
 7334SOL    HW122901   0.497   3.947   0.600 -0.5025 -0.1968  0.3171
 7334SOL    HW222902   0.357   4.005   0.538 -0.7150 -0.8597  0.1676
 7335SOL     OW22903   1.382   4.351   3.869  0.1502 -0.2349 -0.1279
 7335SOL    HW122904   1.384   4.332   3.967 -0.6988  1.8299  0.3612
 7335SOL    HW222905   1.436   4.283   3.820  2.3757 -0.1118  1.9808
 7336SOL     OW22906   2.202   5.481   4.654  0.3727  0.2141 -0.3070
 7336SOL    HW122907   2.213   5.512   4.749 -1.2640 -0.2259  0.0572
 7336SOL    HW222908   2.249   5.393   4.643 -1.5249 -1.0131  0.8396
 7337SOL     OW22909   2.812   3.441   2.019 -0.4449  0.2081  0.7131
 7337SOL    HW122910   2.726   3.455   1.970  1.3781 -1.7664 -3.5400
 7337SOL    HW222911   2.880   3.508   1.987  0.9238 -1.4049  0.0991
 7338SOL     OW22912   3.474   3.751   0.061  0.2545  0.1192  0.4905
 7338SOL    HW122913   3.492   3.653   0.064 -1.6329 -0.2568  0.7325
 7338SOL    HW222914   3.394   3.768   0.003  0.3516  1.4770  0.7314
 7339SOL     OW22915   0.359   6.202   3.658  0.2832  0.1776 -0.2886
 7339SOL    HW122916   0.379   6.289   3.613 -1.8628  0.0673 -1.5829
 7339SOL    HW222917   0.278   6.161   3.617  0.1644 -1.5650  1.5301
 7340SOL     OW22918   6.366   4.778   1.773 -0.1012  0.6619 -0.0624
 7340SOL    HW122919   6.371   4.770   1.873  0.2868  1.6592  0.0052
 7340SOL    HW222920   6.438   4.839   1.741  0.0873 -0.0428 -1.0094
 7341SOL     OW22921   4.451   1.861   1.848  0.7647 -0.2795 -0.1619
 7341SOL    HW122922   4.545   1.835   1.870  0.7119  0.0800  0.5219
 7341SOL    HW222923   4.422   1.935   1.908  0.0310 -0.4089 -0.3467
 7342SOL     OW22924   0.264   6.456   6.754  0.3484 -0.2485 -0.1509
 7342SOL    HW122925   0.235   6.486   6.845 -0.0192  1.6930 -0.8507
 7342SOL    HW222926   0.276   6.357   6.753 -3.7968 -0.9712  0.9144
 7343SOL     OW22927   6.569   6.296   2.565  0.1096 -0.0072 -0.1017
 7343SOL    HW122928   6.642   6.284   2.497 -0.4605 -0.7642 -0.5937
 7343SOL    HW222929   6.562   6.393   2.588  1.8088 -0.0141  0.5760
 7344SOL     OW22930   5.323   0.623   5.922  0.2540 -0.2916 -0.0093
 7344SOL    HW122931   5.358   0.701   5.974 -1.3049  1.6901 -1.7588
 7344SOL    HW222932   5.254   0.576   5.976 -0.7494  1.2343  0.0964
 7345SOL     OW22933   1.395   6.675   5.512 -0.2761 -0.2690  0.2555
 7345SOL    HW122934   1.381   6.735   5.433  0.6156 -1.2624 -0.6906
 7345SOL    HW222935   1.413   6.731   5.593  1.2549  0.7535 -0.7386
 7346SOL     OW22936   1.075   6.095   0.661  0.0229 -0.5664 -0.0480
 7346SOL    HW122937   1.008   6.143   0.605  0.1778 -1.3736 -0.9617
 7346SOL    HW222938   1.054   6.108   0.758 -0.1459  1.0018 -0.2745
 7347SOL     OW22939   4.132   2.853   0.987  0.4669 -0.3389 -0.3620
 7347SOL    HW122940   4.188   2.918   0.936  0.5143  0.5900  0.8181
 7347SOL    HW222941   4.057   2.821   0.930  1.4281 -0.5803 -1.5272
 7348SOL     OW22942   1.341   1.318   0.162  0.0256 -0.0122  0.2800
 7348SOL    HW122943   1.378   1.317   0.254  1.9764 -2.3528 -0.4423
 7348SOL    HW222944   1.289   1.403   0.148  1.0368  1.1473  2.9442
 7349SOL     OW22945   0.857   1.007   3.100 -0.7848 -0.1280  0.3054
 7349SOL    HW122946   0.896   0.940   3.037 -0.3132  0.2457  0.1944
 7349SOL    HW222947   0.871   1.099   3.063  0.0555  0.1428  1.2395
 7350SOL     OW22948   5.772   6.736   2.711 -0.3973  0.1611  0.0051
 7350SOL    HW122949   5.766   6.828   2.670 -0.1969 -0.1013 -0.6209
 7350SOL    HW222950   5.784   6.668   2.638 -1.0630 -0.4173  0.4262
 7351SOL     OW22951   0.806   2.782   3.421  0.3483 -0.5911  0.2518
 7351SOL    HW122952   0.826   2.872   3.383 -0.2218  0.2017  1.7312
 7351SOL    HW222953   0.792   2.717   3.347  1.4307  0.3771 -0.8424
 7352SOL     OW22954   1.099   1.056   5.747  0.2709  0.1683 -0.1086
 7352SOL    HW122955   1.008   1.072   5.709  1.2315  2.0787 -1.8416
 7352SOL    HW222956   1.133   0.968   5.715 -0.5409 -0.0813 -0.3158
 7353SOL     OW22957   3.673   4.427   0.773  0.3116 -0.6949 -0.7707
 7353SOL    HW122958   3.772   4.440   0.773  0.2624  0.7139  2.7679
 7353SOL    HW222959   3.652   4.330   0.784  1.4631 -0.7633  1.4376
 7354SOL     OW22960   4.278   5.090   4.050  0.4343  0.1342 -0.1836
 7354SOL    HW122961   4.342   5.021   4.016  1.5236  0.6190  0.8227
 7354SOL    HW222962   4.201   5.045   4.094 -0.4080 -0.4750 -2.1827
 7355SOL     OW22963   0.944   3.982   0.629 -0.3856  0.1646  0.0300
 7355SOL    HW122964   0.975   4.017   0.718 -0.2316 -0.1021  0.0840
 7355SOL    HW222965   0.846   3.996   0.621 -0.2949  0.7914 -0.0371
 7356SOL     OW22966   5.808   6.461   0.754 -0.0099  0.7989  0.3737
 7356SOL    HW122967   5.782   6.536   0.816  0.9957  1.1972  0.3387
 7356SOL    HW222968   5.729   6.433   0.700 -0.5608  1.4012  0.8567
 7357SOL     OW22969   4.805   6.749   0.249  0.2523  0.0380  0.2414
 7357SOL    HW122970   4.753   6.773   0.332 -0.5667  1.2196 -0.5786
 7357SOL    HW222971   4.878   6.816   0.235 -0.4494  0.6358 -0.6884
 7358SOL     OW22972   4.770   5.078   0.489 -0.2611 -0.0524 -0.4137
 7358SOL    HW122973   4.690   5.131   0.461 -0.8807 -0.2425  0.9402
 7358SOL    HW222974   4.795   5.015   0.415 -0.8518  0.5730 -1.1721
 7359SOL     OW22975   6.700   3.051   1.375  0.2735 -0.0101 -0.7972
 7359SOL    HW122976   6.669   3.067   1.281  1.1328  1.3155 -0.8917
 7359SOL    HW222977   6.728   2.956   1.386 -2.4999 -0.9583 -1.0555
 7360SOL     OW22978   5.817   3.825   6.203  0.9443 -0.3358 -0.4562
 7360SOL    HW122979   5.808   3.802   6.300  1.6533 -0.9880 -0.5406
 7360SOL    HW222980   5.729   3.810   6.157  0.4588  0.4868  0.1840
 7361SOL     OW22981   2.454   2.647   0.936  0.5938 -0.2245 -0.0702
 7361SOL    HW122982   2.483   2.599   1.019  2.9493  1.4571  0.1839
 7361SOL    HW222983   2.531   2.652   0.872 -0.4026  0.7849 -1.2396
 7362SOL     OW22984   1.621   5.160   3.489  0.0615 -0.4880  0.4878
 7362SOL    HW122985   1.706   5.114   3.465  0.6476  0.2653  1.0815
 7362SOL    HW222986   1.544   5.098   3.474  0.7792 -1.4243  0.6257
 7363SOL     OW22987   1.777   0.529   6.648 -0.1634 -0.1748 -0.1054
 7363SOL    HW122988   1.835   0.451   6.625 -1.5287 -1.4797  0.6837
 7363SOL    HW222989   1.785   0.550   6.746 -0.1770  0.3629 -0.2138
 7364SOL     OW22990   4.942   1.385   0.889  0.2326 -0.6390  0.0097
 7364SOL    HW122991   4.845   1.407   0.879  0.4906  0.3010 -0.5527
 7364SOL    HW222992   4.952   1.288   0.909 -0.7263 -1.3465 -2.5224
 7365SOL     OW22993   4.543   4.659   0.066 -0.5951 -0.1087  0.2880
 7365SOL    HW122994   4.454   4.626   0.033 -1.3273 -0.2422  2.2742
 7365SOL    HW222995   4.539   4.758   0.077 -0.3864 -0.0776  0.0963
 7366SOL     OW22996   3.516   6.518   2.728  0.1870  0.2652  0.5008
 7366SOL    HW122997   3.568   6.442   2.766  1.5702  1.3322  0.8262
 7366SOL    HW222998   3.540   6.530   2.631  0.1731  0.4559  0.5201
 7367SOL     OW22999   2.647   6.678   0.819  0.4696 -0.5876  0.8232
 7367SOL    HW123000   2.704   6.596   0.829 -0.0562 -0.9961  0.5353
 7367SOL    HW223001   2.566   6.655   0.766 -0.3851 -0.2104  1.9380
 7368SOL     OW23002   2.091   6.026   6.228 -0.2961 -0.2446  0.0447
 7368SOL    HW123003   2.139   6.114   6.231 -1.7709  0.7063 -2.1104
 7368SOL    HW223004   2.006   6.036   6.176 -0.8333 -2.8194  0.3086
 7369SOL     OW23005   5.245   3.754   1.348 -0.2944 -0.1863  0.2981
 7369SOL    HW123006   5.239   3.669   1.401  0.6453  0.4194  1.4316
 7369SOL    HW223007   5.289   3.824   1.403  1.3531  0.3028 -1.5286
 7370SOL     OW23008   1.279   3.299   3.951 -0.5190 -0.4411 -0.0392
 7370SOL    HW123009   1.282   3.376   3.887 -1.2030 -0.1775  0.2431
 7370SOL    HW223010   1.293   3.214   3.902  2.2444 -0.0467 -0.1343
 7371SOL     OW23011   1.344   5.978   5.768  0.3208  0.1833  0.0383
 7371SOL    HW123012   1.298   5.970   5.856 -2.4711  2.3924 -1.0586
 7371SOL    HW223013   1.402   6.060   5.768  1.2979 -0.4949  0.1864
 7372SOL     OW23014   6.320   1.866   5.922 -0.5174 -0.0831 -0.0906
 7372SOL    HW123015   6.298   1.961   5.902 -0.4499  0.5154  2.4005
 7372SOL    HW223016   6.261   1.806   5.868 -1.9132  1.3752 -0.2595
 7373SOL     OW23017   4.774   6.165   6.541 -0.0134  0.1241 -0.0905
 7373SOL    HW123018   4.835   6.240   6.516  0.6291 -0.7502 -1.2276
 7373SOL    HW223019   4.710   6.147   6.465 -1.4039  0.7245  0.8985
 7374SOL     OW23020   2.472   4.975   2.812  0.0726 -0.4984 -0.3619
 7374SOL    HW123021   2.551   4.977   2.752  0.9781  0.1043  0.7963
 7374SOL    HW223022   2.460   5.065   2.854 -0.8138 -0.7720 -0.0012
 7375SOL     OW23023   3.464   2.149   3.142 -0.5619 -0.0774 -0.1679
 7375SOL    HW123024   3.485   2.119   3.049 -0.7279 -1.3438  0.1836
 7375SOL    HW223025   3.549   2.176   3.188 -0.5493  1.1773 -0.8670
 7376SOL     OW23026   6.404   2.499   4.827  0.0853  0.1239 -0.3171
 7376SOL    HW123027   6.329   2.514   4.762  0.2904 -0.0991 -0.6123
 7376SOL    HW223028   6.484   2.464   4.777  1.1145  2.3892 -0.3764
 7377SOL     OW23029   0.979   5.364   6.967 -0.5277 -0.7034 -0.0787
 7377SOL    HW123030   0.998   5.274   6.927 -1.1011 -0.4586 -0.9257
 7377SOL    HW223031   1.016   5.436   6.909 -2.1338 -0.3132 -0.6834
 7378SOL     OW23032   1.102   1.446   0.879  0.3973 -0.4305 -0.4548
 7378SOL    HW123033   1.010   1.470   0.911  0.8159  0.3022  0.2347
 7378SOL    HW223034   1.169   1.471   0.948  1.0150 -2.2314 -0.3518
 7379SOL     OW23035   5.784   5.455   6.288  0.5837 -0.5775 -0.0419
 7379SOL    HW123036   5.722   5.495   6.221 -1.2539  0.9240  2.3637
 7379SOL    HW223037   5.877   5.453   6.251  0.0334  2.1948 -1.8420
 7380SOL     OW23038   4.807   5.868   2.642  0.1881 -0.0059  0.3428
 7380SOL    HW123039   4.769   5.958   2.625 -0.1149 -0.1244  0.3850
 7380SOL    HW223040   4.734   5.799   2.637  0.4160 -0.2479  0.3051
 7381SOL     OW23041   0.269   5.460   0.092  0.1959 -0.7290 -0.1887
 7381SOL    HW123042   0.282   5.362   0.080  1.0185 -0.5445 -0.9303
 7381SOL    HW223043   0.196   5.492   0.032  0.1227 -0.8485 -0.1618
 7382SOL     OW23044   1.543   0.695   4.844  0.2495 -0.4713 -0.3651
 7382SOL    HW123045   1.457   0.741   4.819  0.9737  0.9520 -0.3336
 7382SOL    HW223046   1.585   0.658   4.761 -0.6712 -1.7394 -0.3048
 7383SOL     OW23047   1.114   4.319   3.267  0.3614 -0.1673 -0.4462
 7383SOL    HW123048   1.104   4.297   3.170  0.7874  1.2824 -0.8552
 7383SOL    HW223049   1.047   4.389   3.293 -0.0036 -0.8168  0.4123
 7384SOL     OW23050   3.073   0.275   1.660 -0.4705 -0.2651  0.2736
 7384SOL    HW123051   3.041   0.306   1.750  0.1415 -0.1400  0.4535
 7384SOL    HW223052   3.102   0.354   1.606 -2.3905 -0.1414 -0.6908
 7385SOL     OW23053   4.239   0.209   0.023  0.3301  0.0630 -0.2833
 7385SOL    HW123054   4.178   0.266  -0.032 -0.0093 -0.6637 -0.6632
 7385SOL    HW223055   4.221   0.225   0.120 -1.4517 -1.1643 -0.3670
 7386SOL     OW23056   0.166   0.975   0.176 -0.1817  0.3073 -0.8127
 7386SOL    HW123057   0.099   0.901   0.170 -0.5631  0.6991 -1.4890
 7386SOL    HW223058   0.258   0.938   0.161 -0.1706 -0.3248  0.6765
 7387SOL     OW23059   5.416   0.627   3.965  0.8463  0.6071  0.4724
 7387SOL    HW123060   5.479   0.618   4.042  1.3344  1.8536  0.2320
 7387SOL    HW223061   5.462   0.670   3.888 -0.2809  1.5498  0.2918
 7388SOL     OW23062   1.702   5.846   1.275  0.2155  0.0370  0.5015
 7388SOL    HW123063   1.736   5.806   1.190  0.3029  0.3387  0.3928
 7388SOL    HW223064   1.727   5.943   1.278 -0.1496  0.1267  0.6768
 7389SOL     OW23065   2.237   4.013   5.963  0.1747 -0.1715 -0.0751
 7389SOL    HW123066   2.185   3.932   5.934  0.9372 -0.6257 -0.2225
 7389SOL    HW223067   2.264   4.002   6.059  0.8645 -0.4180 -0.2922
 7390SOL     OW23068   6.584   2.650   4.604  0.6339 -0.0661 -0.1627
 7390SOL    HW123069   6.672   2.677   4.565  0.8709  1.4865  1.3205
 7390SOL    HW223070   6.567   2.702   4.688 -1.9178  0.0251 -0.6412
 7391SOL     OW23071   4.314   2.800   6.680 -0.3072 -0.6987  0.3933
 7391SOL    HW123072   4.317   2.841   6.771  1.6085 -4.0710  2.0298
 7391SOL    HW223073   4.405   2.801   6.639 -1.1286  0.7021 -1.5443
 7392SOL     OW23074   3.892   2.078   6.821  0.0317 -0.1023  0.3252
 7392SOL    HW123075   3.952   2.059   6.899 -0.1773 -1.2684  0.2197
 7392SOL    HW223076   3.876   1.993   6.770  1.0499  0.8038 -1.6253
 7393SOL     OW23077   3.892   5.494   0.923 -0.0015 -0.2520  0.4159
 7393SOL    HW123078   3.952   5.531   0.993 -0.6108 -0.0850  0.8573
 7393SOL    HW223079   3.856   5.406   0.953 -1.1812  0.3462  0.8530
 7394SOL     OW23080   0.245   1.453   2.524 -0.0383 -0.1933  0.6480
 7394SOL    HW123081   0.209   1.443   2.616 -1.0604  0.6856  0.3682
 7394SOL    HW223082   0.170   1.453   2.458  0.7198 -1.5426 -0.2754
 7395SOL     OW23083   1.287   2.163   6.890 -0.2615  0.0490  0.1573
 7395SOL    HW123084   1.296   2.093   6.819  1.1858 -0.5852  0.9331
 7395SOL    HW223085   1.322   2.250   6.856 -1.6655  0.3188 -0.6617
 7396SOL     OW23086   2.407   0.175   2.093 -0.1912 -0.5171  0.4986
 7396SOL    HW123087   2.322   0.135   2.126 -1.1398  1.1981  0.2649
 7396SOL    HW223088   2.481   0.109   2.103 -1.5669 -2.1357  0.5178
 7397SOL     OW23089   6.073   6.575   3.482  0.0316  0.2034  0.4855
 7397SOL    HW123090   6.148   6.543   3.424  0.8370 -1.4275  2.3279
 7397SOL    HW223091   6.106   6.587   3.576 -2.0908 -0.9494  1.4347
 7398SOL     OW23092   6.679   1.930   3.903  0.4192  0.2260 -0.1184
 7398SOL    HW123093   6.776   1.911   3.917  0.3943  0.0274 -0.2106
 7398SOL    HW223094   6.629   1.910   3.988  0.3318 -0.5447 -0.3452
 7399SOL     OW23095   4.925   6.136   3.228  0.0567 -0.5759 -0.0020
 7399SOL    HW123096   4.922   6.173   3.321 -1.4172  0.8277 -0.5575
 7399SOL    HW223097   5.020   6.114   3.204  0.7552  1.0341  1.0860
 7400SOL     OW23098   3.419   0.562   4.909  0.4039  0.2603 -0.1807
 7400SOL    HW123099   3.404   0.470   4.874 -1.4858  0.9557 -1.4402
 7400SOL    HW223100   3.469   0.616   4.841  0.9277  0.3388  0.2634
 7401SOL     OW23101   0.729   4.372   2.698  0.2682 -0.2948 -0.3515
 7401SOL    HW123102   0.799   4.301   2.687  0.3046 -0.0863 -1.6802
 7401SOL    HW223103   0.773   4.458   2.725  0.4741 -0.2886 -0.6975
 7402SOL     OW23104   3.619   5.058   5.462 -0.6129  0.3516  0.4748
 7402SOL    HW123105   3.576   4.982   5.512  0.5442  0.0604  1.0600
 7402SOL    HW223106   3.663   5.120   5.527 -1.8322  1.7410  0.0292
 7403SOL     OW23107   1.522   3.385   0.248 -0.2186  0.3951 -0.7275
 7403SOL    HW123108   1.511   3.299   0.197 -0.4968  0.6168 -1.0456
 7403SOL    HW223109   1.441   3.401   0.304  0.7175 -0.6304  0.9998
 7404SOL     OW23110   3.055   3.103   5.226  0.1340 -0.0785 -0.1119
 7404SOL    HW123111   3.041   3.199   5.253  4.6837  0.6950  0.3127
 7404SOL    HW223112   3.036   3.043   5.303  0.3285  0.8323  0.6577
 7405SOL     OW23113   5.356   6.357   2.717 -0.0653 -0.5882 -0.3419
 7405SOL    HW123114   5.398   6.289   2.657  1.7782  0.2854 -0.1130
 7405SOL    HW223115   5.410   6.365   2.801 -1.5383 -0.4404  0.6242
 7406SOL     OW23116   1.204   5.163   2.229  0.2749 -0.2039 -0.2425
 7406SOL    HW123117   1.173   5.251   2.264 -0.0804 -0.2528 -0.4286
 7406SOL    HW223118   1.126   5.112   2.193  0.4844 -0.5740 -0.1841
 7407SOL     OW23119   6.553   0.470   3.425  0.3935  0.1812 -0.1060
 7407SOL    HW123120   6.485   0.429   3.364  1.0259 -0.7654 -0.2053
 7407SOL    HW223121   6.519   0.558   3.459 -0.6847 -0.0641 -0.4968
 7408SOL     OW23122   2.045   3.143   3.175 -0.3621  0.5188  0.2056
 7408SOL    HW123123   2.119   3.088   3.135  0.5052  2.7496 -1.4076
 7408SOL    HW223124   1.957   3.100   3.155  0.3586 -1.1789  0.5128
 7409SOL     OW23125   6.559   0.284   5.998 -0.3218 -0.5103  0.2088
 7409SOL    HW123126   6.541   0.380   5.977 -0.5893 -0.6666 -0.3051
 7409SOL    HW223127   6.505   0.226   5.937  0.2847 -0.9930  0.1177
 7410SOL     OW23128   0.497   4.683   1.369  0.4182 -0.5091 -0.3408
 7410SOL    HW123129   0.413   4.707   1.320  0.6835 -0.7000 -0.8958
 7410SOL    HW223130   0.491   4.717   1.463  0.1544  0.4055 -0.6709
 7411SOL     OW23131   3.682   5.459   4.082 -0.1756 -0.6467  0.0353
 7411SOL    HW123132   3.617   5.413   4.022 -0.1191  0.5415 -0.9701
 7411SOL    HW223133   3.633   5.502   4.158 -0.3966 -1.0043  0.0959
 7412SOL     OW23134   3.381   7.006   0.954  0.1377  0.2779  0.0885
 7412SOL    HW123135   3.442   6.993   0.876  2.0821  1.9916  1.2217
 7412SOL    HW223136   3.413   6.951   1.031 -0.1337  0.6976  0.5042
 7413SOL     OW23137   0.406   2.713   6.231 -0.3125 -0.4097 -0.4430
 7413SOL    HW123138   0.475   2.785   6.221 -1.3329  0.8092  0.9584
 7413SOL    HW223139   0.422   2.643   6.161  0.5504  1.2664 -2.0272
 7414SOL     OW23140   0.691   1.266   2.752  0.2240  0.0653 -0.3301
 7414SOL    HW123141   0.597   1.269   2.787  0.4006  0.7523  0.0817
 7414SOL    HW223142   0.697   1.195   2.682 -0.2710 -0.9230  0.5977
 7415SOL     OW23143   3.674   4.074   2.517 -0.0470  1.0156  0.1805
 7415SOL    HW123144   3.590   4.097   2.565  0.2287  2.9628 -0.1767
 7415SOL    HW223145   3.657   4.072   2.418  0.5509  2.7558  0.0033
 7416SOL     OW23146   0.659   1.664   1.072 -0.2389  0.0664 -0.2353
 7416SOL    HW123147   0.675   1.743   1.131 -1.1768 -1.5155  2.2845
 7416SOL    HW223148   0.579   1.681   1.015  1.1525  1.9467 -1.7929
 7417SOL     OW23149   0.925   1.326   5.422  0.2005 -0.1863 -0.5162
 7417SOL    HW123150   0.877   1.414   5.412 -1.2101 -0.9563 -0.7460
 7417SOL    HW223151   1.017   1.334   5.383  0.0230  1.1228 -0.7288
 7418SOL     OW23152   3.220   0.668   2.225  0.0057  0.0999  0.4024
 7418SOL    HW123153   3.210   0.761   2.260 -0.5614  0.0729  0.3078
 7418SOL    HW223154   3.293   0.666   2.156 -0.6258  0.6626 -0.2893
 7419SOL     OW23155   4.202   4.062   1.039 -0.0211  0.2963  0.2103
 7419SOL    HW123156   4.221   3.972   1.078 -1.6015 -0.5885 -0.9417
 7419SOL    HW223157   4.242   4.133   1.098 -0.3455 -1.0508  2.1632
 7420SOL     OW23158   2.786   6.871   6.460 -0.0021  0.7413  0.2207
 7420SOL    HW123159   2.832   6.854   6.547 -0.8924  1.9288  0.9635
 7420SOL    HW223160   2.845   6.923   6.399  0.5602  0.0560  0.1718
 7421SOL     OW23161   1.726   3.363   2.370  0.4268 -1.0509 -0.2927
 7421SOL    HW123162   1.770   3.431   2.311 -1.8459  0.6059 -0.1961
 7421SOL    HW223163   1.706   3.404   2.459  0.5878 -2.4338  0.4142
 7422SOL     OW23164   1.993   6.067   6.989 -0.3088  0.3079 -0.4871
 7422SOL    HW123165   1.997   6.000   7.063  1.6725 -0.8052 -1.5343
 7422SOL    HW223166   1.937   6.032   6.915 -1.9308  1.2385  0.2455
 7423SOL     OW23167   5.626   7.015   4.785  0.1827 -0.1268  0.0835
 7423SOL    HW123168   5.665   7.101   4.818  0.2902  0.4304 -1.3905
 7423SOL    HW223169   5.529   7.028   4.764 -0.2855 -0.8985  1.5907
 7424SOL     OW23170   6.891   2.148   4.844 -0.6268  0.3647  0.1690
 7424SOL    HW123171   6.934   2.168   4.756 -0.4281 -0.8581 -0.0287
 7424SOL    HW223172   6.852   2.232   4.881 -1.3467  0.7752 -1.4179
 7425SOL     OW23173   1.348   6.838   4.843  0.3831 -0.6579 -0.5590
 7425SOL    HW123174   1.352   6.753   4.895 -1.1486 -1.4578 -1.6567
 7425SOL    HW223175   1.264   6.887   4.864  1.5004  0.9130  0.4704
 7426SOL     OW23176   1.723   4.171   5.544 -0.1317 -0.2084 -0.1140
 7426SOL    HW123177   1.711   4.073   5.557 -0.2758 -0.3314 -1.1275
 7426SOL    HW223178   1.636   4.213   5.519  0.2897 -0.1363 -1.5390
 7427SOL     OW23179   6.251   0.375   2.142  0.7890  0.1096  0.5657
 7427SOL    HW123180   6.219   0.329   2.059 -1.8701  2.6142  0.0442
 7427SOL    HW223181   6.348   0.396   2.132  0.8886 -0.9226 -1.2700
 7428SOL     OW23182   1.242   3.017   2.984  0.2538  0.0595  0.0484
 7428SOL    HW123183   1.310   2.952   2.949  0.0274 -0.7796  1.1325
 7428SOL    HW223184   1.186   2.973   3.054 -0.7367  1.0542 -0.0852
 7429SOL     OW23185   0.852   1.312   2.111  0.6282 -0.6769 -0.2110
 7429SOL    HW123186   0.792   1.246   2.157  0.8921 -0.9013 -0.1874
 7429SOL    HW223187   0.927   1.263   2.066  0.6214 -0.4226 -0.5038
 7430SOL     OW23188   4.868   5.872   6.062  0.0844  0.0516 -0.0616
 7430SOL    HW123189   4.824   5.783   6.073  2.0840 -0.8954  0.9580
 7430SOL    HW223190   4.822   5.924   5.990 -2.1954 -1.0831  0.4846
 7431SOL     OW23191   5.666   1.314   6.477  0.3953 -0.1862  0.1156
 7431SOL    HW123192   5.679   1.389   6.412  0.6361 -0.8328 -0.5998
 7431SOL    HW223193   5.678   1.348   6.570 -1.4714  1.0914 -0.0546
 7432SOL     OW23194   6.611   3.693   1.305  0.0019 -0.0140  0.5257
 7432SOL    HW123195   6.615   3.792   1.291  1.1023 -0.3537 -2.2477
 7432SOL    HW223196   6.702   3.653   1.290 -0.4431 -1.4756  1.4710
 7433SOL     OW23197   0.775   6.637   6.397  0.2597  0.3959 -0.0026
 7433SOL    HW123198   0.867   6.604   6.418 -0.4474  0.2008  3.2128
 7433SOL    HW223199   0.712   6.559   6.390  0.0275  0.6303 -0.6552
 7434SOL     OW23200   6.179   1.755   2.487  0.1692 -1.0404  0.3148
 7434SOL    HW123201   6.101   1.741   2.548 -0.3156  0.4952  0.0906
 7434SOL    HW223202   6.173   1.693   2.409 -2.1695  0.6174 -0.9400
 7435SOL     OW23203   5.535   1.893   2.128  0.6375 -0.0228  0.2711
 7435SOL    HW123204   5.464   1.961   2.107 -0.5172 -1.0635  0.6735
 7435SOL    HW223205   5.625   1.936   2.122  0.0657  1.0274 -1.5178
 7436SOL     OW23206   6.012   3.197   4.999 -0.1477  0.2886  0.3430
 7436SOL    HW123207   6.023   3.253   4.917 -0.1979 -1.3043 -0.7901
 7436SOL    HW223208   5.926   3.221   5.044  0.5320  2.1544  0.7556
 7437SOL     OW23209   2.828   0.709   0.355  0.0927 -0.0154  0.6955
 7437SOL    HW123210   2.916   0.745   0.386  1.8302 -0.2818 -3.2894
 7437SOL    HW223211   2.838   0.612   0.331 -1.1736  0.0348 -0.1563
 7438SOL     OW23212   2.199   2.474   1.489  0.1871  0.2235  0.5062
 7438SOL    HW123213   2.212   2.573   1.488  1.0922  0.1152 -0.3049
 7438SOL    HW223214   2.104   2.453   1.469  0.3942  0.9056 -1.4722
 7439SOL     OW23215   2.887   5.729   3.869  0.3807 -0.8190  0.2293
 7439SOL    HW123216   2.912   5.637   3.899 -2.4027 -1.7383  0.0933
 7439SOL    HW223217   2.929   5.797   3.930  0.6113 -2.3055  1.8062
 7440SOL     OW23218   3.264   6.266   0.699 -0.8045 -0.6521  0.0681
 7440SOL    HW123219   3.235   6.174   0.724  0.3682 -1.2604 -0.6877
 7440SOL    HW223220   3.292   6.267   0.602  0.2361  0.2145  0.3565
 7441SOL     OW23221   0.673   3.723   0.551  0.2898 -0.3385  1.0380
 7441SOL    HW123222   0.638   3.695   0.462  0.4681  0.2633  0.7658
 7441SOL    HW223223   0.642   3.660   0.621 -0.5867 -0.3252  0.6756
 7442SOL     OW23224   2.079   3.791   2.513  0.0820  0.5177 -0.6166
 7442SOL    HW123225   2.112   3.880   2.542 -0.5964  0.3179  0.8875
 7442SOL    HW223226   2.069   3.731   2.593 -1.8501 -0.0924 -1.2490
 7443SOL     OW23227   0.911   1.987   3.794 -0.2420 -0.1818  0.5718
 7443SOL    HW123228   0.839   2.021   3.855 -0.7155  0.4054 -0.2892
 7443SOL    HW223229   0.965   1.918   3.842 -0.7968  0.0335  1.5443
 7444SOL     OW23230   3.965   2.623   6.378 -0.1762 -0.0214 -0.0913
 7444SOL    HW123231   4.051   2.620   6.428 -0.1016 -0.5031 -0.2434
 7444SOL    HW223232   3.970   2.562   6.298 -1.4469 -1.9055  1.1728
 7445SOL     OW23233   2.937   5.715   5.502  0.3763  0.1158  0.3777
 7445SOL    HW123234   3.028   5.753   5.519  0.8984 -1.1068  0.3876
 7445SOL    HW223235   2.871   5.790   5.494  1.3214  1.0066  0.6801
 7446SOL     OW23236   3.603   6.514   5.287 -0.2424  0.2249  0.3114
 7446SOL    HW123237   3.694   6.555   5.295  0.9075 -1.9200 -0.9362
 7446SOL    HW223238   3.543   6.576   5.236  0.3079  1.9060  1.6030
 7447SOL     OW23239   0.342   6.828   1.002  0.8372  0.3392 -0.3616
 7447SOL    HW123240   0.394   6.755   1.045  1.2213  1.5818  1.4187
 7447SOL    HW223241   0.404   6.891   0.956  0.7211  0.6768 -0.0639
 7448SOL     OW23242   0.684   4.278   4.112  0.3219  0.3113 -0.1282
 7448SOL    HW123243   0.658   4.193   4.158 -0.0221  1.1538  1.3144
 7448SOL    HW223244   0.730   4.257   4.026  1.9142 -1.3832  1.0623
 7449SOL     OW23245   5.743   0.120   6.671 -0.0026 -0.3581  0.4798
 7449SOL    HW123246   5.797   0.152   6.594 -0.8069 -1.8089 -0.7559
 7449SOL    HW223247   5.646   0.130   6.650 -0.2505 -1.7779  0.7954
 7450SOL     OW23248   3.191   0.010   1.979 -0.0782 -0.0580 -0.1861
 7450SOL    HW123249   3.242  -0.011   2.062 -0.7897  0.6564  0.4462
 7450SOL    HW223250   3.120  -0.059   1.966 -0.5667  0.3342  0.3238
 7451SOL     OW23251   3.341   1.148   2.756 -0.1945  0.2517 -0.1593
 7451SOL    HW123252   3.367   1.214   2.686  0.5246 -1.3010 -1.4187
 7451SOL    HW223253   3.324   1.196   2.842  0.2982  2.0565 -1.0163
 7452SOL     OW23254   4.419   1.787   3.939  0.3326  0.3324  0.2855
 7452SOL    HW123255   4.389   1.838   4.020  1.5305  2.0753 -0.2881
 7452SOL    HW223256   4.347   1.725   3.909 -0.7135  0.7758  1.7875
 7453SOL     OW23257   1.723   5.980   6.532 -0.2183  0.0964  0.2238
 7453SOL    HW123258   1.626   6.003   6.544  0.0499  0.7163  1.3639
 7453SOL    HW223259   1.739   5.952   6.438 -1.5228 -0.0937  0.0412
 7454SOL     OW23260   2.452   2.450   1.128 -0.0323 -0.4539 -0.3713
 7454SOL    HW123261   2.380   2.381   1.131 -1.6114  1.0982  2.5222
 7454SOL    HW223262   2.537   2.413   1.166 -1.1631 -0.6128  2.1874
 7455SOL     OW23263   2.096   1.319   5.151 -0.1684  0.0514 -0.3975
 7455SOL    HW123264   2.067   1.378   5.227 -0.9331  0.1842 -0.7861
 7455SOL    HW223265   2.196   1.312   5.151  0.0265  2.1680 -0.9297
 7456SOL     OW23266   5.622   6.428   6.818  0.0933  0.1793  0.0507
 7456SOL    HW123267   5.713   6.406   6.783  0.0147 -2.4893  1.2699
 7456SOL    HW223268   5.629   6.455   6.914 -0.3491  0.9483 -0.1201
 7457SOL     OW23269   6.946   0.720   5.891  0.2501 -0.5337  0.6204
 7457SOL    HW123270   7.043   0.746   5.896  0.1895 -0.2291  0.3034
 7457SOL    HW223271   6.891   0.802   5.871 -0.0171 -0.7949  0.2726
 7458SOL     OW23272   3.333   0.021   4.722  0.4122 -0.2950 -0.0451
 7458SOL    HW123273   3.282  -0.053   4.678 -0.1679  0.0693 -0.0017
 7458SOL    HW223274   3.429  -0.004   4.731  0.2564 -0.9525 -0.2239
 7459SOL     OW23275   4.528   1.705   2.944  0.0129  0.0833  0.2735
 7459SOL    HW123276   4.515   1.625   2.886  1.2735  2.2563 -3.2986
 7459SOL    HW223277   4.623   1.735   2.939 -0.4338  1.8459  1.4742
 7460SOL     OW23278   0.264   0.281   3.189  0.0547  0.2963  0.5466
 7460SOL    HW123279   0.338   0.343   3.162  0.4568 -0.2730  0.3117
 7460SOL    HW223280   0.201   0.269   3.112 -0.4527  1.0038  0.8365
 7461SOL     OW23281   5.904   5.425   5.388 -0.0517 -0.3632  0.1435
 7461SOL    HW123282   5.909   5.330   5.419 -0.2438 -0.8351 -1.1934
 7461SOL    HW223283   5.810   5.458   5.396 -0.0123 -0.3253  0.4762
 7462SOL     OW23284   2.878   3.988   1.165  0.5410 -0.9804  0.0624
 7462SOL    HW123285   2.935   4.029   1.093  0.8426  1.0384  1.3915
 7462SOL    HW223286   2.933   3.920   1.215  1.7232  0.6265  1.0428
 7463SOL     OW23287   1.115   0.336   3.147 -0.0885  0.3338  0.1848
 7463SOL    HW123288   1.139   0.432   3.156  3.1633 -0.4649  1.5380
 7463SOL    HW223289   1.030   0.318   3.197 -1.3833  2.6257 -1.0349
 7464SOL     OW23290   4.236   0.033   3.378  0.1935  0.3521  0.3376
 7464SOL    HW123291   4.193   0.101   3.437  1.3610  1.9032 -0.5380
 7464SOL    HW223292   4.166  -0.019   3.330 -0.8544 -1.3616  3.3922
 7465SOL     OW23293   5.504   5.781   6.472  0.4867  0.5299 -0.2232
 7465SOL    HW123294   5.506   5.713   6.545 -0.1581  0.5484 -0.1886
 7465SOL    HW223295   5.410   5.800   6.445  0.7014  0.7118 -0.8875
 7466SOL     OW23296   6.288   5.672   6.409  0.7631  0.1870 -0.0597
 7466SOL    HW123297   6.226   5.639   6.337  1.9493  1.1571 -1.5758
 7466SOL    HW223298   6.242   5.665   6.497 -0.9486 -0.5171 -0.9528
 7467SOL     OW23299   1.926   2.443   3.507  0.0081  0.0681 -0.5472
 7467SOL    HW123300   1.880   2.525   3.474  0.3294 -0.8148 -3.4247
 7467SOL    HW223301   2.023   2.447   3.484 -0.0536 -1.2698 -1.1407
 7468SOL     OW23302   2.912   0.580   0.661  0.3381  0.0296  0.2403
 7468SOL    HW123303   2.812   0.582   0.670  0.4019  0.2860  0.9371
 7468SOL    HW223304   2.953   0.570   0.751  0.9131 -1.4304 -0.1563
 7469SOL     OW23305   0.990   6.931   3.092  0.3055  0.3277  0.0931
 7469SOL    HW123306   0.914   6.995   3.103 -0.3614 -0.3822 -0.3175
 7469SOL    HW223307   0.961   6.839   3.119  1.4579  0.2965  1.3460
 7470SOL     OW23308   6.740   2.981   5.040  0.6386 -0.5639  0.8162
 7470SOL    HW123309   6.808   2.911   5.017  0.6506 -0.4867  0.6155
 7470SOL    HW223310   6.755   3.062   4.984  1.6398  0.2298  2.1864
 7471SOL     OW23311   2.210   0.300   3.992  0.1010  0.2632 -0.7090
 7471SOL    HW123312   2.305   0.271   4.003 -0.5966 -1.7819  0.3370
 7471SOL    HW223313   2.149   0.234   4.035 -1.7741  2.0793 -0.3817
 7472SOL     OW23314   6.919   6.894   1.300  0.0665 -0.6675 -0.1121
 7472SOL    HW123315   6.933   6.964   1.371 -0.5466  1.4848 -1.9849
 7472SOL    HW223316   7.006   6.850   1.279  0.2697 -1.3025  1.8890
 7473SOL     OW23317   3.141   5.067   3.809 -0.3236 -0.5603  0.2950
 7473SOL    HW123318   3.095   4.990   3.852  1.6561 -2.1457 -0.2830
 7473SOL    HW223319   3.236   5.043   3.790 -0.3862  1.0077 -2.5511
 7474SOL     OW23320   1.858   4.162   3.715  0.3236  0.5634  0.2368
 7474SOL    HW123321   1.828   4.094   3.647  3.3577 -0.5417 -0.1566
 7474SOL    HW223322   1.903   4.115   3.790 -2.1448  1.8529  2.6999
 7475SOL     OW23323   1.381   1.391   0.439 -0.2309  0.3759 -0.0580
 7475SOL    HW123324   1.458   1.422   0.495  0.9485  0.2397 -1.5417
 7475SOL    HW223325   1.300   1.380   0.497  0.9719  0.0465  1.6480
 7476SOL     OW23326   5.374   5.962   5.109  0.0360 -0.3766  0.2783
 7476SOL    HW123327   5.448   5.933   5.050  0.6006  0.3666  0.6015
 7476SOL    HW223328   5.354   5.890   5.176  1.1616 -0.1789  0.8397
 7477SOL     OW23329   4.055   0.050   1.443  0.6490 -0.3560  1.0036
 7477SOL    HW123330   3.973   0.049   1.501  1.1968 -0.0530  1.8051
 7477SOL    HW223331   4.100  -0.039   1.448  0.7460 -0.3008  1.1168
 7478SOL     OW23332   0.730   1.826   3.294 -0.1562  0.3337 -0.0310
 7478SOL    HW123333   0.632   1.846   3.301  0.2094  2.9688 -1.2677
 7478SOL    HW223334   0.752   1.796   3.202  0.1915 -0.4089  0.2865
 7479SOL     OW23335   1.887   1.903   3.660  0.3690 -0.4291  0.0861
 7479SOL    HW123336   1.952   1.977   3.674  2.8774 -2.6360  1.0883
 7479SOL    HW223337   1.837   1.885   3.744 -0.9162  0.6495 -0.4157
 7480SOL     OW23338   4.969   6.048   3.917 -0.3099 -0.1152 -0.2601
 7480SOL    HW123339   4.879   6.031   3.955 -0.1937 -0.3720 -0.0977
 7480SOL    HW223340   4.968   6.027   3.819 -0.4447 -0.0433 -0.2744
 7481SOL     OW23341   6.646   5.252   6.989 -0.6184  1.1248  0.2426
 7481SOL    HW123342   6.666   5.217   7.081 -1.0651  1.3376  0.4286
 7481SOL    HW223343   6.609   5.178   6.933 -0.7377  1.0902  0.3647
 7482SOL     OW23344   1.456   2.635   5.500  0.3096 -0.7975 -0.0517
 7482SOL    HW123345   1.552   2.615   5.479  0.1778 -1.7240  0.1587
 7482SOL    HW223346   1.423   2.706   5.439  0.9194 -1.0020 -0.6381
 7483SOL     OW23347   2.881   5.604   0.434 -0.3428  0.3187  0.2365
 7483SOL    HW123348   2.938   5.668   0.383  0.2260  0.3743  0.9196
 7483SOL    HW223349   2.899   5.615   0.532  0.4463 -1.5008  0.3309
 7484SOL     OW23350   5.956   3.534   4.065 -0.3709  0.2751 -0.0005
 7484SOL    HW123351   5.967   3.463   4.135 -1.2311 -2.1612 -2.1902
 7484SOL    HW223352   5.990   3.621   4.101  1.2145 -1.2879  2.6412
 7485SOL     OW23353   4.379   6.549   6.925 -0.2525 -0.5886  0.1034
 7485SOL    HW123354   4.342   6.639   6.949  3.4953  1.5023 -1.1537
 7485SOL    HW223355   4.408   6.502   7.008  0.4711  0.7021  0.6008
 7486SOL     OW23356   4.372   5.975   6.618 -0.1979 -0.3397  0.0037
 7486SOL    HW123357   4.386   5.922   6.535  1.3733  0.6827 -0.4307
 7486SOL    HW223358   4.286   6.027   6.611  0.0593 -0.0442 -1.1088
 7487SOL     OW23359   3.713   6.160   1.998 -0.5095 -0.1392  0.3511
 7487SOL    HW123360   3.678   6.253   2.010 -0.1500 -0.0297  0.5774
 7487SOL    HW223361   3.695   6.106   2.081  1.0189  0.3026  1.0003
 7488SOL     OW23362   1.310   1.540   1.493  0.6822  0.3477  0.2124
 7488SOL    HW123363   1.310   1.514   1.590  1.4435 -2.7693 -0.5065
 7488SOL    HW223364   1.404   1.558   1.464  0.6815 -0.4515 -0.3170
 7489SOL     OW23365   1.144   0.203   3.748  0.2813 -0.2146  0.2490
 7489SOL    HW123366   1.206   0.223   3.672 -1.7800  1.8686 -1.0202
 7489SOL    HW223367   1.082   0.129   3.721 -0.4924  0.5685 -0.1837
 7490SOL     OW23368   5.069   0.425   0.534 -0.3345 -0.3535 -0.0612
 7490SOL    HW123369   5.013   0.507   0.540 -0.1073 -0.1674 -0.4502
 7490SOL    HW223370   5.145   0.441   0.470  1.3299  0.0919  1.9236
 7491SOL     OW23371   4.744   5.499   6.496  0.9679  0.0742 -0.2196
 7491SOL    HW123372   4.814   5.440   6.535  1.3829  0.4288 -0.4302
 7491SOL    HW223373   4.675   5.443   6.450  1.4013 -0.2389 -0.4864
 7492SOL     OW23374   0.358   2.954   5.138  0.1390  0.6811 -0.1524
 7492SOL    HW123375   0.348   3.020   5.213  1.1928 -0.0651  0.6926
 7492SOL    HW223376   0.276   2.897   5.132 -0.6327  1.8111 -0.6606
 7493SOL     OW23377   2.554   1.072   0.095 -0.4028  0.4595  0.6464
 7493SOL    HW123378   2.534   1.016   0.015 -1.1745 -0.8718  1.7406
 7493SOL    HW223379   2.607   1.019   0.161 -0.4774  1.2754  1.3840
 7494SOL     OW23380   4.926   0.313   1.455 -0.5472  0.0946 -0.5717
 7494SOL    HW123381   4.974   0.334   1.540  1.9050 -3.0279 -1.0089
 7494SOL    HW223382   4.868   0.232   1.468 -0.4104 -0.2187 -1.7926
 7495SOL     OW23383   0.008   0.464   5.948  0.0925 -0.1644  0.1139
 7495SOL    HW123384  -0.051   0.390   5.916 -1.0225 -0.2846  2.2684
 7495SOL    HW223385  -0.034   0.552   5.927  0.2461 -0.1899 -0.3110
 7496SOL     OW23386   2.120   2.143   2.968 -0.3648  0.0204  0.2609
 7496SOL    HW123387   2.194   2.200   2.931 -2.5180  2.4215 -0.5900
 7496SOL    HW223388   2.078   2.092   2.893 -1.9238  1.5603  0.0259
 7497SOL     OW23389   0.203   4.711   6.484  0.4129  0.1657  0.5054
 7497SOL    HW123390   0.248   4.639   6.431  1.7426  0.9927  0.4580
 7497SOL    HW223391   0.159   4.670   6.564  1.7881 -0.6432  0.8992
 7498SOL     OW23392   3.722   4.060   3.484  0.4591 -0.1293  0.0381
 7498SOL    HW123393   3.772   4.034   3.567 -1.0675 -2.1437  0.4118
 7498SOL    HW223394   3.636   4.104   3.509 -0.1485 -1.0124 -0.4264
 7499SOL     OW23395   5.983   2.320   1.108  0.5705  0.1056 -0.2470
 7499SOL    HW123396   5.885   2.302   1.102  0.3260  1.0252  0.6099
 7499SOL    HW223397   6.024   2.261   1.177  0.2960  0.8551  0.5739
 7500SOL     OW23398   1.107   1.997   5.510  0.0839  0.2906 -0.0727
 7500SOL    HW123399   1.185   2.007   5.447  0.5356 -2.3382 -0.0593
 7500SOL    HW223400   1.132   2.034   5.600  0.0915  2.4123 -0.8942
 7501SOL     OW23401   5.862   1.452   0.757  0.6472  0.1876  0.2051
 7501SOL    HW123402   5.942   1.439   0.816  0.8571 -1.5844 -0.4065
 7501SOL    HW223403   5.871   1.538   0.707  0.7799  1.4288  2.2168
 7502SOL     OW23404   5.491   3.263   5.077  0.2390 -1.0115  0.3156
 7502SOL    HW123405   5.589   3.279   5.065  0.1921 -0.6454  0.4139
 7502SOL    HW223406   5.446   3.348   5.103 -0.0351 -1.2803  0.7328
 7503SOL     OW23407   6.420   4.000   2.808  0.3478 -0.2286 -0.2778
 7503SOL    HW123408   6.473   3.921   2.837  1.7041  0.2281 -1.3625
 7503SOL    HW223409   6.336   3.970   2.762  0.5507 -1.0229 -0.1406
 7504SOL     OW23410   6.965   6.635   4.283 -0.3465 -0.0851  0.1901
 7504SOL    HW123411   7.026   6.712   4.268  2.3570 -2.0971 -0.0045
 7504SOL    HW223412   6.987   6.592   4.371 -1.5659 -0.8425  0.1529
 7505SOL     OW23413   1.714   7.004   2.784  0.0880 -0.2916 -0.1928
 7505SOL    HW123414   1.707   7.103   2.776  1.8650 -0.2250 -1.6839
 7505SOL    HW223415   1.750   6.979   2.874 -0.0766  0.4231  0.0731
 7506SOL     OW23416   0.801   0.897   1.947 -0.1904 -0.3344  0.3838
 7506SOL    HW123417   0.710   0.922   1.981  1.1178  3.1530  1.7773
 7506SOL    HW223418   0.830   0.962   1.877  2.6159  1.0476  2.6176
 7507SOL     OW23419   1.794   2.164   6.810  0.0890 -0.4716  0.1335
 7507SOL    HW123420   1.722   2.142   6.744  0.8735 -3.4376  0.0821
 7507SOL    HW223421   1.843   2.246   6.781 -2.1447  0.6328 -0.7314
 7508SOL     OW23422   1.517   4.189   0.863  0.0560 -0.0031  0.4182
 7508SOL    HW123423   1.538   4.152   0.954  0.6856 -1.5522 -0.3252
 7508SOL    HW223424   1.515   4.114   0.796 -1.7420  0.9157 -0.6374
 7509SOL     OW23425   6.808   0.388   1.785  0.1376  0.7835 -0.0308
 7509SOL    HW123426   6.708   0.396   1.784  0.2167  1.9891  0.1681
 7509SOL    HW223427   6.835   0.310   1.843 -0.6621  0.8511  0.4446
 7510SOL     OW23428   5.813   4.205   1.471 -0.2123  0.0464  0.7425
 7510SOL    HW123429   5.902   4.160   1.476 -1.0804 -2.1713 -1.3689
 7510SOL    HW223430   5.824   4.298   1.438  1.2363 -0.7648 -1.2593
 7511SOL     OW23431   5.502   3.177   3.837 -0.4643  0.4738  0.0297
 7511SOL    HW123432   5.407   3.152   3.818 -0.4874 -0.8221  1.5991
 7511SOL    HW223433   5.562   3.137   3.769 -0.8722 -0.5471  0.2549
 7512SOL     OW23434   0.311   5.148   2.525 -0.3101  0.5909 -0.3816
 7512SOL    HW123435   0.272   5.100   2.603  0.4661  0.7044  0.0803
 7512SOL    HW223436   0.353   5.233   2.555  1.1607  0.0094 -0.7097
 7513SOL     OW23437   5.289   0.779   5.257 -0.4820 -1.0411  0.1998
 7513SOL    HW123438   5.221   0.852   5.251  2.2569  1.9909  2.4400
 7513SOL    HW223439   5.253   0.704   5.312 -1.7725  0.8357  2.0636
 7514SOL     OW23440   6.112   4.955   1.124  0.0815 -0.8526  0.0498
 7514SOL    HW123441   6.189   4.895   1.145 -0.1310 -0.2156  3.0611
 7514SOL    HW223442   6.073   4.991   1.209 -1.1446  1.8899 -1.5354
 7515SOL     OW23443   6.555   2.305   2.903  0.6862 -0.5949  0.4359
 7515SOL    HW123444   6.619   2.251   2.848 -0.8438 -0.7846 -1.2538
 7515SOL    HW223445   6.509   2.245   2.969  2.1816 -0.4551  1.6657
 7516SOL     OW23446   6.671   0.443   2.088 -0.5111  0.2713  0.0257
 7516SOL    HW123447   6.621   0.412   2.007  0.6528 -1.8686  0.0458
 7516SOL    HW223448   6.640   0.391   2.168 -0.7278  1.4426  0.7270
 7517SOL     OW23449   2.057   3.564   3.698  0.4011 -0.8962 -0.5274
 7517SOL    HW123450   2.057   3.615   3.612  1.4744 -0.8124 -0.4999
 7517SOL    HW223451   1.966   3.566   3.739  0.1006 -0.1616 -1.2065
 7518SOL     OW23452   6.463   2.961   5.114  0.4443  0.6264  0.2968
 7518SOL    HW123453   6.556   2.961   5.078  0.2052  0.0760 -0.3538
 7518SOL    HW223454   6.398   2.973   5.038 -0.0587 -0.2373  0.5681
 7519SOL     OW23455   4.164   3.440   5.732  0.0435 -0.1573 -0.5144
 7519SOL    HW123456   4.067   3.443   5.759  0.7289 -0.4653  2.3162
 7519SOL    HW223457   4.212   3.518   5.774  1.4668 -1.4094  0.2881
 7520SOL     OW23458   4.148   4.247   0.179  0.4412  0.3002  0.0147
 7520SOL    HW123459   4.179   4.327   0.231 -1.2589  1.1493 -0.2025
 7520SOL    HW223460   4.190   4.247   0.089  0.6473  0.8158  0.1109
 7521SOL     OW23461   4.330   6.816   7.011  0.1152  0.7045 -0.1892
 7521SOL    HW123462   4.290   6.812   7.103  1.6161  0.5680  0.4830
 7521SOL    HW223463   4.270   6.869   6.951 -1.2827  0.1135  0.6519
 7522SOL     OW23464   2.861   1.248   3.078  0.2174 -0.5644 -0.0876
 7522SOL    HW123465   2.904   1.216   2.994  0.7740  0.3034 -0.1471
 7522SOL    HW223466   2.932   1.263   3.148 -0.0804  0.0430  0.0889
 7523SOL     OW23467   3.449   6.543   3.162  0.1746 -0.0976  0.1657
 7523SOL    HW123468   3.377   6.513   3.224  1.5735 -2.1145  0.9586
 7523SOL    HW223469   3.472   6.638   3.180 -1.1335  0.0677  1.0513
 7524SOL     OW23470   2.101   4.159   6.220 -0.3573  0.2197 -0.1860
 7524SOL    HW123471   2.132   4.189   6.311  0.2542 -1.0388  0.0440
 7524SOL    HW223472   2.029   4.091   6.231 -1.2994  1.1098 -0.6901
 7525SOL     OW23473   2.221   5.462   1.385  0.3863  0.2571  0.2650
 7525SOL    HW123474   2.294   5.398   1.409 -1.5898 -2.1457  0.2585
 7525SOL    HW223475   2.194   5.514   1.467  2.1280  1.2957  0.2304
 7526SOL     OW23476   1.357   4.559   6.259 -0.6053  0.1506 -0.1302
 7526SOL    HW123477   1.443   4.510   6.273 -0.3921 -0.0275 -1.8829
 7526SOL    HW223478   1.289   4.497   6.219 -1.0641  0.6789 -0.1898
 7527SOL     OW23479   3.149   0.333   1.125 -0.2584  0.5994  0.3457
 7527SOL    HW123480   3.071   0.378   1.168 -1.0037 -0.6882  0.3989
 7527SOL    HW223481   3.122   0.242   1.093  0.9059  0.5876 -0.7166
 7528SOL     OW23482   5.357   5.819   4.480 -0.1465 -0.3267 -0.0434
 7528SOL    HW123483   5.343   5.918   4.476  1.2014 -0.1490 -1.1565
 7528SOL    HW223484   5.271   5.772   4.461 -0.0721  0.6575 -3.5265
 7529SOL     OW23485   1.184   2.963   1.600  0.3617 -0.3181  0.4832
 7529SOL    HW123486   1.108   3.017   1.564 -1.1799 -3.1274 -0.7953
 7529SOL    HW223487   1.270   3.009   1.578 -0.7987  1.2275 -1.2151
 7530SOL     OW23488   6.873   6.042   3.476  0.6302 -0.2017  0.2148
 7530SOL    HW123489   6.835   6.059   3.567 -0.1113 -0.2793 -0.0775
 7530SOL    HW223490   6.826   5.965   3.434  1.9885 -1.1485  0.3568
 7531SOL     OW23491   3.697   2.634   0.148  0.3203 -0.0212 -0.2371
 7531SOL    HW123492   3.693   2.569   0.072 -1.8992 -0.8872  0.5551
 7531SOL    HW223493   3.791   2.637   0.184  0.8418 -1.5071 -1.3672
 7532SOL     OW23494   3.694   4.121   3.216 -0.1118  0.0564  0.2643
 7532SOL    HW123495   3.719   4.066   3.296  0.5170 -0.4866 -0.2859
 7532SOL    HW223496   3.595   4.137   3.215 -0.5393 -2.2714 -0.2832
 7533SOL     OW23497   3.429   3.076   0.224  0.2198  0.0009  0.0062
 7533SOL    HW123498   3.420   2.977   0.215  1.9385 -0.1132 -1.1256
 7533SOL    HW223499   3.501   3.097   0.291 -0.3269  0.4992  0.4461
 7534SOL     OW23500   3.733   6.483   1.544 -0.1172  0.2326  0.0190
 7534SOL    HW123501   3.830   6.463   1.558 -0.2556  0.9075  2.4081
 7534SOL    HW223502   3.723   6.572   1.500  0.3645  0.9198  1.2464
 7535SOL     OW23503   4.276   7.016   4.642 -0.6818  0.0565 -0.3357
 7535SOL    HW123504   4.344   7.018   4.715 -2.3989  0.6940  1.3432
 7535SOL    HW223505   4.259   6.921   4.614 -0.5836 -0.2775  0.6915
 7536SOL     OW23506   0.705   5.230   5.600 -0.3728  0.2401  0.7555
 7536SOL    HW123507   0.608   5.240   5.624 -0.9729 -0.8022 -1.0251
 7536SOL    HW223508   0.712   5.201   5.505  1.8045  3.0031 -0.0386
 7537SOL     OW23509   5.086   0.005   2.847  0.2854  0.6212 -0.0938
 7537SOL    HW123510   5.051  -0.073   2.900 -2.0167  1.8637  0.3407
 7537SOL    HW223511   5.183   0.017   2.867  0.2003 -0.8125  1.4817
 7538SOL     OW23512   2.490   6.544   0.168 -0.2095 -0.0271  0.4752
 7538SOL    HW123513   2.507   6.587   0.080 -0.2768  0.2450  0.5936
 7538SOL    HW223514   2.415   6.478   0.159 -0.3294  0.1237  0.3682
 7539SOL     OW23515   0.919   1.233   1.030 -0.2128 -0.2920 -0.7311
 7539SOL    HW123516   0.862   1.314   1.043  0.5098 -0.1037  1.9038
 7539SOL    HW223517   1.005   1.259   0.987  0.3771  0.5593  0.8869
 7540SOL     OW23518   4.361   4.083   0.328  0.1540 -0.2681 -0.2442
 7540SOL    HW123519   4.268   4.095   0.362  0.3625  2.9117 -0.5294
 7540SOL    HW223520   4.422   4.062   0.405 -0.4852 -0.4937  0.2089
 7541SOL     OW23521   5.417   5.710   6.820  0.2809 -0.2801 -0.4698
 7541SOL    HW123522   5.517   5.710   6.828  0.1873  0.0824  0.9874
 7541SOL    HW223523   5.384   5.616   6.819  0.7245 -0.4452 -2.5650
 7542SOL     OW23524   3.920   6.223   3.905 -0.2028  0.1702  0.3342
 7542SOL    HW123525   3.945   6.234   3.809 -1.0335  0.5471  0.1546
 7542SOL    HW223526   3.852   6.292   3.930 -0.4749 -0.3378  1.0221
 7543SOL     OW23527   6.466   3.280   5.207 -0.4320 -0.1710 -0.4733
 7543SOL    HW123528   6.437   3.278   5.111  0.8326 -0.9090 -0.8523
 7543SOL    HW223529   6.426   3.203   5.256 -1.0296  0.1724 -0.4107
 7544SOL     OW23530   3.696   3.678   2.996 -0.1513  0.1702 -0.0841
 7544SOL    HW123531   3.601   3.709   3.005 -0.8451 -1.4427 -1.2864
 7544SOL    HW223532   3.707   3.629   2.909  2.1093  1.3521 -0.5390
 7545SOL     OW23533   5.572   2.049   5.036 -0.4190 -0.1629 -0.6255
 7545SOL    HW123534   5.605   2.143   5.042  0.5634 -0.3064 -2.9554
 7545SOL    HW223535   5.634   1.989   5.087  0.6160  0.1097 -1.5334
 7546SOL     OW23536   4.737   5.944   4.455 -0.6275  0.4371 -0.7936
 7546SOL    HW123537   4.827   5.900   4.451 -1.0171 -0.6891  1.1200
 7546SOL    HW223538   4.672   5.892   4.399 -0.5886 -0.1354 -0.3174
 7547SOL     OW23539   6.780   3.419   1.943  0.4456 -0.3571 -0.5280
 7547SOL    HW123540   6.723   3.425   1.860 -0.1699 -0.6350 -0.1295
 7547SOL    HW223541   6.874   3.443   1.920 -0.1663  2.0677 -0.8363
 7548SOL     OW23542   0.249   6.393   4.683  0.2732 -0.0456  0.1722
 7548SOL    HW123543   0.299   6.474   4.715 -0.7086  1.6648 -2.3382
 7548SOL    HW223544   0.192   6.359   4.757  0.4576  1.7704  1.2334
 7549SOL     OW23545   2.480   0.259   4.018 -0.2518 -0.5913 -0.5764
 7549SOL    HW123546   2.470   0.160   4.013 -1.7122 -0.5797  1.1152
 7549SOL    HW223547   2.563   0.287   3.971  0.5637 -2.6898 -0.4673
 7550SOL     OW23548   5.155   5.745   1.312 -0.0245 -0.4591 -0.3876
 7550SOL    HW123549   5.218   5.667   1.312  0.8061  0.2045 -0.2341
 7550SOL    HW223550   5.198   5.823   1.357 -0.6723  0.2305 -0.9423
 7551SOL     OW23551   5.948   1.332   4.369  0.0353  0.2911 -0.6981
 7551SOL    HW123552   6.022   1.303   4.307  0.0961 -0.0771 -0.4548
 7551SOL    HW223553   5.862   1.336   4.319 -0.0343 -0.6304 -0.6621
 7552SOL     OW23554   0.068   5.203   2.282 -0.6340  0.0399  0.7468
 7552SOL    HW123555   0.069   5.303   2.278 -0.4313  0.0210  0.3051
 7552SOL    HW223556   0.145   5.166   2.230  1.9065 -0.2388  4.3206
 7553SOL     OW23557   0.353   1.255   0.614  0.2970 -0.3065 -0.7003
 7553SOL    HW123558   0.267   1.306   0.616  0.5802  0.1764 -0.6609
 7553SOL    HW223559   0.384   1.244   0.519 -0.5422 -1.7470 -0.8322
 7554SOL     OW23560   6.371   4.263   5.628  0.4266  0.5035 -0.6334
 7554SOL    HW123561   6.433   4.283   5.553 -0.1834  2.3226 -0.7197
 7554SOL    HW223562   6.423   4.247   5.712  1.0642 -0.3872 -1.1817
 7555SOL     OW23563   5.867   1.523   4.540 -0.5737  0.1921  0.0672
 7555SOL    HW123564   5.905   1.449   4.484  1.2310  0.4768  0.8595
 7555SOL    HW223565   5.907   1.610   4.511 -1.0364  0.5787  0.5882
 7556SOL     OW23566   0.058   1.187   4.560  0.0986 -0.3323  0.0861
 7556SOL    HW123567   0.115   1.233   4.492  0.8302 -1.0068  0.2341
 7556SOL    HW223568   0.002   1.255   4.608  0.2666  0.2559 -0.5418
 7557SOL     OW23569   3.839   2.111   1.762 -0.0837  0.6103  0.2849
 7557SOL    HW123570   3.826   2.028   1.816  0.2599  0.7852  0.6479
 7557SOL    HW223571   3.783   2.184   1.801 -0.6514  0.4566 -0.2446
 7558SOL     OW23572   3.152   0.801   5.323  0.2140  0.0469 -0.4231
 7558SOL    HW123573   3.182   0.775   5.231  0.8485 -1.5597  0.2067
 7558SOL    HW223574   3.222   0.775   5.389 -0.8470 -0.1173  0.6681
 7559SOL     OW23575   6.725   0.336   6.713 -0.1865  0.0439  0.4947
 7559SOL    HW123576   6.783   0.345   6.794 -1.1206  3.1311  0.9840
 7559SOL    HW223577   6.761   0.394   6.640 -0.0573 -1.7297 -0.9015
 7560SOL     OW23578   1.821   5.826   0.992  0.2081 -0.1502  0.2222
 7560SOL    HW123579   1.726   5.848   0.967  0.3354  0.3924  0.2228
 7560SOL    HW223580   1.879   5.833   0.910  0.6489  1.7469  0.6607
 7561SOL     OW23581   7.002   6.997   6.294  0.3612 -0.4420 -0.3422
 7561SOL    HW123582   7.084   7.019   6.241 -0.8495  0.2356 -2.0423
 7561SOL    HW223583   7.000   7.052   6.378  1.6606 -0.5290 -0.2379
 7562SOL     OW23584   0.656   3.814   5.241  0.4856 -0.3475 -0.0546
 7562SOL    HW123585   0.707   3.878   5.298 -2.1417  1.2416  0.6763
 7562SOL    HW223586   0.677   3.833   5.144  3.6379 -1.9267  0.1870
 7563SOL     OW23587   2.342   2.401   2.498 -0.2992 -0.0303  0.3794
 7563SOL    HW123588   2.285   2.451   2.564 -2.5536 -1.1951 -0.5671
 7563SOL    HW223589   2.317   2.304   2.499  1.3807 -0.5031 -0.4396
 7564SOL     OW23590   2.799   0.545   5.022 -0.0074  0.5947  0.3460
 7564SOL    HW123591   2.776   0.478   4.950 -0.0548  0.9010  0.0724
 7564SOL    HW223592   2.837   0.497   5.101  0.2909  0.2755  0.0131
 7565SOL     OW23593   1.852   2.754   2.904 -0.0743  1.0918  0.5349
 7565SOL    HW123594   1.833   2.829   2.968  1.0097  1.0084  0.9695
 7565SOL    HW223595   1.838   2.667   2.951 -1.1197  1.0130  0.0934
 7566SOL     OW23596   6.264   0.064   0.144  0.1290  0.1096 -0.1640
 7566SOL    HW123597   6.197   0.063   0.218  0.0874 -0.7845 -0.2055
 7566SOL    HW223598   6.286   0.159   0.121 -0.9285  0.4150  0.0224
 7567SOL     OW23599   2.802   0.125   2.472 -0.7020 -0.0014 -0.4115
 7567SOL    HW123600   2.712   0.084   2.486 -0.8321  0.2448 -0.5176
 7567SOL    HW223601   2.834   0.165   2.559  0.0236 -1.4870  0.0436
 7568SOL     OW23602   3.020   3.374   5.434  0.0250  0.2900 -0.3704
 7568SOL    HW123603   2.934   3.354   5.388 -0.4185  0.4956  0.3485
 7568SOL    HW223604   3.017   3.466   5.473 -0.4453 -0.5876  1.8308
 7569SOL     OW23605   3.946   6.790   1.736  0.4097 -0.4342  0.3874
 7569SOL    HW123606   3.887   6.869   1.722 -0.4177 -1.4029 -2.1393
 7569SOL    HW223607   3.993   6.768   1.651 -0.1724 -3.2317  0.6865
 7570SOL     OW23608   1.336   6.537   2.653  0.0638  0.3933 -0.4127
 7570SOL    HW123609   1.248   6.489   2.652  0.3845 -0.3109  1.5801
 7570SOL    HW223610   1.381   6.523   2.741  1.9360  1.2044 -1.1869
 7571SOL     OW23611   5.654   4.180   5.453  0.0084  0.1260  0.1342
 7571SOL    HW123612   5.624   4.188   5.358 -1.7002  0.8412  0.6902
 7571SOL    HW223613   5.649   4.270   5.497  0.7570 -0.2019  0.9161
 7572SOL     OW23614   3.644   5.243   2.889  0.7274 -0.7527 -0.2979
 7572SOL    HW123615   3.619   5.339   2.877  0.5234 -0.9388 -1.5247
 7572SOL    HW223616   3.562   5.187   2.890  0.7723 -0.8324  1.5304
 7573SOL     OW23617   0.722   3.769   2.576 -0.2607 -0.1737 -0.5429
 7573SOL    HW123618   0.668   3.841   2.531  2.3049  2.4861  0.2944
 7573SOL    HW223619   0.744   3.697   2.511  1.3088  2.3425 -2.9997
 7574SOL     OW23620   6.599   0.016   5.514 -0.2713  0.1259 -0.2014
 7574SOL    HW123621   6.642   0.105   5.525 -2.5274  1.2232  0.3730
 7574SOL    HW223622   6.665  -0.049   5.476  1.2711  2.1669 -1.1824
 7575SOL     OW23623   6.188   2.552   4.628  0.0406 -0.3737  0.0526
 7575SOL    HW123624   6.195   2.461   4.588 -1.6858  0.0002 -1.1864
 7575SOL    HW223625   6.101   2.560   4.677  0.1510  0.6327  0.0988
 7576SOL     OW23626   2.032   5.053   0.952 -0.5453 -0.3373  0.2622
 7576SOL    HW123627   2.120   5.102   0.947 -0.9347  0.4669  1.0009
 7576SOL    HW223628   2.027   4.987   0.877 -0.0060  0.7742 -0.7957
 7577SOL     OW23629   2.457   0.245   1.322  0.3548 -0.2194 -0.5126
 7577SOL    HW123630   2.435   0.221   1.227 -0.9292  0.0455 -0.3115
 7577SOL    HW223631   2.551   0.220   1.342  0.1776 -1.6999 -1.3997
 7578SOL     OW23632   5.548   5.755   4.226  0.5468  0.6789 -0.2885
 7578SOL    HW123633   5.504   5.786   4.310  2.1747  0.5324  0.6616
 7578SOL    HW223634   5.622   5.691   4.249  2.4077  2.2218 -1.6625
 7579SOL     OW23635   1.667   3.000   3.725  0.1342 -0.2669  0.9928
 7579SOL    HW123636   1.651   3.085   3.775 -0.1567  0.6414 -0.5699
 7579SOL    HW223637   1.642   2.922   3.782 -0.1630  0.7121  2.2417
 7580SOL     OW23638   4.444   1.829   3.303 -0.0401  0.2877 -0.1335
 7580SOL    HW123639   4.450   1.928   3.290 -0.7531  0.4335  0.5794
 7580SOL    HW223640   4.473   1.805   3.395  1.0116 -0.2839 -0.5951
 7581SOL     OW23641   0.896   5.166   2.786  0.1343 -0.0328 -0.1136
 7581SOL    HW123642   0.797   5.178   2.770 -0.0125 -2.2225 -1.1392
 7581SOL    HW223643   0.947   5.209   2.711  0.0421  1.8611  0.8566
 7582SOL     OW23644   2.367   2.482   2.900 -0.2123  0.8384 -0.8339
 7582SOL    HW123645   2.447   2.511   2.847  3.1230 -1.8928  2.2122
 7582SOL    HW223646   2.338   2.557   2.960  2.3077  0.9707  0.3521
 7583SOL     OW23647   6.326   1.588   0.183 -0.1380  0.3851 -0.4835
 7583SOL    HW123648   6.227   1.592   0.188 -0.2020 -0.7601 -0.6009
 7583SOL    HW223649   6.357   1.494   0.197  0.9882  0.8669  0.5139
 7584SOL     OW23650   6.858   3.328   2.186  0.7489 -0.3524 -0.6505
 7584SOL    HW123651   6.832   3.360   2.096  0.2811 -2.3005 -1.2657
 7584SOL    HW223652   6.786   3.269   2.223  0.4969  1.1642  1.4381
 7585SOL     OW23653   6.928   3.405   6.556 -0.7564 -0.0306 -0.0109
 7585SOL    HW123654   6.841   3.364   6.529 -1.1833  0.9839 -0.1826
 7585SOL    HW223655   7.002   3.363   6.503 -1.6138  2.3255 -3.3691
 7586SOL     OW23656   3.825   0.347   1.410 -0.6722  0.3184 -0.5249
 7586SOL    HW123657   3.757   0.311   1.473  0.7276 -1.6877 -0.0604
 7586SOL    HW223658   3.802   0.318   1.317 -0.8865  0.3426 -0.4805
 7587SOL     OW23659   0.741   1.154   3.611 -0.1482 -0.7460 -0.6061
 7587SOL    HW123660   0.721   1.209   3.530  1.9787 -2.1472 -2.1915
 7587SOL    HW223661   0.772   1.214   3.685  1.2883  0.3143 -2.0052
 7588SOL     OW23662   1.942   4.738   2.149  0.5940 -0.1202 -0.5031
 7588SOL    HW123663   2.030   4.740   2.196  0.2343  0.5345  0.1608
 7588SOL    HW223664   1.924   4.645   2.115  0.1816 -1.0341  1.9702
 7589SOL     OW23665   4.457   1.488   4.893 -0.0597 -0.3573 -0.0720
 7589SOL    HW123666   4.383   1.488   4.961 -0.5106 -1.4278 -0.5391
 7589SOL    HW223667   4.541   1.521   4.936 -0.4829 -0.4241  0.8432
 7590SOL     OW23668   3.827   6.867   4.792  0.1297 -0.0687 -0.2100
 7590SOL    HW123669   3.772   6.903   4.717 -0.7742  0.1801  0.5585
 7590SOL    HW223670   3.831   6.768   4.787  3.3893  0.0063 -2.8847
 7591SOL     OW23671   5.087   6.916   6.573  0.2811  0.1071 -0.2141
 7591SOL    HW123672   5.020   6.845   6.596 -1.6013  2.2716  1.5242
 7591SOL    HW223673   5.136   6.944   6.656  1.3100  0.5659 -0.9492
 7592SOL     OW23674   5.054   3.833   3.405 -0.1080 -0.3103  0.3775
 7592SOL    HW123675   5.076   3.912   3.348  1.2429 -1.2600 -0.5157
 7592SOL    HW223676   5.139   3.787   3.430 -0.8722 -1.6719  0.5653
 7593SOL     OW23677   3.670   5.808   5.940  0.1435 -0.3828 -0.9007
 7593SOL    HW123678   3.598   5.816   5.872  0.2186 -1.1242 -1.0787
 7593SOL    HW223679   3.664   5.719   5.986 -0.3778  0.3949  0.6215
 7594SOL     OW23680   1.495   3.761   6.082 -0.7340 -0.3774  0.5394
 7594SOL    HW123681   1.453   3.845   6.115 -2.9575 -0.9953 -0.5223
 7594SOL    HW223682   1.539   3.778   5.994 -0.9711 -0.2781  0.4410
 7595SOL     OW23683   1.883   1.952   2.156 -0.1900 -0.7512 -0.0566
 7595SOL    HW123684   1.953   1.953   2.228 -1.5374 -1.3473  1.3259
 7595SOL    HW223685   1.833   2.039   2.158 -1.0472 -1.2385  0.6084
 7596SOL     OW23686   3.656   6.837   3.845 -0.3237  0.6017  0.3263
 7596SOL    HW123687   3.583   6.818   3.911 -0.7189  0.4153 -0.1609
 7596SOL    HW223688   3.718   6.905   3.883 -0.0410 -0.1596  1.2584
 7597SOL     OW23689   6.387   0.722   3.243 -0.4188 -0.1080  0.0640
 7597SOL    HW123690   6.337   0.640   3.269 -0.4504  0.2937  1.3359
 7597SOL    HW223691   6.333   0.803   3.267  0.3706  0.3145  0.4533
 7598SOL     OW23692   0.343   4.888   5.114 -0.0981 -0.0863 -0.1001
 7598SOL    HW123693   0.340   4.900   5.213 -2.3378 -1.5955  0.0741
 7598SOL    HW223694   0.387   4.801   5.092  0.6050  0.3506 -0.4681
 7599SOL     OW23695   4.404   5.852   1.285  0.1690 -0.0028  0.3732
 7599SOL    HW123696   4.367   5.830   1.375 -0.5248 -0.5192 -0.0324
 7599SOL    HW223697   4.366   5.789   1.217  1.8467 -0.6279 -0.0478
 7600SOL     OW23698   0.294   5.471   5.091  0.1225 -0.1150 -0.3174
 7600SOL    HW123699   0.235   5.538   5.136 -0.2849 -0.8537  0.2528
 7600SOL    HW223700   0.264   5.459   4.996 -0.0872  0.1592 -0.2865
 7601SOL     OW23701   6.711   1.963   0.834 -0.0695 -0.0852  0.2392
 7601SOL    HW123702   6.783   1.893   0.835  0.2902  0.2249 -1.2067
 7601SOL    HW223703   6.635   1.933   0.776 -0.3693  0.2720  0.4421
 7602SOL     OW23704   1.459   5.347   6.617  0.7093  0.2078  0.3225
 7602SOL    HW123705   1.463   5.407   6.697 -0.9185  0.3565  0.3226
 7602SOL    HW223706   1.495   5.396   6.537  0.4901  0.7744  0.5632
 7603SOL     OW23707   1.549   2.415   4.612  0.4239  0.1268 -0.2126
 7603SOL    HW123708   1.630   2.359   4.593 -0.4425 -0.5404 -2.1593
 7603SOL    HW223709   1.574   2.511   4.607  1.4793 -0.0320  1.1350
 7604SOL     OW23710   2.503   1.149   1.505  0.5004  0.2466  0.0717
 7604SOL    HW123711   2.592   1.194   1.501  0.8710 -0.5625 -2.3576
 7604SOL    HW223712   2.497   1.080   1.433 -1.5732 -0.7576  1.1031
 7605SOL     OW23713   4.494   1.393   3.933 -0.7837 -0.1671  0.3461
 7605SOL    HW123714   4.428   1.447   3.986 -2.3725 -0.0602 -1.6304
 7605SOL    HW223715   4.504   1.303   3.976 -0.4509  0.5951  1.9479
 7606SOL     OW23716   5.303   5.654   1.734  0.6314 -0.1961  0.6364
 7606SOL    HW123717   5.318   5.705   1.819  0.0571  0.0154  0.6211
 7606SOL    HW223718   5.241   5.577   1.752  0.3962 -0.0668  0.3810
 7607SOL     OW23719   2.042   4.738   4.658  0.2557 -0.0426 -0.4649
 7607SOL    HW123720   1.989   4.680   4.595 -0.4099  0.7643 -0.6745
 7607SOL    HW223721   1.980   4.778   4.726  0.8029 -0.0576  0.0464
 7608SOL     OW23722   3.080   6.655   0.285 -0.1451  0.8533  0.1222
 7608SOL    HW123723   3.176   6.676   0.265 -0.3226  2.3177  0.7119
 7608SOL    HW223724   3.029   6.652   0.199  0.6515 -1.4015 -0.3524
 7609SOL     OW23725   5.140   1.419   2.789 -0.6077  0.6989 -0.7743
 7609SOL    HW123726   5.078   1.446   2.862 -1.9706  0.8710 -1.9524
 7609SOL    HW223727   5.217   1.483   2.786  0.7758 -0.6802  1.9920
 7610SOL     OW23728   0.631   1.561   3.523 -0.1625 -0.2878 -0.3690
 7610SOL    HW123729   0.546   1.566   3.472 -0.6107 -1.0247  0.2829
 7610SOL    HW223730   0.642   1.645   3.577  0.0694  0.2744 -1.2726
 7611SOL     OW23731   4.326   0.019   6.793  0.0739  0.2730  0.3452
 7611SOL    HW123732   4.390   0.040   6.719  0.2878  0.1352  0.4926
 7611SOL    HW223733   4.347   0.077   6.872  2.2032 -2.0991  1.6361
 7612SOL     OW23734   4.218   1.253   6.823 -0.0990 -0.1789 -0.3422
 7612SOL    HW123735   4.188   1.196   6.746  0.4531  1.0586 -1.5149
 7612SOL    HW223736   4.264   1.196   6.891  0.7808 -1.0733 -1.6566
 7613SOL     OW23737   4.067   5.898   6.674 -0.0840 -0.2960 -0.2642
 7613SOL    HW123738   3.975   5.888   6.710  0.1471  0.2601  0.5067
 7613SOL    HW223739   4.131   5.913   6.749  0.3915  1.0471 -0.8935
 7614SOL     OW23740   1.404   6.257   5.437 -0.1050 -0.1432  0.3900
 7614SOL    HW123741   1.438   6.327   5.500 -2.0775  2.6684 -1.4031
 7614SOL    HW223742   1.455   6.262   5.352  1.0581 -2.3752  0.8963
 7615SOL     OW23743   4.412   0.796   3.270  0.5165 -0.1469  0.2514
 7615SOL    HW123744   4.427   0.738   3.350  0.4194 -1.5510 -0.7066
 7615SOL    HW223745   4.473   0.875   3.273  0.9788 -0.5302  1.3684
 7616SOL     OW23746   2.144   4.350   4.657  0.0175  0.7284 -0.0194
 7616SOL    HW123747   2.190   4.407   4.725  1.9855 -0.6778 -0.1142
 7616SOL    HW223748   2.159   4.388   4.566  1.3134  0.0970 -0.0823
 7617SOL     OW23749   2.160   3.172   0.967  0.1833 -0.0544  0.4885
 7617SOL    HW123750   2.104   3.251   0.990 -1.0623 -0.9419  0.5903
 7617SOL    HW223751   2.229   3.159   1.038  0.2751  0.8179  0.5672
 7618SOL     OW23752   4.808   5.005   4.851  0.4903  0.6179  0.0249
 7618SOL    HW123753   4.824   4.913   4.887 -0.1948 -0.1538 -1.5514
 7618SOL    HW223754   4.872   5.069   4.893  2.1411 -0.8923 -0.0967
 7619SOL     OW23755   6.133   2.103   2.400 -0.0914 -0.2440 -0.1362
 7619SOL    HW123756   6.209   2.077   2.460 -0.0551 -0.9496 -0.4704
 7619SOL    HW223757   6.154   2.077   2.306  1.0976  3.4293 -1.0127
 7620SOL     OW23758   2.808   5.261   2.811  0.1889  0.1905  0.4993
 7620SOL    HW123759   2.896   5.279   2.856  0.5865  1.9886 -0.8706
 7620SOL    HW223760   2.768   5.348   2.782 -1.3265 -0.7279 -0.2338
 7621SOL     OW23761   3.627   0.574   5.800 -0.4886 -0.1360 -0.1044
 7621SOL    HW123762   3.631   0.556   5.702  1.9154 -0.2388 -0.0403
 7621SOL    HW223763   3.565   0.651   5.817 -0.2689  0.4431 -1.7767
 7622SOL     OW23764   2.033   6.991   0.173 -0.2946  0.0636  0.2029
 7622SOL    HW123765   2.088   6.916   0.135  0.4921  1.9135 -2.6302
 7622SOL    HW223766   2.064   7.078   0.134 -2.1531  1.7421  2.2236
 7623SOL     OW23767   6.762   5.517   5.850 -0.3265  0.4645 -0.4909
 7623SOL    HW123768   6.729   5.456   5.778  0.5305  0.9820 -1.3512
 7623SOL    HW223769   6.858   5.495   5.871  0.3893  2.2495 -1.6644
 7624SOL     OW23770   5.561   2.636   5.659 -0.5471 -0.4244  0.9121
 7624SOL    HW123771   5.516   2.695   5.727 -1.5083  2.7594 -2.1972
 7624SOL    HW223772   5.501   2.560   5.636 -0.7417 -0.8311  2.6093
 7625SOL     OW23773   5.116   5.888   6.183  0.0051 -0.7317 -0.2694
 7625SOL    HW123774   5.120   5.977   6.230  1.2668 -0.7010 -0.4004
 7625SOL    HW223775   5.023   5.872   6.150 -0.1404  0.7736 -0.6716
 7626SOL     OW23776   0.957   1.368   0.373  0.1314 -0.1061  0.5870
 7626SOL    HW123777   0.950   1.464   0.401 -0.2869  0.3263 -0.9029
 7626SOL    HW223778   0.899   1.312   0.432  0.3866  0.5453  1.4822
 7627SOL     OW23779   3.947   1.776   3.557  0.7903 -0.1949  0.0459
 7627SOL    HW123780   3.944   1.691   3.503  0.0750 -1.4803  1.9851
 7627SOL    HW223781   3.982   1.850   3.500  0.0874 -1.4506 -2.1571
 7628SOL     OW23782   1.941   6.321   5.122  0.0018  0.0112  0.5297
 7628SOL    HW123783   2.001   6.292   5.048  0.1799  0.2278  0.5890
 7628SOL    HW223784   1.855   6.357   5.084 -0.1139 -0.3441  0.4476
 7629SOL     OW23785   5.769   6.536   6.097 -0.0576 -0.4618  0.0277
 7629SOL    HW123786   5.732   6.489   6.016  0.1091  0.2652 -0.4824
 7629SOL    HW223787   5.854   6.583   6.072  0.0747 -0.3589  0.6677
 7630SOL     OW23788   5.405   5.869   0.819 -0.2641 -0.1722 -0.1301
 7630SOL    HW123789   5.349   5.878   0.902 -0.7072  2.1438 -0.5959
 7630SOL    HW223790   5.390   5.779   0.778 -1.2958 -0.7518  1.4194
 7631SOL     OW23791   1.825   0.635   1.898  0.0779 -1.1391 -0.5061
 7631SOL    HW123792   1.792   0.668   1.986  1.0757 -0.1167 -0.4822
 7631SOL    HW223793   1.844   0.537   1.904  0.6746 -0.9761  0.6088
 7632SOL     OW23794   6.326   0.359   0.160 -0.3892  0.7286  0.4974
 7632SOL    HW123795   6.343   0.378   0.064  0.1185  1.5769  0.7388
 7632SOL    HW223796   6.316   0.446   0.210 -0.7647  0.3011  1.1812
 7633SOL     OW23797   3.918   4.342   0.656  0.3180  0.2293 -0.1399
 7633SOL    HW123798   3.866   4.272   0.607 -0.1470 -0.1868  0.9186
 7633SOL    HW223799   3.980   4.299   0.721 -0.8339  0.7843  1.3986
 7634SOL     OW23800   1.681   5.956   5.463 -0.9435  0.2430  0.5728
 7634SOL    HW123801   1.718   5.864   5.455  0.0837  0.6258  0.7453
 7634SOL    HW223802   1.582   5.952   5.472 -1.0035 -0.7914 -0.3979
 7635SOL     OW23803   3.673   0.399   4.548  0.2995  0.0504  0.1139
 7635SOL    HW123804   3.738   0.410   4.472  1.3346 -0.1248  0.9436
 7635SOL    HW223805   3.710   0.333   4.614  0.1078  1.2812  1.4980
 7636SOL     OW23806   6.156   5.726   2.097  0.1889  0.5041 -0.6837
 7636SOL    HW123807   6.147   5.812   2.146  2.4659 -0.1112  0.9686
 7636SOL    HW223808   6.207   5.742   2.012  0.5272  0.8043 -0.4285
 7637SOL     OW23809   4.679   0.860   6.675  0.1130  0.0851  0.2522
 7637SOL    HW123810   4.608   0.791   6.663 -0.0378 -0.2007  2.3360
 7637SOL    HW223811   4.768   0.815   6.683  0.4562  0.3884 -1.5581
 7638SOL     OW23812   0.839   6.307   4.939  0.1899  0.4751  0.2192
 7638SOL    HW123813   0.915   6.350   4.890 -0.9832  1.2001 -1.0455
 7638SOL    HW223814   0.758   6.364   4.929 -0.6742 -0.5820  1.0375
 7639SOL     OW23815   1.629   5.937   4.395 -0.3063 -0.0479 -0.0447
 7639SOL    HW123816   1.560   5.986   4.449  1.0395  0.8171  0.9681
 7639SOL    HW223817   1.653   5.851   4.442  1.1533  0.8924  1.0277
 7640SOL     OW23818   1.452   5.200   1.656 -0.0509 -0.4508  0.4301
 7640SOL    HW123819   1.444   5.106   1.625  1.4327 -0.2884 -0.5625
 7640SOL    HW223820   1.548   5.220   1.678 -0.3947  0.7362  0.9599
 7641SOL     OW23821   2.137   5.687   3.039 -0.0554  0.6377  0.2457
 7641SOL    HW123822   2.215   5.642   2.997 -0.7710 -1.4060  0.9478
 7641SOL    HW223823   2.154   5.785   3.047  1.4911  0.5577 -1.5927
 7642SOL     OW23824   4.851   5.916   0.772  0.2885  0.5567  0.1081
 7642SOL    HW123825   4.903   5.832   0.791  1.4729  1.1166 -0.5579
 7642SOL    HW223826   4.914   5.991   0.754 -0.7259  1.0174 -1.8317
 7643SOL     OW23827   1.920   0.901   5.141 -0.2085  0.6105  0.3204
 7643SOL    HW123828   2.010   0.944   5.146 -0.1247  0.5834 -0.6539
 7643SOL    HW223829   1.906   0.842   5.220  0.8632  0.1629  0.1934
 7644SOL     OW23830   1.427   2.819   2.694  0.9846 -0.1210  0.2671
 7644SOL    HW123831   1.383   2.736   2.660 -0.2964  0.5949  0.1079
 7644SOL    HW223832   1.526   2.809   2.688  0.8629 -1.7414  0.5333
 7645SOL     OW23833   6.424   5.001   2.543  0.0770  1.0520 -1.1985
 7645SOL    HW123834   6.509   4.949   2.552  0.1986  1.5182  0.7262
 7645SOL    HW223835   6.404   5.048   2.629 -2.6795  0.1258 -1.2227
 7646SOL     OW23836   6.540   0.564   0.870  0.5075 -0.6501 -0.1468
 7646SOL    HW123837   6.520   0.466   0.869 -0.4664 -0.4696  0.7420
 7646SOL    HW223838   6.499   0.606   0.950  2.3361  0.2124  0.3957
 7647SOL     OW23839   3.529   1.070   3.756  0.8082 -0.7239 -0.0257
 7647SOL    HW123840   3.601   1.137   3.738 -0.1539 -0.0344 -1.6093
 7647SOL    HW223841   3.441   1.117   3.758  0.2542 -1.7565  0.2893
 7648SOL     OW23842   4.455   0.679   3.505 -0.1273 -0.5341  0.2969
 7648SOL    HW123843   4.503   0.752   3.554 -0.5035  0.8593 -1.3122
 7648SOL    HW223844   4.360   0.674   3.537 -1.0279  1.9073 -1.7412
 7649SOL     OW23845   4.021   0.610   6.805  0.0814 -0.2662  0.7959
 7649SOL    HW123846   4.036   0.651   6.895  1.6130 -2.0207  1.3951
 7649SOL    HW223847   3.942   0.653   6.761  0.5466  2.0596  2.0921
 7650SOL     OW23848   5.552   4.767   3.511 -0.8805 -0.4894  0.2846
 7650SOL    HW123849   5.618   4.706   3.555 -0.8476 -0.8127 -0.2030
 7650SOL    HW223850   5.595   4.812   3.433 -0.4928  1.2101  1.4305
 7651SOL     OW23851   0.420   3.752   4.534 -0.8319 -0.4880 -0.1961
 7651SOL    HW123852   0.351   3.816   4.567  1.1665  1.6649  0.0815
 7651SOL    HW223853   0.488   3.736   4.606  0.6636  0.0019 -1.4294
 7652SOL     OW23854   3.585   3.526   6.754  0.2523 -0.2846  0.0219
 7652SOL    HW123855   3.573   3.611   6.702  0.0959 -0.6734 -0.5843
 7652SOL    HW223856   3.510   3.464   6.734  1.1293 -1.1403 -0.6605
 7653SOL     OW23857   5.015   3.618   3.231 -0.3974  0.0842 -0.1122
 7653SOL    HW123858   5.038   3.639   3.327 -0.9874 -1.4694  0.4041
 7653SOL    HW223859   4.933   3.669   3.205  0.3626  1.3206 -0.1411
 7654SOL     OW23860   1.702   6.076   0.213  0.0778  0.0912  0.0444
 7654SOL    HW123861   1.707   6.141   0.288  1.6200  0.0474  0.0215
 7654SOL    HW223862   1.607   6.066   0.183 -0.4391  0.7618  1.3952
 7655SOL     OW23863   3.473   6.895   1.429 -0.4118 -0.1058  0.3690
 7655SOL    HW123864   3.478   6.973   1.492  0.1193  0.1640 -0.0002
 7655SOL    HW223865   3.377   6.868   1.418 -0.4983 -0.3075  1.4612
 7656SOL     OW23866   0.143   5.823   5.218  0.2611  0.2281 -0.0876
 7656SOL    HW123867   0.239   5.826   5.191  0.5498 -0.0968  0.8655
 7656SOL    HW223868   0.091   5.771   5.150  0.7458  0.4536 -0.6329
 7657SOL     OW23869   4.294   5.254   6.212  0.1279  0.4511 -0.1263
 7657SOL    HW123870   4.230   5.195   6.162  2.7329 -1.4539 -1.4548
 7657SOL    HW223871   4.350   5.198   6.273  1.0993  1.9151  0.3853
 7658SOL     OW23872   4.557   0.685   2.071 -0.2864 -0.5226  0.1445
 7658SOL    HW123873   4.539   0.765   2.128  0.3169  0.6235 -1.2231
 7658SOL    HW223874   4.487   0.616   2.087 -2.2961  1.2786 -0.4646
 7659SOL     OW23875   5.958   1.789   6.500  1.0867  0.0387 -0.0129
 7659SOL    HW123876   6.014   1.768   6.580  0.7854 -2.1546 -0.3006
 7659SOL    HW223877   6.010   1.774   6.417  0.6146 -0.2802 -0.2584
 7660SOL     OW23878   4.362   6.860   0.645  0.3738  0.1267 -0.6928
 7660SOL    HW123879   4.338   6.889   0.552  1.7844  0.2013 -1.0521
 7660SOL    HW223880   4.442   6.911   0.677  0.9581 -1.1159 -0.1032
 7661SOL     OW23881   5.375   0.082   4.390 -0.5293 -0.0453 -0.3811
 7661SOL    HW123882   5.387  -0.012   4.422  0.6529 -0.4153 -1.7995
 7661SOL    HW223883   5.328   0.082   4.302  0.9405  0.5446 -1.2005
 7662SOL     OW23884   0.664   4.265   2.938 -0.2640 -0.9298 -0.5728
 7662SOL    HW123885   0.655   4.328   2.862 -0.5946 -0.5175 -0.1987
 7662SOL    HW223886   0.637   4.173   2.909 -1.0444 -0.6476 -0.7775
 7663SOL     OW23887   6.512   5.756   2.821 -0.2103 -0.4368 -0.0248
 7663SOL    HW123888   6.438   5.689   2.826  0.8966 -1.6712  0.4602
 7663SOL    HW223889   6.526   5.783   2.726 -0.8159 -0.7441 -0.2056
 7664SOL     OW23890   6.332   2.790   4.336  0.0665  0.2185 -0.4031
 7664SOL    HW123891   6.387   2.842   4.402 -3.4633  3.5382  0.3105
 7664SOL    HW223892   6.316   2.846   4.255 -0.2902 -1.5950 -1.6319
 7665SOL     OW23893   0.601   2.219   0.130 -0.0607 -0.5030  0.1396
 7665SOL    HW123894   0.678   2.280   0.113 -0.7496  0.7309  1.1934
 7665SOL    HW223895   0.627   2.150   0.197  0.7959 -1.5374 -1.2250
 7666SOL     OW23896   3.516   0.630   6.418 -0.5607 -0.1104  0.0997
 7666SOL    HW123897   3.504   0.692   6.340  1.9546  1.3301  0.7546
 7666SOL    HW223898   3.581   0.557   6.393 -2.0375 -1.4411 -0.0402
 7667SOL     OW23899   1.089   4.104   3.703  0.5202  0.0320 -0.1191
 7667SOL    HW123900   0.991   4.097   3.682  0.2962 -1.6414  1.3013
 7667SOL    HW223901   1.118   4.199   3.690 -1.0620  0.3883 -1.4504
 7668SOL     OW23902   6.924   0.006   1.899  0.2589  0.3965  0.4381
 7668SOL    HW123903   6.844   0.061   1.920 -0.5220 -0.1649 -0.9324
 7668SOL    HW223904   6.968  -0.023   1.984  0.7088  3.0829  1.1971
 7669SOL     OW23905   0.977   2.199   2.991  0.2454 -0.4842 -0.4973
 7669SOL    HW123906   1.025   2.128   3.043  1.5895  0.6512 -0.1137
 7669SOL    HW223907   0.882   2.172   2.978  0.4280 -1.8176  0.6191
 7670SOL     OW23908   4.443   5.108   6.360  0.1005 -0.1943 -0.1072
 7670SOL    HW123909   4.531   5.126   6.317  1.1189  0.5818  2.1530
 7670SOL    HW223910   4.440   5.014   6.392  0.4647  0.0142  0.5550
 7671SOL     OW23911   5.155   4.549   3.839 -0.5760 -1.1930 -0.0216
 7671SOL    HW123912   5.063   4.583   3.816 -0.5665 -1.2587 -0.1549
 7671SOL    HW223913   5.147   4.469   3.899 -0.5981 -0.9172  0.3502
 7672SOL     OW23914   0.575   4.391   4.353 -0.1921 -0.0347  0.0276
 7672SOL    HW123915   0.634   4.392   4.434 -1.0820  0.7041  0.6853
 7672SOL    HW223916   0.623   4.346   4.278  0.9098 -0.1357  0.7649
 7673SOL     OW23917   0.393   0.168   0.956  0.1504  0.7657 -0.1876
 7673SOL    HW123918   0.404   0.080   0.909 -2.3369  0.0573  0.3738
 7673SOL    HW223919   0.424   0.159   1.051  2.4417  1.3582 -0.8091
 7674SOL     OW23920   6.744   4.097   2.490 -0.4613 -0.6865  0.1550
 7674SOL    HW123921   6.788   4.035   2.554 -0.2394 -0.4332  0.2507
 7674SOL    HW223922   6.772   4.191   2.510  0.9957 -0.7492 -1.4070
 7675SOL     OW23923   1.334   5.451   4.096  0.6187 -0.0429  0.2867
 7675SOL    HW123924   1.291   5.540   4.113 -2.9561 -1.6844  0.7798
 7675SOL    HW223925   1.299   5.412   4.011  0.8605 -1.6106  0.8620
 7676SOL     OW23926   1.493   0.785   5.376  0.5472 -0.1221  0.7617
 7676SOL    HW123927   1.581   0.806   5.419  1.8791 -1.4911 -1.1251
 7676SOL    HW223928   1.497   0.806   5.278 -0.3284 -2.4956  0.1241
 7677SOL     OW23929   5.351   2.592   3.744 -0.4238  0.1790  0.0500
 7677SOL    HW123930   5.429   2.598   3.806  0.9878  0.1734 -1.6202
 7677SOL    HW223931   5.297   2.511   3.765  0.3291 -0.1069  0.9203
 7678SOL     OW23932   3.335   1.935   0.359 -0.7304 -0.3167  0.2148
 7678SOL    HW123933   3.241   1.968   0.344 -1.0885 -0.9149  1.0659
 7678SOL    HW223934   3.399   1.997   0.314 -1.5013  0.3753  0.0316
 7679SOL     OW23935   2.865   6.658   3.006 -0.0661  0.3695  0.0173
 7679SOL    HW123936   2.846   6.561   3.019  2.8829 -0.3293 -0.1042
 7679SOL    HW223937   2.780   6.710   3.009 -1.5298 -1.9454  2.2917
 7680SOL     OW23938   0.715   1.836   4.576  0.6634 -0.3405 -0.4103
 7680SOL    HW123939   0.703   1.851   4.674 -0.0118 -2.4714 -0.1152
 7680SOL    HW223940   0.640   1.880   4.527  0.2605 -0.3767  0.1519
 7681SOL     OW23941   3.441   2.438   5.797 -0.5857  0.2858  0.2021
 7681SOL    HW123942   3.486   2.404   5.714  0.0204 -1.7616  1.2950
 7681SOL    HW223943   3.470   2.532   5.814  1.2846 -0.1065 -0.5429
 7682SOL     OW23944   4.225   0.654   0.948  0.2787 -0.1952  0.5902
 7682SOL    HW123945   4.255   0.746   0.971 -0.0572 -0.1035  0.6766
 7682SOL    HW223946   4.226   0.641   0.848  0.3331 -0.1012  0.5795
 7683SOL     OW23947   1.206   0.706   4.015  0.0651  0.5681  0.5523
 7683SOL    HW123948   1.227   0.800   4.041  0.4161  0.5250  0.4223
 7683SOL    HW223949   1.176   0.704   3.920 -3.0501  0.9983  1.4182
 7684SOL     OW23950   0.359   6.199   6.682 -0.1717  0.2645 -0.5477
 7684SOL    HW123951   0.324   6.115   6.723  0.1158  0.3333 -0.1570
 7684SOL    HW223952   0.399   6.179   6.592 -0.8190  0.1159 -0.8098
 7685SOL     OW23953   1.637   0.757   0.845  0.2897 -0.1586  0.1652
 7685SOL    HW123954   1.601   0.849   0.858  0.5711  0.3567 -2.1985
 7685SOL    HW223955   1.565   0.690   0.864 -0.4953  0.6445  0.0685
 7686SOL     OW23956   6.679   4.734   2.252 -0.3967  0.2100  0.0109
 7686SOL    HW123957   6.684   4.797   2.329 -1.3186  1.0547 -0.5955
 7686SOL    HW223958   6.728   4.649   2.275 -2.8586 -0.6844  2.5970
 7687SOL     OW23959   1.995   0.640   3.533 -0.3175  0.4738  0.1795
 7687SOL    HW123960   2.095   0.653   3.532 -0.1684 -0.5243  0.5555
 7687SOL    HW223961   1.970   0.581   3.609 -1.4495  2.3415  1.3255
 7688SOL     OW23962   3.346   5.634   4.901 -0.1045 -0.6617 -0.0247
 7688SOL    HW123963   3.338   5.628   4.802  0.0332 -1.1719 -0.0070
 7688SOL    HW223964   3.426   5.582   4.931  0.2521  0.0571  0.2898
 7689SOL     OW23965   2.139   4.220   5.162  0.0832  0.0941 -0.4358
 7689SOL    HW123966   2.043   4.194   5.172  0.0524  0.0786 -0.7567
 7689SOL    HW223967   2.176   4.180   5.078  0.0603  0.9939 -0.8939
 7690SOL     OW23968   6.339   0.195   6.261  0.0887 -0.1587 -0.2235
 7690SOL    HW123969   6.356   0.284   6.302 -0.9734 -0.2342  0.3965
 7690SOL    HW223970   6.427   0.152   6.239  0.6196  0.9612 -0.4010
 7691SOL     OW23971   6.119   3.567   5.896 -0.1767  0.4114  0.3779
 7691SOL    HW123972   6.207   3.610   5.913 -0.1914  1.0319 -0.9741
 7691SOL    HW223973   6.134   3.474   5.860 -0.0798  0.4193  0.3977
 7692SOL     OW23974   4.072   1.634   4.282  0.3299  0.0081 -0.5742
 7692SOL    HW123975   4.022   1.657   4.198  1.6855  1.5257 -0.9984
 7692SOL    HW223976   4.012   1.646   4.361 -1.4047 -2.7058 -1.3113
 7693SOL     OW23977   0.192   3.341   3.251 -0.4396  0.6754  0.1038
 7693SOL    HW123978   0.185   3.339   3.151  1.6466  0.5253 -0.0830
 7693SOL    HW223979   0.220   3.433   3.281  1.2538  0.1354  0.3059
 7694SOL     OW23980   5.430   4.887   0.945  0.0595 -0.5191 -0.1776
 7694SOL    HW123981   5.379   4.817   0.894 -1.5367  2.4612 -3.0458
 7694SOL    HW223982   5.394   4.892   1.039 -2.9948 -0.5337 -1.2360
 7695SOL     OW23983   5.134   2.835   1.621  0.1123 -0.1783 -0.0275
 7695SOL    HW123984   5.064   2.833   1.691  0.0483 -2.1965 -0.0863
 7695SOL    HW223985   5.147   2.929   1.588 -1.1835  0.4998  1.3181
 7696SOL     OW23986   1.256   0.860   5.692  0.3408  0.2485 -0.1163
 7696SOL    HW123987   1.239   0.803   5.612  0.7886  0.2024 -0.1822
 7696SOL    HW223988   1.328   0.926   5.672 -1.1085  1.7625 -0.4802
 7697SOL     OW23989   6.142   0.114   6.098 -0.4630  0.0421  0.0886
 7697SOL    HW123990   6.223   0.138   6.151 -0.1342 -0.6964 -0.0696
 7697SOL    HW223991   6.062   0.112   6.159 -0.2227 -0.0419  0.4032
 7698SOL     OW23992   0.783   3.054   4.730  0.0583 -0.0616 -0.2450
 7698SOL    HW123993   0.751   3.020   4.818 -0.0558  0.2675 -0.1583
 7698SOL    HW223994   0.708   3.099   4.682 -0.1147 -1.0075 -0.8981
 7699SOL     OW23995   4.137   2.246   5.529  0.3374  0.0170  0.4380
 7699SOL    HW123996   4.076   2.167   5.528  0.6799 -0.2397 -0.7627
 7699SOL    HW223997   4.122   2.298   5.614  0.4312 -1.5553  1.4566
 7700SOL     OW23998   2.133   2.362   4.050 -0.4980  0.2289  0.6119
 7700SOL    HW123999   2.081   2.306   3.985 -0.6008  0.3263  0.6107
 7700SOL    HW224000   2.164   2.304   4.126  0.1714 -0.0245  0.1600
 7701SOL     OW24001   0.993   4.140   1.185 -0.3761  0.1160  0.5978
 7701SOL    HW124002   1.012   4.118   1.281  0.1499  1.5600  0.8602
 7701SOL    HW224003   0.950   4.230   1.180 -0.8050 -0.1362 -0.5039
 7702SOL     OW24004   3.640   1.226   6.714 -0.4420 -0.4175 -0.2554
 7702SOL    HW124005   3.645   1.129   6.740 -1.2796 -0.1351  1.0467
 7702SOL    HW224006   3.547   1.259   6.727  0.0120  0.7732  0.0818
 7703SOL     OW24007   1.879   2.226   2.010 -0.0752 -0.5146  0.1461
 7703SOL    HW124008   1.795   2.279   1.998  0.4301  0.5692  1.1122
 7703SOL    HW224009   1.912   2.195   1.920 -0.2253  1.1175 -0.5206
 7704SOL     OW24010   1.101   0.410   1.645 -0.5413 -0.2154 -0.1385
 7704SOL    HW124011   1.149   0.491   1.679 -0.5698 -0.7623  1.2923
 7704SOL    HW224012   1.049   0.369   1.719  0.8610 -2.5378 -0.3372
 7705SOL     OW24013   6.056   1.246   0.549 -0.0405  0.6336 -0.0212
 7705SOL    HW124014   6.107   1.182   0.607 -1.2500  0.8358  1.3297
 7705SOL    HW224015   5.958   1.226   0.555 -0.1872  0.3317 -2.4546
 7706SOL     OW24016   3.714   0.593   0.260 -0.6933  0.3791  0.4112
 7706SOL    HW124017   3.637   0.574   0.320  0.4038  1.1645  2.1658
 7706SOL    HW224018   3.799   0.565   0.305  0.2119  1.4453 -0.5672
 7707SOL     OW24019   6.177   3.681   3.414  0.2568  0.3840 -0.4536
 7707SOL    HW124020   6.204   3.602   3.469 -0.9064  0.0194 -0.3947
 7707SOL    HW224021   6.086   3.711   3.441  0.2853  1.1366 -1.1644
 7708SOL     OW24022   2.960   5.024   3.578 -0.2894 -0.1419 -0.5262
 7708SOL    HW124023   3.007   5.071   3.503 -1.3920  3.7284  0.9621
 7708SOL    HW224024   3.006   5.044   3.664 -0.2691 -2.7640  0.1527
 7709SOL     OW24025   3.992   6.955   4.462  0.4640  0.1994  0.7528
 7709SOL    HW124026   3.972   6.874   4.408  0.7059  0.5015  0.1997
 7709SOL    HW224027   4.020   6.928   4.554  0.5431 -0.3420  0.5709
 7710SOL     OW24028   4.534   5.239   0.939  0.1388  0.4841 -0.4604
 7710SOL    HW124029   4.560   5.206   1.030  0.7571  2.1937  0.0160
 7710SOL    HW224030   4.572   5.179   0.870 -0.8026 -1.1676  0.3895
 7711SOL     OW24031   3.927   5.198   2.142 -0.6400 -0.2319 -0.0085
 7711SOL    HW124032   3.905   5.124   2.079 -2.2581  0.8719 -0.8272
 7711SOL    HW224033   4.025   5.219   2.136 -0.1051 -2.3590  0.3820
 7712SOL     OW24034   2.168   1.697   4.532 -0.4307  0.1294 -0.0874
 7712SOL    HW124035   2.239   1.641   4.575 -0.9410  0.8292  1.7563
 7712SOL    HW224036   2.080   1.681   4.578 -1.2037  0.2781 -1.4547
 7713SOL     OW24037   2.474   5.866   6.178 -0.1468 -0.4673  0.0570
 7713SOL    HW124038   2.388   5.832   6.216 -0.0455  0.4260  1.1239
 7713SOL    HW224039   2.457   5.949   6.125  0.1816  0.2923  1.1256
 7714SOL     OW24040   1.474   2.723   3.638 -0.3196  0.5170 -0.7697
 7714SOL    HW124041   1.453   2.706   3.734  1.6168 -1.9156 -0.6778
 7714SOL    HW224042   1.389   2.733   3.587 -1.5067 -1.1950  0.7347
 7715SOL     OW24043   0.988   4.821   1.640  0.0746 -0.6680 -0.6095
 7715SOL    HW124044   1.013   4.770   1.558  2.8559 -0.5170  0.0482
 7715SOL    HW224045   1.008   4.918   1.627  1.8462 -0.8146  0.6312
 7716SOL     OW24046   3.152   0.106   5.369 -0.1514  0.5301 -0.2161
 7716SOL    HW124047   3.194   0.073   5.453  0.5493  0.4264 -0.6007
 7716SOL    HW224048   3.111   0.195   5.384 -0.7497  0.1530  0.4461
 7717SOL     OW24049   0.195   4.966   2.714 -0.4798  0.4688  0.7456
 7717SOL    HW124050   0.112   4.997   2.760 -0.5341 -1.4354  2.0593
 7717SOL    HW224051   0.219   4.875   2.748  0.5975 -0.2073 -1.6235
 7718SOL     OW24052   5.679   2.768   2.908 -0.7901 -0.3196 -0.0764
 7718SOL    HW124053   5.655   2.828   2.832  1.1023 -0.1144 -0.5661
 7718SOL    HW224054   5.778   2.752   2.908 -0.7140 -0.2828  2.3709
 7719SOL     OW24055   6.088   1.288   1.384 -0.1123 -0.0750  0.1235
 7719SOL    HW124056   6.039   1.265   1.300 -0.3600 -1.2765  0.5724
 7719SOL    HW224057   6.178   1.245   1.383 -0.2535 -0.3902  0.6246
 7720SOL     OW24058   4.455   2.427   4.970  0.5583  0.1415 -0.6196
 7720SOL    HW124059   4.506   2.356   5.019  0.0411  0.9450  1.1811
 7720SOL    HW224060   4.357   2.414   4.986  0.5055  2.1913  1.2243
 7721SOL     OW24061   5.377   6.493   1.534 -0.3606  0.0064 -0.0649
 7721SOL    HW124062   5.467   6.455   1.557 -0.9286 -1.4170 -0.0991
 7721SOL    HW224063   5.389   6.573   1.475  0.9096  0.5152  0.8207
 7722SOL     OW24064   2.105   2.883   3.482 -0.2297  0.2670 -0.1649
 7722SOL    HW124065   2.114   2.983   3.478 -1.0316  0.3358 -0.5653
 7722SOL    HW224066   2.066   2.857   3.570 -0.2957  0.3357 -0.1733
 7723SOL     OW24067   5.173   6.922   1.307 -0.3594 -0.1115  0.5968
 7723SOL    HW124068   5.221   7.007   1.327  0.2830 -0.5993  1.1928
 7723SOL    HW224069   5.099   6.909   1.373 -0.0350 -0.3374  0.9180
 7724SOL     OW24070   4.141   5.443   4.118 -0.1930 -0.3823 -0.2385
 7724SOL    HW124071   4.073   5.375   4.143 -0.3679 -0.1471 -0.0676
 7724SOL    HW224072   4.095   5.526   4.085 -0.0671  0.4877  1.6636
 7725SOL     OW24073   6.529   0.247   4.887  0.0987 -0.0883 -0.2006
 7725SOL    HW124074   6.562   0.298   4.967  0.3103 -0.4769 -0.0361
 7725SOL    HW224075   6.507   0.153   4.914 -0.2519 -0.0979 -0.5093
 7726SOL     OW24076   5.034   0.779   5.967  0.1262  0.5163 -0.1255
 7726SOL    HW124077   4.938   0.777   5.938  0.1809  0.9834 -0.3497
 7726SOL    HW224078   5.056   0.871   6.000  0.1711  0.1010  1.0324
 7727SOL     OW24079   0.914   0.221   3.339  0.5984  0.7702 -0.1764
 7727SOL    HW124080   0.974   0.178   3.406  2.2672  1.1824 -1.3407
 7727SOL    HW224081   0.857   0.290   3.384  0.1912 -0.3651  1.1301
 7728SOL     OW24082   5.178   6.135   5.025  0.6532  0.1350 -0.0412
 7728SOL    HW124083   5.102   6.071   5.010 -0.2639  1.3429 -0.6764
 7728SOL    HW224084   5.252   6.087   5.070 -0.1065 -1.3291 -0.2735
 7729SOL     OW24085   2.450   2.047   4.090 -0.4238 -0.2609 -0.4028
 7729SOL    HW124086   2.416   2.020   4.000  0.7477 -0.0571 -0.9233
 7729SOL    HW224087   2.477   1.965   4.141 -1.2011 -0.3852 -0.1784
 7730SOL     OW24088   2.220   6.793   0.951 -0.3786  0.2094  0.0284
 7730SOL    HW124089   2.239   6.858   0.877  1.0214  0.2170  0.3705
 7730SOL    HW224090   2.306   6.759   0.988 -0.9716 -3.4112 -1.4510
 7731SOL     OW24091   0.097   6.669   2.370 -0.3012  0.2868  0.4759
 7731SOL    HW124092   0.004   6.636   2.359  0.2739 -1.2380 -0.2167
 7731SOL    HW224093   0.150   6.647   2.288  1.1700 -0.7967  1.6453
 7732SOL     OW24094   5.179   3.298   5.749 -0.6481  0.3430 -0.3482
 7732SOL    HW124095   5.148   3.381   5.796  1.1016  1.2416 -0.7051
 7732SOL    HW224096   5.126   3.285   5.666 -0.3551  1.6404 -0.7628
 7733SOL     OW24097   3.837   5.215   0.937  0.4112  0.4494 -0.1556
 7733SOL    HW124098   3.935   5.201   0.952  0.4408  0.1014 -0.6558
 7733SOL    HW224099   3.815   5.196   0.842 -0.5463 -1.8761  0.4538
 7734SOL     OW24100   1.322   1.493   1.041  0.0288 -0.0279 -0.0833
 7734SOL    HW124101   1.339   1.443   1.126  0.1578  0.5381  0.2259
 7734SOL    HW224102   1.371   1.580   1.043  0.5461 -0.2931 -1.0113
 7735SOL     OW24103   5.899   5.467   4.833  0.1193 -0.2551  0.3136
 7735SOL    HW124104   5.850   5.505   4.911  0.3082 -0.4442  0.5247
 7735SOL    HW224105   5.921   5.540   4.768 -0.1680 -0.1217  0.3658
 7736SOL     OW24106   4.601   6.803   6.957  0.0223 -0.1299  0.4381
 7736SOL    HW124107   4.505   6.797   6.984 -0.2325  0.4162 -0.3023
 7736SOL    HW224108   4.644   6.713   6.964 -0.9996 -0.7436 -0.8433
 7737SOL     OW24109   5.015   6.120   4.610  0.1812 -0.4854 -0.4432
 7737SOL    HW124110   4.992   6.193   4.675  3.2908  0.0287  0.2589
 7737SOL    HW224111   4.998   6.031   4.653  1.4949 -0.1449  0.9026
 7738SOL     OW24112   1.435   6.785   5.217 -0.9841 -0.3078 -0.0830
 7738SOL    HW124113   1.413   6.720   5.145  2.2828  0.0668 -1.6322
 7738SOL    HW224114   1.418   6.878   5.185 -0.2501 -0.1722 -0.0989
 7739SOL     OW24115   3.988   2.994   5.224  0.1536 -0.0810 -0.5333
 7739SOL    HW124116   4.046   2.917   5.252  0.2861 -0.2599 -1.2623
 7739SOL    HW224117   3.936   2.968   5.142 -0.5175  0.2815 -0.2341
 7740SOL     OW24118   5.374   6.222   4.249 -0.2656  0.1620  0.2446
 7740SOL    HW124119   5.340   6.316   4.260 -0.3848 -0.0512  1.8239
 7740SOL    HW224120   5.339   6.165   4.323 -2.5281 -1.8533 -2.1909
 7741SOL     OW24121   0.475   3.590   2.037 -0.8554  0.0989  0.5360
 7741SOL    HW124122   0.384   3.561   2.009 -0.2900 -1.7906  0.4999
 7741SOL    HW224123   0.534   3.602   1.957 -0.3123 -1.5056  0.6575
 7742SOL     OW24124   1.935   0.580   5.816  0.0835  0.0681 -0.1850
 7742SOL    HW124125   2.003   0.647   5.786 -1.0351  1.4481  0.2267
 7742SOL    HW224126   1.938   0.572   5.916 -0.8429  0.7190 -0.0924
 7743SOL     OW24127   0.184   1.621   5.472  0.4796  0.1824  0.4770
 7743SOL    HW124128   0.251   1.689   5.500  0.3383  0.1135  0.9821
 7743SOL    HW224129   0.127   1.659   5.399  0.3291  0.6483  0.8329
 7744SOL     OW24130   1.430   4.996   4.965  0.7699  0.0227 -0.5066
 7744SOL    HW124131   1.343   4.953   4.989  0.6199 -0.3376 -1.6283
 7744SOL    HW224132   1.506   4.937   4.992  0.6017 -0.4145 -0.9760
 7745SOL     OW24133   1.838   0.590   3.087  0.5526 -0.0593  0.2101
 7745SOL    HW124134   1.936   0.609   3.093  0.7498  0.3531 -2.7957
 7745SOL    HW224135   1.790   0.672   3.056 -0.5083 -0.7141  0.0761
 7746SOL     OW24136   2.472   5.547   3.115  0.2132 -0.2503 -0.4958
 7746SOL    HW124137   2.508   5.629   3.160  0.2552  0.1801 -1.3052
 7746SOL    HW224138   2.457   5.476   3.184  1.4278 -0.0194  0.0462
 7747SOL     OW24139   3.769   0.532   3.107 -0.7669  0.2422 -0.4293
 7747SOL    HW124140   3.698   0.527   3.036 -0.8591  1.6589 -0.4582
 7747SOL    HW224141   3.796   0.627   3.120  1.2299 -0.2916 -0.4893
 7748SOL     OW24142   6.686   5.536   6.155 -0.1281  0.4416  0.0340
 7748SOL    HW124143   6.752   5.465   6.132 -1.1292 -0.3057 -0.6510
 7748SOL    HW224144   6.618   5.543   6.082 -1.4293  0.4106  1.1912
 7749SOL     OW24145   5.446   1.238   6.685 -0.1196 -0.4202 -0.3583
 7749SOL    HW124146   5.507   1.159   6.695  0.6654  0.1619 -0.4362
 7749SOL    HW224147   5.489   1.305   6.624 -0.1638  0.6694  0.7869
 7750SOL     OW24148   1.373   1.479   4.017  0.2464 -0.2419  0.4249
 7750SOL    HW124149   1.308   1.554   4.033  0.3073  0.0792 -0.7867
 7750SOL    HW224150   1.322   1.396   3.993  0.2691  0.2603 -1.5455
 7751SOL     OW24151   0.990   1.810   5.682 -0.4043  0.4451 -0.1805
 7751SOL    HW124152   1.021   1.880   5.746 -1.9473  1.5777 -0.5993
 7751SOL    HW224153   1.011   1.838   5.589 -0.1989 -0.1153 -0.3100
 7752SOL     OW24154   0.319   5.387   4.821 -0.2318  0.0570 -0.2675
 7752SOL    HW124155   0.314   5.300   4.773 -1.2125 -0.5494  0.8724
 7752SOL    HW224156   0.261   5.454   4.775  0.9212  0.2994 -1.4463
 7753SOL     OW24157   2.499   4.121   1.667 -0.1876 -0.2165 -0.3395
 7753SOL    HW124158   2.522   4.035   1.621 -0.2693 -0.5008  0.1473
 7753SOL    HW224159   2.583   4.171   1.688 -0.1494 -0.0672 -0.8183
 7754SOL     OW24160   0.511   5.181   2.061  0.6083 -0.1697 -0.3700
 7754SOL    HW124161   0.415   5.166   2.087  0.0551  3.7598  0.4698
 7754SOL    HW224162   0.515   5.224   1.971  1.6864 -1.1765 -0.8240
 7755SOL     OW24163   1.037   4.458   5.773  0.5676 -0.2464 -0.4179
 7755SOL    HW124164   1.044   4.555   5.753  0.7313 -0.0343  0.6568
 7755SOL    HW224165   1.117   4.410   5.737  0.6587  0.0580 -0.6240
 7756SOL     OW24166   1.317   4.536   5.892 -0.1885 -0.3985  0.1609
 7756SOL    HW124167   1.332   4.632   5.916  3.3960 -1.0766  1.3110
 7756SOL    HW224168   1.263   4.492   5.964 -1.6139  0.6353 -0.2359
 7757SOL     OW24169   5.249   5.704   3.098  0.0218 -0.7394  0.0472
 7757SOL    HW124170   5.195   5.678   3.178 -0.4469  0.0016 -0.0186
 7757SOL    HW224171   5.289   5.795   3.113 -0.4601 -0.3831 -0.7487
 7758SOL     OW24172   5.237   0.891   5.760  0.4660  0.9907 -0.3984
 7758SOL    HW124173   5.219   0.849   5.849  0.8707 -0.6860 -1.0610
 7758SOL    HW224174   5.181   0.973   5.749 -1.1425  0.0611  0.5623
 7759SOL     OW24175   2.736   6.194   3.775  0.2643 -0.3693 -0.0795
 7759SOL    HW124176   2.758   6.212   3.679  0.1188 -0.5265 -0.1427
 7759SOL    HW224177   2.811   6.226   3.833 -0.2761  1.0610 -0.1358
 7760SOL     OW24178   1.027   5.441   4.560  0.0380 -0.3290  0.5698
 7760SOL    HW124179   1.065   5.350   4.541  1.4032 -0.4189  3.2716
 7760SOL    HW224180   0.930   5.432   4.585  0.7689 -1.4797  3.3309
 7761SOL     OW24181   4.449   3.005   6.211  0.6980 -0.0905  0.0015
 7761SOL    HW124182   4.519   3.045   6.270  0.8982 -0.4466  0.0070
 7761SOL    HW224183   4.404   2.929   6.259 -0.0948  0.5076  0.2231
 7762SOL     OW24184   6.366   1.551   5.334 -0.0656  0.2053  0.7622
 7762SOL    HW124185   6.373   1.453   5.318 -0.0828  0.3069  0.0972
 7762SOL    HW224186   6.275   1.573   5.368 -0.6605  0.2001 -0.7570
 7763SOL     OW24187   1.587   1.301   1.074  0.0607  0.4191  0.2316
 7763SOL    HW124188   1.507   1.269   1.024 -0.1470  0.3831  0.5833
 7763SOL    HW224189   1.575   1.398   1.096 -0.1160  0.2913  0.7193
 7764SOL     OW24190   1.034   0.213   6.418  0.2724  0.4428  0.2822
 7764SOL    HW124191   1.018   0.130   6.365 -0.7539  1.1463 -0.5721
 7764SOL    HW224192   1.130   0.219   6.443  0.6243 -0.3499 -0.7862
 7765SOL     OW24193   6.456   4.643   0.513 -0.0528  1.1593  0.1397
 7765SOL    HW124194   6.395   4.642   0.434  1.4633  0.2306 -1.0769
 7765SOL    HW224195   6.504   4.731   0.517  0.2544  1.0192 -0.3122
 7766SOL     OW24196   0.061   6.565   6.950 -0.3906 -0.0651 -0.1650
 7766SOL    HW124197   0.047   6.547   7.047 -0.9177  2.0011  0.1830
 7766SOL    HW224198   0.025   6.488   6.897  0.7534 -1.6585  1.2579
 7767SOL     OW24199   4.035   1.961   3.379 -0.2613  0.3753  0.1072
 7767SOL    HW124200   4.060   2.037   3.440  1.1609  0.2403 -0.2711
 7767SOL    HW224201   4.103   1.953   3.306 -0.5626 -1.0537 -0.0492
 7768SOL     OW24202   1.020   3.767   1.715  0.3006  0.4278  0.1689
 7768SOL    HW124203   1.022   3.865   1.736  2.1181  0.9447 -2.0687
 7768SOL    HW224204   1.083   3.747   1.640 -0.4015 -2.4076  0.2104
 7769SOL     OW24205   2.271   1.700   4.243  0.4073 -0.2991 -0.3874
 7769SOL    HW124206   2.290   1.618   4.189 -0.3349 -0.0020 -1.1033
 7769SOL    HW224207   2.174   1.703   4.267  0.5207  0.1331  0.0422
 7770SOL     OW24208   2.633   2.219   2.708  0.0326 -0.2983  0.1590
 7770SOL    HW124209   2.610   2.304   2.661  0.2850 -0.2447  0.1318
 7770SOL    HW224210   2.612   2.141   2.649  0.7286 -0.2179 -0.2103
 7771SOL     OW24211   2.241   6.628   5.341  0.1927 -0.3508  0.0227
 7771SOL    HW124212   2.197   6.539   5.340 -1.0408  0.2457 -1.1992
 7771SOL    HW224213   2.273   6.648   5.434 -0.0110 -1.7963  0.4318
 7772SOL     OW24214   5.701   0.361   2.002 -0.1014  0.3561 -0.2052
 7772SOL    HW124215   5.758   0.312   1.937 -1.5156 -1.1631 -0.3790
 7772SOL    HW224216   5.604   0.342   1.983 -0.5650 -0.2944  2.4290
 7773SOL     OW24217   3.925   3.818   3.102  0.1076 -0.4084  0.0815
 7773SOL    HW124218   3.847   3.760   3.077 -0.7059  0.6337  0.1728
 7773SOL    HW224219   3.995   3.811   3.031 -0.3490 -0.8378 -0.3336
 7774SOL     OW24220   6.016   4.711   2.933  0.5444 -0.4164  0.0020
 7774SOL    HW124221   6.001   4.808   2.948  0.5935 -0.4686  0.4034
 7774SOL    HW224222   5.929   4.662   2.940  0.4303 -0.3260 -0.7932
 7775SOL     OW24223   1.921   6.737   0.955 -0.2277  0.1968  0.2100
 7775SOL    HW124224   2.018   6.759   0.958 -0.4987  2.0385 -1.9106
 7775SOL    HW224225   1.879   6.759   1.043  1.1832 -0.3062  1.0395
 7776SOL     OW24226   3.818   4.007   5.325  0.1039  0.0252 -0.7159
 7776SOL    HW124227   3.846   4.094   5.364  0.5627 -0.6312  0.4926
 7776SOL    HW224228   3.880   3.982   5.250  1.2184 -0.1912  0.2469
 7777SOL     OW24229   6.328   5.057   4.126  0.1430  0.5573 -0.1774
 7777SOL    HW124230   6.383   5.059   4.209  1.8076 -0.4466 -1.2002
 7777SOL    HW224231   6.236   5.025   4.148  0.5406  0.3127  1.2635
 7778SOL     OW24232   6.320   2.319   4.563  0.9947  0.1666  0.0493
 7778SOL    HW124233   6.377   2.370   4.499  1.2994  0.8288  0.8294
 7778SOL    HW224234   6.315   2.223   4.535  1.1119  0.4524 -0.9614
 7779SOL     OW24235   5.711   4.669   2.171  0.2605  0.1631  0.2852
 7779SOL    HW124236   5.720   4.628   2.080  1.4216  0.4694  0.2383
 7779SOL    HW224237   5.615   4.670   2.198 -0.3344  1.4788 -1.5984
 7780SOL     OW24238   6.401   2.674   3.976 -0.3256  0.4295  0.4364
 7780SOL    HW124239   6.453   2.760   3.986 -0.0831  0.2799  0.4708
 7780SOL    HW224240   6.356   2.673   3.887  0.8518 -0.0432 -0.1773
 7781SOL     OW24241   1.058   1.004   0.419 -0.2764 -0.0578  0.3042
 7781SOL    HW124242   0.971   0.984   0.373  0.7424 -0.8486 -1.3838
 7781SOL    HW224243   1.132   1.000   0.352  0.8985  2.2454  1.3775
 7782SOL     OW24244   1.632   0.752   6.508  0.5020  0.5087  0.2019
 7782SOL    HW124245   1.697   0.688   6.548  0.8335 -0.0284 -1.1253
 7782SOL    HW224246   1.562   0.701   6.458 -0.1267  1.1364  0.4251
 7783SOL     OW24247   3.341   4.368   5.719  0.5536  0.3090 -0.2462
 7783SOL    HW124248   3.354   4.365   5.620  0.8008  0.8599 -0.2319
 7783SOL    HW224249   3.250   4.334   5.742  0.8891 -0.8377 -0.5738
 7784SOL     OW24250   4.239   5.772   4.699  0.7709 -0.1414  0.2540
 7784SOL    HW124251   4.294   5.688   4.696 -1.3083 -1.5969  0.4997
 7784SOL    HW224252   4.184   5.778   4.616  0.7653  0.9178  0.3232
 7785SOL     OW24253   3.074   1.615   6.370  0.5056 -0.5421 -0.1548
 7785SOL    HW124254   2.992   1.588   6.320 -0.1641  1.2347 -0.0912
 7785SOL    HW224255   3.096   1.545   6.438 -1.4882 -0.6637  0.4330
 7786SOL     OW24256   0.534   2.637   0.647  0.2846 -0.3267 -0.1918
 7786SOL    HW124257   0.453   2.606   0.697  1.9756 -3.1418  1.0376
 7786SOL    HW224258   0.562   2.567   0.582  1.6108  0.6667 -0.7404
 7787SOL     OW24259   5.713   0.239   0.660  0.1891 -0.1533 -0.2042
 7787SOL    HW124260   5.705   0.191   0.573  1.0979 -2.4897  0.9166
 7787SOL    HW224261   5.630   0.224   0.714  1.1401 -1.9978  0.8266
 7788SOL     OW24262   5.921   3.185   5.468 -0.3125  0.3964 -0.0643
 7788SOL    HW124263   5.935   3.281   5.445 -1.1905  0.0757 -2.1445
 7788SOL    HW224264   6.001   3.132   5.440 -1.0776  0.1159 -1.8579
 7789SOL     OW24265   4.541   1.575   0.681  0.3480 -0.0663 -0.3489
 7789SOL    HW124266   4.551   1.638   0.604  2.1096 -1.0931 -1.0258
 7789SOL    HW224267   4.555   1.481   0.649  2.2963 -0.4431  1.3710
 7790SOL     OW24268   6.092   1.545   5.443 -0.1823  0.2847 -0.4253
 7790SOL    HW124269   6.117   1.525   5.538 -0.7223 -1.8308 -0.6735
 7790SOL    HW224270   6.010   1.494   5.418  1.9196 -2.2101 -3.0415
 7791SOL     OW24271   5.073   6.031   2.409 -0.0638 -0.1174  0.5352
 7791SOL    HW124272   5.098   6.092   2.484 -0.3668  0.9397 -0.1838
 7791SOL    HW224273   5.022   5.953   2.444 -0.2742  0.4075  1.4258
 7792SOL     OW24274   1.517   2.929   1.899  0.1905 -0.1618  0.2906
 7792SOL    HW124275   1.617   2.936   1.890  0.1818 -0.3031  0.0797
 7792SOL    HW224276   1.473   2.997   1.842  0.1300 -1.2411 -0.9866
 7793SOL     OW24277   2.159   2.109   0.775 -0.0185  0.0190  0.1680
 7793SOL    HW124278   2.073   2.160   0.773  0.1825  0.3552 -0.0192
 7793SOL    HW224279   2.182   2.086   0.870 -0.9339 -1.1438  0.1264
 7794SOL     OW24280   0.392   4.523   0.995 -0.1797  0.6889 -0.6641
 7794SOL    HW124281   0.294   4.505   0.991 -0.2529  1.1748 -1.2240
 7794SOL    HW224282   0.442   4.447   0.954 -0.1923 -0.4751  1.3525
 7795SOL     OW24283   2.623   3.970   1.004 -0.1856 -0.0577  0.3194
 7795SOL    HW124284   2.687   3.941   1.075 -0.5439 -0.3441  0.5325
 7795SOL    HW224285   2.674   4.000   0.924  0.2184 -0.0490  0.5739
 7796SOL     OW24286   2.562   4.376   5.796  1.0642 -0.5299 -0.3869
 7796SOL    HW124287   2.523   4.289   5.826 -0.2790  0.5947  1.3090
 7796SOL    HW224288   2.563   4.379   5.696 -1.8748 -1.2242 -0.5152
 7797SOL     OW24289   5.759   1.510   6.290  0.3245 -0.0468  0.2465
 7797SOL    HW124290   5.704   1.580   6.336 -0.2934  0.3943 -1.1019
 7797SOL    HW224291   5.779   1.540   6.196  0.5390 -1.4190 -0.1679
 7798SOL     OW24292   3.143   4.064   4.270  0.0108 -0.2058 -0.3640
 7798SOL    HW124293   3.065   4.126   4.277  1.6442  1.9260 -0.0182
 7798SOL    HW224294   3.222   4.105   4.314  1.5526 -1.9869 -1.3163
 7799SOL     OW24295   0.494   2.348   3.966  0.0741 -0.4518  0.5448
 7799SOL    HW124296   0.458   2.332   3.874  0.1436 -0.5772  0.5380
 7799SOL    HW224297   0.504   2.260   4.013  1.6397 -0.5593  0.0688
 7800SOL     OW24298   1.859   4.357   6.223 -0.1952 -0.2021 -0.3462
 7800SOL    HW124299   1.955   4.358   6.193  0.1136  3.1894  0.3353
 7800SOL    HW224300   1.801   4.337   6.144  0.9023  2.3778 -1.9504
 7801SOL     OW24301   6.381   3.064   1.395  0.3208  0.3189  0.7609
 7801SOL    HW124302   6.451   2.993   1.408  2.4090  1.7866 -1.5370
 7801SOL    HW224303   6.404   3.118   1.314 -2.8254  1.7593  0.6965
 7802SOL     OW24304   2.087   5.583   3.544 -0.3015 -0.0645 -0.2084
 7802SOL    HW124305   2.186   5.597   3.535 -0.1796 -0.8586 -0.1529
 7802SOL    HW224306   2.058   5.510   3.483 -1.0709  0.9703 -1.1076
 7803SOL     OW24307   4.603   6.683   0.970 -0.0669 -0.3924 -0.0706
 7803SOL    HW124308   4.574   6.735   1.051 -0.8510 -0.0073 -0.5897
 7803SOL    HW224309   4.695   6.710   0.944 -0.3906  0.6098 -0.2145
 7804SOL     OW24310   1.721   3.067   5.122  0.2669  0.3665 -0.1254
 7804SOL    HW124311   1.769   2.988   5.084  1.1901  0.5328  0.6517
 7804SOL    HW224312   1.742   3.149   5.068  0.2465  0.2968 -0.2380
 7805SOL     OW24313   6.693   5.717   6.859 -0.3827 -0.1647  0.4699
 7805SOL    HW124314   6.631   5.670   6.796 -0.4884  1.1450 -0.4312
 7805SOL    HW224315   6.782   5.670   6.858  0.1372  0.6908 -1.8990
 7806SOL     OW24316   0.951   6.977   1.419 -0.1694  0.0745  0.0758
 7806SOL    HW124317   1.010   7.057   1.419  0.0297 -0.0690  0.3571
 7806SOL    HW224318   0.899   6.974   1.504 -0.3090  0.0032 -0.0123
 7807SOL     OW24319   2.022   6.209   1.844 -0.2820  0.4070  0.1413
 7807SOL    HW124320   1.950   6.147   1.875  1.0152 -1.0688  0.3471
 7807SOL    HW224321   2.111   6.176   1.876  0.4602  2.5280  0.4481
 7808SOL     OW24322   3.615   5.174   3.370  0.2433 -0.4645  0.0647
 7808SOL    HW124323   3.557   5.172   3.289  1.8517  1.1484 -1.1805
 7808SOL    HW224324   3.670   5.090   3.374 -0.7885 -1.1549  0.2590
 7809SOL     OW24325   3.492   0.590   1.712 -0.1740 -0.2578  0.1731
 7809SOL    HW124326   3.557   0.573   1.638  0.4089 -1.0954  0.8524
 7809SOL    HW224327   3.401   0.604   1.674 -0.7841 -4.8508 -0.6413
 7810SOL     OW24328   3.015   3.621   2.874 -0.6893 -0.2166  0.0984
 7810SOL    HW124329   2.959   3.628   2.956  0.1178  2.4220  0.5329
 7810SOL    HW224330   3.110   3.600   2.899 -0.8582 -1.5985 -0.3686
 7811SOL     OW24331   5.533   3.386   6.670 -0.2612  0.0957 -0.7018
 7811SOL    HW124332   5.527   3.414   6.766  0.5907  0.6788 -0.8124
 7811SOL    HW224333   5.507   3.290   6.661  2.6106 -0.8952  0.5884
 7812SOL     OW24334   0.444   6.113   1.809 -0.0097  0.4624 -0.6479
 7812SOL    HW124335   0.351   6.092   1.778 -1.3302  1.9216  2.0084
 7812SOL    HW224336   0.469   6.205   1.780  0.6325  0.0682 -1.3654
 7813SOL     OW24337   6.852   0.557   3.214 -0.1230  0.3126 -0.1604
 7813SOL    HW124338   6.856   0.542   3.313  0.5131  0.4610 -0.1619
 7813SOL    HW224339   6.761   0.590   3.189 -0.3681  0.0257  0.3412
 7814SOL     OW24340   3.083   3.747   0.551 -0.2558 -0.1293  0.1187
 7814SOL    HW124341   3.151   3.814   0.581 -0.3848  0.0362  0.0407
 7814SOL    HW224342   3.053   3.693   0.630 -1.0788  0.7391  0.4195
 7815SOL     OW24343   1.445   0.996   3.074 -0.5097  0.6126  0.4208
 7815SOL    HW124344   1.489   1.086   3.073  0.8055  0.0222  1.7325
 7815SOL    HW224345   1.442   0.961   3.167 -0.2221 -1.0902 -0.1756
 7816SOL     OW24346   3.957   4.173   6.353  0.0635  0.1215 -0.2526
 7816SOL    HW124347   3.890   4.134   6.291 -1.9187  1.8250  0.6902
 7816SOL    HW224348   3.928   4.160   6.448  0.9676  1.0220  0.1816
 7817SOL     OW24349   2.264   5.789   1.223  0.2159  0.1916  0.6112
 7817SOL    HW124350   2.322   5.825   1.296  0.7739 -0.8230  0.6928
 7817SOL    HW224351   2.292   5.695   1.202 -1.0398 -0.1276  0.2649
 7818SOL     OW24352   0.340   2.648   0.224  0.8392  0.1674 -0.8635
 7818SOL    HW124353   0.364   2.553   0.201  4.7465  0.7047  0.3456
 7818SOL    HW224354   0.402   2.711   0.178 -1.0432  2.1656 -0.8393
 7819SOL     OW24355   6.634   5.086   2.342 -0.1029 -0.1710 -0.5323
 7819SOL    HW124356   6.672   5.104   2.433 -1.2474  2.6623 -0.5118
 7819SOL    HW224357   6.553   5.028   2.351  1.1518 -1.9425 -0.0648
 7820SOL     OW24358   4.096   5.214   3.357 -0.2785 -0.2822  0.3176
 7820SOL    HW124359   4.157   5.244   3.430  1.4044  0.2429 -1.2289
 7820SOL    HW224360   4.027   5.285   3.340  0.9274  0.7774 -0.3078
 7821SOL     OW24361   3.994   1.021   6.954  0.1430 -0.5940 -0.5286
 7821SOL    HW124362   4.077   1.051   7.001  0.2847 -0.9561 -0.5407
 7821SOL    HW224363   3.917   1.079   6.981  0.8657  1.3292 -2.4160
 7822SOL     OW24364   0.115   3.260   2.964  0.0034  0.4552  0.2035
 7822SOL    HW124365   0.088   3.179   2.913  2.5278 -2.2098  2.7218
 7822SOL    HW224366   0.215   3.266   2.969 -0.1024  2.0112  2.5628
 7823SOL     OW24367   0.517   0.308   2.310 -0.2350 -0.3309  0.0022
 7823SOL    HW124368   0.543   0.243   2.382  2.7650 -1.4112 -1.8804
 7823SOL    HW224369   0.461   0.260   2.242  0.2036 -0.3897 -0.3207
 7824SOL     OW24370   4.005   6.716   0.583  0.5020 -0.0232  0.0014
 7824SOL    HW124371   4.011   6.806   0.540 -2.1780  0.2864  0.0874
 7824SOL    HW224372   3.948   6.723   0.665  0.3627 -1.7710  0.0811
 7825SOL     OW24373   3.528   5.676   5.482 -0.2483 -0.0832  0.0475
 7825SOL    HW124374   3.625   5.685   5.501 -0.1126 -1.9632  0.4857
 7825SOL    HW224375   3.501   5.580   5.490 -2.0904  0.3517 -0.3337
 7826SOL     OW24376   0.128   4.410   5.370  0.1882 -0.4284  0.6076
 7826SOL    HW124377   0.224   4.414   5.342  0.2966 -1.1960  0.8466
 7826SOL    HW224378   0.080   4.342   5.315  0.0479 -0.8577  1.2593
 7827SOL     OW24379   4.400   1.511   3.520 -0.0036  0.0409  0.0998
 7827SOL    HW124380   4.363   1.450   3.450 -1.2712  0.4399  0.3891
 7827SOL    HW224381   4.329   1.531   3.588  0.2640  2.0429 -0.1351
 7828SOL     OW24382   6.388   2.258   0.416 -0.6101 -0.5053 -0.3060
 7828SOL    HW124383   6.307   2.200   0.427  0.5533 -1.8208  1.8710
 7828SOL    HW224384   6.468   2.201   0.399  0.1771  0.6734 -0.7061
 7829SOL     OW24385   2.856   5.531   1.297 -0.6787  0.4455 -0.3251
 7829SOL    HW124386   2.898   5.462   1.356 -0.7926  0.8144  0.1992
 7829SOL    HW224387   2.765   5.500   1.268 -0.4367  0.0633 -0.6854
 7830SOL     OW24388   4.956   5.236   3.041 -0.2223 -0.4201 -0.5048
 7830SOL    HW124389   4.915   5.186   2.964  1.5019 -1.5755 -0.7134
 7830SOL    HW224390   4.979   5.329   3.012  0.0174 -0.7115 -1.2694
 7831SOL     OW24391   4.684   1.259   5.283  0.4563 -0.6481  0.4158
 7831SOL    HW124392   4.623   1.243   5.206 -1.2647  0.0207  1.5985
 7831SOL    HW224393   4.724   1.172   5.313  0.2118 -1.0682 -0.4540
 7832SOL     OW24394   5.976   4.396   2.654 -0.5112  0.1943 -0.4726
 7832SOL    HW124395   5.939   4.353   2.572 -0.2493  0.4323 -0.7188
 7832SOL    HW224396   6.017   4.484   2.630  0.2259 -0.0697 -0.2108
 7833SOL     OW24397   4.427   6.012   1.891  0.1062  0.3867  0.1447
 7833SOL    HW124398   4.397   5.916   1.892  1.0022  0.1048  1.0609
 7833SOL    HW224399   4.393   6.058   1.973  2.1841  0.0361  1.2550
 7834SOL     OW24400   6.531   5.645   5.077 -0.0522 -0.1925  0.3308
 7834SOL    HW124401   6.626   5.635   5.047  0.6493 -2.1627  2.8908
 7834SOL    HW224402   6.525   5.717   5.146 -0.2267 -0.7258  0.8771
 7835SOL     OW24403   6.265   0.569   1.109  0.1215 -0.1407  0.7382
 7835SOL    HW124404   6.252   0.487   1.054  0.0299  1.0710 -1.1321
 7835SOL    HW224405   6.176   0.611   1.128  0.2929  0.7666 -0.3430
 7836SOL     OW24406   1.535   6.530   3.462  0.3268 -0.3251  0.4957
 7836SOL    HW124407   1.486   6.479   3.532  2.1754 -0.2368  1.9149
 7836SOL    HW224408   1.582   6.608   3.503 -0.9973  1.5655 -1.3496
 7837SOL     OW24409   3.052   2.122   6.342 -0.3247 -0.2584  0.5727
 7837SOL    HW124410   3.128   2.071   6.381  0.1580  1.2784  1.7327
 7837SOL    HW224411   3.076   2.151   6.249 -0.1541 -1.1390  0.3334
 7838SOL     OW24412   3.902   1.651   6.906  0.9424 -0.1969  0.1455
 7838SOL    HW124413   3.875   1.577   6.843 -0.7450  1.2217 -0.9111
 7838SOL    HW224414   3.863   1.633   6.996  1.7881 -1.3009  0.3173
 7839SOL     OW24415   0.840   5.898   2.838  0.2532  0.0989 -0.0263
 7839SOL    HW124416   0.798   5.818   2.881 -0.1757  0.2580 -0.1482
 7839SOL    HW224417   0.836   5.888   2.738 -0.9512  0.8510 -0.0725
 7840SOL     OW24418   4.617   4.400   2.485 -0.3658 -0.7540  0.2035
 7840SOL    HW124419   4.698   4.352   2.451  0.4318  1.0452 -0.5946
 7840SOL    HW224420   4.554   4.417   2.408 -0.5725 -0.4347  0.4406
 7841SOL     OW24421   1.300   2.039   5.925  0.1374 -0.4836 -0.2021
 7841SOL    HW124422   1.291   2.119   5.984 -2.0774  1.3284 -2.7823
 7841SOL    HW224423   1.370   2.056   5.855  0.7330 -1.4579  0.1303
 7842SOL     OW24424   1.452   6.873   1.707  0.2669  0.3441  0.0951
 7842SOL    HW124425   1.468   6.865   1.806  0.8308 -2.2219 -0.1260
 7842SOL    HW224426   1.490   6.792   1.661 -2.1057  0.2839 -1.9546
 7843SOL     OW24427   2.981   0.820   6.867  0.3498 -0.0839 -0.2699
 7843SOL    HW124428   2.916   0.879   6.819  1.9085  0.2439 -2.1043
 7843SOL    HW224429   3.026   0.871   6.940 -0.6835 -0.0086  0.3247
 7844SOL     OW24430   1.644   1.895   4.148  0.6664  0.8281  0.3198
 7844SOL    HW124431   1.639   1.796   4.142  1.2340  0.7032  1.5878
 7844SOL    HW224432   1.557   1.935   4.116 -0.4309 -0.1823  1.8960
 7845SOL     OW24433   6.394   5.891   4.959  0.0520 -0.2505  0.5621
 7845SOL    HW124434   6.382   5.990   4.972  0.9019 -0.0724  0.0370
 7845SOL    HW224435   6.491   5.870   4.947 -0.2507 -0.9761 -0.7390
 7846SOL     OW24436   4.424   1.853   6.175  0.1362  0.0869  0.0648
 7846SOL    HW124437   4.419   1.815   6.083 -0.7826  2.9007 -1.1627
 7846SOL    HW224438   4.455   1.948   6.171  1.1015 -0.0031  2.7995
 7847SOL     OW24439   6.603   0.906   0.609 -0.1304 -0.2825 -0.3252
 7847SOL    HW124440   6.670   0.854   0.663 -0.7699  0.4780  1.2405
 7847SOL    HW224441   6.581   0.991   0.656  0.4470  1.1958 -2.5527
 7848SOL     OW24442   0.458   2.152   1.586 -0.0545 -0.4714 -0.1811
 7848SOL    HW124443   0.473   2.057   1.612 -1.4966 -0.2129  1.7995
 7848SOL    HW224444   0.498   2.212   1.654 -2.9221  0.2437  1.0379
 7849SOL     OW24445   5.063   5.016   0.904  0.0905 -0.1155 -0.1506
 7849SOL    HW124446   5.094   5.111   0.907  1.0810 -0.2289 -3.3370
 7849SOL    HW224447   5.116   4.962   0.970 -0.0713  1.3782  1.2664
 7850SOL     OW24448   2.571   4.572   2.296  0.3736 -0.3400  0.1047
 7850SOL    HW124449   2.502   4.500   2.305  0.7614 -0.6484  0.6619
 7850SOL    HW224450   2.640   4.561   2.367  0.5713  0.4406  0.0436
 7851SOL     OW24451   1.541   5.967   2.269  0.4984 -0.1580  0.4763
 7851SOL    HW124452   1.538   5.917   2.182 -1.1226 -0.2158  0.5405
 7851SOL    HW224453   1.535   5.903   2.345 -2.5699  0.0704  0.5562
 7852SOL     OW24454   4.939   5.535   0.217 -0.1770  0.3531 -0.1865
 7852SOL    HW124455   5.014   5.473   0.198 -1.0152 -0.6183 -0.4254
 7852SOL    HW224456   4.940   5.611   0.152 -1.1874 -1.2879 -2.2418
 7853SOL     OW24457   0.852   0.480   4.674 -0.3728  0.0532  0.1885
 7853SOL    HW124458   0.845   0.406   4.608 -0.5523 -0.0713  0.3469
 7853SOL    HW224459   0.828   0.446   4.765 -0.0870  0.2125  0.3271
 7854SOL     OW24460   3.379   0.461   1.105  0.3565 -0.5439  0.1361
 7854SOL    HW124461   3.379   0.528   1.179 -0.0716  1.1506 -1.3410
 7854SOL    HW224462   3.296   0.405   1.110 -0.1251  0.1860  0.3826
 7855SOL     OW24463   1.392   4.305   3.379 -0.5166 -0.5053 -0.6012
 7855SOL    HW124464   1.295   4.321   3.398 -0.5662 -0.7358 -0.6628
 7855SOL    HW224465   1.405   4.287   3.281 -0.1120  1.9028 -1.0551
 7856SOL     OW24466   4.895   4.400   3.807 -0.7178  0.2968  0.1073
 7856SOL    HW124467   4.884   4.454   3.724 -0.9445  1.7412  1.0574
 7856SOL    HW224468   4.889   4.303   3.784 -1.9544  0.6926 -1.3830
 7857SOL     OW24469   5.911   4.441   4.833 -0.0181  0.1075 -0.0544
 7857SOL    HW124470   6.005   4.473   4.825 -0.0509  0.5816  1.3258
 7857SOL    HW224471   5.876   4.460   4.925 -1.4034 -0.2176 -0.4855
 7858SOL     OW24472   2.284   1.761   5.485  0.2127  1.0118 -0.2925
 7858SOL    HW124473   2.381   1.787   5.486  0.3102  0.7244 -1.2595
 7858SOL    HW224474   2.229   1.835   5.523  0.5783  2.2549 -2.0556
 7859SOL     OW24475   6.038   5.039   2.634 -0.3699  0.0134 -0.3104
 7859SOL    HW124476   6.105   5.076   2.570 -0.7408 -0.8869 -1.2318
 7859SOL    HW224477   5.986   4.966   2.590 -0.2528 -1.0136  1.1818
 7860SOL     OW24478   3.245   4.874   2.841  0.3745  0.3955  0.7127
 7860SOL    HW124479   3.323   4.812   2.842  1.9882  2.3280 -0.2227
 7860SOL    HW224480   3.171   4.832   2.787  0.7974 -1.3601  1.4202
 7861SOL     OW24481   3.276   4.841   0.381  0.0440 -0.5711  0.3419
 7861SOL    HW124482   3.348   4.907   0.401  0.8403 -1.6848  1.3175
 7861SOL    HW224483   3.234   4.811   0.466 -0.6796 -0.9261 -0.1271
 7862SOL     OW24484   1.230   5.610   3.397 -0.0465  0.1111  0.0397
 7862SOL    HW124485   1.150   5.630   3.454 -0.4056  1.0626 -0.7777
 7862SOL    HW224486   1.312   5.647   3.440 -0.7812  4.5937 -1.8726
 7863SOL     OW24487   4.074   6.832   4.103 -0.9006 -0.0878  0.0214
 7863SOL    HW124488   4.169   6.863   4.112 -0.7340  0.6021 -3.0751
 7863SOL    HW224489   4.065   6.741   4.145  1.4525 -0.7218 -0.7000
 7864SOL     OW24490   0.850   5.701   5.687 -0.1794  0.1005  0.4701
 7864SOL    HW124491   0.890   5.789   5.661 -0.7831 -0.3109 -2.1440
 7864SOL    HW224492   0.859   5.688   5.785  0.4770  2.7923  0.8438
 7865SOL     OW24493   0.738   4.598   6.260 -0.1832 -0.5747 -0.0948
 7865SOL    HW124494   0.779   4.529   6.200  1.1678  0.4780 -0.4326
 7865SOL    HW224495   0.664   4.556   6.312 -0.3514 -1.9149 -1.3286
 7866SOL     OW24496   0.054   4.305   1.730  0.1664  0.3196 -0.2708
 7866SOL    HW124497   0.023   4.326   1.823  4.4256  1.1979  1.1556
 7866SOL    HW224498   0.034   4.383   1.670  0.2108  1.1070  0.7064
 7867SOL     OW24499   4.548   5.282   2.925 -0.2145  0.1663 -0.2929
 7867SOL    HW124500   4.550   5.191   2.882 -2.5033 -1.9874  3.6324
 7867SOL    HW224501   4.459   5.324   2.909 -0.0411  0.6300 -0.0503
 7868SOL     OW24502   1.498   6.307   5.188  0.0603  0.4305 -0.7311
 7868SOL    HW124503   1.540   6.218   5.174  0.8571  0.9277 -1.6313
 7868SOL    HW224504   1.561   6.379   5.158 -1.5986  1.2004 -2.6563
 7869SOL     OW24505   4.570   2.471   6.519  0.0812 -0.3737 -0.3699
 7869SOL    HW124506   4.641   2.400   6.522  0.7100  0.0336 -2.8629
 7869SOL    HW224507   4.540   2.493   6.612  1.0986 -2.6509  0.5722
 7870SOL     OW24508   1.558   4.862   2.053  0.6070  0.4831  0.4361
 7870SOL    HW124509   1.599   4.943   2.012  2.5604 -1.4234 -1.6215
 7870SOL    HW224510   1.597   4.847   2.144  1.8165  0.7170 -0.0288
 7871SOL     OW24511   5.197   2.843   0.620  0.2376  0.3782  0.0020
 7871SOL    HW124512   5.128   2.889   0.565  1.0651  0.8961 -0.6300
 7871SOL    HW224513   5.284   2.840   0.570  0.9784  0.7418  1.1997
 7872SOL     OW24514   4.500   3.034   5.669 -0.3414  0.4216 -0.1010
 7872SOL    HW124515   4.524   3.059   5.575  0.5881  1.1539  0.3244
 7872SOL    HW224516   4.483   3.116   5.723 -1.0355  0.0005  0.3408
 7873SOL     OW24517   2.617   6.924   1.370 -0.4136  0.1130 -0.0783
 7873SOL    HW124518   2.541   6.865   1.340 -0.1391 -0.3055  0.0332
 7873SOL    HW224519   2.666   6.879   1.445  1.4118 -0.7490 -1.6959
 7874SOL     OW24520   1.615   3.310   1.854  0.4581  0.1391 -0.1863
 7874SOL    HW124521   1.682   3.304   1.927  0.4905  0.1921 -0.2117
 7874SOL    HW224522   1.572   3.401   1.855  0.0769 -0.0430  0.1049
 7875SOL     OW24523   6.042   3.231   0.054  0.3715 -0.2871 -0.2895
 7875SOL    HW124524   6.047   3.197  -0.040 -1.7834 -0.7388 -0.2996
 7875SOL    HW224525   6.083   3.322   0.059 -0.6686  0.3227 -1.9917
 7876SOL     OW24526   0.787   5.512   1.377  0.0130 -0.6416  0.3356
 7876SOL    HW124527   0.784   5.414   1.356 -1.7365 -0.6162  0.3256
 7876SOL    HW224528   0.871   5.532   1.428  0.6428 -2.0462 -0.0824
 7877SOL     OW24529   0.433   4.866   6.553  0.0406  0.3439  0.0869
 7877SOL    HW124530   0.440   4.964   6.539  0.0576  0.6351  1.9807
 7877SOL    HW224531   0.341   4.835   6.529  0.9263  0.1733 -3.7936
 7878SOL     OW24532   4.891   4.811   3.398  0.4186  0.1037  0.0075
 7878SOL    HW124533   4.834   4.858   3.464  1.3939  2.8947 -1.0136
 7878SOL    HW224534   4.986   4.841   3.408  0.8449 -0.5413 -1.6754
 7879SOL     OW24535   1.210   5.985   1.568  0.5839 -0.2427 -0.0636
 7879SOL    HW124536   1.152   5.959   1.491  0.9384  0.7977 -0.6982
 7879SOL    HW224537   1.207   5.912   1.637  0.4983 -1.3329 -1.1738
 7880SOL     OW24538   2.414   5.728   5.437  0.8173 -0.3881 -0.3324
 7880SOL    HW124539   2.321   5.749   5.467  0.3125 -0.9708 -1.4279
 7880SOL    HW224540   2.447   5.647   5.486  1.6673  1.1125  1.7549
 7881SOL     OW24541   0.707   6.563   4.395 -0.2184 -0.3815 -0.3408
 7881SOL    HW124542   0.729   6.596   4.303 -0.9068 -1.4436 -0.9068
 7881SOL    HW224543   0.627   6.503   4.391 -0.1360 -0.6053  0.9266
 7882SOL     OW24544   1.735   2.247   5.864  0.0406  0.0851 -0.4592
 7882SOL    HW124545   1.834   2.236   5.854 -0.1009 -0.6641 -1.2137
 7882SOL    HW224546   1.688   2.186   5.799 -0.9177  0.2157  0.0855
 7883SOL     OW24547   2.119   5.613   1.583 -0.4289 -0.2827  0.3697
 7883SOL    HW124548   2.030   5.655   1.599 -0.8175 -0.5607 -0.9613
 7883SOL    HW224549   2.179   5.631   1.661 -1.1002  1.3393  0.5489
 7884SOL     OW24550   2.719   1.732   5.720 -0.1914 -0.4618 -0.1512
 7884SOL    HW124551   2.742   1.810   5.662 -2.8016 -0.3670 -1.1624
 7884SOL    HW224552   2.714   1.649   5.665 -1.7645 -0.5377  0.0642
 7885SOL     OW24553   5.595   0.634   0.384 -0.1625  0.0781 -0.2821
 7885SOL    HW124554   5.651   0.676   0.455  0.2269  1.0672 -1.1410
 7885SOL    HW224555   5.600   0.535   0.392  2.4751  0.0888 -0.8436
 7886SOL     OW24556   4.133   0.578   3.333 -0.1155  0.2466 -0.3354
 7886SOL    HW124557   4.070   0.642   3.291 -0.5305 -0.5933 -1.0192
 7886SOL    HW224558   4.156   0.610   3.425 -3.1072 -0.4271  0.7582
 7887SOL     OW24559   0.553   1.576   3.018  0.8494  0.1550 -0.7801
 7887SOL    HW124560   0.633   1.636   3.024  0.0004  1.2462  0.1918
 7887SOL    HW224561   0.548   1.536   2.927  1.8031  1.0674 -1.2495
 7888SOL     OW24562   6.155   0.594   0.726  0.0051 -0.1447 -0.0555
 7888SOL    HW124563   6.170   0.669   0.790  0.8045  0.4325 -0.8915
 7888SOL    HW224564   6.220   0.601   0.651 -1.5212 -0.2646 -1.4337
 7889SOL     OW24565   3.003   5.327   6.471  0.2335  0.4172 -0.0299
 7889SOL    HW124566   3.027   5.389   6.396 -1.6374  1.2324 -0.0046
 7889SOL    HW224567   3.062   5.347   6.549  0.2852  1.5562 -0.3280
 7890SOL     OW24568   4.486   5.992   1.608 -0.3203  0.0420 -0.3821
 7890SOL    HW124569   4.469   5.991   1.707 -0.4213  0.8504 -0.3905
 7890SOL    HW224570   4.417   5.936   1.562 -0.6815  0.2141 -0.0555
 7891SOL     OW24571   3.390   1.497   5.441 -0.0962  0.4285 -0.1686
 7891SOL    HW124572   3.303   1.506   5.490  0.1723  0.3031  0.3273
 7891SOL    HW224573   3.455   1.565   5.474  0.7722 -0.9776  1.1340
 7892SOL     OW24574   2.194   6.102   3.661  0.0574 -0.6076 -0.0848
 7892SOL    HW124575   2.287   6.088   3.695 -0.3636 -0.5082  1.1698
 7892SOL    HW224576   2.156   6.014   3.630  1.1804 -0.3586 -2.3317
 7893SOL     OW24577   4.854   3.286   1.742  0.1025  1.0010 -0.3330
 7893SOL    HW124578   4.764   3.258   1.708  1.0078 -1.9711 -0.5310
 7893SOL    HW224579   4.873   3.379   1.711 -1.9994  0.9252 -2.1045
 7894SOL     OW24580   6.227   1.064   3.965 -0.1111  0.0134  0.2277
 7894SOL    HW124581   6.262   1.059   3.872 -0.1329  0.4352  0.1961
 7894SOL    HW224582   6.258   0.983   4.016 -0.6621 -0.5638 -0.3251
 7895SOL     OW24583   0.493   0.211   2.659  0.1398  0.3029 -0.4050
 7895SOL    HW124584   0.574   0.232   2.714 -0.5572  0.8193  0.4515
 7895SOL    HW224585   0.416   0.193   2.719 -0.3600 -0.3129 -1.2133
 7896SOL     OW24586   5.005   6.187   2.192 -0.3338  0.4031  0.0798
 7896SOL    HW124587   4.989   6.143   2.104  0.9560 -1.6260  0.7838
 7896SOL    HW224588   5.043   6.120   2.257  3.2615  2.8350  0.8058
 7897SOL     OW24589   0.946   2.553   4.057  0.1668 -0.8163 -0.6027
 7897SOL    HW124590   0.902   2.640   4.033  0.8211 -0.8047 -1.8757
 7897SOL    HW224591   1.001   2.565   4.139 -0.7236 -0.3561 -0.0560
 7898SOL     OW24592   6.584   4.870   5.781  0.0868  0.2952 -0.0483
 7898SOL    HW124593   6.498   4.830   5.812 -0.3702 -0.0268 -1.6370
 7898SOL    HW224594   6.641   4.799   5.740  0.8259  0.6366  0.3701
 7899SOL     OW24595   6.221   2.077   4.816 -0.4798  0.0732  0.3131
 7899SOL    HW124596   6.283   2.084   4.738 -0.4197  0.7227  0.4172
 7899SOL    HW224597   6.255   2.008   4.880 -0.3843 -0.2626 -0.0981
 7900SOL     OW24598   6.632   6.657   3.813  0.2080 -0.3747 -0.0579
 7900SOL    HW124599   6.679   6.714   3.881  0.1524 -0.3733 -0.0204
 7900SOL    HW224600   6.658   6.686   3.721 -0.7796  0.5247 -0.0595
 7901SOL     OW24601   5.541   2.632   6.939  0.3178 -0.1031  0.5566
 7901SOL    HW124602   5.605   2.566   6.897  1.2270  0.0537  1.6634
 7901SOL    HW224603   5.546   2.719   6.890 -0.5372 -0.6700 -0.6118
 7902SOL     OW24604   6.517   3.948   6.256  0.0121 -0.3327 -0.2341
 7902SOL    HW124605   6.506   3.924   6.159  0.1746  0.6878 -0.5184
 7902SOL    HW224606   6.428   3.963   6.297 -0.0025  1.4570 -0.8315
 7903SOL     OW24607   6.344   4.682   6.849 -0.1597 -0.7596 -0.0266
 7903SOL    HW124608   6.403   4.762   6.863 -0.3155 -0.9043  1.5848
 7903SOL    HW224609   6.387   4.621   6.783 -0.0414  0.6401 -1.3133
 7904SOL     OW24610   2.117   1.849   6.426 -0.1601  0.1577  0.1408
 7904SOL    HW124611   2.056   1.926   6.409 -0.2476 -0.1175 -0.8400
 7904SOL    HW224612   2.091   1.771   6.369  1.6530  0.3394 -1.0332
 7905SOL     OW24613   5.478   5.637   4.943 -0.2875 -0.1632 -0.0444
 7905SOL    HW124614   5.508   5.590   4.861  2.5856  0.1014  0.7693
 7905SOL    HW224615   5.404   5.585   4.986 -1.4747 -0.5809 -2.4338
 7906SOL     OW24616   2.593   2.361   1.780  0.3879 -0.2623 -0.1353
 7906SOL    HW124617   2.672   2.309   1.748  0.0760 -1.2082  0.5856
 7906SOL    HW224618   2.584   2.351   1.879 -0.9879 -0.6950 -0.2773
 7907SOL     OW24619   6.174   5.517   0.463  0.0936  0.1481 -0.2123
 7907SOL    HW124620   6.272   5.529   0.448 -0.4022  1.0889 -3.3275
 7907SOL    HW224621   6.149   5.421   0.450  0.5344 -0.0548  0.3864
 7908SOL     OW24622   3.265   6.609   5.184 -0.0307  0.1035 -0.0802
 7908SOL    HW124623   3.166   6.609   5.195 -0.0677  2.7584  0.3691
 7908SOL    HW224624   3.288   6.615   5.087 -0.1649 -3.2675 -0.4281
 7909SOL     OW24625   1.398   3.661   4.409  0.1107  0.0576 -0.1755
 7909SOL    HW124626   1.415   3.592   4.338  0.8358 -0.8263  0.8107
 7909SOL    HW224627   1.474   3.660   4.474 -0.0562  1.5559  0.0656
 7910SOL     OW24628   1.957   2.743   5.509 -0.2540  0.5272  0.2557
 7910SOL    HW124629   1.976   2.690   5.426 -0.8713  1.5150 -0.5325
 7910SOL    HW224630   2.041   2.749   5.564  0.0686 -0.4380 -0.1096
 7911SOL     OW24631   0.302   6.987   5.487  0.1682  0.0959  0.0691
 7911SOL    HW124632   0.305   7.035   5.574 -2.8798  2.9984 -1.1969
 7911SOL    HW224633   0.218   7.011   5.438  0.8678 -2.7817 -2.9634
 7912SOL     OW24634   4.805   4.692   4.367  0.1827 -0.3740  0.0806
 7912SOL    HW124635   4.843   4.778   4.335  1.7757  0.0102  2.7194
 7912SOL    HW224636   4.871   4.645   4.425 -1.7838 -1.8513  1.2771
 7913SOL     OW24637   1.752   4.616   3.053 -0.3018  0.0382  0.1949
 7913SOL    HW124638   1.815   4.562   2.997 -1.1393  0.0113 -0.7417
 7913SOL    HW224639   1.689   4.666   2.994 -0.9997  0.2634  1.1128
 7914SOL     OW24640   2.137   6.223   4.947 -0.4659 -0.0552  0.6375
 7914SOL    HW124641   2.142   6.222   4.847  0.9569 -1.3944  0.6768
 7914SOL    HW224642   2.212   6.279   4.983 -0.3909 -0.3727  0.9740
 7915SOL     OW24643   1.535   5.386   2.393  0.5749 -0.2123 -0.1893
 7915SOL    HW124644   1.607   5.405   2.460 -0.8718  0.0413  1.3859
 7915SOL    HW224645   1.517   5.468   2.339  1.8972 -0.4787 -1.0869
 7916SOL     OW24646   4.323   4.247   1.216  0.2262 -0.2162 -0.8867
 7916SOL    HW124647   4.302   4.344   1.208 -0.7890 -0.5424 -2.8956
 7916SOL    HW224648   4.323   4.220   1.312  0.0955  1.6620 -0.3253
 7917SOL     OW24649   3.302   2.000   6.393 -0.6595 -0.1413 -0.3116
 7917SOL    HW124650   3.369   1.979   6.464 -1.3564 -1.9449 -0.1543
 7917SOL    HW224651   3.281   1.918   6.341 -0.8952  0.9319 -2.0113
 7918SOL     OW24652   5.271   0.035   1.651  0.1318  0.6735 -0.0312
 7918SOL    HW124653   5.223   0.051   1.738 -0.7260  1.3176 -0.6075
 7918SOL    HW224654   5.244   0.105   1.585 -0.1908 -0.5284 -1.2189
 7919SOL     OW24655   0.045   3.007   2.532  0.0969  0.2300 -0.4012
 7919SOL    HW124656   0.058   3.080   2.598 -0.0695  0.4672 -0.6311
 7919SOL    HW224657   0.134   2.975   2.499  0.3310 -1.5373  1.7192
 7920SOL     OW24658   6.985   2.509   4.752 -0.2383  0.0165 -0.3120
 7920SOL    HW124659   7.073   2.496   4.798 -0.4364  1.1600  0.4329
 7920SOL    HW224660   6.999   2.506   4.653  0.6956  0.4295 -0.2079
 7921SOL     OW24661   4.206   6.250   1.749 -0.2798 -0.1679 -0.3553
 7921SOL    HW124662   4.174   6.169   1.700 -1.3687 -0.7966  1.2744
 7921SOL    HW224663   4.303   6.242   1.769 -0.0755 -0.4104 -1.3860
 7922SOL     OW24664   3.015   1.694   3.713  0.2170 -0.1749 -0.0549
 7922SOL    HW124665   2.951   1.744   3.772 -0.0343  0.3672 -0.7613
 7922SOL    HW224666   3.041   1.752   3.636 -0.3858 -1.2616 -1.1157
 7923SOL     OW24667   1.277   3.230   1.145 -0.1166  0.3042  0.0974
 7923SOL    HW124668   1.353   3.165   1.136  0.2589  0.7312  0.1687
 7923SOL    HW224669   1.282   3.274   1.235 -0.9971 -0.3509  0.4803
 7924SOL     OW24670   5.603   2.718   3.921 -0.3220  0.2979 -0.3350
 7924SOL    HW124671   5.555   2.796   3.961  0.6590  0.0833  1.3359
 7924SOL    HW224672   5.687   2.749   3.876 -0.1427  0.2621 -0.0282
 7925SOL     OW24673   2.274   3.723   0.291  0.4663  0.0060  0.3735
 7925SOL    HW124674   2.330   3.640   0.295  0.4506 -0.0873 -0.9236
 7925SOL    HW224675   2.314   3.786   0.224 -0.2315  0.5052  0.4190
 7926SOL     OW24676   4.524   5.721   3.071  0.3033  0.5609 -0.1164
 7926SOL    HW124677   4.433   5.681   3.074  0.8303 -0.6079  1.6588
 7926SOL    HW224678   4.591   5.655   3.106  1.6710  1.8241 -0.2481
 7927SOL     OW24679   1.983   2.594   2.730  0.0295 -0.1208  0.3437
 7927SOL    HW124680   1.944   2.588   2.638  1.2656  0.4364 -0.2420
 7927SOL    HW224681   1.936   2.665   2.781  1.9444  2.5547 -1.3003
 7928SOL     OW24682   6.307   0.288   3.710  0.4715  0.6010  0.1671
 7928SOL    HW124683   6.386   0.297   3.772 -0.1332  1.6501  0.8211
 7928SOL    HW224684   6.262   0.376   3.701 -0.5976  0.0291 -0.2598
 7929SOL     OW24685   3.932   1.241   5.346  0.5952 -0.1436  0.6941
 7929SOL    HW124686   3.857   1.235   5.412  1.3351  0.7085  1.6384
 7929SOL    HW224687   3.894   1.243   5.253 -0.5404  0.0424  1.1443
 7930SOL     OW24688   0.024   4.623   5.048 -0.4724  0.0527  0.5270
 7930SOL    HW124689   0.101   4.625   4.985  0.3042  1.1842  1.4663
 7930SOL    HW224690  -0.058   4.592   5.000 -0.1539  1.8787 -1.3097
 7931SOL     OW24691   3.012   5.914   2.290 -0.2117  0.5305 -0.0387
 7931SOL    HW124692   2.921   5.950   2.312 -0.4756  1.0959 -1.8137
 7931SOL    HW224693   3.075   5.934   2.364 -1.8131 -1.0950  1.8651
 7932SOL     OW24694   6.104   6.849   5.619 -0.6027 -0.1046  0.0777
 7932SOL    HW124695   6.084   6.761   5.661 -0.9439  0.4657  1.1524
 7932SOL    HW224696   6.122   6.836   5.521 -1.9317 -1.2108 -0.0597
 7933SOL     OW24697   1.831   6.460   5.964  0.2049 -0.4212 -0.4842
 7933SOL    HW124698   1.798   6.511   5.885  0.9702 -1.1167 -1.2709
 7933SOL    HW224699   1.835   6.362   5.942  1.8886 -0.4673 -0.1242
 7934SOL     OW24700   1.526   3.759   0.859  0.6684  0.5416  0.2816
 7934SOL    HW124701   1.605   3.811   0.825  0.5857  0.2633 -0.3473
 7934SOL    HW224702   1.543   3.661   0.847  0.7069  0.4266  1.2072
 7935SOL     OW24703   5.071   1.116   5.720 -0.1028 -0.3878 -0.6373
 7935SOL    HW124704   5.132   1.181   5.675 -0.0866  0.4305  0.5232
 7935SOL    HW224705   4.990   1.164   5.754  0.9061 -0.4587  2.1845
 7936SOL     OW24706   2.830   1.605   1.594  0.2343 -0.5796  0.1388
 7936SOL    HW124707   2.884   1.546   1.534  0.2388 -1.4862  1.0116
 7936SOL    HW224708   2.760   1.652   1.541  0.3896 -1.1869 -0.6078
 7937SOL     OW24709   5.250   6.054   3.675 -0.2434 -1.1746 -0.3549
 7937SOL    HW124710   5.345   6.026   3.660  0.5231  0.3663  1.1875
 7937SOL    HW224711   5.246   6.154   3.683 -2.0232 -1.2044 -0.3978
 7938SOL     OW24712   0.716   6.482   2.705 -0.1059  0.6529  0.3542
 7938SOL    HW124713   0.815   6.473   2.721  0.0663  0.9488 -0.4856
 7938SOL    HW224714   0.670   6.398   2.734  0.2980  0.7732  1.4020
 7939SOL     OW24715   2.080   0.992   0.141  0.4055 -0.4604  0.0939
 7939SOL    HW124716   2.135   1.074   0.160  0.1137 -0.2204 -0.0938
 7939SOL    HW224717   2.070   0.940   0.226  0.4354 -0.2053  0.2573
 7940SOL     OW24718   6.782   0.068   2.772 -0.0299 -0.4546  0.6150
 7940SOL    HW124719   6.764   0.052   2.869 -1.1085  1.0702  0.6979
 7940SOL    HW224720   6.812   0.162   2.759 -0.4887 -0.4629 -0.5969
 7941SOL     OW24721   1.627   0.175   3.671  0.1212  0.7190  0.6526
 7941SOL    HW124722   1.614   0.107   3.600  1.6040  2.5422 -1.4806
 7941SOL    HW224723   1.716   0.160   3.716 -0.8888 -0.5453  2.3799
 7942SOL     OW24724   1.909   3.010   2.638 -0.4681  0.4192 -0.2392
 7942SOL    HW124725   1.986   2.950   2.660  0.4739  1.7736  0.2198
 7942SOL    HW224726   1.924   3.053   2.549 -0.9225  0.3558 -0.3518
 7943SOL     OW24727   3.742   1.506   3.364  0.1644  0.0693 -0.2927
 7943SOL    HW124728   3.664   1.456   3.399  1.7716 -1.2083  1.7065
 7943SOL    HW224729   3.712   1.596   3.332 -2.1069 -0.4015  0.3279
 7944SOL     OW24730   1.598   1.100   1.961 -0.2935  0.2503 -0.4286
 7944SOL    HW124731   1.543   1.119   1.879 -1.6466 -1.3714  0.0546
 7944SOL    HW224732   1.683   1.056   1.934 -2.0801 -3.2470 -0.9062
 7945SOL     OW24733   6.097   6.567   6.538 -0.6913  0.0590  0.1634
 7945SOL    HW124734   6.112   6.664   6.558  0.5938 -0.3428  1.3204
 7945SOL    HW224735   6.024   6.532   6.595  0.1020 -0.0726  1.1251
 7946SOL     OW24736   6.058   5.335   6.936 -0.2897 -0.3450 -0.4330
 7946SOL    HW124737   6.086   5.427   6.964  0.3527 -0.7579  0.3670
 7946SOL    HW224738   6.136   5.272   6.948 -0.1877 -0.6932 -2.5799
 7947SOL     OW24739   5.458   0.416   3.440  0.2064 -0.1570 -0.0729
 7947SOL    HW124740   5.512   0.402   3.524 -0.8579 -0.2743  0.6097
 7947SOL    HW224741   5.493   0.496   3.391  0.1095  0.6119  1.0871
 7948SOL     OW24742   1.544   5.234   3.784 -0.0241 -0.5777  0.1054
 7948SOL    HW124743   1.642   5.215   3.796  0.6349  1.0488 -2.1500
 7948SOL    HW224744   1.520   5.317   3.833  0.1303 -0.0628 -0.6745
 7949SOL     OW24745   1.014   2.152   1.621  0.2147 -0.1184 -0.0879
 7949SOL    HW124746   1.065   2.068   1.606  0.3679  0.2096 -1.4894
 7949SOL    HW224747   0.971   2.149   1.711  1.0707 -1.2410  0.3013
 7950SOL     OW24748   4.444   2.214   1.056  0.3258 -0.3550  0.3232
 7950SOL    HW124749   4.512   2.160   1.106 -0.2440  0.0434  1.5718
 7950SOL    HW224750   4.490   2.288   1.007  0.7281  0.5957  2.0589
 7951SOL     OW24751   6.341   1.186   0.413  0.2842  0.0904  0.6310
 7951SOL    HW124752   6.258   1.222   0.371  1.0133  1.5014  0.3339
 7951SOL    HW224753   6.317   1.122   0.486 -1.0362 -0.0569  0.0870
 7952SOL     OW24754   6.563   1.957   6.904  0.2658 -0.4340  0.5348
 7952SOL    HW124755   6.561   2.019   6.984  0.0269 -1.1415  1.0859
 7952SOL    HW224756   6.580   1.864   6.935  1.3207 -0.5600 -0.3600
 7953SOL     OW24757   1.443   6.658   6.475 -0.2922 -0.3389  0.7227
 7953SOL    HW124758   1.467   6.560   6.472  2.0142  0.1571  1.1851
 7953SOL    HW224759   1.458   6.692   6.568 -2.9177  0.0824  1.0532
 7954SOL     OW24760   2.862   2.015   3.046  0.2675  0.1962 -0.6249
 7954SOL    HW124761   2.863   2.085   2.975 -5.0921  2.7821  1.3338
 7954SOL    HW224762   2.880   2.058   3.135 -0.1823 -1.5055  0.3300
 7955SOL     OW24763   6.367   0.398   5.682  0.1303  0.1875  0.1350
 7955SOL    HW124764   6.311   0.366   5.758 -1.1992  1.6638 -0.1620
 7955SOL    HW224765   6.345   0.347   5.599  0.8147 -0.6962  0.4794
 7956SOL     OW24766   5.133   2.416   4.419 -0.0433 -0.1143 -0.5323
 7956SOL    HW124767   5.193   2.495   4.429 -0.1501  0.2379 -2.3392
 7956SOL    HW224768   5.043   2.446   4.388 -0.4212 -0.8391 -0.1547
 7957SOL     OW24769   5.400   6.133   5.329  0.7029  0.6598 -0.3458
 7957SOL    HW124770   5.462   6.207   5.303  1.2070  0.2872 -0.2169
 7957SOL    HW224771   5.395   6.066   5.254 -2.8710  2.7553 -2.2440
 7958SOL     OW24772   5.968   4.061   0.482  0.3637  0.4110 -0.5674
 7958SOL    HW124773   5.906   4.088   0.408 -1.5084  0.3310  0.9174
 7958SOL    HW224774   6.049   4.120   0.480 -0.4590  1.5623 -1.5929
 7959SOL     OW24775   1.546   5.250   6.259 -0.2422 -0.0575 -0.4375
 7959SOL    HW124776   1.485   5.195   6.317  0.1219 -0.1094 -0.1019
 7959SOL    HW224777   1.626   5.278   6.312 -1.3213  2.4372  0.0131
 7960SOL     OW24778   3.143   6.954   4.958 -0.6079 -0.1281 -0.2861
 7960SOL    HW124779   3.241   6.946   4.938 -0.4377  2.2652 -0.7885
 7960SOL    HW224780   3.131   6.972   5.056 -0.2383  2.3339 -0.6186
 7961SOL     OW24781   4.493   4.940   0.123 -0.3787 -0.9582 -0.2427
 7961SOL    HW124782   4.455   4.943   0.215 -1.9597 -0.5848 -0.8855
 7961SOL    HW224783   4.421   4.957   0.055  1.1785  1.5475 -1.4425
 7962SOL     OW24784   6.177   5.580   0.983  0.6307  0.2530  0.5337
 7962SOL    HW124785   6.184   5.494   0.933  1.4460 -0.0525  1.1533
 7962SOL    HW224786   6.245   5.645   0.948  0.3011  0.5064  0.3527
 7963SOL     OW24787   5.912   0.552   0.900 -0.2303 -0.4221 -0.0845
 7963SOL    HW124788   5.899   0.454   0.885  2.5610 -0.7176 -1.1000
 7963SOL    HW224789   5.975   0.589   0.832 -1.9358  2.3432 -0.3319
 7964SOL     OW24790   0.768   1.923   2.790  1.0732 -0.3401 -0.0419
 7964SOL    HW124791   0.712   1.855   2.743 -0.0707 -0.1942  1.0753
 7964SOL    HW224792   0.818   1.977   2.721 -0.1162 -0.5030 -1.0804
 7965SOL     OW24793   1.820   2.660   3.364 -0.1700  0.3284  0.5136
 7965SOL    HW124794   1.802   2.754   3.393 -0.9445  0.3960 -0.1298
 7965SOL    HW224795   1.806   2.653   3.265 -0.4360 -0.5349  0.6069
 7966SOL     OW24796   4.950   2.981   3.343 -0.2712 -1.0696 -0.0647
 7966SOL    HW124797   4.935   2.903   3.404 -0.9957 -0.4393  0.5796
 7966SOL    HW224798   5.048   2.990   3.324  0.4762  0.6508  3.6975
 7967SOL     OW24799   5.616   6.871   5.958  0.3072  0.0437  0.3132
 7967SOL    HW124800   5.699   6.816   5.945  0.3744  0.0256  0.7942
 7967SOL    HW224801   5.633   6.965   5.925  0.4963  0.0227  0.3490
 7968SOL     OW24802   4.144   5.946   6.112 -0.1538 -0.1636 -0.1766
 7968SOL    HW124803   4.090   5.902   6.039 -0.0592 -1.2605  0.3921
 7968SOL    HW224804   4.127   6.044   6.111 -0.9943 -0.2982 -0.9819
 7969SOL     OW24805   6.077   4.709   5.577 -0.0479  0.1490 -0.0173
 7969SOL    HW124806   6.055   4.744   5.486  0.3098  0.2313 -0.0776
 7969SOL    HW224807   6.113   4.616   5.569 -1.6597 -0.5132  0.2100
 7970SOL     OW24808   4.936   5.695   6.534  0.5367  0.7559 -0.0298
 7970SOL    HW124809   4.870   5.630   6.496  1.9464 -0.5818 -0.2495
 7970SOL    HW224810   4.889   5.754   6.600 -0.5191 -1.3322  1.1731
 7971SOL     OW24811   0.279   4.320   2.265  0.2327 -0.3162 -0.4165
 7971SOL    HW124812   0.351   4.263   2.226  1.1087 -0.6917  1.6350
 7971SOL    HW224813   0.315   4.412   2.281 -0.0431 -0.2325 -0.2787
 7972SOL     OW24814   3.155   3.396   2.570  0.2322  0.2037 -0.6303
 7972SOL    HW124815   3.074   3.436   2.614  0.0251 -1.6210  0.7431
 7972SOL    HW224816   3.228   3.384   2.637  1.2890  0.7984 -1.6245
 7973SOL     OW24817   1.099   2.587   3.212 -0.8444 -0.1316 -0.7684
 7973SOL    HW124818   1.049   2.502   3.222 -0.5398 -0.2883 -0.5635
 7973SOL    HW224819   1.081   2.646   3.291  0.3191 -0.7246 -0.0336
 7974SOL     OW24820   1.453   0.403   2.100 -0.0974  0.4099 -0.3334
 7974SOL    HW124821   1.522   0.340   2.066 -0.1833  0.1778 -0.0850
 7974SOL    HW224822   1.394   0.356   2.166  1.0388  1.2466  1.3660
 7975SOL     OW24823   4.333   5.821   6.867  0.5410  0.1447  0.3769
 7975SOL    HW124824   4.388   5.848   6.788 -0.1167 -1.0517 -0.5265
 7975SOL    HW224825   4.296   5.730   6.852 -1.8265  0.9588  0.8627
 7976SOL     OW24826   5.548   2.284   5.409  0.5391  0.2497  0.5108
 7976SOL    HW124827   5.645   2.283   5.384  0.7412  0.1201  1.2901
 7976SOL    HW224828   5.499   2.348   5.349  0.9127 -0.4272 -0.5582
 7977SOL     OW24829   6.987   3.412   0.552 -0.2186 -0.2364  0.1838
 7977SOL    HW124830   7.053   3.354   0.598 -1.2016 -2.2495 -0.7972
 7977SOL    HW224831   7.015   3.425   0.457  0.2108  1.3084  0.4975
 7978SOL     OW24832   1.460   5.144   0.129 -0.2831  0.0896  0.2245
 7978SOL    HW124833   1.553   5.109   0.121 -0.2219  0.4261 -0.6652
 7978SOL    HW224834   1.461   5.244   0.134 -0.4650  0.0201  2.6736
 7979SOL     OW24835   2.759   5.906   5.918 -0.7193  0.0144 -0.7368
 7979SOL    HW124836   2.804   5.955   5.843  1.5052  0.6887  0.9271
 7979SOL    HW224837   2.725   5.818   5.885 -1.1707  0.9234 -2.8476
 7980SOL     OW24838   3.220   0.620   1.631 -0.3817 -0.4882 -0.6603
 7980SOL    HW124839   3.190   0.561   1.556 -0.2497 -0.8890 -0.4050
 7980SOL    HW224840   3.153   0.615   1.706 -0.2331 -0.5262 -0.5297
 7981SOL     OW24841   3.972   0.461   0.605 -0.2177 -0.0028  0.3653
 7981SOL    HW124842   3.958   0.531   0.676  0.3989  0.7866 -0.2813
 7981SOL    HW224843   4.013   0.380   0.646  1.1030  0.8301  0.7548
 7982SOL     OW24844   5.227   0.695   0.745  0.3162  0.2279  0.4099
 7982SOL    HW124845   5.312   0.737   0.778  1.5189 -0.4947 -1.5677
 7982SOL    HW224846   5.181   0.758   0.683  0.3830 -0.0828  0.0422
 7983SOL     OW24847   6.993   4.049   1.372  0.2957 -0.0006 -0.2530
 7983SOL    HW124848   7.064   3.980   1.389 -0.2468 -0.8827 -1.3917
 7983SOL    HW224849   6.972   4.097   1.457  0.8024 -1.1331  0.5379
 7984SOL     OW24850   0.105   1.670   1.722  0.0019  0.0456  0.1048
 7984SOL    HW124851   0.135   1.672   1.817  0.5936  1.0929 -0.0877
 7984SOL    HW224852   0.025   1.611   1.714 -1.1448  1.3112  1.5755
 7985SOL     OW24853   4.951   1.945   5.389  0.6375 -0.6780  0.3431
 7985SOL    HW124854   5.017   1.935   5.314  0.3298 -0.6018  0.0607
 7985SOL    HW224855   4.876   1.880   5.376 -0.1861  0.3614 -0.2415
 7986SOL     OW24856   0.197   3.460   3.818  0.0255 -0.0788 -0.2266
 7986SOL    HW124857   0.226   3.505   3.734  0.9436  0.0614  0.1496
 7986SOL    HW224858   0.268   3.472   3.888 -0.8268  0.0063  0.6393
 7987SOL     OW24859   6.277   5.857   3.108 -0.7006 -0.9470 -0.0733
 7987SOL    HW124860   6.222   5.773   3.110  2.9366 -3.6532 -0.8126
 7987SOL    HW224861   6.289   5.885   3.013 -1.3512  0.0532  0.1327
 7988SOL     OW24862   1.611   4.833   5.091  0.3021  0.3708 -0.1714
 7988SOL    HW124863   1.639   4.738   5.107 -2.1126 -0.2955  0.3996
 7988SOL    HW224864   1.665   4.893   5.150 -1.3029 -1.1185  3.0880
 7989SOL     OW24865   2.124   3.242   1.904  0.0947  0.5411 -0.1978
 7989SOL    HW124866   2.200   3.302   1.880  0.4420  0.1207 -0.1553
 7989SOL    HW224867   2.067   3.286   1.973  0.4095  0.7738 -0.0865
 7990SOL     OW24868   1.826   0.464   3.990 -0.1393  0.4998 -1.1548
 7990SOL    HW124869   1.887   0.531   4.030 -0.1844 -0.6517  0.9678
 7990SOL    HW224870   1.733   0.500   3.987 -0.0710  0.7306 -0.5391
 7991SOL     OW24871   1.981   1.589   3.601 -0.4410 -0.1201 -0.4002
 7991SOL    HW124872   2.036   1.672   3.593 -2.1669  1.1367  0.0849
 7991SOL    HW224873   2.019   1.518   3.542  1.1845  0.9491 -0.7100
 7992SOL     OW24874   3.829   2.932   1.533 -0.0461 -0.4861  0.0999
 7992SOL    HW124875   3.766   2.865   1.493  0.1119 -0.4329 -0.2398
 7992SOL    HW224876   3.919   2.924   1.491 -0.2734  0.5808 -0.6499
 7993SOL     OW24877   4.890   3.933   5.041  0.6969  0.2148  0.2448
 7993SOL    HW124878   4.850   3.934   4.949 -0.3229  3.1694  0.6035
 7993SOL    HW224879   4.984   3.966   5.036  1.2825 -1.4102  0.0803
 7994SOL     OW24880   3.734   3.257   5.637 -0.0899  0.5348  0.1202
 7994SOL    HW124881   3.755   3.171   5.590  2.0812  0.3909  1.2154
 7994SOL    HW224882   3.637   3.280   5.623 -0.9814 -2.5323  0.5139
 7995SOL     OW24883   1.848   5.777   0.004 -0.0331  0.0162 -0.1333
 7995SOL    HW124884   1.828   5.786   0.102  2.1935  0.1689  0.3817
 7995SOL    HW224885   1.779   5.720  -0.040 -2.3757  1.7783  1.0185
 7996SOL     OW24886   1.185   3.565   0.888  0.2510  0.5029 -0.1861
 7996SOL    HW124887   1.273   3.518   0.889 -0.4507 -0.8778  0.0060
 7996SOL    HW224888   1.161   3.593   0.981  1.2212  2.3773 -0.4649
 7997SOL     OW24889   3.870   3.851   1.906 -0.2217 -0.0600  0.4120
 7997SOL    HW124890   3.928   3.821   1.982 -0.3238  1.3768  1.0867
 7997SOL    HW224891   3.927   3.888   1.833 -0.2495  0.9995  0.9149
 7998SOL     OW24892   3.548   4.891   1.128 -0.2168  0.2180 -0.4592
 7998SOL    HW124893   3.449   4.897   1.135 -0.2472 -2.1005  3.1315
 7998SOL    HW224894   3.590   4.967   1.178 -0.2114 -0.2851  0.3045
 7999SOL     OW24895   3.481   2.125   1.795 -0.0198 -0.2080 -0.2472
 7999SOL    HW124896   3.562   2.176   1.822  0.3557 -1.6201  1.5134
 7999SOL    HW224897   3.416   2.186   1.749  2.1750  0.8586 -2.1056
 8000SOL     OW24898   4.992   1.560   1.107 -0.5432  0.3744  0.4924
 8000SOL    HW124899   4.962   1.507   1.027  0.4449 -1.7175  1.4406
 8000SOL    HW224900   4.912   1.604   1.149 -1.4789 -0.6538 -0.1428
 8001SOL     OW24901   5.985   4.208   6.804  0.1892 -0.5022 -0.0746
 8001SOL    HW124902   5.966   4.288   6.861  0.8001  0.7511 -1.5686
 8001SOL    HW224903   6.028   4.237   6.718  0.7010 -2.4627 -0.5378
 8002SOL     OW24904   0.281   5.556   6.468  0.3721 -0.5081 -0.4039
 8002SOL    HW124905   0.352   5.524   6.530 -0.1523 -0.2346  0.3540
 8002SOL    HW224906   0.210   5.486   6.458  0.0339 -0.2237 -0.0236
 8003SOL     OW24907   6.751   2.945   3.736  0.3884 -0.6587 -0.2500
 8003SOL    HW124908   6.830   3.004   3.746  0.1867 -0.1036 -1.6257
 8003SOL    HW224909   6.697   2.975   3.657 -1.5395 -0.6344  1.0199
 8004SOL     OW24910   5.772   6.376   5.828  0.4776  0.0929  0.0845
 8004SOL    HW124911   5.695   6.436   5.808  0.8738  0.9467  1.0342
 8004SOL    HW224912   5.739   6.282   5.842 -0.3692  0.4122  0.2943
 8005SOL     OW24913   6.827   2.642   3.893 -0.1397 -0.3201  0.1738
 8005SOL    HW124914   6.920   2.635   3.858 -0.1026 -1.7657  0.4860
 8005SOL    HW224915   6.768   2.578   3.844 -0.5829 -0.6744  1.1379
 8006SOL     OW24916   1.110   2.534   4.284  0.5277 -0.1865  0.0650
 8006SOL    HW124917   1.138   2.523   4.380 -0.5087 -2.9797  0.1324
 8006SOL    HW224918   1.107   2.445   4.240 -1.8042  0.7022 -1.7696
 8007SOL     OW24919   1.665   1.209   4.577  0.2145 -0.1889  0.2206
 8007SOL    HW124920   1.671   1.119   4.620 -0.1573 -1.4253 -2.1004
 8007SOL    HW224921   1.570   1.226   4.550  0.5475  0.1559 -0.7756
 8008SOL     OW24922   5.779   2.771   5.059 -0.2138 -0.4447 -0.2736
 8008SOL    HW124923   5.822   2.682   5.077 -2.8669 -2.0669 -1.3028
 8008SOL    HW224924   5.751   2.775   4.963 -2.7065  0.2789  0.4260
 8009SOL     OW24925   5.450   6.609   3.093 -0.0122 -0.2263  0.0091
 8009SOL    HW124926   5.425   6.548   3.169  2.0681 -1.2905 -0.0749
 8009SOL    HW224927   5.474   6.699   3.129  1.0359 -0.7447  0.6752
 8010SOL     OW24928   2.158   3.288   3.712 -0.1370 -0.4441 -0.1536
 8010SOL    HW124929   2.132   3.238   3.629 -1.3052 -1.4866  0.8131
 8010SOL    HW224930   2.124   3.382   3.706 -0.7689 -0.6940 -0.5797
 8011SOL     OW24931   3.730   0.975   6.787  0.6832  0.6040  0.1454
 8011SOL    HW124932   3.783   0.985   6.871 -0.4699 -0.8190  1.0769
 8011SOL    HW224933   3.690   0.884   6.783  0.1662  0.8687 -1.6438
 8012SOL     OW24934   1.708   2.072   3.223 -0.2612  0.2438  0.3680
 8012SOL    HW124935   1.723   2.115   3.312 -0.5652  0.7574  0.1723
 8012SOL    HW224936   1.794   2.029   3.192  0.2410  1.3158  0.2371
 8013SOL     OW24937   3.610   2.193   5.333 -0.3123  0.5686 -0.4183
 8013SOL    HW124938   3.550   2.199   5.254 -1.6144  2.0907  0.6160
 8013SOL    HW224939   3.651   2.283   5.350 -0.2065  0.3226  0.7348
 8014SOL     OW24940   5.080   6.755   3.416  0.1594  0.0083  0.0597
 8014SOL    HW124941   5.092   6.814   3.337 -0.3670  0.1445  0.0790
 8014SOL    HW224942   4.986   6.722   3.420  0.6949 -1.6958 -0.5528
 8015SOL     OW24943   6.680   2.490   3.738 -0.3351  0.0051 -0.2741
 8015SOL    HW124944   6.585   2.463   3.755 -0.0759 -1.1106 -0.4991
 8015SOL    HW224945   6.726   2.418   3.687  1.6521 -1.2041  2.8940
 8016SOL     OW24946   2.577   1.489   4.447 -0.2448 -0.0577 -0.2789
 8016SOL    HW124947   2.556   1.394   4.469  1.3928 -0.6272 -0.9919
 8016SOL    HW224948   2.519   1.550   4.501  0.2738 -1.4336  1.9626
 8017SOL     OW24949   4.855   6.612   5.127  0.0150  0.2727 -0.0401
 8017SOL    HW124950   4.929   6.667   5.086 -0.6103  0.7738 -0.5220
 8017SOL    HW224951   4.891   6.559   5.203  1.2903 -0.8965 -1.3963
 8018SOL     OW24952   3.116   4.869   4.392 -0.4179  0.2513 -0.4038
 8018SOL    HW124953   3.206   4.855   4.351 -1.0217 -1.7768 -1.1784
 8018SOL    HW224954   3.126   4.902   4.486  1.1211 -0.3333 -0.3377
 8019SOL     OW24955   5.217   0.655   2.598 -0.3427 -0.2628 -0.4998
 8019SOL    HW124956   5.254   0.597   2.525  1.4591 -1.6581  1.3801
 8019SOL    HW224957   5.269   0.741   2.602  0.3413 -0.6791 -0.1710
 8020SOL     OW24958   1.052   0.232   5.677  0.2058  0.5825 -0.0033
 8020SOL    HW124959   1.123   0.174   5.716  2.1709  2.2680 -0.8389
 8020SOL    HW224960   1.036   0.205   5.582 -1.7285 -1.0192  0.7312
 8021SOL     OW24961   0.351   3.085   4.337  0.1591  0.4753  0.6186
 8021SOL    HW124962   0.425   3.152   4.346  0.2716  0.3676  0.5029
 8021SOL    HW224963   0.373   3.004   4.392  0.4079  0.1996  0.1185
 8022SOL     OW24964   6.387   2.051   2.863 -0.1041  0.0192 -0.6458
 8022SOL    HW124965   6.438   2.077   2.945  0.8770 -3.2111 -0.0748
 8022SOL    HW224966   6.450   2.008   2.798 -1.1117  1.3487 -2.5704
 8023SOL     OW24967   0.626   4.160   1.140 -0.1270  0.1421 -0.1998
 8023SOL    HW124968   0.665   4.071   1.121  0.5772  0.2890  0.4961
 8023SOL    HW224969   0.532   4.149   1.174 -0.3522 -0.2706 -0.9338
 8024SOL     OW24970   2.195   0.698   0.625  0.0585  0.3010  0.0352
 8024SOL    HW124971   2.175   0.639   0.547  0.4705  1.9776 -1.3752
 8024SOL    HW224972   2.266   0.764   0.600  0.5045  0.6085  1.9686
 8025SOL     OW24973   3.196   2.102   4.719  0.2883 -0.5610  0.4634
 8025SOL    HW124974   3.290   2.123   4.693  0.2721  0.6705  1.2863
 8025SOL    HW224975   3.169   2.162   4.795 -1.2604 -0.6848  0.0401
 8026SOL     OW24976   1.867   6.802   1.539 -0.2678 -0.3936  0.2850
 8026SOL    HW124977   1.913   6.787   1.452  1.0731  0.7014  0.7744
 8026SOL    HW224978   1.853   6.714   1.585  1.1496 -0.7827  0.0133
 8027SOL     OW24979   3.411   3.268   4.175 -0.7946 -0.4179  0.7455
 8027SOL    HW124980   3.342   3.339   4.187 -1.2335 -0.5774 -0.7311
 8027SOL    HW224981   3.475   3.295   4.104 -0.8778 -1.4223  0.2774
 8028SOL     OW24982   1.008   5.537   3.852 -0.1455  0.7681  0.9938
 8028SOL    HW124983   1.058   5.599   3.913 -0.4670 -0.7756  2.9360
 8028SOL    HW224984   0.911   5.540   3.873 -0.4998  1.4354 -0.6274
 8029SOL     OW24985   4.674   0.378   5.950  0.3994  0.4814  0.7133
 8029SOL    HW124986   4.641   0.335   6.034  1.1464  0.1233  0.8335
 8029SOL    HW224987   4.602   0.375   5.880 -0.5126  1.4963  1.5723
 8030SOL     OW24988   6.914   4.677   2.785 -0.4441 -0.4877  0.8528
 8030SOL    HW124989   6.948   4.602   2.841 -3.0001 -1.1975  1.5737
 8030SOL    HW224990   6.843   4.644   2.723 -0.4989  1.0485  0.0386
 8031SOL     OW24991   2.401   2.493   4.189  0.2824  0.3717 -0.3622
 8031SOL    HW124992   2.399   2.527   4.283  1.3762  2.0006 -0.8753
 8031SOL    HW224993   2.317   2.519   4.142 -0.5365 -0.9730  0.2997
 8032SOL     OW24994   3.847   4.946   6.907 -1.1176 -0.4549 -0.1174
 8032SOL    HW124995   3.828   4.875   6.975  0.7822 -1.4430 -0.5475
 8032SOL    HW224996   3.868   4.904   6.819 -0.6145  0.6589 -0.5511
 8033SOL     OW24997   6.410   1.611   2.531 -0.0720  0.3897  0.1341
 8033SOL    HW124998   6.459   1.659   2.458  1.1524 -0.9766  0.0091
 8033SOL    HW224999   6.312   1.627   2.522  0.2703  2.7832  0.0749
 8034SOL     OW25000   5.616   3.833   4.240 -0.3688 -0.0337  0.3591
 8034SOL    HW125001   5.631   3.771   4.163 -0.6102 -0.8220  0.9311
 8034SOL    HW225002   5.634   3.784   4.325 -0.3404  0.7571  0.8153
 8035SOL     OW25003   5.933   6.840   1.668  0.3115 -0.8442  0.0214
 8035SOL    HW125004   5.882   6.778   1.728 -0.5105 -0.0975  0.1181
 8035SOL    HW225005   5.900   6.829   1.574  0.1863 -0.5880  0.0337
 8036SOL     OW25006   2.868   5.994   0.781  0.0608  0.3033 -0.2571
 8036SOL    HW125007   2.964   6.019   0.795  0.4009 -0.6972 -0.6880
 8036SOL    HW225008   2.828   6.053   0.711 -0.0117  1.5479  0.7990
 8037SOL     OW25009   1.603   4.091   4.906  0.2192 -0.3784 -0.4532
 8037SOL    HW125010   1.519   4.083   4.961  0.4818 -1.0148 -0.1307
 8037SOL    HW225011   1.676   4.038   4.949  0.9265  0.5570 -0.4797
 8038SOL     OW25012   0.028   2.103   2.248  0.4603  0.2001  0.0947
 8038SOL    HW125013   0.072   2.173   2.192 -0.5659  0.4871 -0.3915
 8038SOL    HW225014  -0.046   2.145   2.301 -0.5195 -0.6053 -0.6113
 8039SOL     OW25015   3.639   0.598   5.496  0.0582  0.1933 -0.1777
 8039SOL    HW125016   3.652   0.510   5.451 -0.9830  0.1988 -0.5027
 8039SOL    HW225017   3.698   0.667   5.453  2.1948 -0.6685  1.1793
 8040SOL     OW25018   2.434   5.323   6.214  0.8725  0.2912  0.5479
 8040SOL    HW125019   2.401   5.238   6.257  1.7921 -1.8011 -2.5095
 8040SOL    HW225020   2.532   5.332   6.231  1.0541 -0.0561 -0.2584
 8041SOL     OW25021   5.411   3.990   1.473 -0.6242 -0.9044 -0.2486
 8041SOL    HW125022   5.419   4.040   1.387  0.4167 -1.3240 -0.4195
 8041SOL    HW225023   5.486   4.017   1.534 -1.6862 -0.1638  0.7786
 8042SOL     OW25024   5.108   2.831   3.056 -0.1329 -0.6098 -0.1252
 8042SOL    HW125025   5.200   2.797   3.034  0.0779 -1.2268  1.5374
 8042SOL    HW225026   5.047   2.754   3.075 -1.0721 -0.2080 -1.3696
 8043SOL     OW25027   1.456   3.215   2.371 -0.5089 -0.1731 -0.2363
 8043SOL    HW125028   1.511   3.295   2.394 -1.9167  1.2059 -1.4058
 8043SOL    HW225029   1.407   3.232   2.285 -2.4110 -1.4693  0.5253
 8044SOL     OW25030   4.311   2.334   4.103 -0.2576 -0.1482  0.0649
 8044SOL    HW125031   4.386   2.361   4.164 -0.1632 -1.6266  0.6432
 8044SOL    HW225032   4.289   2.410   4.042  1.5120  0.4313  0.0799
 8045SOL     OW25033   5.150   1.849   5.244  0.3221  0.6996  0.1613
 8045SOL    HW125034   5.116   1.835   5.151 -1.1443  2.4856  0.3826
 8045SOL    HW225035   5.248   1.868   5.242  0.8705 -1.8099 -0.7457
 8046SOL     OW25036   3.473   3.130   2.550  0.2733 -0.2247 -0.0184
 8046SOL    HW125037   3.548   3.080   2.506  0.4666  0.2050 -0.1821
 8046SOL    HW225038   3.390   3.075   2.545  0.3361 -0.2747 -0.7538
 8047SOL     OW25039   0.534   0.351   3.079  0.1801 -0.1651  0.5069
 8047SOL    HW125040   0.569   0.264   3.046 -3.1464 -0.9696 -1.3697
 8047SOL    HW225041   0.548   0.422   3.010 -0.7374 -0.2360  0.2257
 8048SOL     OW25042   0.153   2.874   2.206  0.1484 -0.0280  1.0842
 8048SOL    HW125043   0.095   2.956   2.210  0.3890  0.1710  0.6558
 8048SOL    HW225044   0.099   2.794   2.231 -0.9862 -0.1771 -1.5292
 8049SOL     OW25045   4.966   5.242   2.143 -0.1716  0.1705  1.1490
 8049SOL    HW125046   4.872   5.221   2.117 -0.5410  1.1278  1.6727
 8049SOL    HW225047   5.027   5.169   2.111 -1.3005 -1.3237  2.3175
 8050SOL     OW25048   3.289   2.519   0.873  0.1409  0.2130  0.2929
 8050SOL    HW125049   3.309   2.462   0.793  0.1927  0.3676  0.1948
 8050SOL    HW225050   3.212   2.481   0.924 -0.4269  0.5639 -0.2881
 8051SOL     OW25051   5.569   2.411   0.286 -0.2448 -0.2251  0.4507
 8051SOL    HW125052   5.518   2.470   0.225  2.0188  1.4343  0.0144
 8051SOL    HW225053   5.526   2.321   0.291 -2.8274  0.9014 -0.2298
 8052SOL     OW25054   2.627   5.738   4.022  0.1651 -0.2593 -0.0262
 8052SOL    HW125055   2.719   5.768   3.996  0.5933 -1.6908 -0.2807
 8052SOL    HW225056   2.613   5.644   3.990 -2.3017  0.7250 -2.1452
 8053SOL     OW25057   4.602   3.252   1.579  0.3559  0.5042  0.0900
 8053SOL    HW125058   4.580   3.227   1.484  0.7342 -1.6647  0.5236
 8053SOL    HW225059   4.546   3.197   1.641  1.5792  0.4169  1.1331
 8054SOL     OW25060   2.386   3.509   5.997 -0.5964  0.2545 -0.0650
 8054SOL    HW125061   2.300   3.547   5.963 -0.6265  1.2589  1.0659
 8054SOL    HW225062   2.450   3.583   6.014 -0.1330 -0.3341  0.8072
 8055SOL     OW25063   6.627   1.938   6.521 -0.0213 -0.4969  0.0773
 8055SOL    HW125064   6.529   1.949   6.533  0.0646 -1.2001  1.6178
 8055SOL    HW225065   6.662   2.014   6.465 -1.1246  0.9138  1.2135
 8056SOL     OW25066   6.948   6.723   5.718  0.3922 -0.0794 -0.0386
 8056SOL    HW125067   6.893   6.790   5.768  2.2279  0.7817  0.8998
 8056SOL    HW225068   6.942   6.635   5.764 -2.2267 -0.7326 -1.4091
 8057SOL     OW25069   2.571   5.316   4.540  0.6431  0.6558  0.3504
 8057SOL    HW125070   2.616   5.255   4.474  0.4075 -1.6532  2.1878
 8057SOL    HW225071   2.482   5.344   4.505 -0.0475 -1.5858  0.1602
 8058SOL     OW25072   0.769   5.215   4.212 -0.3252 -0.2689 -0.4386
 8058SOL    HW125073   0.743   5.172   4.125 -1.2575 -0.5390 -0.0352
 8058SOL    HW225074   0.717   5.299   4.224  2.2166  1.6739 -1.7258
 8059SOL     OW25075   3.683   5.373   5.311 -0.2038  0.9150 -0.4746
 8059SOL    HW125076   3.740   5.379   5.392  1.8661  0.6126 -1.8511
 8059SOL    HW225077   3.739   5.380   5.229 -1.9737 -0.6382 -1.9295
 8060SOL     OW25078   0.117   2.583   6.068 -0.4566  0.1973  0.5257
 8060SOL    HW125079   0.134   2.589   6.166 -1.3675 -0.8767  0.7753
 8060SOL    HW225080   0.163   2.501   6.031 -1.9672 -0.6887  0.5234
 8061SOL     OW25081   4.079   3.599   6.704 -0.1666  0.0080  0.3028
 8061SOL    HW125082   4.062   3.528   6.771  0.4782 -0.5025 -0.0574
 8061SOL    HW225083   3.996   3.617   6.652 -0.7419  0.5791  1.3759
 8062SOL     OW25084   2.688   4.331   1.703  0.1243  0.0491 -0.3604
 8062SOL    HW125085   2.758   4.391   1.740  0.5371  0.9332 -2.4284
 8062SOL    HW225086   2.603   4.383   1.691 -1.2159 -1.1998  2.8510
 8063SOL     OW25087   6.135   1.262   6.589 -0.1337  0.1752 -0.2340
 8063SOL    HW125088   6.181   1.173   6.588  0.1406  0.3168 -0.2505
 8063SOL    HW225089   6.106   1.285   6.496 -0.3919  0.0078 -0.1967
 8064SOL     OW25090   1.031   3.195   5.752  0.0895 -0.4926  0.0543
 8064SOL    HW125091   0.958   3.214   5.817  1.1205 -1.0666  1.4158
 8064SOL    HW225092   1.104   3.145   5.797  1.4579  0.2897 -1.1989
 8065SOL     OW25093   5.213   2.185   4.302 -0.7233 -0.4812  0.2972
 8065SOL    HW125094   5.293   2.141   4.343 -0.1284  0.9831  0.7464
 8065SOL    HW225095   5.201   2.276   4.341 -0.9664  0.4253 -1.7558
 8066SOL     OW25096   5.477   2.617   4.329  0.4526 -0.2830  0.1298
 8066SOL    HW125097   5.545   2.600   4.258  2.1744  0.6649  1.4698
 8066SOL    HW225098   5.463   2.715   4.339 -2.0046 -0.4590 -0.8472
 8067SOL     OW25099   4.250   6.893   2.501 -0.1480  0.0061  0.0728
 8067SOL    HW125100   4.309   6.965   2.538 -0.2668  0.4819 -0.6487
 8067SOL    HW225101   4.306   6.822   2.458 -0.0935  0.8867 -1.3939
 8068SOL     OW25102   1.314   5.828   1.772  0.1014 -0.5274  0.0225
 8068SOL    HW125103   1.316   5.728   1.781 -0.5241 -0.6894 -1.2807
 8068SOL    HW225104   1.407   5.864   1.778  0.3721 -1.2276  0.1603
 8069SOL     OW25105   2.515   1.078   2.756  0.1957 -0.0698  0.2582
 8069SOL    HW125106   2.608   1.042   2.762 -0.3284 -1.6846 -0.7057
 8069SOL    HW225107   2.471   1.072   2.846  1.3524  1.7747  1.0065
 8070SOL     OW25108   3.178   0.390   2.574  0.2670  0.1897  0.1061
 8070SOL    HW125109   3.083   0.403   2.547  0.2252 -0.4502 -0.0705
 8070SOL    HW225110   3.237   0.446   2.515 -0.0557  1.3643  0.8594
 8071SOL     OW25111   1.278   6.106   4.905  0.3317  0.4617  0.0641
 8071SOL    HW125112   1.215   6.120   4.828 -0.5042  0.6144  0.7522
 8071SOL    HW225113   1.308   6.011   4.907  0.4831  0.4914 -0.5349
 8072SOL     OW25114   0.556   4.444   2.407  0.1179  0.4385  0.5133
 8072SOL    HW125115   0.595   4.388   2.334  0.6006 -0.6413  1.5627
 8072SOL    HW225116   0.568   4.397   2.495  0.3420  2.1156  1.4105
 8073SOL     OW25117   2.848   2.332   6.376  0.7495 -0.1884 -0.3090
 8073SOL    HW125118   2.909   2.404   6.343 -1.5815  0.7418 -3.1189
 8073SOL    HW225119   2.871   2.246   6.331  1.5238 -0.4383  0.5571
 8074SOL     OW25120   2.222   4.882   2.749 -0.1908 -0.3096  0.6297
 8074SOL    HW125121   2.320   4.903   2.741  0.1768 -1.6783  1.2951
 8074SOL    HW225122   2.182   4.874   2.658  0.7219 -1.4838  0.3006
 8075SOL     OW25123   2.190   6.372   0.581  0.1106  0.0405  0.2330
 8075SOL    HW125124   2.235   6.435   0.519 -0.1743 -0.1727 -0.1935
 8075SOL    HW225125   2.235   6.283   0.579  0.1474  0.0539  0.3908
 8076SOL     OW25126   6.431   3.464   4.311 -0.2800  0.0571  0.2535
 8076SOL    HW125127   6.385   3.388   4.357 -0.5031 -0.5452 -0.9262
 8076SOL    HW225128   6.529   3.444   4.302 -0.5464 -0.7291 -1.2298
 8077SOL     OW25129   0.068   0.147   2.421  0.6679  0.7165 -0.8965
 8077SOL    HW125130   0.080   0.124   2.517 -1.7262 -1.7920 -1.0632
 8077SOL    HW225131   0.118   0.231   2.400  3.3840 -0.0131  1.8601
 8078SOL     OW25132   6.839   1.767   4.241  0.1498 -0.5685  0.3749
 8078SOL    HW125133   6.858   1.861   4.211  0.5880 -0.6808  0.2950
 8078SOL    HW225134   6.913   1.736   4.300 -1.2228  0.0645  2.5584
 8079SOL     OW25135   5.411   3.113   6.075  0.2969  0.6501 -0.0009
 8079SOL    HW125136   5.426   3.049   6.150  0.4910  1.9794  1.1406
 8079SOL    HW225137   5.316   3.144   6.075 -0.2729 -0.9201 -1.6463
 8080SOL     OW25138   3.446   1.447   2.651 -0.4226 -0.3915 -0.6976
 8080SOL    HW125139   3.362   1.500   2.646  0.2347  0.6349 -1.1639
 8080SOL    HW225140   3.497   1.472   2.734 -1.0168 -1.7093  0.0925
 8081SOL     OW25141   6.786   6.133   5.664  0.0436  0.0625  0.4196
 8081SOL    HW125142   6.884   6.116   5.680  0.0845 -0.4147 -0.3296
 8081SOL    HW225143   6.776   6.199   5.590 -0.2251 -2.8365 -2.3023
 8082SOL     OW25144   4.734   4.654   0.570 -0.0848  0.6109 -0.5743
 8082SOL    HW125145   4.683   4.637   0.486  0.1656  1.3576 -0.8887
 8082SOL    HW225146   4.790   4.573   0.591 -2.4431 -0.8214  0.5894
 8083SOL     OW25147   3.439   0.902   5.003 -0.2995 -0.4900  0.3414
 8083SOL    HW125148   3.495   0.855   5.071  0.9027 -0.2890 -0.4805
 8083SOL    HW225149   3.476   0.994   4.988 -2.7040  0.8764  2.0655
 8084SOL     OW25150   0.051   6.066   2.295  0.1829  0.5209  0.2791
 8084SOL    HW125151   0.070   6.082   2.198 -1.0451  1.2684  0.1345
 8084SOL    HW225152   0.132   6.086   2.349  0.2949  2.0741 -0.4246
 8085SOL     OW25153   0.159   1.973   1.315  0.4374 -0.7432 -0.3585
 8085SOL    HW125154   0.066   1.954   1.283 -0.8130  1.0206  1.8873
 8085SOL    HW225155   0.170   1.938   1.408  0.6077  2.3794  0.9201
 8086SOL     OW25156   6.280   1.332   0.993  0.1380 -0.4639  0.2849
 8086SOL    HW125157   6.316   1.349   1.085  0.5709  0.5143 -0.0523
 8086SOL    HW225158   6.356   1.324   0.928 -0.1715 -1.0196 -0.0150
 8087SOL     OW25159   2.500   0.946   3.957  0.3006 -0.0517 -1.1529
 8087SOL    HW125160   2.410   0.983   3.932 -0.3244 -0.7955 -0.1237
 8087SOL    HW225161   2.520   0.968   4.052  0.5186 -1.1696 -0.9239
 8088SOL     OW25162   3.616   3.993   4.489 -0.3740  0.5981 -0.0687
 8088SOL    HW125163   3.670   3.949   4.417 -1.0222 -0.4329  0.0589
 8088SOL    HW225164   3.548   4.054   4.448  0.8489  1.9352 -0.2323
 8089SOL     OW25165   1.547   3.487   0.704 -1.1407 -0.0758 -0.2588
 8089SOL    HW125166   1.467   3.466   0.761 -0.2787 -2.4247  0.2055
 8089SOL    HW225167   1.553   3.418   0.631  0.5221  0.0055 -0.2162
 8090SOL     OW25168   3.554   2.136   3.804 -0.0436 -0.1475  0.6071
 8090SOL    HW125169   3.482   2.160   3.739  0.0058  1.5373  1.1290
 8090SOL    HW225170   3.514   2.121   3.894  0.2228  0.5944  0.8552
 8091SOL     OW25171   1.668   0.461   4.900 -0.2024  0.0151 -0.0591
 8091SOL    HW125172   1.755   0.485   4.944  0.5412 -1.3397 -0.7377
 8091SOL    HW225173   1.610   0.542   4.896  0.2111  0.4901  2.2218
 8092SOL     OW25174   1.688   1.623   2.250  0.0932  0.0722  0.1853
 8092SOL    HW125175   1.692   1.531   2.291 -1.3514 -0.3310 -0.5394
 8092SOL    HW225176   1.695   1.615   2.151  0.5434  0.8101  0.1541
 8093SOL     OW25177   4.627   0.949   0.843  0.0701 -0.0861  0.0193
 8093SOL    HW125178   4.617   0.869   0.901 -0.1503  0.6089  0.9724
 8093SOL    HW225179   4.688   0.928   0.766 -2.1260 -1.9972 -1.3294
 8094SOL     OW25180   4.060   1.153   6.262  0.0599 -0.1584  0.0992
 8094SOL    HW125181   4.088   1.163   6.166 -1.7100 -0.0171 -0.4320
 8094SOL    HW225182   4.123   1.205   6.320 -0.9638  2.9905 -1.3553
 8095SOL     OW25183   6.478   1.561   1.028 -0.0603  0.2570 -0.0837
 8095SOL    HW125184   6.491   1.559   1.127 -1.5952 -2.1448  0.1758
 8095SOL    HW225185   6.399   1.619   1.006 -0.0277  0.3973  0.1725
 8096SOL     OW25186   5.168   2.195   6.528 -0.3053  0.7844  0.9210
 8096SOL    HW125187   5.205   2.143   6.451 -1.7363  0.1371  0.6279
 8096SOL    HW225188   5.090   2.147   6.567  0.3017  1.1760  2.7228
 8097SOL     OW25189   3.102   5.844   3.670 -0.3942 -0.7090 -0.4245
 8097SOL    HW125190   3.023   5.790   3.696 -1.2426  0.3087 -0.8190
 8097SOL    HW225191   3.173   5.784   3.633 -0.9528 -1.6360 -0.0316
 8098SOL     OW25192   3.699   1.396   2.393  0.2677  0.1918  0.4292
 8098SOL    HW125193   3.773   1.428   2.453  2.2232  0.1519 -1.8343
 8098SOL    HW225194   3.684   1.463   2.320 -1.5313 -0.1227  0.4607
 8099SOL     OW25195   2.019   2.225   5.666  0.1904 -0.3170  0.4174
 8099SOL    HW125196   2.107   2.267   5.688 -0.2503  0.6107  0.4401
 8099SOL    HW225197   1.967   2.285   5.605 -0.1067 -1.2166 -0.2412
 8100SOL     OW25198   6.218   4.678   4.548  0.1776  0.2973 -0.5729
 8100SOL    HW125199   6.142   4.638   4.496  1.1440 -1.4018 -0.7491
 8100SOL    HW225200   6.214   4.778   4.541 -1.7372  0.2347 -0.9771
 8101SOL     OW25201   6.572   1.309   4.193 -0.0120 -0.2562  0.2332
 8101SOL    HW125202   6.633   1.378   4.154  0.3049 -0.4989  0.3026
 8101SOL    HW225203   6.484   1.351   4.214  0.2441  0.1747  0.4547
 8102SOL     OW25204   4.396   4.476   1.781  0.2558 -0.0435 -0.3831
 8102SOL    HW125205   4.397   4.379   1.808  1.1742 -0.0698 -0.4716
 8102SOL    HW225206   4.332   4.488   1.705  0.5637 -0.7061 -0.7648
 8103SOL     OW25207   2.418   2.190   5.406 -0.1037  0.0590  0.1350
 8103SOL    HW125208   2.425   2.217   5.310  0.0350  0.0237  0.1344
 8103SOL    HW225209   2.407   2.091   5.412 -0.7914  0.1313  0.1303
 8104SOL     OW25210   1.405   2.029   5.552  0.0651 -0.3987  0.9119
 8104SOL    HW125211   1.357   2.114   5.572  2.8670  1.9045 -1.2636
 8104SOL    HW225212   1.500   2.037   5.583  1.6009 -0.8875 -3.0789
 8105SOL     OW25213   3.577   2.910   3.476 -0.5065  0.2225  0.2646
 8105SOL    HW125214   3.492   2.922   3.526 -1.0990 -0.7965 -0.4714
 8105SOL    HW225215   3.571   2.956   3.388 -0.4353 -0.1720  0.0523
 8106SOL     OW25216   1.336   2.822   0.475  0.4878  0.0601  0.1175
 8106SOL    HW125217   1.290   2.803   0.561  2.8363 -0.0007  1.4379
 8106SOL    HW225218   1.355   2.920   0.468  2.6061 -0.2445  0.9670
 8107SOL     OW25219   2.163   0.323   0.551  0.2180 -0.8380 -0.0384
 8107SOL    HW125220   2.133   0.409   0.510 -0.2998 -0.1725  1.6585
 8107SOL    HW225221   2.263   0.320   0.554  0.2362 -0.1240  0.2151
 8108SOL     OW25222   5.586   6.048   6.670  1.0618  0.6075  0.0705
 8108SOL    HW125223   5.491   6.036   6.643  1.1069 -0.8622  0.5019
 8108SOL    HW225224   5.590   6.090   6.761  0.8226  0.4315  0.1632
 8109SOL     OW25225   6.347   2.264   6.905  0.5323 -0.0871  0.2266
 8109SOL    HW125226   6.361   2.333   6.834 -0.5687 -0.0937 -0.0157
 8109SOL    HW225227   6.313   2.179   6.864 -0.3556 -0.0123  0.7685
 8110SOL     OW25228   5.896   0.818   6.553 -0.3423 -0.4827  0.1136
 8110SOL    HW125229   5.834   0.780   6.484 -1.0007 -0.7043  0.8137
 8110SOL    HW225230   5.891   0.763   6.636  0.6439 -0.3733  0.2544
 8111SOL     OW25231   6.377   6.914   6.459  0.0968 -0.1895 -0.0845
 8111SOL    HW125232   6.307   6.978   6.427  0.1672 -0.4286 -0.7320
 8111SOL    HW225233   6.464   6.963   6.471 -0.0416 -0.0079  0.1782
 8112SOL     OW25234   4.857   0.752   4.954  0.0924  0.3134 -0.0899
 8112SOL    HW125235   4.808   0.818   5.011 -1.0603  0.2224 -0.9418
 8112SOL    HW225236   4.915   0.695   5.012  0.3256  1.3914  0.7761
 8113SOL     OW25237   5.633   3.077   2.517 -0.1539  0.0486 -0.3440
 8113SOL    HW125238   5.716   3.043   2.472 -0.7003 -0.1466 -1.2256
 8113SOL    HW225239   5.624   3.175   2.502  0.7043  0.3793  1.0534
 8114SOL     OW25240   3.969   4.308   5.238  0.4677  0.3859 -0.8108
 8114SOL    HW125241   3.915   4.282   5.158 -1.1208  1.0483  0.0115
 8114SOL    HW225242   4.062   4.330   5.209 -0.2925  1.4550 -2.6125
 8115SOL     OW25243   4.537   1.330   1.915 -0.3401  0.0489 -0.1441
 8115SOL    HW125244   4.571   1.350   1.824  2.2107 -1.2346  0.4238
 8115SOL    HW225245   4.499   1.237   1.917 -1.4264  0.4768 -0.1193
 8116SOL     OW25246   6.996   2.775   4.299  0.1354 -0.1002 -0.2885
 8116SOL    HW125247   6.912   2.749   4.250 -0.1292  1.9462 -0.9918
 8116SOL    HW225248   7.057   2.824   4.237  1.7949 -1.3460  0.2818
 8117SOL     OW25249   0.059   0.950   5.379 -0.1567 -0.4548 -0.1385
 8117SOL    HW125250   0.048   0.937   5.280 -0.2940 -1.1405 -0.0437
 8117SOL    HW225251   0.005   1.028   5.409  0.9204  0.5815 -0.8109
 8118SOL     OW25252   4.669   5.109   1.152  0.2826 -0.0270 -0.7468
 8118SOL    HW125253   4.742   5.177   1.157  1.1429 -1.0152  2.8182
 8118SOL    HW225254   4.706   5.021   1.123 -0.1915  0.1910 -2.0974
 8119SOL     OW25255   1.141   4.660   4.918  0.0019  0.2588  0.1424
 8119SOL    HW125256   1.103   4.623   4.833 -1.5255  2.8759 -0.4194
 8119SOL    HW225257   1.174   4.585   4.975  0.1886 -1.6590 -2.3061
 8120SOL     OW25258   1.193   5.092   1.211  0.0254 -0.4419  0.1104
 8120SOL    HW125259   1.195   5.044   1.299 -0.9877  2.2698  1.7202
 8120SOL    HW225260   1.283   5.131   1.192  0.0192 -0.3024  0.3700
 8121SOL     OW25261   6.309   1.972   0.819  0.4830  0.3099  0.2916
 8121SOL    HW125262   6.350   2.057   0.852  1.5327  0.0246 -0.2145
 8121SOL    HW225263   6.371   1.929   0.754 -0.4370 -0.3911 -0.1497
 8122SOL     OW25264   2.744   6.400   3.056 -0.5674 -0.8445 -0.1933
 8122SOL    HW125265   2.645   6.393   3.045 -0.4549 -0.4034 -1.6857
 8122SOL    HW225266   2.769   6.369   3.147 -2.2457  0.5518  0.8266
 8123SOL     OW25267   0.852   3.248   0.551  0.6789 -0.1817 -0.4223
 8123SOL    HW125268   0.764   3.206   0.577  1.3459 -0.8248  0.8818
 8123SOL    HW225269   0.878   3.316   0.619  0.1233  1.6981 -1.9792
 8124SOL     OW25270   0.316   0.427   4.185 -0.1168  0.1161 -0.6585
 8124SOL    HW125271   0.263   0.478   4.252  0.3861 -1.1660  0.7647
 8124SOL    HW225272   0.404   0.471   4.171  0.2636 -0.2357  0.4705
 8125SOL     OW25273   4.890   0.376   6.571  0.2894  0.0086 -0.4009
 8125SOL    HW125274   4.832   0.391   6.491  1.3131  1.1055 -0.9661
 8125SOL    HW225275   4.859   0.294   6.620 -0.6729 -0.3831 -1.6217
 8126SOL     OW25276   3.027   3.523   0.407 -0.1679 -0.1163  0.2500
 8126SOL    HW125277   3.045   3.589   0.480 -2.0136 -2.0151  2.6215
 8126SOL    HW225278   3.099   3.527   0.339  2.7381  0.5209  3.1368
 8127SOL     OW25279   4.492   4.826   2.012  0.1650  0.4855 -0.0995
 8127SOL    HW125280   4.415   4.763   2.026  0.5742  0.1139  0.5271
 8127SOL    HW225281   4.535   4.846   2.101  0.3478  1.2603 -0.3525
 8128SOL     OW25282   6.557   5.738   3.903 -0.1818  0.0815 -0.0692
 8128SOL    HW125283   6.600   5.822   3.871 -2.1763  0.4126 -2.1733
 8128SOL    HW225284   6.503   5.757   3.984 -0.6203  0.8518 -0.5307
 8129SOL     OW25285   6.187   0.391   0.918 -0.1097 -0.2515 -0.3012
 8129SOL    HW125286   6.160   0.462   0.852  0.3441 -0.1904 -0.4252
 8129SOL    HW225287   6.120   0.317   0.916  0.3774 -0.6790 -1.5016
 8130SOL     OW25288   4.376   0.399   4.714 -0.2783  0.0038 -0.1319
 8130SOL    HW125289   4.321   0.442   4.786  0.3292  0.8991 -0.1833
 8130SOL    HW225290   4.321   0.330   4.667 -0.9885  0.0814  0.5626
 8131SOL     OW25291   1.851   3.664   6.286  0.3784  0.4515  0.0861
 8131SOL    HW125292   1.885   3.579   6.245 -0.9646  0.0327 -0.2078
 8131SOL    HW225293   1.879   3.667   6.382  0.1506 -0.5131  0.1979
 8132SOL     OW25294   3.370   6.489   1.382 -0.2808  0.3267  0.2255
 8132SOL    HW125295   3.277   6.502   1.418 -0.7785 -1.2216 -0.4280
 8132SOL    HW225296   3.369   6.418   1.312  1.4887  0.0265  0.4637
 8133SOL     OW25297   3.728   1.952   1.956  0.0447 -0.5203  0.0045
 8133SOL    HW125298   3.731   2.021   2.028 -0.8528 -1.7320  1.2313
 8133SOL    HW225299   3.649   1.892   1.970 -1.2040  0.2330 -2.9570
 8134SOL     OW25300   0.174   6.403   5.957  0.2733 -0.1829  0.3635
 8134SOL    HW125301   0.126   6.400   5.870 -0.7378 -1.1466  0.9274
 8134SOL    HW225302   0.158   6.492   6.001 -2.2604 -0.9415  1.1780
 8135SOL     OW25303   6.990   1.959   0.106  0.0339 -0.2656 -0.3543
 8135SOL    HW125304   7.000   2.056   0.127  0.1796 -0.3531 -0.0020
 8135SOL    HW225305   7.018   1.942   0.012  0.7744 -0.0858 -0.1772
 8136SOL     OW25306   6.823   3.085   5.577  0.1863 -0.1630 -0.2207
 8136SOL    HW125307   6.729   3.116   5.593  0.0102 -0.9395  0.3014
 8136SOL    HW225308   6.833   3.058   5.481 -0.4128 -1.0339 -0.0497
 8137SOL     OW25309   2.569   5.490   6.835  0.8928  0.0652 -0.3353
 8137SOL    HW125310   2.631   5.454   6.765  0.8018 -0.2195 -0.2733
 8137SOL    HW225311   2.511   5.416   6.868  1.0125  0.1754  0.1233
 8138SOL     OW25312   6.636   2.358   3.272  0.5413  0.5333 -0.5207
 8138SOL    HW125313   6.647   2.452   3.305  0.5292 -0.0345  1.1416
 8138SOL    HW225314   6.704   2.341   3.200 -0.4126  2.2528 -1.9443
 8139SOL     OW25315   3.230   6.678   3.850  0.1695  0.2929 -0.3333
 8139SOL    HW125316   3.226   6.613   3.925 -1.7544  0.5369 -0.1672
 8139SOL    HW225317   3.259   6.632   3.766  0.8264 -0.3019  0.2097
 8140SOL     OW25318   2.264   4.024   5.581 -0.3321 -0.1756 -0.3413
 8140SOL    HW125319   2.291   4.052   5.489  0.6209  0.7805  0.2101
 8140SOL    HW225320   2.201   4.091   5.620  0.7544  0.4342  0.4079
 8141SOL     OW25321   1.168   4.649   6.858  0.3621 -0.7423  0.6535
 8141SOL    HW125322   1.205   4.723   6.802 -1.0167 -0.6181 -0.1355
 8141SOL    HW225323   1.110   4.687   6.930 -0.4936 -1.0555  0.1352
 8142SOL     OW25324   5.617   6.425   3.650 -0.2689  0.1578  0.1759
 8142SOL    HW125325   5.691   6.432   3.583  0.3616 -2.0239  0.5651
 8142SOL    HW225326   5.591   6.517   3.681  2.0472  1.0053 -0.2182
 8143SOL     OW25327   3.733   2.089   2.288  0.2501  0.0590  0.4631
 8143SOL    HW125328   3.719   2.148   2.209  0.0963 -0.1415  0.3414
 8143SOL    HW225329   3.712   1.994   2.264  0.9342 -0.1167  0.5279
 8144SOL     OW25330   0.560   0.756   6.047  0.0598  0.4854  0.9120
 8144SOL    HW125331   0.597   0.809   5.970  1.7378 -2.1191 -0.2502
 8144SOL    HW225332   0.545   0.816   6.125 -1.9228  3.3288 -1.4229
 8145SOL     OW25333   1.750   4.777   6.439  0.5394  0.4369  0.5992
 8145SOL    HW125334   1.798   4.862   6.465  0.7750  0.8916 -1.2191
 8145SOL    HW225335   1.816   4.712   6.402  0.1190  0.0790  0.4764
 8146SOL     OW25336   2.536   3.490   5.338  0.4718 -0.2975  0.0928
 8146SOL    HW125337   2.618   3.546   5.354  0.9079 -0.7682 -0.4534
 8146SOL    HW225338   2.456   3.538   5.373  0.9871  0.1509  0.6805
 8147SOL     OW25339   2.240   0.049   3.296 -0.3809 -0.3613 -0.0340
 8147SOL    HW125340   2.204   0.142   3.295 -0.7542 -0.4974  0.1830
 8147SOL    HW225341   2.336   0.049   3.270 -0.8304 -0.1134 -1.7896
 8148SOL     OW25342   4.414   0.768   6.969 -0.0443 -0.1537  0.0952
 8148SOL    HW125343   4.356   0.761   6.888  2.0208  0.3712 -1.5074
 8148SOL    HW225344   4.468   0.852   6.966  3.1493 -2.0235 -0.2078
 8149SOL     OW25345   3.243   0.203   2.357 -0.4902 -0.0831  0.1933
 8149SOL    HW125346   3.261   0.148   2.439 -0.2032 -2.1746 -1.1892
 8149SOL    HW225347   3.146   0.199   2.335 -0.5821  0.5532  0.4592
 8150SOL     OW25348   3.892   4.660   0.905 -0.2575  0.5631  0.0051
 8150SOL    HW125349   3.814   4.691   0.850 -0.6269 -0.1233  0.1388
 8150SOL    HW225350   3.977   4.677   0.855 -0.5581  0.3830 -0.5763
 8151SOL     OW25351   6.513   6.083   3.870 -0.2221  0.2236  0.1066
 8151SOL    HW125352   6.558   6.066   3.957 -0.7779  1.8279  0.7377
 8151SOL    HW225353   6.579   6.121   3.805 -0.1961  0.6260  0.3688
 8152SOL     OW25354   6.067   1.746   6.756  0.1338  0.7461  0.1474
 8152SOL    HW125355   5.976   1.736   6.798  0.6723  1.0196  1.4248
 8152SOL    HW225356   6.112   1.657   6.752 -0.0919  0.6489 -0.2634
 8153SOL     OW25357   2.192   0.053   2.201  0.3189  0.1444  0.1575
 8153SOL    HW125358   2.115   0.107   2.235 -0.8077 -2.0970  1.4095
 8153SOL    HW225359   2.159  -0.016   2.138  1.5340  0.0367 -0.3838
 8154SOL     OW25360   5.692   3.556   5.123 -0.4267 -0.0095 -0.9554
 8154SOL    HW125361   5.675   3.654   5.135  2.9534  0.4613  1.6765
 8154SOL    HW225362   5.711   3.537   5.027  1.3018  2.4660 -1.1957
 8155SOL     OW25363   6.736   0.662   3.752  0.1184 -0.2987 -0.0509
 8155SOL    HW125364   6.653   0.717   3.750  1.0123  1.1002 -0.1118
 8155SOL    HW225365   6.800   0.700   3.819  1.6926  0.1619 -1.7385
 8156SOL     OW25366   7.013   0.113   6.531  0.0485  0.3954 -0.4922
 8156SOL    HW125367   6.961   0.077   6.608 -0.7397 -0.3315 -1.3432
 8156SOL    HW225368   6.970   0.197   6.497 -0.9759 -0.5561 -1.6047
 8157SOL     OW25369   4.671   1.383   0.210  0.1817  0.4022  0.2678
 8157SOL    HW125370   4.711   1.414   0.296 -1.2861  1.0939  0.7490
 8157SOL    HW225371   4.622   1.460   0.167 -0.4837 -0.3449 -0.3464
 8158SOL     OW25372   4.054   0.430   2.399  0.4754  0.0212  0.1637
 8158SOL    HW125373   3.974   0.462   2.348  0.2467  0.1554  0.6010
 8158SOL    HW225374   4.095   0.507   2.448  0.2712 -0.2397  0.7534
 8159SOL     OW25375   1.584   0.597   3.980  1.1304 -0.2181 -0.3837
 8159SOL    HW125376   1.555   0.673   3.922  1.0489 -0.6753 -0.9511
 8159SOL    HW225377   1.523   0.520   3.966  2.4850 -1.1515 -1.5033
 8160SOL     OW25378   5.144   2.900   0.989  0.2038  0.7811 -0.1487
 8160SOL    HW125379   5.165   2.985   0.941  0.7133  0.6759 -0.1161
 8160SOL    HW225380   5.079   2.918   1.063 -1.5064  0.7658 -1.5746
 8161SOL     OW25381   5.687   5.021   6.591 -0.5524  0.1629 -0.0639
 8161SOL    HW125382   5.727   5.112   6.607  1.8579 -0.5156 -1.7656
 8161SOL    HW225383   5.677   5.005   6.493 -1.5712 -1.2017  0.2277
 8162SOL     OW25384   4.256   2.851   0.665 -0.1469  0.1693 -0.6882
 8162SOL    HW125385   4.301   2.827   0.580 -1.5350 -0.7887 -1.1916
 8162SOL    HW225386   4.165   2.810   0.667  0.7338 -1.9577  2.3396
 8163SOL     OW25387   0.439   1.312   2.352  0.2559  0.3672 -0.3429
 8163SOL    HW125388   0.412   1.216   2.348 -0.3686  0.5378 -0.3438
 8163SOL    HW225389   0.381   1.360   2.417 -0.2608  0.9991 -1.2547
 8164SOL     OW25390   6.463   4.158   2.500  0.2177  0.3470  0.5350
 8164SOL    HW125391   6.428   4.164   2.594 -0.5596 -0.7639  0.3264
 8164SOL    HW225392   6.547   4.104   2.500 -0.5957 -0.9542  0.4021
 8165SOL     OW25393   1.016   3.665   4.299 -0.1908  0.4731  0.7619
 8165SOL    HW125394   1.050   3.672   4.205  2.7458 -1.8660  1.5052
 8165SOL    HW225395   0.997   3.756   4.335  1.1353  1.6071 -1.2470
 8166SOL     OW25396   4.835   3.367   4.134  0.1944  0.1444  0.1658
 8166SOL    HW125397   4.859   3.463   4.146  1.5649 -0.1496 -0.0951
 8166SOL    HW225398   4.777   3.357   4.053 -0.3286  0.7924  0.4494
 8167SOL     OW25399   6.778   5.205   5.324  0.0668 -0.4870  0.2828
 8167SOL    HW125400   6.746   5.137   5.390  1.1933 -1.6997 -0.3643
 8167SOL    HW225401   6.722   5.202   5.242  0.1617 -0.6949  0.2256
 8168SOL     OW25402   6.842   5.944   1.198 -0.4077 -0.9031  0.3798
 8168SOL    HW125403   6.938   5.931   1.220  0.5028  0.6941 -2.2454
 8168SOL    HW225404   6.825   6.039   1.174 -2.3281 -1.4164 -0.5373
 8169SOL     OW25405   5.695   6.999   6.934  0.2908  0.2624 -0.4138
 8169SOL    HW125406   5.719   7.021   6.839  1.4510  2.5684  0.3551
 8169SOL    HW225407   5.775   7.011   6.992 -0.6925 -0.0232  1.0475
 8170SOL     OW25408   2.580   5.385   1.215 -0.1371 -0.1977  0.0278
 8170SOL    HW125409   2.533   5.374   1.302 -0.3420 -0.0581 -0.0636
 8170SOL    HW225410   2.623   5.299   1.189  3.0386  0.6130  2.0390
 8171SOL     OW25411   3.485   1.331   6.087  0.0254 -0.0937  0.4453
 8171SOL    HW125412   3.496   1.317   6.186  2.4915  0.0811  0.2592
 8171SOL    HW225413   3.541   1.264   6.038 -0.3806  0.4707 -0.8265
 8172SOL     OW25414   3.862   3.388   0.392  0.7702 -0.2616 -0.1919
 8172SOL    HW125415   3.905   3.441   0.465  2.4804 -2.2794  0.3642
 8172SOL    HW225416   3.931   3.362   0.325 -0.2425 -0.8035 -1.0525
 8173SOL     OW25417   2.072   0.123   6.507  0.1458  0.4739  0.6546
 8173SOL    HW125418   1.980   0.084   6.518  0.8057 -0.9393  1.5746
 8173SOL    HW225419   2.090   0.140   6.411 -0.4389 -0.9343  0.2698
 8174SOL     OW25420   6.581   2.887   2.549 -0.1771 -0.1469  0.0760
 8174SOL    HW125421   6.569   2.880   2.648  0.0859  0.1965  0.1360
 8174SOL    HW225422   6.495   2.865   2.503 -0.3547 -0.1186  0.3896
 8175SOL     OW25423   2.681   3.799   0.247  0.1585 -0.2154  1.2238
 8175SOL    HW125424   2.745   3.868   0.282  0.7870  1.3065 -2.4104
 8175SOL    HW225425   2.608   3.845   0.197 -1.4247 -2.1429  1.6422
 8176SOL     OW25426   5.272   2.196   2.831 -0.7014 -0.8597 -0.0311
 8176SOL    HW125427   5.233   2.152   2.751  1.9682 -1.2391 -1.2281
 8176SOL    HW225428   5.284   2.294   2.813  0.8468 -1.1161 -0.5631
 8177SOL     OW25429   1.994   1.138   3.782 -0.4732  0.0790  0.8685
 8177SOL    HW125430   1.941   1.216   3.749 -0.2409 -0.4566 -0.8760
 8177SOL    HW225431   1.969   1.056   3.729  1.3386 -0.3974  0.6841
 8178SOL     OW25432   4.716   2.256   0.911  0.2948 -0.3410 -0.3327
 8178SOL    HW125433   4.802   2.246   0.960  0.8619 -0.2955 -1.2991
 8178SOL    HW225434   4.695   2.353   0.900  1.1511 -0.3022 -1.8313
 8179SOL     OW25435   2.283   4.107   4.167  0.1614 -0.2463 -0.3441
 8179SOL    HW125436   2.264   4.096   4.264  0.0719 -0.5276 -0.3929
 8179SOL    HW225437   2.343   4.187   4.153  1.0641 -0.8374  0.0522
 8180SOL     OW25438   0.691   3.767   1.353  0.2579  0.2200 -0.1472
 8180SOL    HW125439   0.727   3.857   1.379  0.9342 -0.5881  1.9145
 8180SOL    HW225440   0.746   3.696   1.396 -1.3493 -1.1580 -0.2895
 8181SOL     OW25441   6.565   5.641   1.226 -0.3280 -0.1193 -0.1531
 8181SOL    HW125442   6.565   5.731   1.181  0.5354 -0.6808 -1.3528
 8181SOL    HW225443   6.555   5.570   1.157 -0.1002 -0.9856  0.6862
 8182SOL     OW25444   2.913   3.703   2.467  0.2985  0.1039 -0.4300
 8182SOL    HW125445   2.874   3.736   2.381 -1.4730 -0.5107  0.0940
 8182SOL    HW225446   2.945   3.781   2.521  1.2305  0.5124 -1.5324
 8183SOL     OW25447   5.004   1.855   3.364 -0.1479  0.3383 -0.1452
 8183SOL    HW125448   5.065   1.926   3.331 -0.3159 -0.0004 -1.2356
 8183SOL    HW225449   4.933   1.837   3.295 -0.5239 -0.3915  0.4110
 8184SOL     OW25450   6.360   6.194   2.874  0.1968  0.2206 -0.1960
 8184SOL    HW125451   6.290   6.122   2.876  1.1923 -0.8339 -1.2560
 8184SOL    HW225452   6.326   6.271   2.820 -0.7488  0.4122  0.6450
 8185SOL     OW25453   6.200   3.488   6.781 -0.0033  0.7689 -0.5146
 8185SOL    HW125454   6.249   3.521   6.701 -1.4039  0.4721 -1.5390
 8185SOL    HW225455   6.228   3.394   6.801 -0.0103  0.6711 -0.9652
 8186SOL     OW25456   0.134   3.723   2.413 -0.1323  0.1241 -0.4251
 8186SOL    HW125457   0.062   3.677   2.360  0.6018 -1.8093  0.1932
 8186SOL    HW225458   0.214   3.664   2.419  1.3003  1.9845 -0.5516
 8187SOL     OW25459   3.962   5.488   0.560 -0.4131  0.2876  0.5321
 8187SOL    HW125460   3.876   5.473   0.609 -1.0074  1.9337  0.0601
 8187SOL    HW225461   3.943   5.532   0.472  0.9209  0.6786  0.4255
 8188SOL     OW25462   0.423   3.316   5.283  0.8916  0.0106 -0.2072
 8188SOL    HW125463   0.495   3.248   5.294  3.2039  2.4399  0.9823
 8188SOL    HW225464   0.414   3.368   5.368  1.1040  2.8092 -1.7735
 8189SOL     OW25465   1.017   0.903   0.988  0.1521 -0.4364 -0.6185
 8189SOL    HW125466   1.053   0.847   1.062  0.4220 -1.3158 -1.3942
 8189SOL    HW225467   0.921   0.924   1.006  0.1975 -0.6863 -0.0544
 8190SOL     OW25468   4.599   6.050   0.463  0.1977 -0.1600 -0.1395
 8190SOL    HW125469   4.570   5.973   0.407 -1.7191 -0.0548  0.6085
 8190SOL    HW225470   4.600   6.022   0.559 -0.9522  0.8172  0.1869
 8191SOL     OW25471   5.191   5.391   3.315  0.5008 -0.1752 -0.3054
 8191SOL    HW125472   5.159   5.484   3.294  1.7166  0.2402 -0.3991
 8191SOL    HW225473   5.113   5.333   3.335 -0.2854  0.8672 -0.2615
 8192SOL     OW25474   2.044   5.133   1.947 -0.1791 -0.1230 -0.1280
 8192SOL    HW125475   2.031   5.232   1.936 -1.1167 -0.1138  0.8548
 8192SOL    HW225476   2.086   5.115   2.036  0.2813 -0.5993 -0.4361
 8193SOL     OW25477   1.644   3.811   1.936 -0.2680  0.1108  0.3018
 8193SOL    HW125478   1.581   3.888   1.929 -0.7785  0.0772  3.2599
 8193SOL    HW225479   1.733   3.844   1.969 -0.5517 -0.5146  1.7934
 8194SOL     OW25480   0.676   1.466   1.711 -0.6095 -0.1652  0.8748
 8194SOL    HW125481   0.577   1.479   1.697 -0.3366 -0.3152 -1.5918
 8194SOL    HW225482   0.694   1.371   1.734 -0.7694 -1.2918 -2.9760
 8195SOL     OW25483   2.108   3.497   1.707  0.4823  0.0422 -0.2220
 8195SOL    HW125484   2.065   3.578   1.747  1.1168  0.3468 -0.1314
 8195SOL    HW225485   2.173   3.458   1.772  0.0800 -0.6302 -0.2132
 8196SOL     OW25486   6.967   1.021   3.621  0.4573 -0.0418  0.6030
 8196SOL    HW125487   6.980   1.042   3.524 -1.1471 -0.5986  0.2311
 8196SOL    HW225488   6.955   1.107   3.672 -3.3666  0.2685 -0.4833
 8197SOL     OW25489   5.803   5.390   0.035 -0.2032  0.3308  0.1416
 8197SOL    HW125490   5.874   5.334  -0.007  0.0832  0.0447  0.9931
 8197SOL    HW225491   5.843   5.475   0.069 -0.0139 -0.2904  1.5908
 8198SOL     OW25492   3.997   4.928   3.346  0.7176  0.4629 -0.1764
 8198SOL    HW125493   4.015   4.888   3.436  0.4125  0.0871 -0.2788
 8198SOL    HW225494   4.037   5.020   3.341  0.6697  0.5146  0.3669
 8199SOL     OW25495   2.431   1.036   6.296 -0.0223  0.0137  0.0461
 8199SOL    HW125496   2.433   0.999   6.203  1.2680 -0.2393  0.1643
 8199SOL    HW225497   2.437   1.136   6.292 -1.4287  0.1091 -0.1840
 8200SOL     OW25498   1.170   4.234   2.970  0.0368  0.4771 -0.4623
 8200SOL    HW125499   1.193   4.246   2.874  1.2602  0.9841 -0.1167
 8200SOL    HW225500   1.081   4.276   2.988 -0.0413  0.6827 -1.2901
 8201SOL     OW25501   2.261   1.036   2.659 -0.0400  0.2635  0.4012
 8201SOL    HW125502   2.237   1.074   2.570 -0.9037 -0.6617  0.2121
 8201SOL    HW225503   2.359   1.049   2.676  0.0465  0.8471 -0.4827
 8202SOL     OW25504   0.191   2.830   6.016  0.5425  0.0734 -0.1277
 8202SOL    HW125505   0.257   2.838   6.091  1.7072 -0.6113 -1.0511
 8202SOL    HW225506   0.144   2.742   6.023  0.0377  0.3622  0.2551
 8203SOL     OW25507   5.704   1.375   2.203 -0.3236  0.0098  0.1037
 8203SOL    HW125508   5.643   1.438   2.155  1.2398 -0.2758 -2.3724
 8203SOL    HW225509   5.789   1.421   2.226  0.3840 -0.8587 -0.7067
 8204SOL     OW25510   4.986   4.804   0.468 -0.1081 -0.1788  0.2622
 8204SOL    HW125511   4.897   4.779   0.505 -1.8077 -0.4910 -3.5587
 8204SOL    HW225512   5.027   4.875   0.525 -3.1811  0.5757  1.7438
 8205SOL     OW25513   0.214   4.953   4.332  0.0816  0.0074 -0.2398
 8205SOL    HW125514   0.150   5.007   4.276 -1.8445 -1.2870  0.6148
 8205SOL    HW225515   0.307   4.971   4.301 -0.8627 -1.1399 -4.3779
 8206SOL     OW25516   0.399   2.512   1.799 -0.3761  0.7220  0.3523
 8206SOL    HW125517   0.444   2.425   1.821 -0.0099  0.8242  0.0205
 8206SOL    HW225518   0.300   2.501   1.805 -0.3507  1.1276  3.6360
 8207SOL     OW25519   5.714   4.575   5.544  0.8941 -0.5154  0.6040
 8207SOL    HW125520   5.798   4.522   5.551 -0.5159 -2.9278  0.4104
 8207SOL    HW225521   5.635   4.513   5.538 -0.7607  1.5847 -1.5214
 8208SOL     OW25522   4.751   0.098   0.574 -0.5824  0.3886  0.5427
 8208SOL    HW125523   4.711   0.052   0.653 -0.3139  0.1925  0.5624
 8208SOL    HW225524   4.836   0.143   0.601 -0.2398 -0.0784  0.2612
 8209SOL     OW25525   1.717   5.605   6.855 -0.3477  0.3003  0.5841
 8209SOL    HW125526   1.711   5.671   6.781 -1.2571  1.3846  1.5850
 8209SOL    HW225527   1.628   5.559   6.867  0.1725 -0.8717  0.1276
 8210SOL     OW25528   2.668   4.661   0.856 -0.3206 -0.0206 -0.2705
 8210SOL    HW125529   2.656   4.563   0.844  0.5301 -0.1910  0.2541
 8210SOL    HW225530   2.683   4.682   0.952 -1.6840  0.7665 -0.1948
 8211SOL     OW25531   0.663   5.518   5.669  0.2419 -0.2506 -0.2959
 8211SOL    HW125532   0.717   5.591   5.710  2.1342 -2.1446  0.7578
 8211SOL    HW225533   0.722   5.459   5.613 -0.8130 -2.0481  0.3892
 8212SOL     OW25534   5.958   0.714   3.369 -0.4475  0.2812  0.4067
 8212SOL    HW125535   5.995   0.680   3.282 -1.0129  0.1397  0.2123
 8212SOL    HW225536   5.874   0.766   3.351 -0.4399  0.4476  0.8479
 8213SOL     OW25537   0.403   5.135   3.392  0.2183  0.4125 -0.0666
 8213SOL    HW125538   0.393   5.035   3.387 -0.9167  0.5757 -1.5973
 8213SOL    HW225539   0.475   5.164   3.329  1.1286  0.5108  0.9885
 8214SOL     OW25540   4.448   0.455   5.442 -0.3750 -0.5647 -0.1242
 8214SOL    HW125541   4.377   0.501   5.496 -0.4254  0.9192 -1.3810
 8214SOL    HW225542   4.469   0.510   5.361  0.9357 -1.8731 -0.7177
 8215SOL     OW25543   5.823   2.414   0.118  0.1623 -0.1768 -0.0486
 8215SOL    HW125544   5.755   2.386   0.186 -1.1276 -0.5565 -1.4220
 8215SOL    HW225545   5.886   2.480   0.158 -1.4246  0.7034  1.1220
 8216SOL     OW25546   5.858   5.875   2.542 -0.5967 -0.5169  0.4661
 8216SOL    HW125547   5.817   5.877   2.451 -1.8131  1.2663  1.0051
 8216SOL    HW225548   5.956   5.861   2.535 -0.2449  2.2104 -1.3222
 8217SOL     OW25549   6.599   6.525   3.219 -0.0628  0.0787 -0.2882
 8217SOL    HW125550   6.598   6.493   3.313 -1.4188 -0.2596 -0.3975
 8217SOL    HW225551   6.560   6.455   3.159 -0.1349  0.6785 -0.9608
 8218SOL     OW25552   2.358   4.648   1.389 -0.3418  0.0180  0.5196
 8218SOL    HW125553   2.321   4.741   1.387  0.2742  0.2953  1.2415
 8218SOL    HW225554   2.348   4.605   1.299 -0.4773  0.8475  0.1307
 8219SOL     OW25555   1.407   2.510   1.227  0.4939 -0.1047  0.0336
 8219SOL    HW125556   1.362   2.437   1.278 -0.7668 -0.3640 -1.3945
 8219SOL    HW225557   1.416   2.483   1.132  1.9531  0.7587 -0.0941
 8220SOL     OW25558   2.347   4.241   2.566  0.4841 -0.3830 -0.1338
 8220SOL    HW125559   2.367   4.245   2.664 -0.6073 -0.2515  0.1000
 8220SOL    HW225560   2.295   4.157   2.546  1.7734 -1.0434 -0.8204
 8221SOL     OW25561   3.831   5.752   2.499 -0.3363  0.4010 -0.2748
 8221SOL    HW125562   3.889   5.695   2.558 -0.2901  0.2973 -0.4200
 8221SOL    HW225563   3.875   5.841   2.485 -1.2088  1.1330  1.3678
 8222SOL     OW25564   4.112   5.646   1.906 -0.0826 -0.3096  0.1941
 8222SOL    HW125565   4.045   5.674   1.975 -0.7429  1.2156 -1.0207
 8222SOL    HW225566   4.091   5.554   1.875 -1.6057  0.1141 -0.1134
 8223SOL     OW25567   0.216   0.358   5.805  0.0231 -0.4371  0.3135
 8223SOL    HW125568   0.149   0.381   5.876  0.3715 -2.6413  1.4462
 8223SOL    HW225569   0.299   0.413   5.819 -0.6579  0.6019  0.3462
 8224SOL     OW25570   3.471   0.025   4.007  0.5439 -0.1622 -0.4222
 8224SOL    HW125571   3.497   0.091   4.077 -0.3116 -1.4525  1.2134
 8224SOL    HW225572   3.435   0.072   3.927  1.2182  1.3534  0.1388
 8225SOL     OW25573   0.426   5.233   0.945 -0.3247 -0.2846 -0.1384
 8225SOL    HW125574   0.363   5.298   0.988  0.7246  0.5437  0.1928
 8225SOL    HW225575   0.489   5.282   0.885 -0.0428 -1.1090 -0.5360
 8226SOL     OW25576   5.905   6.430   6.746 -0.1454  0.1001 -0.7094
 8226SOL    HW125577   5.959   6.362   6.796  0.6049  0.1668 -1.4163
 8226SOL    HW225578   5.892   6.510   6.804  0.2603 -0.0376 -0.4203
 8227SOL     OW25579   3.390   2.020   1.353 -0.2127  0.0126  0.3434
 8227SOL    HW125580   3.406   2.068   1.267 -2.4348 -3.3256 -2.1634
 8227SOL    HW225581   3.478   1.991   1.391  0.7713 -0.7154 -2.2614
 8228SOL     OW25582   2.316   1.952   0.345 -0.1447 -0.1466 -0.5160
 8228SOL    HW125583   2.320   2.024   0.415  0.0820  0.5877 -1.2666
 8228SOL    HW225584   2.223   1.916   0.339 -0.6983  1.3449 -1.3560
 8229SOL     OW25585   5.776   3.235   5.144 -0.1286  0.3772 -0.0545
 8229SOL    HW125586   5.739   3.142   5.148 -1.7789  0.8698 -2.0743
 8229SOL    HW225587   5.783   3.272   5.237  1.3801 -2.0194  0.8489
 8230SOL     OW25588   1.184   5.827   4.627 -0.6663  0.1023 -0.1481
 8230SOL    HW125589   1.198   5.845   4.530  0.5422  1.1242  0.1805
 8230SOL    HW225590   1.101   5.873   4.659 -0.1447  1.2295 -0.3487
 8231SOL     OW25591   0.080   1.514   5.930  0.3307 -0.1747  0.2199
 8231SOL    HW125592   0.024   1.597   5.937  0.3925 -0.2092  1.3060
 8231SOL    HW225593   0.041   1.454   5.861 -0.8668 -0.0966  0.7890
 8232SOL     OW25594   0.960   3.770   3.565 -0.2956 -0.0289 -0.0702
 8232SOL    HW125595   1.056   3.783   3.592 -0.5084  0.4158  0.4816
 8232SOL    HW225596   0.911   3.856   3.572 -0.3484  0.1500 -2.0085
 8233SOL     OW25597   0.653   6.621   2.944 -0.1832  0.2872  0.2928
 8233SOL    HW125598   0.570   6.593   2.991 -1.7758  1.3541 -1.7048
 8233SOL    HW225599   0.658   6.575   2.855  0.4931  1.4316 -0.2948
 8234SOL     OW25600   3.795   5.857   0.675 -0.5114  1.0623 -0.7292
 8234SOL    HW125601   3.736   5.844   0.755  1.9555 -1.4393  0.8552
 8234SOL    HW225602   3.877   5.907   0.702  2.1008 -2.8624 -0.5291
 8235SOL     OW25603   6.915   4.770   1.776  0.0152  0.2920  0.5718
 8235SOL    HW125604   6.923   4.675   1.745  3.8602  0.6952 -0.1875
 8235SOL    HW225605   6.864   4.823   1.708 -0.7602 -0.8948  0.2014
 8236SOL     OW25606   2.295   1.911   5.798 -0.3676 -0.0745  0.2260
 8236SOL    HW125607   2.237   1.937   5.720  2.0936 -0.0218 -1.7018
 8236SOL    HW225608   2.317   1.814   5.792  0.0701 -0.0068  0.6929
 8237SOL     OW25609   5.037   0.555   3.380  0.0895  0.0909 -0.2760
 8237SOL    HW125610   4.984   0.638   3.362  1.0921  0.9762  0.6907
 8237SOL    HW225611   4.975   0.477   3.385 -1.0917  1.0274  0.3796
 8238SOL     OW25612   1.210   3.760   5.740 -0.5272 -0.2049 -0.4284
 8238SOL    HW125613   1.201   3.720   5.832 -0.8513 -0.3973 -0.5414
 8238SOL    HW225614   1.287   3.823   5.739  0.0850 -0.9384 -0.2837
 8239SOL     OW25615   3.505   4.589   0.620 -0.6225 -0.7635  0.0219
 8239SOL    HW125616   3.554   4.518   0.670 -1.0451 -0.5649  0.7212
 8239SOL    HW225617   3.431   4.548   0.567 -1.7580 -0.7204  1.5082
 8240SOL     OW25618   1.062   3.560   2.850  0.1086  0.1507 -0.4596
 8240SOL    HW125619   0.970   3.563   2.889  0.1752 -1.2661 -0.1344
 8240SOL    HW225620   1.091   3.653   2.824 -0.4071  0.9883  1.7488
 8241SOL     OW25621   2.035   1.260   0.253 -0.2383 -0.7518 -0.4214
 8241SOL    HW125622   2.124   1.234   0.215 -1.0363 -3.5494 -0.5716
 8241SOL    HW225623   1.972   1.282   0.179  0.3827  1.8074 -0.3017
 8242SOL     OW25624   2.261   3.374   6.928 -0.6109 -0.3920  0.1822
 8242SOL    HW125625   2.358   3.388   6.911 -0.4947 -0.8953  0.4192
 8242SOL    HW225626   2.242   3.381   7.026 -0.6266 -1.3821  0.2551
 8243SOL     OW25627   6.000   6.636   5.971 -0.3669 -0.1355  0.4466
 8243SOL    HW125628   5.933   6.647   5.898 -0.0582 -0.5897  0.0817
 8243SOL    HW225629   6.056   6.718   5.978  0.9632 -0.8335 -1.2501
 8244SOL     OW25630   0.453   2.100   6.227  0.5905  0.2364 -0.1553
 8244SOL    HW125631   0.500   2.178   6.267  1.0292 -0.7954  1.3988
 8244SOL    HW225632   0.519   2.030   6.200  0.1810  0.2494 -1.2512
 8245SOL     OW25633   5.717   6.406   0.450  0.2912  0.7475  0.0627
 8245SOL    HW125634   5.671   6.393   0.362 -1.0155  0.0782  0.8091
 8245SOL    HW225635   5.809   6.366   0.446 -0.1556 -0.2532 -0.6733
 8246SOL     OW25636   2.346   6.758   5.554 -0.5267 -0.1842 -0.1161
 8246SOL    HW125637   2.351   6.857   5.566 -0.8863 -0.1205 -0.5055
 8246SOL    HW225638   2.335   6.715   5.644 -0.5636  0.1353  0.0353
 8247SOL     OW25639   6.975   3.721   2.032  0.2110 -0.0809 -0.7613
 8247SOL    HW125640   6.916   3.737   1.953  0.4316  0.5263 -0.8116
 8247SOL    HW225641   7.028   3.804   2.051  1.8990 -0.9741 -1.4189
 8248SOL     OW25642   2.861   6.463   5.291 -0.0285 -0.4529  0.3644
 8248SOL    HW125643   2.887   6.380   5.341  1.8289  0.6090  1.2781
 8248SOL    HW225644   2.900   6.460   5.199  1.1765 -0.0374  0.8445
 8249SOL     OW25645   4.051   2.363   5.766 -0.5548 -0.2164  0.3134
 8249SOL    HW125646   4.084   2.456   5.777  0.5416 -0.4863 -0.4608
 8249SOL    HW225647   3.952   2.361   5.778 -0.2974  0.5454  3.1808
 8250SOL     OW25648   3.685   2.132   2.818 -0.1646 -0.6271 -0.5405
 8250SOL    HW125649   3.662   2.134   2.721 -0.2199  0.7064 -0.5225
 8250SOL    HW225650   3.603   2.153   2.872  0.4135  1.2732 -0.3476
 8251SOL     OW25651   4.990   1.282   1.894 -0.4683 -0.9407  0.1789
 8251SOL    HW125652   4.977   1.262   1.797  0.0743 -1.3526  0.1943
 8251SOL    HW225653   4.991   1.197   1.947  0.0884 -0.7710  0.4456
 8252SOL     OW25654   1.306   1.630   2.729 -0.4883 -0.3272  0.1094
 8252SOL    HW125655   1.362   1.581   2.661 -0.9594 -0.1024 -0.4425
 8252SOL    HW225656   1.352   1.715   2.755 -0.3730 -0.3454 -0.0317
 8253SOL     OW25657   6.683   4.237   6.878  0.0718  1.2793  0.2323
 8253SOL    HW125658   6.651   4.158   6.930  0.4383  1.3872  0.6304
 8253SOL    HW225659   6.622   4.315   6.895 -0.7082  0.9012 -0.7209
 8254SOL     OW25660   6.416   2.251   6.053 -0.7366  0.8215  0.0337
 8254SOL    HW125661   6.437   2.219   5.961 -0.7258 -0.6354  0.5164
 8254SOL    HW225662   6.445   2.182   6.120 -0.0899  2.1528  1.1887
 8255SOL     OW25663   0.499   6.786   0.171 -0.2528 -0.0465 -0.7934
 8255SOL    HW125664   0.431   6.721   0.138  0.0262  0.1711 -1.8215
 8255SOL    HW225665   0.588   6.741   0.176 -0.2704 -0.0468 -0.4200
 8256SOL     OW25666   4.855   5.753   3.106  0.3646 -0.5298 -0.0855
 8256SOL    HW125667   4.808   5.742   3.193  0.1965  0.3979 -0.0386
 8256SOL    HW225668   4.834   5.844   3.069  0.5585 -0.8518 -1.0143
 8257SOL     OW25669   4.371   4.639   4.128  0.7025 -0.0623 -0.3185
 8257SOL    HW125670   4.459   4.593   4.140  1.9115  2.5048  1.4034
 8257SOL    HW225671   4.327   4.652   4.216  0.4831  2.1119 -0.6910
 8258SOL     OW25672   4.788   6.500   3.015 -0.2462 -0.8608  0.0030
 8258SOL    HW125673   4.824   6.486   3.107  1.4495 -0.6439 -0.6035
 8258SOL    HW225674   4.822   6.429   2.954  1.2001  0.7046 -1.1174
 8259SOL     OW25675   0.563   2.224   2.112  0.4156  0.2798 -0.0280
 8259SOL    HW125676   0.544   2.144   2.169 -3.3288 -0.1062 -1.5451
 8259SOL    HW225677   0.537   2.307   2.161  1.2590  0.3312  0.3512
 8260SOL     OW25678   3.718   4.967   5.788  0.2025  0.2431 -0.5173
 8260SOL    HW125679   3.641   4.930   5.737 -2.5981  3.1721  1.2272
 8260SOL    HW225680   3.744   5.056   5.751  1.2743  0.3058  0.3141
 8261SOL     OW25681   6.657   0.888   4.303 -0.8594 -0.3264  0.2700
 8261SOL    HW125682   6.676   0.944   4.222 -0.6743 -1.0276 -0.1791
 8261SOL    HW225683   6.671   0.943   4.385 -2.1096  0.7207 -0.1799
 8262SOL     OW25684   6.112   6.730   3.715 -0.1821 -0.2770 -0.2165
 8262SOL    HW125685   6.062   6.678   3.783  0.3919 -0.2768  0.2179
 8262SOL    HW225686   6.202   6.755   3.752 -0.5077  1.1586 -0.3586
 8263SOL     OW25687   3.681   3.371   1.950 -0.3484 -0.2516  0.1026
 8263SOL    HW125688   3.588   3.371   1.913 -1.1810 -0.5597  2.0622
 8263SOL    HW225689   3.734   3.299   1.907 -1.5574 -1.2073  0.1676
 8264SOL     OW25690   0.794   0.522   3.151  0.0696  0.5052  0.4782
 8264SOL    HW125691   0.756   0.458   3.218  0.0607 -0.0435 -0.0380
 8264SOL    HW225692   0.732   0.529   3.073  0.9382 -0.2866 -0.3128
 8265SOL     OW25693   5.144   1.831   3.640 -1.1039  0.0020 -0.4158
 8265SOL    HW125694   5.085   1.755   3.613 -1.0440 -0.1612 -0.0904
 8265SOL    HW225695   5.235   1.818   3.603 -1.2176  0.1564 -0.7566
 8266SOL     OW25696   4.425   0.199   5.334 -0.3326 -0.2369 -0.1181
 8266SOL    HW125697   4.433   0.291   5.371  1.0886 -0.7011  0.8103
 8266SOL    HW225698   4.492   0.187   5.260  0.0229 -0.7677  0.2894
 8267SOL     OW25699   3.695   6.315   4.050  0.2458 -0.5186 -0.4935
 8267SOL    HW125700   3.656   6.230   4.086 -1.2571  0.3767  0.1015
 8267SOL    HW225701   3.649   6.393   4.093  2.1498  0.6174 -0.4129
 8268SOL     OW25702   2.711   5.751   2.882  0.1234  0.1442 -0.4548
 8268SOL    HW125703   2.647   5.816   2.840  1.0546  0.5775 -1.2482
 8268SOL    HW225704   2.676   5.658   2.872 -0.4769  0.3904 -0.6974
 8269SOL     OW25705   2.231   4.430   5.796 -0.5141  0.2437 -0.0501
 8269SOL    HW125706   2.330   4.425   5.802 -0.3818 -0.1346 -2.0016
 8269SOL    HW225707   2.204   4.519   5.760 -0.7125 -0.5126 -1.8614
 8270SOL     OW25708   1.504   3.673   2.810  0.1757  0.1904 -0.6529
 8270SOL    HW125709   1.468   3.602   2.872  0.5194 -0.2314 -0.9313
 8270SOL    HW225710   1.544   3.629   2.730  0.6065  0.6929 -0.7127
 8271SOL     OW25711   4.386   2.140   2.464 -0.7999 -0.0587 -0.1349
 8271SOL    HW125712   4.321   2.212   2.488 -0.5670 -0.0194  0.3988
 8271SOL    HW225713   4.336   2.058   2.435 -1.1117 -0.2298  0.8496
 8272SOL     OW25714   0.608   2.684   1.624  0.1079 -0.1660 -0.0484
 8272SOL    HW125715   0.514   2.658   1.644 -0.9356  2.2971 -1.2568
 8272SOL    HW225716   0.615   2.716   1.530  2.5177 -1.5977 -0.4427
 8273SOL     OW25717   1.007   1.262   1.678 -0.4396  0.4299  0.3160
 8273SOL    HW125718   0.909   1.283   1.669 -0.8003 -1.0117  0.5168
 8273SOL    HW225719   1.039   1.289   1.769 -0.8645  0.1633  0.5479
 8274SOL     OW25720   5.210   3.184   0.327 -0.7984 -1.0578  0.2919
 8274SOL    HW125721   5.144   3.254   0.353 -1.1476 -0.9661 -0.7832
 8274SOL    HW225722   5.269   3.219   0.254 -2.5230 -2.6050 -2.0015
 8275SOL     OW25723   2.417   4.877   4.205 -0.3101  0.1683  0.0275
 8275SOL    HW125724   2.406   4.950   4.139  0.4181  0.5636  0.3264
 8275SOL    HW225725   2.376   4.793   4.170  0.8926  0.1186 -1.3645
 8276SOL     OW25726   5.206   6.276   5.626  0.5207 -0.0329  0.1169
 8276SOL    HW125727   5.249   6.366   5.617  1.7496 -0.7488 -2.0174
 8276SOL    HW225728   5.271   6.205   5.598 -1.4845 -1.3079 -1.5967
 8277SOL     OW25729   3.804   3.780   5.964 -0.4591 -0.7866 -0.1386
 8277SOL    HW125730   3.719   3.735   5.990 -0.4163 -0.6997  0.1548
 8277SOL    HW225731   3.881   3.734   6.008 -0.2595 -1.4614 -1.1531
 8278SOL     OW25732   2.184   6.259   6.912  0.0045  0.0021  0.2790
 8278SOL    HW125733   2.202   6.253   6.814  2.1538 -2.6404  0.7290
 8278SOL    HW225734   2.120   6.188   6.939 -0.3353  0.5151  0.8524
 8279SOL     OW25735   0.801   5.784   6.713 -0.6650  0.4250 -0.3719
 8279SOL    HW125736   0.849   5.751   6.632 -0.7771  0.8841 -0.6267
 8279SOL    HW225737   0.705   5.754   6.710 -1.2366  2.1700 -1.4727
 8280SOL     OW25738   4.859   3.989   2.168  0.1846  0.4343 -0.1323
 8280SOL    HW125739   4.879   3.923   2.095  1.4734  0.5216  0.1036
 8280SOL    HW225740   4.873   3.945   2.257 -1.3267  0.3438  0.0884
 8281SOL     OW25741   2.140   2.020   5.085  0.3638 -0.1398  0.5536
 8281SOL    HW125742   2.139   1.940   5.024  2.2470  1.0178 -1.1106
 8281SOL    HW225743   2.211   2.007   5.154 -0.6520 -0.7256  1.5093
 8282SOL     OW25744   5.023   4.374   2.881  0.2334  0.0387 -0.1699
 8282SOL    HW125745   5.062   4.413   2.798  0.7808 -0.5922 -0.2177
 8282SOL    HW225746   5.077   4.295   2.909 -0.4139 -0.2317  0.3436
 8283SOL     OW25747   1.927   3.239   4.318  0.1348 -0.0993  0.2403
 8283SOL    HW125748   2.005   3.200   4.268  0.4941  0.1824  0.5722
 8283SOL    HW225749   1.858   3.168   4.332  0.3781 -0.3804  0.0354
 8284SOL     OW25750   1.374   6.598   5.008  0.3996  0.8108  0.2614
 8284SOL    HW125751   1.319   6.522   5.041  0.8935  0.8473  1.2054
 8284SOL    HW225752   1.461   6.564   4.973  0.7848  0.9589  1.0481
 8285SOL     OW25753   4.219   3.683   0.206  0.2244  0.0163 -0.1251
 8285SOL    HW125754   4.287   3.678   0.279  1.4013  1.2431 -1.0757
 8285SOL    HW225755   4.242   3.758   0.144 -1.1242 -0.5367 -1.3697
 8286SOL     OW25756   0.973   0.884   6.176  0.5233 -0.4196  0.3412
 8286SOL    HW125757   1.041   0.819   6.140  0.4120 -1.0003  1.1535
 8286SOL    HW225758   0.987   0.973   6.134  1.7798 -0.5332  0.4854
 8287SOL     OW25759   2.590   2.899   6.100 -0.1703  0.4768 -0.3165
 8287SOL    HW125760   2.614   2.994   6.081  2.3932 -0.1787 -0.7172
 8287SOL    HW225761   2.566   2.854   6.014  0.0079  0.4241 -0.3400
 8288SOL     OW25762   4.740   1.880   1.867  0.3129 -0.1049  0.5815
 8288SOL    HW125763   4.811   1.841   1.809  1.9599 -0.0518  2.4409
 8288SOL    HW225764   4.750   1.843   1.960 -2.3733 -0.4025  0.8357
 8289SOL     OW25765   2.511   6.726   4.934  0.2743 -0.8199  0.4454
 8289SOL    HW125766   2.453   6.669   4.876 -1.3528  0.1639  1.0365
 8289SOL    HW225767   2.474   6.819   4.936  0.5548 -0.7151  2.6905
 8290SOL     OW25768   1.521   1.872   2.309  0.1705 -0.4286 -0.6596
 8290SOL    HW125769   1.523   1.948   2.245  1.4213  0.1755  0.0453
 8290SOL    HW225770   1.580   1.799   2.275 -0.8592 -1.0201 -1.2290
 8291SOL     OW25771   4.282   0.788   4.081 -0.8040  0.1673  0.4037
 8291SOL    HW125772   4.232   0.707   4.111 -0.2660 -0.2261  0.2597
 8291SOL    HW225773   4.260   0.865   4.141 -1.1441 -0.1433  0.6809
 8292SOL     OW25774   6.932   0.318   2.697  0.0385 -0.8536 -0.4131
 8292SOL    HW125775   6.989   0.392   2.734 -1.8331  2.0678 -2.8922
 8292SOL    HW225776   6.991   0.244   2.663  2.0847  0.1451  0.7583
 8293SOL     OW25777   5.974   2.104   5.081 -0.3023 -0.6679 -0.2093
 8293SOL    HW125778   6.045   2.039   5.108 -0.3765 -0.4751  0.4627
 8293SOL    HW225779   6.017   2.180   5.032 -0.2194 -1.2235 -1.0257
 8294SOL     OW25780   2.475   6.337   5.293 -0.1419  0.1401  0.1657
 8294SOL    HW125781   2.514   6.425   5.265 -0.5990  0.7036  1.2720
 8294SOL    HW225782   2.533   6.263   5.259  0.3486  0.8669 -0.6203
 8295SOL     OW25783   0.685   0.361   6.776 -0.6466  0.4558  0.1435
 8295SOL    HW125784   0.763   0.422   6.762 -1.5074  1.6757  0.4770
 8295SOL    HW225785   0.688   0.287   6.708  2.1332 -1.0112  1.6453
 8296SOL     OW25786   1.135   0.108   1.926  0.0389  0.8085 -0.6010
 8296SOL    HW125787   1.172   0.057   1.848  0.9401  1.0685 -0.3514
 8296SOL    HW225788   1.159   0.205   1.917  0.9981  0.6908  0.4896
 8297SOL     OW25789   4.033   0.379   3.106  0.6183  0.9839 -0.2193
 8297SOL    HW125790   3.947   0.429   3.103  0.0676  0.1891  1.0676
 8297SOL    HW225791   4.100   0.430   3.160  0.2176  0.6037  0.6659
 8298SOL     OW25792   3.435   6.164   2.663 -0.1590  0.2139 -0.1315
 8298SOL    HW125793   3.493   6.189   2.740 -1.3353 -0.7299  1.1127
 8298SOL    HW225794   3.483   6.100   2.604  0.3796  0.1268  0.3969
 8299SOL     OW25795   6.877   3.903   3.225 -0.3722  0.3804 -0.3235
 8299SOL    HW125796   6.872   3.991   3.273  1.2327  1.3371 -1.8139
 8299SOL    HW225797   6.971   3.869   3.229 -0.1918  0.4596 -2.6448
 8300SOL     OW25798   5.163   0.850   1.148  0.2020 -0.0513  0.1296
 8300SOL    HW125799   5.091   0.855   1.079 -0.1867 -1.6064  0.3820
 8300SOL    HW225800   5.139   0.909   1.226  0.4037  1.3241 -0.8166
 8301SOL     OW25801   2.164   6.750   0.105  0.4036 -0.0470  0.4767
 8301SOL    HW125802   2.146   6.716   0.197  1.7802  0.8349  1.0826
 8301SOL    HW225803   2.172   6.672   0.042 -0.5438 -0.6521  1.0753
 8302SOL     OW25804   6.667   4.723   5.091  0.0907 -0.0501 -0.2856
 8302SOL    HW125805   6.573   4.723   5.057 -0.1428  1.5456  0.2598
 8302SOL    HW225806   6.720   4.794   5.044  0.0486  1.4645  1.7827
 8303SOL     OW25807   2.105   3.146   3.472  0.0140  0.2757 -0.2710
 8303SOL    HW125808   2.014   3.157   3.513 -0.5186 -2.6510 -0.4716
 8303SOL    HW225809   2.099   3.157   3.373 -0.0650  0.3713 -0.2556
 8304SOL     OW25810   0.706   0.043   1.078  0.6368 -0.1823  0.1416
 8304SOL    HW125811   0.739  -0.044   1.113  0.3120 -0.0493  0.7960
 8304SOL    HW225812   0.709   0.043   0.978  0.3856 -1.0372  0.1315
 8305SOL     OW25813   0.688   6.119   4.846 -0.0980  0.2773  0.4686
 8305SOL    HW125814   0.661   6.072   4.930  2.9304 -0.7652  1.0138
 8305SOL    HW225815   0.748   6.196   4.869  1.3436 -0.4443 -0.6770
 8306SOL     OW25816   0.332   4.607   2.375 -0.0476  0.2926  0.3348
 8306SOL    HW125817   0.345   4.705   2.390 -0.9655  0.2629  1.4747
 8306SOL    HW225818   0.418   4.559   2.393  0.2896  0.8427  0.2092
 8307SOL     OW25819   4.558   1.607   6.320  0.2290  0.0538  0.1884
 8307SOL    HW125820   4.587   1.577   6.229 -0.8996 -0.7606  0.0823
 8307SOL    HW225821   4.464   1.642   6.315 -0.1517 -0.7944  1.1826
 8308SOL     OW25822   1.899   6.704   1.997 -0.0704 -0.5880  0.2619
 8308SOL    HW125823   1.959   6.637   2.041  0.3539  0.5047  1.3981
 8308SOL    HW225824   1.841   6.747   2.065  0.0483  0.5928 -0.3672
 8309SOL     OW25825   1.867   1.759   6.929  0.2462  0.1023 -0.3243
 8309SOL    HW125826   1.911   1.825   6.868  2.0052 -0.2788  0.4683
 8309SOL    HW225827   1.819   1.809   7.002 -0.1515  0.5166 -0.8566
 8310SOL     OW25828   2.785   1.997   5.602 -0.5334 -0.1082  0.2431
 8310SOL    HW125829   2.819   2.005   5.509 -1.1712  0.8284  0.0753
 8310SOL    HW225830   2.858   2.021   5.666 -1.2692  3.9783 -0.1555
 8311SOL     OW25831   1.478   0.187   2.895 -0.3130 -0.0178  0.5267
 8311SOL    HW125832   1.381   0.167   2.908 -0.8790  2.1408 -0.0064
 8311SOL    HW225833   1.491   0.232   2.806  1.0498  0.4282  0.9338
 8312SOL     OW25834   2.112   0.510   4.529  0.1399  0.6199  0.0297
 8312SOL    HW125835   2.055   0.535   4.608 -0.7508 -1.8139  0.2450
 8312SOL    HW225836   2.053   0.492   4.450  0.8760  1.1011 -0.6419
 8313SOL     OW25837   2.149   1.653   0.085 -0.2462 -0.2496  0.0957
 8313SOL    HW125838   2.102   1.593   0.149 -2.1992  0.7520 -0.3175
 8313SOL    HW225839   2.117   1.747   0.097  1.6548  0.4966 -0.2631
 8314SOL     OW25840   0.121   4.137   2.615  0.2288 -0.2742  0.7348
 8314SOL    HW125841   0.035   4.087   2.629 -0.1035  0.3206  0.8573
 8314SOL    HW225842   0.190   4.102   2.678 -0.1972 -0.1195  1.2985
 8315SOL     OW25843   5.256   5.269   2.061 -0.1327  0.5729  0.2975
 8315SOL    HW125844   5.222   5.327   1.988 -1.3976  0.4881  0.7833
 8315SOL    HW225845   5.355   5.260   2.054  0.1324  2.9279  0.3218
 8316SOL     OW25846   1.342   5.575   2.571  0.2823 -0.4868 -0.3532
 8316SOL    HW125847   1.417   5.521   2.533  2.5529  0.6837  2.1177
 8316SOL    HW225848   1.340   5.665   2.528  0.1396 -0.5996 -0.5832
 8317SOL     OW25849   4.516   1.205   3.058 -0.3343  0.2367 -0.1924
 8317SOL    HW125850   4.560   1.235   2.974  0.8807  0.6435  0.5604
 8317SOL    HW225851   4.585   1.195   3.130 -1.4075  0.4151  0.8970
 8318SOL     OW25852   3.525   4.865   5.634  0.1551 -0.5168 -0.1020
 8318SOL    HW125853   3.433   4.855   5.671  0.4347 -0.2431  0.6678
 8318SOL    HW225854   3.562   4.774   5.612  0.8552 -0.9047  2.4215
 8319SOL     OW25855   2.419   1.556   1.731 -0.1957  0.0113  0.7032
 8319SOL    HW125856   2.507   1.539   1.775  0.8664  1.5880 -0.6822
 8319SOL    HW225857   2.394   1.652   1.742  0.4106  0.6522 -2.4334
 8320SOL     OW25858   0.955   4.527   3.443  0.7489  0.0225 -0.4224
 8320SOL    HW125859   1.031   4.559   3.500  1.0650 -2.2241  0.5364
 8320SOL    HW225860   0.936   4.431   3.464 -1.0645 -0.0440 -2.0791
 8321SOL     OW25861   2.792   5.601   1.745  0.0358 -0.8375 -0.2975
 8321SOL    HW125862   2.874   5.552   1.776  1.1724 -0.4669 -2.4854
 8321SOL    HW225863   2.710   5.552   1.775  1.0428 -1.5171  1.4896
 8322SOL     OW25864   1.969   5.387   5.532 -0.1278  0.1797  0.5490
 8322SOL    HW125865   1.887   5.416   5.580  0.2139 -1.4003  2.2043
 8322SOL    HW225866   2.050   5.425   5.577  0.1117  1.5576 -0.9470
 8323SOL     OW25867   2.282   1.686   3.110 -0.2979  0.3668 -0.7102
 8323SOL    HW125868   2.340   1.611   3.141  1.2603  1.2672 -1.2913
 8323SOL    HW225869   2.261   1.673   3.013 -0.9451  0.1444 -0.5479
 8324SOL     OW25870   6.083   4.536   0.579 -0.1993 -0.1701 -0.7488
 8324SOL    HW125871   6.058   4.618   0.528 -1.2016 -0.5453 -0.8919
 8324SOL    HW225872   6.172   4.548   0.622 -1.1566  1.7212  0.8203
 8325SOL     OW25873   0.398   2.649   5.120  0.5372 -0.5492 -0.1136
 8325SOL    HW125874   0.427   2.745   5.114 -2.8709  0.5425 -1.9964
 8325SOL    HW225875   0.393   2.622   5.217 -0.3262  1.8865  0.6056
 8326SOL     OW25876   2.983   0.138   0.270 -0.1494  0.0512 -0.6964
 8326SOL    HW125877   3.007   0.042   0.282 -0.1232  0.2028  0.6261
 8326SOL    HW225878   3.063   0.195   0.285 -0.8932  0.4741  2.3341
 8327SOL     OW25879   2.021   2.392   1.753 -0.2910 -0.7477  0.1184
 8327SOL    HW125880   2.004   2.298   1.783 -4.3182 -0.3577 -0.3478
 8327SOL    HW225881   1.973   2.408   1.667 -1.4295  2.2469  1.1922
 8328SOL     OW25882   2.901   1.566   2.455 -1.1635  0.0908  0.0628
 8328SOL    HW125883   2.857   1.621   2.525  0.8288  0.5743  1.0254
 8328SOL    HW225884   2.991   1.536   2.488 -0.4314 -0.2209 -2.0482
 8329SOL     OW25885   1.352   3.563   1.771  0.0395  0.0977  0.1417
 8329SOL    HW125886   1.447   3.582   1.746  0.7188 -2.2561  0.7417
 8329SOL    HW225887   1.298   3.647   1.760  2.2189  1.5884  0.1142
 8330SOL     OW25888   3.661   6.458   3.016  0.3084 -0.3418 -0.5190
 8330SOL    HW125889   3.732   6.527   3.011  1.7876 -1.7819 -0.3082
 8330SOL    HW225890   3.582   6.494   3.065  2.1228  0.3069  2.1381
 8331SOL     OW25891   2.877   0.829   3.067 -0.3362  0.4159  0.2224
 8331SOL    HW125892   2.796   0.881   3.095 -0.5078 -0.0197  0.5465
 8331SOL    HW225893   2.915   0.781   3.146  0.8313  1.4015  0.2894
 8332SOL     OW25894   6.865   6.184   2.670 -0.4902 -0.3153 -0.2310
 8332SOL    HW125895   6.901   6.159   2.760 -1.1751 -0.6837 -0.0555
 8332SOL    HW225896   6.767   6.165   2.666 -0.6912  0.7753 -0.6751
 8333SOL     OW25897   0.276   0.748   5.707 -0.1312 -0.3318  0.6361
 8333SOL    HW125898   0.219   0.785   5.781 -0.8194 -0.8470  0.3719
 8333SOL    HW225899   0.351   0.696   5.747 -0.3825 -0.4349  0.9833
 8334SOL     OW25900   1.354   2.556   2.278 -0.1293  0.0582 -0.4493
 8334SOL    HW125901   1.409   2.627   2.234 -0.2461  0.0652 -0.5847
 8334SOL    HW225902   1.258   2.565   2.249 -0.3287  0.4619  0.3018
 8335SOL     OW25903   6.886   1.515   1.673 -0.0574  0.3068  0.1487
 8335SOL    HW125904   6.841   1.503   1.584 -0.0566  2.1282 -0.1448
 8335SOL    HW225905   6.828   1.476   1.745 -0.5544 -0.2691 -0.5491
 8336SOL     OW25906   1.729   5.212   5.240 -0.4545 -0.1543  0.2267
 8336SOL    HW125907   1.725   5.113   5.253 -0.7696 -0.3482 -1.1640
 8336SOL    HW225908   1.658   5.240   5.175  0.1648  0.8664 -0.0441
 8337SOL     OW25909   4.744   0.723   2.975 -0.3854 -0.5788  0.1882
 8337SOL    HW125910   4.757   0.785   3.052  0.1993  0.9057 -1.0494
 8337SOL    HW225911   4.653   0.737   2.935 -0.1106 -0.2152 -0.3290
 8338SOL     OW25912   1.402   5.848   5.262  0.5957 -0.4899  0.3394
 8338SOL    HW125913   1.453   5.778   5.211  0.1432 -0.5652 -0.0159
 8338SOL    HW225914   1.413   5.833   5.360  0.4815 -1.0797  0.2642
 8339SOL     OW25915   6.291   0.593   4.581  0.3862  0.6797 -0.0020
 8339SOL    HW125916   6.342   0.509   4.562  0.5508  0.9317 -0.7037
 8339SOL    HW225917   6.316   0.627   4.672 -1.0035 -0.9727  1.0714
 8340SOL     OW25918   4.967   4.033   0.829  0.0096  0.1958 -0.3600
 8340SOL    HW125919   5.018   4.105   0.876 -0.3706  0.5805 -0.5290
 8340SOL    HW225920   4.921   4.072   0.749  0.6460 -0.4450 -1.0560
 8341SOL     OW25921   0.786   5.133   4.471  0.2770 -0.3367 -0.3158
 8341SOL    HW125922   0.885   5.122   4.478  0.1320 -0.9950  1.0981
 8341SOL    HW225923   0.761   5.150   4.376  1.9305  1.9632 -0.4136
 8342SOL     OW25924   3.822   5.957   0.271 -0.7511  0.3998 -0.0605
 8342SOL    HW125925   3.741   6.015   0.267 -0.2767  1.0254 -1.2924
 8342SOL    HW225926   3.903   6.014   0.280 -0.3977 -0.1952  0.6212
 8343SOL     OW25927   6.241   6.881   1.921  0.3664  0.0306 -0.0149
 8343SOL    HW125928   6.207   6.787   1.922 -0.8774  0.4207  2.2039
 8343SOL    HW225929   6.164   6.943   1.909  0.8046  0.8179  1.0596
 8344SOL     OW25930   0.687   0.386   1.664 -0.0928 -0.2321 -0.3354
 8344SOL    HW125931   0.698   0.485   1.667  0.8101 -0.3250 -0.2721
 8344SOL    HW225932   0.683   0.355   1.569 -0.9184 -0.0877 -0.3550
 8345SOL     OW25933   2.320   5.902   0.023 -0.0272 -0.4889 -0.7366
 8345SOL    HW125934   2.226   5.935   0.008  0.2968  1.3766  0.9402
 8345SOL    HW225935   2.328   5.809  -0.012 -1.9119  0.0331 -2.8411
 8346SOL     OW25936   0.470   4.650   4.187 -0.0685  0.0221  0.3517
 8346SOL    HW125937   0.430   4.612   4.270 -1.3953 -1.9152 -1.0730
 8346SOL    HW225938   0.398   4.690   4.131  0.0857 -2.2652 -1.6269
 8347SOL     OW25939   1.466   1.035   5.661  0.0789  0.2826  0.3610
 8347SOL    HW125940   1.475   1.088   5.577 -0.3429  0.3092  0.3277
 8347SOL    HW225941   1.472   1.096   5.740  1.9731  0.0739  0.4211
 8348SOL     OW25942   0.642   2.172   5.113  0.0100 -0.4394  0.4222
 8348SOL    HW125943   0.691   2.211   5.035  1.0727 -0.1889  1.2079
 8348SOL    HW225944   0.656   2.228   5.194 -1.6066 -0.3386  0.6806
 8349SOL     OW25945   2.035   0.932   0.651 -0.2277 -0.0082  0.0392
 8349SOL    HW125946   2.086   0.856   0.691 -1.5697  0.0642  2.0391
 8349SOL    HW225947   1.963   0.960   0.713  0.0082  2.7251 -0.7708
 8350SOL     OW25948   4.736   1.671   4.088 -0.1260  0.0533  0.0670
 8350SOL    HW125949   4.654   1.664   4.144 -0.2671 -0.4721 -0.1991
 8350SOL    HW225950   4.721   1.737   4.014 -0.1200  0.3562  0.3336
 8351SOL     OW25951   1.109   4.419   2.471 -0.1961  0.6679  0.2257
 8351SOL    HW125952   1.050   4.486   2.426  0.0726  0.2201 -0.8320
 8351SOL    HW225953   1.052   4.351   2.517 -0.6290 -0.6149 -2.0302
 8352SOL     OW25954   0.854   2.151   4.439 -0.2738 -0.3594 -0.1663
 8352SOL    HW125955   0.870   2.245   4.468  0.8814 -0.2501 -1.0413
 8352SOL    HW225956   0.926   2.092   4.476 -1.6654 -1.1486  1.3901
 8353SOL     OW25957   2.995   5.970   4.683  0.3613  0.5793 -0.1846
 8353SOL    HW125958   2.979   5.872   4.690  0.4800  0.5710 -0.0293
 8353SOL    HW225959   2.958   6.016   4.764  1.0063  0.5748  0.1199
 8354SOL     OW25960   4.585   4.106   1.425 -0.5517 -0.0642  0.4840
 8354SOL    HW125961   4.661   4.171   1.438 -1.3466  1.0683 -0.3646
 8354SOL    HW225962   4.498   4.154   1.434 -1.1702 -1.0313 -0.1217
 8355SOL     OW25963   0.101   0.164   3.607 -0.4604 -0.3039  0.0220
 8355SOL    HW125964   0.051   0.078   3.615  1.7577 -1.8522 -1.5726
 8355SOL    HW225965   0.171   0.169   3.678 -0.6277  0.2153  0.1520
 8356SOL     OW25966   3.312   3.441   5.122 -0.1312 -0.3968  0.1402
 8356SOL    HW125967   3.220   3.408   5.146 -0.1642 -0.2868  0.1667
 8356SOL    HW225968   3.311   3.541   5.120  0.0723 -0.3856  0.4821
 8357SOL     OW25969   6.494   2.594   2.032 -0.1612 -0.4814  0.0891
 8357SOL    HW125970   6.509   2.691   2.053  1.4072 -0.9869  1.4633
 8357SOL    HW225971   6.415   2.561   2.085 -1.0551  0.1451 -0.8056
 8358SOL     OW25972   6.017   4.396   1.190  0.1764 -0.5065 -0.2291
 8358SOL    HW125973   6.070   4.376   1.108 -0.3811  1.2170 -1.0605
 8358SOL    HW225974   5.922   4.368   1.176  0.2600 -1.0247  0.1891
 8359SOL     OW25975   5.326   2.014   3.863 -0.2810  0.0134  0.4340
 8359SOL    HW125976   5.292   1.921   3.879 -0.8480  0.5790  2.8251
 8359SOL    HW225977   5.278   2.052   3.783  1.1965 -2.2592 -1.7137
 8360SOL     OW25978   4.453   5.457   5.595 -0.3189  0.0317  0.2498
 8360SOL    HW125979   4.443   5.554   5.574  0.3988  0.1212  0.2791
 8360SOL    HW225980   4.446   5.444   5.694 -0.5535  0.0404  0.2328
 8361SOL     OW25981   2.129   3.651   2.254  0.2092  0.7092 -0.0774
 8361SOL    HW125982   2.172   3.689   2.336  0.4520 -0.1918  0.2219
 8361SOL    HW225983   2.196   3.647   2.180  0.2655  0.5691 -0.0180
 8362SOL     OW25984   3.995   5.728   4.436  0.4992  0.3464 -0.1923
 8362SOL    HW125985   4.037   5.637   4.431 -0.5607 -0.1629 -0.2386
 8362SOL    HW225986   3.926   5.728   4.509  0.5695  1.1567 -0.1203
 8363SOL     OW25987   6.526   4.324   1.025  0.1742  0.2528  0.2334
 8363SOL    HW125988   6.470   4.318   0.942 -1.4877 -1.2995  1.3811
 8363SOL    HW225989   6.623   4.333   1.000 -0.4362  1.8190 -1.8227
 8364SOL     OW25990   4.737   3.493   5.999  0.2255 -0.3859 -0.5239
 8364SOL    HW125991   4.732   3.518   5.903  0.0172 -1.3447 -0.7752
 8364SOL    HW225992   4.668   3.423   6.019 -0.6646  0.7716  0.6380
 8365SOL     OW25993   1.047   0.510   3.571 -0.3180 -0.4748  0.0800
 8365SOL    HW125994   1.023   0.568   3.493  0.6026  1.0419  0.8605
 8365SOL    HW225995   0.969   0.453   3.595 -0.8929 -0.3781 -1.4265
 8366SOL     OW25996   4.208   6.501   2.339 -0.3317 -0.3145 -0.1198
 8366SOL    HW125997   4.260   6.425   2.301 -2.0035 -2.2802  1.2922
 8366SOL    HW225998   4.266   6.554   2.401  0.7192 -0.7104 -0.7362
 8367SOL     OW25999   2.401   6.806   1.263  0.0973 -0.0528  0.0971
 8367SOL    HW126000   2.422   6.767   1.173 -1.3485  1.0692 -0.7684
 8367SOL    HW226001   2.328   6.874   1.254 -2.1996 -1.9803  2.5204
 8368SOL     OW26002   6.115   4.761   2.272 -0.3231  0.0478 -0.1932
 8368SOL    HW126003   6.133   4.788   2.178  2.4296 -0.9582 -0.0517
 8368SOL    HW226004   6.157   4.672   2.290  2.5337  1.7814  2.8945
 8369SOL     OW26005   2.942   4.214   6.059 -0.1686  0.0559  0.4524
 8369SOL    HW126006   2.927   4.312   6.066 -0.9946  0.1748 -1.9947
 8369SOL    HW226007   2.912   4.182   5.969  1.3236 -2.2200  0.6780
 8370SOL     OW26008   5.861   2.014   4.358 -0.2908  0.4704 -0.3574
 8370SOL    HW126009   5.815   2.073   4.292 -0.1320  2.0960  0.9102
 8370SOL    HW226010   5.959   2.011   4.339 -0.3439  0.3738 -0.6093
 8371SOL     OW26011   2.561   5.472   3.927  0.5107 -0.3818  0.4967
 8371SOL    HW126012   2.572   5.388   3.979 -1.1701 -2.3706 -2.1233
 8371SOL    HW226013   2.606   5.463   3.838 -2.4410  0.1073 -1.1670
 8372SOL     OW26014   5.766   4.253   6.634  0.1272 -0.3675 -0.1910
 8372SOL    HW126015   5.828   4.278   6.709  0.9659  0.1564 -1.0435
 8372SOL    HW226016   5.708   4.331   6.611  0.0208 -0.4567 -0.2240
 8373SOL     OW26017   0.093   5.445   3.641 -0.0825  0.2833  0.1334
 8373SOL    HW126018   0.003   5.432   3.683 -0.5937  1.5436 -0.5197
 8373SOL    HW226019   0.162   5.398   3.695 -1.0385 -0.1211  1.0343
 8374SOL     OW26020   0.896   3.845   6.415 -0.0706  0.0972  0.2172
 8374SOL    HW126021   0.952   3.921   6.450  1.7811 -0.7020 -0.8534
 8374SOL    HW226022   0.801   3.857   6.444  0.2287  2.6438  0.3738
 8375SOL     OW26023   3.595   5.554   5.027  0.1201  0.4515 -0.6245
 8375SOL    HW126024   3.599   5.483   5.097  0.8233  1.1697  0.0883
 8375SOL    HW226025   3.612   5.643   5.069  0.5603  0.8987 -1.7140
 8376SOL     OW26026   2.060   6.614   0.322 -0.1365  0.5231  0.2028
 8376SOL    HW126027   2.046   6.516   0.309 -0.4573  0.6326 -0.3019
 8376SOL    HW226028   2.002   6.646   0.397  0.6530  0.1585  0.9780
 8377SOL     OW26029   1.336   0.268   2.500 -0.0261 -0.0292  0.5090
 8377SOL    HW126030   1.301   0.210   2.573 -0.3900 -1.6950 -0.9121
 8377SOL    HW226031   1.410   0.221   2.452  2.5018  2.3602  1.7827
 8378SOL     OW26032   6.778   6.992   3.509  0.9250  0.3450 -0.2213
 8378SOL    HW126033   6.790   7.060   3.581 -1.0125  0.0015  0.4662
 8378SOL    HW226034   6.794   7.034   3.419  0.0465  1.6183  0.2079
 8379SOL     OW26035   0.506   5.385   6.449 -0.2763 -0.0075  0.2868
 8379SOL    HW126036   0.508   5.353   6.354 -0.2377  1.9576 -0.4073
 8379SOL    HW226037   0.598   5.414   6.476 -0.9573  3.3079 -0.5263
 8380SOL     OW26038   3.145   2.139   3.829 -0.0756  0.6525 -0.2817
 8380SOL    HW126039   3.049   2.159   3.848  0.0824 -0.3697  1.9002
 8380SOL    HW226040   3.184   2.087   3.905  2.2439  1.1145 -1.0714
 8381SOL     OW26041   6.131   2.973   4.510  0.3082 -0.3523  0.3663
 8381SOL    HW126042   6.194   2.943   4.582  0.9424  0.1940  0.0431
 8381SOL    HW226043   6.090   2.892   4.467 -2.1578 -0.7302  3.0852
 8382SOL     OW26044   0.927   2.869   5.416  0.2019  0.6718  0.7074
 8382SOL    HW126045   0.934   2.969   5.417  0.9336  0.6579 -0.2962
 8382SOL    HW226046   0.983   2.831   5.490  0.4785  0.9930  0.6669
 8383SOL     OW26047   1.340   1.612   6.016 -0.1640  0.5411 -0.6729
 8383SOL    HW126048   1.296   1.687   6.065  1.4971  1.3251 -0.2787
 8383SOL    HW226049   1.329   1.624   5.918 -1.2592  0.4233 -0.5682
 8384SOL     OW26050   5.145   1.881   3.036  0.2762  0.1634 -0.6988
 8384SOL    HW126051   5.110   1.856   2.946 -1.9673  1.2598 -0.2074
 8384SOL    HW226052   5.153   1.981   3.042 -1.0724  0.2274  0.7588
 8385SOL     OW26053   3.250   1.962   5.303 -0.0029 -0.7033 -0.4109
 8385SOL    HW126054   3.286   1.959   5.209 -0.8682  0.6548 -0.8180
 8385SOL    HW226055   3.216   2.054   5.322 -0.8479 -1.2595  0.8604
 8386SOL     OW26056   5.229   2.207   5.258  0.0098 -0.0179 -0.6423
 8386SOL    HW126057   5.209   2.177   5.165  1.0730  0.7968 -1.1558
 8386SOL    HW226058   5.284   2.139   5.305 -0.1364 -0.2194 -0.7643
 8387SOL     OW26059   3.240   2.858   5.150  0.3046  0.3704  0.0256
 8387SOL    HW126060   3.231   2.854   5.051  0.4339 -0.4314  0.0391
 8387SOL    HW226061   3.201   2.943   5.184  0.8895  0.9674 -0.7809
 8388SOL     OW26062   5.123   4.061   5.928  0.1903 -0.1358 -0.0371
 8388SOL    HW126063   5.208   4.056   5.980 -1.5497 -1.2449  2.9623
 8388SOL    HW226064   5.067   4.136   5.963 -2.5149 -2.9996  2.4128
 8389SOL     OW26065   2.828   5.755   5.170 -0.0604 -0.3092 -0.3430
 8389SOL    HW126066   2.839   5.723   5.076 -0.7283  1.0438 -0.9082
 8389SOL    HW226067   2.828   5.676   5.232 -0.4398 -1.2926 -1.5489
 8390SOL     OW26068   1.255   0.565   0.479 -0.0034  0.3140 -0.1586
 8390SOL    HW126069   1.223   0.642   0.534  2.2692  1.1423  0.1468
 8390SOL    HW226070   1.304   0.501   0.538 -0.8324 -0.7727 -0.6212
 8391SOL     OW26071   2.441   5.815   1.810  0.0007 -0.1378 -0.5130
 8391SOL    HW126072   2.342   5.805   1.798 -0.1400  1.2497 -0.6246
 8391SOL    HW226073   2.485   5.814   1.721  0.1266 -0.9844 -0.4515
 8392SOL     OW26074   5.201   2.309   2.059  0.2034  0.2883  0.8878
 8392SOL    HW126075   5.197   2.406   2.083  2.1468  1.0372 -1.3435
 8392SOL    HW226076   5.115   2.264   2.082 -0.4883  2.3721  2.6026
 8393SOL     OW26077   3.860   0.310   0.005  0.0821 -0.1365 -0.0514
 8393SOL    HW126078   3.804   0.243  -0.045 -0.4077 -1.1506  1.7817
 8393SOL    HW226079   3.867   0.283   0.101 -1.0417  3.0264  1.0419
 8394SOL     OW26080   4.078   3.945   0.390  0.1210  0.3634 -0.0129
 8394SOL    HW126081   4.094   4.029   0.441  1.7799  0.2354 -0.2610
 8394SOL    HW226082   4.145   3.876   0.419  0.6287  0.0632 -1.8145
 8395SOL     OW26083   2.311   2.203   1.133 -0.3669  0.8574  0.8353
 8395SOL    HW126084   2.333   2.145   1.212 -0.3984  0.4359  0.5356
 8395SOL    HW226085   2.374   2.183   1.058 -0.0779  1.5436  0.8848
 8396SOL     OW26086   4.695   2.060   0.731  0.0805  0.1430 -0.3082
 8396SOL    HW126087   4.769   2.086   0.669 -0.5633  1.1901 -0.6697
 8396SOL    HW226088   4.702   2.114   0.815  0.8409 -1.1400  0.4899
 8397SOL     OW26089   4.816   3.214   0.574  0.5456 -0.6866  0.1492
 8397SOL    HW126090   4.757   3.228   0.653  0.5508  0.6621 -0.0729
 8397SOL    HW226091   4.825   3.115   0.557  0.1298 -0.9805  1.4979
 8398SOL     OW26092   0.084   6.948   2.100  0.0357  0.7514  0.0527
 8398SOL    HW126093   0.147   7.004   2.047 -0.6776  1.8384  0.3097
 8398SOL    HW226094   0.102   6.851   2.082 -0.4303  1.0637 -2.4520
 8399SOL     OW26095   4.584   0.911   0.347  0.0688 -0.2651 -0.6859
 8399SOL    HW126096   4.683   0.919   0.359  0.1346 -0.0887 -1.3206
 8399SOL    HW226097   4.549   0.996   0.307 -0.8171  0.9682  2.3805
 8400SOL     OW26098   0.413   3.731   4.951 -0.0193 -0.5140  0.1139
 8400SOL    HW126099   0.384   3.717   5.046  0.4549 -2.1217  0.0516
 8400SOL    HW226100   0.497   3.680   4.934 -0.0616 -0.1909 -1.1649
 8401SOL     OW26101   0.653   2.288   5.401  0.0586 -0.3596  0.6649
 8401SOL    HW126102   0.736   2.239   5.429  0.8729  0.7836  0.3005
 8401SOL    HW226103   0.612   2.332   5.481  1.0613  0.9270  0.4921
 8402SOL     OW26104   2.676   0.915   3.510 -0.1430  0.0627 -0.1213
 8402SOL    HW126105   2.679   0.963   3.597  1.2981  1.9033 -1.0970
 8402SOL    HW226106   2.605   0.956   3.452 -0.0805 -0.1419 -0.3449
 8403SOL     OW26107   4.758   0.168   6.951 -0.6356  0.5386  0.4114
 8403SOL    HW126108   4.660   0.181   6.970 -0.9527  1.2586 -1.4629
 8403SOL    HW226109   4.806   0.254   6.967 -0.5671  0.5892 -0.0581
 8404SOL     OW26110   6.889   2.236   6.046  0.6726  0.4352  0.2564
 8404SOL    HW126111   6.873   2.142   6.075 -0.8895 -0.4597 -3.0567
 8404SOL    HW226112   6.868   2.298   6.121 -0.0362 -1.7523  1.9677
 8405SOL     OW26113   3.530   0.510   0.491  0.1333 -0.2412 -0.1017
 8405SOL    HW126114   3.553   0.424   0.536  0.7518 -1.2742 -2.2755
 8405SOL    HW226115   3.463   0.493   0.418  0.4493  1.0633 -0.7275
 8406SOL     OW26116   1.156   0.152   0.075  0.0287  0.2063  0.4118
 8406SOL    HW126117   1.219   0.118   0.004  0.6217  0.1915  0.9329
 8406SOL    HW226118   1.166   0.252   0.082 -0.0486  0.2105  0.4537
 8407SOL     OW26119   2.338   1.552   6.047 -0.0047  0.0457 -0.0522
 8407SOL    HW126120   2.320   1.592   6.137 -1.1025 -0.1916 -0.1469
 8407SOL    HW226121   2.254   1.512   6.011  0.8898 -1.7786 -0.2435
 8408SOL     OW26122   2.506   2.125   0.221  0.2577 -0.4200 -0.4276
 8408SOL    HW126123   2.588   2.117   0.278  0.4336 -0.1246 -0.6386
 8408SOL    HW226124   2.432   2.073   0.263  0.0339  0.7617  0.7267
 8409SOL     OW26125   4.441   1.116   4.424  0.3707 -0.1742 -0.0267
 8409SOL    HW126126   4.514   1.162   4.374 -1.7091  3.0304 -0.4100
 8409SOL    HW226127   4.463   1.116   4.522  0.2372  2.2903  0.0624
 8410SOL     OW26128   3.476   1.786   2.039  0.2028  0.1274 -0.1923
 8410SOL    HW126129   3.459   1.884   2.041 -1.5992 -0.1680  0.6684
 8410SOL    HW226130   3.390   1.736   2.035  0.9291 -1.4566  1.7483
 8411SOL     OW26131   1.516   4.509   4.875 -0.1536 -0.3848  0.1654
 8411SOL    HW126132   1.508   4.540   4.780  1.2047 -3.5460 -1.1428
 8411SOL    HW226133   1.613   4.496   4.898 -0.4971 -0.3107  1.7855
 8412SOL     OW26134   3.063   5.999   2.038 -0.2142  0.2044  0.0702
 8412SOL    HW126135   3.030   5.976   2.129 -0.4283 -1.2206 -0.3506
 8412SOL    HW226136   3.135   6.068   2.045 -0.2265  0.1078  1.3064
 8413SOL     OW26137   1.154   2.133   3.909 -0.2836  0.0636 -0.3329
 8413SOL    HW126138   1.079   2.128   3.843  0.1620  0.2701 -0.8618
 8413SOL    HW226139   1.119   2.114   4.001 -0.6995 -1.4677 -0.7671
 8414SOL     OW26140   2.556   4.870   0.303  0.1727  0.3034 -0.3515
 8414SOL    HW126141   2.558   4.810   0.384  1.6522 -0.6184 -1.0228
 8414SOL    HW226142   2.616   4.948   0.318  0.8471 -0.1311 -0.7262
 8415SOL     OW26143   1.712   4.832   2.259  0.3983 -0.1732 -0.2037
 8415SOL    HW126144   1.800   4.802   2.221  1.2816 -0.9945  2.3112
 8415SOL    HW226145   1.670   4.757   2.311 -0.6597  0.9050  0.5604
 8416SOL     OW26146   5.280   1.137   5.214 -0.0786 -0.0709  0.6776
 8416SOL    HW126147   5.327   1.124   5.126  0.8609  1.2551  0.9561
 8416SOL    HW226148   5.334   1.096   5.287 -1.3320 -2.0378  0.5741
 8417SOL     OW26149   2.646   3.981   6.405  0.3638  0.1308  0.1201
 8417SOL    HW126150   2.651   4.011   6.309  0.0430  0.8042  0.3079
 8417SOL    HW226151   2.588   4.044   6.456  0.8130 -0.0381  0.8383
 8418SOL     OW26152   4.296   2.217   0.139  0.2877  0.0358 -0.1546
 8418SOL    HW126153   4.274   2.250   0.231  0.3669 -0.3303  0.0006
 8418SOL    HW226154   4.325   2.121   0.145 -3.0102 -1.1363 -0.9566
 8419SOL     OW26155   6.600   0.643   1.666 -0.2907  0.1332 -0.2410
 8419SOL    HW126156   6.544   0.568   1.632  0.3986  0.4539 -2.2225
 8419SOL    HW226157   6.573   0.666   1.760  0.9519 -4.0275  1.3254
 8420SOL     OW26158   0.526   6.365   4.315 -0.6090  0.0177  0.2683
 8420SOL    HW126159   0.469   6.403   4.242 -1.5939 -0.9607  0.5249
 8420SOL    HW226160   0.590   6.299   4.276 -2.1541 -1.6587  0.4377
 8421SOL     OW26161   1.193   0.850   2.645  0.5714 -0.0930 -0.2686
 8421SOL    HW126162   1.238   0.763   2.625 -2.5203 -2.1305  0.8033
 8421SOL    HW226163   1.193   0.866   2.744 -1.5701 -0.5766 -0.1444
 8422SOL     OW26164   0.119   5.591   5.870 -0.6212  0.2507 -0.3481
 8422SOL    HW126165   0.153   5.666   5.927 -1.4902  0.0185  0.4985
 8422SOL    HW226166   0.079   5.628   5.786 -0.6088  0.7054 -0.1553
 8423SOL     OW26167   5.424   3.004   5.036 -0.0817  0.0762  0.3519
 8423SOL    HW126168   5.433   3.099   5.065  1.3483  0.1707 -0.3130
 8423SOL    HW226169   5.329   2.984   5.015 -0.1686  1.8923 -1.2586
 8424SOL     OW26170   4.222   6.157   3.004 -0.7291  0.4846  0.3107
 8424SOL    HW126171   4.258   6.070   2.973  2.5208  0.9244  2.3957
 8424SOL    HW226172   4.126   6.146   3.031 -0.0862 -2.8044  1.7259
 8425SOL     OW26173   2.702   4.920   0.770 -0.1058  0.0663 -0.0034
 8425SOL    HW126174   2.705   4.823   0.793  0.1172  0.3058  1.0440
 8425SOL    HW226175   2.617   4.941   0.723 -0.1559 -0.6328 -0.2366
 8426SOL     OW26176   1.691   1.134   2.236 -0.5491 -0.4089  0.2438
 8426SOL    HW126177   1.731   1.045   2.257  1.1486  0.1998 -0.2395
 8426SOL    HW226178   1.653   1.132   2.143  0.9076 -0.2058 -0.3874
 8427SOL     OW26179   0.724   6.660   0.109  0.0249  0.7811 -0.1619
 8427SOL    HW126180   0.699   6.590   0.042 -1.2198  0.1182  0.9464
 8427SOL    HW226181   0.779   6.619   0.181 -0.3372  1.0266  0.2643
 8428SOL     OW26182   4.649   0.769   1.045  0.2330 -0.4093  0.0064
 8428SOL    HW126183   4.590   0.775   1.126 -0.7027 -0.8548 -0.6286
 8428SOL    HW226184   4.671   0.673   1.027  0.9698 -0.2657  0.0912
 8429SOL     OW26185   6.583   3.380   1.720 -0.0752  0.2598 -0.3887
 8429SOL    HW126186   6.589   3.369   1.621 -0.5438 -0.5624 -0.3330
 8429SOL    HW226187   6.544   3.469   1.742 -0.1136  0.3789 -0.9414
 8430SOL     OW26188   2.279   4.431   0.686 -0.7659 -0.7236  0.0956
 8430SOL    HW126189   2.338   4.448   0.607 -0.8683  0.3454  0.2264
 8430SOL    HW226190   2.189   4.399   0.654 -0.7948 -0.3376 -0.2335
 8431SOL     OW26191   6.852   5.162   1.400 -0.0839 -0.0932  0.2112
 8431SOL    HW126192   6.773   5.154   1.460 -1.0893 -0.4715 -1.1202
 8431SOL    HW226193   6.879   5.258   1.393 -2.0319  0.4111 -1.2661
 8432SOL     OW26194   0.124   0.805   1.451  0.2619  0.2121 -0.3488
 8432SOL    HW126195   0.177   0.871   1.397 -1.2433  1.4004 -0.4459
 8432SOL    HW226196   0.030   0.801   1.415 -0.2137 -0.4999  0.9078
 8433SOL     OW26197   6.654   2.329   4.240  0.1619  0.5772 -0.2078
 8433SOL    HW126198   6.581   2.367   4.298 -0.1538  0.0347 -0.2472
 8433SOL    HW226199   6.666   2.232   4.261  0.4903  0.5337 -0.5978
 8434SOL     OW26200   0.938   6.093   5.398 -0.3121  0.0776  0.1037
 8434SOL    HW126201   0.928   6.139   5.310 -1.7191  1.3605  0.8825
 8434SOL    HW226202   1.034   6.072   5.414  0.2534  1.7601 -0.8126
 8435SOL     OW26203   5.850   5.378   0.424  0.2661  0.3910 -0.1953
 8435SOL    HW126204   5.886   5.355   0.515  0.4918  1.5564  0.0233
 8435SOL    HW226205   5.910   5.339   0.354  1.7114  1.8726  0.1679
 8436SOL     OW26206   6.915   5.420   1.480  0.5597  0.1666 -0.4460
 8436SOL    HW126207   6.892   5.513   1.453  1.0189  1.0842  2.0541
 8436SOL    HW226208   6.861   5.394   1.560 -0.8121 -2.4163 -2.0575
 8437SOL     OW26209   1.788   0.172   3.993 -0.6532  0.0701 -0.4519
 8437SOL    HW126210   1.812   0.269   3.989  0.4998 -0.2299 -1.9756
 8437SOL    HW226211   1.871   0.117   3.987 -1.2573 -1.0264  0.8936
 8438SOL     OW26212   1.072   1.514   3.833  0.4320  0.2811 -0.2557
 8438SOL    HW126213   1.135   1.444   3.867  0.8867 -0.1972 -1.9835
 8438SOL    HW226214   1.030   1.482   3.748 -1.0834  1.1959  0.1133
 8439SOL     OW26215   0.560   3.215   0.668 -0.6647 -0.2261  0.2507
 8439SOL    HW126216   0.524   3.127   0.636  0.6942 -1.3812  1.7279
 8439SOL    HW226217   0.613   3.201   0.751 -0.2742  2.0043  0.4435
 8440SOL     OW26218   4.616   0.358   5.650 -0.7679 -0.4800 -0.5272
 8440SOL    HW126219   4.565   0.405   5.578 -1.6191 -0.0316  0.3448
 8440SOL    HW226220   4.714   0.375   5.637 -1.0434  2.1807  0.1372
 8441SOL     OW26221   1.253   2.903   4.528  0.4308 -0.4497 -0.1364
 8441SOL    HW126222   1.154   2.894   4.539  0.3942  0.0897 -0.0370
 8441SOL    HW226223   1.273   2.937   4.436  0.3630  2.2699  0.7675
 8442SOL     OW26224   1.508   6.931   1.990 -0.0396  0.0466  0.7404
 8442SOL    HW126225   1.543   7.023   1.970  0.4338  0.2160  2.2750
 8442SOL    HW226226   1.445   6.935   2.067 -0.4753 -0.8526  0.4479
 8443SOL     OW26227   3.755   1.898   6.155  0.0539 -0.1976 -0.1050
 8443SOL    HW126228   3.783   1.837   6.081  3.2552  0.2363  0.6306
 8443SOL    HW226229   3.660   1.926   6.140 -0.0243 -1.6204 -2.9755
 8444SOL     OW26230   0.397   7.004   1.464 -0.2263  0.0953  0.2106
 8444SOL    HW126231   0.346   7.088   1.483  0.3389  0.6245 -0.5647
 8444SOL    HW226232   0.335   6.925   1.473 -0.8087  0.6047  0.7442
 8445SOL     OW26233   6.652   6.670   1.982  0.1479 -0.1592  0.2576
 8445SOL    HW126234   6.681   6.738   2.049  2.0358 -0.8671  0.2256
 8445SOL    HW226235   6.696   6.689   1.894 -0.8387 -0.3148 -0.2850
 8446SOL     OW26236   3.171   5.365   2.375  0.3189  0.2923 -0.3196
 8446SOL    HW126237   3.097   5.354   2.441  1.2601  1.7053  1.0252
 8446SOL    HW226238   3.201   5.275   2.342 -0.5446 -0.3980  0.7449
 8447SOL     OW26239   4.996   5.512   2.985 -0.5283  0.1040 -0.0981
 8447SOL    HW126240   5.054   5.586   3.020 -0.2319 -0.8472  1.5210
 8447SOL    HW226241   4.932   5.549   2.918 -0.8651  1.9936  1.1652
 8448SOL     OW26242   0.593   6.886   4.060 -0.1064 -0.4382 -1.0019
 8448SOL    HW126243   0.582   6.910   4.156  0.5942  2.5725 -1.5830
 8448SOL    HW226244   0.687   6.855   4.044 -0.0003 -0.1836 -0.8700
 8449SOL     OW26245   2.925   6.623   1.983  0.2087 -0.2721  0.0533
 8449SOL    HW126246   2.920   6.717   1.951  0.5692 -0.4512 -0.5530
 8449SOL    HW226247   2.991   6.616   2.057  0.2688 -0.0647  0.0200
 8450SOL     OW26248   2.897   5.752   1.552  0.0026 -0.0137 -0.0227
 8450SOL    HW126249   2.870   5.680   1.616  2.1210 -1.6791 -0.8640
 8450SOL    HW226250   2.904   5.714   1.460  1.0856  1.2833 -0.5116
 8451SOL     OW26251   3.479   6.787   3.337 -0.3481  0.3870  0.2409
 8451SOL    HW126252   3.537   6.760   3.414 -2.7506 -2.7697  1.2018
 8451SOL    HW226253   3.400   6.837   3.372 -0.7303  0.1988 -0.3455
 8452SOL     OW26254   5.460   6.311   1.942  0.4608 -0.1681 -0.9439
 8452SOL    HW126255   5.381   6.366   1.912  0.5683 -1.0658 -3.1028
 8452SOL    HW226256   5.432   6.247   2.013 -0.0537  1.4443  0.3748
 8453SOL     OW26257   6.049   4.797   3.219 -0.3059  0.7653 -0.1698
 8453SOL    HW126258   5.976   4.752   3.167  0.7696 -1.6057  0.2297
 8453SOL    HW226259   6.039   4.775   3.316  1.5994 -0.7178 -0.2498
 8454SOL     OW26260   4.522   6.392   0.975  0.3859  0.0262 -0.0763
 8454SOL    HW126261   4.594   6.343   1.025  2.0323 -0.8274 -3.0016
 8454SOL    HW226262   4.542   6.490   0.976  0.0966  0.0922  1.2879
 8455SOL     OW26263   4.291   6.214   1.168  0.1515 -0.1651  0.2474
 8455SOL    HW126264   4.328   6.154   1.239  1.3134 -1.1379 -1.1335
 8455SOL    HW226265   4.360   6.281   1.142  0.1050 -0.4568 -0.6585
 8456SOL     OW26266   0.393   6.544   5.001 -0.3984 -0.4225 -0.0556
 8456SOL    HW126267   0.327   6.601   4.953  0.5106 -0.1230 -0.9959
 8456SOL    HW226268   0.349   6.498   5.077 -1.3967  0.7106  0.0678
 8457SOL     OW26269   5.375   5.061   6.606  0.1152  0.1413  1.1175
 8457SOL    HW126270   5.350   4.969   6.575  0.3466  0.5783 -0.4330
 8457SOL    HW226271   5.472   5.063   6.629  0.6518  0.4781 -0.9375
 8458SOL     OW26272   3.645   1.956   1.430  0.2981 -0.5261  0.2020
 8458SOL    HW126273   3.653   1.871   1.377  1.6930  0.4470 -1.2594
 8458SOL    HW226274   3.726   2.013   1.414 -0.4821  0.9781  1.3469
 8459SOL     OW26275   2.360   4.772   0.525  0.3618  0.0454 -0.3293
 8459SOL    HW126276   2.433   4.722   0.571  0.5180 -0.5170 -1.1551
 8459SOL    HW226277   2.292   4.707   0.490 -1.2481  0.6018  1.5372
 8460SOL     OW26278   2.987   3.232   3.210  0.2537 -0.3980  0.1948
 8460SOL    HW126279   2.981   3.238   3.110 -0.5015  0.6344  0.2847
 8460SOL    HW226280   3.047   3.156   3.235  0.6054 -0.5568 -1.0437
 8461SOL     OW26281   0.618   6.420   6.394  0.1923 -0.1757 -0.0712
 8461SOL    HW126282   0.529   6.395   6.357 -0.6234  0.4306  1.3910
 8461SOL    HW226283   0.688   6.358   6.359 -0.7744 -0.5714 -1.3492
 8462SOL     OW26284   1.517   6.017   1.071  0.3026 -0.1491  0.0233
 8462SOL    HW126285   1.424   6.047   1.094  0.2756 -0.7095  0.6642
 8462SOL    HW226286   1.576   6.032   1.150  0.4096 -1.2588  0.1685
 8463SOL     OW26287   5.996   1.323   2.027 -0.6146 -0.5466  0.3545
 8463SOL    HW126288   5.958   1.232   2.007 -1.9811 -0.0300  0.4999
 8463SOL    HW226289   5.939   1.392   1.984  0.0374  0.2866  0.8137
 8464SOL     OW26290   5.635   1.498   6.683  0.0415 -0.2009  0.4599
 8464SOL    HW126291   5.547   1.523   6.724 -0.0856 -1.1167  0.7732
 8464SOL    HW226292   5.708   1.509   6.750  0.2758  1.1241  0.0277
 8465SOL     OW26293   3.083   5.839   6.930  0.5425  0.0719 -0.0027
 8465SOL    HW126294   3.050   5.909   6.867 -1.7112 -1.6074 -0.8415
 8465SOL    HW226295   3.011   5.816   6.995  1.5079 -0.9144  0.7683
 8466SOL     OW26296   4.887   0.834   3.611 -0.3849  0.9895 -0.1499
 8466SOL    HW126297   4.900   0.815   3.514 -0.7639  1.4344 -0.2930
 8466SOL    HW226298   4.971   0.811   3.661 -0.7641 -0.8637 -0.3173
 8467SOL     OW26299   1.586   1.582   1.106 -0.1555 -0.1132 -0.2198
 8467SOL    HW126300   1.613   1.579   1.202 -0.7597 -1.4166 -0.0688
 8467SOL    HW226301   1.662   1.616   1.051  0.1053  0.9155  0.7309
 8468SOL     OW26302   5.111   4.854   2.871  0.3641 -0.2509 -0.1564
 8468SOL    HW126303   5.063   4.795   2.806  0.2457  0.4614 -0.7302
 8468SOL    HW226304   5.108   4.812   2.962  1.3732 -1.7377 -0.7647
 8469SOL     OW26305   6.654   0.399   5.651 -0.6648 -0.4351  0.7150
 8469SOL    HW126306   6.559   0.431   5.658 -0.4175  0.0974  1.8368
 8469SOL    HW226307   6.702   0.418   5.737  0.6688 -0.0276 -0.0927
 8470SOL     OW26308   0.547   3.237   3.772  0.3843 -0.2049  0.2012
 8470SOL    HW126309   0.554   3.143   3.739 -0.0655 -0.4884  0.8895
 8470SOL    HW226310   0.579   3.299   3.701  0.3646 -0.8546 -0.3925
 8471SOL     OW26311   3.069   1.934   4.440 -0.3357 -0.4861 -0.4515
 8471SOL    HW126312   3.091   1.924   4.537 -1.6058 -0.3872 -0.1419
 8471SOL    HW226313   3.126   2.005   4.399 -0.6232  0.2961  0.4994
 8472SOL     OW26314   5.734   5.903   4.535  0.3209 -0.0056  0.0836
 8472SOL    HW126315   5.773   5.956   4.460 -0.0045 -0.2923 -0.2951
 8472SOL    HW226316   5.667   5.959   4.585 -3.9279 -1.3714 -3.3732
 8473SOL     OW26317   1.364   1.307   4.484 -0.3862 -0.0016 -0.0625
 8473SOL    HW126318   1.287   1.368   4.504  1.4346  1.8877  1.7651
 8473SOL    HW226319   1.333   1.212   4.490 -2.4018  0.6598  1.4957
 8474SOL     OW26320   1.161   6.410   0.322  0.0159 -0.2078  0.2275
 8474SOL    HW126321   1.231   6.465   0.366  0.9999 -1.3704  0.1524
 8474SOL    HW226322   1.196   6.319   0.304 -0.7582 -0.1406 -1.8794
 8475SOL     OW26323   5.702   2.116   3.123  0.0253 -0.1494  0.1775
 8475SOL    HW126324   5.722   2.034   3.068  0.8655  0.3694 -0.3226
 8475SOL    HW226325   5.641   2.176   3.071  0.8802  0.3760 -0.2397
 8476SOL     OW26326   4.504   1.491   2.780 -0.3062 -0.1499 -0.0091
 8476SOL    HW126327   4.430   1.549   2.745 -1.3447 -0.2741  1.8758
 8476SOL    HW226328   4.490   1.397   2.750 -1.1299 -0.2378  0.6153
 8477SOL     OW26329   0.810   2.572   2.424  0.7469 -0.5041  0.0421
 8477SOL    HW126330   0.786   2.584   2.520 -0.5211 -2.9246  0.1131
 8477SOL    HW226331   0.887   2.508   2.416  0.1578 -1.1517 -0.5719
 8478SOL     OW26332   5.059   1.288   6.063 -0.2325  0.0543  0.3603
 8478SOL    HW126333   4.979   1.239   6.029 -1.2611  1.0737  1.2279
 8478SOL    HW226334   5.051   1.385   6.041  0.5359  0.2467  0.8700
 8479SOL     OW26335   0.030   6.929   5.316  0.0753  0.1394  0.1033
 8479SOL    HW126336   0.012   6.947   5.412  1.5196 -0.7632  0.5722
 8479SOL    HW226337  -0.056   6.935   5.264 -0.5688  1.5162  1.2797
 8480SOL     OW26338   1.852   4.274   2.158  0.0410 -0.2568  0.2038
 8480SOL    HW126339   1.895   4.306   2.242  0.6868  0.1835 -0.2817
 8480SOL    HW226340   1.887   4.327   2.081  0.4900 -1.5515 -0.5172
 8481SOL     OW26341   6.938   4.094   5.871  0.7414 -0.8801 -0.5935
 8481SOL    HW126342   6.957   4.030   5.796  1.1145  0.0861 -1.3480
 8481SOL    HW226343   7.020   4.149   5.888  0.7788 -1.3498  0.7946
 8482SOL     OW26344   5.617   4.467   0.268  0.3251  0.1977 -0.2545
 8482SOL    HW126345   5.589   4.415   0.187 -0.0959 -0.8365  0.5455
 8482SOL    HW226346   5.655   4.555   0.239  0.6483 -0.3636 -1.6017
 8483SOL     OW26347   4.910   4.953   4.322  0.3277  0.0186  0.1188
 8483SOL    HW126348   4.992   5.010   4.309 -0.1935  0.4031 -1.8564
 8483SOL    HW226349   4.873   4.968   4.413  1.4045  1.2458  0.3855
 8484SOL     OW26350   4.858   3.736   5.429 -0.2922  0.0204 -0.3728
 8484SOL    HW126351   4.936   3.779   5.475  0.3133  1.5135 -2.6679
 8484SOL    HW226352   4.777   3.793   5.441 -0.2818  0.0944 -0.6653
 8485SOL     OW26353   3.247   4.503   6.859 -0.2955 -0.2308  0.1352
 8485SOL    HW126354   3.236   4.413   6.902 -0.8002 -0.5052 -0.5503
 8485SOL    HW226355   3.168   4.521   6.800  0.5228  0.0047 -0.9106
 8486SOL     OW26356   3.850   5.417   6.573 -0.3129 -0.3278  0.0451
 8486SOL    HW126357   3.921   5.482   6.602 -1.6210  0.5596  1.4312
 8486SOL    HW226358   3.807   5.377   6.654 -1.5431 -0.6637 -0.7533
 8487SOL     OW26359   2.367   1.480   0.100 -0.1143  0.4696 -0.4804
 8487SOL    HW126360   2.307   1.559   0.114 -1.1951 -0.6926  2.3344
 8487SOL    HW226361   2.462   1.506   0.118 -0.0749  1.6488 -2.1168
 8488SOL     OW26362   1.480   2.263   6.646 -0.3822 -0.2475 -0.1146
 8488SOL    HW126363   1.518   2.330   6.582  0.6920 -0.5847  0.1472
 8488SOL    HW226364   1.445   2.310   6.727  1.0607 -0.0151  0.4164
 8489SOL     OW26365   0.256   5.223   1.864  0.2433  0.1009  0.1637
 8489SOL    HW126366   0.208   5.169   1.794 -1.2181 -0.0870  1.2428
 8489SOL    HW226367   0.222   5.317   1.862  0.7199  0.2710  0.1390
 8490SOL     OW26368   0.204   5.816   6.015 -0.1905 -0.0815  0.4782
 8490SOL    HW126369   0.303   5.827   6.007 -0.0300 -1.8015 -0.3984
 8490SOL    HW226370   0.175   5.840   6.108  1.5695 -2.6114  1.7937
 8491SOL     OW26371   3.976   6.195   4.846  0.5691 -0.3254  0.3399
 8491SOL    HW126372   3.944   6.113   4.799  3.0473 -0.6398 -0.9880
 8491SOL    HW226373   3.903   6.263   4.850 -0.8273 -1.7327 -0.6280
 8492SOL     OW26374   1.257   2.329   2.657  0.1216  0.3245  0.2361
 8492SOL    HW126375   1.322   2.384   2.709  0.2411 -0.6097  1.0932
 8492SOL    HW226376   1.203   2.272   2.719  0.1419 -0.6892 -0.6431
 8493SOL     OW26377   1.585   6.091   3.613 -0.1580  0.0555  0.1651
 8493SOL    HW126378   1.554   6.074   3.707  0.6580  0.0527  0.4393
 8493SOL    HW226379   1.655   6.024   3.589  0.0631  0.4281 -0.2345
 8494SOL     OW26380   4.716   5.129   4.271 -0.1197 -0.1928 -1.0764
 8494SOL    HW126381   4.777   5.049   4.273 -0.0720 -0.1423  0.1718
 8494SOL    HW226382   4.621   5.099   4.277 -0.1326 -0.1919 -1.2828
 8495SOL     OW26383   5.691   3.401   3.212  0.2138 -0.5016 -0.4083
 8495SOL    HW126384   5.691   3.311   3.167  0.6756 -0.8362  0.2432
 8495SOL    HW226385   5.713   3.472   3.145  2.6649 -1.1699 -0.4269
 8496SOL     OW26386   6.291   4.760   1.240  0.2795 -0.4394  0.6749
 8496SOL    HW126387   6.334   4.828   1.300 -2.3111  0.5632  1.5767
 8496SOL    HW226388   6.360   4.717   1.183  2.1469  2.6021  0.3912
 8497SOL     OW26389   2.059   4.282   4.373  0.2642 -0.0394 -0.5163
 8497SOL    HW126390   2.106   4.371   4.374 -1.4934  0.9460  0.6799
 8497SOL    HW226391   2.124   4.210   4.395  1.4263  1.1350  0.0770
 8498SOL     OW26392   1.048   6.395   5.210  0.4162  0.2096 -0.0191
 8498SOL    HW126393   1.120   6.455   5.244  0.4925 -0.1511  0.4620
 8498SOL    HW226394   1.087   6.329   5.145  0.4350  0.3032 -0.1040
 8499SOL     OW26395   2.115   5.537   6.320 -0.1507  0.0502 -0.0276
 8499SOL    HW126396   2.152   5.619   6.276  0.4262 -0.7169 -0.9864
 8499SOL    HW226397   2.188   5.469   6.332 -0.7617 -0.5833  0.1586
 8500SOL     OW26398   6.945   6.193   1.407 -0.0841 -0.2790 -0.0723
 8500SOL    HW126399   6.854   6.196   1.367 -0.0048  1.0811 -0.2252
 8500SOL    HW226400   6.989   6.282   1.395  0.6692 -0.4234  1.3693
 8501SOL     OW26401   5.925   6.561   4.979  0.1991  0.1554  0.6150
 8501SOL    HW126402   5.827   6.576   4.973  0.1813  1.4063  3.1638
 8501SOL    HW226403   5.973   6.631   4.926 -0.2526  0.4888  0.6408
 8502SOL     OW26404   4.785   2.811   4.925 -0.3559 -0.1746  0.3005
 8502SOL    HW126405   4.828   2.884   4.871 -1.6381  1.7221  1.6847
 8502SOL    HW226406   4.736   2.748   4.865 -0.7241  1.1566 -0.8433
 8503SOL     OW26407   4.952   1.756   6.291 -0.3202  0.2545 -0.4350
 8503SOL    HW126408   4.909   1.740   6.379 -0.0161 -1.6544 -0.5790
 8503SOL    HW226409   5.051   1.767   6.304  0.3504 -3.9085 -0.7411
 8504SOL     OW26410   2.981   1.496   1.139 -0.6694 -0.5951 -0.2355
 8504SOL    HW126411   2.931   1.410   1.134 -2.4615  0.2955  1.2696
 8504SOL    HW226412   2.947   1.559   1.069  0.3324 -0.9109 -1.0406
 8505SOL     OW26413   5.174   5.873   0.647  0.7417 -0.4570 -0.4600
 8505SOL    HW126414   5.094   5.815   0.667  0.5119  0.8226  2.9612
 8505SOL    HW226415   5.256   5.816   0.645  0.1496 -1.3306 -0.6602
 8506SOL     OW26416   3.312   4.004   5.914  0.3002 -0.1790 -0.7632
 8506SOL    HW126417   3.386   4.068   5.932 -1.1707  2.3824 -3.0106
 8506SOL    HW226418   3.239   4.018   5.980  0.4851 -0.4416 -0.4997
 8507SOL     OW26419   2.741   1.855   1.424  0.5636 -0.1712  1.0529
 8507SOL    HW126420   2.840   1.849   1.438  0.9844 -1.9379 -1.8704
 8507SOL    HW226421   2.695   1.853   1.513  3.1254  1.1872  2.5199
 8508SOL     OW26422   7.017   1.239   0.814  0.2759  0.0366 -0.3725
 8508SOL    HW126423   7.104   1.226   0.862  0.4163  0.5732 -0.4676
 8508SOL    HW226424   6.945   1.258   0.880  0.9466  3.4640 -0.4051
 8509SOL     OW26425   2.289   5.124   6.430 -0.2408 -0.6302  0.0683
 8509SOL    HW126426   2.196   5.130   6.465  0.0120 -0.6529  0.7409
 8509SOL    HW226427   2.354   5.137   6.504  0.3094 -2.1840 -0.0970
 8510SOL     OW26428   3.560   1.863   3.801 -1.1624  0.2945  0.3281
 8510SOL    HW126429   3.561   1.962   3.789  2.0246  0.3153  0.0225
 8510SOL    HW226430   3.605   1.839   3.887  0.2354 -0.9279 -0.6833
 8511SOL     OW26431   4.062   5.292   2.495 -0.5198 -0.4180  0.3547
 8511SOL    HW126432   3.968   5.317   2.520  0.0583 -0.2734  2.5132
 8511SOL    HW226433   4.061   5.204   2.449 -1.7046 -0.4450  0.3931
 8512SOL     OW26434   0.415   3.832   3.493 -0.0009  0.2628 -0.4323
 8512SOL    HW126435   0.388   3.737   3.509 -1.4838  0.6165 -0.6353
 8512SOL    HW226436   0.428   3.878   3.581 -1.3407  0.3878 -0.2649
 8513SOL     OW26437   3.851   3.564   3.519  0.0385  0.0383 -0.1615
 8513SOL    HW126438   3.820   3.659   3.512 -3.0974 -0.8820 -0.2796
 8513SOL    HW226439   3.891   3.536   3.432 -1.7301  0.4542 -1.1683
 8514SOL     OW26440   5.284   0.633   1.331  0.0747 -0.4969 -0.1230
 8514SOL    HW126441   5.247   0.542   1.313 -0.2083 -0.1232 -1.5298
 8514SOL    HW226442   5.243   0.699   1.268  0.8126  0.4893  0.3947
 8515SOL     OW26443   3.001   6.761   4.007  0.2499 -0.4508  0.7460
 8515SOL    HW126444   3.073   6.786   3.941 -0.4311  2.3029  0.9047
 8515SOL    HW226445   2.935   6.835   4.012 -2.4653 -2.7411  0.8898
 8516SOL     OW26446   0.569   0.780   6.502 -0.7944  0.1068  0.2474
 8516SOL    HW126447   0.574   0.686   6.536  0.4675  0.1820  0.2845
 8516SOL    HW226448   0.654   0.804   6.456 -1.2792  1.0860 -0.1778
 8517SOL     OW26449   5.188   0.247   0.195  0.0511 -0.1725  0.8424
 8517SOL    HW126450   5.094   0.255   0.162  0.6013  0.7301 -0.5969
 8517SOL    HW226451   5.216   0.334   0.236  0.6704  0.0171  0.0519
 8518SOL     OW26452   0.753   4.735   4.037  0.5465 -0.1189  0.4718
 8518SOL    HW126453   0.675   4.692   4.084  0.1280 -0.0703 -0.1655
 8518SOL    HW226454   0.827   4.668   4.027 -0.8223 -1.4193 -2.2887
 8519SOL     OW26455   6.452   4.731   6.250  0.0300  0.5018 -0.3314
 8519SOL    HW126456   6.438   4.806   6.185  0.4599 -0.2482 -1.3274
 8519SOL    HW226457   6.509   4.661   6.207 -0.2058 -0.3110  0.6498
 8520SOL     OW26458   3.145   6.395   1.156 -0.2150 -0.3782  0.5686
 8520SOL    HW126459   3.239   6.419   1.133 -0.4665  0.4757  0.3963
 8520SOL    HW226460   3.082   6.458   1.110 -0.9647 -2.0325 -0.8140
 8521SOL     OW26461   2.897   3.905   5.299 -0.0952 -0.7720  0.3685
 8521SOL    HW126462   2.802   3.930   5.317  0.4864  1.3328  0.7819
 8521SOL    HW226463   2.954   3.934   5.376  0.8329 -2.4349  0.3400
 8522SOL     OW26464   1.024   1.012   6.906  0.0212  0.5095 -0.0648
 8522SOL    HW126465   0.955   1.073   6.945 -1.7213  0.4698 -2.8065
 8522SOL    HW226466   1.102   1.066   6.874  0.4042  0.7871  1.3037
 8523SOL     OW26467   3.117   2.110   2.930  0.3464 -0.1493 -0.1125
 8523SOL    HW126468   3.037   2.152   2.887  0.9404  1.5516  0.3622
 8523SOL    HW226469   3.114   2.127   3.028  1.9468  1.1459 -0.2471
 8524SOL     OW26470   0.160   6.431   1.821  0.0846 -0.1825  0.2413
 8524SOL    HW126471   0.135   6.358   1.757 -0.7728  1.2185 -1.0887
 8524SOL    HW226472   0.227   6.396   1.886 -0.6951 -2.2957 -0.0100
 8525SOL     OW26473   3.834   4.749   1.162  1.0895 -0.3949  0.4205
 8525SOL    HW126474   3.748   4.799   1.152  0.4931 -1.0427  2.0458
 8525SOL    HW226475   3.862   4.713   1.073  0.2565  0.7210 -0.3224
 8526SOL     OW26476   0.664   4.276   1.434 -0.4571  0.1868  0.6934
 8526SOL    HW126477   0.735   4.290   1.365  0.8496 -0.5028  1.8581
 8526SOL    HW226478   0.648   4.178   1.446 -1.2402  0.3215  0.8213
 8527SOL     OW26479   3.295   1.187   3.828 -0.0002  0.4294  0.4039
 8527SOL    HW126480   3.245   1.115   3.876 -0.2758 -0.7997 -1.6060
 8527SOL    HW226481   3.231   1.259   3.800  0.1403  1.0843  1.6978
 8528SOL     OW26482   4.803   4.248   1.950 -0.0852  0.4479 -0.2503
 8528SOL    HW126483   4.706   4.248   1.974  0.0668 -0.1122  0.3606
 8528SOL    HW226484   4.842   4.158   1.966  0.8208  0.9834  0.6683
 8529SOL     OW26485   5.998   6.235   0.708 -0.2239  0.2820  0.1876
 8529SOL    HW126486   6.015   6.193   0.618  1.3629 -0.2960  0.7221
 8529SOL    HW226487   5.913   6.288   0.704 -0.9586 -0.9062 -1.2417
 8530SOL     OW26488   3.285   3.847   3.886  0.2997  0.1887  0.2516
 8530SOL    HW126489   3.375   3.806   3.870 -1.4433 -3.0683 -2.4406
 8530SOL    HW226490   3.223   3.778   3.923 -1.8199  1.5594 -0.5350
 8531SOL     OW26491   3.425   0.351   1.407 -0.2884 -0.0619  0.1679
 8531SOL    HW126492   3.448   0.447   1.390 -1.6457  1.0248  3.4934
 8531SOL    HW226493   3.508   0.297   1.417  0.5003  0.9355 -0.8099
 8532SOL     OW26494   3.829   0.910   0.717  0.2218  0.5692 -0.4875
 8532SOL    HW126495   3.765   0.914   0.794  0.0705 -0.5641 -0.5426
 8532SOL    HW226496   3.916   0.951   0.745  1.0884 -2.1788  1.2367
 8533SOL     OW26497   1.388   6.945   0.249  0.0725 -0.3262 -0.2678
 8533SOL    HW126498   1.453   6.965   0.322  1.1915  1.1702 -1.6193
 8533SOL    HW226499   1.363   7.029   0.202 -0.5973 -1.2502 -1.6515
 8534SOL     OW26500   4.596   0.991   0.021 -0.0210  0.4794  0.4513
 8534SOL    HW126501   4.693   1.015   0.031  0.2886 -0.9408  0.9812
 8534SOL    HW226502   4.546   1.020   0.102  0.4324 -0.9656  1.2851
 8535SOL     OW26503   5.833   3.885   3.380 -0.1393  0.8629  0.5511
 8535SOL    HW126504   5.876   3.860   3.293 -2.8225 -0.7894 -0.4666
 8535SOL    HW226505   5.735   3.901   3.364 -0.5234  1.4468  3.1333
 8536SOL     OW26506   4.867   3.613   5.697  0.4507  0.2507 -0.2860
 8536SOL    HW126507   4.894   3.580   5.606 -0.2523 -0.0377 -0.3965
 8536SOL    HW226508   4.831   3.706   5.689 -2.6024 -0.8580 -0.8537
 8537SOL     OW26509   0.807   1.844   4.133  0.4550 -0.4283  0.1148
 8537SOL    HW126510   0.797   1.747   4.109 -1.3480 -0.9528  2.5835
 8537SOL    HW226511   0.779   1.900   4.055  1.9260 -1.8433 -1.5137
 8538SOL     OW26512   5.774   1.233   1.787 -0.3203  0.6757 -0.0559
 8538SOL    HW126513   5.683   1.259   1.820  0.2020 -0.0222  2.0637
 8538SOL    HW226514   5.774   1.136   1.762 -0.1959  0.7212 -0.2360
 8539SOL     OW26515   5.240   5.416   2.782 -0.0731  0.4747  0.0456
 8539SOL    HW126516   5.204   5.464   2.862 -1.6055  0.1814 -0.4435
 8539SOL    HW226517   5.179   5.341   2.757 -0.1164  1.1026 -1.9151
 8540SOL     OW26518   4.914   6.070   1.942 -0.1312 -0.0836 -0.6122
 8540SOL    HW126519   4.941   5.976   1.923 -0.6042 -0.4856  0.5712
 8540SOL    HW226520   4.952   6.131   1.872 -1.3800 -1.3607 -2.5174
 8541SOL     OW26521   6.626   3.685   1.019 -0.4420 -0.4117 -0.0881
 8541SOL    HW126522   6.724   3.670   1.031 -0.3209  0.0883 -0.4050
 8541SOL    HW226523   6.575   3.608   1.058  0.1499 -1.7172 -1.7804
 8542SOL     OW26524   3.484   0.593   7.015 -0.5807 -0.0253  0.3571
 8542SOL    HW126525   3.514   0.536   7.092  0.6990  0.9731  0.6212
 8542SOL    HW226526   3.434   0.536   6.950 -3.3741 -0.5841  2.7618
 8543SOL     OW26527   3.140   3.921   6.569 -0.0030 -0.4052 -0.3622
 8543SOL    HW126528   3.209   3.985   6.535  1.5776 -0.5973  2.2262
 8543SOL    HW226529   3.062   3.973   6.605  0.5129  0.0302  0.1614
 8544SOL     OW26530   5.411   2.842   5.802 -0.0323  0.3453 -0.5444
 8544SOL    HW126531   5.406   2.858   5.900  0.6564 -1.3155 -0.2033
 8544SOL    HW226532   5.320   2.852   5.761 -0.5108  0.0241  0.4293
 8545SOL     OW26533   3.876   1.921   3.147  0.4305 -0.2196  0.2993
 8545SOL    HW126534   3.945   1.880   3.206  2.2603  0.0854 -1.4930
 8545SOL    HW226535   3.796   1.860   3.142  1.2405 -1.4093  1.1416
 8546SOL     OW26536   5.644   5.695   1.890  0.1739  1.0466  0.1970
 8546SOL    HW126537   5.723   5.674   1.947  0.4413 -0.9237 -0.8174
 8546SOL    HW226538   5.574   5.739   1.946  1.0717  0.6948  1.6520
 8547SOL     OW26539   0.098   1.331   6.337 -0.1998 -0.3970  0.6323
 8547SOL    HW126540   0.133   1.358   6.427 -0.3114 -1.9885  1.1980
 8547SOL    HW226541   0.155   1.371   6.266  0.4457  0.1563  1.4391
 8548SOL     OW26542   6.955   5.824   2.305  0.2074 -0.1502  0.1831
 8548SOL    HW126543   6.986   5.919   2.314 -3.0140  0.9307  1.1773
 8548SOL    HW226544   7.033   5.766   2.277  2.2487  2.7430 -0.6308
 8549SOL     OW26545   1.405   5.225   2.792  0.0213 -0.2339 -0.1145
 8549SOL    HW126546   1.468   5.296   2.761 -1.4684  0.2846 -2.1881
 8549SOL    HW226547   1.423   5.140   2.744  0.9065 -0.9082  1.3538
 8550SOL     OW26548   2.037   3.865   0.234 -0.0151 -0.0798  0.0484
 8550SOL    HW126549   2.103   3.789   0.233  1.7257  1.3637 -0.2935
 8550SOL    HW226550   1.973   3.853   0.310  1.6531 -0.7289  1.4280
 8551SOL     OW26551   6.278   5.223   0.032 -0.0447 -0.4186 -0.3353
 8551SOL    HW126552   6.330   5.298  -0.011  1.8407  0.5065  3.1499
 8551SOL    HW226553   6.341   5.152   0.063 -1.4138 -1.5999 -0.1461
 8552SOL     OW26554   4.851   2.900   2.233 -0.0467  0.0491  0.2521
 8552SOL    HW126555   4.793   2.952   2.171 -2.4886 -2.5153  0.2013
 8552SOL    HW226556   4.908   2.837   2.180  0.1263  0.0129  0.4808
 8553SOL     OW26557   0.332   5.519   2.144  0.5632  0.0954 -0.1899
 8553SOL    HW126558   0.318   5.617   2.160 -1.0379 -0.3136  1.1182
 8553SOL    HW226559   0.247   5.469   2.161  1.6620 -1.6755  0.4302
 8554SOL     OW26560   0.836   5.202   1.782  0.1337 -0.1893 -0.3180
 8554SOL    HW126561   0.909   5.270   1.772  0.0133  0.1595  0.9149
 8554SOL    HW226562   0.797   5.210   1.874 -0.4828 -1.3461 -0.4673
 8555SOL     OW26563   2.987   6.107   3.590  0.0378 -0.3258  0.9738
 8555SOL    HW126564   3.055   6.179   3.573 -0.2868 -0.5572 -1.9588
 8555SOL    HW226565   3.032   6.027   3.628  1.0459  0.2544  1.0505
 8556SOL     OW26566   0.869   5.291   3.044 -0.0220  0.1142 -0.0512
 8556SOL    HW126567   0.909   5.382   3.052  0.8423 -0.1308 -1.3462
 8556SOL    HW226568   0.892   5.252   2.955 -1.0634 -1.0519  0.1659
 8557SOL     OW26569   4.117   6.053   1.310 -0.3253  0.4597  0.2565
 8557SOL    HW126570   4.037   6.026   1.257 -0.6622  2.1981 -0.1790
 8557SOL    HW226571   4.179   6.105   1.252  1.6899 -1.7322  0.2787
 8558SOL     OW26572   2.380   1.156   1.068  0.6755 -0.1355  0.0439
 8558SOL    HW126573   2.469   1.179   1.029  1.8117 -2.1627  1.2522
 8558SOL    HW226574   2.367   1.207   1.153 -0.1410  1.4680 -0.9988
 8559SOL     OW26575   1.696   3.482   5.813  0.4151 -0.1818  0.1420
 8559SOL    HW126576   1.651   3.451   5.896  2.2695 -1.6765  0.6477
 8559SOL    HW226577   1.717   3.403   5.755  2.1745  0.4563 -0.1535
 8560SOL     OW26578   0.021   6.989   5.579  0.4007 -0.3093 -0.6460
 8560SOL    HW126579  -0.011   6.917   5.641  2.2304  0.6370  1.5282
 8560SOL    HW226580  -0.052   7.055   5.564  0.0244 -0.3450  0.8700
 8561SOL     OW26581   4.070   1.173   4.661  0.2964  0.3707  0.4455
 8561SOL    HW126582   4.062   1.251   4.599  0.6079  1.0956  1.2938
 8561SOL    HW226583   4.042   1.089   4.613  1.2752  0.7821 -0.9240
 8562SOL     OW26584   4.922   3.873   2.786  0.6640  0.3502  0.1744
 8562SOL    HW126585   4.902   3.837   2.877 -2.2483 -1.1750 -0.9295
 8562SOL    HW226586   4.880   3.963   2.775 -0.6004 -0.2597 -0.1958
 8563SOL     OW26587   4.114   6.752   2.689  0.1736  0.6673 -0.1065
 8563SOL    HW126588   4.186   6.806   2.646 -0.0888  0.5850 -0.6530
 8563SOL    HW226589   4.028   6.765   2.640  0.3329 -1.0773 -0.9515
 8564SOL     OW26590   2.129   3.899   5.205  0.0943 -0.7479 -0.5603
 8564SOL    HW126591   2.173   3.833   5.266  0.1114  0.4785  0.8114
 8564SOL    HW226592   2.198   3.941   5.146  0.3313 -0.8105 -0.3279
 8565SOL     OW26593   6.519   4.420   4.597  0.3125 -0.4579  0.0913
 8565SOL    HW126594   6.613   4.387   4.586  0.2911 -0.2987 -0.6205
 8565SOL    HW226595   6.520   4.506   4.648  0.9026  1.2986 -2.6624
 8566SOL     OW26596   3.158   1.420   3.002 -0.0485  0.4086 -0.1740
 8566SOL    HW126597   3.093   1.461   3.066 -0.4446  0.3015 -0.4984
 8566SOL    HW226598   3.108   1.362   2.937  0.4549 -0.2721  0.0314
 8567SOL     OW26599   6.809   5.539   4.672 -0.4723  0.3056 -0.0597
 8567SOL    HW126600   6.816   5.582   4.582 -0.5680  0.1803 -0.1288
 8567SOL    HW226601   6.877   5.466   4.679  0.8645  1.5798  0.6991
 8568SOL     OW26602   4.035   3.260   2.984  0.0379 -0.0833  0.2778
 8568SOL    HW126603   4.083   3.218   2.907 -0.3983 -2.5243  1.2152
 8568SOL    HW226604   4.080   3.345   3.010  1.2471 -0.1150 -1.5285
 8569SOL     OW26605   1.109   6.220   1.587 -0.7694 -0.4951 -0.8329
 8569SOL    HW126606   1.170   6.141   1.598 -1.0936 -0.7044 -0.4706
 8569SOL    HW226607   1.123   6.262   1.498 -0.6899 -1.0536 -1.0878
 8570SOL     OW26608   4.056   3.868   6.976  0.4244 -0.8564 -0.1318
 8570SOL    HW126609   4.000   3.890   7.056 -0.4590  0.9084 -1.1697
 8570SOL    HW226610   4.152   3.874   7.000  0.2058 -2.5080  1.3192
 8571SOL     OW26611   0.844   0.606   6.141  0.5857 -0.3130  0.3530
 8571SOL    HW126612   0.832   0.705   6.133  1.6010 -0.2991 -1.3704
 8571SOL    HW226613   0.941   0.584   6.148  0.5478 -1.2813 -1.5051
 8572SOL     OW26614   4.907   2.970   6.249 -0.4338 -0.0737 -0.0311
 8572SOL    HW126615   4.883   3.052   6.198 -0.4053  1.0522  1.6623
 8572SOL    HW226616   4.885   2.888   6.195 -0.3466  1.0309 -1.8034
 8573SOL     OW26617   5.085   2.153   5.007 -0.0063 -0.5901 -0.1521
 8573SOL    HW126618   4.994   2.132   4.973 -0.6272  2.1321 -0.4323
 8573SOL    HW226619   5.136   2.205   4.938  0.3563  1.1403  1.3393
 8574SOL     OW26620   4.749   2.857   4.123  0.0876 -0.6054  0.2797
 8574SOL    HW126621   4.783   2.952   4.127 -0.3998 -0.4784  2.1537
 8574SOL    HW226622   4.762   2.822   4.030 -0.0174  1.3997 -0.5595
 8575SOL     OW26623   2.135   2.865   2.743  0.1208  0.1003  0.4933
 8575SOL    HW126624   2.111   2.768   2.736 -1.8214  0.6167 -1.1382
 8575SOL    HW226625   2.169   2.897   2.655  0.2908  1.0076  0.8853
 8576SOL     OW26626   1.912   1.725   4.829  0.1970  0.4666 -0.0954
 8576SOL    HW126627   1.959   1.656   4.885  0.2327 -0.6331 -1.4037
 8576SOL    HW226628   1.872   1.680   4.749 -0.2414  1.9098 -0.7146
 8577SOL     OW26629   4.461   0.873   6.284 -0.6863  0.7633  0.0436
 8577SOL    HW126630   4.428   0.780   6.300 -2.8499  1.1978 -1.5646
 8577SOL    HW226631   4.421   0.934   6.351  1.1612  0.5377  1.4486
 8578SOL     OW26632   3.109   6.530   1.472  0.4133 -0.5555 -0.0965
 8578SOL    HW126633   3.058   6.522   1.557  0.2285  2.2356  0.1436
 8578SOL    HW226634   3.046   6.526   1.394 -0.1186  1.8578  0.1548
 8579SOL     OW26635   2.868   1.263   1.071 -0.1384 -0.0959 -0.3434
 8579SOL    HW126636   2.856   1.199   1.147  1.1424  0.0411 -0.0004
 8579SOL    HW226637   2.782   1.272   1.021 -1.9653  2.0126  2.8090
 8580SOL     OW26638   6.194   1.138   3.014  0.0156  0.5899  1.0072
 8580SOL    HW126639   6.119   1.101   3.070  0.0996 -0.3081  0.5425
 8580SOL    HW226640   6.257   1.189   3.073 -0.9899  1.4420  1.3973
 8581SOL     OW26641   5.834   2.234   6.703 -0.1889  0.5184 -0.5719
 8581SOL    HW126642   5.842   2.189   6.792  0.9495  0.7806 -0.5217
 8581SOL    HW226643   5.925   2.245   6.663 -0.2175  4.0126  0.0249
 8582SOL     OW26644   6.140   3.063   2.142  0.1570  0.0111 -0.3394
 8582SOL    HW126645   6.070   2.998   2.172  0.9831 -0.7019  0.0967
 8582SOL    HW226646   6.106   3.157   2.153 -1.1297 -0.3374 -1.1769
 8583SOL     OW26647   1.285   0.633   2.998  0.2433 -0.1367  0.1420
 8583SOL    HW126648   1.350   0.567   3.036 -0.4341 -1.3673 -0.7810
 8583SOL    HW226649   1.234   0.676   3.072 -0.0903 -1.4809  0.7113
 8584SOL     OW26650   2.342   1.649   0.756  0.0846 -0.5478  0.0930
 8584SOL    HW126651   2.318   1.552   0.754  1.8645 -1.0284 -0.2572
 8584SOL    HW226652   2.308   1.694   0.673 -2.2499 -0.4475  1.0580
 8585SOL     OW26653   4.783   1.598   6.521  0.9449  0.2308  0.1421
 8585SOL    HW126654   4.822   1.506   6.530  0.5377  0.0919  0.5652
 8585SOL    HW226655   4.702   1.594   6.463  0.7085  0.2552  0.4703
 8586SOL     OW26656   5.569   6.004   4.707 -0.2470  0.3648  0.2739
 8586SOL    HW126657   5.604   5.947   4.782  0.0621 -0.4534 -0.4730
 8586SOL    HW226658   5.470   6.009   4.713 -0.2186  0.3990  0.8023
 8587SOL     OW26659   5.321   3.330   1.628  0.3261  0.5458  0.8853
 8587SOL    HW126660   5.412   3.324   1.668 -0.3359  0.8371  2.5422
 8587SOL    HW226661   5.252   3.323   1.701 -1.0409 -1.2569 -0.4586
 8588SOL     OW26662   6.723   1.472   1.458 -0.7623 -0.1540 -0.2412
 8588SOL    HW126663   6.712   1.379   1.423  0.3228  0.1508 -1.4793
 8588SOL    HW226664   6.646   1.528   1.427 -2.6820 -1.1300  2.4628
 8589SOL     OW26665   4.123   0.719   1.629  0.2357 -0.0866 -0.3753
 8589SOL    HW126666   4.118   0.772   1.544  0.4459 -0.0219 -0.3477
 8589SOL    HW226667   4.218   0.713   1.659  0.0529  0.7761  0.4131
 8590SOL     OW26668   1.928   4.098   1.648  0.8087  0.0699  0.7831
 8590SOL    HW126669   1.938   3.999   1.650  0.0730  0.0019  1.2505
 8590SOL    HW226670   1.971   4.138   1.730  1.7914  0.2147  0.2188
 8591SOL     OW26671   0.352   2.721   4.259 -0.2597  0.1686  0.3934
 8591SOL    HW126672   0.306   2.726   4.347 -0.0594  2.5541  0.4448
 8591SOL    HW226673   0.306   2.655   4.200 -1.2011 -0.4883  1.8218
 8592SOL     OW26674   6.420   1.400   3.736 -0.0624 -0.8123  0.1223
 8592SOL    HW126675   6.429   1.477   3.673 -0.3247 -1.0822 -0.2475
 8592SOL    HW226676   6.503   1.344   3.732 -1.1093 -2.3684 -2.0519
 8593SOL     OW26677   6.599   6.896   0.895  0.5959  0.2053 -0.2871
 8593SOL    HW126678   6.502   6.906   0.920  0.6839  0.1720  0.0723
 8593SOL    HW226679   6.606   6.884   0.796  0.1350 -0.9827 -0.1882
 8594SOL     OW26680   0.647   3.145   5.319  0.6132  0.1772 -0.2149
 8594SOL    HW126681   0.741   3.180   5.323  1.9669 -2.6038 -3.0708
 8594SOL    HW226682   0.640   3.064   5.378  0.0126  0.3563 -0.0370
 8595SOL     OW26683   5.581   2.071   2.519  0.2582  0.0561  0.0829
 8595SOL    HW126684   5.680   2.073   2.503  0.0781  0.8027 -1.0066
 8595SOL    HW226685   5.564   2.057   2.617  1.4445  0.9202  0.4352
 8596SOL     OW26686   6.990   2.261   5.172 -0.3432  0.4449  0.5637
 8596SOL    HW126687   6.972   2.344   5.225 -2.7211  0.1667  0.3301
 8596SOL    HW226688   6.903   2.224   5.139  0.5767 -2.4729  1.1389
 8597SOL     OW26689   1.591   2.376   4.124 -0.0164  0.1388 -0.4833
 8597SOL    HW126690   1.571   2.302   4.059 -0.5018  0.9054 -1.2364
 8597SOL    HW226691   1.509   2.397   4.177 -0.8452  2.1662 -2.4147
 8598SOL     OW26692   3.621   0.494   2.291  0.1224  0.5944  0.4159
 8598SOL    HW126693   3.602   0.406   2.246  0.6771 -0.2600  1.7867
 8598SOL    HW226694   3.707   0.531   2.256 -0.2408  0.7367 -0.3547
 8599SOL     OW26695   3.316   5.728   2.746 -0.2886 -0.1644  0.0590
 8599SOL    HW126696   3.301   5.660   2.675 -0.5898  0.3090 -0.3357
 8599SOL    HW226697   3.357   5.810   2.706 -0.2112  0.0054  0.4768
 8600SOL     OW26698   5.068   1.209   1.217 -0.2353  0.4066 -0.1496
 8600SOL    HW126699   5.163   1.234   1.238 -0.6280 -0.3352  3.0448
 8600SOL    HW226700   5.006   1.278   1.255 -1.0313 -0.6127  0.4608
 8601SOL     OW26701   5.545   6.613   2.524 -0.0189 -0.2438  0.7667
 8601SOL    HW126702   5.452   6.639   2.548  0.2443  1.3011  0.2234
 8601SOL    HW226703   5.584   6.681   2.462  0.7603 -1.9343 -0.6982
 8602SOL     OW26704   5.756   1.810   2.434 -0.1522  0.3413 -0.0894
 8602SOL    HW126705   5.690   1.838   2.364 -0.0368  0.2630 -0.2303
 8602SOL    HW226706   5.809   1.890   2.463  2.6682 -0.2306 -3.0693
 8603SOL     OW26707   2.255   5.116   1.732 -0.6045  0.6490 -0.8295
 8603SOL    HW126708   2.286   5.026   1.700  0.9760  0.2772  1.4910
 8603SOL    HW226709   2.182   5.105   1.799  0.7384  0.9135  0.7459
 8604SOL     OW26710   2.626   5.404   1.837 -0.5932  0.4853  0.2848
 8604SOL    HW126711   2.638   5.334   1.908 -0.1324  1.2208  0.9483
 8604SOL    HW226712   2.529   5.429   1.831 -0.5039  1.1427  1.3723
 8605SOL     OW26713   3.632   6.119   0.687 -0.1701  0.3329 -0.3344
 8605SOL    HW126714   3.676   6.208   0.674  1.4677 -0.5086 -0.6883
 8605SOL    HW226715   3.698   6.046   0.672 -1.4283 -0.9600  0.2063
 8606SOL     OW26716   6.463   4.859   3.952  0.2127 -0.7494 -0.0684
 8606SOL    HW126717   6.419   4.925   4.012  0.5899 -3.4426  3.5329
 8606SOL    HW226718   6.545   4.899   3.912 -0.2266  1.2964  0.9579
 8607SOL     OW26719   0.175   5.366   2.813 -0.2592  0.2444 -0.3260
 8607SOL    HW126720   0.180   5.455   2.766  0.8499  0.5285  0.2768
 8607SOL    HW226721   0.254   5.311   2.787 -1.0815 -0.6907 -0.8964
 8608SOL     OW26722   5.058   5.842   4.680 -0.3829  0.2483  0.4416
 8608SOL    HW126723   5.044   5.817   4.584  1.0473  0.2576  0.2153
 8608SOL    HW226724   5.013   5.774   4.738 -1.6688  0.4984 -0.2148
 8609SOL     OW26725   4.024   2.295   6.345  0.9220  0.2416  0.1216
 8609SOL    HW126726   4.071   2.300   6.433  3.0032 -2.0804 -0.7717
 8609SOL    HW226727   3.965   2.214   6.343 -0.3633  1.1474 -0.1082
 8610SOL     OW26728   5.410   1.725   4.518 -0.2379  0.1316  0.6933
 8610SOL    HW126729   5.362   1.640   4.536 -0.1013 -0.0497  0.2262
 8610SOL    HW226730   5.344   1.798   4.499 -0.3551 -0.5998 -2.1432
 8611SOL     OW26731   2.697   3.066   5.352  0.0951  0.1179 -0.0539
 8611SOL    HW126732   2.726   3.153   5.312  0.2459  0.4580  0.7788
 8611SOL    HW226733   2.613   3.035   5.306 -1.1145  1.7288  0.9486
 8612SOL     OW26734   6.101   1.721   1.993 -0.3076 -0.1441  0.5872
 8612SOL    HW126735   6.160   1.787   1.946  0.2104  0.5060  2.0911
 8612SOL    HW226736   6.007   1.733   1.962  0.0171  0.2401 -0.2896
 8613SOL     OW26737   6.802   1.792   0.225 -0.9272 -0.1170  0.0437
 8613SOL    HW126738   6.882   1.853   0.215 -0.7744 -0.2877  0.2248
 8613SOL    HW226739   6.767   1.770   0.134  0.3755 -1.5421 -0.1585
 8614SOL     OW26740   5.488   0.869   0.703  0.5676  0.3465 -0.3707
 8614SOL    HW126741   5.564   0.808   0.680  0.9118  0.7505 -0.3176
 8614SOL    HW226742   5.471   0.865   0.802  1.7049  1.5941 -0.0958
 8615SOL     OW26743   1.256   2.217   0.146 -0.0308 -0.3406  0.2785
 8615SOL    HW126744   1.237   2.197   0.050 -1.5821 -2.3489  0.9180
 8615SOL    HW226745   1.350   2.190   0.169  0.3298  0.1091 -0.6439
 8616SOL     OW26746   5.947   5.271   6.073 -0.3585  0.3504 -0.2876
 8616SOL    HW126747   5.986   5.314   5.991 -1.6805  3.3476  0.4775
 8616SOL    HW226748   6.016   5.264   6.144 -0.5984  4.2060  0.5554
 8617SOL     OW26749   3.209   5.008   0.151 -0.3235  0.1144 -0.4726
 8617SOL    HW126750   3.271   5.076   0.112  2.0183 -2.0295 -0.7115
 8617SOL    HW226751   3.258   4.954   0.220 -1.3621 -2.7303 -1.8077
 8618SOL     OW26752   5.043   3.414   0.389 -0.0258  0.1465  0.3345
 8618SOL    HW126753   5.058   3.393   0.485  0.9617 -0.4627  0.0588
 8618SOL    HW226754   4.953   3.456   0.378 -0.4382 -0.4141  1.4285
 8619SOL     OW26755   1.944   2.043   6.450 -0.3262  0.0369 -0.1207
 8619SOL    HW126756   1.974   2.099   6.527 -0.0155  1.9709 -1.5540
 8619SOL    HW226757   1.850   2.013   6.465  0.4950 -1.6606  2.0434
 8620SOL     OW26758   6.522   2.924   1.874 -0.9581  0.2845  0.1980
 8620SOL    HW126759   6.430   2.893   1.898 -2.4105  1.9388 -2.6884
 8620SOL    HW226760   6.522   3.024   1.863  1.4626  0.4466  1.0304
 8621SOL     OW26761   1.847   1.636   0.707 -0.2875 -0.0208  0.1760
 8621SOL    HW126762   1.854   1.562   0.640  0.4883  0.8195 -0.6964
 8621SOL    HW226763   1.920   1.703   0.691 -0.7589  0.7586  1.1727
 8622SOL     OW26764   5.423   1.145   0.590  0.6997 -0.5749 -0.0051
 8622SOL    HW126765   5.353   1.173   0.656  2.3565 -1.2435  2.1435
 8622SOL    HW226766   5.441   1.047   0.600 -0.5599 -1.2407 -3.0725
 8623SOL     OW26767   5.404   1.948   3.532 -0.4094 -0.4928 -0.4846
 8623SOL    HW126768   5.504   1.953   3.539 -0.5163  0.0644  0.9302
 8623SOL    HW226769   5.365   2.040   3.534 -0.9883 -0.7346 -0.1511
 8624SOL     OW26770   1.798   0.660   0.646 -0.0905  0.4447  0.0042
 8624SOL    HW126771   1.871   0.623   0.704 -0.9299 -0.8522  0.2666
 8624SOL    HW226772   1.734   0.712   0.702 -0.1882  0.3125  0.0137
 8625SOL     OW26773   6.207   4.262   6.322 -0.1687  0.3502 -0.9297
 8625SOL    HW126774   6.287   4.311   6.357  0.3388  0.4558 -2.2024
 8625SOL    HW226775   6.236   4.177   6.278 -1.0273 -1.0616  1.0810
 8626SOL     OW26776   5.309   5.054   4.525  0.4325  0.1960  0.3218
 8626SOL    HW126777   5.373   5.095   4.461 -0.7051  1.5868  0.0301
 8626SOL    HW226778   5.350   5.049   4.616  0.6537  1.9095  0.3378
 8627SOL     OW26779   1.292   3.447   2.948  0.8138  0.6196 -0.2423
 8627SOL    HW126780   1.231   3.516   2.911  0.6583  1.4176  1.3999
 8627SOL    HW226781   1.301   3.371   2.883  0.6992  1.9907 -1.9075
 8628SOL     OW26782   2.247   0.251   4.392 -0.2475  0.6650 -0.5035
 8628SOL    HW126783   2.269   0.214   4.482 -0.7984  0.0942 -0.5967
 8628SOL    HW226784   2.159   0.214   4.362 -0.0208  0.7815 -1.3176
 8629SOL     OW26785   6.836   4.924   3.225  0.0605  0.3135  0.5092
 8629SOL    HW126786   6.822   5.023   3.225 -1.8406  0.0736  0.1993
 8629SOL    HW226787   6.748   4.878   3.226  0.9190 -1.4005  1.1854
 8630SOL     OW26788   6.318   0.789   0.082 -0.4775 -0.0104  0.0993
 8630SOL    HW126789   6.402   0.734   0.082 -0.7554 -0.4375  0.0350
 8630SOL    HW226790   6.341   0.885   0.097  0.1701  0.0910 -1.3401
 8631SOL     OW26791   5.340   5.533   3.780 -0.2456 -0.1758 -0.9842
 8631SOL    HW126792   5.291   5.472   3.718  0.3969 -0.5446 -1.1392
 8631SOL    HW226793   5.307   5.627   3.768 -0.7063 -0.3742 -1.2847
 8632SOL     OW26794   6.023   5.039   4.191  0.2058 -0.1484 -0.3825
 8632SOL    HW126795   5.999   4.945   4.218  1.4209 -0.2114  0.5841
 8632SOL    HW226796   5.979   5.060   4.104 -2.3855 -0.6069  0.6997
 8633SOL     OW26797   0.891   6.191   2.063  0.1010 -0.5908  0.2087
 8633SOL    HW126798   0.822   6.201   1.991  1.0668  0.2161 -0.6100
 8633SOL    HW226799   0.912   6.280   2.103  2.2227 -0.4840 -1.0250
 8634SOL     OW26800   3.552   1.922   4.450  0.3912  0.3484 -0.0611
 8634SOL    HW126801   3.594   1.836   4.479 -0.7481  0.0851  0.8689
 8634SOL    HW226802   3.496   1.906   4.369  0.0507  0.1747  0.2072
 8635SOL     OW26803   6.215   4.803   0.724 -0.6726 -0.2712  0.3835
 8635SOL    HW126804   6.119   4.783   0.706 -0.4061 -1.0476 -0.2299
 8635SOL    HW226805   6.268   4.718   0.721  0.2487  0.3203 -0.6380
 8636SOL     OW26806   1.981   1.849   0.995  0.0861 -0.2481 -0.1028
 8636SOL    HW126807   2.079   1.828   0.991  0.7497  2.6020 -2.2497
 8636SOL    HW226808   1.965   1.921   1.062 -0.8819 -1.8416  1.4601
 8637SOL     OW26809   3.949   1.918   0.146  0.0734 -0.2484 -0.1813
 8637SOL    HW126810   3.858   1.879   0.158  0.2822 -0.4522  0.8565
 8637SOL    HW226811   4.005   1.897   0.227  1.2897 -0.8173 -1.1341
 8638SOL     OW26812   2.131   4.119   0.140 -0.1591  0.1248 -0.1901
 8638SOL    HW126813   2.110   4.146   0.047  1.1202 -3.5361 -1.7493
 8638SOL    HW226814   2.105   4.023   0.154  2.7188 -0.4865  2.0872
 8639SOL     OW26815   3.256   1.027   2.155 -0.4257 -0.0429 -0.3062
 8639SOL    HW126816   3.308   1.100   2.200 -1.3269  0.3018  0.1918
 8639SOL    HW226817   3.209   0.972   2.224 -1.5015  0.2487 -0.7939
 8640SOL     OW26818   1.524   5.621   5.159 -0.5379 -0.2468 -0.2286
 8640SOL    HW126819   1.587   5.576   5.095 -0.9352  0.4987 -1.1694
 8640SOL    HW226820   1.505   5.559   5.235  0.0280 -1.1214 -0.7663
 8641SOL     OW26821   3.752   0.055   4.590 -0.2150  0.6493  0.0613
 8641SOL    HW126822   3.822   0.084   4.525 -0.5744  0.2396 -0.5172
 8641SOL    HW226823   3.766   0.103   4.677  1.6202 -0.4719  0.4326
 8642SOL     OW26824   5.775   3.437   1.090 -0.8150 -0.1617  0.2784
 8642SOL    HW126825   5.722   3.453   1.007 -1.2862  2.7727  1.0415
 8642SOL    HW226826   5.713   3.422   1.168 -0.4066 -1.0863  0.4442
 8643SOL     OW26827   4.760   6.339   6.758 -0.0684 -0.1790  0.0231
 8643SOL    HW126828   4.666   6.331   6.790  0.5491 -0.6848  1.8487
 8643SOL    HW226829   4.777   6.273   6.685 -0.9449 -0.5646  0.1588
 8644SOL     OW26830   6.517   6.483   5.963  0.1427  0.9361 -0.4844
 8644SOL    HW126831   6.501   6.575   5.928 -1.6211  0.7852 -0.1826
 8644SOL    HW226832   6.455   6.419   5.917  0.4007  0.1219  0.2722
 8645SOL     OW26833   1.542   3.754   0.516 -0.1327 -0.4819 -0.1267
 8645SOL    HW126834   1.632   3.712   0.509  0.8646  1.1849  1.6415
 8645SOL    HW226835   1.487   3.705   0.584  0.3245 -0.1166  0.5190
 8646SOL     OW26836   6.711   2.378   6.214  0.0816  0.4020 -0.3114
 8646SOL    HW126837   6.772   2.452   6.243  1.7361 -0.6587 -0.9044
 8646SOL    HW226838   6.661   2.406   6.132  2.6696  0.0489 -2.1538
 8647SOL     OW26839   6.566   6.966   5.168 -0.2325 -0.1336  1.2821
 8647SOL    HW126840   6.509   7.017   5.232 -0.0473 -0.2726  1.5625
 8647SOL    HW226841   6.510   6.933   5.092 -0.1117  1.6228  0.3845
 8648SOL     OW26842   5.199   1.573   0.005 -0.4958  0.1132 -0.2662
 8648SOL    HW126843   5.141   1.590  -0.075 -0.8304 -2.8991 -0.8015
 8648SOL    HW226844   5.151   1.510   0.066  0.1278  1.6883  1.9327
 8649SOL     OW26845   6.032   2.936   5.103 -0.3791 -0.0508 -0.2127
 8649SOL    HW126846   6.041   3.008   5.035 -0.5890  0.3191  0.1420
 8649SOL    HW226847   5.942   2.893   5.095 -1.8311  2.2825  1.9819
 8650SOL     OW26848   2.124   0.007   4.822  0.0917 -0.0734  0.6563
 8650SOL    HW126849   2.025   0.004   4.810  0.1991 -0.3094 -0.2992
 8650SOL    HW226850   2.146   0.016   4.919 -0.8554 -1.0396  0.9881
 8651SOL     OW26851   6.065   3.831   0.355 -0.1986  0.4024  0.3000
 8651SOL    HW126852   6.094   3.756   0.413  0.4307  0.7967  0.5069
 8651SOL    HW226853   6.020   3.901   0.410 -2.9738 -0.8422 -0.1973
 8652SOL     OW26854   6.963   3.690   3.012  0.0271  0.0132 -0.6167
 8652SOL    HW126855   7.006   3.637   2.939  0.6098 -0.6407  0.1775
 8652SOL    HW226856   6.986   3.649   3.101 -2.5980 -0.6139 -0.1520
 8653SOL     OW26857   3.337   5.437   6.892 -0.1941 -0.1675  0.0111
 8653SOL    HW126858   3.336   5.536   6.909  1.2945 -0.1881  0.3501
 8653SOL    HW226859   3.425   5.411   6.851 -0.8937 -1.2343 -0.8795
 8654SOL     OW26860   3.009   5.514   6.932  0.1748 -0.1859 -0.8450
 8654SOL    HW126861   2.989   5.570   7.012 -0.9320 -0.3739 -0.9671
 8654SOL    HW226862   3.103   5.480   6.936 -0.1340 -0.9244  0.8385
 8655SOL     OW26863   3.739   3.010   5.914  0.4794  0.0852  0.1720
 8655SOL    HW126864   3.725   2.948   5.991  1.2221 -0.0642  0.1891
 8655SOL    HW226865   3.703   2.968   5.831  1.9693 -0.8723 -0.0212
 8656SOL     OW26866   6.848   1.696   2.068  0.2473  0.1014 -0.7870
 8656SOL    HW126867   6.787   1.691   1.989 -1.3231 -0.0705  0.3663
 8656SOL    HW226868   6.814   1.767   2.131  1.3144  0.0645 -0.1511
 8657SOL     OW26869   1.925   1.002   4.316 -0.0858 -0.1022  0.5745
 8657SOL    HW126870   2.002   0.940   4.298  0.6909  0.1786  2.6917
 8657SOL    HW226871   1.957   1.096   4.310 -0.9526  0.1223 -1.2688
 8658SOL     OW26872   3.183   2.038   0.682  0.7854 -0.2234 -0.5180
 8658SOL    HW126873   3.147   2.086   0.602 -0.9989 -2.5068 -1.2011
 8658SOL    HW226874   3.245   1.965   0.652 -0.1290 -1.2946  0.1072
 8659SOL     OW26875   6.372   2.635   3.447 -0.1980  0.8777  0.3937
 8659SOL    HW126876   6.349   2.542   3.417 -0.6345 -0.1760  3.5852
 8659SOL    HW226877   6.463   2.659   3.413  0.5255 -1.3092  0.6008
 8660SOL     OW26878   5.538   0.259   3.684 -0.0032  0.1505 -0.1238
 8660SOL    HW126879   5.491   0.186   3.635 -0.6281  0.8283 -0.5411
 8660SOL    HW226880   5.475   0.299   3.751  0.8851 -0.8896  1.4079
 8661SOL     OW26881   4.532   6.849   3.088  0.5250  0.8133  0.2847
 8661SOL    HW126882   4.623   6.829   3.123  0.3038 -0.0621  0.3752
 8661SOL    HW226883   4.495   6.929   3.136  0.0513 -0.6099  2.4434
 8662SOL     OW26884   1.735   2.528   5.790  0.1741 -0.4015 -0.1262
 8662SOL    HW126885   1.736   2.469   5.871  0.6497 -0.9241 -0.5034
 8662SOL    HW226886   1.641   2.547   5.764 -0.1212  2.4024  2.4234
 8663SOL     OW26887   6.831   2.335   3.085  0.1858  0.2712  0.8094
 8663SOL    HW126888   6.916   2.286   3.068 -0.7617 -1.5111  0.9997
 8663SOL    HW226889   6.811   2.396   3.008  0.1561 -1.5057 -0.6537
 8664SOL     OW26890   1.085   1.910   4.437 -0.5384  0.5868 -0.2982
 8664SOL    HW126891   1.000   1.857   4.436 -0.6833  0.7136  1.4587
 8664SOL    HW226892   1.135   1.891   4.521  0.6703  1.3156 -0.8209
 8665SOL     OW26893   4.777   2.881   3.162  0.2128  0.0319 -0.3877
 8665SOL    HW126894   4.870   2.914   3.180  0.3834 -0.8195  0.3568
 8665SOL    HW226895   4.731   2.861   3.248 -1.0736  1.4808 -0.7026
 8666SOL     OW26896   1.417   0.173   6.296 -0.1234  0.3231 -0.2420
 8666SOL    HW126897   1.445   0.183   6.391 -0.2700 -1.0908 -0.0326
 8666SOL    HW226898   1.392   0.263   6.259  1.9403  1.2360  0.4071
 8667SOL     OW26899   2.841   6.853   0.679  0.3573  0.1646  0.2184
 8667SOL    HW126900   2.764   6.805   0.721  0.0306 -0.2578 -0.8253
 8667SOL    HW226901   2.808   6.912   0.605  0.9414  0.6900  0.3657
 8668SOL     OW26902   3.388   1.647   3.834 -0.3406 -0.1119 -0.1308
 8668SOL    HW126903   3.447   1.585   3.884  0.4255  0.6740 -0.0284
 8668SOL    HW226904   3.442   1.724   3.799 -1.0060 -0.2108 -1.4434
 8669SOL     OW26905   1.879   4.748   2.797 -0.2520  0.4299 -0.2383
 8669SOL    HW126906   1.803   4.801   2.835 -1.3292 -1.8211  0.9041
 8669SOL    HW226907   1.876   4.751   2.697 -0.9620  1.5190 -0.1998
 8670SOL     OW26908   6.170   0.649   3.539 -0.0051 -0.2077  0.3161
 8670SOL    HW126909   6.100   0.701   3.490  0.7746  0.2857 -0.2906
 8670SOL    HW226910   6.126   0.588   3.605 -1.0283 -0.3801 -0.5086
 8671SOL     OW26911   5.380   2.492   1.473  0.5565  0.3066 -0.0550
 8671SOL    HW126912   5.403   2.541   1.558 -0.1886  1.0080 -0.2377
 8671SOL    HW226913   5.376   2.558   1.397 -0.7743  0.0307 -0.2487
 8672SOL     OW26914   5.123   1.562   5.692 -0.2983 -0.1107 -0.1032
 8672SOL    HW126915   5.140   1.632   5.622 -1.1089 -0.1264 -0.3256
 8672SOL    HW226916   5.210   1.537   5.736 -0.0068  1.0845  0.0301
 8673SOL     OW26917   6.761   1.403   1.870  0.0880  0.0239 -0.2918
 8673SOL    HW126918   6.812   1.410   1.956 -0.2569  0.9444 -0.1528
 8673SOL    HW226919   6.704   1.321   1.871 -1.3598  0.9847  1.1712
 8674SOL     OW26920   5.754   4.274   0.818 -0.3111 -0.0035  0.4108
 8674SOL    HW126921   5.812   4.351   0.846  0.1681  0.2411 -1.1435
 8674SOL    HW226922   5.805   4.217   0.754 -0.8780 -1.3083  1.0924
 8675SOL     OW26923   1.117   2.079   2.256  0.1566  0.0167  0.1284
 8675SOL    HW126924   1.158   1.989   2.238 -1.2609 -0.4823 -0.7712
 8675SOL    HW226925   1.190   2.146   2.271  1.2352 -1.3081  1.0186
 8676SOL     OW26926   4.014   1.512   1.855 -0.2420 -0.7086  0.3153
 8676SOL    HW126927   3.965   1.599   1.860  1.0513  0.0384  0.1840
 8676SOL    HW226928   3.947   1.437   1.854 -1.4239  0.3075 -0.8028
 8677SOL     OW26929   0.411   0.525   6.170  0.0715 -0.7941  0.0624
 8677SOL    HW126930   0.438   0.620   6.159  0.9548 -0.9754  0.5525
 8677SOL    HW226931   0.349   0.516   6.248  0.5891 -0.7197  0.4893
 8678SOL     OW26932   4.372   0.509   2.150 -0.2219 -0.0386  0.4567
 8678SOL    HW126933   4.296   0.561   2.113  1.4162 -0.0282 -3.3895
 8678SOL    HW226934   4.340   0.418   2.178 -1.6306 -0.2294 -1.5555
 8679SOL     OW26935   2.757   4.783   6.795 -0.3364  0.2829  0.3513
 8679SOL    HW126936   2.787   4.876   6.775 -0.4349  0.3030  0.2922
 8679SOL    HW226937   2.657   4.780   6.796 -0.3544 -0.1281 -1.1354
 8680SOL     OW26938   1.440   0.246   1.508 -0.0985  0.3357  0.6037
 8680SOL    HW126939   1.401   0.330   1.472 -0.8718  0.1422  0.9733
 8680SOL    HW226940   1.540   0.249   1.500 -0.1932  0.7676 -0.4888
 8681SOL     OW26941   3.977   0.383   6.292  0.9114 -0.0792 -0.3449
 8681SOL    HW126942   4.042   0.441   6.242  0.9600  2.1075  2.0517
 8681SOL    HW226943   3.962   0.421   6.383 -2.8120 -1.2100 -0.3377
 8682SOL     OW26944   1.538   2.570   3.056  0.1065 -0.4873  0.4095
 8682SOL    HW126945   1.463   2.519   3.099 -1.7932  1.3781 -0.5155
 8682SOL    HW226946   1.503   2.657   3.021  2.7126  0.3828 -0.2127
 8683SOL     OW26947   6.631   4.439   3.355 -0.0691  0.7392  0.1919
 8683SOL    HW126948   6.569   4.514   3.332 -1.1028 -0.5062 -1.3385
 8683SOL    HW226949   6.600   4.356   3.309  1.1063 -0.6167  1.7424
 8684SOL     OW26950   4.222   1.808   5.011  0.3510 -0.5272 -0.9262
 8684SOL    HW126951   4.265   1.894   4.986  0.3800 -0.3407 -0.2514
 8684SOL    HW226952   4.137   1.826   5.061  1.3656 -0.8680  0.9788
 8685SOL     OW26953   1.715   5.082   1.972  0.3432  0.2252  0.6485
 8685SOL    HW126954   1.801   5.129   1.988  0.4076 -0.1304  1.4080
 8685SOL    HW226955   1.639   5.147   1.980  0.4343  0.2223  1.6356
 8686SOL     OW26956   2.816   4.027   0.802  0.2749  0.2225  0.6349
 8686SOL    HW126957   2.904   4.033   0.851  0.3618  0.1990  0.4811
 8686SOL    HW226958   2.823   3.958   0.730 -0.2353 -0.6266  1.3828
 8687SOL     OW26959   4.369   4.327   6.959  0.1265 -0.3602 -0.2395
 8687SOL    HW126960   4.321   4.415   6.949  0.6158  0.1398  1.4460
 8687SOL    HW226961   4.448   4.325   6.898 -0.4232 -0.0178 -0.9740
 8688SOL     OW26962   3.575   4.092   2.924  0.5814 -0.1376 -0.0692
 8688SOL    HW126963   3.521   4.115   3.005  1.0706 -1.7967  0.7601
 8688SOL    HW226964   3.661   4.049   2.952  2.3054  2.2352 -1.3658
 8689SOL     OW26965   0.365   5.842   0.744  0.0833 -0.0543  0.0402
 8689SOL    HW126966   0.306   5.763   0.727  1.3997 -0.8502 -1.1645
 8689SOL    HW226967   0.311   5.925   0.747 -1.4542 -1.0578  2.1461
 8690SOL     OW26968   5.240   3.541   5.538 -0.0655  0.2158  0.3695
 8690SOL    HW126969   5.160   3.483   5.520  0.7467 -0.7644 -0.2161
 8690SOL    HW226970   5.227   3.591   5.624 -3.0121  3.1163 -1.5121
 8691SOL     OW26971   6.808   6.920   6.622 -0.1295  0.8546 -0.9165
 8691SOL    HW126972   6.760   6.911   6.709 -1.2264 -0.3778 -1.6180
 8691SOL    HW226973   6.894   6.869   6.626  0.4867  1.9198 -0.1230
 8692SOL     OW26974   2.886   3.518   2.660  0.4633  0.1763 -0.0391
 8692SOL    HW126975   2.934   3.557   2.738  2.4880  1.7573 -1.9612
 8692SOL    HW226976   2.885   3.584   2.585 -1.1475 -1.3843 -1.4817
 8693SOL     OW26977   4.116   2.021   6.143  0.3602  0.1584 -0.3261
 8693SOL    HW126978   4.203   2.044   6.187  0.2790  1.3861 -0.7729
 8693SOL    HW226979   4.042   2.034   6.209  0.2590  1.7936 -0.7335
 8694SOL     OW26980   6.160   0.410   1.716  0.3083 -0.0384  0.2939
 8694SOL    HW126981   6.153   0.343   1.790  0.5341 -3.2272 -2.3334
 8694SOL    HW226982   6.069   0.441   1.690 -0.0339 -1.3611 -0.1276
 8695SOL     OW26983   0.348   0.954   1.307 -0.1352 -0.2415  0.6901
 8695SOL    HW126984   0.429   0.895   1.306  0.9152  1.1435  0.8322
 8695SOL    HW226985   0.364   1.030   1.370 -0.8176  1.0586 -0.6605
 8696SOL     OW26986   0.349   6.120   5.724 -0.8367  0.0119  0.4141
 8696SOL    HW126987   0.429   6.062   5.739 -1.5020 -0.9369  0.3040
 8696SOL    HW226988   0.305   6.141   5.811 -0.2930  0.8072  0.5092
 8697SOL     OW26989   1.689   1.776   2.513  0.3966 -0.1438  0.2954
 8697SOL    HW126990   1.746   1.723   2.450 -1.2345 -2.1672  0.3907
 8697SOL    HW226991   1.612   1.816   2.463 -0.7043 -1.4611  0.8424
 8698SOL     OW26992   3.890   0.379   5.727  0.1149  0.3195 -0.1136
 8698SOL    HW126993   3.908   0.439   5.650  0.8949 -1.0107 -1.0106
 8698SOL    HW226994   3.795   0.347   5.724 -0.1863  1.1659  0.1460
 8699SOL     OW26995   5.725   6.798   2.368 -0.3534  0.5131 -0.2423
 8699SOL    HW126996   5.797   6.777   2.301 -0.5289  1.1930 -0.6537
 8699SOL    HW226997   5.765   6.849   2.444  0.2315 -1.8568  1.1427
 8700SOL     OW26998   0.277   2.733   3.870  0.0638  0.5550 -0.3536
 8700SOL    HW126999   0.328   2.819   3.866 -1.3701  1.4126 -1.4128
 8700SOL    HW227000   0.281   2.688   3.781  0.9894 -0.6067  0.2604
 8701SOL     OW27001   6.567   1.175   2.504  0.0287 -0.4882  0.5732
 8701SOL    HW127002   6.580   1.273   2.489 -0.1701 -0.3241  1.4313
 8701SOL    HW227003   6.645   1.139   2.556 -0.5855 -0.4823  1.5232
 8702SOL     OW27004   5.556   5.196   2.322  0.5091 -0.5714 -0.0661
 8702SOL    HW127005   5.656   5.208   2.321  0.5010 -0.5086 -0.0923
 8702SOL    HW227006   5.524   5.195   2.417  0.3172  1.1598 -0.0757
 8703SOL     OW27007   3.531   3.601   1.573  0.3888  0.2824  0.1651
 8703SOL    HW127008   3.459   3.669   1.585 -0.4261 -0.5221 -0.0441
 8703SOL    HW227009   3.567   3.575   1.662  0.4586  0.7246  0.2689
 8704SOL     OW27010   6.072   6.328   1.525  0.3499 -0.2910 -0.2975
 8704SOL    HW127011   6.022   6.389   1.586 -1.1841 -2.2970  0.5601
 8704SOL    HW227012   6.066   6.362   1.431 -0.5028  0.8261  0.1379
 8705SOL     OW27013   3.304   1.789   6.852 -0.4669 -0.2138  0.0591
 8705SOL    HW127014   3.261   1.804   6.941  2.3316 -1.1177  1.6769
 8705SOL    HW227015   3.309   1.690   6.834  0.0503 -0.0802 -0.5454
 8706SOL     OW27016   0.652   6.207   5.396  0.2389  0.5468  0.0586
 8706SOL    HW127017   0.676   6.179   5.489 -0.2541  0.3688  0.1366
 8706SOL    HW227018   0.722   6.269   5.360  0.2233  0.9407  0.6990
 8707SOL     OW27019   2.026   0.178   1.425  0.2503  0.4574  0.2346
 8707SOL    HW127020   2.009   0.259   1.368 -1.4328  0.2496  0.3832
 8707SOL    HW227021   2.006   0.096   1.371 -2.2075  0.2705  1.2748
 8708SOL     OW27022   4.728   0.400   4.737  0.0165 -0.1091 -0.0795
 8708SOL    HW127023   4.781   0.420   4.820 -1.1829 -1.1945  0.9890
 8708SOL    HW227024   4.679   0.482   4.708  0.9593  0.4531 -0.1047
 8709SOL     OW27025   2.271   2.680   3.071 -0.0873 -0.2761 -0.6384
 8709SOL    HW127026   2.292   2.777   3.065  1.5436 -0.5527  0.0272
 8709SOL    HW227027   2.199   2.665   3.138  1.3307  0.3006  1.1013
 8710SOL     OW27028   5.146   2.722   6.889 -0.4199 -0.0543  0.2153
 8710SOL    HW127029   5.080   2.777   6.838 -0.5469 -1.1310 -0.8202
 8710SOL    HW227030   5.182   2.650   6.830 -1.0117 -1.7248  1.8184
 8711SOL     OW27031   0.481   3.039   2.138 -0.1648 -0.1108 -0.2187
 8711SOL    HW127032   0.468   2.942   2.114 -0.7293 -0.3761  1.0784
 8711SOL    HW227033   0.546   3.080   2.075 -0.1072 -1.2737 -0.9516
 8712SOL     OW27034   3.968   0.918   2.101  0.5302 -0.3973  0.1281
 8712SOL    HW127035   3.963   0.958   2.010 -1.1227 -0.1540  0.2831
 8712SOL    HW227036   3.986   0.990   2.168  2.9430 -0.7429 -0.0796
 8713SOL     OW27037   3.824   6.992   5.052  0.1975 -0.4033  0.3667
 8713SOL    HW127038   3.921   7.018   5.050  0.0572  0.1111 -0.1734
 8713SOL    HW227039   3.799   6.951   4.964 -0.5501  1.3246 -0.2797
 8714SOL     OW27040   4.225   0.373   1.033 -0.5502 -0.4437  0.1487
 8714SOL    HW127041   4.151   0.340   1.091 -0.3699  1.5422  1.6061
 8714SOL    HW227042   4.205   0.467   1.005  1.3402  0.0763  0.4478
 8715SOL     OW27043   4.263   5.292   2.887 -0.3587  0.2779 -0.0171
 8715SOL    HW127044   4.265   5.236   2.804  1.5172  0.7343 -0.3207
 8715SOL    HW227045   4.219   5.240   2.961 -0.8522 -0.6359 -0.9284
 8716SOL     OW27046   4.085   5.159   6.813  0.1449  0.2582  0.0768
 8716SOL    HW127047   4.051   5.253   6.821  1.1251  0.6836 -0.6906
 8716SOL    HW227048   4.014   5.096   6.846 -0.6438  1.2350  0.3060
 8717SOL     OW27049   6.443   0.605   6.665  0.1153 -0.2785  0.2520
 8717SOL    HW127050   6.526   0.556   6.638  1.1330  1.4423  0.1469
 8717SOL    HW227051   6.467   0.685   6.720 -1.4164  0.6681 -0.3802
 8718SOL     OW27052   4.603   3.496   6.319  0.3120  0.3746 -0.2592
 8718SOL    HW127053   4.684   3.449   6.284 -0.7510  0.1427 -2.6560
 8718SOL    HW227054   4.583   3.575   6.260 -1.3474  0.2607  0.1160
 8719SOL     OW27055   6.424   2.684   5.333  0.0086  0.1486 -0.3366
 8719SOL    HW127056   6.407   2.609   5.397  2.5722 -0.5904 -0.3997
 8719SOL    HW227057   6.436   2.769   5.383  1.1833 -0.2774  0.1454
 8720SOL     OW27058   4.355   2.006   5.228  0.0841  0.4736 -0.2962
 8720SOL    HW127059   4.401   1.999   5.140 -1.8637  1.1816 -1.4170
 8720SOL    HW227060   4.336   2.102   5.248 -0.1703  0.2587  0.5427
 8721SOL     OW27061   6.602   1.811   5.052 -0.5137 -0.3925  0.1423
 8721SOL    HW127062   6.593   1.743   4.979 -0.1704 -2.0431  1.5817
 8721SOL    HW227063   6.606   1.765   5.141  1.0548  1.4371  1.0958
 8722SOL     OW27064   4.466   5.029   2.859  0.2881 -0.1985 -0.0591
 8722SOL    HW127065   4.520   4.972   2.921  0.3011 -0.0531  0.0635
 8722SOL    HW227066   4.369   5.014   2.875  0.2912 -0.2414 -0.0787
 8723SOL     OW27067   5.680   5.756   1.609 -0.2995  0.4695  0.5338
 8723SOL    HW127068   5.775   5.748   1.578  0.4532  1.5302  2.4083
 8723SOL    HW227069   5.672   5.723   1.703 -1.8252  0.3299  0.3892
 8724SOL     OW27070   2.774   0.969   6.761  0.1504  0.0204 -0.3636
 8724SOL    HW127071   2.774   1.061   6.800 -0.1456  0.3046 -1.0183
 8724SOL    HW227072   2.684   0.928   6.772 -0.0011  0.1881 -0.9289
 8725SOL     OW27073   4.344   2.113   6.596  0.2863 -0.2838 -0.0470
 8725SOL    HW127074   4.300   2.195   6.632  2.9459  1.2420 -0.0067
 8725SOL    HW227075   4.374   2.055   6.672 -0.9071 -0.9348 -0.0574
 8726SOL     OW27076   6.530   2.483   5.737  0.3152 -0.2701 -0.2118
 8726SOL    HW127077   6.590   2.535   5.678 -0.7681 -0.6188 -1.6721
 8726SOL    HW227078   6.553   2.501   5.833  0.6593  2.0326 -0.6819
 8727SOL     OW27079   0.778   2.813   3.028 -0.3083 -0.1360  0.4213
 8727SOL    HW127080   0.814   2.867   2.952 -1.2140 -3.6390 -2.7811
 8727SOL    HW227081   0.681   2.795   3.012 -0.3329 -1.6017  2.0327
 8728SOL     OW27082   6.613   1.390   6.673  0.0369  0.1611  0.3148
 8728SOL    HW127083   6.654   1.354   6.757  0.0660  1.4531  0.8773
 8728SOL    HW227084   6.659   1.476   6.648  0.6089 -0.6357 -1.5158
 8729SOL     OW27085   2.477   1.040   4.950  0.2681 -0.2369  0.2362
 8729SOL    HW127086   2.528   0.965   4.906  0.5435 -0.4094  0.8350
 8729SOL    HW227087   2.380   1.031   4.929  0.4082 -0.2679 -0.4038
 8730SOL     OW27088   5.311   5.929   4.817  0.2087  0.3423  0.0310
 8730SOL    HW127089   5.293   5.938   4.915 -0.2202  0.1152 -0.0231
 8730SOL    HW227090   5.229   5.895   4.771  0.3551  0.6034 -0.4324
 8731SOL     OW27091   6.025   4.988   2.912  0.1733  0.9075 -0.2163
 8731SOL    HW127092   6.034   4.995   2.813  0.3527 -0.8636 -0.3503
 8731SOL    HW227093   5.951   5.047   2.943 -1.1742  0.0369 -1.6430
 8732SOL     OW27094   1.319   4.798   5.892  0.1961 -0.3561 -0.6088
 8732SOL    HW127095   1.232   4.846   5.888  0.9329  1.1076  0.0318
 8732SOL    HW227096   1.386   4.853   5.942  0.9570 -2.3115  0.6855
 8733SOL     OW27097   3.445   2.209   6.294 -0.4544  0.0957 -0.1645
 8733SOL    HW127098   3.446   2.229   6.195 -0.6670  0.3752 -0.1118
 8733SOL    HW227099   3.385   2.131   6.311  0.6582 -0.8393 -0.4151
 8734SOL     OW27100   5.929   3.795   4.634 -0.2013 -0.0977  0.0109
 8734SOL    HW127101   6.014   3.839   4.661  0.4069 -0.8616 -0.6068
 8734SOL    HW227102   5.871   3.782   4.715 -1.0417  3.0713  0.0231
 8735SOL     OW27103   1.526   1.697   6.325  0.0014 -0.1073  0.0028
 8735SOL    HW127104   1.585   1.776   6.312  0.3425 -0.6213 -1.8016
 8735SOL    HW227105   1.430   1.723   6.313  0.1861 -0.1756 -1.9038
 8736SOL     OW27106   3.907   5.782   5.399  0.0156  0.0880  0.0221
 8736SOL    HW127107   3.931   5.878   5.413  1.0460 -0.2933  0.9358
 8736SOL    HW227108   3.990   5.728   5.387 -0.5519 -0.7138 -0.3586
 8737SOL     OW27109   1.561   5.854   6.957 -0.1601 -0.0158 -0.4362
 8737SOL    HW127110   1.522   5.769   6.921 -1.0070  0.8957 -1.7671
 8737SOL    HW227111   1.660   5.854   6.944 -0.3521 -0.0551 -2.1045
 8738SOL     OW27112   5.748   3.239   1.973  0.5145 -0.1062  0.2228
 8738SOL    HW127113   5.753   3.247   2.073  0.8752 -2.1049  0.3998
 8738SOL    HW227114   5.791   3.154   1.944 -1.5002 -0.6351 -1.4449
 8739SOL     OW27115   6.489   5.215   6.661 -0.0321  0.0243  0.1864
 8739SOL    HW127116   6.584   5.231   6.637 -0.3477  1.2697 -0.3171
 8739SOL    HW227117   6.432   5.288   6.624 -0.8633  0.7463  2.6704
 8740SOL     OW27118   6.630   4.831   2.600  0.1313  0.7714  0.0940
 8740SOL    HW127119   6.700   4.887   2.643  0.3226 -0.2644  1.1619
 8740SOL    HW227120   6.664   4.737   2.590 -1.0622  0.2806  0.5379
 8741SOL     OW27121   1.184   2.466   5.061  0.0125  0.0931  0.1551
 8741SOL    HW127122   1.186   2.366   5.062  1.4899  0.0954 -0.3064
 8741SOL    HW227123   1.125   2.499   5.135 -0.7330 -1.1081  0.1267
 8742SOL     OW27124   2.424   4.167   0.977  0.0845  0.0756 -0.1668
 8742SOL    HW127125   2.485   4.095   0.944 -0.3063  0.6228 -2.2436
 8742SOL    HW227126   2.474   4.253   0.986 -0.2804  0.4748 -1.6697
 8743SOL     OW27127   6.495   1.146   5.868 -0.0232  0.5245 -0.0434
 8743SOL    HW127128   6.542   1.181   5.787 -0.9440 -0.4562 -1.0150
 8743SOL    HW227129   6.446   1.221   5.913  0.9778  1.1969 -0.0155
 8744SOL     OW27130   4.253   0.648   3.079 -0.1955  0.0238 -0.5252
 8744SOL    HW127131   4.314   0.655   3.158  0.6736  0.0690 -1.1809
 8744SOL    HW227132   4.193   0.728   3.076  0.1782  0.3161 -0.2433
 8745SOL     OW27133   3.436   5.287   4.598  0.0166 -0.3461  0.0872
 8745SOL    HW127134   3.351   5.285   4.651  0.2207  0.4533  0.4611
 8745SOL    HW227135   3.510   5.325   4.654  0.2568  0.4461 -0.7350
 8746SOL     OW27136   6.902   1.878   2.910  0.0823 -0.6746  0.0269
 8746SOL    HW127137   6.842   1.804   2.939 -1.6930  0.2211 -1.1534
 8746SOL    HW227138   6.890   1.956   2.972 -2.9754  0.8834 -2.2737
 8747SOL     OW27139   2.281   6.321   3.936  0.2095  0.0202 -0.6303
 8747SOL    HW127140   2.320   6.247   3.883 -0.3585  0.1898 -1.2945
 8747SOL    HW227141   2.201   6.358   3.889 -0.0060  0.5048  0.0959
 8748SOL     OW27142   0.463   3.102   0.257  0.2351 -0.6375  0.0824
 8748SOL    HW127143   0.502   3.080   0.167  0.1036  0.3002 -0.2097
 8748SOL    HW227144   0.397   3.031   0.283  0.3993 -1.0026 -0.4755
 8749SOL     OW27145   2.053   1.229   6.780  0.2025 -0.0202 -0.3122
 8749SOL    HW127146   2.121   1.283   6.829 -1.2763  1.8740 -0.2497
 8749SOL    HW227147   2.054   1.135   6.814  0.4970  0.7789  2.0134
 8750SOL     OW27148   0.405   4.840   3.373  0.4459 -0.1720  0.3564
 8750SOL    HW127149   0.392   4.864   3.277 -2.0936  0.9276  0.8843
 8750SOL    HW227150   0.373   4.746   3.388  0.4950 -0.2156  0.1872
 8751SOL     OW27151   6.709   6.716   3.554 -0.3111  0.3884 -0.1304
 8751SOL    HW127152   6.615   6.701   3.524 -0.3843  0.0339  0.2503
 8751SOL    HW227153   6.728   6.814   3.560 -0.7330  0.4633  0.0123
 8752SOL     OW27154   2.410   1.870   4.840  0.2487  0.3029  0.0910
 8752SOL    HW127155   2.439   1.960   4.808  2.2716 -0.1765  0.4754
 8752SOL    HW227156   2.313   1.874   4.865 -0.0996  1.9536 -1.3296
 8753SOL     OW27157   4.766   4.658   3.191 -0.2674 -0.3302 -0.2426
 8753SOL    HW127158   4.845   4.597   3.194 -1.7262 -2.2633  0.1896
 8753SOL    HW227159   4.766   4.716   3.273  0.3569 -0.7360  0.0524
 8754SOL     OW27160   4.595   4.426   4.739  0.2295  0.8239 -0.3884
 8754SOL    HW127161   4.547   4.461   4.659  0.7300 -1.1400 -1.6354
 8754SOL    HW227162   4.676   4.375   4.710  0.7023  0.4612  1.4105
 8755SOL     OW27163   3.772   1.336   0.482 -0.4319  0.5198 -0.2103
 8755SOL    HW127164   3.758   1.237   0.478  2.3033  0.0652 -0.0666
 8755SOL    HW227165   3.684   1.382   0.470 -1.4380 -1.8235 -2.9462
 8756SOL     OW27166   5.237   6.326   0.622 -0.1172 -0.0780  0.0519
 8756SOL    HW127167   5.216   6.261   0.694  0.5524 -0.0964  0.2402
 8756SOL    HW227168   5.182   6.409   0.634 -1.4761 -0.8624 -0.5879
 8757SOL     OW27169   4.348   6.368   5.070 -0.1493  0.0961  0.4635
 8757SOL    HW127170   4.326   6.409   5.158  1.8290  0.9466  0.6177
 8757SOL    HW227171   4.335   6.269   5.074 -0.5724  0.1879  1.5258
 8758SOL     OW27172   6.677   6.654   4.536  0.0009  0.1038 -0.1018
 8758SOL    HW127173   6.744   6.623   4.603 -0.7555 -0.3440  0.4528
 8758SOL    HW227174   6.725   6.680   4.451  0.8893 -0.0005  0.3531
 8759SOL     OW27175   0.752   3.254   5.033  0.1946 -0.1584 -0.2745
 8759SOL    HW127176   0.752   3.313   5.114  1.4708 -1.1450  0.4789
 8759SOL    HW227177   0.801   3.169   5.054 -3.2449 -2.4625 -0.6461
 8760SOL     OW27178   4.213   5.484   2.200  0.1818  0.0454 -0.2401
 8760SOL    HW127179   4.205   5.519   2.294 -0.0125 -1.3736  0.2924
 8760SOL    HW227180   4.301   5.513   2.161  0.2491  0.6754  0.3581
 8761SOL     OW27181   3.479   4.699   0.944 -0.8595 -0.3331  0.1795
 8761SOL    HW127182   3.531   4.730   0.864 -0.8309 -0.7597  0.0251
 8761SOL    HW227183   3.511   4.747   1.025 -0.6819 -0.1103 -0.0189
 8762SOL     OW27184   2.793   1.175   5.902 -0.1788  0.6203  0.2690
 8762SOL    HW127185   2.761   1.208   5.990 -1.5010  0.3996 -0.1165
 8762SOL    HW227186   2.731   1.106   5.867  0.6076  0.3333 -0.6098
 8763SOL     OW27187   5.922   3.740   5.803  0.2350  0.0967  0.2597
 8763SOL    HW127188   5.962   3.828   5.830 -0.5080  1.1123 -1.7771
 8763SOL    HW227189   5.987   3.667   5.821  2.0958  1.4264 -0.7722
 8764SOL     OW27190   0.171   1.642   2.095  0.1522  0.2305 -0.8633
 8764SOL    HW127191   0.257   1.690   2.076  0.3356 -0.2003 -1.1332
 8764SOL    HW227192   0.187   1.544   2.093 -0.1621  0.1522 -0.0400
 8765SOL     OW27193   4.952   3.973   6.787  0.5175 -0.1631 -0.1471
 8765SOL    HW127194   4.922   3.910   6.716 -1.8748  0.0126  0.6206
 8765SOL    HW227195   4.903   3.953   6.872  1.7329  0.9944  0.8758
 8766SOL     OW27196   3.573   4.983   6.485 -0.2664  0.3162  0.1306
 8766SOL    HW127197   3.491   5.037   6.503 -1.0594 -0.5521 -0.6958
 8766SOL    HW227198   3.583   4.972   6.386 -0.9720 -2.2156  0.2623
 8767SOL     OW27199   5.294   3.277   4.159 -0.1913 -0.0119 -0.4279
 8767SOL    HW127200   5.358   3.256   4.233  0.9860 -0.1709 -1.4513
 8767SOL    HW227201   5.206   3.304   4.198  0.8974  1.6286  1.0670
 8768SOL     OW27202   2.527   0.224   1.810  0.7649 -0.5217  0.5810
 8768SOL    HW127203   2.585   0.303   1.794  1.0753 -1.0234 -0.9438
 8768SOL    HW227204   2.491   0.227   1.903 -0.7187  2.3686  0.0394
 8769SOL     OW27205   2.346   1.250   4.458 -0.2253  0.3627 -0.6685
 8769SOL    HW127206   2.349   1.235   4.359  1.2614  0.1895 -0.6304
 8769SOL    HW227207   2.431   1.216   4.499 -1.6731 -1.4867  0.9565
 8770SOL     OW27208   1.737   6.331   3.789 -0.0766 -0.1989  0.3081
 8770SOL    HW127209   1.697   6.284   3.710 -1.3629  0.6601  0.4278
 8770SOL    HW227210   1.812   6.389   3.759 -0.2641 -0.2228 -0.2141
 8771SOL     OW27211   3.808   5.196   7.016  0.1138 -0.0663  0.0266
 8771SOL    HW127212   3.846   5.106   7.001 -0.6384 -0.2797 -0.6444
 8771SOL    HW227213   3.872   5.266   6.985  0.6371 -0.3673  0.4208
 8772SOL     OW27214   3.825   2.089   4.214 -0.3502  0.0101  0.2965
 8772SOL    HW127215   3.882   2.031   4.272  0.4570  0.4738 -0.0149
 8772SOL    HW227216   3.870   2.177   4.200 -0.6928  0.0294 -0.7559
 8773SOL     OW27217   5.196   4.307   6.231  0.5741 -0.2335 -0.3347
 8773SOL    HW127218   5.290   4.338   6.220  0.6089  0.7758  2.1833
 8773SOL    HW227219   5.194   4.224   6.286  0.0836 -1.5313 -2.2222
 8774SOL     OW27220   4.697   4.197   3.645 -0.5659 -0.2767 -0.3937
 8774SOL    HW127221   4.695   4.274   3.582  1.8253  1.6017  1.6069
 8774SOL    HW227222   4.637   4.215   3.722  0.3764 -0.1156  0.3260
 8775SOL     OW27223   5.449   4.249   6.520 -0.6188  0.1783  0.7823
 8775SOL    HW127224   5.530   4.254   6.461  0.1466 -1.3700  1.6349
 8775SOL    HW227225   5.423   4.154   6.533 -0.4227  0.4058  3.3723
 8776SOL     OW27226   3.900   5.971   4.312 -0.1778 -0.0135  0.0056
 8776SOL    HW127227   3.977   6.031   4.289  0.1725 -0.0927  0.9367
 8776SOL    HW227228   3.934   5.891   4.362 -0.6190 -1.0565 -1.2958
 8777SOL     OW27229   2.510   5.488   4.886 -0.1125  0.0851 -0.4812
 8777SOL    HW127230   2.410   5.487   4.881 -0.1327 -1.2178 -0.2405
 8777SOL    HW227231   2.545   5.399   4.855  0.9283  0.2845  0.1022
 8778SOL     OW27232   5.612   2.159   1.514  0.5751  0.1167 -0.1905
 8778SOL    HW127233   5.589   2.121   1.603 -0.4954 -1.0853 -0.9455
 8778SOL    HW227234   5.675   2.236   1.525  1.1399 -0.5589  1.5223
 8779SOL     OW27235   3.222   4.665   0.861  0.7648 -0.1100 -0.4344
 8779SOL    HW127236   3.204   4.679   0.764  0.8771  0.8860 -0.3287
 8779SOL    HW227237   3.320   4.678   0.879  1.2183 -2.7715 -0.5673
 8780SOL     OW27238   0.169   2.205   4.614  0.5011 -0.0234 -0.5331
 8780SOL    HW127239   0.236   2.264   4.569  0.0884  1.2935  0.5085
 8780SOL    HW227240   0.080   2.215   4.569  0.5362 -0.2088 -0.6442
 8781SOL     OW27241   0.295   1.335   5.742 -1.0799 -1.1192 -0.1836
 8781SOL    HW127242   0.386   1.297   5.761  0.2634  1.5281 -0.7784
 8781SOL    HW227243   0.265   1.390   5.820 -0.8173  0.3364 -1.0703
 8782SOL     OW27244   3.510   0.020   1.658 -0.1437  0.1345 -0.1981
 8782SOL    HW127245   3.424   0.068   1.677 -0.6380 -1.1741  1.0878
 8782SOL    HW227246   3.554  -0.005   1.745  0.8677 -0.3791 -0.8406
 8783SOL     OW27247   4.085   5.089   1.862 -0.1998 -0.0813  0.3872
 8783SOL    HW127248   3.988   5.068   1.863  0.0696 -1.4711  0.0186
 8783SOL    HW227249   4.138   5.005   1.879  0.9372  0.5452  0.0803
 8784SOL     OW27250   0.065   6.523   0.300  0.2761 -0.1851  0.0713
 8784SOL    HW127251   0.107   6.453   0.241  1.5841  0.7266 -0.1164
 8784SOL    HW227252   0.132   6.555   0.366 -0.2583  1.0237  0.0428
 8785SOL     OW27253   6.936   5.413   1.122  0.1604  0.1848 -0.4161
 8785SOL    HW127254   6.961   5.409   1.219  0.2913  0.6376 -0.4275
 8785SOL    HW227255   7.007   5.369   1.068  0.3889  0.4692 -0.3535
 8786SOL     OW27256   4.021   5.760   3.777 -0.2897 -0.3832  0.8575
 8786SOL    HW127257   3.969   5.677   3.797 -1.1796  0.4430  2.1706
 8786SOL    HW227258   4.110   5.757   3.823 -0.3576 -0.5776  0.9740
 8787SOL     OW27259   2.932   4.245   7.005 -0.4989 -0.0211  0.1928
 8787SOL    HW127260   2.897   4.158   7.038 -0.1227 -0.4184 -0.4505
 8787SOL    HW227261   2.941   4.243   6.906  3.6577 -0.8687  0.3885
 8788SOL     OW27262   5.421   6.178   0.465  0.2398  0.2242 -0.2309
 8788SOL    HW127263   5.491   6.221   0.408 -1.1388  0.6241 -1.6960
 8788SOL    HW227264   5.348   6.243   0.484 -0.4149 -0.5775  0.0960
 8789SOL     OW27265   5.146   5.499   1.050 -0.0847 -0.2112 -0.7105
 8789SOL    HW127266   5.083   5.576   1.050  0.1224  0.0234 -2.9155
 8789SOL    HW227267   5.182   5.485   1.143 -1.7777  0.9305  0.1646
 8790SOL     OW27268   3.722   3.521   2.772 -0.0738  0.5021  0.2247
 8790SOL    HW127269   3.671   3.474   2.701  0.7462 -0.2439  0.1116
 8790SOL    HW227270   3.743   3.457   2.846  1.1695  0.6432  0.0136
 8791SOL     OW27271   3.347   4.669   6.638  0.0116 -0.0530  1.0893
 8791SOL    HW127272   3.332   4.607   6.715 -1.6896  1.0616  1.6995
 8791SOL    HW227273   3.439   4.707   6.643  0.9658 -2.2038  0.9028
 8792SOL     OW27274   2.178   4.223   1.968  0.2824 -0.3608 -0.0628
 8792SOL    HW127275   2.214   4.136   1.935  3.3706  0.8096 -0.1768
 8792SOL    HW227276   2.164   4.285   1.891  2.2661  0.5850  0.2665
 8793SOL     OW27277   1.363   5.561   1.800  0.1611 -0.8400 -0.3308
 8793SOL    HW127278   1.379   5.494   1.873  1.9770 -0.1150 -0.0147
 8793SOL    HW227279   1.317   5.516   1.723 -1.8387 -1.6107  1.2315
 8794SOL     OW27280   3.397   2.769   0.955 -0.2803  0.0631  0.1558
 8794SOL    HW127281   3.350   2.680   0.953 -2.5526  1.1903  0.0738
 8794SOL    HW227282   3.396   2.810   0.864  1.4960 -0.1307  0.0064
 8795SOL     OW27283   6.315   5.622   2.425  0.6314 -0.2320 -0.2344
 8795SOL    HW127284   6.391   5.687   2.422  0.5304  0.0065  1.4233
 8795SOL    HW227285   6.323   5.567   2.508 -0.3679 -1.0050 -0.6446
 8796SOL     OW27286   3.182   3.192   0.251 -0.3958  0.4595 -0.0722
 8796SOL    HW127287   3.268   3.146   0.275 -0.9749 -1.2555 -1.1021
 8796SOL    HW227288   3.132   3.215   0.334  0.5851  0.5916  0.5070
 8797SOL     OW27289   2.943   3.260   4.207  0.1448 -0.0566 -0.2460
 8797SOL    HW127290   2.901   3.203   4.137 -0.1930 -0.3917  0.2271
 8797SOL    HW227291   2.887   3.341   4.223 -0.3435 -0.5135  0.3993
 8798SOL     OW27292   5.709   0.537   4.911 -0.6141 -0.2114  0.1878
 8798SOL    HW127293   5.647   0.500   4.842 -1.1337 -1.6041  1.3324
 8798SOL    HW227294   5.799   0.553   4.871 -1.4823  1.1628 -1.3367
 8799SOL     OW27295   2.449   7.001   4.904 -0.2168  0.0653 -0.0106
 8799SOL    HW127296   2.494   7.046   4.827  1.3993  1.8896  1.8777
 8799SOL    HW227297   2.429   7.069   4.975  2.3548 -2.0527  3.0296
 8800SOL     OW27298   3.923   3.603   6.474  0.6377  0.2008 -0.1870
 8800SOL    HW127299   3.996   3.663   6.442  0.3565  1.0426  0.7104
 8800SOL    HW227300   3.853   3.595   6.403 -0.7468  3.2996  0.6815
 8801SOL     OW27301   3.519   3.169   3.873  0.3841 -0.6618  0.2278
 8801SOL    HW127302   3.618   3.175   3.882  0.2446  1.6908  0.8848
 8801SOL    HW227303   3.492   3.194   3.780  0.3366  0.1948  0.4648
 8802SOL     OW27304   4.038   3.195   5.432  0.1901  0.2011 -0.0560
 8802SOL    HW127305   4.133   3.165   5.448  0.7478  1.7333 -0.3212
 8802SOL    HW227306   3.993   3.131   5.370  1.9657  0.9612 -2.2522
 8803SOL     OW27307   4.885   4.564   0.877  0.1412  0.7917 -0.4864
 8803SOL    HW127308   4.837   4.545   0.963 -1.0917  2.1332 -0.8428
 8803SOL    HW227309   4.867   4.658   0.849  2.4878  1.1459 -0.9967
 8804SOL     OW27310   2.814   1.946   3.559  0.3505  0.4302  0.4910
 8804SOL    HW127311   2.796   1.864   3.613 -3.8386  0.6928 -0.1961
 8804SOL    HW227312   2.834   1.920   3.465 -1.8892  0.1319  0.0582
 8805SOL     OW27313   4.110   5.078   1.280  0.1024  0.7130 -0.3983
 8805SOL    HW127314   4.019   5.037   1.269 -0.0929  1.1437 -0.4331
 8805SOL    HW227315   4.178   5.006   1.292  0.1469  0.2160 -3.0068
 8806SOL     OW27316   0.880   1.832   6.536 -0.2409 -0.2169 -0.1356
 8806SOL    HW127317   0.835   1.913   6.574 -1.2644 -1.0214  0.4104
 8806SOL    HW227318   0.821   1.790   6.467 -0.3222 -1.2428  0.5320
 8807SOL     OW27319   4.131   3.725   3.564 -0.0372  0.2217 -0.5496
 8807SOL    HW127320   4.123   3.799   3.632  0.6746  0.0654 -0.2845
 8807SOL    HW227321   4.056   3.732   3.499 -0.4814  0.6525 -0.0108
 8808SOL     OW27322   0.103   1.376   1.128  0.0662 -0.3394  0.4956
 8808SOL    HW127323   0.013   1.402   1.092  0.3576  0.4588  0.3275
 8808SOL    HW227324   0.095   1.354   1.225 -0.3503 -0.5108  0.4259
 8809SOL     OW27325   3.685   6.315   5.781  0.0192 -0.1618 -0.1090
 8809SOL    HW127326   3.628   6.338   5.702  0.5131  1.6297  0.0054
 8809SOL    HW227327   3.747   6.240   5.756 -1.5198 -1.3314 -0.6006
 8810SOL     OW27328   4.057   2.599   1.439  0.1414 -0.5196 -0.7732
 8810SOL    HW127329   4.142   2.546   1.436  1.5810  1.6429 -0.5172
 8810SOL    HW227330   4.030   2.614   1.534 -0.4215 -0.9912 -0.8503
 8811SOL     OW27331   2.129   5.558   4.403  0.1606  0.1874 -0.4524
 8811SOL    HW127332   2.171   5.535   4.491  1.4718 -0.3974 -1.1996
 8811SOL    HW227333   2.193   5.536   4.329 -1.4761 -0.6911 -1.6629
 8812SOL     OW27334   3.456   4.025   0.160 -0.7189 -0.4524 -0.1118
 8812SOL    HW127335   3.481   3.947   0.103 -3.3336 -0.3006 -1.5856
 8812SOL    HW227336   3.357   4.034   0.164 -0.5789  1.1311  2.3893
 8813SOL     OW27337   5.364   4.070   6.067  0.3514  0.1650 -0.1354
 8813SOL    HW127338   5.419   4.153   6.064  2.7799 -1.2120  2.1787
 8813SOL    HW227339   5.341   4.048   6.161 -0.5458 -1.6026 -0.7090
 8814SOL     OW27340   4.737   1.406   4.520 -0.2671  0.1502 -0.4921
 8814SOL    HW127341   4.646   1.437   4.550 -0.4072  0.4585 -1.2084
 8814SOL    HW227342   4.733   1.382   4.423  0.8376  1.9963 -1.0615
 8815SOL     OW27343   1.268   1.236   6.423 -0.2374  0.5191 -0.7431
 8815SOL    HW127344   1.356   1.208   6.463 -0.4025  1.5083  0.3505
 8815SOL    HW227345   1.197   1.171   6.451  0.0149  0.0979 -1.0698
 8816SOL     OW27346   0.554   1.452   5.352  0.5322 -0.2592  0.1970
 8816SOL    HW127347   0.458   1.464   5.325 -0.1939 -1.1211  2.1524
 8816SOL    HW227348   0.592   1.371   5.307  0.2196 -0.1513 -0.2667
 8817SOL     OW27349   5.278   4.818   6.485  0.4309  0.1102  0.1345
 8817SOL    HW127350   5.327   4.761   6.419  1.5430  1.5365 -0.3366
 8817SOL    HW227351   5.197   4.857   6.441  0.8608  0.6037 -0.2437
 8818SOL     OW27352   5.510   4.527   6.735 -0.2298  0.0419 -0.2358
 8818SOL    HW127353   5.518   4.529   6.636  0.4839  1.7449 -0.1713
 8818SOL    HW227354   5.447   4.454   6.762  0.8233 -1.5228 -1.8241
 8819SOL     OW27355   3.313   0.436   3.942 -0.1541  0.1841 -0.1458
 8819SOL    HW127356   3.319   0.452   4.040 -0.0074 -1.1269  0.0741
 8819SOL    HW227357   3.243   0.367   3.923 -1.9726  2.1957 -1.1962
 8820SOL     OW27358   6.592   1.617   0.319 -0.6404 -0.7664  0.0495
 8820SOL    HW127359   6.506   1.633   0.271 -0.9826  0.3242  0.9674
 8820SOL    HW227360   6.656   1.692   0.300 -0.6022 -0.5751  0.8677
 8821SOL     OW27361   3.187   2.553   1.735 -0.0004  0.5887 -0.6906
 8821SOL    HW127362   3.092   2.525   1.751  0.8263 -0.8178  2.5535
 8821SOL    HW227363   3.205   2.639   1.784  0.7959 -0.0474  0.1700
 8822SOL     OW27364   0.924   2.634   0.022  0.0060  0.4833 -0.5625
 8822SOL    HW127365   0.915   2.701   0.095 -0.9168  0.2064 -0.4149
 8822SOL    HW227366   0.927   2.681  -0.067  3.2537  0.9955 -0.3014
 8823SOL     OW27367   4.811   2.186   3.029  0.2810  0.4309 -0.4700
 8823SOL    HW127368   4.741   2.255   3.048 -0.5210 -0.9741  2.0753
 8823SOL    HW227369   4.785   2.133   2.948 -0.4414  1.3173 -0.8458
 8824SOL     OW27370   4.942   4.904   2.238 -0.0112  0.1860  0.5412
 8824SOL    HW127371   4.886   4.959   2.301  0.9748 -0.0928  1.6919
 8824SOL    HW227372   5.030   4.949   2.224 -0.0962  0.0832 -0.4295
 8825SOL     OW27373   0.867   2.794   3.934 -0.8748  0.6165  0.4868
 8825SOL    HW127374   0.947   2.808   3.876 -0.5087  0.2071  0.8826
 8825SOL    HW227375   0.787   2.836   3.892  0.0382  3.4334  1.3484
 8826SOL     OW27376   2.363   3.225   5.768  0.1535 -0.1162  0.2656
 8826SOL    HW127377   2.415   3.153   5.721  0.0427  0.1692 -0.2954
 8826SOL    HW227378   2.280   3.246   5.716  1.0775  1.6885 -0.5476
 8827SOL     OW27379   4.616   1.551   5.757 -0.6386  0.2156 -0.9159
 8827SOL    HW127380   4.539   1.576   5.698 -1.4507 -2.4856 -1.1455
 8827SOL    HW227381   4.698   1.538   5.701 -0.2160  2.0888 -0.7993
 8828SOL     OW27382   3.277   0.961   0.179  0.5456  0.3194 -0.2942
 8828SOL    HW127383   3.249   0.899   0.252  2.0962  1.2144  1.1252
 8828SOL    HW227384   3.298   0.908   0.097  0.7748 -0.9312  0.5409
 8829SOL     OW27385   4.512   3.290   0.487 -0.2445  0.0869  0.7265
 8829SOL    HW127386   4.538   3.383   0.513  0.4298  0.5363 -1.3478
 8829SOL    HW227387   4.591   3.243   0.447 -1.5292  0.1565 -2.1991
 8830SOL     OW27388   1.215   5.563   4.717 -0.1191  0.6386  0.9538
 8830SOL    HW127389   1.133   5.514   4.688  1.4153 -0.9455 -0.9968
 8830SOL    HW227390   1.209   5.659   4.688  0.0869 -0.2217 -2.1746
 8831SOL     OW27391   6.754   3.964   4.050  0.2924 -0.7589  0.4982
 8831SOL    HW127392   6.667   3.921   4.029  0.9501 -2.5080  1.1815
 8831SOL    HW227393   6.778   3.946   4.146 -0.3902  2.9668  1.5469
 8832SOL     OW27394   6.425   0.662   3.561  0.0294  0.2769 -0.0510
 8832SOL    HW127395   6.463   0.743   3.607  2.1286 -2.1675  2.9225
 8832SOL    HW227396   6.325   0.666   3.567  0.1056  2.0591  1.1282
 8833SOL     OW27397   5.940   6.425   5.263  0.1732 -0.1851 -0.6229
 8833SOL    HW127398   5.976   6.332   5.259  2.5043  0.5458  1.1995
 8833SOL    HW227399   5.980   6.480   5.189 -1.2462 -0.5624 -1.7345
 8834SOL     OW27400   0.298   3.260   1.405 -0.2390 -0.2798 -0.2745
 8834SOL    HW127401   0.306   3.244   1.306 -0.2483 -0.4238 -0.2526
 8834SOL    HW227402   0.222   3.322   1.423  0.7047  0.9906 -0.4799
 8835SOL     OW27403   6.877   4.685   4.465  0.5207 -0.0544 -0.4521
 8835SOL    HW127404   6.967   4.707   4.502  0.0566  0.3800  0.4456
 8835SOL    HW227405   6.809   4.685   4.539  0.0521 -2.0140 -0.8336
 8836SOL     OW27406   6.404   3.247   2.989 -0.2999 -0.6451 -0.0836
 8836SOL    HW127407   6.447   3.185   2.923  0.9607 -0.1814  0.2823
 8836SOL    HW227408   6.463   3.258   3.068 -0.9481  0.2872  0.2923
 8837SOL     OW27409   3.525   3.583   5.567  0.0372  0.3457 -0.2498
 8837SOL    HW127410   3.604   3.557   5.512  0.6299  0.1253  0.6830
 8837SOL    HW227411   3.525   3.682   5.580 -1.4324  0.7455 -2.6041
 8838SOL     OW27412   0.987   7.017   6.252  0.5523  0.2322  0.1750
 8838SOL    HW127413   1.084   6.998   6.237  0.2970 -0.9817 -0.0494
 8838SOL    HW227414   0.946   6.941   6.304 -1.2784 -1.6364 -3.5795
 8839SOL     OW27415   0.535   3.981   3.723 -0.0812  0.3700  0.7268
 8839SOL    HW127416   0.508   4.076   3.738  0.0214  0.5062  0.1112
 8839SOL    HW227417   0.581   3.946   3.804  2.7851  1.8822 -0.0870
 8840SOL     OW27418   2.404   3.993   6.201  0.0715  0.4871  0.1518
 8840SOL    HW127419   2.370   4.014   6.292  2.3939  0.1829  1.1653
 8840SOL    HW227420   2.454   4.072   6.165 -1.4763  0.8833 -1.2269
 8841SOL     OW27421   4.043   5.178   0.407  0.2896 -0.7529 -0.3598
 8841SOL    HW127422   3.996   5.250   0.457  0.5218  0.0328 -1.2540
 8841SOL    HW227423   4.130   5.157   0.453 -0.1715 -1.0905  0.3879
 8842SOL     OW27424   3.953   4.886   4.728 -0.1356 -0.2805 -0.3912
 8842SOL    HW127425   3.994   4.950   4.793 -2.7322  3.0108 -1.7099
 8842SOL    HW227426   3.868   4.850   4.765 -0.0489 -0.8595 -0.7432
 8843SOL     OW27427   5.134   4.464   1.594  0.2978  0.0104  0.1479
 8843SOL    HW127428   5.195   4.413   1.533  2.2405  0.3927  1.6630
 8843SOL    HW227429   5.136   4.423   1.685  0.9145  1.9866  1.0816
 8844SOL     OW27430   2.170   2.404   2.743 -0.6668 -0.0251  0.0272
 8844SOL    HW127431   2.086   2.458   2.747 -1.0072 -0.5708  0.3092
 8844SOL    HW227432   2.232   2.432   2.816 -1.0151 -0.2981  0.4285
 8845SOL     OW27433   2.466   4.974   0.646 -0.4409 -0.2354 -0.3751
 8845SOL    HW127434   2.431   5.046   0.586  0.0871 -1.0348 -1.7047
 8845SOL    HW227435   2.430   4.885   0.616 -1.0803 -0.5631  1.2299
 8846SOL     OW27436   6.732   6.928   3.915 -0.2625  0.5227 -0.1484
 8846SOL    HW127437   6.642   6.970   3.911 -0.3411  0.8155  2.5322
 8846SOL    HW227438   6.792   6.971   3.848 -1.0890  3.1203  0.6388
 8847SOL     OW27439   2.207   2.784   0.287  0.0955  0.5530 -0.7861
 8847SOL    HW127440   2.273   2.719   0.248  0.8641  1.4382 -0.9911
 8847SOL    HW227441   2.158   2.739   0.362 -0.3623 -0.6974 -1.7835
 8848SOL     OW27442   2.670   2.262   5.515 -0.3201  0.4606  0.8423
 8848SOL    HW127443   2.608   2.185   5.497  1.1657 -0.4547 -0.7844
 8848SOL    HW227444   2.736   2.235   5.585  0.1880  0.2188  0.2862
 8849SOL     OW27445   5.030   0.213   4.043 -0.0894  0.3756 -0.0667
 8849SOL    HW127446   5.041   0.282   4.115 -1.5913 -0.1198  0.6759
 8849SOL    HW227447   4.992   0.257   3.961 -1.1599  0.4356  0.4451
 8850SOL     OW27448   5.068   1.710   2.820 -0.1252  0.2753  0.2048
 8850SOL    HW127449   5.056   1.713   2.721  1.5970 -3.0429 -0.2281
 8850SOL    HW227450   5.164   1.693   2.842 -0.5707  0.3026  2.4441
 8851SOL     OW27451   5.137   0.419   6.641  0.1562  0.5742  0.1181
 8851SOL    HW127452   5.150   0.440   6.738 -0.3738  2.3883 -0.1708
 8851SOL    HW227453   5.041   0.395   6.625 -0.2775  2.4684 -0.2953
 8852SOL     OW27454   6.484   0.783   2.326  0.2874 -0.1425  0.5846
 8852SOL    HW127455   6.481   0.756   2.422 -0.5603 -0.0206  0.5994
 8852SOL    HW227456   6.455   0.707   2.268 -0.1795  0.1018  0.4944
 8853SOL     OW27457   5.038   6.165   5.822 -0.4414 -0.1546  0.2621
 8853SOL    HW127458   5.096   6.209   5.753 -0.2016 -0.0593  0.5236
 8853SOL    HW227459   5.036   6.066   5.805 -1.1243 -0.0290 -0.4295
 8854SOL     OW27460   2.118   0.735   2.121 -0.4819 -0.9982 -0.1347
 8854SOL    HW127461   2.143   0.706   2.029 -0.4981 -1.9601  0.1495
 8854SOL    HW227462   2.056   0.667   2.162 -1.4873  0.0437  0.1226
 8855SOL     OW27463   2.586   4.969   3.910 -0.2472  0.3234  0.2008
 8855SOL    HW127464   2.621   4.937   3.822 -0.1605  0.3639  0.2200
 8855SOL    HW227465   2.646   4.939   3.984  0.7516  1.8892  0.0755
 8856SOL     OW27466   2.605   6.772   2.955  0.1354 -0.4130  0.2950
 8856SOL    HW127467   2.601   6.815   3.045  0.4683  2.6799 -1.0209
 8856SOL    HW227468   2.513   6.748   2.925 -0.0825 -0.5691  1.0854
 8857SOL     OW27469   6.460   1.986   5.524  0.4725 -0.4249 -0.2213
 8857SOL    HW127470   6.547   2.020   5.560  0.0070  0.8176 -0.2140
 8857SOL    HW227471   6.424   2.052   5.458 -0.2388 -1.1595 -0.5859
 8858SOL     OW27472   3.990   5.809   5.075  0.3627 -0.2061 -0.4065
 8858SOL    HW127473   3.937   5.887   5.110 -1.5030 -0.6994 -1.9631
 8858SOL    HW227474   3.958   5.725   5.119 -1.9160 -0.8145 -2.9982
 8859SOL     OW27475   3.653   0.238   1.571  0.1624 -0.1088  0.2526
 8859SOL    HW127476   3.668   0.297   1.651  1.0184 -0.1536  0.1355
 8859SOL    HW227477   3.592   0.162   1.596 -1.1046  0.9104  0.3556
 8860SOL     OW27478   5.996   1.391   0.300 -0.0342 -0.2398 -0.1839
 8860SOL    HW127479   6.041   1.337   0.229 -0.6863 -0.5007 -0.4046
 8860SOL    HW227480   6.041   1.374   0.388 -0.2248 -1.1425 -0.2485
 8861SOL     OW27481   6.745   6.816   0.203 -0.1670 -0.1875  0.2762
 8861SOL    HW127482   6.754   6.720   0.231  0.5580 -0.5003 -0.9218
 8861SOL    HW227483   6.651   6.846   0.215 -0.9049 -1.7166 -1.2436
 8862SOL     OW27484   0.417   6.826   3.340  0.0695  0.0844  0.4050
 8862SOL    HW127485   0.334   6.773   3.357  0.8407 -1.1436  0.4710
 8862SOL    HW227486   0.412   6.867   3.249  0.2012 -1.6049 -0.4032
 8863SOL     OW27487   6.911   0.890   6.397  0.1740 -0.2978  0.7139
 8863SOL    HW127488   6.997   0.940   6.393  0.3334 -0.6095  0.0994
 8863SOL    HW227489   6.875   0.878   6.305 -0.4451 -0.3188  0.9515
 8864SOL     OW27490   3.499   4.776   6.947 -0.2619  0.2126  0.2495
 8864SOL    HW127491   3.454   4.719   7.016 -2.1852  2.2084  0.7748
 8864SOL    HW227492   3.498   4.729   6.859 -0.4687 -1.1408  0.9431
 8865SOL     OW27493   1.180   0.316   6.831  0.4376 -0.2548 -0.3998
 8865SOL    HW127494   1.109   0.247   6.817  0.3592 -0.0581 -1.0040
 8865SOL    HW227495   1.169   0.357   6.921  0.6569 -1.2273  0.0830
 8866SOL     OW27496   3.399   6.498   1.913  0.1528 -0.3658  0.2828
 8866SOL    HW127497   3.462   6.437   1.962 -1.6686 -2.5150  0.1384
 8866SOL    HW227498   3.441   6.527   1.827  1.0641 -1.4871  0.3220
 8867SOL     OW27499   1.008   6.649   2.941 -0.3681 -0.8411  0.3171
 8867SOL    HW127500   0.957   6.659   3.027 -1.2991 -0.4240 -0.2702
 8867SOL    HW227501   1.008   6.553   2.913  0.4576 -1.0789  1.0799
 8868SOL     OW27502   5.082   0.971   1.397 -0.1197 -0.2373  0.5376
 8868SOL    HW127503   5.148   0.962   1.472  2.2570  0.2134 -1.3808
 8868SOL    HW227504   5.089   1.063   1.358 -1.2636 -0.4828 -0.3004
 8869SOL     OW27505   4.352   2.075   4.051 -0.0048 -0.3064 -1.1849
 8869SOL    HW127506   4.334   2.164   4.094  0.7858 -1.3235  1.3803
 8869SOL    HW227507   4.430   2.084   3.989  0.2459  0.7217 -0.7460
 8870SOL     OW27508   5.164   4.585   6.639  0.2781 -0.8003  0.0917
 8870SOL    HW127509   5.091   4.545   6.584  1.3754 -0.7960 -1.4266
 8870SOL    HW227510   5.201   4.666   6.592  1.2755 -0.8169  0.8107
 8871SOL     OW27511   2.934   1.034   4.974  0.5482 -0.0250 -0.0742
 8871SOL    HW127512   3.015   1.057   5.028  0.3334 -1.5337  0.9445
 8871SOL    HW227513   2.900   0.945   5.001 -1.3201  0.4580 -0.6822
 8872SOL     OW27514   2.734   0.227   1.025 -0.1733  0.2464  0.4311
 8872SOL    HW127515   2.818   0.245   0.974 -0.3529 -1.0778 -0.3635
 8872SOL    HW227516   2.737   0.135   1.062 -2.1767 -0.6807 -1.5005
 8873SOL     OW27517   2.143   6.730   6.204 -0.0448  0.5351 -0.1216
 8873SOL    HW127518   2.122   6.652   6.145 -0.9632  0.4835  0.2607
 8873SOL    HW227519   2.239   6.756   6.191  0.0107 -0.0377 -0.9688
 8874SOL     OW27520   5.411   5.850   2.672  0.0996  0.5908  0.5415
 8874SOL    HW127521   5.505   5.880   2.687 -0.1121  1.6245 -0.0715
 8874SOL    HW227522   5.350   5.928   2.678 -0.4251  0.4141 -1.5842
 8875SOL     OW27523   6.893   3.785   3.583 -0.2523 -0.3764 -0.1665
 8875SOL    HW127524   6.836   3.726   3.526  0.6702 -0.3610 -1.1480
 8875SOL    HW227525   6.836   3.834   3.648 -1.2316 -1.0928 -0.4663
 8876SOL     OW27526   2.766   3.499   5.967 -0.0133 -0.5757 -0.4393
 8876SOL    HW127527   2.723   3.519   5.878  0.4794 -0.4770 -0.6580
 8876SOL    HW227528   2.719   3.422   6.010 -3.6661  2.4017  1.5765
 8877SOL     OW27529   6.512   3.990   1.331 -0.4695 -0.1843  0.0484
 8877SOL    HW127530   6.560   3.983   1.244 -0.2446 -2.0971  0.2866
 8877SOL    HW227531   6.446   4.065   1.327 -0.2815 -0.0741 -1.6547
 8878SOL     OW27532   6.638   0.003   4.370  0.2820 -0.7776 -0.4333
 8878SOL    HW127533   6.702   0.015   4.446 -0.9679  0.5506  0.4697
 8878SOL    HW227534   6.675  -0.063   4.305  1.4066 -1.9511  1.3213
 8879SOL     OW27535   0.420   1.084   2.700 -0.3938  0.3052  0.5689
 8879SOL    HW127536   0.513   1.087   2.664 -1.2431 -0.0215 -1.8374
 8879SOL    HW227537   0.415   1.018   2.775  1.3743  0.6379  1.0168
 8880SOL     OW27538   1.978   2.499   4.988 -0.1783  0.3622  0.5835
 8880SOL    HW127539   2.019   2.436   5.053 -0.7232 -0.8600 -0.2195
 8880SOL    HW227540   1.886   2.523   5.018  0.4684  1.7991  1.5298
 8881SOL     OW27541   5.246   2.587   5.219 -0.0434 -0.3280 -0.4301
 8881SOL    HW127542   5.298   2.659   5.265  0.2603 -0.4230 -0.6229
 8881SOL    HW227543   5.231   2.511   5.282  0.2352 -0.3906 -0.4387
 8882SOL     OW27544   0.564   6.638   1.978 -0.5866 -0.0444  0.0975
 8882SOL    HW127545   0.529   6.694   2.053 -2.0726 -0.2109 -0.4345
 8882SOL    HW227546   0.561   6.542   2.004  3.0778  0.0746  1.4676
 8883SOL     OW27547   6.033   3.968   5.869  0.6587  0.4336 -0.2526
 8883SOL    HW127548   6.036   4.038   5.798 -1.8512 -0.5597 -1.4572
 8883SOL    HW227549   6.019   4.010   5.958 -0.8818  1.5026 -0.9648
 8884SOL     OW27550   2.021   3.380   2.108 -0.1596 -0.4613  0.5012
 8884SOL    HW127551   1.957   3.439   2.158 -0.3431  0.0690 -0.3324
 8884SOL    HW227552   2.109   3.427   2.098  0.0584 -0.8000  0.8220
 8885SOL     OW27553   0.483   5.273   6.185 -0.1412  0.2825  0.3573
 8885SOL    HW127554   0.453   5.324   6.104  1.6579 -0.0548 -0.5677
 8885SOL    HW227555   0.444   5.181   6.183 -0.8755  0.5803  0.4051
 8886SOL     OW27556   5.857   6.575   2.506 -0.1235 -0.0505  0.2634
 8886SOL    HW127557   5.758   6.560   2.503 -0.3644  1.2083  1.1441
 8886SOL    HW227558   5.890   6.597   2.414 -1.2076  2.4585  0.3768
 8887SOL     OW27559   4.556   0.250   6.163 -0.1408  0.2148 -0.4026
 8887SOL    HW127560   4.471   0.260   6.111  0.4864 -1.4537 -1.8370
 8887SOL    HW227561   4.551   0.167   6.218  0.5124  0.1605 -0.4188
 8888SOL     OW27562   5.963   5.995   3.049 -0.5418 -0.0968  0.1417
 8888SOL    HW127563   5.924   5.972   3.138  0.2092 -0.7111  0.3281
 8888SOL    HW227564   5.914   6.072   3.010 -2.4151 -1.3008  0.0161
 8889SOL     OW27565   6.393   3.620   2.705 -0.5979  1.3870 -0.2257
 8889SOL    HW127566   6.411   3.522   2.690 -0.5545  1.1239  1.4340
 8889SOL    HW227567   6.430   3.672   2.628  1.9691  0.3256  0.1815
 8890SOL     OW27568   3.843   6.526   5.473 -0.0713 -0.6520  0.2229
 8890SOL    HW127569   3.768   6.561   5.530 -1.0304  0.4675 -1.6147
 8890SOL    HW227570   3.920   6.590   5.477  1.0530 -2.0359  2.4828
 8891SOL     OW27571   0.869   6.743   2.295  0.0190 -0.5399 -0.0591
 8891SOL    HW127572   0.806   6.716   2.368  0.0789  0.8085  0.5388
 8891SOL    HW227573   0.817   6.781   2.218  0.0586  0.2985  0.3125
 8892SOL     OW27574   0.871   4.373   6.110  0.0779 -0.2282  0.6262
 8892SOL    HW127575   0.872   4.308   6.034  2.5719  0.0045  0.3854
 8892SOL    HW227576   0.910   4.329   6.191  1.6114  0.8301  0.5140
 8893SOL     OW27577   5.098   4.856   6.233  0.3424  0.4963  0.1748
 8893SOL    HW127578   5.174   4.792   6.227  1.3498  1.6716  0.0315
 8893SOL    HW227579   5.038   4.830   6.309  0.7814 -0.5468  0.1764
 8894SOL     OW27580   1.990   3.903   6.786  0.7439 -0.1280 -0.1439
 8894SOL    HW127581   2.060   3.890   6.857  1.5195 -1.4052 -1.0953
 8894SOL    HW227582   1.991   3.998   6.756  0.3988  0.4361  1.5354
 8895SOL     OW27583   1.712   2.773   4.436 -0.3241  0.3728 -0.4315
 8895SOL    HW127584   1.615   2.750   4.429 -0.4139 -0.0865  1.6332
 8895SOL    HW227585   1.753   2.722   4.512  0.8346  2.7428  0.6247
 8896SOL     OW27586   6.629   5.745   0.516  0.5997  0.1433 -0.6457
 8896SOL    HW127587   6.677   5.657   0.509  0.9817  0.3338 -0.4553
 8896SOL    HW227588   6.577   5.747   0.602  0.3720 -0.0030 -0.7792
 8897SOL     OW27589   3.077   5.364   4.167 -0.5299  0.6408 -0.0962
 8897SOL    HW127590   3.158   5.327   4.121  1.3983  3.0201  1.1485
 8897SOL    HW227591   3.029   5.290   4.214  2.5272 -0.5680  1.4475
 8898SOL     OW27592   5.095   1.364   6.337 -0.1343  0.3627 -0.4635
 8898SOL    HW127593   5.069   1.311   6.256  1.9998 -0.6693 -0.5400
 8898SOL    HW227594   5.144   1.305   6.401  3.1142  2.3136 -0.9168
 8899SOL     OW27595   2.264   2.101   6.600 -0.3098  0.4070 -0.6369
 8899SOL    HW127596   2.281   2.145   6.688 -2.2495 -0.6390  0.3378
 8899SOL    HW227597   2.302   2.009   6.601  0.7075  0.8061 -1.3663
 8900SOL     OW27598   5.422   1.401   5.447 -0.5542 -0.1112 -0.0543
 8900SOL    HW127599   5.419   1.494   5.410  0.6042 -0.6867 -1.6920
 8900SOL    HW227600   5.466   1.340   5.381 -0.2529 -1.6137  1.4657
 8901SOL     OW27601   1.882   4.689   5.512  0.0584  0.1893 -0.0958
 8901SOL    HW127602   1.889   4.590   5.529 -0.9423  0.1634  0.2597
 8901SOL    HW227603   1.857   4.736   5.596  0.4105  0.7404 -0.2912
 8902SOL     OW27604   1.164   6.022   6.461  0.0259  0.2072  0.2066
 8902SOL    HW127605   1.117   6.008   6.548  1.4307 -0.2130  0.9205
 8902SOL    HW227606   1.104   5.994   6.386 -0.4951 -1.3040  1.1391
 8903SOL     OW27607   2.136   3.106   4.917 -0.2155 -0.0423 -0.7948
 8903SOL    HW127608   2.060   3.078   4.858 -0.3563 -0.9122 -0.2270
 8903SOL    HW227609   2.194   3.027   4.936  0.3815  0.4431 -0.5700
 8904SOL     OW27610   6.112   5.861   3.532 -0.3497 -0.5256  0.1542
 8904SOL    HW127611   6.134   5.784   3.593  0.3059 -0.0904  0.4760
 8904SOL    HW227612   6.196   5.895   3.490 -0.2804  1.4569  1.7440
 8905SOL     OW27613   4.609   0.620   4.931 -0.0779  0.0490  0.2471
 8905SOL    HW127614   4.699   0.663   4.931  0.7164 -1.5609  0.6090
 8905SOL    HW227615   4.571   0.623   4.838  0.2398  0.9100  0.1300
 8906SOL     OW27616   5.174   6.026   5.428  0.2853  0.0575 -0.2695
 8906SOL    HW127617   5.248   6.083   5.393 -0.1755  1.3953  0.8175
 8906SOL    HW227618   5.133   5.975   5.353  1.3993  0.3510 -1.1117
 8907SOL     OW27619   4.230   3.507   5.228 -0.3616  0.4547  0.3071
 8907SOL    HW127620   4.239   3.418   5.183 -0.8310  1.0576 -1.0406
 8907SOL    HW227621   4.171   3.498   5.308 -0.0776 -0.5140  0.4251
 8908SOL     OW27622   2.256   0.717   3.543  0.3436  0.1333  0.6325
 8908SOL    HW127623   2.228   0.802   3.499  0.5494  0.0343  0.3045
 8908SOL    HW227624   2.331   0.677   3.491 -0.6567 -0.9626 -0.0070
 8909SOL     OW27625   1.741   4.504   6.715  0.2175  0.0992  0.5790
 8909SOL    HW127626   1.665   4.552   6.672  0.7484 -1.2197 -2.0628
 8909SOL    HW227627   1.718   4.407   6.723  0.2253  0.2631  3.2466
 8910SOL     OW27628   2.025   5.918   4.737 -0.1350  0.4420  0.0962
 8910SOL    HW127629   2.048   5.874   4.650  3.3331  3.1211 -0.6114
 8910SOL    HW227630   2.029   5.851   4.811  0.9395 -1.1818 -1.3567
 8911SOL     OW27631   1.415   4.394   5.673 -0.1322 -0.2775 -0.6591
 8911SOL    HW127632   1.395   4.468   5.738  0.9031  1.1154 -1.8542
 8911SOL    HW227633   1.514   4.382   5.666 -0.2738 -3.0860  0.8630
 8912SOL     OW27634   5.923   1.138   3.945 -0.0263 -0.7633 -0.5804
 8912SOL    HW127635   6.020   1.142   3.967  0.3020 -0.1178 -2.0395
 8912SOL    HW227636   5.879   1.224   3.971 -0.2655 -1.1257  0.2553
 8913SOL     OW27637   3.612   5.181   1.111 -0.3918  0.2594 -0.2557
 8913SOL    HW127638   3.650   5.134   1.191 -0.3170  1.2904  0.3374
 8913SOL    HW227639   3.682   5.186   1.039  0.3302  1.3105  0.4791
 8914SOL     OW27640   4.437   5.505   2.077 -1.1991  0.0656 -0.0297
 8914SOL    HW127641   4.494   5.516   1.996  0.1999  2.3698  1.1733
 8914SOL    HW227642   4.493   5.469   2.153 -1.8681  0.3112  0.5934
 8915SOL     OW27643   4.238   4.194   6.301 -0.1363 -0.0005  0.5156
 8915SOL    HW127644   4.250   4.162   6.207  0.2293  3.5673 -0.8183
 8915SOL    HW227645   4.144   4.179   6.330 -0.3959 -0.6753 -0.6063
 8916SOL     OW27646   4.513   4.409   0.731  0.1311 -0.6407 -0.2241
 8916SOL    HW127647   4.544   4.377   0.641 -1.4398 -0.9789 -0.6686
 8916SOL    HW227648   4.573   4.371   0.802  1.4990 -0.2218 -1.1184
 8917SOL     OW27649   0.383   4.100   5.289 -0.0379 -0.1259  0.4624
 8917SOL    HW127650   0.465   4.059   5.249 -0.3521 -2.2824  1.8345
 8917SOL    HW227651   0.408   4.177   5.346  0.7105  0.9684 -1.2482
 8918SOL     OW27652   3.506   0.588   3.801 -0.3358 -0.7853 -0.3534
 8918SOL    HW127653   3.586   0.566   3.857 -0.3509  1.1996  0.5282
 8918SOL    HW227654   3.429   0.530   3.828  0.0392 -0.7866  0.7431
 8919SOL     OW27655   6.824   1.972   6.063 -0.1951 -0.1817  0.0518
 8919SOL    HW127656   6.750   1.945   6.001  0.8324  1.7989 -2.2121
 8919SOL    HW227657   6.882   1.893   6.081 -1.3809 -1.1693 -0.2403
 8920SOL     OW27658   5.977   4.780   0.477  0.1926 -0.1251  0.5207
 8920SOL    HW127659   6.017   4.866   0.508 -0.3271 -0.1943  1.4157
 8920SOL    HW227660   5.889   4.766   0.523 -0.5623 -0.2864 -0.9167
 8921SOL     OW27661   1.244   6.134   4.383 -0.5158 -0.4094  0.3188
 8921SOL    HW127662   1.306   6.082   4.440 -0.2439 -0.9068 -0.4189
 8921SOL    HW227663   1.283   6.144   4.291 -2.3745 -2.4578 -0.7782
 8922SOL     OW27664   1.465   4.749   3.657 -0.5230 -0.1430 -0.2317
 8922SOL    HW127665   1.488   4.694   3.738 -1.0243  0.0572  0.0560
 8922SOL    HW227666   1.474   4.693   3.575 -1.2273 -0.7181  0.0736
 8923SOL     OW27667   5.299   4.781   0.696 -0.2736  0.6363  0.0646
 8923SOL    HW127668   5.359   4.857   0.670  0.1568  0.0213 -0.7791
 8923SOL    HW227669   5.218   4.781   0.639 -0.5340  0.7711  0.4278
 8924SOL     OW27670   5.559   0.893   2.062  0.5193  0.0047 -0.2104
 8924SOL    HW127671   5.635   0.919   2.121 -0.0241  0.3881  0.3376
 8924SOL    HW227672   5.487   0.963   2.068  0.9347  0.6675 -2.2507
 8925SOL     OW27673   3.480   5.464   3.184  0.0043 -0.6813 -0.3940
 8925SOL    HW127674   3.526   5.461   3.273 -1.8558 -0.8214  0.6267
 8925SOL    HW227675   3.447   5.373   3.160 -0.4847 -0.4433 -0.6613
 8926SOL     OW27676   4.494   1.861   5.688 -0.1957 -0.7503  0.8382
 8926SOL    HW127677   4.556   1.876   5.766 -0.1443 -0.4874  0.7478
 8926SOL    HW227678   4.506   1.935   5.622  0.7078 -1.6744 -0.0505
 8927SOL     OW27679   6.692   3.365   7.016 -0.2171 -0.2920 -0.6282
 8927SOL    HW127680   6.702   3.464   7.028 -0.4927 -0.3968  0.5979
 8927SOL    HW227681   6.696   3.320   7.105  0.6389 -1.4673 -1.2346
 8928SOL     OW27682   5.448   2.468   0.809 -0.6044 -0.0670  0.1377
 8928SOL    HW127683   5.352   2.486   0.787 -1.0399  0.2421  2.0426
 8928SOL    HW227684   5.480   2.537   0.874  0.1944 -1.4723  1.2945
 8929SOL     OW27685   3.660   0.898   2.421 -0.1392  0.2132  0.2042
 8929SOL    HW127686   3.660   0.990   2.460  0.6996 -0.2765  1.4176
 8929SOL    HW227687   3.676   0.904   2.322 -0.2662  1.3695  0.2373
 8930SOL     OW27688   5.367   3.985   3.824 -0.4119  0.0497  0.0807
 8930SOL    HW127689   5.300   3.911   3.828 -0.0374 -0.3528 -0.7502
 8930SOL    HW227690   5.418   3.989   3.910 -0.5345 -0.5734  0.1856
 8931SOL     OW27691   6.574   6.468   6.868  1.0158  0.1173  0.2954
 8931SOL    HW127692   6.631   6.410   6.926  0.8716 -0.7372 -0.4074
 8931SOL    HW227693   6.501   6.413   6.827 -0.7615  1.2958  1.6986
 8932SOL     OW27694   5.761   4.770   5.723 -0.7402 -0.8041  0.5147
 8932SOL    HW127695   5.743   4.703   5.651  0.4548 -0.0607 -0.5024
 8932SOL    HW227696   5.690   4.841   5.721 -1.7901 -1.7833  1.3480
 8933SOL     OW27697   5.310   0.140   2.406  0.1241  0.0187  0.0638
 8933SOL    HW127698   5.290   0.077   2.481  0.1249 -1.4166 -1.0903
 8933SOL    HW227699   5.395   0.189   2.425  0.8467 -1.3261  0.4039
 8934SOL     OW27700   2.528   6.601   2.257 -0.6784 -0.1926  0.5945
 8934SOL    HW127701   2.465   6.678   2.269  1.4401  1.7232  0.1415
 8934SOL    HW227702   2.567   6.576   2.346  0.1951  0.7200  0.4907
 8935SOL     OW27703   3.430   3.837   1.916  0.0405  0.1428 -0.4569
 8935SOL    HW127704   3.374   3.919   1.927 -0.0680 -0.0056  0.0895
 8935SOL    HW227705   3.505   3.857   1.853 -0.1784  0.5644 -0.5879
 8936SOL     OW27706   3.004   1.260   4.835  0.0528 -0.0455 -0.5744
 8936SOL    HW127707   3.093   1.253   4.880 -0.4807  0.7681  0.6658
 8936SOL    HW227708   2.949   1.179   4.857 -0.1209  0.2412  0.0677
 8937SOL     OW27709   2.424   2.196   4.474 -0.8218 -0.1295 -0.3113
 8937SOL    HW127710   2.466   2.188   4.383  1.4529  0.8043  0.5845
 8937SOL    HW227711   2.430   2.108   4.521 -0.5745 -0.1950 -0.4652
 8938SOL     OW27712   2.656   2.672   0.763  0.2788 -0.2032 -0.2498
 8938SOL    HW127713   2.742   2.701   0.805 -0.0434 -0.7894  0.8390
 8938SOL    HW227714   2.627   2.741   0.696  1.4961  0.0834 -0.5038
 8939SOL     OW27715   1.996   2.709   1.781 -0.3257 -0.3610 -0.7653
 8939SOL    HW127716   2.033   2.617   1.789 -1.3891 -0.7298  0.1658
 8939SOL    HW227717   2.071   2.775   1.783  0.4067 -1.1674 -0.9043
 8940SOL     OW27718   2.694   1.540   1.831 -0.3883 -0.0156 -0.0266
 8940SOL    HW127719   2.728   1.607   1.896  1.1094  0.0174 -0.8125
 8940SOL    HW227720   2.720   1.567   1.738 -1.5046 -0.6509 -0.5481
 8941SOL     OW27721   4.737   4.213   2.242 -0.2295  0.0878 -0.1168
 8941SOL    HW127722   4.647   4.221   2.199 -0.0488 -0.3094 -0.5757
 8941SOL    HW227723   4.788   4.139   2.199  0.1619  0.0342  0.4234
 8942SOL     OW27724   4.343   1.579   2.372 -0.3389  0.5635 -0.4657
 8942SOL    HW127725   4.262   1.607   2.321 -0.0766 -0.6102 -1.5742
 8942SOL    HW227726   4.332   1.484   2.402  0.5741  0.4341 -0.5249
 8943SOL     OW27727   5.691   3.351   1.480 -0.0977 -0.5213  0.6874
 8943SOL    HW127728   5.790   3.358   1.469 -0.2814 -0.7097 -1.6200
 8943SOL    HW227729   5.659   3.267   1.435 -1.4459  0.2047  0.2459
 8944SOL     OW27730   1.620   3.076   6.283  0.1575 -0.2355  0.3023
 8944SOL    HW127731   1.559   3.153   6.303 -0.4626 -0.1834 -1.5262
 8944SOL    HW227732   1.658   3.088   6.191  0.8124 -1.6259  0.3782
 8945SOL     OW27733   6.384   4.522   2.184 -0.0904 -0.7819  0.5571
 8945SOL    HW127734   6.399   4.477   2.096 -0.9304  0.0216 -0.0216
 8945SOL    HW227735   6.444   4.482   2.253  1.0292 -1.0187 -0.5129
 8946SOL     OW27736   0.733   2.343   0.613  0.2772  0.1826  0.1092
 8946SOL    HW127737   0.776   2.257   0.588 -0.0199  0.2239 -0.5710
 8946SOL    HW227738   0.703   2.340   0.709  0.4008 -0.4084  0.1280
 8947SOL     OW27739   6.265   3.989   0.828 -0.2818  0.3058  0.0404
 8947SOL    HW127740   6.247   4.019   0.922  0.9144  0.7062  0.1621
 8947SOL    HW227741   6.316   3.904   0.829  2.9846  2.0890 -0.0803
 8948SOL     OW27742   1.020   6.762   1.654  0.6711 -0.2077  0.5412
 8948SOL    HW127743   0.943   6.827   1.655 -0.2001 -1.2203  0.7915
 8948SOL    HW227744   1.036   6.728   1.746 -0.7769 -2.4958  0.0183
 8949SOL     OW27745   3.011   3.371   6.564 -0.3117  0.2840 -0.3525
 8949SOL    HW127746   2.917   3.383   6.534  0.2641  0.6098 -2.0945
 8949SOL    HW227747   3.056   3.460   6.571  0.4886  0.0140 -1.6991
 8950SOL     OW27748   1.063   5.163   4.468  0.0473  0.6573  0.1508
 8950SOL    HW127749   1.065   5.226   4.391  1.8568 -0.1330 -0.5091
 8950SOL    HW227750   1.155   5.154   4.505 -0.8299  1.3491  2.7315
 8951SOL     OW27751   2.375   4.866   1.715  0.1712 -0.0121 -0.0330
 8951SOL    HW127752   2.292   4.812   1.728  0.1970  0.0459  0.3786
 8951SOL    HW227753   2.437   4.852   1.792  0.5735 -0.1065 -0.3717
 8952SOL     OW27754   6.134   6.628   1.850 -0.5353  0.0341 -0.8723
 8952SOL    HW127755   6.098   6.535   1.865  1.5444 -0.5843  0.7742
 8952SOL    HW227756   6.165   6.636   1.756 -1.8739 -0.5125 -1.3859
 8953SOL     OW27757   6.397   0.968   4.762 -0.5285 -0.4539  0.4156
 8953SOL    HW127758   6.361   1.048   4.811  0.3922  0.0410  0.3097
 8953SOL    HW227759   6.496   0.962   4.776  0.0936  0.6971 -2.6826
 8954SOL     OW27760   4.027   2.217   4.070  0.2449  0.2708  0.6644
 8954SOL    HW127761   4.120   2.251   4.076  0.1616  0.6604 -0.1597
 8954SOL    HW227762   4.022   2.143   4.004 -0.1077  0.5337  0.3914
 8955SOL     OW27763   3.564   2.320   5.555  0.2563  0.0513 -0.0256
 8955SOL    HW127764   3.515   2.369   5.483  1.1269  1.1774  0.1189
 8955SOL    HW227765   3.614   2.243   5.514 -1.5631 -1.1074 -0.1725
 8956SOL     OW27766   0.941   0.267   3.907  0.4443 -0.8472 -0.3374
 8956SOL    HW127767   1.027   0.265   3.856  1.1381 -0.6288  0.7865
 8956SOL    HW227768   0.958   0.239   4.001  0.1097  3.2486  1.1143
 8957SOL     OW27769   0.054   2.428   3.382 -0.1968  0.0197 -0.3009
 8957SOL    HW127770   0.035   2.526   3.389 -0.1193  0.1376 -1.5192
 8957SOL    HW227771   0.093   2.408   3.293 -0.5761 -1.1920 -0.2158
 8958SOL     OW27772   4.765   5.644   5.021 -0.5333 -0.2686  0.3956
 8958SOL    HW127773   4.763   5.653   4.921  1.0665 -1.1573  0.2591
 8958SOL    HW227774   4.691   5.583   5.050  0.9493 -2.6939 -0.6184
 8959SOL     OW27775   6.604   4.664   3.053 -0.0480 -0.1408 -0.1298
 8959SOL    HW127776   6.546   4.731   3.006  0.6026  0.1239 -0.5748
 8959SOL    HW227777   6.644   4.602   2.987 -1.3273 -1.5595  0.3572
 8960SOL     OW27778   5.756   0.856   3.306  0.1188 -0.2926 -0.3615
 8960SOL    HW127779   5.757   0.860   3.206  2.2488 -1.7140 -0.4621
 8960SOL    HW227780   5.683   0.795   3.336 -0.0771 -0.4264 -1.0805
 8961SOL     OW27781   5.130   5.878   1.917  0.6264  0.1082 -0.1625
 8961SOL    HW127782   5.175   5.958   1.877 -0.6269  0.0983 -1.7074
 8961SOL    HW227783   5.166   5.861   2.009  0.5203  2.8008  0.4487
 8962SOL     OW27784   5.377   0.203   2.884 -0.5878  0.2428  0.4199
 8962SOL    HW127785   5.474   0.228   2.892 -0.0564 -1.3886 -0.4007
 8962SOL    HW227786   5.329   0.229   2.968 -0.1597  3.8189 -0.2704
 8963SOL     OW27787   2.578   3.813   0.674  0.1266 -0.2835  0.0770
 8963SOL    HW127788   2.673   3.829   0.646  0.8588  0.5773  2.7050
 8963SOL    HW227789   2.574   3.734   0.735 -0.6679  0.2960  0.7975
 8964SOL     OW27790   2.154   1.951   2.702  0.1743  0.4086  0.0737
 8964SOL    HW127791   2.165   2.027   2.638 -1.2668  0.1487 -0.5196
 8964SOL    HW227792   2.061   1.952   2.740  0.3776 -0.6063  0.6388
 8965SOL     OW27793   0.864   3.123   2.399 -0.0635  0.2610 -0.2410
 8965SOL    HW127794   0.893   3.193   2.333  0.1047 -0.6068 -1.0970
 8965SOL    HW227795   0.765   3.115   2.398 -0.1357  0.9772  0.3739
 8966SOL     OW27796   1.224   2.927   1.972 -0.4624  0.1067 -0.8106
 8966SOL    HW127797   1.235   2.921   2.071 -0.0194  1.7563 -0.7305
 8966SOL    HW227798   1.302   2.882   1.928 -1.8502 -2.8294 -0.5148
 8967SOL     OW27799   5.489   3.693   0.322 -0.8266  0.2655 -0.4754
 8967SOL    HW127800   5.402   3.655   0.354 -1.3496  1.4260 -0.4626
 8967SOL    HW227801   5.530   3.746   0.396 -0.0916 -0.2792 -0.4847
 8968SOL     OW27802   3.876   5.434   3.873 -0.5663 -0.1949  0.0819
 8968SOL    HW127803   3.824   5.468   3.952  0.3645  0.7327  0.3260
 8968SOL    HW227804   3.908   5.341   3.892 -0.6766 -0.1240  0.6346
 8969SOL     OW27805   4.715   0.583   6.119 -0.7868 -0.0639 -0.2120
 8969SOL    HW127806   4.734   0.516   6.047 -1.9571 -0.9914  0.2995
 8969SOL    HW227807   4.619   0.612   6.113 -0.4069  1.2791 -0.1605
 8970SOL     OW27808   6.672   1.134   1.854  0.3902  0.2402 -0.8771
 8970SOL    HW127809   6.706   1.112   1.762  0.1921 -0.0276 -0.8877
 8970SOL    HW227810   6.647   1.050   1.901 -0.0078  0.4130 -0.7715
 8971SOL     OW27811   5.469   4.515   1.833  0.4032 -0.2565 -0.2034
 8971SOL    HW127812   5.421   4.431   1.809 -1.3713  1.0385 -1.5207
 8971SOL    HW227813   5.416   4.565   1.901  0.9847  0.2101 -0.0870
 8972SOL     OW27814   3.492   4.962   3.581 -0.8687  0.3506 -0.9985
 8972SOL    HW127815   3.466   5.056   3.602  1.2555  0.6544  0.6271
 8972SOL    HW227816   3.577   4.962   3.527  0.8705 -0.5543  1.5434
 8973SOL     OW27817   0.450   1.347   2.805 -0.2123 -0.0678  0.3509
 8973SOL    HW127818   0.471   1.421   2.741  1.0230 -1.6965 -1.2003
 8973SOL    HW227819   0.401   1.274   2.757  0.6268 -1.2715  1.2831
 8974SOL     OW27820   2.002   1.401   5.387  0.4096 -0.0960 -0.0603
 8974SOL    HW127821   1.903   1.391   5.387  0.5352 -1.5096 -0.1351
 8974SOL    HW227822   2.028   1.474   5.451 -0.6011 -0.6683  1.0470
 8975SOL     OW27823   6.046   2.718   4.398 -0.1470 -0.1818 -0.2106
 8975SOL    HW127824   6.143   2.740   4.407 -0.4252  0.4476  1.7562
 8975SOL    HW227825   6.032   2.621   4.418 -0.1196  0.1314  1.4673
 8976SOL     OW27826   0.327   6.307   3.034  0.2232 -0.1410 -0.5230
 8976SOL    HW127827   0.230   6.310   3.059  0.3704 -1.0055  0.2034
 8976SOL    HW227828   0.343   6.229   2.974  0.7278 -0.9287  0.5979
 8977SOL     OW27829   3.634   5.612   1.000 -0.3783  0.1465 -0.3343
 8977SOL    HW127830   3.723   5.584   0.963 -0.1022 -0.1213  0.5021
 8977SOL    HW227831   3.591   5.535   1.047 -0.0154  0.8393  1.2179
 8978SOL     OW27832   1.966   3.746   6.533 -0.2620 -0.3869 -0.0567
 8978SOL    HW127833   1.968   3.724   6.630 -0.0834  1.3710  0.3636
 8978SOL    HW227834   2.058   3.769   6.501 -0.5650  0.6967 -0.2101
 8979SOL     OW27835   3.975   1.244   5.057  0.2600  0.0659 -0.3567
 8979SOL    HW127836   3.924   1.228   4.973 -0.3542  2.3702 -0.4967
 8979SOL    HW227837   4.024   1.331   5.050  0.4376  0.1707  1.5513
 8980SOL     OW27838   4.272   1.662   3.050 -0.4303  0.0654  0.3088
 8980SOL    HW127839   4.359   1.712   3.041 -0.5732  0.3252  0.3745
 8980SOL    HW227840   4.210   1.692   2.978 -0.1685 -0.7348 -0.2634
 8981SOL     OW27841   2.135   4.203   0.399  0.0460 -0.1831  0.5423
 8981SOL    HW127842   2.141   4.167   0.306  1.1647 -0.8874  0.8648
 8981SOL    HW227843   2.132   4.127   0.464  0.4892  0.2949  1.1328
 8982SOL     OW27844   1.289   1.449   2.940  0.3812 -0.4157  0.3754
 8982SOL    HW127845   1.309   1.529   2.883  0.4433 -0.4517  0.3477
 8982SOL    HW227846   1.305   1.365   2.889  2.2527 -0.4903  1.0155
 8983SOL     OW27847   6.194   4.501   4.763  0.1882 -0.4733  0.4966
 8983SOL    HW127848   6.260   4.428   4.778 -0.2402 -0.7296  1.1979
 8983SOL    HW227849   6.226   4.561   4.690  0.9472 -0.8800  0.4884
 8984SOL     OW27850   2.292   0.635   2.411 -0.2771  0.5047 -0.0261
 8984SOL    HW127851   2.264   0.600   2.322 -0.5734  1.1473 -0.1894
 8984SOL    HW227852   2.360   0.573   2.451 -0.8930 -0.3399 -0.2419
 8985SOL     OW27853   0.260   5.100   2.110 -0.0025  0.5320  0.4861
 8985SOL    HW127854   0.260   5.134   2.016  2.4574 -0.4804  0.0422
 8985SOL    HW227855   0.231   5.004   2.111 -0.4647  0.6688  0.8473
 8986SOL     OW27856   4.573   2.326   4.748  0.0108 -0.0670 -0.0634
 8986SOL    HW127857   4.553   2.359   4.841 -0.7122  0.5069 -0.4093
 8986SOL    HW227858   4.668   2.294   4.744  0.5140  1.2638  0.5086
 8987SOL     OW27859   0.296   0.985   1.757 -0.6539 -0.5661  0.0078
 8987SOL    HW127860   0.283   1.046   1.835  0.4118 -1.6927  1.1117
 8987SOL    HW227861   0.379   0.930   1.771  0.4154  0.2542 -2.6303
 8988SOL     OW27862   0.294   1.888   0.162  0.4946  0.5042  0.0318
 8988SOL    HW127863   0.204   1.932   0.160  0.4100  0.3057 -1.8626
 8988SOL    HW227864   0.356   1.943   0.219  0.0378  2.4097 -1.2068
 8989SOL     OW27865   3.017   0.063   3.030 -0.0795 -0.3080  0.2489
 8989SOL    HW127866   3.086   0.126   2.996 -0.4488 -0.2045 -0.3263
 8989SOL    HW227867   3.062  -0.017   3.070  0.3759 -0.7200 -1.0353
 8990SOL     OW27868   2.519   4.890   3.358 -0.6219 -0.0067  0.3201
 8990SOL    HW127869   2.439   4.855   3.406  0.5177 -1.0944  1.4848
 8990SOL    HW227870   2.563   4.962   3.412 -2.1278  2.3932 -1.4127
 8991SOL     OW27871   4.895   1.340   0.013  0.1717  0.2695  0.7270
 8991SOL    HW127872   4.972   1.386   0.058  0.1028  0.1879  0.9325
 8991SOL    HW227873   4.812   1.352   0.068 -0.4481  2.1446 -0.5127
 8992SOL     OW27874   2.187   6.648   1.702  0.4020  0.3725  0.0059
 8992SOL    HW127875   2.201   6.632   1.800  0.3145 -1.5105 -0.2521
 8992SOL    HW227876   2.254   6.715   1.670  3.2918 -2.0326  0.5559
 8993SOL     OW27877   4.157   0.432   3.933  0.1573  0.4897 -0.0587
 8993SOL    HW127878   4.255   0.442   3.915  0.0606 -1.1412 -1.7438
 8993SOL    HW227879   4.144   0.374   4.014  0.6159 -1.1702 -1.1339
 8994SOL     OW27880   1.070   5.832   2.977  1.2409  0.6431 -0.7070
 8994SOL    HW127881   0.988   5.888   2.960  1.5884  0.9259 -1.4786
 8994SOL    HW227882   1.078   5.762   2.906  0.2196 -1.1309  0.8156
 8995SOL     OW27883   3.502   4.922   2.920  0.0380  0.4037 -0.1707
 8995SOL    HW127884   3.545   4.951   2.834  0.1756  0.7104 -0.0016
 8995SOL    HW227885   3.403   4.931   2.912  0.0039 -0.2179 -0.5297
 8996SOL     OW27886   3.859   6.626   2.384 -0.0381 -0.0271  0.7519
 8996SOL    HW127887   3.838   6.685   2.307 -2.0684 -0.2756  1.0778
 8996SOL    HW227888   3.892   6.682   2.461  0.7220  0.3550  0.1594
 8997SOL     OW27889   6.252   6.871   4.169 -0.2686  0.0454 -0.1427
 8997SOL    HW127890   6.269   6.887   4.266  2.6110  0.0131 -0.5339
 8997SOL    HW227891   6.273   6.954   4.117  2.6232 -1.1135 -1.0510
 8998SOL     OW27892   4.865   1.900   2.336 -0.4501 -0.2239  0.0986
 8998SOL    HW127893   4.868   1.876   2.239 -1.5191  0.8560 -0.2297
 8998SOL    HW227894   4.786   1.959   2.353  1.0099  1.4981  1.1807
 8999SOL     OW27895   4.041   0.416   2.845  0.1070 -0.0162  0.1365
 8999SOL    HW127896   4.062   0.398   2.941 -0.4825  1.3980  0.5495
 8999SOL    HW227897   3.997   0.505   2.836  2.8364  1.2908 -1.7438
 9000SOL     OW27898   4.053   0.185   5.835 -0.0515  0.3546  0.0072
 9000SOL    HW127899   3.968   0.226   5.804 -1.2740 -3.5126 -2.3903
 9000SOL    HW227900   4.115   0.173   5.758  1.6479  0.7163  1.2453
 9001SOL     OW27901   1.629   2.494   3.516  0.4054  0.1461 -0.1767
 9001SOL    HW127902   1.683   2.515   3.435  0.1094  0.3074 -0.3325
 9001SOL    HW227903   1.609   2.578   3.566  0.1965  0.0987 -0.1818
 9002SOL     OW27904   1.113   2.820   3.762 -0.1160  0.0872 -0.1208
 9002SOL    HW127905   1.158   2.730   3.762  0.9049  0.5847  0.3180
 9002SOL    HW227906   1.156   2.878   3.693 -2.9413 -0.7652 -2.8172
 9003SOL     OW27907   4.138   3.421   0.250 -0.0182  0.1073  0.3983
 9003SOL    HW127908   4.140   3.360   0.170  1.2981 -1.2080  1.3872
 9003SOL    HW227909   4.191   3.503   0.230 -0.1816  0.0618 -0.2677
 9004SOL     OW27910   3.095   1.850   4.712  0.5624 -0.3410 -0.5272
 9004SOL    HW127911   3.157   1.773   4.730  1.4107  0.4115 -0.1871
 9004SOL    HW227912   3.143   1.936   4.728 -0.0527  0.2919 -1.9349
 9005SOL     OW27913   6.048   5.199   4.438 -0.6031  0.2791 -0.0700
 9005SOL    HW127914   6.019   5.188   4.343  1.8121 -0.1105 -0.8223
 9005SOL    HW227915   6.128   5.258   4.441 -0.0646 -0.4990  1.6322
 9006SOL     OW27916   0.784   3.752   1.926 -0.4264  0.5025  0.1638
 9006SOL    HW127917   0.758   3.826   1.863  0.0586  1.3603  0.9346
 9006SOL    HW227918   0.832   3.791   2.004 -0.0500 -0.6636  0.5330
 9007SOL     OW27919   0.862   4.128   0.878  0.2875  0.0864  0.0610
 9007SOL    HW127920   0.767   4.098   0.891  0.0953 -0.0472 -1.4281
 9007SOL    HW227921   0.921   4.085   0.945 -0.2919 -2.0741 -0.7437
 9008SOL     OW27922   0.901   6.954   5.855 -0.4688  0.5297  0.0176
 9008SOL    HW127923   0.978   6.895   5.881 -0.8688 -1.2642 -2.5804
 9008SOL    HW227924   0.933   7.049   5.850  1.1398  0.0554  0.6538
 9009SOL     OW27925   3.106   0.324   6.679 -0.1869  0.7575 -0.0937
 9009SOL    HW127926   3.075   0.338   6.773  0.8497 -0.6410  0.4919
 9009SOL    HW227927   3.201   0.355   6.670  0.1990 -0.4402 -0.2745
 9010SOL     OW27928   5.290   2.063   2.148 -0.0545  0.2188  0.4491
 9010SOL    HW127929   5.267   2.153   2.110  1.0030  0.0230 -0.7273
 9010SOL    HW227930   5.336   2.075   2.236  0.2454  0.8629  0.2168
 9011SOL     OW27931   3.470   6.727   2.201 -0.0068 -0.0198  0.3400
 9011SOL    HW127932   3.406   6.651   2.206  0.3886 -0.3860 -0.0903
 9011SOL    HW227933   3.419   6.813   2.204 -0.5877 -0.3087 -0.7866
 9012SOL     OW27934   1.368   1.296   2.271  0.1685  0.2401  0.6563
 9012SOL    HW127935   1.410   1.304   2.180  1.8048 -1.3054  1.2141
 9012SOL    HW227936   1.363   1.386   2.313 -0.2275  0.9212 -0.7913
 9013SOL     OW27937   0.678   4.394   2.120  0.0242 -0.1527 -0.2505
 9013SOL    HW127938   0.736   4.390   2.039 -1.0654  0.2405 -1.0748
 9013SOL    HW227939   0.656   4.490   2.140 -2.1675 -0.3746 -1.3239
 9014SOL     OW27940   6.535   3.576   6.279  0.2107 -0.0873  0.4218
 9014SOL    HW127941   6.555   3.528   6.193 -1.4885 -0.1490  0.0165
 9014SOL    HW227942   6.613   3.633   6.304  0.5517  0.3634 -1.4673
 9015SOL     OW27943   6.474   1.514   0.574 -0.4061  0.3389  0.3819
 9015SOL    HW127944   6.538   1.551   0.506  0.7616  0.6741  1.6105
 9015SOL    HW227945   6.382   1.548   0.555  0.2878  2.3192  0.2857
 9016SOL     OW27946   3.463   2.619   6.708 -0.3103 -0.2833 -0.4133
 9016SOL    HW127947   3.443   2.546   6.644 -0.2909 -0.0849 -0.6469
 9016SOL    HW227948   3.426   2.596   6.798 -1.8796  0.2249 -0.9101
 9017SOL     OW27949   0.373   2.129   0.594  0.0225  0.2508 -0.0989
 9017SOL    HW127950   0.400   2.215   0.550 -0.1506  0.7383  0.7297
 9017SOL    HW227951   0.287   2.142   0.643  0.5124 -0.1108  0.8745
 9018SOL     OW27952   2.858   1.280   2.494  0.0294  0.6753  0.0112
 9018SOL    HW127953   2.898   1.370   2.477  1.1319  0.1113 -0.4942
 9018SOL    HW227954   2.890   1.216   2.424 -0.4500 -0.1982  0.5765
 9019SOL     OW27955   1.858   6.197   5.861 -0.4194 -0.0762 -0.4133
 9019SOL    HW127956   1.937   6.240   5.817 -1.0499  0.3149 -1.1660
 9019SOL    HW227957   1.819   6.128   5.801 -1.9304  1.1904 -0.9553
 9020SOL     OW27958   4.799   5.667   2.828 -0.3028  0.3520 -0.0741
 9020SOL    HW127959   4.781   5.711   2.917  1.8345  0.4343  0.3607
 9020SOL    HW227960   4.825   5.737   2.761 -1.1250  0.1930 -0.5775
 9021SOL     OW27961   3.436   0.031   6.054  0.0152 -0.2273  0.1583
 9021SOL    HW127962   3.484   0.093   6.117 -0.2309  0.4362 -0.2978
 9021SOL    HW227963   3.483   0.030   5.966 -1.4852  1.3963 -0.6955
 9022SOL     OW27964   0.430   5.775   5.184 -0.7639 -0.2392 -0.5064
 9022SOL    HW127965   0.497   5.718   5.232 -1.1423  0.2221  0.5936
 9022SOL    HW227966   0.462   5.792   5.091 -0.2124 -1.4971 -0.5687
 9023SOL     OW27967   1.153   3.449   5.742 -0.7517  0.6176  0.7447
 9023SOL    HW127968   1.246   3.449   5.703 -1.6951  0.8404 -1.6680
 9023SOL    HW227969   1.111   3.359   5.727 -1.1409  0.7054  1.2908
 9024SOL     OW27970   4.523   3.718   1.633 -0.2006 -0.0814  0.3189
 9024SOL    HW127971   4.610   3.697   1.678 -0.1906 -0.9685 -0.0941
 9024SOL    HW227972   4.540   3.779   1.556 -0.1271  0.8408  1.0449
 9025SOL     OW27973   4.880   6.790   4.547  0.5278 -0.2236 -0.4371
 9025SOL    HW127974   4.857   6.769   4.642  1.0140  0.4754 -0.1588
 9025SOL    HW227975   4.798   6.822   4.499  0.7164  1.5431  0.3488
 9026SOL     OW27976   4.890   6.479   1.215 -0.0001 -0.0372 -0.1637
 9026SOL    HW127977   4.895   6.495   1.314  0.3781  1.5869 -0.4214
 9026SOL    HW227978   4.799   6.444   1.192 -0.2950  0.1461  0.6910
 9027SOL     OW27979   6.423   0.086   5.837  0.2735  0.0231  0.0941
 9027SOL    HW127980   6.474  -0.000   5.830 -0.8373 -0.6644  0.3214
 9027SOL    HW227981   6.335   0.077   5.790 -0.0605  0.8808  0.5351
 9028SOL     OW27982   1.515   4.263   6.972  0.4617 -0.5873  0.1334
 9028SOL    HW127983   1.496   4.169   6.999 -1.3646  0.1828  1.8095
 9028SOL    HW227984   1.429   4.312   6.957  1.3741  0.4932 -2.1109
 9029SOL     OW27985   6.158   3.109   2.550  0.3004  0.0032 -0.2511
 9029SOL    HW127986   6.192   3.185   2.494  0.9428  1.1029  1.5364
 9029SOL    HW227987   6.235   3.052   2.578 -0.0126 -0.5079 -0.4091
 9030SOL     OW27988   3.654   2.866   2.151  0.5278 -0.2121  0.1631
 9030SOL    HW127989   3.690   2.773   2.163 -2.5465 -1.4908  0.2413
 9030SOL    HW227990   3.716   2.918   2.092  3.2231 -1.6971  1.4796
 9031SOL     OW27991   3.399   5.241   0.702  0.4931 -0.1167  0.2331
 9031SOL    HW127992   3.377   5.328   0.748  2.3756  1.5847 -1.8434
 9031SOL    HW227993   3.350   5.237   0.615  2.4031  0.1706 -0.9068
 9032SOL     OW27994   6.611   4.022   0.735  0.0515 -0.0729  0.3507
 9032SOL    HW127995   6.680   4.064   0.795  1.3880 -0.3445 -0.9277
 9032SOL    HW227996   6.605   4.075   0.650  1.3583 -2.0610 -1.0571
 9033SOL     OW27997   2.302   2.826   4.796  1.0193  0.6379 -0.2228
 9033SOL    HW127998   2.345   2.748   4.842 -0.0349  0.9310  1.3296
 9033SOL    HW227999   2.332   2.911   4.840  0.4154  0.9649 -0.4439
 9034SOL     OW28000   6.662   5.633   0.151  0.4989  0.1288 -0.5349
 9034SOL    HW128001   6.564   5.619   0.135  0.8388 -1.2901 -1.5440
 9034SOL    HW228002   6.695   5.707   0.094  0.3207 -0.4503 -1.4062
 9035SOL     OW28003   5.817   4.215   0.291  0.0754  0.1103 -0.1216
 9035SOL    HW128004   5.756   4.293   0.279 -1.3622 -0.9692 -0.0506
 9035SOL    HW228005   5.860   4.192   0.204  0.5137  0.9624 -0.1427
 9036SOL     OW28006   0.813   4.357   1.212  0.1773  0.2400 -0.1548
 9036SOL    HW128007   0.732   4.310   1.178  0.7239 -0.5425 -0.3957
 9036SOL    HW228008   0.793   4.455   1.224 -0.6963  0.1071 -0.5101
 9037SOL     OW28009   0.379   2.014   3.913 -0.2220  0.7240 -0.1403
 9037SOL    HW128010   0.452   2.055   3.969 -0.1980  0.7872 -0.2184
 9037SOL    HW228011   0.412   1.998   3.820  0.4217 -1.3136  0.3797
 9038SOL     OW28012   0.112   6.136   0.260 -0.3751  0.0129 -0.2126
 9038SOL    HW128013   0.181   6.077   0.303 -0.2753 -0.4251 -0.9501
 9038SOL    HW228014   0.157   6.217   0.222 -0.3110 -0.1280 -0.4358
 9039SOL     OW28015   3.598   0.156   6.487 -0.4455 -0.3634  0.4836
 9039SOL    HW128016   3.672   0.107   6.441  0.2585  0.6521  0.4974
 9039SOL    HW228017   3.512   0.108   6.471  0.0680 -1.0541 -0.3192
 9040SOL     OW28018   5.146   2.615   1.055 -0.2901 -0.3272 -0.0066
 9040SOL    HW128019   5.176   2.710   1.046  2.7461 -1.2667 -0.6680
 9040SOL    HW228020   5.073   2.597   0.988 -0.5991  1.3910 -0.1769
 9041SOL     OW28021   3.006   5.680   4.685 -0.5036  0.0716  0.5775
 9041SOL    HW128022   2.997   5.678   4.785  1.6776 -0.2373  0.8018
 9041SOL    HW228023   2.920   5.647   4.644 -0.4070 -2.8563  2.4239
 9042SOL     OW28024   4.667   4.233   3.147  0.2339 -0.2287 -0.3706
 9042SOL    HW128025   4.613   4.313   3.171 -1.1258 -1.0767 -0.4720
 9042SOL    HW228026   4.696   4.186   3.230 -0.3847 -0.5274 -0.3148
 9043SOL     OW28027   3.656   3.895   5.723 -0.6904 -0.5335 -0.3195
 9043SOL    HW128028   3.739   3.853   5.685 -0.6356 -0.8450  0.1381
 9043SOL    HW228029   3.660   3.892   5.822 -0.7836  0.3706 -0.2786
 9044SOL     OW28030   4.015   3.624   6.090 -0.0125 -0.0396 -0.2824
 9044SOL    HW128031   3.963   3.539   6.075 -0.9097  0.6804 -1.4239
 9044SOL    HW228032   4.113   3.604   6.090 -0.1827 -0.9707 -1.3345
 9045SOL     OW28033   5.146   5.124   4.178 -0.3862  0.0881  0.1515
 9045SOL    HW128034   5.206   5.055   4.135 -0.6321  0.3871 -0.6888
 9045SOL    HW228035   5.077   5.153   4.112 -2.1421 -1.0280  1.4404
 9046SOL     OW28036   4.610   6.945   3.427  0.1715  0.0112  0.3761
 9046SOL    HW128037   4.543   6.926   3.499 -0.8754 -0.8152 -0.7650
 9046SOL    HW228038   4.568   7.003   3.357  1.0338  0.4505  0.2156
 9047SOL     OW28039   5.346   5.528   5.572  0.5006  0.6841  0.1194
 9047SOL    HW128040   5.249   5.542   5.593  0.8055  0.2534  2.0203
 9047SOL    HW228041   5.363   5.431   5.554  0.3250  0.9868 -1.9120
 9048SOL     OW28042   3.756   6.434   6.353  0.0165 -0.3633 -0.2927
 9048SOL    HW128043   3.786   6.339   6.344  1.7518  0.1872 -0.8228
 9048SOL    HW228044   3.757   6.460   6.449  2.6745  0.0004 -0.3428
 9049SOL     OW28045   1.715   1.633   5.925 -0.6222  0.5155 -0.4881
 9049SOL    HW128046   1.672   1.598   6.008  0.1563  1.1830  0.2047
 9049SOL    HW228047   1.743   1.556   5.867 -0.8734  0.0442  0.0110
 9050SOL     OW28048   5.208   6.312   1.387 -0.2260 -0.2807 -0.1928
 9050SOL    HW128049   5.209   6.218   1.419  0.7862 -0.1435  0.2181
 9050SOL    HW228050   5.262   6.369   1.449  0.5764  0.2502 -1.3532
 9051SOL     OW28051   3.005   3.657   5.577  0.2330  0.0622 -0.2943
 9051SOL    HW128052   3.054   3.737   5.542  0.5936  0.2784  0.6698
 9051SOL    HW228053   3.070   3.592   5.615 -0.1587 -0.1026  0.1041
 9052SOL     OW28054   0.694   3.425   1.206  0.4680  0.3734 -0.0307
 9052SOL    HW128055   0.654   3.505   1.161  0.1846 -0.0129 -0.4666
 9052SOL    HW228056   0.722   3.358   1.137  1.3781  0.4070  0.2932
 9053SOL     OW28057   5.134   5.157   6.686  0.3723 -0.3557 -0.3588
 9053SOL    HW128058   5.093   5.101   6.614  2.7108 -3.0651  0.2178
 9053SOL    HW228059   5.233   5.161   6.673  0.7912 -0.3777  2.2920
 9054SOL     OW28060   6.527   1.787   5.315  0.4672  0.1702 -0.2767
 9054SOL    HW128061   6.502   1.827   5.403 -0.6156  1.1448 -0.9994
 9054SOL    HW228062   6.471   1.705   5.299  2.2111 -1.3391  0.8954
 9055SOL     OW28063   3.271   1.783   0.114 -0.5010 -0.5303 -0.5618
 9055SOL    HW128064   3.369   1.780   0.135 -0.5622 -1.2150 -0.3319
 9055SOL    HW228065   3.226   1.844   0.179 -0.1675  0.1261 -0.9397
 9056SOL     OW28066   1.318   4.382   0.272  0.1827 -0.5982 -0.0788
 9056SOL    HW128067   1.404   4.331   0.271 -0.0665 -1.1068  1.4901
 9056SOL    HW228068   1.311   4.438   0.189  2.6786  0.5486  0.4087
 9057SOL     OW28069   1.272   6.087   3.241 -0.1383  0.1012  0.4649
 9057SOL    HW128070   1.348   6.116   3.298 -0.5774  0.7761  0.7233
 9057SOL    HW228071   1.254   5.989   3.255 -0.1811  0.2399  1.4187
 9058SOL     OW28072   3.292   4.379   6.032 -0.4303 -0.3350 -0.0692
 9058SOL    HW128073   3.239   4.346   5.954 -2.4793  2.2329  0.0625
 9058SOL    HW228074   3.324   4.472   6.013 -1.0143  0.3694  2.1218
 9059SOL     OW28075   3.338   4.786   6.197 -0.6582 -0.3020 -0.0762
 9059SOL    HW128076   3.331   4.702   6.250 -0.7150 -0.0201  0.3733
 9059SOL    HW228077   3.246   4.825   6.185 -0.4936  0.4608  0.9893
 9060SOL     OW28078   5.767   4.081   3.607  0.0463  0.2099  0.4372
 9060SOL    HW128079   5.770   3.993   3.561 -0.2576  0.3261  0.1854
 9060SOL    HW228080   5.825   4.146   3.559 -0.2082  0.3093  0.2585
 9061SOL     OW28081   0.877   0.532   1.027  0.0692 -0.4976 -0.0312
 9061SOL    HW128082   0.901   0.571   0.938 -1.3202  0.6371  0.0640
 9061SOL    HW228083   0.833   0.602   1.084 -0.8617 -1.7298  0.8139
 9062SOL     OW28084   5.194   4.114   3.619 -0.0222 -0.0037  0.4232
 9062SOL    HW128085   5.098   4.089   3.633 -0.0689  1.6477  4.1509
 9062SOL    HW228086   5.251   4.058   3.679  0.9764  1.2761  0.6889
 9063SOL     OW28087   0.830   4.332   1.905  0.3278 -0.3336  0.0833
 9063SOL    HW128088   0.926   4.355   1.889  0.0915  1.3589  0.8993
 9063SOL    HW228089   0.779   4.341   1.819  0.5260  0.8064  0.0753
 9064SOL     OW28090   2.464   2.179   4.876  0.4531 -0.0050 -1.3032
 9064SOL    HW128091   2.424   2.271   4.882 -2.1922 -1.1512  2.5898
 9064SOL    HW228092   2.555   2.180   4.919  0.0074  0.6739 -0.3212
 9065SOL     OW28093   1.158   1.977   1.880 -0.1207 -0.2948 -0.1905
 9065SOL    HW128094   1.078   2.034   1.901  0.3581  0.2794  0.0966
 9065SOL    HW228095   1.181   1.986   1.783 -0.0654 -0.0280 -0.1521
 9066SOL     OW28096   5.041   2.051   0.815  0.6265 -0.6690 -0.0807
 9066SOL    HW128097   5.123   2.107   0.821  1.1314 -1.3182 -0.6829
 9066SOL    HW228098   5.038   2.005   0.727 -0.7816 -0.0776 -0.3716
 9067SOL     OW28099   1.866   6.140   4.812 -0.3982 -0.0360 -0.0231
 9067SOL    HW128100   1.940   6.087   4.769 -0.8795 -0.1942 -0.6734
 9067SOL    HW228101   1.882   6.238   4.796 -1.9623 -0.1530 -2.9966
 9068SOL     OW28102   3.788   3.009   5.533 -0.9631  0.4848  0.5376
 9068SOL    HW128103   3.874   2.981   5.491 -0.9144  0.4785  0.6411
 9068SOL    HW228104   3.750   2.932   5.585 -1.0104  0.5001  0.5256
 9069SOL     OW28105   3.011   5.024   4.858  0.0062 -0.5637 -0.2751
 9069SOL    HW128106   2.952   5.101   4.883  0.0033 -0.9918  1.1673
 9069SOL    HW228107   3.075   5.006   4.933  0.9650 -1.0631 -1.1890
 9070SOL     OW28108   0.741   0.100   0.809 -0.3893  0.3154  0.5530
 9070SOL    HW128109   0.737   0.053   0.720 -0.8506  0.9519  0.2305
 9070SOL    HW228110   0.783   0.190   0.798 -0.5027  0.4215  0.9685
 9071SOL     OW28111   3.027   3.280   4.593 -0.6700 -0.4011  0.1480
 9071SOL    HW128112   3.070   3.200   4.552 -1.7900 -0.7302 -0.4286
 9071SOL    HW228113   3.005   3.347   4.521  1.9501  1.3054  0.7999
 9072SOL     OW28114   1.280   3.401   3.221 -0.1234  0.2280  0.3694
 9072SOL    HW128115   1.375   3.394   3.252 -0.3516  0.7177  1.2250
 9072SOL    HW228116   1.277   3.417   3.123  0.6581 -0.5646  0.2052
 9073SOL     OW28117   5.003   6.217   0.290 -0.2359  0.3233 -0.3928
 9073SOL    HW128118   5.074   6.148   0.277 -0.5654 -0.2652  0.7811
 9073SOL    HW228119   5.041   6.308   0.270  0.2672 -0.1551 -1.7172
 9074SOL     OW28120   2.936   0.481   0.280 -0.1840 -0.2543  0.3775
 9074SOL    HW128121   2.966   0.444   0.192  1.9760  4.1681 -1.0743
 9074SOL    HW228122   3.004   0.462   0.350 -0.1970 -0.8743  0.2200
 9075SOL     OW28123   6.001   3.334   2.317 -0.2655  0.2836  0.2051
 9075SOL    HW128124   6.070   3.297   2.379 -2.9077 -1.2250  2.4615
 9075SOL    HW228125   6.041   3.345   2.226  2.4389 -2.2516  0.9310
 9076SOL     OW28126   0.439   5.339   2.695  0.3967 -0.1231 -0.8271
 9076SOL    HW128127   0.500   5.266   2.724  0.6723  0.3155 -0.2971
 9076SOL    HW228128   0.492   5.420   2.672 -0.0275  0.5282  0.4343
 9077SOL     OW28129   5.725   2.411   1.819  0.3516  0.1051  0.7612
 9077SOL    HW128130   5.638   2.371   1.849  0.6762 -1.3475 -0.0896
 9077SOL    HW228131   5.726   2.509   1.839 -1.4929  0.1651  0.7401
 9078SOL     OW28132   1.231   0.507   5.178 -0.1292 -0.1362 -0.8846
 9078SOL    HW128133   1.223   0.486   5.276 -0.0995  1.1703 -0.5827
 9078SOL    HW228134   1.328   0.511   5.153 -0.1131  0.5084 -0.7333
 9079SOL     OW28135   3.861   6.732   0.818  0.6034 -0.5651 -0.2429
 9079SOL    HW128136   3.875   6.823   0.856  0.7265 -0.6216 -0.1538
 9079SOL    HW228137   3.924   6.668   0.861  1.5313 -0.4159 -1.3442
 9080SOL     OW28138   3.293   0.967   4.380  0.4270 -0.2110  0.0966
 9080SOL    HW128139   3.313   0.877   4.419  0.2891 -0.5020 -0.4959
 9080SOL    HW228140   3.372   1.027   4.393  0.9732 -0.7703 -0.5175
 9081SOL     OW28141   2.363   0.394   5.746  0.2558 -0.1382 -0.1354
 9081SOL    HW128142   2.341   0.456   5.822 -0.4968  0.9698 -1.2076
 9081SOL    HW228143   2.321   0.305   5.762  0.0049  0.1153  0.6845
 9082SOL     OW28144   2.390   6.854   0.222 -0.4989  0.6000  0.3979
 9082SOL    HW128145   2.323   6.833   0.151  0.6697  0.1491 -0.6218
 9082SOL    HW228146   2.456   6.779   0.228  0.3928  1.3936  0.7799
 9083SOL     OW28147   1.347   4.690   5.184  0.0719  0.1612  0.1112
 9083SOL    HW128148   1.370   4.674   5.280 -0.0385  0.1685  0.1385
 9083SOL    HW228149   1.417   4.748   5.142 -0.2922  0.8160  0.3942
 9084SOL     OW28150   3.129   3.662   3.195 -0.6715 -0.2502 -0.7335
 9084SOL    HW128151   3.169   3.625   3.279 -2.2916  0.0893  0.2236
 9084SOL    HW228152   3.112   3.760   3.207 -2.7680 -0.5866 -0.6906
 9085SOL     OW28153   2.864   5.267   5.186 -0.1610  0.0915  0.0027
 9085SOL    HW128154   2.924   5.266   5.267  0.2864  0.7201 -0.3101
 9085SOL    HW228155   2.769   5.258   5.215 -0.0413  0.7540  0.6380
 9086SOL     OW28156   5.678   1.136   0.799  0.1847 -0.2646 -0.4258
 9086SOL    HW128157   5.666   1.203   0.726 -0.5152 -2.1731 -2.1916
 9086SOL    HW228158   5.596   1.134   0.857 -0.9417 -1.3182 -1.9549
 9087SOL     OW28159   5.140   1.140   2.739 -0.2437  0.0473  0.2788
 9087SOL    HW128160   5.185   1.079   2.804 -1.5233 -0.9636  0.2449
 9087SOL    HW228161   5.179   1.232   2.747  0.0732 -0.2187  1.9966
 9088SOL     OW28162   0.284   2.362   4.416 -0.5879 -0.6139 -0.6202
 9088SOL    HW128163   0.216   2.338   4.348 -0.4261  1.9536 -1.7794
 9088SOL    HW228164   0.280   2.460   4.436  1.4542 -0.7247  0.7404
 9089SOL     OW28165   2.942   2.280   5.685 -0.1513 -0.0972 -0.1893
 9089SOL    HW128166   2.897   2.254   5.771  1.2790 -2.3303 -0.0404
 9089SOL    HW228167   3.041   2.274   5.696  0.1243  1.3861 -1.4987
 9090SOL     OW28168   3.676   1.827   2.216 -0.3112 -0.0249  0.7433
 9090SOL    HW128169   3.602   1.808   2.151  0.2065  0.7129 -0.0794
 9090SOL    HW228170   3.741   1.751   2.214  0.8923  0.9799 -1.3263
 9091SOL     OW28171   0.345   5.554   1.633  0.1015 -0.2956 -0.3555
 9091SOL    HW128172   0.423   5.610   1.604 -0.5783  0.7053 -0.2866
 9091SOL    HW228173   0.358   5.525   1.728  1.1447 -1.4851 -0.8427
 9092SOL     OW28174   4.401   2.098   4.748 -0.4917  0.0927 -0.6034
 9092SOL    HW128175   4.311   2.140   4.734 -1.6318 -1.9508  0.2823
 9092SOL    HW228176   4.470   2.171   4.755 -2.2464  1.7872  0.0743
 9093SOL     OW28177   3.445   1.529   1.473  0.5889 -0.6137 -0.5469
 9093SOL    HW128178   3.472   1.560   1.564 -1.1714  0.7707 -0.4546
 9093SOL    HW228179   3.406   1.605   1.421 -0.0405 -1.7597 -1.8330
 9094SOL     OW28180   1.798   3.396   4.743  0.4192  0.4665  0.6949
 9094SOL    HW128181   1.866   3.461   4.708 -1.8640  2.4870 -0.3229
 9094SOL    HW228182   1.792   3.318   4.682 -0.2570  1.7482 -0.9640
 9095SOL     OW28183   3.245   3.517   5.648 -0.2611 -0.1109 -0.5927
 9095SOL    HW128184   3.308   3.439   5.648 -0.9007 -0.6890  1.3126
 9095SOL    HW228185   3.295   3.599   5.675 -0.4348 -0.7414  1.8536
 9096SOL     OW28186   2.194   0.538   4.916 -0.2869 -0.5294 -0.2340
 9096SOL    HW128187   2.266   0.495   4.862 -2.0874 -3.1288 -0.7158
 9096SOL    HW228188   2.122   0.572   4.855  1.3322  4.1986  0.0180
 9097SOL     OW28189   1.317   1.354   1.309  0.2651 -0.0502 -0.5139
 9097SOL    HW128190   1.393   1.291   1.321  0.5118  0.2270 -0.6198
 9097SOL    HW228191   1.322   1.426   1.377  0.1046 -0.0229 -0.5298
 9098SOL     OW28192   0.552   1.201   5.186  0.1070 -0.1602  0.8173
 9098SOL    HW128193   0.557   1.148   5.272  1.4838 -0.6290  0.4626
 9098SOL    HW228194   0.644   1.227   5.157 -0.2800 -0.5069 -0.8250
 9099SOL     OW28195   5.216   1.778   0.789 -0.0662 -0.1283 -0.5477
 9099SOL    HW128196   5.265   1.845   0.733  1.1386  1.4234  2.2049
 9099SOL    HW228197   5.142   1.823   0.839 -0.9221 -1.4120 -0.5985
 9100SOL     OW28198   3.028   4.815   1.506  0.4855 -0.0999  0.0412
 9100SOL    HW128199   3.126   4.834   1.508  0.2097  1.4509  1.0773
 9100SOL    HW228200   3.001   4.770   1.591  0.1168  0.5957  0.3017
 9101SOL     OW28201   6.200   4.102   4.931 -0.2138 -0.2602 -0.0654
 9101SOL    HW128202   6.219   4.014   4.975  1.1940  0.7961  1.5866
 9101SOL    HW228203   6.244   4.175   4.983 -2.0303  1.5395 -0.9078
 9102SOL     OW28204   1.829   4.814   2.549 -0.1621 -0.1427  0.3608
 9102SOL    HW128205   1.917   4.836   2.506 -0.3653  1.4666  0.7242
 9102SOL    HW228206   1.755   4.850   2.493 -0.5068  0.2289  1.0445
 9103SOL     OW28207   4.034   5.056   4.401 -0.3415 -0.5188 -0.2496
 9103SOL    HW128208   4.092   5.032   4.478  0.1611 -1.6538 -0.9482
 9103SOL    HW228209   3.940   5.026   4.419 -0.3378 -0.3055  0.1323
 9104SOL     OW28210   0.805   4.412   0.807  0.0796  0.5036 -0.2140
 9104SOL    HW128211   0.833   4.469   0.884  1.6495  1.5433 -1.4891
 9104SOL    HW228212   0.855   4.326   0.808 -1.1182 -0.2264  0.8044
 9105SOL     OW28213   4.521   6.319   4.861 -0.2487  0.2469  0.5550
 9105SOL    HW128214   4.578   6.401   4.848 -0.4727  0.6180  1.8075
 9105SOL    HW228215   4.455   6.336   4.934  0.0037 -1.2149  1.1466
 9106SOL     OW28216   4.207   0.717   2.049  0.2265  0.1715  0.3450
 9106SOL    HW128217   4.263   0.746   1.972 -1.2542 -2.5116 -1.9372
 9106SOL    HW228218   4.131   0.781   2.061 -0.9523 -0.6109 -2.1968
 9107SOL     OW28219   0.412   2.116   1.296 -0.1635 -0.2995 -0.7851
 9107SOL    HW128220   0.473   2.125   1.375 -0.0955 -1.3324 -0.7099
 9107SOL    HW228221   0.351   2.039   1.310 -0.3948 -0.2717 -1.5914
 9108SOL     OW28222   2.760   1.233   5.334  0.5025 -0.6890  0.3489
 9108SOL    HW128223   2.747   1.189   5.246 -3.3599  0.2029  0.3140
 9108SOL    HW228224   2.755   1.164   5.407  3.0951 -1.3318  0.0427
 9109SOL     OW28225   1.972   2.565   0.903 -0.4116 -0.5012 -0.2940
 9109SOL    HW128226   2.001   2.566   0.998  1.3774 -1.7678 -0.7649
 9109SOL    HW228227   2.032   2.625   0.849  0.4252 -1.9537 -1.0382
 9110SOL     OW28228   3.835   1.464   1.256  0.1607 -0.1652  0.0074
 9110SOL    HW128229   3.749   1.432   1.216  0.0940 -0.8653  0.6973
 9110SOL    HW228230   3.904   1.471   1.184 -0.1074 -0.8750 -0.3263
 9111SOL     OW28231   0.870   6.846   4.744  0.1089 -0.1586 -0.7958
 9111SOL    HW128232   0.944   6.783   4.720  0.1589 -1.0208  1.4011
 9111SOL    HW228233   0.782   6.800   4.738  0.0298 -0.0648 -0.3955
 9112SOL     OW28234   6.151   2.449   2.906 -0.1086  0.0361  0.5034
 9112SOL    HW128235   6.159   2.465   3.004 -2.3035 -0.0437  0.7422
 9112SOL    HW228236   6.185   2.358   2.884 -1.8599 -0.9356  1.6272
 9113SOL     OW28237   4.996   5.364   5.420  0.4879 -0.5472  0.2337
 9113SOL    HW128238   5.063   5.316   5.363  1.5613  0.9304  0.1937
 9113SOL    HW228239   4.957   5.440   5.369 -0.3640 -0.6771  0.6725
 9114SOL     OW28240   0.641   1.502   0.775  0.2228 -0.6740 -0.0346
 9114SOL    HW128241   0.669   1.556   0.696 -1.5193  0.9468  0.3947
 9114SOL    HW228242   0.677   1.543   0.858 -1.2181 -0.0554  0.3065
 9115SOL     OW28243   5.519   6.849   3.177  0.0571 -0.0775  0.4719
 9115SOL    HW128244   5.550   6.912   3.107  0.1948 -1.8511 -1.1543
 9115SOL    HW228245   5.597   6.818   3.232 -0.1245  1.7233  1.8465
 9116SOL     OW28246   4.881   2.321   6.431  0.1709 -0.0876 -0.0515
 9116SOL    HW128247   4.946   2.377   6.482 -1.6013  0.8678  1.2613
 9116SOL    HW228248   4.870   2.233   6.477 -0.7855  0.4466  0.7768
 9117SOL     OW28249   5.594   0.423   6.813  0.1340  0.2164 -0.0831
 9117SOL    HW128250   5.617   0.413   6.716 -1.2516  0.3242 -0.4355
 9117SOL    HW228251   5.524   0.356   6.838 -1.1207  1.6021  0.2843
 9118SOL     OW28252   4.464   0.066   3.223 -0.3250  0.1770  0.2110
 9118SOL    HW128253   4.476   0.162   3.199 -1.4986 -0.1268 -1.7699
 9118SOL    HW228254   4.379   0.055   3.274 -0.7204  0.0680 -0.4613
 9119SOL     OW28255   4.094   3.225   2.113  0.4757  0.5696 -0.1715
 9119SOL    HW128256   4.187   3.261   2.123  0.3382  0.8289  0.2001
 9119SOL    HW228257   4.028   3.293   2.145  0.1748  0.2630 -0.1295
 9120SOL     OW28258   5.865   5.808   5.073  0.1056 -0.2340  0.1094
 9120SOL    HW128259   5.877   5.711   5.093 -2.7368 -0.6400  0.2643
 9120SOL    HW228260   5.950   5.857   5.094  1.4620 -2.5741  0.4629
 9121SOL     OW28261   2.607   5.147   0.074 -0.3212 -0.3948 -0.0596
 9121SOL    HW128262   2.668   5.226   0.065  0.1503 -1.0219 -3.1655
 9121SOL    HW228263   2.659   5.063   0.063 -1.2922 -1.0572  0.2726
 9122SOL     OW28264   5.047   4.308   0.948  0.1895 -0.0635  0.3162
 9122SOL    HW128265   4.962   4.359   0.932 -0.0242 -0.0055  1.5495
 9122SOL    HW228266   5.110   4.324   0.872  0.0777  1.9223  0.6060
 9123SOL     OW28267   3.222   5.575   2.530 -0.1482 -1.0024 -0.1375
 9123SOL    HW128268   3.213   5.516   2.450 -0.9820 -1.8784  0.5845
 9123SOL    HW228269   3.133   5.585   2.574  0.1826 -0.0213  0.3369
 9124SOL     OW28270   0.522   5.056   4.534  0.3151 -0.2339  0.1377
 9124SOL    HW128271   0.620   5.073   4.543  1.2798 -4.2931 -0.7405
 9124SOL    HW228272   0.496   5.056   4.438  0.3297 -2.8059  0.0859
 9125SOL     OW28273   3.347   0.739   4.503  0.3064  0.2458  0.3071
 9125SOL    HW128274   3.400   0.765   4.583 -0.2777 -0.6203  0.9962
 9125SOL    HW228275   3.371   0.646   4.476  2.5010  1.4262 -2.2290
 9126SOL     OW28276   6.738   1.311   1.005  0.3808  0.5632  0.0542
 9126SOL    HW128277   6.748   1.396   1.057  0.9403  2.3486 -2.7494
 9126SOL    HW228278   6.682   1.328   0.925  1.0586 -1.5579 -0.9359
 9127SOL     OW28279   0.991   5.942   6.262  0.2801 -0.1227  0.0258
 9127SOL    HW128280   0.899   5.902   6.269  0.6324 -0.7745  1.3866
 9127SOL    HW228281   1.011   5.962   6.167 -0.7250 -1.3051 -0.4700
 9128SOL     OW28282   6.464   6.971   4.897 -0.3107  0.0431 -0.1962
 9128SOL    HW128283   6.494   6.923   4.815  0.8724  0.4735 -0.0359
 9128SOL    HW228284   6.397   6.915   4.946 -2.7905  0.7089 -2.5838
 9129SOL     OW28285   3.486   4.793   5.204 -0.3410  0.2027 -0.3891
 9129SOL    HW128286   3.391   4.820   5.222 -0.1754  0.2129  0.5048
 9129SOL    HW228287   3.535   4.871   5.163 -0.7438  0.1528 -0.9853
 9130SOL     OW28288   1.063   4.028   1.479 -0.6798 -0.1746 -0.3232
 9130SOL    HW128289   1.104   4.105   1.528 -0.4699 -1.0053  0.8705
 9130SOL    HW228290   1.113   3.944   1.501 -1.9339 -0.9293 -0.2227
 9131SOL     OW28291   1.912   5.146   4.281 -0.3951 -0.6120  0.8329
 9131SOL    HW128292   1.919   5.143   4.380 -0.0792 -0.4139  0.8156
 9131SOL    HW228293   1.948   5.233   4.247  1.4929 -1.5350  0.3691
 9132SOL     OW28294   1.035   6.642   1.365  0.3308 -0.2185  0.2033
 9132SOL    HW128295   1.044   6.691   1.278  0.7532 -0.3707  0.1606
 9132SOL    HW228296   1.017   6.707   1.439  2.3440  0.1798  0.3999
 9133SOL     OW28297   6.892   6.469   1.783 -0.4463  0.3066 -0.2424
 9133SOL    HW128298   6.850   6.394   1.834 -1.5526  1.7816  1.1045
 9133SOL    HW228299   6.991   6.462   1.789 -0.5512 -0.0270  1.4232
 9134SOL     OW28300   2.201   5.007   6.934 -0.1175 -0.1222  0.3817
 9134SOL    HW128301   2.173   4.954   7.013 -2.2508  1.6497  0.9003
 9134SOL    HW228302   2.149   5.092   6.930  2.3352  1.4500 -1.0356
 9135SOL     OW28303   3.328   0.337   1.950 -0.0498  0.8265  0.4383
 9135SOL    HW128304   3.338   0.259   1.888  0.6659 -0.8322  2.5129
 9135SOL    HW228305   3.233   0.366   1.951 -0.0591  1.0065 -1.4983
 9136SOL     OW28306   6.347   5.574   2.919  0.4326 -0.2404  0.2677
 9136SOL    HW128307   6.266   5.620   2.956  0.1684 -0.4530 -0.0377
 9136SOL    HW228308   6.366   5.492   2.972 -0.4212 -0.9798 -0.5424
 9137SOL     OW28309   6.614   0.119   6.219 -0.0118 -0.1285 -0.2634
 9137SOL    HW128310   6.599   0.191   6.151  1.1918  1.2627  0.8817
 9137SOL    HW228311   6.676   0.051   6.181  1.5382  1.2016 -0.2463
 9138SOL     OW28312   0.390   5.463   3.207 -0.2474 -0.0223 -0.0001
 9138SOL    HW128313   0.452   5.395   3.167 -0.5613 -0.8156  0.8299
 9138SOL    HW228314   0.352   5.428   3.293 -1.5856  0.5762 -0.3070
 9139SOL     OW28315   5.415   4.658   6.985 -0.2022 -0.5354  0.0095
 9139SOL    HW128316   5.426   4.562   7.013 -2.0671 -1.1260 -1.0817
 9139SOL    HW228317   5.410   4.663   6.886 -1.2851  0.5424  0.1001
 9140SOL     OW28318   1.439   5.815   1.365 -0.7666 -0.3401  0.9092
 9140SOL    HW128319   1.524   5.795   1.317 -1.1348 -2.6143  1.0847
 9140SOL    HW228320   1.451   5.895   1.423  1.0165 -0.1988  0.3982
 9141SOL     OW28321   2.994   6.036   0.472  0.8508  0.3913 -0.2560
 9141SOL    HW128322   3.072   6.090   0.442  1.7339  0.3389  1.7825
 9141SOL    HW228323   3.026   5.957   0.524 -0.5118 -0.7321 -1.0333
 9142SOL     OW28324   1.217   1.378   6.187  0.1112 -0.1797  0.5394
 9142SOL    HW128325   1.300   1.417   6.148  0.2788  0.2544  1.3076
 9142SOL    HW228326   1.241   1.321   6.265 -0.3344  0.2055  0.9603
 9143SOL     OW28327   6.953   1.537   5.575  0.0814  0.0438 -0.1396
 9143SOL    HW128328   6.896   1.602   5.525  0.3960  1.2164  0.9847
 9143SOL    HW228329   7.049   1.549   5.549  0.4806  1.8277  1.8626
 9144SOL     OW28330   6.311   0.183   2.500 -0.0332  0.2288  0.1549
 9144SOL    HW128331   6.275   0.168   2.592 -3.3431  0.2403 -0.9899
 9144SOL    HW228332   6.359   0.271   2.496 -0.2508  0.4444  1.7337
 9145SOL     OW28333   3.355   5.231   5.169 -0.8963 -0.1742  0.2260
 9145SOL    HW128334   3.273   5.243   5.112 -2.1348  0.2201  1.9949
 9145SOL    HW228335   3.362   5.308   5.232  0.4980 -0.5425  0.5396
 9146SOL     OW28336   3.720   0.399   6.013 -0.0583 -0.4274 -0.0611
 9146SOL    HW128337   3.683   0.393   5.921 -1.2272  1.0636  0.2780
 9146SOL    HW228338   3.818   0.418   6.008 -0.6332  2.8520 -1.1014
 9147SOL     OW28339   5.725   6.233   4.703 -0.3490  0.0186  0.3272
 9147SOL    HW128340   5.773   6.247   4.790  1.4776 -2.8382 -0.0932
 9147SOL    HW228341   5.720   6.136   4.683 -5.0606  0.2044 -0.5374
 9148SOL     OW28342   3.193   2.085   2.178 -0.1156  0.5851  0.2873
 9148SOL    HW128343   3.168   2.103   2.273  1.2000  0.4834  0.6707
 9148SOL    HW228344   3.285   2.047   2.174 -0.5091 -0.3337 -0.9688
 9149SOL     OW28345   2.018   1.214   2.929 -0.4296 -0.2624  0.8651
 9149SOL    HW128346   2.035   1.149   2.855 -2.0778 -0.6178  0.7657
 9149SOL    HW228347   2.071   1.297   2.914  1.0664 -1.2416  0.5538
 9150SOL     OW28348   4.200   6.541   1.354  0.4747  0.1611  0.6295
 9150SOL    HW128349   4.201   6.510   1.259  1.4090  0.9905  0.3503
 9150SOL    HW228350   4.284   6.513   1.399 -0.4974 -1.3075  1.5962
 9151SOL     OW28351   4.549   6.446   3.156 -0.0093  0.0023 -0.6840
 9151SOL    HW128352   4.564   6.348   3.173  1.0926  0.5249  1.8740
 9151SOL    HW228353   4.625   6.482   3.102  0.6190 -0.1991  0.0410
 9152SOL     OW28354   0.653   2.079   0.357  0.0771  0.2480  0.4568
 9152SOL    HW128355   0.732   2.073   0.418 -0.9881  2.1630  2.1610
 9152SOL    HW228356   0.593   2.000   0.372  0.9470 -0.4861  0.1713
 9153SOL     OW28357   6.127   3.660   0.592  0.0487 -1.0903 -0.5568
 9153SOL    HW128358   6.085   3.586   0.540 -1.6815 -1.9071  1.7824
 9153SOL    HW228359   6.110   3.645   0.690  1.6370  1.2233  0.1582
 9154SOL     OW28360   6.356   2.758   2.454 -0.1352 -0.5705  0.5657
 9154SOL    HW128361   6.403   2.768   2.367  1.5791 -0.8089  1.4252
 9154SOL    HW228362   6.311   2.668   2.457 -1.4769  0.0209 -0.6165
 9155SOL     OW28363   0.914   5.681   2.140 -0.2565  0.4976  0.0396
 9155SOL    HW128364   0.892   5.639   2.228  1.1081  0.1376  0.2460
 9155SOL    HW228365   0.877   5.625   2.066  1.1479 -0.8897  0.3215
 9156SOL     OW28366   6.399   0.901   4.118  0.1176 -0.4629 -0.6758
 9156SOL    HW128367   6.485   0.950   4.102  0.2232 -1.1925 -2.5592
 9156SOL    HW228368   6.384   0.892   4.217  1.0729  1.5904 -0.2897
 9157SOL     OW28369   4.444   6.200   3.200 -0.6630  0.3895  0.5769
 9157SOL    HW128370   4.478   6.106   3.211  1.2201  1.0221  0.5375
 9157SOL    HW228371   4.381   6.203   3.123 -2.2243 -1.1812  1.7326
 9158SOL     OW28372   0.039   4.823   3.019  0.1131  0.1352  0.2687
 9158SOL    HW128373  -0.019   4.743   3.005 -0.8008  0.9874 -1.1556
 9158SOL    HW228374  -0.019   4.903   3.035  1.0114  0.5083  1.8383
 9159SOL     OW28375   0.573   3.456   6.995  0.5338 -0.7844 -0.3360
 9159SOL    HW128376   0.556   3.551   6.969  0.9206 -0.4900  0.4487
 9159SOL    HW228377   0.495   3.421   7.046  0.7992 -0.5605  0.2344
 9160SOL     OW28378   4.338   4.282   1.499  0.2042  0.1035 -0.4123
 9160SOL    HW128379   4.329   4.221   1.578 -1.3365  0.3978 -0.3157
 9160SOL    HW228380   4.411   4.348   1.515 -0.8202  0.9012  1.3185
 9161SOL     OW28381   3.937   0.780   3.307  0.0212 -0.0009 -0.3774
 9161SOL    HW128382   4.020   0.830   3.281 -0.5081  1.8853  1.3187
 9161SOL    HW228383   3.868   0.791   3.236 -0.1043  1.7996 -0.0154
 9162SOL     OW28384   6.345   0.087   4.090  0.2559 -0.4324  0.3900
 9162SOL    HW128385   6.424   0.099   4.030 -0.5242 -1.5996 -0.9329
 9162SOL    HW228386   6.341   0.163   4.156  2.6886 -0.5655  0.7842
 9163SOL     OW28387   6.141   2.992   1.256  0.7031 -0.5182 -0.2667
 9163SOL    HW128388   6.225   2.997   1.310  0.3471 -1.8024  0.4484
 9163SOL    HW228389   6.063   3.007   1.316  0.4188  1.9976 -1.1504
 9164SOL     OW28390   6.625   6.624   5.643  0.5422 -0.1650 -0.0314
 9164SOL    HW128391   6.603   6.710   5.690  1.6010 -0.9285  2.0298
 9164SOL    HW228392   6.575   6.619   5.558 -1.7016  1.2533  1.1011
 9165SOL     OW28393   1.292   1.028   0.907 -0.0983  0.0513  0.0936
 9165SOL    HW128394   1.202   1.019   0.949  0.0734  0.6117  0.5977
 9165SOL    HW228395   1.360   0.981   0.964 -0.0328 -0.1554 -0.1535
 9166SOL     OW28396   3.380   1.922   2.414 -0.1997 -0.0041  0.0816
 9166SOL    HW128397   3.345   1.857   2.347  2.2348 -0.6468 -0.6487
 9166SOL    HW228398   3.427   1.997   2.366  0.0707  0.4384  1.0154
 9167SOL     OW28399   0.353   3.001   2.778 -0.8205  0.1307  0.5532
 9167SOL    HW128400   0.254   3.011   2.788 -0.7978  0.1051  0.8025
 9167SOL    HW228401   0.377   2.904   2.786 -0.6983  0.2103  1.1825
 9168SOL     OW28402   7.011   4.457   6.248  0.2456 -0.4672 -0.0300
 9168SOL    HW128403   6.951   4.485   6.324  0.0643  1.3858 -0.7964
 9168SOL    HW228404   6.968   4.382   6.198 -0.2335 -0.8567  0.9439
 9169SOL     OW28405   0.970   4.392   4.725 -0.2988 -0.2971  0.0118
 9169SOL    HW128406   1.061   4.380   4.685 -0.2635 -2.6761  0.6246
 9169SOL    HW228407   0.902   4.403   4.652 -0.2169 -4.3654 -0.9174
 9170SOL     OW28408   1.711   3.806   4.783 -0.2230 -0.2302 -0.1863
 9170SOL    HW128409   1.805   3.789   4.755 -0.4246  0.4053 -1.3490
 9170SOL    HW228410   1.700   3.902   4.810 -0.2132 -0.6600  1.4000
 9171SOL     OW28411   0.443   6.452   3.553  0.1101 -0.6171  0.1653
 9171SOL    HW128412   0.477   6.490   3.467  0.5711  0.7070  0.9152
 9171SOL    HW228413   0.519   6.413   3.605  0.0092 -0.4344  0.4539
 9172SOL     OW28414   0.830   6.693   3.157  0.5191  0.0372 -0.0797
 9172SOL    HW128415   0.801   6.646   3.240  2.6859 -1.8359 -0.2881
 9172SOL    HW228416   0.772   6.665   3.081  0.3622 -0.5391  0.2436
 9173SOL     OW28417   4.060   2.214   1.954  0.2427 -0.1702  0.0706
 9173SOL    HW128418   4.133   2.191   1.890 -0.7697  0.7009 -1.4585
 9173SOL    HW228419   3.973   2.220   1.905 -1.1877 -2.6306  2.0738
 9174SOL     OW28420   1.132   3.170   4.132 -0.2216 -0.2588  0.1873
 9174SOL    HW128421   1.059   3.226   4.171 -0.4525 -1.2450  1.2362
 9174SOL    HW228422   1.161   3.209   4.045  0.4457  2.1275  1.3983
 9175SOL     OW28423   5.802   5.100   0.681 -0.3258 -0.3289 -0.1325
 9175SOL    HW128424   5.714   5.146   0.679  0.1642  0.6214 -1.6843
 9175SOL    HW228425   5.801   5.028   0.751 -2.9958 -1.7058 -1.4301
 9176SOL     OW28426   0.693   3.917   3.947  0.4173  0.1622  0.1117
 9176SOL    HW128427   0.748   3.998   3.967  0.3098  0.2696 -0.0305
 9176SOL    HW228428   0.754   3.839   3.931  0.5116  0.0814  0.8114
 9177SOL     OW28429   5.712   1.939   6.864  0.3502  0.5280 -0.7076
 9177SOL    HW128430   5.733   1.950   6.962  1.5658 -3.3209 -0.3644
 9177SOL    HW228431   5.797   1.939   6.812 -0.0052 -0.4968 -1.3161
 9178SOL     OW28432   4.227   3.122   0.413 -0.1856 -0.3060 -0.5327
 9178SOL    HW128433   4.309   3.109   0.467 -0.2176 -1.0397 -0.6606
 9178SOL    HW228434   4.180   3.205   0.444  0.2944 -0.1961 -0.0818
 9179SOL     OW28435   2.174   5.615   1.858 -0.0968  0.0059  0.1558
 9179SOL    HW128436   2.214   5.641   1.946  0.3095 -0.1003  0.0024
 9179SOL    HW228437   2.076   5.637   1.858 -0.9304 -3.0386  1.9151
 9180SOL     OW28438   3.556   1.522   0.462  0.3839 -0.0041  0.5478
 9180SOL    HW128439   3.579   1.596   0.525  1.3477 -0.4006  0.6819
 9180SOL    HW228440   3.470   1.543   0.415  1.3112  1.8824 -0.4488
 9181SOL     OW28441   5.823   0.018   0.165  0.2190 -0.6754  0.4341
 9181SOL    HW128442   5.871   0.103   0.144  2.0363 -1.5752  0.7440
 9181SOL    HW228443   5.737   0.039   0.211  1.2252  0.9847  1.6883
 9182SOL     OW28444   6.797   6.845   2.600  0.3421 -0.3777 -0.6319
 9182SOL    HW128445   6.743   6.836   2.517  0.7722  3.7672 -1.6132
 9182SOL    HW228446   6.788   6.939   2.635  2.8666 -0.9988  2.0835
 9183SOL     OW28447   1.025   3.948   0.356 -0.1753 -0.1369 -0.5916
 9183SOL    HW128448   0.978   4.006   0.290 -0.9960  0.5701  0.5581
 9183SOL    HW228449   1.006   3.982   0.449  1.3077 -0.8082 -0.0100
 9184SOL     OW28450   5.253   2.532   6.745  0.2579  0.0730  0.1729
 9184SOL    HW128451   5.287   2.482   6.825 -0.4714 -1.8317 -0.6518
 9184SOL    HW228452   5.322   2.530   6.673 -0.5230 -1.4732 -0.5537
 9185SOL     OW28453   2.196   2.794   2.002 -0.0653  0.7259 -0.3788
 9185SOL    HW128454   2.152   2.874   1.960  0.8951  1.7807  0.5376
 9185SOL    HW228455   2.251   2.746   1.934 -0.0407  1.2974 -0.7686
 9186SOL     OW28456   5.467   0.481   2.689 -0.1264  0.0606  0.0204
 9186SOL    HW128457   5.506   0.544   2.622 -0.5264  1.9832  1.5089
 9186SOL    HW228458   5.371   0.465   2.668 -0.3417  0.9331  0.2796
 9187SOL     OW28459   3.114   4.813   6.586  0.7482 -0.8958  0.1974
 9187SOL    HW128460   3.068   4.821   6.674 -1.7944 -0.5830 -1.0634
 9187SOL    HW228461   3.195   4.755   6.596 -0.6936 -2.7142  2.3110
 9188SOL     OW28462   3.462   5.553   2.128  0.5472 -0.2627 -0.0899
 9188SOL    HW128463   3.485   5.586   2.037  1.7837 -0.5784  0.0971
 9188SOL    HW228464   3.368   5.517   2.127  0.3076  0.3446 -1.0576
 9189SOL     OW28465   2.753   2.342   0.377  0.1681 -0.1461 -0.4196
 9189SOL    HW128466   2.795   2.253   0.363  0.7781  0.1024 -0.2259
 9189SOL    HW228467   2.659   2.331   0.409  0.3054 -0.7147 -0.2031
 9190SOL     OW28468   5.973   3.826   3.160  0.5198  0.2772  0.3793
 9190SOL    HW128469   6.035   3.747   3.156  2.1580  1.5858 -2.0459
 9190SOL    HW228470   5.924   3.834   3.074  1.5992  2.8194 -0.0658
 9191SOL     OW28471   5.691   5.252   2.796  0.0400  0.4032 -0.0964
 9191SOL    HW128472   5.614   5.271   2.857 -0.1221 -0.8669  0.1205
 9191SOL    HW228473   5.682   5.160   2.759  1.5134  0.2004  0.0047
 9192SOL     OW28474   3.911   6.927   0.027 -0.5008 -0.5411 -0.4670
 9192SOL    HW128475   3.859   6.921  -0.058 -1.6175 -0.5468  0.2041
 9192SOL    HW228476   3.878   6.859   0.092  0.9148 -1.1224 -0.3061
 9193SOL     OW28477   4.246   5.193   2.235  0.3752 -0.0672 -0.0049
 9193SOL    HW128478   4.301   5.146   2.165 -0.9163 -0.2289 -0.9488
 9193SOL    HW228479   4.254   5.292   2.222  0.5267 -0.0867 -0.0699
 9194SOL     OW28480   6.442   3.062   2.180  0.0150  0.2081  0.1936
 9194SOL    HW128481   6.346   3.037   2.188  0.0201  0.1580  0.1010
 9194SOL    HW228482   6.494   2.983   2.147  0.2041  0.0214  0.9338
 9195SOL     OW28483   5.216   3.117   1.484 -0.5428  0.1094  0.5983
 9195SOL    HW128484   5.252   3.199   1.528 -0.9277  1.1071 -0.8485
 9195SOL    HW228485   5.116   3.122   1.479 -0.6438 -0.9025  1.3285
 9196SOL     OW28486   3.735   2.824   6.150  0.1143  0.3623 -0.2319
 9196SOL    HW128487   3.705   2.739   6.192  1.6015 -0.8269 -1.4771
 9196SOL    HW228488   3.676   2.899   6.180 -2.7265 -1.4716 -0.9460
 9197SOL     OW28489   5.018   1.494   3.721  0.6977  0.0715  0.3818
 9197SOL    HW128490   5.048   1.411   3.674  0.1245 -0.4131  0.8558
 9197SOL    HW228491   4.972   1.554   3.656 -0.0639 -0.5775  0.3110
 9198SOL     OW28492   2.213   5.428   5.692  0.1617 -0.2262  0.8968
 9198SOL    HW128493   2.245   5.365   5.622 -1.4000 -1.4292  1.2133
 9198SOL    HW228494   2.178   5.377   5.770  0.1268  1.0629  1.7567
 9199SOL     OW28495   4.785   0.929   3.140 -0.0169  0.0888 -0.3114
 9199SOL    HW128496   4.790   1.006   3.076 -0.3635 -0.0343 -0.4866
 9199SOL    HW228497   4.704   0.939   3.197 -1.0663 -1.0805 -1.5396
 9200SOL     OW28498   2.497   4.726   4.451  0.6678 -0.0775 -0.1367
 9200SOL    HW128499   2.425   4.732   4.520 -0.5222 -1.5255 -1.1988
 9200SOL    HW228500   2.484   4.799   4.383 -0.6580 -1.1477 -1.0738
 9201SOL     OW28501   5.652   4.783   6.159  0.0714  0.1871 -0.9532
 9201SOL    HW128502   5.716   4.841   6.108 -0.2167  2.5531  1.1704
 9201SOL    HW228503   5.625   4.829   6.244  0.9797 -3.7251  1.7380
 9202SOL     OW28504   3.667   2.930   2.466  0.5244  0.1191 -0.2957
 9202SOL    HW128505   3.635   2.935   2.371 -0.2939  1.2337  0.0246
 9202SOL    HW228506   3.764   2.953   2.469  0.4658  0.4621 -0.8213
 9203SOL     OW28507   1.892   2.895   5.018  0.2158  0.2121  0.3197
 9203SOL    HW128508   1.890   2.939   4.929 -0.7592 -0.4512 -0.0047
 9203SOL    HW228509   1.986   2.894   5.053  0.6193  0.3990 -0.7327
 9204SOL     OW28510   2.681   1.293   1.741 -0.1496  0.2660  0.4462
 9204SOL    HW128511   2.708   1.336   1.655 -4.5804  0.7643 -0.9037
 9204SOL    HW228512   2.688   1.360   1.815  1.3951  0.5463  0.0909
 9205SOL     OW28513   5.959   5.643   1.541  0.7609  0.0517  0.2750
 9205SOL    HW128514   5.908   5.573   1.491  1.7055 -0.2914 -0.2240
 9205SOL    HW228515   6.018   5.694   1.478  0.4246  1.0069  0.7035
 9206SOL     OW28516   5.131   4.578   1.077 -0.0530  0.0607 -0.7132
 9206SOL    HW128517   5.056   4.533   1.028 -2.9249  1.6302  1.8729
 9206SOL    HW228518   5.133   4.675   1.054 -0.1906  0.4323  0.7161
 9207SOL     OW28519   4.912   6.967   5.440 -0.4265  0.2779 -0.4729
 9207SOL    HW128520   4.903   7.046   5.500 -0.1766 -0.0654  0.0271
 9207SOL    HW228521   4.835   6.965   5.376 -0.3795  0.9782 -0.5628
 9208SOL     OW28522   2.394   2.054   1.339 -0.1770 -0.5781 -0.0539
 9208SOL    HW128523   2.342   1.990   1.396 -2.1145  1.1267  0.2422
 9208SOL    HW228524   2.480   2.077   1.385 -0.5786 -1.0974  1.0040
 9209SOL     OW28525   1.611   4.653   0.313 -0.2431  0.2641  0.1946
 9209SOL    HW128526   1.581   4.618   0.402  1.5310 -2.4943 -0.1844
 9209SOL    HW228527   1.711   4.649   0.307 -0.3413  0.0268 -2.0547
 9210SOL     OW28528   0.314   1.744   2.571  0.5012 -0.3917 -0.2512
 9210SOL    HW128529   0.256   1.667   2.543 -2.1808  1.7039 -0.9407
 9210SOL    HW228530   0.276   1.786   2.654  0.9701  1.0962 -0.7535
 9211SOL     OW28531   5.994   4.777   5.844  0.6760  0.0010  0.2978
 9211SOL    HW128532   5.895   4.778   5.829  0.7184  1.7031 -0.0421
 9211SOL    HW228533   6.041   4.759   5.757  0.6697 -1.0105  0.4974
 9212SOL     OW28534   4.398   5.629   6.190 -0.3720  0.1274 -0.3225
 9212SOL    HW128535   4.310   5.596   6.155 -0.2938  0.0695 -0.4623
 9212SOL    HW228536   4.469   5.561   6.173 -0.4420 -0.1563  0.4659
 9213SOL     OW28537   2.371   5.896   6.565  0.0116  0.3966  0.6930
 9213SOL    HW128538   2.423   5.974   6.531  1.0641  0.0092  1.3839
 9213SOL    HW228539   2.421   5.812   6.548 -0.4747 -0.0049  1.1967
 9214SOL     OW28540   3.290   0.442   2.828 -0.3316  0.0460  0.2330
 9214SOL    HW128541   3.270   0.441   2.730 -0.2304  0.9845  0.1919
 9214SOL    HW228542   3.258   0.529   2.867  0.5151  0.0944  0.8375
 9215SOL     OW28543   0.797   1.976   0.037 -0.3507  0.7225  0.4649
 9215SOL    HW128544   0.716   1.994   0.093 -0.1747  0.2833  0.8648
 9215SOL    HW228545   0.792   1.882   0.002  0.3453  0.4506  1.0893
 9216SOL     OW28546   1.786   3.926   5.984  0.3521 -0.0051 -0.7348
 9216SOL    HW128547   1.722   3.862   5.941  0.2995  0.1864 -0.9427
 9216SOL    HW228548   1.782   4.014   5.937 -0.1404  0.3963  0.0342
 9217SOL     OW28549   0.118   4.831   0.993 -0.3408  0.0874  0.5408
 9217SOL    HW128550   0.132   4.927   1.018 -0.4859 -0.0849  1.3219
 9217SOL    HW228551   0.188   4.803   0.928  0.6608  0.2940  1.4905
 9218SOL     OW28552   1.940   1.038   6.028 -1.1417 -0.0184 -0.3857
 9218SOL    HW128553   1.999   0.961   6.005 -1.1271 -0.4923  1.1487
 9218SOL    HW228554   1.851   1.026   5.985 -1.0735 -0.7899 -0.3170
 9219SOL     OW28555   6.978   0.123   0.474 -0.4832  0.2706  0.2138
 9219SOL    HW128556   7.012   0.030   0.466  0.0057  0.5231 -0.7531
 9219SOL    HW228557   6.905   0.126   0.543  0.2578 -0.6027  1.0688
 9220SOL     OW28558   5.453   4.382   2.187  0.3003  0.4137  0.1009
 9220SOL    HW128559   5.431   4.470   2.146 -0.3401  0.0742 -0.2989
 9220SOL    HW228560   5.410   4.309   2.134 -0.7264 -0.0278  1.4919
 9221SOL     OW28561   0.568   1.747   1.375 -0.7775 -0.5157  0.0725
 9221SOL    HW128562   0.551   1.657   1.337 -2.0427  0.5596 -2.1231
 9221SOL    HW228563   0.638   1.793   1.320  0.5369 -0.4585  1.7296
 9222SOL     OW28564   1.034   4.709   3.023  0.1473 -0.1866  0.0732
 9222SOL    HW128565   1.009   4.804   3.008  1.2110  0.0609 -0.1692
 9222SOL    HW228566   0.991   4.676   3.108 -0.0554  0.5598  0.2620
 9223SOL     OW28567   3.082   2.423   1.017  0.1234 -0.0984  0.4134
 9223SOL    HW128568   3.073   2.324   1.022  0.8663 -0.4697 -2.9539
 9223SOL    HW228569   2.998   2.462   0.979  0.6977  0.2112 -0.5994
 9224SOL     OW28570   2.553   2.539   6.744 -0.8538 -0.2782 -0.6470
 9224SOL    HW128571   2.466   2.587   6.740 -0.1581  1.0005 -1.0435
 9224SOL    HW228572   2.584   2.533   6.839 -1.2187 -0.4391 -0.5390
 9225SOL     OW28573   3.573   6.208   3.414 -0.3676  0.1560  0.2194
 9225SOL    HW128574   3.479   6.202   3.381 -0.1402  1.2789 -0.7263
 9225SOL    HW228575   3.636   6.207   3.336  0.4475 -1.0443  0.8615
 9226SOL     OW28576   5.437   1.047   3.388  0.2715 -0.6521 -0.6431
 9226SOL    HW128577   5.483   1.089   3.466  0.3362 -0.0309 -1.0048
 9226SOL    HW228578   5.444   0.948   3.394  0.9516 -0.5892 -0.2677
 9227SOL     OW28579   1.996   5.511   3.809 -0.5558  0.0461 -0.7632
 9227SOL    HW128580   2.028   5.519   3.715 -0.1571 -1.4486 -0.7840
 9227SOL    HW228581   1.896   5.513   3.811 -0.5685  2.8034 -0.9023
 9228SOL     OW28582   3.538   3.911   3.736  0.1301  0.6643  0.0650
 9228SOL    HW128583   3.637   3.927   3.739 -0.0749  2.0599 -0.1032
 9228SOL    HW228584   3.519   3.831   3.679  1.2040 -0.1520  0.8178
 9229SOL     OW28585   1.188   2.724   0.258  0.1523 -0.4883 -0.4792
 9229SOL    HW128586   1.199   2.625   0.251  1.7022 -0.3940  0.1761
 9229SOL    HW228587   1.246   2.759   0.332 -1.7055  0.7118  0.4962
 9230SOL     OW28588   0.760   5.586   3.751  0.2183  0.1830  0.4388
 9230SOL    HW128589   0.696   5.663   3.754  0.6403  0.5104  1.8378
 9230SOL    HW228590   0.710   5.500   3.740 -0.4571  0.4399  1.4720
 9231SOL     OW28591   4.741   4.661   2.224 -0.2144  0.7850 -0.4899
 9231SOL    HW128592   4.757   4.648   2.126 -0.8376  0.8483 -0.6045
 9231SOL    HW228593   4.718   4.756   2.242  0.6425  0.9399 -0.1701
 9232SOL     OW28594   0.862   6.090   1.667 -0.3408  0.6859 -0.1635
 9232SOL    HW128595   0.810   6.067   1.585 -0.9228  0.8838  0.1467
 9232SOL    HW228596   0.950   6.130   1.640 -0.4890  0.6711 -0.6870
 9233SOL     OW28597   3.173   0.085   6.116  0.1043  0.5330  0.1046
 9233SOL    HW128598   3.127   0.003   6.083  0.6451  0.5785 -0.7831
 9233SOL    HW228599   3.270   0.079   6.097  0.1742  1.3147  0.1713
 9234SOL     OW28600   1.654   0.263   0.976 -0.6868  0.5397 -0.2457
 9234SOL    HW128601   1.744   0.236   1.011 -0.3549  0.4877 -1.1242
 9234SOL    HW228602   1.584   0.230   1.039 -0.1265  0.0460  0.1407
 9235SOL     OW28603   4.374   2.070   3.655  0.1296 -0.6882 -0.2504
 9235SOL    HW128604   4.461   2.092   3.700 -0.5661  1.7289  0.0254
 9235SOL    HW228605   4.309   2.035   3.723  0.3199 -0.8417 -0.1455
 9236SOL     OW28606   5.717   4.768   4.036 -0.0640 -0.3092  0.0027
 9236SOL    HW128607   5.751   4.689   3.986 -2.5597 -2.3870  1.3671
 9236SOL    HW228608   5.625   4.792   4.003 -0.0908  0.8632  0.8543
 9237SOL     OW28609   6.223   0.547   6.201  0.1062  0.0336  0.3684
 9237SOL    HW128610   6.147   0.599   6.240  0.1119 -0.2358  0.7473
 9237SOL    HW228611   6.295   0.536   6.270  0.1341 -0.4081  0.2720
 9238SOL     OW28612   6.322   5.111   0.408 -0.0964  0.4735  0.1849
 9238SOL    HW128613   6.289   5.045   0.476  0.6780  0.0030  0.1093
 9238SOL    HW228614   6.355   5.193   0.455  3.5204 -1.1191  0.7008
 9239SOL     OW28615   5.990   1.782   5.326 -0.0761 -0.4251 -0.0522
 9239SOL    HW128616   5.963   1.839   5.403  0.3511  0.2682 -0.4076
 9239SOL    HW228617   6.030   1.697   5.360 -0.7356 -0.5317  0.4769
 9240SOL     OW28618   1.751   4.832   0.672 -0.2329 -0.4376  0.2844
 9240SOL    HW128619   1.843   4.806   0.701  1.2807  2.6553 -1.3336
 9240SOL    HW228620   1.706   4.882   0.746 -0.4843 -1.5436  0.9055
 9241SOL     OW28621   3.948   4.953   6.327 -0.2138  0.2172 -0.4283
 9241SOL    HW128622   3.921   4.858   6.312  0.9493 -0.1309 -0.4196
 9241SOL    HW228623   3.901   4.988   6.408 -1.4976  0.0237 -1.0596
 9242SOL     OW28624   1.110   6.149   2.330 -0.1041 -0.3410 -0.0535
 9242SOL    HW128625   1.059   6.231   2.303 -0.8992 -0.8145 -0.0436
 9242SOL    HW228626   1.056   6.068   2.306  0.7447 -0.8675 -0.2191
 9243SOL     OW28627   1.080   1.398   5.069  0.0048 -0.1386 -0.4403
 9243SOL    HW128628   1.166   1.451   5.067  0.0803 -0.0773  1.7265
 9243SOL    HW228629   1.100   1.302   5.051  0.7178 -0.2871  0.9930
 9244SOL     OW28630   2.864   3.618   3.084 -0.2472 -0.1683 -0.0607
 9244SOL    HW128631   2.785   3.651   3.135  0.8627  3.0884 -0.2097
 9244SOL    HW228632   2.942   3.608   3.146  0.4504  1.3991 -0.6359
 9245SOL     OW28633   2.132   3.525   5.453 -0.0082  0.2182  0.3992
 9245SOL    HW128634   2.051   3.496   5.403 -0.7178  0.6222  1.2830
 9245SOL    HW228635   2.203   3.555   5.389 -0.7593  0.3889 -0.3574
 9246SOL     OW28636   2.048   1.626   5.528 -0.1258  0.6237 -0.6133
 9246SOL    HW128637   2.020   1.636   5.624  1.4496 -0.9237  0.0484
 9246SOL    HW228638   2.140   1.662   5.516  1.1212 -2.3145 -0.6816
 9247SOL     OW28639   2.142   4.058   2.561  0.3167  0.2129  0.0571
 9247SOL    HW128640   2.067   4.106   2.606  1.5289  1.3542  0.9255
 9247SOL    HW228641   2.125   4.054   2.463  0.1721  2.4612 -0.0444
 9248SOL     OW28642   5.975   5.211   0.950 -0.0401  0.3014  0.2524
 9248SOL    HW128643   5.954   5.118   0.921  2.3916 -0.2238 -0.0570
 9248SOL    HW228644   5.928   5.230   1.036 -1.0018 -1.0057  0.0516
 9249SOL     OW28645   3.098   5.069   6.074  0.0717 -0.3831 -0.1136
 9249SOL    HW128646   3.170   5.100   6.136  0.3482 -0.8628 -0.1890
 9249SOL    HW228647   3.009   5.102   6.107  0.3508  0.4205 -0.1597
 9250SOL     OW28648   0.719   1.961   5.338  0.3231  0.3330  0.1608
 9250SOL    HW128649   0.695   2.003   5.251 -0.6501 -0.5058  0.0058
 9250SOL    HW228650   0.647   1.898   5.366  0.4427  0.8648  1.7683
 9251SOL     OW28651   3.699   6.346   0.548 -0.2086  0.1598 -0.2907
 9251SOL    HW128652   3.701   6.435   0.503  0.5575 -0.4345 -1.4796
 9251SOL    HW228653   3.776   6.291   0.515 -0.9093 -1.0889  0.1258
 9252SOL     OW28654   3.747   0.090   5.294 -0.2526  0.2644 -0.5684
 9252SOL    HW128655   3.714   0.005   5.336  2.4750 -0.8025 -0.3432
 9252SOL    HW228656   3.768   0.073   5.197 -0.8536  1.0353 -0.8411
 9253SOL     OW28657   3.453   2.840   6.932  0.5925 -0.0229  0.5520
 9253SOL    HW128658   3.442   2.812   7.027  0.1323  0.4832  0.6554
 9253SOL    HW228659   3.475   2.761   6.875 -1.8023 -0.8059  0.6358
 9254SOL     OW28660   3.644   6.500   4.538 -0.5537 -0.7624  0.5160
 9254SOL    HW128661   3.684   6.440   4.469 -0.4260 -0.1201  0.0197
 9254SOL    HW228662   3.626   6.590   4.497 -1.1408 -0.5951  1.1277
 9255SOL     OW28663   6.969   6.621   1.451 -0.3841 -0.2091  0.0828
 9255SOL    HW128664   6.888   6.563   1.445 -1.9375  1.8736 -0.0273
 9255SOL    HW228665   6.962   6.696   1.386  1.8861 -0.2086 -0.2630
 9256SOL     OW28666   0.811   4.877   5.938  0.1111  0.1301 -0.8224
 9256SOL    HW128667   0.781   4.893   6.032  1.4435  0.9656 -0.5136
 9256SOL    HW228668   0.799   4.781   5.916 -0.4221 -0.0381  0.1327
 9257SOL     OW28669   2.761   2.866   1.603  0.0625 -0.5728  0.0038
 9257SOL    HW128670   2.716   2.788   1.646 -0.9813  1.9460  4.1830
 9257SOL    HW228671   2.860   2.860   1.616 -0.1109 -0.6984  1.4227
 9258SOL     OW28672   6.000   0.466   3.985 -0.2573  0.2022 -0.6548
 9258SOL    HW128673   5.936   0.400   4.024  0.5909 -0.8843 -1.0536
 9258SOL    HW228674   5.961   0.558   3.993 -0.4732 -0.0422  2.0024
 9259SOL     OW28675   6.616   5.449   5.237 -0.3304 -0.0363  0.4923
 9259SOL    HW128676   6.566   5.516   5.181 -1.5621 -1.1451  0.2110
 9259SOL    HW228677   6.700   5.490   5.270 -0.3557  1.1944 -0.8496
 9260SOL     OW28678   6.922   3.229   1.500  0.0076  0.5642  0.2170
 9260SOL    HW128679   6.822   3.222   1.508  0.0452 -0.2246  0.0580
 9260SOL    HW228680   6.958   3.145   1.460  0.4093  2.0478 -2.8370
 9261SOL     OW28681   1.330   0.102   4.211 -0.3603 -0.0341 -0.3189
 9261SOL    HW128682   1.304   0.193   4.242 -0.0143  0.0149 -0.1621
 9261SOL    HW228683   1.401   0.109   4.141 -1.3486 -0.1320 -1.3647
 9262SOL     OW28684   5.221   1.441   1.749  0.5136  0.2893  0.1684
 9262SOL    HW128685   5.246   1.502   1.824 -0.6125  0.1743  0.6472
 9262SOL    HW228686   5.163   1.368   1.783 -1.0967  0.9559 -1.0317
 9263SOL     OW28687   6.168   3.974   3.649 -0.1730 -0.2338 -0.0862
 9263SOL    HW128688   6.094   3.912   3.621 -0.2088 -0.5885  0.7617
 9263SOL    HW228689   6.238   3.975   3.578 -1.0793  0.2758 -1.0077
 9264SOL     OW28690   4.241   1.026   4.812  0.9580 -0.1571  0.2323
 9264SOL    HW128691   4.287   0.967   4.746  2.2419  1.5953 -0.5232
 9264SOL    HW228692   4.170   1.079   4.767 -0.1836 -1.0721  0.9032
 9265SOL     OW28693   0.917   2.371   3.205  0.3315 -0.5888  0.4383
 9265SOL    HW128694   0.953   2.311   3.134 -2.1186 -1.4350 -0.1809
 9265SOL    HW228695   0.910   2.321   3.291  1.0331 -0.2803  0.6841
 9266SOL     OW28696   1.989   2.505   6.121  0.0330  0.0282 -0.2235
 9266SOL    HW128697   1.935   2.429   6.085  0.6516 -0.4886 -0.0752
 9266SOL    HW228698   1.985   2.506   6.220 -0.2068  0.3659 -0.2345
 9267SOL     OW28699   1.880   5.129   4.890  0.3946 -0.0650  0.3561
 9267SOL    HW128700   1.790   5.102   4.856  0.2163  0.1076  0.6834
 9267SOL    HW228701   1.920   5.055   4.944  0.6925 -0.3518 -0.2503
 9268SOL     OW28702   4.280   6.896   6.396  0.0655 -0.5938  0.2130
 9268SOL    HW128703   4.225   6.835   6.339 -0.3437  0.1820 -0.2344
 9268SOL    HW228704   4.221   6.941   6.464  0.1744  0.0878 -0.1347
 9269SOL     OW28705   4.055   0.190   1.185  0.0606 -0.3879  0.0023
 9269SOL    HW128706   3.963   0.230   1.175 -0.2089 -1.3650 -2.0054
 9269SOL    HW228707   4.075   0.175   1.281 -1.2418  1.2815  0.5923
 9270SOL     OW28708   0.298   5.770   3.571  0.0486 -0.0277  0.0063
 9270SOL    HW128709   0.333   5.835   3.504  2.5154 -0.8279  0.4434
 9270SOL    HW228710   0.262   5.689   3.523 -0.5932  0.4934 -0.4142
 9271SOL     OW28711   4.340   2.760   0.435  0.1204  0.6021 -0.3621
 9271SOL    HW128712   4.297   2.774   0.346  0.3773  2.3981 -0.2480
 9271SOL    HW228713   4.399   2.679   0.432 -2.0512 -1.0336 -0.9481
 9272SOL     OW28714   3.090   1.580   3.348  0.2298  0.5901 -0.0574
 9272SOL    HW128715   3.070   1.599   3.252  0.4904 -0.0837 -0.2507
 9272SOL    HW228716   3.086   1.665   3.400 -1.0511  0.7916 -0.4524
 9273SOL     OW28717   3.037   5.514   3.945 -0.4757 -0.2403 -0.0779
 9273SOL    HW128718   3.048   5.466   4.032 -2.1321 -1.8162 -0.6574
 9273SOL    HW228719   3.044   5.448   3.870  1.0282  1.1060 -1.1715
 9274SOL     OW28720   4.072   1.432   4.826  0.2594 -0.1041  0.0867
 9274SOL    HW128721   4.149   1.467   4.878 -0.2606  1.7405 -0.2764
 9274SOL    HW228722   4.099   1.352   4.774  1.4623 -0.4611  1.2333
 9275SOL     OW28723   2.798   6.978   4.679 -0.2200 -0.0882  0.0444
 9275SOL    HW128724   2.847   6.961   4.593 -2.0538  0.2546 -1.1276
 9275SOL    HW228725   2.857   7.028   4.742  1.4999 -1.1785 -0.6279
 9276SOL     OW28726   1.513   2.901   1.388 -0.3644 -0.6650 -0.3881
 9276SOL    HW128727   1.477   2.808   1.399 -0.1924 -1.2077 -3.4936
 9276SOL    HW228728   1.613   2.900   1.400 -0.3227 -0.9786 -0.7283
 9277SOL     OW28729   2.517   0.085   2.738  0.0479  0.1049  0.4283
 9277SOL    HW128730   2.572   0.024   2.794 -1.0295 -2.3852 -1.0866
 9277SOL    HW228731   2.502   0.044   2.648 -1.3798  2.2810 -0.4031
 9278SOL     OW28732   2.632   5.124   3.166  0.3896  0.3342  0.0405
 9278SOL    HW128733   2.715   5.082   3.130 -0.2844  0.7247 -2.1160
 9278SOL    HW228734   2.572   5.054   3.203  1.0417 -0.1035  0.2934
 9279SOL     OW28735   5.631   4.652   5.230  0.3894 -0.0264 -0.0053
 9279SOL    HW128736   5.688   4.670   5.310 -0.0791  0.9042  0.1337
 9279SOL    HW228737   5.534   4.653   5.256  0.1992  0.9081 -0.6705
 9280SOL     OW28738   2.863   6.623   1.265  0.2400 -0.0734  0.0714
 9280SOL    HW128739   2.937   6.612   1.198 -0.2047  0.8215 -0.5857
 9280SOL    HW228740   2.777   6.592   1.224  0.2347 -1.1233  0.8403
 9281SOL     OW28741   4.819   2.348   3.398  0.1496 -0.2744 -0.0488
 9281SOL    HW128742   4.749   2.340   3.327 -0.5464 -0.2486  0.6165
 9281SOL    HW228743   4.845   2.444   3.408 -2.2868  0.2963  2.0463
 9282SOL     OW28744   2.080   6.528   2.107 -0.1442 -0.5743  0.5687
 9282SOL    HW128745   2.114   6.496   2.195  0.9570 -0.0529  0.3437
 9282SOL    HW228746   2.124   6.476   2.033  0.2516  0.1792  0.2695
 9283SOL     OW28747   4.201   4.795   2.972  0.3353 -0.1927  0.4741
 9283SOL    HW128748   4.240   4.704   2.981 -2.3931 -1.4415  0.7862
 9283SOL    HW228749   4.216   4.847   3.056 -0.6955 -1.5214  1.5300
 9284SOL     OW28750   3.981   0.574   5.015 -0.6512  0.2769 -0.1340
 9284SOL    HW128751   4.049   0.641   4.984 -2.6656  1.3426 -2.6441
 9284SOL    HW228752   3.890   0.603   4.985 -1.9148 -2.4082  0.8012
 9285SOL     OW28753   4.589   2.162   3.796  0.0111 -0.5255  0.2587
 9285SOL    HW128754   4.635   2.209   3.871  2.0129 -0.6840 -0.7972
 9285SOL    HW228755   4.634   2.074   3.780 -0.4497 -0.5487 -1.0290
 9286SOL     OW28756   6.042   3.151   6.786 -0.6206  0.0855  0.0675
 9286SOL    HW128757   6.038   3.077   6.719  0.7817  1.0442 -1.1410
 9286SOL    HW228758   5.959   3.205   6.782 -0.3836  0.3726 -1.2055
 9287SOL     OW28759   1.314   6.920   3.743 -0.3565 -0.5898  0.1778
 9287SOL    HW128760   1.292   6.907   3.646 -2.8389  2.0921  0.2557
 9287SOL    HW228761   1.404   6.962   3.751  0.0750 -1.2553 -0.9192
 9288SOL     OW28762   4.795   0.499   2.442  0.1998 -0.3945  0.3028
 9288SOL    HW128763   4.825   0.594   2.430  0.1403 -0.3857  0.2219
 9288SOL    HW228764   4.698   0.491   2.417  0.3308 -0.5755 -0.1710
 9289SOL     OW28765   4.293   0.641   0.660 -0.2294  0.3998  0.0339
 9289SOL    HW128766   4.316   0.738   0.649 -1.0995  0.9850  2.6386
 9289SOL    HW228767   4.377   0.587   0.663  0.5084  1.5294  1.7779
 9290SOL     OW28768   5.168   0.562   5.633  0.2743  0.3362 -0.6323
 9290SOL    HW128769   5.235   0.517   5.692  0.6511 -0.2139 -1.4504
 9290SOL    HW228770   5.198   0.656   5.615  0.0836  0.5512  0.1545
 9291SOL     OW28771   6.301   2.060   4.518 -0.2378 -0.1608 -0.2130
 9291SOL    HW128772   6.391   2.017   4.515 -0.1602  0.0533 -1.6792
 9291SOL    HW228773   6.243   2.022   4.447 -1.6590 -0.9854  1.3239
 9292SOL     OW28774   6.356   0.059   3.518  0.4723  0.4163  0.2754
 9292SOL    HW128775   6.336   0.149   3.557 -0.1493  0.4976 -0.2319
 9292SOL    HW228776   6.271   0.012   3.494  0.7885 -0.3139  0.5405
 9293SOL     OW28777   1.819   1.664   5.159 -0.1791 -0.6355  0.7316
 9293SOL    HW128778   1.810   1.619   5.247  0.7145 -0.6520  0.8243
 9293SOL    HW228779   1.905   1.636   5.115 -0.2389 -0.0372  0.2060
 9294SOL     OW28780   3.958   5.709   3.516 -0.1012  0.4218 -0.0337
 9294SOL    HW128781   3.979   5.740   3.608  1.6733  0.5193 -0.4382
 9294SOL    HW228782   4.043   5.697   3.464 -1.0110 -0.3930 -1.4135
 9295SOL     OW28783   1.234   4.091   2.585 -0.5546  0.5734  0.0932
 9295SOL    HW128784   1.165   4.021   2.566  0.2090 -0.7862  2.0304
 9295SOL    HW228785   1.320   4.065   2.541 -0.5577  0.8950 -0.1077
 9296SOL     OW28786   3.259   1.382   4.626 -0.2029 -0.3482 -0.2848
 9296SOL    HW128787   3.177   1.385   4.683 -0.2535 -0.9882 -0.3188
 9296SOL    HW228788   3.248   1.444   4.549  0.3361  1.4340  1.0087
 9297SOL     OW28789   6.115   0.114   3.942 -0.4508  0.3406  0.0150
 9297SOL    HW128790   6.186   0.088   4.008  0.6948 -0.6237 -1.5198
 9297SOL    HW228791   6.150   0.185   3.881 -1.2793  0.7980  0.0600
 9298SOL     OW28792   6.525   0.392   1.815  0.0865  0.1879  0.4640
 9298SOL    HW128793   6.477   0.448   1.747  0.8502  0.2350 -0.0617
 9298SOL    HW228794   6.459   0.344   1.872 -0.5767  0.6780  0.1257
 9299SOL     OW28795   1.297   3.829   4.658 -0.5898 -0.4517  0.0749
 9299SOL    HW128796   1.316   3.912   4.709 -1.2109 -0.9315  1.1312
 9299SOL    HW228797   1.209   3.791   4.688 -0.3827 -1.4017 -0.4840
 9300SOL     OW28798   5.563   4.964   1.803 -0.0052  0.0553 -0.6120
 9300SOL    HW128799   5.574   5.061   1.782  0.4869  0.8510  2.7144
 9300SOL    HW228800   5.638   4.912   1.763  1.4449  1.5421  0.0722
 9301SOL     OW28801   1.813   2.979   3.127  0.1477  0.3265 -0.1167
 9301SOL    HW128802   1.732   3.033   3.103 -0.3035 -0.8535 -1.4457
 9301SOL    HW228803   1.804   2.946   3.221 -1.7475 -1.0529 -0.6889
 9302SOL     OW28804   0.233   3.128   4.086  0.5620  0.5229 -0.3080
 9302SOL    HW128805   0.265   3.120   4.181  0.1721 -1.1858 -0.2784
 9302SOL    HW228806   0.147   3.078   4.076  2.3187 -2.4940 -2.2886
 9303SOL     OW28807   5.636   4.129   2.088  0.0502 -0.3229 -0.5634
 9303SOL    HW128808   5.732   4.106   2.073  0.1366 -0.2628 -0.1049
 9303SOL    HW228809   5.628   4.199   2.159 -0.3775 -0.9011 -0.0241
 9304SOL     OW28810   4.248   6.782   6.665 -0.3203 -0.3615  0.0188
 9304SOL    HW128811   4.309   6.859   6.649  1.6661 -0.9665  3.6507
 9304SOL    HW228812   4.188   6.802   6.743 -1.2720 -1.7052 -0.3281
 9305SOL     OW28813   0.378   5.082   3.834  0.1796 -0.3142  0.3434
 9305SOL    HW128814   0.303   5.053   3.775  1.5488 -0.7458 -1.2781
 9305SOL    HW228815   0.465   5.057   3.791  1.2744  0.7153  1.8678
 9306SOL     OW28816   5.159   0.982   6.124 -0.3878  0.2473  0.5575
 9306SOL    HW128817   5.076   1.028   6.156 -0.2914  0.2661  0.7815
 9306SOL    HW228818   5.204   0.937   6.201 -1.2508 -1.4459  0.1289
 9307SOL     OW28819   5.902   6.117   2.719 -0.0681 -0.8580  0.0093
 9307SOL    HW128820   5.978   6.060   2.751  0.9390 -1.1975 -2.6961
 9307SOL    HW228821   5.863   6.076   2.637 -1.2249  0.8989 -0.3584
 9308SOL     OW28822   1.531   0.872   5.102 -0.3430  0.4215  0.0408
 9308SOL    HW128823   1.518   0.866   5.003  2.6145 -0.4276 -0.3788
 9308SOL    HW228824   1.512   0.966   5.132  0.6424  1.2217 -1.6670
 9309SOL     OW28825   6.482   4.791   0.238  0.0647 -0.1806  0.0085
 9309SOL    HW128826   6.407   4.769   0.175  0.1366  0.7054 -0.4030
 9309SOL    HW228827   6.526   4.707   0.267 -1.3999 -0.7624  0.6437
 9310SOL     OW28828   5.029   1.889   1.257  0.2795  0.3212 -0.1283
 9310SOL    HW128829   5.067   1.978   1.280 -0.1427 -0.2598  3.2033
 9310SOL    HW228830   5.084   1.817   1.299 -1.5623 -0.7730  0.5073
 9311SOL     OW28831   3.366   5.077   4.838 -0.3745  0.3617 -0.6229
 9311SOL    HW128832   3.464   5.084   4.855 -0.2976 -0.6964 -0.5495
 9311SOL    HW228833   3.326   5.014   4.905 -1.1749  1.0800 -0.4064
 9312SOL     OW28834   1.606   4.427   1.417 -0.0195 -0.0572 -0.1393
 9312SOL    HW128835   1.627   4.385   1.505  0.9822 -0.0802 -0.3767
 9312SOL    HW228836   1.649   4.518   1.412  1.9122 -0.9641 -1.4437
 9313SOL     OW28837   1.987   4.511   2.620  0.2335  0.2828  0.8132
 9313SOL    HW128838   2.041   4.593   2.606 -1.1987  1.0308 -0.5799
 9313SOL    HW228839   1.898   4.535   2.657 -1.1896 -0.2758 -1.9604
 9314SOL     OW28840   1.395   5.968   2.594 -0.2606 -0.5115 -0.4816
 9314SOL    HW128841   1.410   6.030   2.516 -2.3374 -0.6593 -1.0622
 9314SOL    HW228842   1.388   6.022   2.678 -0.1755 -0.1426 -0.7086
 9315SOL     OW28843   3.408   3.326   6.715  0.2731 -0.1547  0.0317
 9315SOL    HW128844   3.344   3.346   6.789  0.1920  1.7973 -0.5044
 9315SOL    HW228845   3.359   3.278   6.642 -0.2911  0.1832  0.1733
 9316SOL     OW28846   5.239   5.456   6.462  0.1053 -0.2196  0.1133
 9316SOL    HW128847   5.242   5.554   6.443  0.7743 -0.2576  0.0056
 9316SOL    HW228848   5.292   5.407   6.394  1.3148 -0.4898  1.2101
 9317SOL     OW28849   3.354   3.808   6.185 -0.4134 -0.1229  0.5285
 9317SOL    HW128850   3.268   3.855   6.164 -0.4463 -1.0059 -1.5633
 9317SOL    HW228851   3.430   3.872   6.177 -0.7726  0.4310  1.4199
 9318SOL     OW28852   6.000   6.176   0.439 -0.0313  0.3598  0.5015
 9318SOL    HW128853   6.045   6.265   0.428 -1.1481  0.7995 -0.6157
 9318SOL    HW228854   6.060   6.104   0.404  0.6108  0.7196  0.8277
 9319SOL     OW28855   2.166   0.054   5.092  0.1532  0.0754  0.2126
 9319SOL    HW128856   2.112   0.134   5.122  0.6338  0.1825  0.8117
 9319SOL    HW228857   2.258   0.060   5.131  0.9084  0.3600 -1.5290
 9320SOL     OW28858   3.785   6.838   2.931  0.0463  0.0872 -0.1292
 9320SOL    HW128859   3.693   6.812   2.961 -0.4109  2.6963  1.0462
 9320SOL    HW228860   3.806   6.929   2.965  3.3344 -0.6430  0.0837
 9321SOL     OW28861   3.573   2.729   1.866  0.3920 -0.0802  0.2372
 9321SOL    HW128862   3.524   2.725   1.953 -0.4758 -0.7790 -0.2565
 9321SOL    HW228863   3.567   2.822   1.829  0.0129  0.0106  0.5142
 9322SOL     OW28864   0.774   1.020   4.990 -0.0873 -0.3845 -0.3103
 9322SOL    HW128865   0.771   1.103   5.047 -1.1456  0.1167 -1.0799
 9322SOL    HW228866   0.683   0.979   4.985  0.3665 -1.4310 -0.1953
 9323SOL     OW28867   0.050   2.258   2.927 -0.0220  0.0360 -0.0006
 9323SOL    HW128868   0.122   2.189   2.937  0.2195  0.4951  1.6380
 9323SOL    HW228869   0.041   2.282   2.830  2.8709  0.8067 -0.1890
 9324SOL     OW28870   3.285   3.922   0.645 -0.3962 -0.0820 -0.3423
 9324SOL    HW128871   3.296   3.982   0.724  1.3808  1.3085 -1.5603
 9324SOL    HW228872   3.375   3.897   0.608 -1.1626 -1.0063 -1.7063
 9325SOL     OW28873   4.659   4.661   6.070 -0.7341  0.1876 -0.0969
 9325SOL    HW128874   4.620   4.570   6.086 -0.9712 -0.2415 -2.7588
 9325SOL    HW228875   4.607   4.707   5.998  0.7557  1.5492 -0.3422
 9326SOL     OW28876   4.655   0.163   4.522  0.7784  0.0381 -0.4510
 9326SOL    HW128877   4.681   0.243   4.576  0.3244 -0.7351  0.9697
 9326SOL    HW228878   4.631   0.088   4.584  3.0739 -1.8587 -1.6717
 9327SOL     OW28879   5.954   3.532   6.095 -0.3491  0.2153 -0.0816
 9327SOL    HW128880   6.008   3.469   6.151  0.7040  1.4994  0.3922
 9327SOL    HW228881   6.005   3.556   6.013 -0.4534  0.9394  0.0570
 9328SOL     OW28882   0.930   5.665   2.436  0.3132  0.2798  0.4614
 9328SOL    HW128883   1.004   5.728   2.414  1.0751 -0.7762 -0.1084
 9328SOL    HW228884   0.965   5.591   2.493 -0.0462 -0.7952 -0.6709
 9329SOL     OW28885   2.455   2.609   0.242 -0.0156  0.0388 -0.2090
 9329SOL    HW128886   2.424   2.663   0.164  0.0805  0.3702 -0.0205
 9329SOL    HW228887   2.555   2.606   0.242 -0.0082  0.3261  0.0970
 9330SOL     OW28888   0.382   3.773   1.284 -0.0388  0.1023  0.1457
 9330SOL    HW128889   0.457   3.718   1.319 -0.0918 -0.1435 -0.1263
 9330SOL    HW228890   0.305   3.769   1.348 -0.1316 -0.3389  0.0090
 9331SOL     OW28891   0.577   3.949   0.853 -0.1739  0.7094  0.4565
 9331SOL    HW128892   0.486   3.911   0.841  0.9964 -2.2470  0.1856
 9331SOL    HW228893   0.619   3.911   0.935  1.2647  1.0393 -0.0850
 9332SOL     OW28894   4.752   5.624   0.409  0.4629  0.5231  0.6124
 9332SOL    HW128895   4.815   5.585   0.341 -1.2980 -0.5893 -0.4595
 9332SOL    HW228896   4.769   5.722   0.417  1.7212  0.4135 -0.3164
 9333SOL     OW28897   5.738   6.018   5.233 -0.2008  0.1382  0.2788
 9333SOL    HW128898   5.705   6.071   5.155  2.0249  0.1485 -0.7431
 9333SOL    HW228899   5.755   5.924   5.204  0.0207 -0.0262  0.9305
 9334SOL     OW28900   5.375   4.748   5.554 -0.1730 -0.8506 -0.0138
 9334SOL    HW128901   5.305   4.789   5.613  0.0732 -0.6181  0.1217
 9334SOL    HW228902   5.428   4.682   5.607 -0.3712 -1.1173 -0.1499
 9335SOL     OW28903   2.681   4.031   6.087  0.4308 -0.5694  0.1874
 9335SOL    HW128904   2.638   4.082   6.013 -1.1218 -1.8660  0.1369
 9335SOL    HW228905   2.717   3.945   6.051 -0.6476 -1.3720  0.9454
 9336SOL     OW28906   2.968   1.062   4.601 -0.5685 -0.0053 -0.4018
 9336SOL    HW128907   2.981   1.135   4.535 -1.8702  1.2182  0.6253
 9336SOL    HW228908   2.888   1.083   4.659  1.0314 -0.5542  2.1660
 9337SOL     OW28909   1.725   5.808   4.760  0.1725 -0.0992  0.1931
 9337SOL    HW128910   1.788   5.855   4.822  0.9682 -0.0642 -0.6371
 9337SOL    HW228911   1.649   5.771   4.813 -0.2632  1.7385  0.9337
 9338SOL     OW28912   1.211   1.977   6.708  0.0572 -0.2964  0.1847
 9338SOL    HW128913   1.269   1.926   6.644  1.2916  1.7674 -0.4627
 9338SOL    HW228914   1.136   1.919   6.740 -0.3841 -1.5818 -2.8263
 9339SOL     OW28915   0.396   2.248   3.340  0.1307  0.3828  0.1798
 9339SOL    HW128916   0.479   2.209   3.300 -0.3408  0.1132 -0.5516
 9339SOL    HW228917   0.406   2.347   3.349  0.9048  0.2360  1.0093
 9340SOL     OW28918   3.331   1.644   0.417 -0.0187 -0.3043 -0.1693
 9340SOL    HW128919   3.281   1.583   0.356 -1.4072 -0.3753  0.9751
 9340SOL    HW228920   3.304   1.739   0.398  1.6498 -0.0499 -1.5072
 9341SOL     OW28921   3.245   4.998   5.069 -0.2999 -0.2235  0.0480
 9341SOL    HW128922   3.296   5.069   5.118  1.4148 -0.5651 -1.1639
 9341SOL    HW228923   3.219   4.926   5.132  0.8189 -0.0830  0.6943
 9342SOL     OW28924   5.024   2.054   3.732  0.1906 -0.7670 -0.0784
 9342SOL    HW128925   5.078   1.976   3.702 -0.7509 -1.0268 -1.1714
 9342SOL    HW228926   5.000   2.110   3.652 -1.3429 -0.7877  0.3412
 9343SOL     OW28927   0.317   3.511   4.686  0.0850 -0.0563 -0.2989
 9343SOL    HW128928   0.312   3.513   4.586  1.2569  0.9331 -0.3649
 9343SOL    HW228929   0.231   3.545   4.724  0.7881  2.8596 -1.0524
 9344SOL     OW28930   1.633   5.252   4.603  0.5378 -0.1743 -0.4430
 9344SOL    HW128931   1.629   5.250   4.503  2.5343  2.0046 -0.6467
 9344SOL    HW228932   1.571   5.323   4.638 -0.0784 -0.8598 -0.0911
 9345SOL     OW28933   7.011   2.065   5.480  0.2771  0.6061  0.1005
 9345SOL    HW128934   7.019   2.069   5.381  0.2168 -1.1995 -0.0187
 9345SOL    HW228935   6.993   2.156   5.517  0.9318  1.4001 -1.4782
 9346SOL     OW28936   0.655   6.388   0.451 -0.7155 -0.3361 -0.8708
 9346SOL    HW128937   0.560   6.369   0.477 -0.1099 -2.0182  0.3148
 9346SOL    HW228938   0.669   6.486   0.442 -2.2328  0.0244  0.3144
 9347SOL     OW28939   1.773   3.990   0.147 -0.0572 -0.1570 -0.0738
 9347SOL    HW128940   1.787   4.086   0.171 -2.3093 -0.4252  2.9425
 9347SOL    HW228941   1.844   3.934   0.189 -0.3417 -0.0574  0.5380
 9348SOL     OW28942   2.792   1.118   4.312 -0.1773  0.0163  0.3702
 9348SOL    HW128943   2.799   1.051   4.238  0.7321 -0.1226  0.5655
 9348SOL    HW228944   2.884   1.139   4.345 -0.3520  2.0501 -0.3050
 9349SOL     OW28945   0.290   4.485   0.680 -0.4146 -0.0419 -0.6400
 9349SOL    HW128946   0.292   4.387   0.698  0.0974 -0.0847 -0.9200
 9349SOL    HW228947   0.331   4.504   0.591  2.5586  0.7211  0.7852
 9350SOL     OW28948   4.331   5.647   1.121 -0.7536  0.2627 -0.6031
 9350SOL    HW128949   4.269   5.703   1.065  0.4141  0.1480 -2.0489
 9350SOL    HW228950   4.289   5.557   1.136 -1.5785  0.6808 -0.2913
 9351SOL     OW28951   0.057   6.814   0.929  0.5116 -0.1237 -0.3026
 9351SOL    HW128952   0.150   6.850   0.934  0.1757  0.6258  0.8282
 9351SOL    HW228953  -0.004   6.883   0.893  0.2777 -0.4050 -0.4514
 9352SOL     OW28954   3.174   5.702   1.234 -0.2548  0.3754 -0.5680
 9352SOL    HW128955   3.106   5.681   1.164 -1.1568  1.4794 -0.0602
 9352SOL    HW228956   3.238   5.626   1.242 -1.0344 -0.4102 -1.5257
 9353SOL     OW28957   4.717   2.355   3.656 -0.4445  0.0771  0.3765
 9353SOL    HW128958   4.661   2.282   3.695 -1.6353  1.2141  0.8843
 9353SOL    HW228959   4.720   2.345   3.557 -1.1568 -0.2762  0.3847
 9354SOL     OW28960   6.449   1.632   3.613  0.6217  0.5024 -0.5835
 9354SOL    HW128961   6.495   1.696   3.552  0.1481  1.3178 -0.1079
 9354SOL    HW228962   6.435   1.676   3.702  0.6180 -0.3954 -0.1351
 9355SOL     OW28963   0.614   5.505   2.212  0.2899  0.3451 -0.9305
 9355SOL    HW128964   0.595   5.603   2.223 -0.1980  0.1464  0.0823
 9355SOL    HW228965   0.529   5.457   2.194  0.2428 -0.1420  0.5058
 9356SOL     OW28966   3.597   4.354   6.307 -0.3388 -0.0516  0.5558
 9356SOL    HW128967   3.551   4.268   6.330 -2.3676 -0.6165 -4.3680
 9356SOL    HW228968   3.539   4.431   6.333 -0.6985 -0.4331  0.8924
 9357SOL     OW28969   0.753   4.591   5.927  0.1886  0.1205 -0.2353
 9357SOL    HW128970   0.664   4.582   5.883 -0.5624  0.5937  1.1128
 9357SOL    HW228971   0.790   4.500   5.945 -1.9154 -0.3031  2.7536
 9358SOL     OW28972   3.233   0.224   4.225 -0.6672 -0.8084 -0.3894
 9358SOL    HW128973   3.193   0.242   4.136 -1.0992 -0.8054 -0.1969
 9358SOL    HW228974   3.332   0.213   4.216 -0.5754  0.2097 -0.7194
 9359SOL     OW28975   0.111   5.993   1.319  0.3740  0.2384  0.0833
 9359SOL    HW128976   0.168   6.058   1.268  1.3046 -0.4480  0.2307
 9359SOL    HW228977   0.047   6.044   1.377  1.5545  1.0431  0.7209
 9360SOL     OW28978   1.588   1.647   5.039 -0.3524  0.5729 -0.0154
 9360SOL    HW128979   1.676   1.660   5.085 -0.5843 -1.9012  1.3031
 9360SOL    HW228980   1.601   1.587   4.960 -0.9957 -0.8472  0.9194
 9361SOL     OW28981   2.636   2.632   1.304 -0.4863  0.3808 -0.0612
 9361SOL    HW128982   2.557   2.586   1.263 -0.5095 -1.3343  1.7749
 9361SOL    HW228983   2.632   2.624   1.404  2.9437 -1.4930  0.0852
 9362SOL     OW28984   0.566   1.876   2.592  0.4421 -0.0342 -0.1465
 9362SOL    HW128985   0.554   1.969   2.559 -0.9177  0.0741  0.5950
 9362SOL    HW228986   0.481   1.825   2.579  0.5569 -0.6053  1.1842
 9363SOL     OW28987   0.975   3.496   1.331  0.5856 -0.0849  0.4241
 9363SOL    HW128988   0.918   3.418   1.305 -1.4909  1.0791  1.2408
 9363SOL    HW228989   0.929   3.548   1.403  2.3777  1.3511  0.6011
 9364SOL     OW28990   2.469   1.093   0.394  0.4607 -0.4688  0.3044
 9364SOL    HW128991   2.487   1.188   0.368 -1.6499 -0.6151 -2.0785
 9364SOL    HW228992   2.527   1.032   0.340 -2.9109 -0.6977 -3.5911
 9365SOL     OW28993   2.529   0.593   0.521 -0.2790  0.0373 -0.7343
 9365SOL    HW128994   2.493   0.567   0.432  0.1835 -0.0941 -0.8849
 9365SOL    HW228995   2.521   0.692   0.533  2.9395  0.6259 -2.4490
 9366SOL     OW28996   5.277   6.499   3.373 -0.0569  0.8477  0.0788
 9366SOL    HW128997   5.246   6.592   3.393  0.6340  1.0254  0.3428
 9366SOL    HW228998   5.300   6.452   3.458  0.1105  0.6154 -0.0921
 9367SOL     OW28999   5.275   4.798   2.456  0.3069  0.0498  0.7269
 9367SOL    HW129000   5.214   4.770   2.382 -0.4783  0.1857  1.3078
 9367SOL    HW229001   5.354   4.737   2.459  0.2731 -0.0499 -0.1159
 9368SOL     OW29002   6.234   6.640   1.594 -0.1772  0.4441 -0.3188
 9368SOL    HW129003   6.228   6.613   1.498 -1.3814  0.8292 -0.3670
 9368SOL    HW229004   6.327   6.624   1.627  0.0325 -0.4997 -1.3023
 9369SOL     OW29005   5.783   1.887   5.165  0.2064 -0.4752  0.3992
 9369SOL    HW129006   5.857   1.834   5.205  0.8767 -0.3773 -0.6706
 9369SOL    HW229007   5.810   1.919   5.074 -1.4070 -1.0364 -0.3236
 9370SOL     OW29008   6.302   1.237   5.296 -0.1200  0.0387 -0.2544
 9370SOL    HW129009   6.369   1.229   5.222  1.1342 -2.2642  1.0318
 9370SOL    HW229010   6.219   1.186   5.272 -0.1676  0.2550 -0.5483
 9371SOL     OW29011   0.296   2.094   5.547  0.7919  0.2509  0.3398
 9371SOL    HW129012   0.319   2.155   5.472 -4.6927 -0.1740 -2.2180
 9371SOL    HW229013   0.252   2.146   5.620  0.3437 -0.0590  0.2967
 9372SOL     OW29014   3.737   2.148   5.081  0.3558  0.2855  0.6232
 9372SOL    HW129015   3.758   2.143   5.179  1.3786  1.6517  0.4909
 9372SOL    HW229016   3.639   2.158   5.069  0.2601  0.5389  1.5275
 9373SOL     OW29017   0.617   5.098   3.702  0.5559  0.8558  0.3635
 9373SOL    HW129018   0.606   5.022   3.639 -0.9591  0.2065  1.3487
 9373SOL    HW229019   0.609   5.184   3.653  0.2874  0.3672 -0.4587
 9374SOL     OW29020   0.281   1.757   0.644  0.0973  0.7000 -0.9024
 9374SOL    HW129021   0.316   1.692   0.577  2.2159 -1.0320  1.6847
 9374SOL    HW229022   0.343   1.835   0.651  1.0935 -0.1831  0.5066
 9375SOL     OW29023   6.592   3.612   6.767  0.8651 -0.4684 -0.2158
 9375SOL    HW129024   6.600   3.658   6.856  1.0048 -1.0203  0.0639
 9375SOL    HW229025   6.562   3.517   6.782 -1.5697  0.1254 -0.9122
 9376SOL     OW29026   1.831   3.848   0.422 -0.4498 -0.3578 -0.5453
 9376SOL    HW129027   1.899   3.910   0.460 -1.7074  0.5581  0.2733
 9376SOL    HW229028   1.739   3.876   0.451 -1.0838 -2.4631 -0.3136
 9377SOL     OW29029   2.942   3.907   6.323  0.1954 -0.2770  0.8742
 9377SOL    HW129030   2.980   3.871   6.409 -1.5805  2.9192  3.2465
 9377SOL    HW229031   2.859   3.857   6.300  2.4542 -3.4986 -1.1745
 9378SOL     OW29032   1.314   5.707   6.501  0.1683 -0.3956 -0.1471
 9378SOL    HW129033   1.400   5.656   6.494  0.5516  0.0694  1.0511
 9378SOL    HW229034   1.324   5.780   6.568 -1.4571 -0.9311  0.7306
 9379SOL     OW29035   1.236   5.816   3.217  0.6281 -0.0040 -0.6267
 9379SOL    HW129036   1.194   5.805   3.127 -0.7971 -0.4678  0.0616
 9379SOL    HW229037   1.225   5.731   3.269 -0.4167  0.9218  0.7186
 9380SOL     OW29038   4.571   5.816   0.273  0.2546  0.3867 -0.6194
 9380SOL    HW129039   4.596   5.730   0.319 -0.0603  1.0026  0.7337
 9380SOL    HW229040   4.625   5.825   0.190  0.1719 -1.2097 -0.8803
 9381SOL     OW29041   1.783   3.607   1.496  0.0403 -0.0707  0.5991
 9381SOL    HW129042   1.731   3.691   1.476 -0.3631 -0.5859 -0.5933
 9381SOL    HW229043   1.723   3.542   1.543  0.0439 -0.1122  0.5447
 9382SOL     OW29044   2.362   6.789   1.567  0.5729  0.1575  0.6929
 9382SOL    HW129045   2.418   6.855   1.617  0.8275  1.1917 -0.8978
 9382SOL    HW229046   2.358   6.815   1.470 -3.4371  0.7083  0.8248
 9383SOL     OW29047   1.154   2.285   6.638  0.2285  0.5102 -0.7300
 9383SOL    HW129048   1.142   2.187   6.623 -0.7393  0.1305  2.0846
 9383SOL    HW229049   1.250   2.304   6.660  1.1738  0.7744 -4.3861
 9384SOL     OW29050   2.215   5.801   5.923 -0.5447  0.1011  0.3535
 9384SOL    HW129051   2.236   5.783   5.827 -2.7118  0.2682 -0.2173
 9384SOL    HW229052   2.274   5.875   5.957  0.5101 -0.2139 -0.7181
 9385SOL     OW29053   6.179   6.131   1.381 -0.1987 -0.1144  0.4576
 9385SOL    HW129054   6.105   6.065   1.367 -0.5568  0.7646 -2.5316
 9385SOL    HW229055   6.145   6.210   1.433 -0.6915 -0.7475  1.1099
 9386SOL     OW29056   6.569   3.990   6.992 -0.5352  0.2224 -0.0337
 9386SOL    HW129057   6.502   3.956   6.926 -0.0718 -0.1854 -0.3027
 9386SOL    HW229058   6.522   4.026   7.072 -1.0547 -1.5202  0.4936
 9387SOL     OW29059   6.157   5.977   2.195  0.1571 -0.4231 -0.5378
 9387SOL    HW129060   6.069   6.024   2.193  0.9079  1.0472 -0.3286
 9387SOL    HW229061   6.227   6.036   2.156  1.2889 -1.0786  0.4321
 9388SOL     OW29062   5.400   3.242   4.710 -0.2959  0.6691 -0.6194
 9388SOL    HW129063   5.364   3.149   4.703  0.1890  0.4546 -0.3221
 9388SOL    HW229064   5.494   3.239   4.744 -0.0362  1.2262 -1.2485
 9389SOL     OW29065   4.402   2.358   1.980 -0.9537 -0.6585  0.1290
 9389SOL    HW129066   4.382   2.393   1.888 -0.0182  0.3068  0.2771
 9389SOL    HW229067   4.334   2.393   2.044 -0.0849  0.8629  0.2562
 9390SOL     OW29068   6.612   5.173   4.035 -0.0130  0.0649 -0.5639
 9390SOL    HW129069   6.589   5.225   3.952 -1.5288 -0.5257 -0.5506
 9390SOL    HW229070   6.547   5.099   4.047  0.7353 -0.4260  0.6799
 9391SOL     OW29071   2.217   5.684   0.640  0.5405 -0.1651  0.0093
 9391SOL    HW129072   2.303   5.727   0.613  1.2023 -1.5125 -0.1102
 9391SOL    HW229073   2.143   5.751   0.634  1.6271  1.1141  0.4588
 9392SOL     OW29074   5.005   1.482   4.484  0.6817  0.6099  0.0381
 9392SOL    HW129075   4.992   1.526   4.395  1.6777 -1.9651 -1.4612
 9392SOL    HW229076   4.916   1.453   4.520  0.5310 -1.8133 -2.0538
 9393SOL     OW29077   1.332   4.235   6.351 -0.0166  0.4703  1.0351
 9393SOL    HW129078   1.409   4.192   6.304 -0.6099  0.3620  0.1475
 9393SOL    HW229079   1.268   4.164   6.379 -0.7523  0.7166  0.0166
 9394SOL     OW29080   6.411   1.647   6.952  0.1040 -0.6118 -0.7442
 9394SOL    HW129081   6.353   1.582   6.902 -0.1136 -1.2460  0.3161
 9394SOL    HW229082   6.384   1.649   7.048 -1.6121  2.8844 -1.1308
 9395SOL     OW29083   1.740   6.141   3.196  0.2733  0.3362  0.0566
 9395SOL    HW129084   1.776   6.222   3.242  0.3465  0.6195 -0.4937
 9395SOL    HW229085   1.760   6.059   3.251  1.6672  0.4963 -0.1790
 9396SOL     OW29086   3.676   2.119   6.576  0.3751  0.8664  0.0580
 9396SOL    HW129087   3.717   2.085   6.491  1.0954  0.8427  0.4133
 9396SOL    HW229088   3.732   2.092   6.654  0.1634  1.6149  0.4791
 9397SOL     OW29089   4.268   5.897   4.133  0.0466  0.0099  0.3802
 9397SOL    HW129090   4.198   5.912   4.063 -1.0780  1.0615  1.6494
 9397SOL    HW229091   4.240   5.822   4.192  0.0535  0.3361  0.8039
 9398SOL     OW29092   4.345   0.242   0.735  0.1974  0.2474  0.3026
 9398SOL    HW129093   4.373   0.332   0.769  0.1818  0.2703  0.2541
 9398SOL    HW229094   4.246   0.240   0.722  0.3058  0.5131 -0.5622
 9399SOL     OW29095   2.436   0.151   5.124 -0.1000 -0.2926 -0.1664
 9399SOL    HW129096   2.530   0.179   5.104 -0.7041  0.8926 -1.5168
 9399SOL    HW229097   2.409   0.186   5.213  0.5392 -0.1044 -0.0413
 9400SOL     OW29098   2.950   5.651   4.937 -0.1917 -0.3259 -0.3218
 9400SOL    HW129099   2.936   5.564   4.890  0.2816 -1.8260  2.1150
 9400SOL    HW229100   3.027   5.642   5.001 -0.6533  1.6259  0.5728
 9401SOL     OW29101   0.934   1.087   4.797  0.0653 -0.4808 -0.0943
 9401SOL    HW129102   0.876   1.060   4.874  1.5241 -3.5315  0.0899
 9401SOL    HW229103   0.919   1.024   4.721  0.8099  0.6839 -1.2512
 9402SOL     OW29104   3.422   5.197   5.671  0.0485 -0.0007  0.6865
 9402SOL    HW129105   3.344   5.136   5.684 -0.6088  0.8606  0.8799
 9402SOL    HW229106   3.504   5.154   5.707 -0.8178  0.2157  3.1198
 9403SOL     OW29107   1.406   0.841   1.970 -0.2299 -0.4932  0.6014
 9403SOL    HW129108   1.476   0.778   1.937 -0.7414 -1.5072  1.3920
 9403SOL    HW229109   1.442   0.894   2.047  0.1744  0.1551 -0.0163
 9404SOL     OW29110   2.611   0.184   6.889 -0.3769 -0.6423 -0.0600
 9404SOL    HW129111   2.621   0.281   6.911  1.2142 -0.3654 -1.8092
 9404SOL    HW229112   2.636   0.129   6.969  2.1073  0.3540 -0.0653
 9405SOL     OW29113   3.482   3.031   6.520 -0.6104  0.1978  0.2624
 9405SOL    HW129114   3.538   3.072   6.592 -1.3329  1.5271  0.0892
 9405SOL    HW229115   3.392   3.074   6.518 -1.3523 -1.2843 -0.0625
 9406SOL     OW29116   6.069   6.454   0.032 -0.2225 -0.1041 -0.0297
 9406SOL    HW129117   6.066   6.554   0.021 -0.9999  0.1073  1.8512
 9406SOL    HW229118   5.984   6.422   0.074  0.3383 -1.4789  0.1145
 9407SOL     OW29119   4.744   4.682   2.763 -0.2075 -0.0297 -0.0340
 9407SOL    HW129120   4.710   4.714   2.675  0.1714  0.3334 -0.0466
 9407SOL    HW229121   4.715   4.587   2.777 -3.1090  0.8879  0.9014
 9408SOL     OW29122   5.453   1.705   2.321 -0.0501  0.9683  0.3110
 9408SOL    HW129123   5.395   1.771   2.369 -1.3247  0.0393  0.1287
 9408SOL    HW229124   5.509   1.752   2.254  0.6095  2.1004  1.6062
 9409SOL     OW29125   5.995   2.394   1.875 -0.4689  0.3121  0.1909
 9409SOL    HW129126   6.041   2.327   1.816  0.5064  2.3431 -1.4959
 9409SOL    HW229127   5.898   2.401   1.848 -0.0217  1.2666 -1.3276
 9410SOL     OW29128   3.018   1.827   1.439  0.0342  0.3809  0.2458
 9410SOL    HW129129   3.039   1.730   1.452 -2.0811 -0.3102 -1.0941
 9410SOL    HW229130   3.088   1.882   1.485  0.6997 -1.7559  1.9815
 9411SOL     OW29131   3.442   0.802   2.513  0.2632 -0.6550 -0.1735
 9411SOL    HW129132   3.533   0.815   2.475  0.0160 -1.6639 -1.1970
 9411SOL    HW229133   3.407   0.712   2.485 -0.9882 -0.3404  0.3075
 9412SOL     OW29134   0.522   5.592   6.044 -0.2665 -0.1997  0.0520
 9412SOL    HW129135   0.438   5.618   6.091 -0.1593  1.2158 -0.4825
 9412SOL    HW229136   0.502   5.570   5.948 -0.2089 -1.2264  0.2585
 9413SOL     OW29137   4.831   4.131   2.466  0.3254 -0.5788 -0.3383
 9413SOL    HW129138   4.931   4.138   2.467  0.4041 -1.4470  1.1487
 9413SOL    HW229139   4.796   4.162   2.378  2.0843 -2.5950 -1.8570
 9414SOL     OW29140   1.381   2.421   6.862  0.0739 -0.1458  0.0325
 9414SOL    HW129141   1.317   2.463   6.927 -0.2704  0.4025 -0.6482
 9414SOL    HW229142   1.475   2.447   6.885 -0.0331 -0.0984  0.4148
 9415SOL     OW29143   1.920   6.107   5.478  0.4702  0.1160 -0.7970
 9415SOL    HW129144   1.835   6.055   5.471 -0.1067  0.9927 -0.3565
 9415SOL    HW229145   1.963   6.112   5.388  0.5171 -1.0710 -0.8600
 9416SOL     OW29146   2.123   0.773   5.792  0.3846  0.2487 -0.0086
 9416SOL    HW129147   2.121   0.782   5.891  2.7173  1.6715 -0.0207
 9416SOL    HW229148   2.105   0.862   5.749 -1.6206 -0.5409 -0.9404
 9417SOL     OW29149   0.901   3.494   1.814  0.1546 -0.1590  0.0393
 9417SOL    HW129150   0.899   3.586   1.853 -0.2271 -1.0320  2.1878
 9417SOL    HW229151   0.989   3.450   1.835 -0.3967 -0.9638  0.7169
 9418SOL     OW29152   1.044   3.123   0.094 -0.7879 -0.0639  0.5516
 9418SOL    HW129153   0.981   3.122   0.172 -1.4585  2.5654  0.1259
 9418SOL    HW229154   1.022   3.047   0.033 -2.6410 -0.0443  1.1171
 9419SOL     OW29155   2.207   5.961   1.675  0.3216 -0.6068 -0.2588
 9419SOL    HW129156   2.281   5.975   1.609  0.1614 -0.5310 -0.4236
 9419SOL    HW229157   2.120   5.988   1.633  0.0526 -1.7206 -0.4494
 9420SOL     OW29158   0.872   3.750   0.170 -0.1897  0.2578  0.2124
 9420SOL    HW129159   0.927   3.810   0.228 -1.1570  1.7363 -0.3472
 9420SOL    HW229160   0.799   3.708   0.224 -0.5482  0.9347  0.2611
 9421SOL     OW29161   5.077   2.484   6.523 -0.1643 -0.0716  0.3800
 9421SOL    HW129162   5.132   2.498   6.606 -0.3956 -1.3808  0.7722
 9421SOL    HW229163   5.111   2.405   6.473  2.2755  2.6175 -2.7427
 9422SOL     OW29164   5.900   2.030   3.875 -0.2971 -0.3235  0.7087
 9422SOL    HW129165   5.973   2.013   3.809 -0.6920  1.3440 -0.2054
 9422SOL    HW229166   5.895   1.953   3.939 -0.3175 -2.2915 -1.5414
 9423SOL     OW29167   4.781   4.018   3.000  0.2820  0.4174 -0.1028
 9423SOL    HW129168   4.728   4.067   3.069  0.1420  1.4065 -0.8998
 9423SOL    HW229169   4.755   4.049   2.909  1.5930  0.2727 -0.5482
 9424SOL     OW29170   2.958   6.887   1.912 -1.0932  0.0879  0.0531
 9424SOL    HW129171   2.934   6.880   1.815  1.6833  2.4222 -0.9901
 9424SOL    HW229172   2.921   6.972   1.949  2.1010  1.9302 -0.6060
 9425SOL     OW29173   2.738   4.837   2.140  0.0500  0.1057  0.2367
 9425SOL    HW129174   2.768   4.824   2.234  0.8054 -0.9752 -0.1375
 9425SOL    HW229175   2.770   4.761   2.084 -1.7385 -0.0905 -0.5814
 9426SOL     OW29176   0.806   2.849   2.591  0.6903  0.0407  0.0776
 9426SOL    HW129177   0.894   2.896   2.592  0.8883 -0.2676  2.8712
 9426SOL    HW229178   0.806   2.776   2.658 -1.8963  0.3850  0.5587
 9427SOL     OW29179   4.002   0.913   4.504 -0.3177  0.3830  0.1499
 9427SOL    HW129180   4.071   0.858   4.459 -0.8197 -0.3700  0.2790
 9427SOL    HW229181   3.957   0.972   4.437  0.1269  0.5423 -0.0125
 9428SOL     OW29182   0.291   1.621   3.720  0.0581  0.9851  0.3812
 9428SOL    HW129183   0.327   1.549   3.779  1.7652 -0.3838 -2.1477
 9428SOL    HW229184   0.253   1.694   3.776  1.9099 -0.0187  3.1453
 9429SOL     OW29185   1.666   3.607   1.189 -0.0079 -0.0172 -0.3440
 9429SOL    HW129186   1.756   3.651   1.182  0.4935 -1.2083 -1.7533
 9429SOL    HW229187   1.646   3.558   1.105 -2.2941  0.7513 -0.3298
 9430SOL     OW29188   1.158   3.415   2.588 -0.2514 -0.1305  0.2394
 9430SOL    HW129189   1.061   3.433   2.599 -0.5070 -1.2731  0.0539
 9430SOL    HW229190   1.187   3.348   2.657  0.9818  2.0244  1.9155
 9431SOL     OW29191   3.091   2.573   5.738  0.4895  0.3329  0.2256
 9431SOL    HW129192   3.107   2.661   5.782 -0.0345 -0.0331  1.1784
 9431SOL    HW229193   3.128   2.575   5.645 -0.8655  2.0968 -0.3386
 9432SOL     OW29194   6.034   6.137   6.442  0.3119  0.3024  0.6735
 9432SOL    HW129195   6.049   6.092   6.529  2.2041  0.8631  0.6864
 9432SOL    HW229196   6.012   6.070   6.372  1.5421 -0.4765  1.0139
 9433SOL     OW29197   1.134   4.246   1.637 -0.1717  0.5090 -0.0576
 9433SOL    HW129198   1.102   4.337   1.609  0.8946  1.3011  1.2012
 9433SOL    HW229199   1.222   4.255   1.682  0.5527 -1.3187 -1.0235
 9434SOL     OW29200   2.878   2.778   0.515  0.1449 -0.0483 -0.2980
 9434SOL    HW129201   2.894   2.843   0.589 -0.8552 -0.2277  0.0878
 9434SOL    HW229202   2.872   2.686   0.552  0.9026 -0.2949 -0.7661
 9435SOL     OW29203   0.120   2.217   1.146  0.0361  0.1840 -0.0922
 9435SOL    HW129204   0.143   2.311   1.173 -0.2644  0.0313  0.7335
 9435SOL    HW229205   0.189   2.155   1.182  1.1944  0.2343 -2.1010
 9436SOL     OW29206   6.296   5.828   1.889 -0.2264  0.2898 -0.1393
 9436SOL    HW129207   6.221   5.891   1.869  0.1044  0.4300 -0.9595
 9436SOL    HW229208   6.381   5.879   1.902  0.2759 -0.0342 -1.9250
 9437SOL     OW29209   5.650   5.373   3.191  0.1757 -0.0324 -0.0847
 9437SOL    HW129210   5.633   5.469   3.167  1.0900 -0.3326 -2.1851
 9437SOL    HW229211   5.726   5.368   3.255 -1.2377  0.7179  1.7682
 9438SOL     OW29212   0.753   4.592   1.301 -0.2656 -0.5895  0.2934
 9438SOL    HW129213   0.665   4.626   1.331  0.2643 -0.4937  1.8258
 9438SOL    HW229214   0.801   4.664   1.250 -0.7249 -0.3633  0.1744
 9439SOL     OW29215   2.859   2.086   0.441 -0.0524  0.0322 -0.7659
 9439SOL    HW129216   2.784   2.090   0.508  0.1966  0.6088 -0.5228
 9439SOL    HW229217   2.838   2.015   0.374 -1.0956  0.5586 -1.0261
 9440SOL     OW29218   6.143   0.384   2.674 -0.4482  0.4918 -0.4631
 9440SOL    HW129219   6.227   0.427   2.642 -0.7267  1.3860 -0.0234
 9440SOL    HW229220   6.065   0.421   2.624 -0.7463  0.9282  0.3015
 9441SOL     OW29221   2.708   3.748   6.546 -0.4126 -0.3663 -0.0088
 9441SOL    HW129222   2.694   3.831   6.492  0.1780 -0.2314  0.0388
 9441SOL    HW229223   2.740   3.675   6.485  1.2113  0.0499  0.2811
 9442SOL     OW29224   6.624   1.442   2.459 -0.0312 -0.4938  0.0872
 9442SOL    HW129225   6.543   1.494   2.486  1.8751  2.0649  1.2858
 9442SOL    HW229226   6.629   1.437   2.359 -0.5351  1.2959 -0.0589
 9443SOL     OW29227   4.622   2.595   4.833 -0.4467 -0.5983 -0.5015
 9443SOL    HW129228   4.547   2.541   4.872 -2.1945  1.3417 -1.0356
 9443SOL    HW229229   4.612   2.598   4.733  0.7945 -0.8955 -0.6554
 9444SOL     OW29230   4.597   6.231   5.651  0.3195  0.2905  0.1521
 9444SOL    HW129231   4.563   6.205   5.561 -0.6977  3.1291 -0.4011
 9444SOL    HW229232   4.667   6.302   5.641 -0.6078  1.4718  1.5708
 9445SOL     OW29233   0.672   5.733   2.486 -0.5169  1.0453 -0.1396
 9445SOL    HW129234   0.765   5.700   2.472 -0.4162  0.2639  2.0446
 9445SOL    HW229235   0.637   5.772   2.401  1.9428  1.7472 -0.8907
 9446SOL     OW29236   4.581   5.945   5.230 -0.2231 -0.3115 -0.1967
 9446SOL    HW129237   4.574   5.846   5.213  1.4886 -0.4748 -0.1366
 9446SOL    HW229238   4.595   5.992   5.143  2.4078 -0.5176  0.0409
 9447SOL     OW29239   4.180   1.729   0.069 -0.6399 -0.2442 -0.4170
 9447SOL    HW129240   4.095   1.782   0.068 -0.2873  0.3569  0.3460
 9447SOL    HW229241   4.171   1.650   0.008 -1.5819  0.0601 -0.6877
 9448SOL     OW29242   1.796   2.846   6.996 -0.4505 -0.0872 -0.2141
 9448SOL    HW129243   1.840   2.916   6.940 -1.0721  0.4646 -0.0147
 9448SOL    HW229244   1.828   2.756   6.966  0.3606  0.2710 -0.4639
 9449SOL     OW29245   1.563   5.750   0.699 -0.3479 -0.1545  0.4557
 9449SOL    HW129246   1.527   5.664   0.737  0.7693 -1.1100 -0.5621
 9449SOL    HW229247   1.530   5.762   0.606  1.0939 -0.5465 -0.1409
 9450SOL     OW29248   0.326   5.644   1.123  0.3823 -0.2684 -0.0610
 9450SOL    HW129249   0.424   5.663   1.123  0.3028  0.6606 -2.5862
 9450SOL    HW229250   0.291   5.654   1.029 -1.8872 -1.9039  0.5280
 9451SOL     OW29251   3.262   6.623   0.761  0.3369 -0.6060 -0.0919
 9451SOL    HW129252   3.315   6.623   0.676 -0.3778  0.1330 -0.5630
 9451SOL    HW229253   3.324   6.630   0.839  0.9521  2.9421 -0.6939
 9452SOL     OW29254   5.016   6.025   7.008  0.2986  0.1233  0.4639
 9452SOL    HW129255   5.015   6.101   6.943 -0.6080  0.5577  0.9559
 9452SOL    HW229256   5.095   5.966   6.990  1.0586  1.2098  0.1022
 9453SOL     OW29257   3.432   2.234   1.157  0.4075 -0.1336  0.4030
 9453SOL    HW129258   3.380   2.227   1.072 -1.7550 -0.0203  1.6481
 9453SOL    HW229259   3.471   2.325   1.166 -0.4915  0.2793  0.1477
 9454SOL     OW29260   5.905   2.632   5.738 -0.0660  0.0443  0.1749
 9454SOL    HW129261   5.944   2.555   5.788  0.7092  1.0468  1.1291
 9454SOL    HW229262   5.867   2.698   5.802  1.9363  1.8936 -0.4268
 9455SOL     OW29263   5.053   3.436   0.101  0.0820  0.4140 -0.3990
 9455SOL    HW129264   4.980   3.376   0.069  1.4105 -2.0140  0.8534
 9455SOL    HW229265   5.074   3.416   0.196  1.7547  1.7126 -0.4415
 9456SOL     OW29266   3.456   4.977   1.477 -0.0657  0.3021 -0.1062
 9456SOL    HW129267   3.408   5.028   1.549 -0.7045  0.3603 -0.5626
 9456SOL    HW229268   3.471   4.883   1.507  0.6627  0.6109  0.5372
 9457SOL     OW29269   5.058   5.644   4.984 -0.0816 -0.0430 -0.2867
 9457SOL    HW129270   4.961   5.636   5.006  0.0167 -0.7637 -0.0832
 9457SOL    HW229271   5.072   5.621   4.887 -0.1564  0.4087 -0.4068
 9458SOL     OW29272   3.274   4.097   6.394  0.7380  0.1304  0.2926
 9458SOL    HW129273   3.217   4.086   6.313 -0.1970 -0.5009  1.0237
 9458SOL    HW229274   3.369   4.077   6.371  0.4553 -0.2261 -0.5960
 9459SOL     OW29275   0.737   6.831   2.046 -0.1994  0.5210 -0.0177
 9459SOL    HW129276   0.664   6.892   2.077 -1.0834 -0.9753  1.0267
 9459SOL    HW229277   0.699   6.760   1.987  0.7627  0.8071 -1.0247
 9460SOL     OW29278   3.407   2.496   6.937 -0.1201 -0.5596 -0.0909
 9460SOL    HW129279   3.406   2.410   6.887 -1.1423  0.2316 -1.4890
 9460SOL    HW229280   3.470   2.489   7.015  0.5982 -2.2065 -0.7872
 9461SOL     OW29281   1.866   3.877   2.063 -0.3020  0.3879 -0.4218
 9461SOL    HW129282   1.964   3.895   2.054 -0.1685 -0.8876 -1.8891
 9461SOL    HW229283   1.831   3.921   2.146  1.5290  0.7412  0.1973
 9462SOL     OW29284   0.868   3.584   5.703 -0.2314 -0.1456 -0.1700
 9462SOL    HW129285   0.968   3.578   5.713 -0.2822  1.0850  1.4021
 9462SOL    HW229286   0.826   3.499   5.736  0.2657 -0.4679 -0.3555
 9463SOL     OW29287   6.166   3.495   3.651  0.1252 -0.5632  0.2784
 9463SOL    HW129288   6.245   3.525   3.705 -0.3179  2.2770 -0.5231
 9463SOL    HW229289   6.083   3.499   3.707  0.0764 -0.4180  0.1947
 9464SOL     OW29290   5.363   4.149   6.937  0.1501  0.0111 -0.0145
 9464SOL    HW129291   5.425   4.085   6.891 -1.1841 -1.3094 -0.0136
 9464SOL    HW229292   5.342   4.225   6.875 -0.0660 -0.7243 -0.8513
 9465SOL     OW29293   1.523   1.836   2.837 -0.4087 -0.2211  0.1799
 9465SOL    HW129294   1.505   1.805   2.930  1.5189  1.0566  1.0280
 9465SOL    HW229295   1.604   1.790   2.801  0.2920  1.0547  0.0701
 9466SOL     OW29296   5.379   3.055   2.637 -0.7317  0.0660 -0.2692
 9466SOL    HW129297   5.450   3.062   2.567 -0.1546  0.0461  0.3138
 9466SOL    HW229298   5.290   3.069   2.594 -0.4341 -0.5402 -1.1186
 9467SOL     OW29299   1.317   1.504   1.754  0.1641  0.0665 -0.3795
 9467SOL    HW129300   1.388   1.557   1.800 -0.1862  1.6874 -1.6116
 9467SOL    HW229301   1.241   1.490   1.817 -0.2770  2.1852 -0.3487
 9468SOL     OW29302   3.456   2.045   2.042  1.0593  0.4062 -0.1949
 9468SOL    HW129303   3.533   2.096   2.080  0.9420  1.1478 -0.9354
 9468SOL    HW229304   3.437   2.077   1.949 -1.2704  1.5359  0.5893
 9469SOL     OW29305   0.746   5.275   0.287  0.1331 -0.2281  0.0005
 9469SOL    HW129306   0.739   5.248   0.383 -0.3732  0.4270  0.1549
 9469SOL    HW229307   0.657   5.308   0.254  0.1537 -0.9812 -0.8639
 9470SOL     OW29308   2.259   6.910   2.542  0.2507 -0.3636 -0.4129
 9470SOL    HW129309   2.246   7.004   2.512  1.0466 -0.2645 -0.4829
 9470SOL    HW229310   2.238   6.902   2.640  1.4090  0.1814 -0.1001
 9471SOL     OW29311   3.848   0.734   6.305  0.2100 -0.4224 -0.6976
 9471SOL    HW129312   3.924   0.777   6.255  0.9124 -1.6781 -0.7489
 9471SOL    HW229313   3.859   0.751   6.403 -0.1292  0.4266 -0.7941
 9472SOL     OW29314   5.698   2.161   0.560 -0.5590 -0.5535 -0.5550
 9472SOL    HW129315   5.641   2.092   0.515 -1.3310 -0.2300 -0.0947
 9472SOL    HW229316   5.736   2.222   0.491 -1.7824 -0.0237 -0.7939
 9473SOL     OW29317   6.696   3.033   4.352 -0.7395  0.1138  0.2531
 9473SOL    HW129318   6.735   3.052   4.442 -0.3345 -0.2300  0.1531
 9473SOL    HW229319   6.747   3.084   4.283 -0.9968  0.3117  0.2096
 9474SOL     OW29320   6.676   5.679   5.580 -0.5252  0.2959  0.4678
 9474SOL    HW129321   6.634   5.770   5.578 -0.0066  0.5566  1.0290
 9474SOL    HW229322   6.614   5.613   5.538 -1.2473  0.7704  0.7674
 9475SOL     OW29323   6.438   1.760   6.306 -0.3033 -0.5197 -0.5478
 9475SOL    HW129324   6.517   1.700   6.293 -0.4764 -0.9708  0.3565
 9475SOL    HW229325   6.382   1.725   6.382 -1.7570 -0.6161 -1.6298
 9476SOL     OW29326   1.519   4.022   6.570 -0.2158  0.1084  0.0397
 9476SOL    HW129327   1.576   4.087   6.620 -0.4010  0.0675  0.3100
 9476SOL    HW229328   1.479   3.957   6.635  0.2322 -0.4810 -0.2678
 9477SOL     OW29329   0.367   3.194   3.035 -0.1273 -0.8258  0.1456
 9477SOL    HW129330   0.310   3.125   3.080 -0.0382 -0.5500  0.6840
 9477SOL    HW229331   0.462   3.161   3.032 -0.4894 -1.8493 -1.8751
 9478SOL     OW29332   1.755   5.700   4.512  0.2916 -0.0407  0.3367
 9478SOL    HW129333   1.756   5.744   4.601  3.2654  1.9474 -0.5386
 9478SOL    HW229334   1.785   5.605   4.520  2.5962  0.7084  1.2879
 9479SOL     OW29335   2.858   1.844   3.863  0.3397 -0.0407 -0.0985
 9479SOL    HW129336   2.869   1.933   3.909  1.5653  0.0466 -0.5255
 9479SOL    HW229337   2.778   1.798   3.899  0.5564  0.5797  1.2267
 9480SOL     OW29338   2.157   6.747   4.724 -0.3557 -0.2122  0.2754
 9480SOL    HW129339   2.194   6.837   4.746  1.6030 -1.1451  1.0526
 9480SOL    HW229340   2.181   6.682   4.796 -0.1653 -1.7486 -1.1061
 9481SOL     OW29341   4.371   5.698   5.415 -0.1453 -0.3104 -0.1831
 9481SOL    HW129342   4.414   5.686   5.326  0.3860 -0.5399  0.1044
 9481SOL    HW229343   4.331   5.790   5.420  2.2086  0.7663  0.3329
 9482SOL     OW29344   3.558   6.305   3.798 -0.1011 -0.5820 -0.0316
 9482SOL    HW129345   3.588   6.394   3.763  2.9001 -1.8126 -0.9350
 9482SOL    HW229346   3.606   6.284   3.883  0.8652 -2.1738 -0.9119
 9483SOL     OW29347   3.140   1.641   4.996 -0.3861  0.1697  0.1279
 9483SOL    HW129348   3.053   1.598   4.972 -1.0994  2.0124 -0.7327
 9483SOL    HW229349   3.124   1.726   5.044  0.9322  0.7151 -0.3444
 9484SOL     OW29350   3.844   6.820   2.627  0.6074 -0.2266 -0.1055
 9484SOL    HW129351   3.818   6.838   2.722  4.7905  0.4561  1.1135
 9484SOL    HW229352   3.856   6.906   2.578 -0.4648 -0.5530 -1.0002
 9485SOL     OW29353   1.801   2.093   6.162 -0.0737 -0.4280  0.2169
 9485SOL    HW129354   1.824   2.079   6.065  2.8117 -0.1838  0.7858
 9485SOL    HW229355   1.852   2.027   6.218 -2.1332 -0.9459  1.5854
 9486SOL     OW29356   4.811   5.987   1.080 -0.4071 -0.1215  0.5136
 9486SOL    HW129357   4.782   5.896   1.111  0.0151 -0.3663  0.2163
 9486SOL    HW229358   4.813   5.989   0.980 -2.1552  0.7879  0.4710
 9487SOL     OW29359   0.735   3.507   3.987  0.2399 -0.2116 -0.5894
 9487SOL    HW129360   0.752   3.596   3.946 -2.7823  1.0179  0.5715
 9487SOL    HW229361   0.681   3.451   3.924 -3.5457  1.3168  1.0344
 9488SOL     OW29362   0.223   2.906   5.767  0.4187 -0.0685 -0.2164
 9488SOL    HW129363   0.225   2.891   5.866 -1.9470 -2.8950 -0.4644
 9488SOL    HW229364   0.254   2.999   5.747 -3.8835  2.6757  3.6641
 9489SOL     OW29365   2.867   3.620   0.136  0.2542 -0.4286 -0.2756
 9489SOL    HW129366   2.861   3.698   0.198 -0.0948 -1.1975  0.6824
 9489SOL    HW229367   2.819   3.542   0.176  0.8816 -1.2389 -1.0674
 9490SOL     OW29368   0.732   0.528   5.771 -0.7835 -0.5499 -0.7438
 9490SOL    HW129369   0.811   0.585   5.793 -1.2986  0.6159 -1.7945
 9490SOL    HW229370   0.746   0.436   5.808 -0.6893  0.6602  2.5508
 9491SOL     OW29371   0.775   4.005   6.186  0.2166 -0.4391  0.5261
 9491SOL    HW129372   0.807   3.918   6.223  0.7396 -0.8629 -0.8545
 9491SOL    HW229373   0.822   4.024   6.100 -1.4778  0.1222 -0.3164
 9492SOL     OW29374   1.969   3.473   6.120 -0.5417 -0.8120 -0.4717
 9492SOL    HW129375   2.053   3.423   6.098 -0.5990 -0.9086 -0.4716
 9492SOL    HW229376   1.913   3.482   6.038  0.7362  1.7185 -1.1966
 9493SOL     OW29377   4.807   0.317   3.388 -0.0476 -0.2295 -0.2267
 9493SOL    HW129378   4.811   0.241   3.452  0.5079 -0.1985 -0.2193
 9493SOL    HW229379   4.813   0.283   3.294 -2.1129 -0.3916 -0.3588
 9494SOL     OW29380   3.244   1.043   1.076 -0.6964  0.4459  0.1391
 9494SOL    HW129381   3.272   0.951   1.102  0.4912  0.5638 -0.6354
 9494SOL    HW229382   3.272   1.108   1.147 -0.4766  0.3485  0.1431
 9495SOL     OW29383   4.058   0.884   5.876 -0.6009  0.1242  0.1539
 9495SOL    HW129384   4.075   0.935   5.792 -3.2911  1.3746  0.2596
 9495SOL    HW229385   3.983   0.820   5.862  2.7304 -4.1774 -0.0094
 9496SOL     OW29386   6.276   3.382   3.429  0.5772 -0.3515  0.1586
 9496SOL    HW129387   6.219   3.410   3.505  1.1778  1.9491 -0.1567
 9496SOL    HW229388   6.220   3.335   3.360 -0.6841  0.7013  0.4306
 9497SOL     OW29389   4.814   4.992   4.020 -0.2634  0.5939  0.1452
 9497SOL    HW129390   4.823   5.049   4.102 -1.0321 -0.2705  0.8643
 9497SOL    HW229391   4.875   4.913   4.029 -1.1904 -0.1149  0.4577
 9498SOL     OW29392   6.899   0.285   5.276  0.2519  0.0246  0.2229
 9498SOL    HW129393   6.898   0.200   5.223 -1.6017  0.0698  0.1282
 9498SOL    HW229394   6.937   0.359   5.220 -0.2185 -0.2745 -0.5164
 9499SOL     OW29395   2.391   6.469   3.563  0.5790  0.1354 -0.1014
 9499SOL    HW129396   2.354   6.382   3.530  1.3307 -0.8312  1.4954
 9499SOL    HW229397   2.484   6.481   3.528  0.0387  0.9105 -1.3178
 9500SOL     OW29398   5.325   6.674   0.921  0.1322  0.1767  0.4918
 9500SOL    HW129399   5.399   6.648   0.858 -0.7947  1.3385 -1.1489
 9500SOL    HW229400   5.353   6.755   0.973  0.3167  0.1525  0.4320
 9501SOL     OW29401   4.761   2.525   3.048  0.1197  0.3359 -0.5059
 9501SOL    HW129402   4.687   2.462   3.069 -2.0438  2.7004 -0.4695
 9501SOL    HW229403   4.746   2.566   2.958  1.3322  0.9525 -0.4547
 9502SOL     OW29404   3.116   3.265   0.500 -0.8417  0.4960 -0.0681
 9502SOL    HW129405   3.097   3.362   0.510 -1.1571  0.5731 -1.2123
 9502SOL    HW229406   3.047   3.211   0.548 -2.5133  0.8099 -1.9973
 9503SOL     OW29407   5.249   4.173   5.460  0.0719 -0.4720 -0.3011
 9503SOL    HW129408   5.236   4.265   5.422 -2.7607 -0.9558 -0.7408
 9503SOL    HW229409   5.276   4.181   5.556 -0.8315  0.8634 -0.1236
 9504SOL     OW29410   1.552   1.664   3.404 -0.3768  0.3770 -0.3181
 9504SOL    HW129411   1.455   1.650   3.426 -0.3238  2.1737  1.3841
 9504SOL    HW229412   1.561   1.744   3.344  0.0998  0.7934  0.2978
 9505SOL     OW29413   4.607   1.505   3.710 -0.0983 -0.2388 -0.4479
 9505SOL    HW129414   4.536   1.519   3.641  0.6516  2.2009 -0.8103
 9505SOL    HW229415   4.565   1.474   3.795 -1.5617  0.6190 -0.8167
 9506SOL     OW29416   3.876   4.861   3.928 -0.5159 -0.4295  0.6790
 9506SOL    HW129417   3.959   4.806   3.928 -1.0964 -1.3358  0.5305
 9506SOL    HW229418   3.842   4.871   4.022 -0.1542  0.0898  0.7596
 9507SOL     OW29419   6.455   3.799   2.513  0.2764 -0.1090 -0.1268
 9507SOL    HW129420   6.412   3.884   2.543 -0.4149 -0.5187  0.0640
 9507SOL    HW229421   6.401   3.759   2.439  0.2989 -0.6541  0.1491
 9508SOL     OW29422   5.521   5.945   2.390 -0.0601  0.3629 -0.4410
 9508SOL    HW129423   5.601   5.939   2.331 -0.0535 -1.7000 -0.3004
 9508SOL    HW229424   5.481   5.853   2.401 -1.5440  1.1072  0.7181
 9509SOL     OW29425   3.004   2.849   1.716  0.0482 -0.4315 -0.0185
 9509SOL    HW129426   2.975   2.943   1.736  0.8027 -0.3527  0.8016
 9509SOL    HW229427   3.058   2.814   1.793  1.2741 -0.9077 -1.0521
 9510SOL     OW29428   3.259   5.850   1.475 -0.0334  0.1596 -0.2345
 9510SOL    HW129429   3.233   5.829   1.381  0.4256  1.7792 -0.7652
 9510SOL    HW229430   3.187   5.905   1.517 -0.0734 -0.2566  0.2404
 9511SOL     OW29431   6.115   5.532   6.168 -0.0252 -0.1487 -0.2626
 9511SOL    HW129432   6.133   5.454   6.227 -0.3999 -1.0647 -1.3062
 9511SOL    HW229433   6.127   5.504   6.072 -0.9317  0.8605 -0.6900
 9512SOL     OW29434   4.087   6.206   2.237 -0.8524  0.2924  0.3401
 9512SOL    HW129435   4.073   6.224   2.334  0.8373  1.2351  0.4423
 9512SOL    HW229436   4.055   6.283   2.183 -0.4068  0.4268  0.2623
 9513SOL     OW29437   2.159   4.693   5.714  0.0073  0.4573 -0.3007
 9513SOL    HW129438   2.163   4.694   5.614  0.0289 -0.0391 -0.3081
 9513SOL    HW229439   2.219   4.764   5.750  0.8839 -0.0976 -0.6215
 9514SOL     OW29440   3.737   1.253   2.783  0.0126 -0.2400 -0.7407
 9514SOL    HW129441   3.661   1.305   2.822  0.8677  0.7803 -0.3974
 9514SOL    HW229442   3.769   1.185   2.850 -0.6453 -0.7366 -0.9231
 9515SOL     OW29443   2.309   0.216   0.002 -0.2805  0.2009  0.3631
 9515SOL    HW129444   2.276   0.126  -0.029 -1.5946  1.2180 -1.4168
 9515SOL    HW229445   2.401   0.231  -0.034 -0.4680 -0.0175 -0.2249
 9516SOL     OW29446   4.135   6.328   6.437  0.0694 -0.1674  0.1279
 9516SOL    HW129447   4.117   6.233   6.414 -3.1232  0.2394  0.4616
 9516SOL    HW229448   4.122   6.342   6.536  1.8511  0.4236  0.3305
 9517SOL     OW29449   2.367   5.116   5.680 -1.0436 -0.1572  0.1851
 9517SOL    HW129450   2.270   5.100   5.659 -1.7055  0.7108  2.3434
 9517SOL    HW229451   2.420   5.111   5.595 -3.3761  2.3409 -1.6333
 9518SOL     OW29452   4.647   4.820   2.976  0.2025  0.2131  0.0853
 9518SOL    HW129453   4.679   4.775   2.892  0.6492 -0.6857  0.7140
 9518SOL    HW229454   4.650   4.754   3.051 -2.3465  0.3028  0.3650
 9519SOL     OW29455   4.357   4.330   6.012 -0.1948  0.7514 -0.0126
 9519SOL    HW129456   4.381   4.233   6.020  0.4585  0.9122  0.0358
 9519SOL    HW229457   4.262   4.339   5.983 -0.4131  0.1001  0.4860
 9520SOL     OW29458   0.307   4.274   4.003  0.2353 -0.1354  0.1732
 9520SOL    HW129459   0.384   4.282   3.940  1.1028  0.6826  1.3013
 9520SOL    HW229460   0.269   4.181   3.998  1.7489 -0.7696  0.1093
 9521SOL     OW29461   6.173   2.122   5.937  0.4532  0.9580 -0.0753
 9521SOL    HW129462   6.094   2.090   5.989  1.7723 -3.2332 -0.2605
 9521SOL    HW229463   6.223   2.189   5.991 -2.0260  2.1657  0.8898
 9522SOL     OW29464   0.044   4.453   4.346 -0.1326 -0.3409 -0.1172
 9522SOL    HW129465   0.035   4.551   4.364  1.5959  0.2373 -2.0174
 9522SOL    HW229466   0.140   4.427   4.351 -0.6930 -2.3572  2.0000
 9523SOL     OW29467   1.329   4.450   5.048  0.0356 -0.2639 -0.0997
 9523SOL    HW129468   1.406   4.464   4.986  0.5916  0.5171  0.7451
 9523SOL    HW229469   1.333   4.517   5.122 -1.8584  0.2525 -0.4206
 9524SOL     OW29470   3.403   2.929   4.448 -0.0076 -0.2378  0.6931
 9524SOL    HW129471   3.420   2.872   4.367 -2.6379 -1.2525  0.7391
 9524SOL    HW229472   3.475   2.914   4.515  2.4647  0.9157 -1.5294
 9525SOL     OW29473   0.614   5.090   0.486  0.5672 -0.2530  0.3818
 9525SOL    HW129474   0.646   5.035   0.409  0.3265  0.5107 -0.2775
 9525SOL    HW229475   0.556   5.164   0.452  1.2183  0.6622  1.1962
 9526SOL     OW29476   0.833   3.593   1.541 -0.0266  0.0155  0.0264
 9526SOL    HW129477   0.743   3.550   1.541  0.7565 -1.6923  0.1006
 9526SOL    HW229478   0.873   3.588   1.632  1.2742 -1.8346 -0.5674
 9527SOL     OW29479   2.888   5.063   1.445 -0.3237 -0.3042  0.1713
 9527SOL    HW129480   2.912   4.972   1.478 -1.4434 -0.5000  0.4816
 9527SOL    HW229481   2.798   5.061   1.402 -0.2458  0.6054 -0.0733
 9528SOL     OW29482   2.367   3.046   1.162 -0.0171 -0.3842  0.5302
 9528SOL    HW129483   2.372   3.076   1.256  0.0084 -0.5532  0.5841
 9528SOL    HW229484   2.453   3.002   1.136  0.5040  0.8999 -0.0066
 9529SOL     OW29485   6.180   4.502   0.964  0.2123  0.4207  0.2533
 9529SOL    HW129486   6.252   4.500   0.894  0.8850 -1.1695  0.9460
 9529SOL    HW229487   6.208   4.561   1.040 -0.2365  1.6239 -0.4833
 9530SOL     OW29488   4.505   2.401   5.488 -0.4384 -0.1835  0.2592
 9530SOL    HW129489   4.430   2.452   5.444  0.3547 -0.6468 -1.7550
 9530SOL    HW229490   4.479   2.377   5.581 -1.4765  2.5020  0.7478
 9531SOL     OW29491   4.615   6.688   2.887 -0.0072  0.4267  0.3178
 9531SOL    HW129492   4.590   6.763   2.949  1.3586 -1.0036  2.7630
 9531SOL    HW229493   4.683   6.629   2.932  0.2679 -1.3235 -2.1906
 9532SOL     OW29494   6.170   3.089   4.079 -0.3415 -0.3667 -0.6960
 9532SOL    HW129495   6.192   3.125   4.169  2.5465 -1.8404 -0.6998
 9532SOL    HW229496   6.214   3.145   4.009 -2.3064  0.5786 -1.2571
 9533SOL     OW29497   2.492   3.898   5.697 -0.0804  0.2296 -0.5967
 9533SOL    HW129498   2.392   3.905   5.699 -0.2086 -0.4953 -2.3571
 9533SOL    HW229499   2.518   3.802   5.705  0.3704  0.2291 -1.8682
 9534SOL     OW29500   6.263   2.648   2.735 -0.1403 -0.3051  0.0336
 9534SOL    HW129501   6.279   2.601   2.648 -1.0605 -0.0951 -0.2600
 9534SOL    HW229502   6.218   2.586   2.799 -0.6832 -0.0703 -0.1058
 9535SOL     OW29503   3.631   0.021   2.096 -0.2384 -0.5531  0.1496
 9535SOL    HW129504   3.672  -0.039   2.166 -0.5150 -0.2734  0.5508
 9535SOL    HW229505   3.597  -0.035   2.020 -2.7303 -1.1785  1.6149
 9536SOL     OW29506   1.431   2.924   5.772 -0.1979  0.0401  0.0859
 9536SOL    HW129507   1.390   2.915   5.681 -1.6383  2.5628  0.3822
 9536SOL    HW229508   1.405   2.846   5.829 -0.2600 -0.9770 -1.3065
 9537SOL     OW29509   0.699   6.489   3.945  0.8345  0.0549  0.3262
 9537SOL    HW129510   0.753   6.540   4.011  0.5337  0.4675  0.2584
 9537SOL    HW229511   0.602   6.510   3.958  0.6284 -1.2009  0.8911
 9538SOL     OW29512   3.592   5.088   4.135 -0.4271 -0.3611 -0.4270
 9538SOL    HW129513   3.603   5.126   4.044  1.9860 -0.3858 -0.2100
 9538SOL    HW229514   3.586   5.162   4.202 -0.6084 -0.3439 -0.4628
 9539SOL     OW29515   6.980   2.003   3.143 -0.0234  0.4565  0.1874
 9539SOL    HW129516   6.966   2.084   3.200 -1.8364  0.5329 -0.3186
 9539SOL    HW229517   6.983   1.921   3.201  0.0071  0.7147  0.5509
 9540SOL     OW29518   0.154   5.219   0.705  0.0666 -0.7152  0.3811
 9540SOL    HW129519   0.230   5.156   0.720  0.1303 -1.0737 -1.3177
 9540SOL    HW229520   0.071   5.182   0.747 -0.4764 -3.2118 -2.5699
 9541SOL     OW29521   1.303   3.072   4.307  0.7954 -0.0819 -0.5883
 9541SOL    HW129522   1.236   3.114   4.247 -0.7444  1.0151  1.7628
 9541SOL    HW229523   1.379   3.136   4.322  0.3106  0.3573  0.0158
 9542SOL     OW29524   0.242   4.705   1.896  0.4114  0.7703  0.9145
 9542SOL    HW129525   0.168   4.683   1.833 -0.8998 -0.9649  2.9168
 9542SOL    HW229526   0.210   4.769   1.965  1.3015  1.2982  0.8545
 9543SOL     OW29527   4.952   0.001   5.835 -0.0811  0.6469  0.3771
 9543SOL    HW129528   5.050  -0.012   5.825 -0.4763 -2.2854 -0.5615
 9543SOL    HW229529   4.931   0.099   5.835  2.4539  1.3872 -3.2278
 9544SOL     OW29530   0.862   4.609   2.836 -0.3151 -0.2571 -0.3895
 9544SOL    HW129531   0.932   4.653   2.893 -1.5316 -0.8749  1.6920
 9544SOL    HW229532   0.844   4.666   2.755  1.0108  1.0051  0.1515
 9545SOL     OW29533   5.972   1.093   5.882  0.3108 -0.0256 -0.5096
 9545SOL    HW129534   5.884   1.047   5.868 -0.4901  1.3142 -0.1340
 9545SOL    HW229535   6.012   1.116   5.794 -0.9068  1.4660 -0.7139
 9546SOL     OW29536   2.888   0.400   4.145  0.2210  0.2248  0.5035
 9546SOL    HW129537   2.910   0.375   4.240  3.3428  0.7834  0.0445
 9546SOL    HW229538   2.896   0.499   4.134 -1.4640  0.3227 -0.0812
 9547SOL     OW29539   5.341   5.684   2.306  0.5167 -0.2145 -0.0333
 9547SOL    HW129540   5.261   5.657   2.360 -0.7517  0.0088 -1.7266
 9547SOL    HW229541   5.408   5.610   2.307  0.0977 -0.6050  1.0051
 9548SOL     OW29542   1.824   4.222   1.021 -0.2894  0.2320 -0.3271
 9548SOL    HW129543   1.793   4.225   1.116 -2.3966  1.1525 -0.9843
 9548SOL    HW229544   1.920   4.249   1.017 -0.7911  2.6515  1.3200
 9549SOL     OW29545   6.061   2.414   2.151 -0.2907  0.2040  0.0682
 9549SOL    HW129546   6.029   2.410   2.057 -0.2787 -1.8481  0.0953
 9549SOL    HW229547   5.986   2.388   2.213 -0.4611  2.0548  0.7110
 9550SOL     OW29548   1.568   2.205   3.027 -0.1871 -1.0978 -0.2728
 9550SOL    HW129549   1.477   2.166   3.017 -0.7561 -0.6757  2.4975
 9550SOL    HW229550   1.604   2.184   3.118  0.6975  2.2024  0.2863
 9551SOL     OW29551   6.426   5.633   3.264  0.5673  0.3946  0.1632
 9551SOL    HW129552   6.343   5.603   3.219  1.3426 -1.3145 -0.2144
 9551SOL    HW229553   6.481   5.688   3.201  0.6438 -0.1585 -0.2556
 9552SOL     OW29554   4.921   2.427   2.806 -0.2115 -0.1222 -0.1998
 9552SOL    HW129555   4.880   2.400   2.893 -0.2353  0.0650 -0.1544
 9552SOL    HW229556   4.849   2.452   2.741 -0.3581 -2.2325 -0.9544
 9553SOL     OW29557   6.390   6.388   1.607  0.3706 -0.1873  0.3458
 9553SOL    HW129558   6.297   6.372   1.576  0.4265 -0.7100  0.4367
 9553SOL    HW229559   6.454   6.346   1.542  0.5988  1.1712 -0.3585
 9554SOL     OW29560   4.820   3.336   6.316 -0.2002  0.3905 -0.1172
 9554SOL    HW129561   4.859   3.290   6.235  1.1997  3.3092 -1.2597
 9554SOL    HW229562   4.876   3.314   6.396  1.4842  1.3391 -0.9715
 9555SOL     OW29563   6.787   3.055   2.511 -0.1810 -0.3213  0.0521
 9555SOL    HW129564   6.870   3.006   2.538 -0.2525 -0.4224  0.0901
 9555SOL    HW229565   6.708   2.993   2.517 -0.3778 -0.0122  0.7814
 9556SOL     OW29566   4.893   4.212   5.149 -0.0370 -0.6247 -0.2791
 9556SOL    HW129567   4.806   4.215   5.197  0.1491 -1.5325  0.1373
 9556SOL    HW229568   4.900   4.126   5.098  0.1039 -0.0225 -1.3016
 9557SOL     OW29569   2.826   0.540   6.376  0.1852 -0.4288  0.1667
 9557SOL    HW129570   2.891   0.587   6.434 -1.2583  1.1619  0.5772
 9557SOL    HW229571   2.823   0.443   6.401  1.2474 -0.2198  1.1626
 9558SOL     OW29572   6.121   4.699   6.663 -0.1604 -0.8620  0.4914
 9558SOL    HW129573   6.184   4.701   6.740  0.8592 -0.5724 -0.3272
 9558SOL    HW229574   6.035   4.742   6.688  0.7833  0.8272  0.9274
 9559SOL     OW29575   6.412   2.493   0.183 -0.1750  0.1074  0.6877
 9559SOL    HW129576   6.351   2.467   0.108  0.0420  1.6703 -0.0777
 9559SOL    HW229577   6.438   2.411   0.235 -4.1858 -0.4538  2.0955
 9560SOL     OW29578   2.662   4.728   3.188 -0.0726  0.5717  0.0714
 9560SOL    HW129579   2.616   4.793   3.248  2.3932  1.7793  0.8007
 9560SOL    HW229580   2.620   4.638   3.197 -2.1004  1.5364  0.7973
 9561SOL     OW29581   3.540   4.437   1.646 -0.0878 -0.4909  0.4931
 9561SOL    HW129582   3.632   4.413   1.615  0.0863  1.5384 -0.7590
 9561SOL    HW229583   3.547   4.504   1.721 -0.4885  1.0675 -0.8113
 9562SOL     OW29584   2.284   6.373   0.127 -0.0387 -0.1112 -0.3500
 9562SOL    HW129585   2.259   6.333   0.040 -1.3675  2.1928 -1.1119
 9562SOL    HW229586   2.202   6.386   0.183  0.5268  0.2915  0.4070
 9563SOL     OW29587   2.452   6.542   4.318  0.2702 -0.2742  0.7795
 9563SOL    HW129588   2.440   6.458   4.265 -0.8354 -0.0018  0.5900
 9563SOL    HW229589   2.492   6.613   4.259 -0.9932  0.0390  0.2795
 9564SOL     OW29590   5.823   5.411   3.806 -0.5454  0.0313 -0.7135
 9564SOL    HW129591   5.866   5.497   3.834 -1.4326  0.1134  0.4742
 9564SOL    HW229592   5.726   5.414   3.826 -1.0742 -0.3331 -2.9152
 9565SOL     OW29593   0.076   4.876   5.159  0.1679  0.0239  0.2774
 9565SOL    HW129594   0.162   4.902   5.116 -0.7282  0.5393 -1.2936
 9565SOL    HW229595   0.055   4.780   5.138 -0.0129  0.1230  0.0008
 9566SOL     OW29596   0.872   1.186   6.273  0.5017 -0.3691 -0.1277
 9566SOL    HW129597   0.903   1.135   6.193  0.9931  0.2213 -0.3204
 9566SOL    HW229598   0.899   1.138   6.356 -0.0075 -0.9832 -0.3078
 9567SOL     OW29599   2.627   3.333   6.172 -0.0627  0.6423 -0.6373
 9567SOL    HW129600   2.548   3.358   6.229  0.7946 -0.8673  1.3468
 9567SOL    HW229601   2.693   3.282   6.227  0.8936 -0.8375 -2.9828
 9568SOL     OW29602   0.281   4.225   1.503  0.1731 -0.4497  0.3495
 9568SOL    HW129603   0.237   4.249   1.590 -0.3120  1.8162 -0.4662
 9568SOL    HW229604   0.251   4.288   1.432 -0.5874 -3.0954 -1.8583
 9569SOL     OW29605   1.116   4.504   5.320  0.1569 -0.3855  0.3332
 9569SOL    HW129606   1.147   4.576   5.382 -0.8841 -0.5497  1.0807
 9569SOL    HW229607   1.102   4.543   5.228 -2.2257  0.8883  1.1358
 9570SOL     OW29608   0.616   2.141   3.239 -0.1139 -0.0876 -0.9738
 9570SOL    HW129609   0.595   2.053   3.282 -0.7131  1.2285  1.6035
 9570SOL    HW229610   0.664   2.125   3.153 -0.8440 -2.9277 -0.9591
 9571SOL     OW29611   6.087   0.041   6.915  0.1868 -0.2732  0.2181
 9571SOL    HW129612   6.026  -0.037   6.902  0.7506 -0.4414 -1.8969
 9571SOL    HW229613   6.167   0.013   6.968  0.0954 -0.9697 -0.0003
 9572SOL     OW29614   4.698   4.946   3.206  0.2500 -0.2656 -0.4056
 9572SOL    HW129615   4.672   4.892   3.126  0.5252  0.3375 -0.9109
 9572SOL    HW229616   4.796   4.938   3.222 -0.0188 -1.6369  0.8279
 9573SOL     OW29617   5.207   4.608   5.976 -0.3532 -0.2416  0.4381
 9573SOL    HW129618   5.187   4.544   5.902 -0.1510 -2.0578  1.8833
 9573SOL    HW229619   5.124   4.656   6.003 -0.5968 -0.1947 -0.3758
 9574SOL     OW29620   5.316   5.602   0.743  0.5092  0.1347 -0.1980
 9574SOL    HW129621   5.307   5.572   0.649 -1.7129 -0.4955  0.1639
 9574SOL    HW229622   5.329   5.523   0.803 -1.5602  0.1510  0.3530
 9575SOL     OW29623   1.915   6.976   3.136 -0.1550 -0.2721  0.0584
 9575SOL    HW129624   1.972   7.027   3.072 -0.1872 -0.9353 -0.5214
 9575SOL    HW229625   1.970   6.948   3.215  0.0936 -0.1194 -0.0598
 9576SOL     OW29626   0.204   6.539   6.469 -0.1786  0.5152  0.3224
 9576SOL    HW129627   0.161   6.629   6.478  0.6034  0.9519 -0.2091
 9576SOL    HW229628   0.214   6.497   6.559 -0.2820  1.0803  0.5999
 9577SOL     OW29629   5.985   3.762   1.576 -0.1413 -0.2767 -0.1365
 9577SOL    HW129630   5.940   3.782   1.663 -0.2074  1.8300 -0.5974
 9577SOL    HW229631   5.917   3.764   1.502  0.4219  1.5266 -0.6575
 9578SOL     OW29632   0.449   2.170   6.912  0.2144  0.0561 -0.7691
 9578SOL    HW129633   0.357   2.203   6.933 -0.0758  0.1805 -2.1136
 9578SOL    HW229634   0.511   2.192   6.987 -0.8159  0.1238  0.0795
 9579SOL     OW29635   3.993   3.851   5.211 -0.0723  0.2861  0.0243
 9579SOL    HW129636   4.045   3.793   5.149  1.4989  0.5722  1.0118
 9579SOL    HW229637   3.988   3.809   5.301 -2.8817 -0.4326 -0.3594
 9580SOL     OW29638   1.891   4.792   3.502 -0.6370  0.0328 -0.1066
 9580SOL    HW129639   1.902   4.694   3.518  0.3321  0.2378  0.5416
 9580SOL    HW229640   1.824   4.829   3.566 -0.2111 -0.0126  0.3673
 9581SOL     OW29641   3.891   5.406   6.236 -0.2314  0.0190 -0.0367
 9581SOL    HW129642   3.875   5.412   6.334  0.1047  0.6219 -0.0138
 9581SOL    HW229643   3.835   5.474   6.189  0.7660  0.7994 -0.1239
 9582SOL     OW29644   2.979   6.565   2.381 -0.9905  0.2294  0.0115
 9582SOL    HW129645   3.014   6.646   2.429 -1.7330 -0.9184  2.6421
 9582SOL    HW229646   3.009   6.482   2.428  0.6028 -1.1988 -3.1810
 9583SOL     OW29647   4.759   0.463   3.797  0.1628 -0.1466 -0.4649
 9583SOL    HW129648   4.852   0.427   3.794  0.2327  0.0933 -1.5317
 9583SOL    HW229649   4.712   0.442   3.711 -0.9113 -0.6208  0.2199
 9584SOL     OW29650   1.718   2.529   0.773 -0.0927 -0.1287 -0.1005
 9584SOL    HW129651   1.717   2.439   0.729 -0.5019 -0.8339  1.2747
 9584SOL    HW229652   1.805   2.541   0.822  0.0226  0.2913 -0.4074
 9585SOL     OW29653   1.223   4.340   2.699  0.3260  0.4467 -0.5093
 9585SOL    HW129654   1.184   4.407   2.635 -0.0607  0.1801 -0.5550
 9585SOL    HW229655   1.219   4.249   2.659 -1.2383  0.0563  0.4485
 9586SOL     OW29656   0.249   1.451   6.138  0.0002  0.4356 -0.1956
 9586SOL    HW129657   0.342   1.488   6.144  0.3070  0.0117 -1.8590
 9586SOL    HW229658   0.208   1.478   6.051 -1.6956  1.1254  0.7671
 9587SOL     OW29659   4.301   3.619   0.837  0.4560 -0.3236  0.4941
 9587SOL    HW129660   4.287   3.686   0.910  2.0840  1.2527 -0.5678
 9587SOL    HW229661   4.245   3.643   0.758  0.0044 -1.0449  0.5768
 9588SOL     OW29662   6.360   5.938   1.542 -0.0981 -0.2690 -0.4188
 9588SOL    HW129663   6.284   5.957   1.480 -0.3347 -1.9438 -0.6833
 9588SOL    HW229664   6.324   5.899   1.627  0.3984 -0.3192 -0.2285
 9589SOL     OW29665   0.578   6.955   1.838  0.0006 -0.1656 -0.6635
 9589SOL    HW129666   0.560   7.050   1.813  1.6368  0.3851  0.1108
 9589SOL    HW229667   0.558   6.942   1.935 -2.1571 -1.1732 -1.1839
 9590SOL     OW29668   3.232   2.907   0.725 -0.1663  0.3686 -0.2000
 9590SOL    HW129669   3.182   2.984   0.686  2.1336  2.4302  0.6839
 9590SOL    HW229670   3.329   2.914   0.700  0.5934 -0.7090  2.1618
 9591SOL     OW29671   2.217   2.459   0.303 -0.1687 -0.1203 -0.2850
 9591SOL    HW129672   2.171   2.474   0.390 -1.8374 -0.6610 -1.0074
 9591SOL    HW229673   2.305   2.506   0.302 -2.1505  4.0428 -0.0392
 9592SOL     OW29674   4.722   7.011   1.021  0.4152 -0.0840 -0.0305
 9592SOL    HW129675   4.646   7.031   1.082 -0.2162 -0.3041 -0.7404
 9592SOL    HW229676   4.808   7.041   1.064 -0.3020  2.5597 -0.2816
 9593SOL     OW29677   5.015   6.668   3.925 -0.1986  0.0488 -0.1569
 9593SOL    HW129678   4.978   6.719   3.847 -0.6975  0.2775  0.2225
 9593SOL    HW229679   5.005   6.723   4.008  1.0181  0.1149 -0.0439
 9594SOL     OW29680   5.368   7.008   1.964 -0.0409  0.2126  0.1919
 9594SOL    HW129681   5.413   7.089   2.002  0.4092 -0.5829  1.4182
 9594SOL    HW229682   5.292   6.981   2.023 -1.0511  0.5093 -0.9286
 9595SOL     OW29683   5.971   4.386   3.782 -0.1878  0.0446  0.5506
 9595SOL    HW129684   6.056   4.356   3.826 -2.3276 -2.8741  3.1494
 9595SOL    HW229685   5.976   4.369   3.683  2.0761 -0.3196  0.6843
 9596SOL     OW29686   5.568   3.466   5.636  0.8942 -0.1355 -0.1544
 9596SOL    HW129687   5.582   3.459   5.538  0.4836 -1.6695 -0.1212
 9596SOL    HW229688   5.488   3.523   5.655  1.9184  1.5214 -0.6252
 9597SOL     OW29689   1.158   5.060   0.784 -0.0165  0.6004 -0.4706
 9597SOL    HW129690   1.216   5.132   0.821 -0.0297  0.1202  0.5203
 9597SOL    HW229691   1.207   4.973   0.789 -0.6042  0.2827 -0.1463
 9598SOL     OW29692   4.041   0.853   6.153 -0.5132  0.1943 -0.3076
 9598SOL    HW129693   4.029   0.866   6.054 -1.4777 -0.8040 -0.3365
 9598SOL    HW229694   4.030   0.941   6.199 -3.4036  0.2054 -0.8068
 9599SOL     OW29695   6.814   1.682   3.594 -0.3543  0.0066 -0.0782
 9599SOL    HW129696   6.731   1.730   3.567  0.4375  0.9571 -0.9272
 9599SOL    HW229697   6.816   1.592   3.550 -0.6483  0.2270 -0.5484
 9600SOL     OW29698   1.395   6.158   2.395  0.3200 -0.4892  0.3391
 9600SOL    HW129699   1.467   6.105   2.350  0.9266  0.9395 -0.4390
 9600SOL    HW229700   1.312   6.154   2.339  0.1261 -1.2238  0.6697
 9601SOL     OW29701   1.917   2.620   6.922 -0.6710  0.5034  0.1232
 9601SOL    HW129702   1.930   2.546   6.988 -0.4158  1.0927  0.7358
 9601SOL    HW229703   1.902   2.580   6.831 -1.1920 -0.3138  0.5533
 9602SOL     OW29704   1.229   3.798   1.537 -0.6668  0.5524 -0.1494
 9602SOL    HW129705   1.279   3.830   1.618 -0.4408 -1.1222  0.4224
 9602SOL    HW229706   1.294   3.770   1.467 -0.8530  0.9013 -0.4633
 9603SOL     OW29707   2.595   6.557   5.238 -0.1760 -0.0083  0.0108
 9603SOL    HW129708   2.597   6.628   5.167 -0.0392  1.1606  1.1537
 9603SOL    HW229709   2.688   6.524   5.254 -0.2470 -0.5106 -0.5641
 9604SOL     OW29710   4.156   5.024   1.596  0.1321  0.5025 -0.2756
 9604SOL    HW129711   4.081   5.003   1.534  0.2874  1.0665 -0.6695
 9604SOL    HW229712   4.123   5.084   1.669  0.2513  0.9611 -0.5941
 9605SOL     OW29713   4.214   0.308   2.220 -0.0825 -0.2225 -0.1924
 9605SOL    HW129714   4.169   0.340   2.303  1.5131  0.6941  0.3604
 9605SOL    HW229715   4.150   0.313   2.143 -0.2732  3.6149  0.0007
 9606SOL     OW29716   5.582   5.231   1.788  0.1058 -0.2665 -0.0804
 9606SOL    HW129717   5.575   5.325   1.755  0.7277 -0.2746 -0.2511
 9606SOL    HW229718   5.580   5.231   1.888 -0.8774 -0.1641 -0.0898
 9607SOL     OW29719   4.897   6.995   6.125 -0.1819  0.6082 -0.8743
 9607SOL    HW129720   4.885   7.060   6.050  1.0243  1.8001 -0.0784
 9607SOL    HW229721   4.995   6.978   6.140 -0.4476 -0.8399 -0.5789
 9608SOL     OW29722   4.193   5.125   2.673  0.1587 -0.1046 -0.3111
 9608SOL    HW129723   4.266   5.107   2.607 -0.5244  0.4660 -1.2450
 9608SOL    HW229724   4.115   5.166   2.626 -0.5591 -0.1969  0.7665
 9609SOL     OW29725   1.445   1.976   1.609 -0.3936 -0.5206  0.0220
 9609SOL    HW129726   1.505   1.991   1.531 -1.6416  2.4541 -0.5330
 9609SOL    HW229727   1.469   2.040   1.682 -2.0288 -0.1130  0.2515
 9610SOL     OW29728   3.866   5.863   1.687  0.0929 -0.3098  0.1014
 9610SOL    HW129729   3.815   5.875   1.601  2.8648  2.5915 -1.3082
 9610SOL    HW229730   3.953   5.818   1.668  0.8349  0.5486  1.3667
 9611SOL     OW29731   3.919   3.705   1.397  0.4757 -0.5686 -0.2783
 9611SOL    HW129732   3.849   3.659   1.452 -2.5242 -1.9134 -4.6255
 9611SOL    HW229733   3.929   3.800   1.428 -1.2986 -1.0922  2.2082
 9612SOL     OW29734   0.490   5.873   1.934 -0.8094 -0.7176 -0.3220
 9612SOL    HW129735   0.459   5.949   1.877 -0.3500 -0.2603  0.0247
 9612SOL    HW229736   0.563   5.823   1.886 -0.4162 -0.3269 -0.1335
 9613SOL     OW29737   4.848   5.305   5.800 -0.0900 -0.3389  0.6010
 9613SOL    HW129738   4.785   5.380   5.820 -0.5138 -0.6231  0.3455
 9613SOL    HW229739   4.824   5.226   5.857 -0.5616 -0.7582 -0.1676
 9614SOL     OW29740   4.458   6.025   4.487  0.1346  0.3441 -0.4367
 9614SOL    HW129741   4.547   6.062   4.465 -0.3916 -0.3690 -4.5155
 9614SOL    HW229742   4.459   5.926   4.475 -0.3276 -0.2607  3.3022
 9615SOL     OW29743   0.347   1.134   6.904 -0.0744 -1.1272  0.0349
 9615SOL    HW129744   0.374   1.210   6.963  0.2864 -0.1584 -1.3348
 9615SOL    HW229745   0.428   1.089   6.867 -0.2971 -1.1442 -0.4455
 9616SOL     OW29746   1.109   1.596   6.319  0.3344 -0.2270  0.6856
 9616SOL    HW129747   1.156   1.537   6.253 -0.7846  0.0315 -0.3575
 9616SOL    HW229748   1.064   1.671   6.272 -0.6165 -0.1132  1.7316
 9617SOL     OW29749   2.112   1.635   1.931  0.0735 -0.3112 -0.2586
 9617SOL    HW129750   2.138   1.578   2.009  0.1131 -0.0118 -0.0521
 9617SOL    HW229751   2.020   1.672   1.946 -0.8345 -1.9685 -1.3183
 9618SOL     OW29752   5.804   0.518   5.372  0.2261 -0.2646  0.1290
 9618SOL    HW129753   5.762   0.477   5.291  3.3157 -1.0942 -1.1673
 9618SOL    HW229754   5.808   0.451   5.445 -0.7751 -0.1233  0.3335
 9619SOL     OW29755   6.578   1.318   4.906 -0.3839  0.1867  0.9143
 9619SOL    HW129756   6.676   1.338   4.914 -0.6586  1.1222  2.2057
 9619SOL    HW229757   6.535   1.389   4.851 -0.3122 -0.3519  0.1495
 9620SOL     OW29758   3.720   1.171   1.360 -0.0577  0.3094 -0.2578
 9620SOL    HW129759   3.681   1.084   1.391  1.6370 -0.7909 -1.0426
 9620SOL    HW229760   3.790   1.152   1.291  1.2189  2.2394  0.4468
 9621SOL     OW29761   2.148   0.154   2.544 -0.0726  0.6350 -0.9253
 9621SOL    HW129762   2.054   0.123   2.552 -0.0635  0.8996  0.5092
 9621SOL    HW229763   2.167   0.222   2.615  1.5003 -0.2200 -0.4810
 9622SOL     OW29764   3.511   3.666   3.602 -0.0267 -0.0415 -0.1338
 9622SOL    HW129765   3.540   3.614   3.682 -1.6435 -0.4916  0.2003
 9622SOL    HW229766   3.496   3.604   3.525  0.1468  0.2035 -0.3647
 9623SOL     OW29767   0.473   1.982   2.165 -0.2616  0.1274  0.7655
 9623SOL    HW129768   0.548   1.946   2.109  0.5420  2.3722  0.3130
 9623SOL    HW229769   0.468   1.930   2.250  0.9688 -0.8924  0.2582
 9624SOL     OW29770   4.990   1.598   4.238 -0.4043  0.0981 -0.2284
 9624SOL    HW129771   5.066   1.565   4.183 -0.1545  1.5228 -0.7809
 9624SOL    HW229772   4.926   1.649   4.180 -0.9075  0.3573  0.5325
 9625SOL     OW29773   0.519   2.512   4.913 -0.6060 -0.1198  0.1052
 9625SOL    HW129774   0.436   2.496   4.859 -0.8022 -1.6153  0.7983
 9625SOL    HW229775   0.494   2.531   5.008 -0.1632 -0.5501  0.3119
 9626SOL     OW29776   6.381   2.462   6.723 -0.1512 -0.7291  0.3067
 9626SOL    HW129777   6.287   2.482   6.697  0.4784  2.0994 -0.0904
 9626SOL    HW229778   6.411   2.526   6.793  1.2918 -2.0290  0.9419
 9627SOL     OW29779   5.456   1.109   0.966  0.1319 -0.4009 -0.3612
 9627SOL    HW129780   5.455   1.036   1.034 -0.8994 -0.0182  0.0581
 9627SOL    HW229781   5.469   1.197   1.012 -1.7750 -0.0053 -0.4769
 9628SOL     OW29782   6.220   4.893   5.270  0.0794 -0.0877  0.3797
 9628SOL    HW129783   6.204   4.992   5.271  0.7381  0.0228  1.2030
 9628SOL    HW229784   6.134   4.845   5.290  0.3272  0.4419  3.0764
 9629SOL     OW29785   6.125   0.604   4.383  0.4338 -0.2678 -0.2037
 9629SOL    HW129786   6.041   0.567   4.423  0.2146 -0.2512 -0.6497
 9629SOL    HW229787   6.192   0.617   4.456 -0.4646  1.1635  0.4197
 9630SOL     OW29788   5.936   2.577   4.749 -0.4427 -0.2615 -0.3045
 9630SOL    HW129789   5.964   2.511   4.819 -1.5385  0.0142  0.4154
 9630SOL    HW229790   5.866   2.638   4.786 -2.6305 -1.4404 -2.2156
 9631SOL     OW29791   1.130   2.648   2.949  0.0095  0.4761 -0.4324
 9631SOL    HW129792   1.120   2.637   3.048  2.3057  0.6373 -0.1212
 9631SOL    HW229793   1.097   2.565   2.903  1.0462 -0.6093  0.6737
 9632SOL     OW29794   4.085   1.104   2.577  0.7386  0.1202 -0.0936
 9632SOL    HW129795   4.117   1.097   2.672 -1.4361  1.5755  0.8350
 9632SOL    HW229796   4.005   1.045   2.565  1.4117 -0.5809 -1.2583
 9633SOL     OW29797   4.639   6.840   0.450 -0.1332  0.6161 -0.2321
 9633SOL    HW129798   4.543   6.827   0.427 -0.4434 -0.8306  1.6441
 9633SOL    HW229799   4.652   6.931   0.490 -0.7218  0.8004 -0.4604
 9634SOL     OW29800   1.597   6.588   0.980  0.1308  0.0193  0.0033
 9634SOL    HW129801   1.603   6.495   0.944  0.7333  0.4429 -1.0296
 9634SOL    HW229802   1.599   6.585   1.080 -1.9164 -1.2066  0.0609
 9635SOL     OW29803   2.671   1.474   4.191 -0.1753  1.0627 -0.3520
 9635SOL    HW129804   2.624   1.487   4.278  2.2582 -2.5491  1.7232
 9635SOL    HW229805   2.770   1.481   4.205  0.2853  0.4440 -2.8551
 9636SOL     OW29806   3.414   1.492   6.529  0.4196  0.2280  0.3224
 9636SOL    HW129807   3.364   1.494   6.616  0.8774  0.2257  0.5907
 9636SOL    HW229808   3.496   1.549   6.537 -0.4524  1.6967 -0.6932
 9637SOL     OW29809   0.780   3.730   6.764 -0.1217 -0.3087 -0.0557
 9637SOL    HW129810   0.762   3.771   6.675 -1.7966  0.0109  0.3842
 9637SOL    HW229811   0.809   3.801   6.828 -1.2034 -0.0986  0.2273
 9638SOL     OW29812   5.377   2.159   2.383  0.2630 -0.6917 -0.2578
 9638SOL    HW129813   5.459   2.116   2.422 -0.2505 -1.1531  0.3344
 9638SOL    HW229814   5.387   2.259   2.386  0.1541 -0.7018  1.2876
 9639SOL     OW29815   6.858   4.316   2.805 -0.2036  0.0858  0.3511
 9639SOL    HW129816   6.787   4.330   2.874  0.0233  0.5305  0.4978
 9639SOL    HW229817   6.930   4.258   2.842  0.0190  0.4949  0.5567
 9640SOL     OW29818   0.193   0.646   0.464  0.1240  0.3009 -0.1996
 9640SOL    HW129819   0.231   0.675   0.552 -0.7534  0.8504  0.0159
 9640SOL    HW229820   0.266   0.613   0.405  0.6080 -1.1942  1.1498
 9641SOL     OW29821   3.952   5.787   0.086 -0.1226 -0.0981  0.1887
 9641SOL    HW129822   3.921   5.827  -0.001  0.3184  0.2066  0.1688
 9641SOL    HW229823   3.895   5.821   0.160 -0.2017  0.0127  0.0788
 9642SOL     OW29824   6.286   4.011   5.249  0.1236 -0.3066 -0.5965
 9642SOL    HW129825   6.316   3.950   5.175  0.1731 -1.2517  0.1901
 9642SOL    HW229826   6.186   4.017   5.248  0.0341 -1.4076  0.0852
 9643SOL     OW29827   1.292   4.164   5.730 -0.6020 -0.5456  0.2857
 9643SOL    HW129828   1.252   4.130   5.645  4.1112 -3.6910 -1.0776
 9643SOL    HW229829   1.330   4.255   5.715 -1.5938 -0.2214 -0.3105
 9644SOL     OW29830   6.186   1.921   1.770  0.1044 -0.2024 -0.7369
 9644SOL    HW129831   6.123   1.996   1.753  1.3893  0.5365 -2.6127
 9644SOL    HW229832   6.193   1.864   1.687  1.3382 -0.6791 -0.3309
 9645SOL     OW29833   6.703   5.331   4.226 -0.2216  0.4999  0.0124
 9645SOL    HW129834   6.775   5.387   4.185 -0.5134  0.5109 -0.4913
 9645SOL    HW229835   6.681   5.255   4.166  0.1812 -0.1718  0.7080
 9646SOL     OW29836   4.946   1.110   3.669 -0.3729 -0.5442  0.3918
 9646SOL    HW129837   5.017   1.132   3.737  2.0235 -1.5102 -1.6647
 9646SOL    HW229838   4.945   1.012   3.652  1.3366 -0.1111 -3.1195
 9647SOL     OW29839   3.021   6.413   5.614 -0.2691  0.1577  0.1830
 9647SOL    HW129840   2.987   6.500   5.580 -0.6558  0.5888  1.5799
 9647SOL    HW229841   2.946   6.362   5.657 -0.0559 -0.8829 -0.6356
 9648SOL     OW29842   3.913   0.776   3.600  0.1475  0.1625 -0.2921
 9648SOL    HW129843   3.837   0.818   3.649 -0.4196 -1.0657 -0.0849
 9648SOL    HW229844   3.903   0.793   3.502 -1.3337 -1.3898 -0.4509
 9649SOL     OW29845   5.666   6.165   1.877  0.2776 -0.3136  0.7252
 9649SOL    HW129846   5.587   6.213   1.916 -0.3235 -1.1184  0.5265
 9649SOL    HW229847   5.635   6.103   1.805  0.8372 -2.0416  1.9096
 9650SOL     OW29848   5.784   1.301   3.034  0.1072 -0.1742 -0.4200
 9650SOL    HW129849   5.878   1.316   3.066 -0.2289 -1.2352  1.2168
 9650SOL    HW229850   5.737   1.239   3.097 -2.4627  2.1953  0.1895
 9651SOL     OW29851   1.496   4.221   2.285  0.5796  0.0693  0.3795
 9651SOL    HW129852   1.563   4.281   2.328  0.3147  0.1856  0.6317
 9651SOL    HW229853   1.499   4.131   2.329  1.8702 -0.5251 -0.8289
 9652SOL     OW29854   4.267   5.630   2.992 -0.0222 -0.0325 -0.0080
 9652SOL    HW129855   4.273   5.536   2.956 -0.8642 -0.5192  1.0807
 9652SOL    HW229856   4.200   5.633   3.065  1.1826  1.0670  1.0932
 9653SOL     OW29857   2.694   1.011   3.758  0.1597  0.0441  0.2932
 9653SOL    HW129858   2.662   1.105   3.759  1.7367  0.6129  0.1399
 9653SOL    HW229859   2.668   0.966   3.844  0.0258  0.8507  0.6813
 9654SOL     OW29860   1.454   1.631   6.811  0.0792 -0.3710 -0.0154
 9654SOL    HW129861   1.464   1.538   6.846  0.7593 -0.2422  0.1508
 9654SOL    HW229862   1.419   1.690   6.884 -1.6269 -0.7403 -0.4821
 9655SOL     OW29863   0.512   0.492   6.924  0.0204  0.4395 -0.6174
 9655SOL    HW129864   0.483   0.449   7.009 -1.0699 -2.1218 -2.1870
 9655SOL    HW229865   0.568   0.428   6.871 -2.6658  0.3267 -3.6152
 9656SOL     OW29866   1.345   1.774   6.550  0.0184 -0.5864 -0.0444
 9656SOL    HW129867   1.294   1.695   6.517 -1.0053  0.7185 -1.7586
 9656SOL    HW229868   1.443   1.754   6.548 -0.1611 -1.4844 -1.4538
 9657SOL     OW29869   5.205   4.036   6.334  0.0538  0.0887  0.0563
 9657SOL    HW129870   5.281   3.986   6.376  0.3943 -0.4506 -1.1720
 9657SOL    HW229871   5.119   3.987   6.349 -0.0279  0.5470  1.1869
 9658SOL     OW29872   4.934   1.808   2.095 -0.0301  0.1322 -0.0709
 9658SOL    HW129873   5.034   1.810   2.086 -0.1291  0.4983 -1.2138
 9658SOL    HW229874   4.905   1.721   2.134  0.8513  0.6801  1.9263
 9659SOL     OW29875   5.181   5.749   0.287 -0.2879 -0.4432 -0.4857
 9659SOL    HW129876   5.175   5.699   0.201 -2.3647  0.4011 -0.8861
 9659SOL    HW229877   5.090   5.758   0.328  0.6603 -0.9307  1.8969
 9660SOL     OW29878   4.204   2.314   4.423 -0.6657  0.1966 -0.1254
 9660SOL    HW129879   4.182   2.330   4.327  0.2571  0.8979 -0.2248
 9660SOL    HW229880   4.298   2.342   4.441 -0.1684 -1.7494  0.5337
 9661SOL     OW29881   0.249   4.025   3.663  0.6535 -0.5497 -0.9861
 9661SOL    HW129882   0.205   3.953   3.610 -0.2585 -0.8634  0.1609
 9661SOL    HW229883   0.262   4.106   3.606 -2.5310  0.0011 -1.0807
 9662SOL     OW29884   3.769   3.640   5.124 -0.3116 -0.3750  0.5901
 9662SOL    HW129885   3.833   3.717   5.115  0.5968 -1.2595 -0.8825
 9662SOL    HW229886   3.811   3.569   5.181  0.0775 -0.9850 -0.4306
 9663SOL     OW29887   3.395   6.561   5.880 -0.1173 -0.1872 -0.2752
 9663SOL    HW129888   3.404   6.630   5.951 -1.2759 -0.5664  0.2619
 9663SOL    HW229889   3.417   6.471   5.917  0.1625 -0.2734 -0.6401
 9664SOL     OW29890   1.468   2.828   6.968 -0.2608 -0.0353 -0.5096
 9664SOL    HW129891   1.473   2.847   6.870 -1.2948  0.1102 -0.5495
 9664SOL    HW229892   1.511   2.740   6.988 -1.1146 -0.6422 -1.2827
 9665SOL     OW29893   1.070   1.669   1.513  0.1505 -0.1835 -0.0969
 9665SOL    HW129894   1.159   1.627   1.495 -0.1622 -0.7983 -0.2386
 9665SOL    HW229895   0.998   1.616   1.468 -0.3313  0.0637  0.3612
 9666SOL     OW29896   2.163   6.335   1.363  0.2185 -0.7375 -0.1698
 9666SOL    HW129897   2.231   6.269   1.330 -0.2352 -1.7131  0.8089
 9666SOL    HW229898   2.147   6.321   1.460 -0.0865  0.6594  0.0043
 9667SOL     OW29899   3.530   3.800   3.322  0.3894 -0.0855  0.2503
 9667SOL    HW129900   3.612   3.856   3.337  1.5541 -1.6246 -0.1858
 9667SOL    HW229901   3.497   3.766   3.410 -0.0334  0.8384  0.4665
 9668SOL     OW29902   2.391   3.663   1.726  0.2196  0.0305 -0.1032
 9668SOL    HW129903   2.350   3.595   1.787  0.1339  0.1786  0.0058
 9668SOL    HW229904   2.405   3.622   1.636 -0.4547  0.0667 -0.2276
 9669SOL     OW29905   4.378   3.779   6.550  0.3851 -0.1730  0.3035
 9669SOL    HW129906   4.362   3.700   6.610 -2.3348 -0.6252 -0.8590
 9669SOL    HW229907   4.348   3.862   6.597  1.1488 -0.1035  0.6861
 9670SOL     OW29908   1.630   3.548   6.188  0.3401 -0.3532 -0.1388
 9670SOL    HW129909   1.564   3.612   6.148 -0.2197  0.3398  1.7333
 9670SOL    HW229910   1.714   3.598   6.212  0.2450 -0.4985  0.5201
 9671SOL     OW29911   4.755   2.496   5.304 -0.7421 -0.3723  0.2211
 9671SOL    HW129912   4.823   2.449   5.360  0.9928 -0.0315 -1.5147
 9671SOL    HW229913   4.678   2.525   5.363  1.3828  0.7962  2.6275
 9672SOL     OW29914   2.802   3.072   6.240  0.1843 -0.0120 -0.7923
 9672SOL    HW129915   2.809   3.110   6.147  0.7835  0.7904 -0.4311
 9672SOL    HW229916   2.742   2.993   6.239 -0.8994  0.7908 -1.6277
 9673SOL     OW29917   5.587   4.919   2.926  0.0803  0.7739 -0.3689
 9673SOL    HW129918   5.566   4.890   3.020  0.6155  2.9759  0.4999
 9673SOL    HW229919   5.502   4.928   2.874 -0.1729 -1.2254 -0.3927
 9674SOL     OW29920   6.215   5.787   5.809  0.0996  0.1590 -0.5001
 9674SOL    HW129921   6.129   5.763   5.764 -0.0577  0.1475 -0.1952
 9674SOL    HW229922   6.197   5.817   5.902  0.5024 -0.7255 -0.1268
 9675SOL     OW29923   3.053   1.312   4.037  0.4270  0.4991 -0.3846
 9675SOL    HW129924   3.087   1.373   4.109 -0.8505  0.3987  0.3471
 9675SOL    HW229925   2.968   1.350   3.999 -0.2473 -0.6835 -0.1025
 9676SOL     OW29926   3.697   2.220   1.233  0.1092  0.5076  0.3127
 9676SOL    HW129927   3.604   2.226   1.198  0.4018 -0.7957 -0.7819
 9676SOL    HW229928   3.705   2.276   1.316 -1.2377  1.8026 -0.3761
 9677SOL     OW29929   5.738   5.360   1.112  0.5705  0.1354  0.0269
 9677SOL    HW129930   5.754   5.417   1.032 -1.2907  0.3489 -0.2424
 9677SOL    HW229931   5.730   5.265   1.084  0.1051  0.1877 -0.0262
 9678SOL     OW29932   0.959   5.601   3.513 -0.1784 -0.7748  0.1127
 9678SOL    HW129933   0.891   5.639   3.450  2.0248 -0.3297 -2.1551
 9678SOL    HW229934   0.922   5.600   3.606 -2.8382  0.4311 -0.8483
 9679SOL     OW29935   4.366   0.478   1.835 -0.4182  0.4153  0.1252
 9679SOL    HW129936   4.406   0.481   1.927 -1.0064  0.5081  0.3848
 9679SOL    HW229937   4.317   0.392   1.823 -2.4013  1.4049  0.8000
 9680SOL     OW29938   4.267   2.201   1.719 -0.1071 -0.1349  0.0238
 9680SOL    HW129939   4.350   2.229   1.669 -0.0150 -0.1211  0.1839
 9680SOL    HW229940   4.199   2.274   1.714 -1.3372 -1.3153 -2.7934
 9681SOL     OW29941   4.114   1.770   2.040  0.0530 -0.5228 -0.3802
 9681SOL    HW129942   4.168   1.688   2.026 -0.6700 -0.7956 -1.6830
 9681SOL    HW229943   4.111   1.824   1.956 -0.0445  0.4929  0.2584
 9682SOL     OW29944   1.347   1.778   1.010  0.2466 -0.5231 -0.2273
 9682SOL    HW129945   1.425   1.821   0.966 -0.3432  0.8180 -0.0227
 9682SOL    HW229946   1.263   1.821   0.978 -0.4855 -2.3439 -0.9114
 9683SOL     OW29947   1.316   2.266   4.624 -0.4883  0.0611 -0.2715
 9683SOL    HW129948   1.407   2.307   4.625 -0.2148 -0.5036 -0.9373
 9683SOL    HW229949   1.318   2.180   4.675 -0.5174 -0.2097 -0.7203
 9684SOL     OW29950   6.602   4.478   2.807  0.1870 -0.1486  0.2620
 9684SOL    HW129951   6.529   4.519   2.752 -0.2425  0.3729  1.1914
 9684SOL    HW229952   6.578   4.384   2.830  0.1270 -0.2007 -0.0125
 9685SOL     OW29953   2.807   5.870   3.118  0.5482 -0.0246 -0.0187
 9685SOL    HW129954   2.794   5.808   3.041 -0.2458  0.7949 -0.5636
 9685SOL    HW229955   2.792   5.965   3.088  0.5447  0.3309  1.0603
 9686SOL     OW29956   0.073   3.023   1.926 -0.1522 -0.1152 -0.1782
 9686SOL    HW129957   0.081   3.057   2.020  2.5373 -1.9072  0.3787
 9686SOL    HW229958   0.031   2.932   1.927  0.1535 -0.2663 -0.6773
 9687SOL     OW29959   1.761   1.992   0.021  0.6416 -0.2404 -0.2574
 9687SOL    HW129960   1.750   2.061   0.092  0.0246  1.1582 -1.6553
 9687SOL    HW229961   1.759   2.036  -0.069  2.7575 -1.7798 -1.1309
 9688SOL     OW29962   5.721   5.553   4.322 -0.0613 -0.2723 -0.1288
 9688SOL    HW129963   5.689   5.608   4.399 -0.1288  0.8190 -0.9056
 9688SOL    HW229964   5.819   5.535   4.331  0.5263  2.0961 -1.0574
 9689SOL     OW29965   6.760   1.230   6.896  0.2276 -0.4076  0.1552
 9689SOL    HW129966   6.696   1.155   6.881 -0.8775  0.2700  1.2848
 9689SOL    HW229967   6.830   1.203   6.961  2.1443 -1.7015 -2.2594
 9690SOL     OW29968   6.178   5.846   6.068 -0.3761 -0.1974 -0.4440
 9690SOL    HW129969   6.088   5.828   6.108 -0.7551  0.4521 -0.9849
 9690SOL    HW229970   6.230   5.906   6.128  0.4948 -2.1326  0.8576
 9691SOL     OW29971   2.165   2.150   3.523 -0.0634 -0.5462  0.1118
 9691SOL    HW129972   2.172   2.233   3.468 -1.2992  0.0140  0.7526
 9691SOL    HW229973   2.126   2.173   3.612  1.1409 -1.5578  0.9447
 9692SOL     OW29974   5.389   1.637   3.558  0.3835 -0.6431 -0.5710
 9692SOL    HW129975   5.427   1.707   3.618  1.3302 -2.0816  0.6118
 9692SOL    HW229976   5.372   1.675   3.468  1.1831  0.9984 -0.0661
 9693SOL     OW29977   4.798   1.398   4.068 -0.3373  0.4244  0.1415
 9693SOL    HW129978   4.805   1.374   3.971  1.9714  0.6431  0.1835
 9693SOL    HW229979   4.757   1.489   4.077  3.4175  2.4830 -1.0909
 9694SOL     OW29980   6.077   5.102   3.267  0.2997  0.2068  0.0731
 9694SOL    HW129981   6.020   5.024   3.240  1.2979 -0.3582 -0.4816
 9694SOL    HW229982   6.133   5.076   3.346  0.0158  0.6566  0.4254
 9695SOL     OW29983   2.230   5.609   4.889 -0.6790 -0.3817  0.4537
 9695SOL    HW129984   2.273   5.593   4.977 -0.8847 -1.6262  0.3421
 9695SOL    HW229985   2.137   5.645   4.903 -0.2490  0.6505  0.7117
 9696SOL     OW29986   6.323   0.927   2.815  0.2171 -0.1488 -0.4183
 9696SOL    HW129987   6.260   0.983   2.869 -0.2025  0.7860 -1.8014
 9696SOL    HW229988   6.288   0.833   2.810  1.8415 -1.1552  3.4217
 9697SOL     OW29989   4.849   5.812   1.546 -0.0130  0.2686  0.4388
 9697SOL    HW129990   4.776   5.766   1.496 -1.8824  2.5004  0.9249
 9697SOL    HW229991   4.838   5.911   1.537  2.3069  0.6880  1.5097
 9698SOL     OW29992   4.177   4.438   6.659  0.5103  0.4249 -0.1674
 9698SOL    HW129993   4.092   4.491   6.654  0.3526  0.2793  0.7736
 9698SOL    HW229994   4.161   4.354   6.710  0.6173 -0.8508 -2.0974
 9699SOL     OW29995   5.364   3.503   5.180  0.5821 -0.0890 -0.4983
 9699SOL    HW129996   5.310   3.557   5.116 -1.0490 -1.9264 -0.7614
 9699SOL    HW229997   5.337   3.525   5.274  1.3623  0.9630 -0.5048
 9700SOL     OW29998   2.349   1.406   3.249 -0.0077 -0.7883 -0.7217
 9700SOL    HW129999   2.357   1.351   3.165  1.2326 -1.2223 -0.3457
 9700SOL    HW230000   2.384   1.354   3.326 -0.9250 -0.2956  0.0423
 9701SOL     OW30001   0.704   0.389   5.506  0.1540 -0.0418 -0.5152
 9701SOL    HW130002   0.606   0.403   5.490 -0.7619 -2.7847  1.7889
 9701SOL    HW230003   0.732   0.442   5.586  0.2648 -0.1203 -0.5026
 9702SOL     OW30004   3.399   0.819   5.461  0.4018 -0.0079 -0.0860
 9702SOL    HW130005   3.406   0.756   5.539  1.1869 -1.4844 -1.3047
 9702SOL    HW230006   3.473   0.800   5.396  0.1368  1.6230 -0.9117
 9703SOL     OW30007   0.017   5.406   3.066 -0.1797  0.5418 -0.5149
 9703SOL    HW130008   0.050   5.414   2.972 -1.6842 -0.3540 -1.1569
 9703SOL    HW230009   0.009   5.309   3.091 -0.1410  0.7634  0.4252
 9704SOL     OW30010   1.798   4.551   0.607  0.9837 -0.1248 -0.0645
 9704SOL    HW130011   1.730   4.480   0.625  0.9448 -0.0412  0.1235
 9704SOL    HW230012   1.752   4.638   0.590  1.0331 -0.1324 -0.2370
 9705SOL     OW30013   6.305   3.552   4.913 -0.1210 -0.1092 -0.5501
 9705SOL    HW130014   6.356   3.563   4.999 -0.1743 -1.7779 -0.2852
 9705SOL    HW230015   6.207   3.560   4.931 -0.2608 -2.4358 -0.0718
 9706SOL     OW30016   5.609   0.396   2.917  0.2507 -0.2332 -0.0258
 9706SOL    HW130017   5.667   0.462   2.964 -0.2055 -0.3151  0.6589
 9706SOL    HW230018   5.539   0.444   2.864 -0.0308 -0.1669  0.4067
 9707SOL     OW30019   1.024   5.462   0.980  0.3635  0.3605 -0.0944
 9707SOL    HW130020   1.072   5.548   0.963  1.4235 -0.0612  0.6252
 9707SOL    HW230021   1.089   5.394   1.014 -0.2306 -1.0945 -1.7241
 9708SOL     OW30022   2.592   6.832   3.247  0.3899  0.1268 -0.3634
 9708SOL    HW130023   2.515   6.771   3.226 -0.1796  0.8089 -0.2883
 9708SOL    HW230024   2.559   6.926   3.252  0.5991  0.1358  2.6996
 9709SOL     OW30025   0.525   0.896   0.638 -0.0899 -0.3644  0.2167
 9709SOL    HW130026   0.571   0.950   0.709 -1.5149  0.3049  0.6678
 9709SOL    HW230027   0.456   0.838   0.681  2.2086 -3.6063 -0.0686
 9710SOL     OW30028   1.161   1.534   5.542  1.0916  0.2686  0.3290
 9710SOL    HW130029   1.115   1.469   5.603  1.2568  1.6810  2.0379
 9710SOL    HW230030   1.219   1.484   5.478  2.7641 -1.2181  2.8441
 9711SOL     OW30031   2.852   2.885   5.877  0.0028  0.4277 -0.7108
 9711SOL    HW130032   2.948   2.856   5.868  0.2737  1.2651 -0.6610
 9711SOL    HW230033   2.794   2.826   5.821  0.5136 -0.2610 -0.5327
 9712SOL     OW30034   7.000   4.420   3.996 -0.1980 -0.2537 -0.1969
 9712SOL    HW130035   7.066   4.495   4.001 -1.2160  0.6530 -0.1265
 9712SOL    HW230036   7.024   4.350   4.063  0.4022  0.2968  0.1757
 9713SOL     OW30037   4.009   4.827   0.416 -0.0577  0.2602  0.9040
 9713SOL    HW130038   3.992   4.891   0.491  0.9009 -0.1581  1.5000
 9713SOL    HW230039   4.075   4.758   0.445  1.0737  0.6488 -0.6156
 9714SOL     OW30040   5.968   2.875   2.759 -0.1133  0.6609 -0.4686
 9714SOL    HW130041   6.006   2.919   2.840 -1.2609  0.7262  0.0570
 9714SOL    HW230042   5.974   2.775   2.770  2.5887  0.6091 -1.7094
 9715SOL     OW30043   0.206   2.192   1.622  0.1722 -0.0119  0.6053
 9715SOL    HW130044   0.169   2.100   1.609 -0.1603  0.3420 -1.1202
 9715SOL    HW230045   0.303   2.192   1.600  0.4988 -0.2062  1.9138
 9716SOL     OW30046   0.062   1.088   6.921 -0.2117  0.5070  0.1375
 9716SOL    HW130047   0.149   1.077   6.968 -0.0830 -3.1510 -0.6920
 9716SOL    HW230048   0.079   1.094   6.822 -0.8577  0.8006  0.0408
 9717SOL     OW30049   4.453   5.216   1.790  0.0637  0.0182  0.0847
 9717SOL    HW130050   4.388   5.241   1.718 -0.1161 -0.5983  0.0259
 9717SOL    HW230051   4.537   5.181   1.748 -0.2235 -0.7968  0.1654
 9718SOL     OW30052   2.611   3.643   5.679  0.1461  0.4678  0.3757
 9718SOL    HW130053   2.658   3.633   5.591 -1.7084 -0.4400 -0.5780
 9718SOL    HW230054   2.564   3.557   5.702 -1.7023  1.5474  0.8375
 9719SOL     OW30055   6.732   6.423   6.387 -0.3750  0.1821  0.5733
 9719SOL    HW130056   6.819   6.462   6.358 -0.0797 -0.7478  0.1734
 9719SOL    HW230057   6.678   6.494   6.434  0.1815  1.0275 -0.0265
 9720SOL     OW30058   6.999   5.613   5.081  0.1964  0.4212 -0.3437
 9720SOL    HW130059   7.032   5.658   4.999 -1.0042 -2.3045 -2.4926
 9720SOL    HW230060   7.024   5.516   5.078 -2.5493 -0.4287  0.9447
 9721SOL     OW30061   4.488   7.008   4.837  0.4506 -0.2655 -0.1350
 9721SOL    HW130062   4.427   6.992   4.915  0.2825  0.1972 -0.1651
 9721SOL    HW230063   4.559   7.074   4.864  0.2713  0.0526 -0.4290
 9722SOL     OW30064   1.952   6.569   6.509  0.7039  0.5268  0.5288
 9722SOL    HW130065   2.008   6.637   6.558  0.3300  1.6067 -0.4810
 9722SOL    HW230066   1.925   6.497   6.572  2.5502  0.3992  1.2366
 9723SOL     OW30067   5.542   3.584   4.695  0.0177  0.3748  0.1761
 9723SOL    HW130068   5.526   3.529   4.613  2.0921  1.6023 -1.1372
 9723SOL    HW230069   5.455   3.622   4.727 -1.1316 -1.8223 -0.1686
 9724SOL     OW30070   6.651   6.796   1.296  0.6647  0.2168 -0.7367
 9724SOL    HW130071   6.740   6.823   1.260  1.7339 -1.6139  0.4316
 9724SOL    HW230072   6.652   6.802   1.395  0.0676 -1.4586 -0.6041
 9725SOL     OW30073   0.248   6.926   2.361 -0.2000 -0.0141 -0.1000
 9725SOL    HW130074   0.170   6.987   2.380 -0.8972 -0.5452 -1.1668
 9725SOL    HW230075   0.214   6.835   2.339  0.7733 -0.4223  0.0578
 9726SOL     OW30076   4.276   5.359   3.510 -0.1305  0.4194  0.2153
 9726SOL    HW130077   4.193   5.399   3.549 -0.9307 -0.8276 -0.1538
 9726SOL    HW230078   4.354   5.382   3.568 -0.3380  3.3393 -0.5035
 9727SOL     OW30079   6.941   2.753   6.798 -0.5748 -0.4870  0.3794
 9727SOL    HW130080   6.971   2.705   6.880 -0.0944 -1.3152 -0.2640
 9727SOL    HW230081   6.860   2.709   6.761  0.5004 -1.5433 -0.8358
 9728SOL     OW30082   6.256   0.081   3.045  0.9103 -0.0968  0.4172
 9728SOL    HW130083   6.181   0.087   2.980  0.0350 -1.6270  1.2378
 9728SOL    HW230084   6.339   0.119   3.004  0.1899 -0.2656 -1.2678
 9729SOL     OW30085   4.220   4.440   5.565  0.1439  0.3313 -0.0668
 9729SOL    HW130086   4.175   4.519   5.524 -1.9406 -1.2868 -1.0756
 9729SOL    HW230087   4.152   4.371   5.588  1.9871 -1.7072 -0.3865
 9730SOL     OW30088   6.949   4.742   5.883  0.1293 -0.3651 -0.2451
 9730SOL    HW130089   6.983   4.835   5.871  1.9647 -0.6047  2.2279
 9730SOL    HW230090   6.901   4.713   5.801  1.5051  1.9242 -1.9828
 9731SOL     OW30091   5.482   2.267   1.978  0.2918 -0.3705 -0.8055
 9731SOL    HW130092   5.388   2.277   1.948 -0.7424 -1.6883  1.6814
 9731SOL    HW230093   5.500   2.328   2.055  1.7047  0.3408 -1.6595
 9732SOL     OW30094   2.059   4.365   3.906  0.4837  0.5691 -0.7082
 9732SOL    HW130095   2.111   4.363   3.820 -0.1930 -0.6426 -1.1162
 9732SOL    HW230096   2.025   4.273   3.925 -0.5210  1.1155  0.1601
 9733SOL     OW30097   5.142   5.386   0.098 -0.2643 -0.1725  0.1399
 9733SOL    HW130098   5.109   5.295   0.075  0.9069 -0.9741  1.4561
 9733SOL    HW230099   5.239   5.392   0.076 -0.0490  0.3349  1.1711
 9734SOL     OW30100   2.837   1.194   6.368 -0.0785  0.2088  0.3719
 9734SOL    HW130101   2.924   1.223   6.326 -0.7933  1.7780 -0.1083
 9734SOL    HW230102   2.849   1.105   6.411  1.7557  0.3484  0.2427
 9735SOL     OW30103   2.033   5.212   6.976 -0.3114 -0.2455  0.0211
 9735SOL    HW130104   1.992   5.300   6.950  0.8535  0.9981  2.0772
 9735SOL    HW230105   2.031   5.203   7.075 -0.8232 -2.8263 -0.1524
 9736SOL     OW30106   6.271   3.591   5.405 -0.2276  0.2066 -0.0003
 9736SOL    HW130107   6.182   3.591   5.359 -1.2878 -1.9577  1.7953
 9736SOL    HW230108   6.281   3.675   5.459 -1.5091  0.1997  0.2791
 9737SOL     OW30109   5.934   6.953   3.776 -0.3315  0.0484  0.0762
 9737SOL    HW130110   6.004   7.014   3.814  0.3496 -0.0728 -0.9327
 9737SOL    HW230111   5.979   6.883   3.721 -1.2886  0.3476 -1.1212
 9738SOL     OW30112   3.390   0.396   5.237  0.5044  0.0823  0.7184
 9738SOL    HW130113   3.318   0.384   5.305 -0.0315  0.3797  0.2101
 9738SOL    HW230114   3.349   0.410   5.147  1.2105 -0.8893  0.2322
 9739SOL     OW30115   3.681   2.634   0.568  0.7291  0.0150 -0.7218
 9739SOL    HW130116   3.648   2.728   0.583 -0.9792 -0.7324  0.4937
 9739SOL    HW230117   3.736   2.605   0.646 -1.1346 -0.9365  0.3170
 9740SOL     OW30118   5.932   5.440   5.763  1.1189  0.4433 -0.7247
 9740SOL    HW130119   5.900   5.382   5.688 -0.2402  0.8276 -0.4590
 9740SOL    HW230120   5.898   5.533   5.750  4.0301  1.4977 -1.6472
 9741SOL     OW30121   2.335   3.746   5.327  0.1506 -0.1865  0.3169
 9741SOL    HW130122   2.353   3.783   5.418  0.0072 -0.4180  0.4436
 9741SOL    HW230123   2.384   3.799   5.258  1.0320 -0.5952  0.6131
 9742SOL     OW30124   1.685   4.412   4.517  0.2949 -0.2286  0.3562
 9742SOL    HW130125   1.600   4.455   4.548  0.0717  0.3317 -0.9915
 9742SOL    HW230126   1.707   4.336   4.578  0.0935  1.0739  2.1200
 9743SOL     OW30127   0.128   4.871   2.097  0.1175 -0.0829  0.0732
 9743SOL    HW130128   0.055   4.912   2.042 -0.8733  1.2747  2.2588
 9743SOL    HW230129   0.088   4.817   2.171  1.4010 -1.5903 -0.2785
 9744SOL     OW30130   2.422   0.457   2.030 -0.3121  0.0062 -0.8452
 9744SOL    HW130131   2.393   0.367   2.061 -0.5544  0.4903  0.4135
 9744SOL    HW230132   2.512   0.478   2.068  0.0801 -0.0041 -1.7499
 9745SOL     OW30133   2.422   5.869   3.644  0.3649 -0.1955  0.4907
 9745SOL    HW130134   2.399   5.890   3.549  1.5163  1.2081  0.4831
 9745SOL    HW230135   2.343   5.829   3.690 -0.2273 -0.8584 -1.0293
 9746SOL     OW30136   0.550   3.014   4.901 -0.3479 -0.4397  0.3962
 9746SOL    HW130137   0.570   2.920   4.871  0.1532  0.4336 -2.3224
 9746SOL    HW230138   0.522   3.013   4.997 -1.7852 -3.5276  0.0749
 9747SOL     OW30139   1.153   5.483   6.359 -0.6525  0.0822 -0.1120
 9747SOL    HW130140   1.212   5.560   6.384 -0.6176 -0.4186  1.4409
 9747SOL    HW230141   1.144   5.421   6.437 -0.3820 -1.6891 -1.4218
 9748SOL     OW30142   4.588   2.766   1.802 -0.3074  0.2738  0.4463
 9748SOL    HW130143   4.519   2.795   1.736  1.7528  0.7761 -1.6364
 9748SOL    HW230144   4.630   2.847   1.844  1.4603  0.1760 -1.0329
 9749SOL     OW30145   5.667   6.665   0.535  0.1639  0.7310 -0.0401
 9749SOL    HW130146   5.588   6.705   0.489  1.0508  0.6043 -1.7782
 9749SOL    HW230147   5.670   6.567   0.516 -0.1681  0.4174  1.4301
 9750SOL     OW30148   6.165   6.563   5.723 -0.1672  0.2055  0.0439
 9750SOL    HW130149   6.223   6.614   5.786  0.0397 -0.3915  0.3414
 9750SOL    HW230150   6.125   6.484   5.770  1.0182 -0.9986 -0.9028
 9751SOL     OW30151   3.533   0.467   0.857  0.0175  0.5120 -0.1189
 9751SOL    HW130152   3.466   0.476   0.931  0.2300 -1.5743  0.4061
 9751SOL    HW230153   3.487   0.474   0.769 -0.8747 -0.4962  0.2353
 9752SOL     OW30154   3.505   5.778   0.835  0.0983  0.0587  0.4379
 9752SOL    HW130155   3.568   5.740   0.903 -1.2948 -1.5095  0.9168
 9752SOL    HW230156   3.467   5.703   0.780  0.5800  1.2170 -1.5580
 9753SOL     OW30157   0.155   6.924   3.429 -0.1674  0.7507 -0.8752
 9753SOL    HW130158   0.212   6.975   3.365  2.2703 -0.0957  0.4568
 9753SOL    HW230159   0.210   6.898   3.509 -2.2721 -0.7834  0.1915
 9754SOL     OW30160   3.914   4.932   5.980  0.4698 -0.1329  0.0841
 9754SOL    HW130161   3.911   4.999   6.054  0.3839  2.1608 -1.8572
 9754SOL    HW230162   3.833   4.942   5.923  1.4066 -0.5125 -1.3766
 9755SOL     OW30163   1.140   2.718   2.638 -0.2737 -0.3304 -0.2474
 9755SOL    HW130164   1.113   2.772   2.719  2.3739  1.1916 -0.2597
 9755SOL    HW230165   1.058   2.685   2.591 -2.2465  4.3643 -0.6609
 9756SOL     OW30166   6.452   6.760   4.649 -0.1221  0.8519 -0.3380
 9756SOL    HW130167   6.375   6.698   4.632 -0.7786  1.4191  0.5094
 9756SOL    HW230168   6.538   6.711   4.631 -0.6163 -0.3631  0.4442
 9757SOL     OW30169   6.111   5.345   1.732 -0.8057 -0.3919  0.3599
 9757SOL    HW130170   6.109   5.440   1.761 -0.2815 -0.7585  1.6504
 9757SOL    HW230171   6.029   5.298   1.764 -0.9114 -0.4579  0.0020
 9758SOL     OW30172   0.074   5.417   4.179  0.0362  0.5713  0.0998
 9758SOL    HW130173  -0.012   5.435   4.131  0.0627  0.8779  0.1645
 9758SOL    HW230174   0.070   5.326   4.222  0.4450 -0.2056 -1.4250
 9759SOL     OW30175   0.825   3.941   2.747 -0.0226 -0.1575  0.1075
 9759SOL    HW130176   0.787   3.861   2.699  1.7574 -0.6452 -0.5576
 9759SOL    HW230177   0.918   3.921   2.778 -0.0759  1.1716  1.2508
 9760SOL     OW30178   1.805   3.975   1.242 -0.5201  0.0498  0.0106
 9760SOL    HW130179   1.733   4.028   1.197 -1.0446 -0.6370  0.0235
 9760SOL    HW230180   1.888   4.030   1.249 -0.5325  0.2979 -1.4805
 9761SOL     OW30181   0.751   1.196   0.782 -0.0601  0.1185 -0.1222
 9761SOL    HW130182   0.704   1.278   0.752  0.5710  1.2567  1.8160
 9761SOL    HW230183   0.767   1.201   0.881  3.4068 -0.5315 -0.5191
 9762SOL     OW30184   5.662   1.543   1.624 -0.4696  0.0287  0.0661
 9762SOL    HW130185   5.601   1.500   1.690 -1.6031  0.1224 -0.8759
 9762SOL    HW230186   5.728   1.476   1.589 -0.6968 -0.3385  0.3447
 9763SOL     OW30187   6.666   1.660   1.848  0.4717 -0.0238  0.0864
 9763SOL    HW130188   6.676   1.561   1.859 -2.1771 -0.5009 -0.8683
 9763SOL    HW230189   6.678   1.684   1.751 -0.0712  0.3817  0.1124
 9764SOL     OW30190   4.020   0.484   3.675  0.1085 -0.3149  0.0678
 9764SOL    HW130191   4.080   0.555   3.638 -0.1159 -0.8832 -1.4869
 9764SOL    HW230192   4.052   0.457   3.765  2.0124 -0.3668 -0.5700
 9765SOL     OW30193   5.174   0.649   1.857 -0.0734  0.2939  0.1746
 9765SOL    HW130194   5.111   0.704   1.803  1.6049  0.4905 -1.6909
 9765SOL    HW230195   5.175   0.683   1.951 -1.7818  1.0697 -0.0470
 9766SOL     OW30196   1.819   1.833   3.373 -0.6135  0.3154  0.0560
 9766SOL    HW130197   1.756   1.848   3.449 -1.2699 -1.1963 -0.1518
 9766SOL    HW230198   1.910   1.811   3.410 -0.5606  1.0188  0.3690
 9767SOL     OW30199   6.666   5.876   5.239 -0.4075  0.1135 -0.4757
 9767SOL    HW130200   6.685   5.944   5.168 -2.0602  0.9438 -0.1764
 9767SOL    HW230201   6.631   5.923   5.320 -2.5618 -1.1450 -0.6134
 9768SOL     OW30202   6.888   2.532   1.044  0.1274 -0.2551  0.0527
 9768SOL    HW130203   6.882   2.441   1.003 -1.3471  0.0063 -0.3527
 9768SOL    HW230204   6.982   2.565   1.037  0.6570 -1.6928  0.1069
 9769SOL     OW30205   6.061   1.204   1.100 -0.1838 -0.0116 -0.7083
 9769SOL    HW130206   6.124   1.274   1.066 -1.2802  0.7806 -1.1516
 9769SOL    HW230207   6.049   1.134   1.030  0.4110 -0.3223 -0.5116
 9770SOL     OW30208   6.693   5.530   2.792  0.1721  0.2610  0.2786
 9770SOL    HW130209   6.665   5.511   2.887 -0.2524  0.1581  0.1368
 9770SOL    HW230210   6.674   5.626   2.771 -0.9192 -0.0232 -0.0965
 9771SOL     OW30211   0.896   0.275   1.776  0.1338 -0.2027  0.1146
 9771SOL    HW130212   0.807   0.313   1.752  1.0323  1.5496 -0.6162
 9771SOL    HW230213   0.919   0.302   1.870  0.8957  1.3978 -0.4998
 9772SOL     OW30214   1.126   4.803   4.357 -0.2772 -0.5217  0.0985
 9772SOL    HW130215   1.051   4.846   4.308 -0.8314 -0.4456  1.0000
 9772SOL    HW230216   1.189   4.761   4.291  0.9123  2.5745 -0.9357
 9773SOL     OW30217   4.075   5.072   4.901  0.0532  0.5052  0.6998
 9773SOL    HW130218   4.140   5.029   4.964  1.6450  2.5747  0.5759
 9773SOL    HW230219   4.025   5.144   4.948  2.5735  3.3704 -0.6371
 9774SOL     OW30220   2.843   0.917   4.144 -0.3117 -0.1579 -0.1089
 9774SOL    HW130221   2.812   0.825   4.118  0.8694  0.0295 -2.3706
 9774SOL    HW230222   2.930   0.937   4.099  0.5737  1.2632  2.0883
 9775SOL     OW30223   1.027   6.018   0.258 -0.4796 -0.5734 -0.0712
 9775SOL    HW130224   0.976   6.042   0.340 -1.0988  0.3912 -0.7137
 9775SOL    HW230225   0.964   6.008   0.181  0.3694  3.4674 -1.5644
 9776SOL     OW30226   6.557   6.021   5.433  0.0846 -0.2081 -0.1977
 9776SOL    HW130227   6.579   6.029   5.530 -0.6365  0.6358 -0.0842
 9776SOL    HW230228   6.526   6.110   5.399  2.4098  0.0809 -1.7405
 9777SOL     OW30229   3.523   5.485   3.450 -0.2568 -0.1700  0.7974
 9777SOL    HW130230   3.605   5.506   3.504  1.2687 -1.7061 -0.8088
 9777SOL    HW230231   3.450   5.455   3.512  0.5655  0.5882  2.2063
 9778SOL     OW30232   1.116   0.430   4.479 -0.0372 -0.0860 -0.5260
 9778SOL    HW130233   1.090   0.340   4.515  0.6505 -0.3663 -0.7057
 9778SOL    HW230234   1.098   0.500   4.548 -1.7535 -0.1752 -0.8274
 9779SOL     OW30235   5.122   2.501   1.590 -0.0751  0.2215 -0.0123
 9779SOL    HW130236   5.209   2.497   1.540  0.0720 -1.5980  0.3057
 9779SOL    HW230237   5.048   2.474   1.529 -0.1580 -0.0492  0.2068
 9780SOL     OW30238   5.808   2.380   1.561 -0.1980 -0.0750 -0.0439
 9780SOL    HW130239   5.803   2.473   1.526 -0.8353  0.4950  1.4890
 9780SOL    HW230240   5.784   2.379   1.658  3.0781 -1.3230  0.9054
 9781SOL     OW30241   6.493   6.859   0.395 -0.6144  0.6729 -0.1644
 9781SOL    HW130242   6.419   6.885   0.458  1.9582  2.3771  2.4040
 9781SOL    HW230243   6.507   6.933   0.329 -0.4645  0.8746  0.0907
 9782SOL     OW30244   0.176   1.266   0.227  0.3903 -0.5016 -0.1086
 9782SOL    HW130245   0.147   1.171   0.240 -0.7537 -0.3240 -1.2606
 9782SOL    HW230246   0.101   1.319   0.190  1.6481  0.3992 -1.4522
 9783SOL     OW30247   3.782   0.510   0.993 -0.0233  0.2492 -0.0999
 9783SOL    HW130248   3.865   0.542   0.947 -0.7631  0.7875 -1.0801
 9783SOL    HW230249   3.701   0.539   0.942 -0.8046 -0.9801  0.3752
 9784SOL     OW30250   4.089   3.572   2.187  0.0224 -0.4236  0.3337
 9784SOL    HW130251   4.161   3.559   2.256  1.2233 -2.3263 -1.1853
 9784SOL    HW230252   4.084   3.669   2.163  1.0160 -0.0289  1.5589
 9785SOL     OW30253   6.938   2.209   4.509 -0.1437 -0.6250  0.1237
 9785SOL    HW130254   6.845   2.173   4.515 -0.4901  0.1868 -0.3026
 9785SOL    HW230255   6.937   2.299   4.466  1.0165 -1.3966 -1.6484
 9786SOL     OW30256   5.575   4.798   1.415 -0.1866 -0.1923  0.3426
 9786SOL    HW130257   5.647   4.757   1.359 -0.3484 -1.1897  0.8450
 9786SOL    HW230258   5.605   4.889   1.446  2.1939 -1.7074  2.9936
 9787SOL     OW30259   0.619   3.318   4.518  0.4119  0.2176 -0.6705
 9787SOL    HW130260   0.692   3.257   4.485  1.0928  0.3573  0.5295
 9787SOL    HW230261   0.628   3.407   4.473  0.1994 -0.1648 -1.4771
 9788SOL     OW30262   6.291   0.881   1.108  0.0203 -0.2821  0.6724
 9788SOL    HW130263   6.318   0.790   1.140  0.5467 -0.7002 -0.8662
 9788SOL    HW230264   6.372   0.931   1.079 -0.1047  1.1822  2.6057
 9789SOL     OW30265   3.482   6.875   3.085  0.1508 -0.1217  0.2571
 9789SOL    HW130266   3.522   6.966   3.082  0.8428 -0.3758  1.2148
 9789SOL    HW230267   3.483   6.841   3.179  1.1589 -1.6591 -0.2693
 9790SOL     OW30268   5.434   3.908   6.451 -0.4084 -0.5349  0.7298
 9790SOL    HW130269   5.437   3.819   6.406  0.5676  0.6509 -1.7864
 9790SOL    HW230270   5.516   3.920   6.507 -0.4442 -1.1243  0.9157
 9791SOL     OW30271   3.239   3.615   1.842 -0.2937  0.4203 -0.0594
 9791SOL    HW130272   3.149   3.638   1.877  0.1888  1.5355  0.4975
 9791SOL    HW230273   3.309   3.668   1.891  0.6900 -0.6094 -0.2939
 9792SOL     OW30274   2.295   4.225   3.503 -0.2001  0.4164  0.6094
 9792SOL    HW130275   2.378   4.267   3.468  0.2614  0.2753  1.5153
 9792SOL    HW230276   2.314   4.180   3.590 -0.8892 -0.8765  0.1175
 9793SOL     OW30277   2.831   0.091   2.056  0.0786  0.4580 -0.1618
 9793SOL    HW130278   2.876   0.124   2.139  1.6097  0.6771 -1.0282
 9793SOL    HW230279   2.733   0.081   2.072  0.1082  1.9588  1.2106
 9794SOL     OW30280   6.715   0.675   4.126  0.4136 -0.5443  0.2528
 9794SOL    HW130281   6.690   0.712   4.215  0.4935 -1.8983  0.8681
 9794SOL    HW230282   6.764   0.744   4.073  0.3732  0.2734  1.2597
 9795SOL     OW30283   4.700   6.012   4.028 -0.6828  0.2338 -0.2355
 9795SOL    HW130284   4.707   6.106   4.061 -0.4725 -0.7401  2.7766
 9795SOL    HW230285   4.603   5.988   4.017 -0.8387  0.2079  1.0169
 9796SOL     OW30286   5.001   4.790   3.955 -0.6347  0.0482  0.8923
 9796SOL    HW130287   4.966   4.699   3.974  0.4315 -0.4162  0.6968
 9796SOL    HW230288   5.090   4.802   4.000 -0.7843  0.9993  0.9463
 9797SOL     OW30289   0.639   6.719   0.816  0.0492  0.7634 -0.0093
 9797SOL    HW130290   0.731   6.683   0.808 -0.4945 -0.4310 -1.2681
 9797SOL    HW230291   0.587   6.666   0.883 -0.2106  0.3472 -0.5322
 9798SOL     OW30292   5.398   0.089   0.969  0.0290  0.0750 -0.0624
 9798SOL    HW130293   5.439   0.033   0.896 -1.1935 -1.2181  0.1847
 9798SOL    HW230294   5.348   0.029   1.031  0.6554  1.2231  1.5957
 9799SOL     OW30295   2.722   3.539   1.500 -0.2856 -0.5852  0.5488
 9799SOL    HW130296   2.759   3.529   1.592 -0.3496 -1.0181  0.5292
 9799SOL    HW230297   2.623   3.523   1.502 -0.1356 -1.6175  0.2400
 9800SOL     OW30298   5.720   5.070   6.286  0.1264 -0.7323  0.3816
 9800SOL    HW130299   5.766   5.078   6.198  3.4012 -1.4575  1.8923
 9800SOL    HW230300   5.676   5.157   6.309 -1.9632 -0.9229 -2.4550
 9801SOL     OW30301   3.670   1.600   4.513 -0.8150 -0.4763 -0.0748
 9801SOL    HW130302   3.623   1.564   4.593 -0.7908 -0.6632 -0.1452
 9801SOL    HW230303   3.636   1.555   4.431 -1.7948  0.6307 -0.3207
 9802SOL     OW30304   6.032   1.699   2.880  0.2204 -0.4734 -0.5370
 9802SOL    HW130305   6.127   1.689   2.911 -0.0918 -2.2991 -0.0936
 9802SOL    HW230306   6.018   1.646   2.797 -0.7097 -1.2282  0.0832
 9803SOL     OW30307   3.231   3.038   4.650  0.0294  0.6251 -0.1866
 9803SOL    HW130308   3.142   3.004   4.621 -0.5546  2.3492 -0.5556
 9803SOL    HW230309   3.299   3.015   4.580  0.0879 -1.4661  0.5104
 9804SOL     OW30310   4.799   3.804   6.632 -0.7531 -0.7074 -0.2569
 9804SOL    HW130311   4.880   3.748   6.652 -0.5513 -0.6368 -0.8689
 9804SOL    HW230312   4.718   3.745   6.631 -0.6939 -0.8022  0.2136
 9805SOL     OW30313   4.319   3.935   0.055 -0.1433  0.4240 -0.2703
 9805SOL    HW130314   4.332   3.992   0.136  2.2722  0.0055 -0.2887
 9805SOL    HW230315   4.374   3.970  -0.020  0.9186 -1.5082 -0.4624
 9806SOL     OW30316   3.519   3.498   4.749 -0.1505  0.2773  0.1465
 9806SOL    HW130317   3.530   3.518   4.652  1.1436 -1.9923 -0.2320
 9806SOL    HW230318   3.431   3.455   4.764  0.2152 -0.6443 -0.2764
 9807SOL     OW30319   3.208   3.577   6.580 -0.5974  0.1710  0.1676
 9807SOL    HW130320   3.283   3.578   6.646 -0.9234  2.0931  0.5645
 9807SOL    HW230321   3.228   3.640   6.505 -0.8994 -0.8839 -0.8330
 9808SOL     OW30322   0.948   3.715   5.182  0.6428  0.4791 -0.0473
 9808SOL    HW130323   0.869   3.774   5.195  1.0605  1.1075 -0.2811
 9808SOL    HW230324   0.967   3.665   5.266 -0.0077  0.3109  0.0038
 9809SOL     OW30325   4.726   5.330   0.205  0.0795 -0.5707  0.0868
 9809SOL    HW130326   4.653   5.360   0.142 -0.7885 -2.1187  0.3116
 9809SOL    HW230327   4.779   5.410   0.233 -0.2515  0.3357 -1.6621
 9810SOL     OW30328   5.387   1.520   3.072  0.0734  0.1634 -0.0323
 9810SOL    HW130329   5.420   1.516   3.166 -1.2208 -1.1670  0.4222
 9810SOL    HW230330   5.430   1.446   3.019  1.2055  1.2396 -0.6553
 9811SOL     OW30331   2.777   1.414   3.398  0.6996  0.1394 -0.3824
 9811SOL    HW130332   2.827   1.358   3.331  0.8901  0.8143 -0.8172
 9811SOL    HW230333   2.803   1.510   3.387  0.3150  0.3303  0.3005
 9812SOL     OW30334   2.761   0.144   1.579 -0.0088  0.0360 -0.3633
 9812SOL    HW130335   2.836   0.081   1.601  1.2267  1.1923 -1.1274
 9812SOL    HW230336   2.673   0.099   1.599  0.7892 -2.1469 -1.4145
 9813SOL     OW30337   4.265   1.141   0.058 -0.2805 -0.1032 -0.0875
 9813SOL    HW130338   4.266   1.064   0.122  0.0258 -1.2258 -1.4010
 9813SOL    HW230339   4.246   1.225   0.108  0.7878 -0.8146  1.6047
 9814SOL     OW30340   3.485   5.577   1.560 -0.6441 -0.1404  0.5372
 9814SOL    HW130341   3.467   5.620   1.472  2.2342  2.2328  0.9489
 9814SOL    HW230342   3.435   5.625   1.632 -0.1687  0.2786  0.5924
 9815SOL     OW30343   4.661   4.560   5.682  0.0540 -0.3334 -0.4458
 9815SOL    HW130344   4.581   4.513   5.719 -0.6683  2.4530  1.9517
 9815SOL    HW230345   4.630   4.636   5.625  0.8955  1.0275  0.8392
 9816SOL     OW30346   4.500   1.769   0.467  0.7397 -0.1123  0.0325
 9816SOL    HW130347   4.464   1.725   0.385  2.3445 -1.8772  0.2238
 9816SOL    HW230348   4.485   1.868   0.461  1.4117 -0.1160 -2.6923
 9817SOL     OW30349   5.826   3.456   0.534 -0.8669  0.5277  0.4212
 9817SOL    HW130350   5.746   3.469   0.476 -1.1502 -0.8196  0.4753
 9817SOL    HW230351   5.910   3.468   0.480 -1.1264 -0.8958 -0.3378
 9818SOL     OW30352   5.991   3.329   3.220  0.4214 -0.1148 -0.1684
 9818SOL    HW130353   6.005   3.417   3.174 -2.6356  0.6952  0.2111
 9818SOL    HW230354   5.950   3.345   3.310  0.5256 -1.9189  0.2360
 9819SOL     OW30355   3.356   6.696   2.893 -0.2023  0.8037 -0.7576
 9819SOL    HW130356   3.406   6.617   2.856 -0.0936 -0.5210  1.9613
 9819SOL    HW230357   3.421   6.758   2.937 -0.6344  0.5350  0.2839
 9820SOL     OW30358   0.419   5.310   4.309 -0.0103 -0.1440 -0.4245
 9820SOL    HW130359   0.502   5.338   4.358 -1.2320  0.2941  1.4655
 9820SOL    HW230360   0.435   5.318   4.211  2.6444 -1.3514 -0.1980
 9821SOL     OW30361   3.566   5.623   4.281 -0.2382 -0.4788  0.2406
 9821SOL    HW130362   3.577   5.697   4.215  0.1086 -0.4760  0.2966
 9821SOL    HW230363   3.477   5.579   4.269  0.0464 -0.8557 -0.6114
 9822SOL     OW30364   3.573   1.449   4.741 -0.0267  1.1331 -0.1890
 9822SOL    HW130365   3.556   1.355   4.709 -1.4171  0.9272  1.0310
 9822SOL    HW230366   3.636   1.447   4.819 -1.3929  1.0003  0.9527
 9823SOL     OW30367   1.164   6.704   6.710  0.4962  0.2874 -0.4107
 9823SOL    HW130368   1.066   6.696   6.693 -0.5907  1.5400  4.0669
 9823SOL    HW230369   1.197   6.791   6.671 -0.3142  0.2591 -1.2097
 9824SOL     OW30370   1.605   0.035   0.769  0.2015  0.1285  0.0621
 9824SOL    HW130371   1.645   0.107   0.826  0.7776 -0.7344  0.7802
 9824SOL    HW230372   1.617  -0.053   0.815 -0.6211 -0.4045 -0.7384
 9825SOL     OW30373   6.094   2.178   1.669 -0.5258  0.4466 -0.2314
 9825SOL    HW130374   6.042   2.228   1.600  0.0647  1.0581 -0.2381
 9825SOL    HW230375   6.192   2.188   1.652 -0.3793  0.2832  0.4688
 9826SOL     OW30376   1.910   2.420   1.443 -0.4717  0.6868 -0.0598
 9826SOL    HW130377   1.862   2.491   1.493  0.1310  1.1810 -0.1660
 9826SOL    HW230378   1.888   2.426   1.346  0.1709  1.2223 -0.1769
 9827SOL     OW30379   5.733   1.395   0.300  0.1516  0.1981  0.0504
 9827SOL    HW130380   5.711   1.349   0.214  0.8288 -0.2371  0.1073
 9827SOL    HW230381   5.826   1.431   0.296 -0.0600  0.7938  0.3404
 9828SOL     OW30382   0.434   0.826   3.679 -0.4517  0.7355 -0.4175
 9828SOL    HW130383   0.346   0.788   3.650  0.2613 -1.3326 -0.0692
 9828SOL    HW230384   0.506   0.760   3.658  0.7677  1.5117  1.1650
 9829SOL     OW30385   6.641   5.982   4.098 -0.1142  0.6953  0.6195
 9829SOL    HW130386   6.652   6.065   4.153  0.3306  1.2040 -0.2179
 9829SOL    HW230387   6.550   5.944   4.112  0.5229 -0.1258  2.9858
 9830SOL     OW30388   3.362   4.080   0.901 -0.3489  0.5011 -0.1017
 9830SOL    HW130389   3.363   4.028   0.986 -0.8532 -0.3848 -0.6182
 9830SOL    HW230390   3.309   4.163   0.913  0.7482  1.0873  0.8367
 9831SOL     OW30391   3.562   2.037   0.230  0.4859  0.0417  0.0030
 9831SOL    HW130392   3.507   2.062   0.150  1.1488 -0.5646 -0.6448
 9831SOL    HW230393   3.652   2.079   0.223  0.8232 -0.6708  0.0330
 9832SOL     OW30394   6.995   0.950   2.119 -0.3013  0.2759  0.2404
 9832SOL    HW130395   6.994   0.895   2.035 -0.8733 -2.4965  1.9457
 9832SOL    HW230396   6.902   0.962   2.152  0.0215  0.2390  1.1814
 9833SOL     OW30397   1.522   0.584   5.154  0.7425  0.1895  0.4668
 9833SOL    HW130398   1.544   0.669   5.106  1.5079  0.4810  1.3044
 9833SOL    HW230399   1.474   0.605   5.239 -0.9410 -0.3393 -0.2895
 9834SOL     OW30400   3.617   3.068   6.879 -0.0823  0.1479  0.2588
 9834SOL    HW130401   3.559   2.987   6.886  0.4605 -0.2588  0.1848
 9834SOL    HW230402   3.579   3.141   6.935 -1.8341  0.6177 -1.4472
 9835SOL     OW30403   0.960   3.183   6.265  1.1470 -0.0030  0.1623
 9835SOL    HW130404   1.023   3.151   6.336  2.6637  2.6020  0.1022
 9835SOL    HW230405   1.011   3.231   6.194 -0.6269 -0.3984 -1.4732
 9836SOL     OW30406   0.231   7.010   3.157 -0.0023 -0.4365  0.0608
 9836SOL    HW130407   0.223   6.986   3.061 -0.0275  1.4167 -0.4347
 9836SOL    HW230408   0.246   7.108   3.166 -1.7120 -0.2805  2.0334
 9837SOL     OW30409   2.889   0.242   5.579 -0.1651 -0.2954 -0.1261
 9837SOL    HW130410   2.810   0.273   5.631  0.6174 -0.7240  1.3738
 9837SOL    HW230411   2.943   0.321   5.550 -0.9983 -0.0125 -0.9744
 9838SOL     OW30412   2.196   3.102   6.447  0.6686  0.2677  0.2167
 9838SOL    HW130413   2.293   3.094   6.469  0.3417  0.1412  1.7649
 9838SOL    HW230414   2.167   3.023   6.394  0.5126 -2.0737  3.4512
 9839SOL     OW30415   5.600   5.752   0.339 -0.4600 -0.4705  0.1908
 9839SOL    HW130416   5.578   5.815   0.414  3.3794  0.3005  0.8958
 9839SOL    HW230417   5.590   5.799   0.252  1.6520  1.0239  0.6688
 9840SOL     OW30418   0.424   0.438   5.454 -0.4965  0.2207 -0.3882
 9840SOL    HW130419   0.435   0.399   5.362 -1.7889 -0.5917 -0.2215
 9840SOL    HW230420   0.333   0.478   5.462 -0.2520  0.6243  0.4240
 9841SOL     OW30421   5.324   3.406   3.539  0.2159  0.5416 -0.1213
 9841SOL    HW130422   5.269   3.352   3.477 -0.4361  0.6857  0.3242
 9841SOL    HW230423   5.294   3.501   3.537  1.6336  1.0099 -1.2243
 9842SOL     OW30424   2.373   0.050   5.651  0.6536 -0.1584 -0.1734
 9842SOL    HW130425   2.348   0.095   5.737  0.1713 -0.5588 -0.1039
 9842SOL    HW230426   2.469   0.023   5.655  0.4551 -0.7867  0.5073
 9843SOL     OW30427   2.345   1.963   5.274  0.1312  0.2337  0.0820
 9843SOL    HW130428   2.436   1.950   5.234 -0.4302 -1.3500 -0.7516
 9843SOL    HW230429   2.308   1.875   5.304 -1.3263  0.7854  0.0050
 9844SOL     OW30430   4.686   0.743   1.838  0.6530  0.3412  0.0831
 9844SOL    HW130431   4.643   0.703   1.756 -1.1447  1.9403  0.1649
 9844SOL    HW230432   4.637   0.712   1.919  1.1349  0.3805  0.3923
 9845SOL     OW30433   6.454   3.955   6.664  0.1428  0.0559  0.3190
 9845SOL    HW130434   6.411   3.959   6.574  1.2537  1.6871 -0.1862
 9845SOL    HW230435   6.391   3.912   6.729 -0.9428 -0.5450 -1.0655
 9846SOL     OW30436   4.999   1.711   3.896 -0.3670  0.1331 -0.1898
 9846SOL    HW130437   5.002   1.771   3.816  1.3663  0.2737 -0.0514
 9846SOL    HW230438   4.960   1.622   3.870  0.2334  0.1540 -1.2086
 9847SOL     OW30439   3.822   3.023   1.990 -0.3072  0.4367 -0.2316
 9847SOL    HW130440   3.817   3.097   1.923  1.3386  1.6726  0.9192
 9847SOL    HW230441   3.905   3.033   2.044 -0.0803 -2.2571  0.0301
 9848SOL     OW30442   6.435   5.199   0.868  0.0954  0.0393 -0.1582
 9848SOL    HW130443   6.413   5.128   0.802  0.2393 -0.3758  0.2339
 9848SOL    HW230444   6.522   5.242   0.844 -0.9724  1.4984 -1.5597
 9849SOL     OW30445   1.657   5.872   5.982 -0.0595  0.1092 -0.4393
 9849SOL    HW130446   1.650   5.942   6.054 -1.6726 -0.2633 -0.2011
 9849SOL    HW230447   1.692   5.914   5.898  1.6082  0.6056  0.4583
 9850SOL     OW30448   0.697   1.332   6.907 -0.3294  0.2125 -0.1323
 9850SOL    HW130449   0.719   1.249   6.855  1.7501  1.2093 -0.9539
 9850SOL    HW230450   0.728   1.412   6.856 -1.5199  1.4746  1.0469
 9851SOL     OW30451   0.612   5.279   1.536 -0.3989  0.7703  0.3037
 9851SOL    HW130452   0.623   5.259   1.634  2.9701 -2.0918 -0.4464
 9851SOL    HW230453   0.701   5.272   1.491 -1.9529  1.2975 -3.1260
 9852SOL     OW30454   4.383   3.494   1.573  0.7666  0.1438  0.7998
 9852SOL    HW130455   4.444   3.572   1.593  2.9972 -0.8866 -1.4672
 9852SOL    HW230456   4.424   3.410   1.609 -0.4977 -0.3194  1.2077
 9853SOL     OW30457   5.225   5.886   1.037 -0.3238 -0.0655  0.3690
 9853SOL    HW130458   5.176   5.969   1.062 -1.1876  0.1615 -1.9041
 9853SOL    HW230459   5.162   5.808   1.040 -0.3808 -0.0720 -0.7817
 9854SOL     OW30460   4.367   0.736   1.746 -1.1836  0.0043  0.2783
 9854SOL    HW130461   4.372   0.642   1.777 -1.4183 -0.2800 -0.5196
 9854SOL    HW230462   4.430   0.749   1.669 -1.4493  0.3959  0.1226
 9855SOL     OW30463   2.726   1.006   4.750  0.7110 -0.1849 -0.8266
 9855SOL    HW130464   2.777   1.015   4.835  0.4201 -0.3382 -0.6334
 9855SOL    HW230465   2.706   0.910   4.733 -0.4302 -0.0517 -0.3439
 9856SOL     OW30466   5.110   3.737   5.202  0.2708  0.1525  0.2534
 9856SOL    HW130467   5.139   3.707   5.293  0.3573 -0.4755  0.0219
 9856SOL    HW230468   5.147   3.828   5.184 -0.5135  0.6863  1.2150
 9857SOL     OW30469   1.788   3.523   3.299  0.6127  0.1771  0.2547
 9857SOL    HW130470   1.703   3.495   3.344  0.9167  1.0263  1.4049
 9857SOL    HW230471   1.787   3.491   3.204  0.5230 -2.8548  1.1541
 9858SOL     OW30472   6.019   3.070   6.207  0.0224 -0.2020 -0.0882
 9858SOL    HW130473   6.034   3.068   6.108  0.0604  0.7784 -0.1092
 9858SOL    HW230474   5.931   3.027   6.228  1.2515 -2.9925 -0.2651
 9859SOL     OW30475   3.923   1.743   5.548 -0.4317 -0.3841 -0.5040
 9859SOL    HW130476   3.961   1.656   5.578 -0.6175  0.2751  1.8219
 9859SOL    HW230477   3.912   1.804   5.627  0.0269  1.8923 -2.0809
 9860SOL     OW30478   2.210   6.338   4.447 -0.0468 -0.2642 -0.0113
 9860SOL    HW130479   2.216   6.437   4.459  2.4547 -0.4545  1.0615
 9860SOL    HW230480   2.265   6.310   4.369  4.0198 -1.1572  2.8596
 9861SOL     OW30481   3.663   2.076   0.831 -0.2854 -0.1180  0.6004
 9861SOL    HW130482   3.631   2.166   0.802 -0.0910 -0.1009  0.4365
 9861SOL    HW230483   3.676   2.075   0.930  0.4943  0.2902  0.5143
 9862SOL     OW30484   6.581   3.486   5.890  0.4384 -0.1973  0.2855
 9862SOL    HW130485   6.643   3.564   5.893  0.4774 -0.2536  1.4529
 9862SOL    HW230486   6.580   3.441   5.979 -1.9679  0.3497  0.6230
 9863SOL     OW30487   5.275   0.977   2.907  0.5367 -0.0748 -0.0746
 9863SOL    HW130488   5.373   0.958   2.919  0.7211  0.6331 -0.4506
 9863SOL    HW230489   5.226   0.890   2.898  1.3430 -0.4320 -1.4971
 9864SOL     OW30490   6.070   3.652   5.264  0.5544 -0.0657  0.3634
 9864SOL    HW130491   6.087   3.654   5.166  0.6581 -1.7911  0.3204
 9864SOL    HW230492   6.001   3.720   5.288 -0.4312 -0.5170 -1.0981
 9865SOL     OW30493   6.157   0.102   1.120  0.2581 -0.4198 -0.0965
 9865SOL    HW130494   6.212   0.068   1.196 -0.0155  0.3227  0.4473
 9865SOL    HW230495   6.124   0.194   1.141 -0.2445 -0.4028 -0.8993
 9866SOL     OW30496   1.152   4.628   6.458  0.2842  0.1556  0.6827
 9866SOL    HW130497   1.218   4.619   6.384 -1.0491  0.1534 -0.5580
 9866SOL    HW230498   1.190   4.685   6.531  1.8190 -0.2779  0.2503
 9867SOL     OW30499   0.358   2.900   4.581 -0.4975  0.0005  0.8855
 9867SOL    HW130500   0.354   2.995   4.611 -0.1683 -0.0527  1.0934
 9867SOL    HW230501   0.451   2.877   4.553 -0.5287 -0.3292  1.0473
 9868SOL     OW30502   6.037   4.104   6.459  0.7042 -0.1132  0.0628
 9868SOL    HW130503   6.099   4.167   6.412  0.0810 -0.1517 -0.8375
 9868SOL    HW230504   5.954   4.092   6.405  0.4568 -1.0659  0.6261
 9869SOL     OW30505   4.471   0.661   4.400 -0.0803 -0.0629 -0.4128
 9869SOL    HW130506   4.382   0.638   4.360 -0.0732  0.1852 -0.5756
 9869SOL    HW230507   4.534   0.686   4.326 -0.4315  1.6556 -0.1762
 9870SOL     OW30508   1.039   2.933   3.131  0.5359  0.1703 -0.0962
 9870SOL    HW130509   1.007   3.027   3.142  0.7734  0.0523  1.9960
 9870SOL    HW230510   0.962   2.870   3.133  0.3778  0.2817 -1.4882
 9871SOL     OW30511   6.506   4.638   1.130  0.1108 -0.2871 -0.4294
 9871SOL    HW130512   6.566   4.691   1.071  2.1175  0.0408  1.7754
 9871SOL    HW230513   6.514   4.541   1.107  0.5425 -0.1282 -0.9717
 9872SOL     OW30514   4.134   1.786   6.760 -0.4491  0.0814  0.6591
 9872SOL    HW130515   4.079   1.710   6.795 -0.3159  0.1092  0.9299
 9872SOL    HW230516   4.094   1.873   6.788  1.4513  0.1195  3.6462
 9873SOL     OW30517   2.086   3.433   0.588  0.0843 -0.2153  0.5779
 9873SOL    HW130518   2.060   3.495   0.663 -0.1665  1.0086 -0.4823
 9873SOL    HW230519   2.181   3.449   0.563  0.1925 -0.6837  0.6806
 9874SOL     OW30520   6.620   3.169   5.829 -0.5894  0.1734  0.4529
 9874SOL    HW130521   6.634   3.268   5.820  0.1767  0.0185 -0.1323
 9874SOL    HW230522   6.552   3.139   5.762 -3.6296  0.8569  3.0196
 9875SOL     OW30523   6.338   4.060   3.420 -0.0015  0.4250  0.4667
 9875SOL    HW130524   6.384   4.145   3.394 -0.8670  0.8282  0.2118
 9875SOL    HW230525   6.375   3.984   3.367  1.2884  0.4991  1.2058
 9876SOL     OW30526   6.832   3.072   5.299 -0.4945 -0.4487  0.0748
 9876SOL    HW130527   6.746   3.097   5.256  0.3511  0.7347 -0.9844
 9876SOL    HW230528   6.907   3.080   5.233  0.5344 -0.7496  1.1595
 9877SOL     OW30529   6.700   2.225   0.933  0.0621 -0.2243 -0.5512
 9877SOL    HW130530   6.772   2.225   1.002 -0.1188 -1.6489 -0.3299
 9877SOL    HW230531   6.683   2.131   0.903  0.0053  0.3467 -2.4072
 9878SOL     OW30532   4.585   5.866   5.611 -0.7533 -0.4239  0.7587
 9878SOL    HW130533   4.523   5.933   5.568 -0.5473 -1.0132 -0.5048
 9878SOL    HW230534   4.627   5.810   5.540  1.7272  0.3575  1.5192
 9879SOL     OW30535   4.757   3.896   5.773  0.0591  0.6702 -0.5848
 9879SOL    HW130536   4.776   3.980   5.721 -0.0882  1.4574  0.5935
 9879SOL    HW230537   4.799   3.903   5.863 -2.3843  0.7699  0.6419
 9880SOL     OW30538   6.503   3.643   1.679  0.4414 -0.1445 -0.6379
 9880SOL    HW130539   6.408   3.665   1.659  0.0535 -0.7435  0.4884
 9880SOL    HW230540   6.563   3.708   1.630 -0.5357  0.4346 -1.0970
 9881SOL     OW30541   6.128   4.636   5.006  0.3544  0.4157  0.4742
 9881SOL    HW130542   6.133   4.605   4.911 -0.0319  0.1319  0.5414
 9881SOL    HW230543   6.050   4.696   5.017 -2.2314 -2.8254  1.4694
 9882SOL     OW30544   5.945   1.087   6.701 -0.6260 -0.3620 -0.1990
 9882SOL    HW130545   6.000   1.011   6.735 -2.5096 -2.1098 -0.8718
 9882SOL    HW230546   6.005   1.160   6.669  1.3510 -2.5089 -1.6815
 9883SOL     OW30547   5.195   3.541   2.771 -0.5274  0.3016  0.1909
 9883SOL    HW130548   5.295   3.535   2.771 -0.4562  0.9672  1.5194
 9883SOL    HW230549   5.159   3.497   2.689  0.9689  2.0400 -1.5337
 9884SOL     OW30550   2.236   2.763   1.182 -0.4485 -0.0434  0.1600
 9884SOL    HW130551   2.309   2.726   1.125 -1.4042  0.3915 -1.4117
 9884SOL    HW230552   2.249   2.862   1.194  0.7624 -0.3955  2.3178
 9885SOL     OW30553   5.118   4.705   2.253 -0.1535 -0.0057  0.0004
 9885SOL    HW130554   5.114   4.648   2.171 -0.2561  0.7312 -0.5204
 9885SOL    HW230555   5.035   4.759   2.260  0.4867  1.0339 -0.2269
 9886SOL     OW30556   2.279   2.417   4.905  0.1185  0.0625 -0.9979
 9886SOL    HW130557   2.252   2.411   4.808 -0.5841  0.6323 -0.8430
 9886SOL    HW230558   2.198   2.405   4.963  0.6737 -1.1776 -0.4472
 9887SOL     OW30559   2.497   5.217   3.612  0.6271  0.4073  0.2900
 9887SOL    HW130560   2.557   5.154   3.563 -0.1460 -0.8210  0.8883
 9887SOL    HW230561   2.552   5.276   3.672  1.2227 -1.1173  1.2994
 9888SOL     OW30562   6.776   4.903   6.427 -0.6586  0.7099  0.0251
 9888SOL    HW130563   6.731   4.990   6.408 -2.2874 -0.2112 -0.5224
 9888SOL    HW230564   6.753   4.838   6.355 -1.3372 -0.8528  1.5821
 9889SOL     OW30565   2.476   0.455   2.503  0.3793 -0.0817  0.0433
 9889SOL    HW130566   2.421   0.394   2.446  0.9570 -1.6323  1.0596
 9889SOL    HW230567   2.467   0.427   2.599  0.8786  1.2933  0.5120
 9890SOL     OW30568   6.135   5.874   2.502 -0.6788 -0.0297  0.4449
 9890SOL    HW130569   6.222   5.904   2.541 -1.5032  0.3497  2.1191
 9890SOL    HW230570   6.125   5.910   2.409 -0.2213  2.2319  1.2055
 9891SOL     OW30571   0.819   2.323   4.040 -0.0823  0.1841 -0.3789
 9891SOL    HW130572   0.758   2.316   4.119  0.1946 -1.1460 -0.2600
 9891SOL    HW230573   0.874   2.406   4.047  0.4933 -0.2947  1.2320
 9892SOL     OW30574   4.753   4.289   4.280 -0.4860  0.2212  0.4160
 9892SOL    HW130575   4.846   4.270   4.248 -0.4593 -0.4126  0.8530
 9892SOL    HW230576   4.745   4.263   4.376 -1.1824  0.0463  0.3132
 9893SOL     OW30577   1.895   4.407   5.454 -0.0482  0.5720 -0.4096
 9893SOL    HW130578   1.840   4.420   5.371  0.3125  1.5108 -0.5062
 9893SOL    HW230579   1.897   4.309   5.477  1.0042  0.1090 -2.2973
 9894SOL     OW30580   1.885   1.646   4.568 -0.2436 -0.1097  0.1474
 9894SOL    HW130581   1.817   1.683   4.504 -1.5057  1.5232  2.2843
 9894SOL    HW230582   1.886   1.546   4.560 -0.6470  0.0039 -2.0707
 9895SOL     OW30583   4.676   1.106   4.614  0.3239 -0.1513  0.3932
 9895SOL    HW130584   4.619   1.154   4.680 -0.9823 -0.7739 -0.2463
 9895SOL    HW230585   4.724   1.031   4.659 -0.0388 -0.1684  0.7506
 9896SOL     OW30586   6.537   6.283   5.304  0.6781 -0.1859  0.2087
 9896SOL    HW130587   6.523   6.318   5.397 -0.9966 -1.9361  0.6561
 9896SOL    HW230588   6.459   6.307   5.247  1.7515  0.9852 -0.8512
 9897SOL     OW30589   6.153   3.478   0.027  0.9990  0.2033 -0.5606
 9897SOL    HW130590   6.118   3.567   0.058  0.7017  0.2657 -1.0603
 9897SOL    HW230591   6.147   3.473  -0.073  2.1783  0.1051 -0.6340
 9898SOL     OW30592   0.817   1.509   2.704  0.2261  0.2018 -0.2119
 9898SOL    HW130593   0.865   1.485   2.620 -0.9556 -0.7589 -0.6321
 9898SOL    HW230594   0.756   1.435   2.730 -0.7431  1.2300  0.5217
 9899SOL     OW30595   6.580   5.163   1.497  0.0358  0.1204 -0.0643
 9899SOL    HW130596   6.551   5.151   1.592  0.6630  1.5444  0.3214
 9899SOL    HW230597   6.572   5.259   1.471  0.1475 -0.2046 -1.3740
 9900SOL     OW30598   4.305   1.103   5.442  0.4603 -0.1824 -0.6321
 9900SOL    HW130599   4.373   1.172   5.465  1.2593 -1.5118  1.2710
 9900SOL    HW230600   4.247   1.085   5.521 -0.2097 -1.1378 -1.3139
 9901SOL     OW30601   2.914   5.588   2.356 -0.1919 -0.2410  0.1381
 9901SOL    HW130602   2.935   5.672   2.406 -0.6059 -0.4049  0.6021
 9901SOL    HW230603   2.855   5.609   2.279  0.1029 -0.0443 -0.0384
 9902SOL     OW30604   4.640   1.032   5.676 -0.6922 -0.3609 -0.1068
 9902SOL    HW130605   4.685   1.119   5.657  0.4427 -1.3970 -2.8242
 9902SOL    HW230606   4.701   0.975   5.732  0.8801 -1.1722 -2.4777
 9903SOL     OW30607   2.359   4.205   6.698 -0.4192  0.0502 -0.2505
 9903SOL    HW130608   2.368   4.227   6.601 -0.2971  1.0839 -0.0229
 9903SOL    HW230609   2.371   4.107   6.712 -0.9327 -0.1840 -1.3360
 9904SOL     OW30610   5.289   3.973   5.195 -0.3764 -0.5322  0.2562
 9904SOL    HW130611   5.238   4.036   5.254 -0.4645  1.7985 -2.0732
 9904SOL    HW230612   5.383   4.006   5.184 -0.8484  0.2252 -2.2435
 9905SOL     OW30613   0.819   3.440   4.842 -0.3537  0.1321  0.8012
 9905SOL    HW130614   0.732   3.455   4.795 -0.3597 -0.1189  0.7301
 9905SOL    HW230615   0.804   3.380   4.921 -0.0613 -0.8223  0.1477
 9906SOL     OW30616   1.035   4.092   2.065 -0.1022  0.0605  0.3002
 9906SOL    HW130617   0.976   4.122   2.139  0.2216 -0.7986  0.9285
 9906SOL    HW230618   1.111   4.156   2.053  0.9425 -0.7787  2.0468
 9907SOL     OW30619   1.141   0.735   3.701  0.3105  0.2038 -0.4449
 9907SOL    HW130620   1.079   0.812   3.716 -0.8123 -0.3282 -2.0598
 9907SOL    HW230621   1.089   0.657   3.666  1.1398 -1.8369  2.4685
 9908SOL     OW30622   0.516   3.703   6.900  0.3693  0.2664 -0.3528
 9908SOL    HW130623   0.459   3.784   6.910  0.0448 -0.1058  0.9899
 9908SOL    HW230624   0.607   3.729   6.868  0.1249  1.1048 -0.3761
 9909SOL     OW30625   3.409   1.472   3.374 -0.7878 -0.4973 -0.3058
 9909SOL    HW130626   3.376   1.453   3.466 -1.2378 -2.7861 -0.8786
 9909SOL    HW230627   3.352   1.543   3.332 -0.9746  0.1048  0.9094
 9910SOL     OW30628   3.840   3.899   4.641  0.5416 -0.1014  0.2101
 9910SOL    HW130629   3.764   3.938   4.590  1.2250 -0.0804 -0.8043
 9910SOL    HW230630   3.806   3.824   4.698  0.1219 -1.6693 -2.0157
 9911SOL     OW30631   0.275   1.072   5.123 -0.1235 -0.4466  0.2364
 9911SOL    HW130632   0.251   1.133   5.198 -0.6348 -1.1353  0.6477
 9911SOL    HW230633   0.314   1.125   5.047 -1.8245  0.5680  0.0259
 9912SOL     OW30634   6.247   6.430   3.128 -0.3966  0.1875 -0.3161
 9912SOL    HW130635   6.284   6.341   3.103 -0.7367  0.4552 -1.9298
 9912SOL    HW230636   6.298   6.502   3.081 -1.0315  0.7364 -0.1867
 9913SOL     OW30637   4.271   6.479   5.627 -0.1196  0.6139 -0.1995
 9913SOL    HW130638   4.352   6.516   5.673 -0.0855  0.6365 -0.2772
 9913SOL    HW230639   4.300   6.426   5.547  0.0651 -1.8943  1.3937
 9914SOL     OW30640   0.652   5.436   2.929  0.6906  0.5760  0.8120
 9914SOL    HW130641   0.707   5.378   2.989  2.5536 -1.5666 -2.6369
 9914SOL    HW230642   0.558   5.401   2.926  1.5986 -2.0551 -0.6443
 9915SOL     OW30643   0.961   6.840   5.214 -0.1632 -0.0639  0.2115
 9915SOL    HW130644   0.864   6.864   5.213 -0.7799 -2.2553  1.3082
 9915SOL    HW230645   0.976   6.759   5.157  1.1490  0.5539 -0.3770
 9916SOL     OW30646   0.171   1.371   2.113  0.1493  0.2673 -0.2362
 9916SOL    HW130647   0.183   1.288   2.168  1.9616  0.6266 -0.0158
 9916SOL    HW230648   0.252   1.385   2.055 -0.3087  1.6534 -0.5919
 9917SOL     OW30649   6.921   2.794   1.978  0.0503  0.3671 -0.0672
 9917SOL    HW130650   6.882   2.851   2.051  1.1849  2.7838 -1.2313
 9917SOL    HW230651   6.962   2.712   2.018 -0.4919  0.9810  1.8572
 9918SOL     OW30652   4.476   6.321   4.481 -0.0246  0.0001 -0.4918
 9918SOL    HW130653   4.463   6.254   4.554 -3.2275 -0.1190 -1.0393
 9918SOL    HW230654   4.537   6.283   4.412  0.7440 -1.0406  0.7135
 9919SOL     OW30655   1.895   4.588   4.489  0.0062  0.1670 -0.2676
 9919SOL    HW130656   1.948   4.560   4.409  1.0191 -0.7793  0.6966
 9919SOL    HW230657   1.827   4.517   4.510  0.1533  0.1246  0.0653
 9920SOL     OW30658   4.500   1.021   6.796  0.3671  0.6255  0.2295
 9920SOL    HW130659   4.523   1.015   6.893  3.1071 -0.7081 -0.3925
 9920SOL    HW230660   4.558   0.958   6.744 -0.3631  1.9573 -2.3943
 9921SOL     OW30661   1.226   0.153   4.742 -0.0322  0.8353 -0.2555
 9921SOL    HW130662   1.257   0.139   4.648 -0.0768  3.7020 -0.7928
 9921SOL    HW230663   1.165   0.080   4.769 -0.4344  0.2202 -2.6501
 9922SOL     OW30664   1.084   0.314   2.864  0.4386 -0.2124 -0.3981
 9922SOL    HW130665   0.994   0.345   2.833  1.0702  0.4527 -1.6490
 9922SOL    HW230666   1.088   0.319   2.964 -1.2073 -1.1319 -0.2576
 9923SOL     OW30667   0.983   5.080   1.560 -0.1683 -0.1976 -0.1054
 9923SOL    HW130668   0.909   5.110   1.620 -0.7977  1.7390 -1.7363
 9923SOL    HW230669   1.067   5.127   1.585 -0.8176  1.9792 -1.7087
 9924SOL     OW30670   1.066   2.106   0.781 -0.1584  0.2445  0.3712
 9924SOL    HW130671   1.135   2.177   0.790 -0.3771  0.2836  2.0769
 9924SOL    HW230672   0.990   2.125   0.843 -1.7719  0.2403 -1.5025
 9925SOL     OW30673   4.920   1.319   2.174  0.5747 -0.3144  0.9010
 9925SOL    HW130674   4.927   1.290   2.078  1.2062  0.6054  0.6541
 9925SOL    HW230675   4.869   1.405   2.179  0.4607 -0.4108  1.3974
 9926SOL     OW30676   5.109   1.904   0.091  0.7238  0.2274  0.0114
 9926SOL    HW130677   5.188   1.879   0.147 -0.4534 -0.6493  1.3304
 9926SOL    HW230678   5.124   1.873  -0.003  0.8174 -2.4635  0.8265
 9927SOL     OW30679   3.225   3.299   2.323  0.1987  0.1086 -0.2801
 9927SOL    HW130680   3.152   3.326   2.261  0.2597  0.8041 -0.0592
 9927SOL    HW230681   3.209   3.338   2.414 -0.2681 -1.4861  0.3617
 9928SOL     OW30682   0.765   6.904   6.426  0.3072  0.0051  0.4647
 9928SOL    HW130683   0.766   6.804   6.422  1.7678 -0.0108  0.8181
 9928SOL    HW230684   0.684   6.938   6.377 -0.2004 -1.3357  0.3209
 9929SOL     OW30685   2.983   2.801   6.142 -0.2385  0.3485  0.4014
 9929SOL    HW130686   2.934   2.726   6.098  0.5163  0.5399 -0.8116
 9929SOL    HW230687   2.960   2.887   6.097  0.0808  0.6355  0.7793
 9930SOL     OW30688   3.188   2.897   0.000  0.3076 -0.1719 -0.1902
 9930SOL    HW130689   3.129   2.896  -0.081  0.1526  0.6278 -0.1005
 9930SOL    HW230690   3.282   2.915  -0.027 -0.0915  2.6111 -0.0415
 9931SOL     OW30691   6.791   2.193   1.715  0.1271  0.0820 -0.0130
 9931SOL    HW130692   6.807   2.286   1.750  2.8679 -0.4799  0.4658
 9931SOL    HW230693   6.804   2.127   1.788  0.5685 -0.8048 -0.8689
 9932SOL     OW30694   2.755   5.957   2.448 -0.1180  0.3150 -0.2958
 9932SOL    HW130695   2.737   6.016   2.527  1.2488 -0.2099  0.4550
 9932SOL    HW230696   2.681   5.965   2.382 -0.6837  1.7310  0.4683
 9933SOL     OW30697   0.127   4.439   2.475 -0.5958  0.1718 -0.0681
 9933SOL    HW130698   0.192   4.497   2.425  0.0033 -1.2086 -0.9699
 9933SOL    HW230699   0.160   4.344   2.473 -1.0038 -0.0580  2.2710
 9934SOL     OW30700   1.302   3.355   5.964 -0.1594 -0.0383 -0.5564
 9934SOL    HW130701   1.324   3.392   5.874 -0.0743 -1.3143 -1.0820
 9934SOL    HW230702   1.305   3.255   5.961  2.8568 -0.1589  1.5590
 9935SOL     OW30703   0.938   6.017   5.985  0.2776  0.1673  0.5596
 9935SOL    HW130704   0.855   5.961   5.994  1.2260 -1.5092 -0.5889
 9935SOL    HW230705   0.916   6.101   5.936 -0.5073 -0.9171 -1.0524
 9936SOL     OW30706   4.143   6.018   6.402  0.8211  0.6672 -0.5196
 9936SOL    HW130707   4.147   5.945   6.470 -1.0265 -0.4045 -1.5149
 9936SOL    HW230708   4.173   5.983   6.313 -0.1159  1.1006 -1.0139
 9937SOL     OW30709   4.194   5.126   4.667  0.3148 -0.4001 -0.3780
 9937SOL    HW130710   4.282   5.078   4.673  1.9508  2.4979  0.8755
 9937SOL    HW230711   4.149   5.124   4.756  1.3276  1.8447  0.2534
 9938SOL     OW30712   0.834   6.866   1.190  0.1707 -0.0297  0.5789
 9938SOL    HW130713   0.872   6.895   1.277  2.2388  2.5196 -1.0155
 9938SOL    HW230714   0.903   6.818   1.137  0.2508  1.7768 -1.0787
 9939SOL     OW30715   1.669   6.597   4.171  0.2041 -0.0117  0.4856
 9939SOL    HW130716   1.623   6.526   4.117 -0.9835 -0.1227  1.5976
 9939SOL    HW230717   1.655   6.686   4.127  1.2421 -0.3766 -0.6248
 9940SOL     OW30718   1.677   6.464   0.607 -0.4758 -0.0976 -0.2616
 9940SOL    HW130719   1.769   6.497   0.628 -0.9264 -0.5801  2.9915
 9940SOL    HW230720   1.613   6.540   0.609 -0.4461 -0.0682 -0.4174
 9941SOL     OW30721   5.902   4.157   4.881  0.5702  1.0214  0.5297
 9941SOL    HW130722   5.891   4.252   4.853  1.0310  0.5701 -1.3668
 9941SOL    HW230723   5.995   4.127   4.860  0.2892  0.0240  0.6561
 9942SOL     OW30724   0.016   5.323   5.872  0.0013  0.3082 -0.4451
 9942SOL    HW130725   0.054   5.414   5.887 -0.9217  0.7719 -0.8533
 9942SOL    HW230726   0.049   5.287   5.785  1.7050 -0.4714  0.4747
 9943SOL     OW30727   3.723   3.925   6.460 -0.2160  0.1849 -0.2002
 9943SOL    HW130728   3.736   3.922   6.559  0.4075  0.4549 -0.2704
 9943SOL    HW230729   3.807   3.897   6.415 -0.3366  0.5599 -0.6627
 9944SOL     OW30730   1.432   0.581   0.929  0.0546  0.3793 -0.4661
 9944SOL    HW130731   1.424   0.484   0.909 -1.4684  0.1503  1.0734
 9944SOL    HW230732   1.341   0.621   0.938  0.6623  1.7138  0.0502
 9945SOL     OW30733   0.713   4.656   3.589  0.1352  0.0036  0.3267
 9945SOL    HW130734   0.664   4.727   3.538  0.7118 -0.8439 -1.4813
 9945SOL    HW230735   0.755   4.592   3.525  0.4804 -1.4106  1.9054
 9946SOL     OW30736   5.100   2.889   6.015  0.0013 -0.5650 -0.3731
 9946SOL    HW130737   5.105   2.988   5.999  1.4276 -0.7633 -1.2442
 9946SOL    HW230738   5.162   2.865   6.090 -1.8384 -0.5608  1.2417
 9947SOL     OW30739   3.993   0.535   1.951 -0.2001 -0.3956  0.0281
 9947SOL    HW130740   3.930   0.594   1.901  0.4922 -0.4665 -0.9438
 9947SOL    HW230741   4.070   0.589   1.985  0.4268 -0.7087 -0.8480
 9948SOL     OW30742   4.983   2.709   5.198  0.4138  0.3899  0.6537
 9948SOL    HW130743   4.995   2.802   5.163  0.1854 -0.0690 -0.7047
 9948SOL    HW230744   5.065   2.655   5.179 -0.5475 -0.4990 -1.3526
 9949SOL     OW30745   1.083   2.718   5.603  0.4939  0.1873  0.2531
 9949SOL    HW130746   1.048   2.666   5.681 -0.7461 -1.1803 -1.1373
 9949SOL    HW230747   1.122   2.656   5.535 -2.0102  0.8022 -1.9659
 9950SOL     OW30748   1.113   5.693   4.043  0.1522  0.1516 -0.2713
 9950SOL    HW130749   1.157   5.783   4.036 -0.7049  0.6816  0.7730
 9950SOL    HW230750   1.033   5.700   4.103 -0.8100 -0.9891 -1.3615
 9951SOL     OW30751   1.886   6.339   6.660  0.1982  0.2230 -0.3072
 9951SOL    HW130752   1.821   6.301   6.725  1.0069  0.6210  0.7488
 9951SOL    HW230753   1.959   6.273   6.643  0.0727  0.1815 -0.6995
 9952SOL     OW30754   2.703   4.592   6.437  0.2794 -0.3892  0.0317
 9952SOL    HW130755   2.749   4.680   6.450  0.4643 -0.3548 -0.7993
 9952SOL    HW230756   2.621   4.605   6.381  0.5702 -0.8140 -0.4992
 9953SOL     OW30757   2.534   6.930   6.528  0.1478  0.2624 -0.2361
 9953SOL    HW130758   2.533   7.028   6.546 -1.4099  1.2167 -4.4130
 9953SOL    HW230759   2.618   6.906   6.478 -0.3428 -0.1358 -0.8801
 9954SOL     OW30760   3.931   5.982   1.074 -0.3298  0.0830 -0.4508
 9954SOL    HW130761   3.983   6.020   0.997 -0.4832 -0.2671 -0.7289
 9954SOL    HW230762   3.839   5.960   1.043 -1.3065  2.4936  0.4826
 9955SOL     OW30763   5.343   2.632   1.257  0.4462 -0.5904  0.0375
 9955SOL    HW130764   5.417   2.666   1.199  0.3767  1.2344  0.9432
 9955SOL    HW230765   5.258   2.632   1.205  0.6243 -0.2762 -0.2574
 9956SOL     OW30766   1.612   6.001   6.232 -0.4297  0.2109  0.0573
 9956SOL    HW130767   1.676   6.078   6.238  0.7428 -0.8310  2.0834
 9956SOL    HW230768   1.522   6.030   6.263 -0.0900  0.8629  0.4467
 9957SOL     OW30769   1.678   3.831   2.972 -0.1973 -0.1442 -0.4754
 9957SOL    HW130770   1.596   3.780   2.948 -0.8418  0.9537 -0.6409
 9957SOL    HW230771   1.660   3.891   3.049  0.8267 -0.8475  0.3498
 9958SOL     OW30772   6.762   6.449   1.464 -0.3969 -0.1463 -0.2861
 9958SOL    HW130773   6.705   6.396   1.401  1.2376 -1.4780 -0.7095
 9958SOL    HW230774   6.770   6.400   1.551  1.1410 -0.6518 -0.6861
 9959SOL     OW30775   2.856   0.453   2.857 -0.1849  0.3640 -0.3922
 9959SOL    HW130776   2.939   0.503   2.883 -0.4485 -0.1046  1.4510
 9959SOL    HW230777   2.782   0.519   2.843 -0.0773  0.6387  0.2532
 9960SOL     OW30778   2.840   2.069   5.313  0.2239 -0.3336 -0.1726
 9960SOL    HW130779   2.924   2.014   5.311 -1.1842 -2.7062  1.3681
 9960SOL    HW230780   2.864   2.166   5.305  3.1905 -0.8412  1.2725
 9961SOL     OW30781   2.190   3.069   0.325 -0.6109 -0.3473  0.1303
 9961SOL    HW130782   2.198   2.969   0.317 -0.8232 -0.3500 -0.0865
 9961SOL    HW230783   2.277   3.112   0.298 -0.1120 -0.5218  1.4174
 9962SOL     OW30784   6.353   5.264   3.334  0.6510 -0.1061 -0.0055
 9962SOL    HW130785   6.374   5.172   3.368 -0.4840  0.2149  1.6954
 9962SOL    HW230786   6.414   5.331   3.376 -0.9172  0.3235  1.7243
 9963SOL     OW30787   6.633   3.308   5.442  0.0619  0.6377 -0.2362
 9963SOL    HW130788   6.708   3.343   5.497  0.4601  3.1990 -2.2097
 9963SOL    HW230789   6.651   3.325   5.345 -2.6426  0.5363 -0.8592
 9964SOL     OW30790   5.503   1.512   4.831  0.7984 -0.5812 -0.1075
 9964SOL    HW130791   5.595   1.543   4.854  1.4118 -1.6851 -0.9296
 9964SOL    HW230792   5.438   1.545   4.899  1.9548 -0.6360  1.0671
 9965SOL     OW30793   1.719   4.381   2.878 -0.0451  0.2008  0.0790
 9965SOL    HW130794   1.706   4.282   2.886  0.9557 -0.0892 -1.4295
 9965SOL    HW230795   1.691   4.426   2.963 -1.0055 -1.3133  0.6009
 9966SOL     OW30796   1.499   6.159   3.362  0.0778  0.5170  0.0874
 9966SOL    HW130797   1.540   6.163   3.453  1.1780 -0.8508 -0.3198
 9966SOL    HW230798   1.532   6.078   3.314 -2.2098  0.0085 -0.7268
 9967SOL     OW30799   3.470   0.752   3.053  0.5152 -0.0562 -0.0691
 9967SOL    HW130800   3.438   0.738   3.147 -0.4887  0.6784 -0.2795
 9967SOL    HW230801   3.502   0.665   3.015 -0.0966 -0.5777  0.5796
 9968SOL     OW30802   3.083   2.899   6.759  0.1142 -0.5525 -0.3863
 9968SOL    HW130803   3.152   2.873   6.691  0.6510  1.6212 -0.7365
 9968SOL    HW230804   2.992   2.896   6.717  0.3907  0.2697 -1.0610
 9969SOL     OW30805   1.876   3.574   2.223  0.5359  0.0553  0.2991
 9969SOL    HW130806   1.973   3.591   2.240  0.2913  0.6166  1.2745
 9969SOL    HW230807   1.823   3.655   2.251 -0.3505 -0.8421  1.3517
 9970SOL     OW30808   4.477   6.528   6.110 -0.4060  0.9220 -0.5418
 9970SOL    HW130809   4.559   6.477   6.086 -0.4145  0.3832  0.5311
 9970SOL    HW230810   4.500   6.625   6.119  0.1458  0.7538 -0.1060
 9971SOL     OW30811   5.033   3.899   0.502 -0.0275 -0.2548  0.1739
 9971SOL    HW130812   5.126   3.929   0.525 -0.0289 -0.1692  0.0647
 9971SOL    HW230813   4.969   3.975   0.513 -0.0939 -0.3285  0.3039
 9972SOL     OW30814   6.841   3.341   0.866  0.6367  0.2560 -0.1097
 9972SOL    HW130815   6.929   3.316   0.907  0.9026  2.0606  0.5171
 9972SOL    HW230816   6.849   3.429   0.821 -0.6972  0.1381 -0.6215
 9973SOL     OW30817   5.448   2.044   3.246  0.8002 -0.1003 -0.3188
 9973SOL    HW130818   5.436   2.046   3.345 -0.0610 -1.3733 -0.3836
 9973SOL    HW230819   5.544   2.064   3.224  1.5974 -2.2261  0.9309
 9974SOL     OW30820   5.565   0.263   5.464  0.1022 -0.8047  0.3546
 9974SOL    HW130821   5.508   0.310   5.531 -0.4609  0.1708 -0.7787
 9974SOL    HW230822   5.655   0.246   5.503  0.1825  0.8513  0.9312
 9975SOL     OW30823   5.414   4.241   3.034  0.2460 -0.2097  0.3837
 9975SOL    HW130824   5.397   4.304   3.110 -3.3981 -0.3830 -0.1064
 9975SOL    HW230825   5.441   4.293   2.953  1.2402  0.2707  1.0067
 9976SOL     OW30826   1.441   1.034   4.498 -0.2425  0.2141  0.1078
 9976SOL    HW130827   1.527   0.989   4.521  0.5715  1.8940  0.4217
 9976SOL    HW230828   1.367   0.966   4.500  0.8832 -1.0398  0.8843
 9977SOL     OW30829   2.010   5.002   5.089  0.0563 -0.2630 -0.5441
 9977SOL    HW130830   2.084   4.935   5.095 -0.7016 -1.1435 -0.8392
 9977SOL    HW230831   1.943   4.985   5.161  0.5808  1.1239  0.3305
 9978SOL     OW30832   5.962   4.103   0.762  0.5064  0.6844 -0.3134
 9978SOL    HW130833   5.935   4.103   0.666 -0.3192  0.5662 -0.0901
 9978SOL    HW230834   6.017   4.184   0.782  1.2639  0.3554 -1.0399
 9979SOL     OW30835   3.560   3.977   6.142 -0.1044 -0.6574  0.6607
 9979SOL    HW130836   3.648   3.929   6.136  0.0607 -0.2282 -0.7623
 9979SOL    HW230837   3.569   4.067   6.101 -0.6506  0.2940  2.5262
 9980SOL     OW30838   6.653   3.442   2.443  0.5487 -0.3945  0.3006
 9980SOL    HW130839   6.679   3.380   2.369  0.7842  0.8395 -0.6786
 9980SOL    HW230840   6.592   3.513   2.408  0.5757  0.1472  1.3117
 9981SOL     OW30841   2.768   6.326   5.699  0.0049 -0.2608  0.0538
 9981SOL    HW130842   2.704   6.377   5.641  1.7516 -0.3528 -2.1103
 9981SOL    HW230843   2.756   6.228   5.682 -0.5573 -0.3759  1.0870
 9982SOL     OW30844   2.890   1.804   2.881  0.2530  0.4185 -0.3476
 9982SOL    HW130845   2.872   1.893   2.921 -1.8873  0.8021 -2.0192
 9982SOL    HW230846   2.965   1.812   2.815 -0.0011  0.9961 -0.5687
 9983SOL     OW30847   1.531   4.976   2.562  0.1554  0.7394  0.0759
 9983SOL    HW130848   1.483   5.020   2.486  1.8117 -0.3151 -1.6707
 9983SOL    HW230849   1.481   4.896   2.592 -1.5599  2.2816  1.5465
 9984SOL     OW30850   1.367   5.882   4.842  0.9771  0.3675 -0.0346
 9984SOL    HW130851   1.413   5.796   4.863 -0.2828 -0.0793  1.0648
 9984SOL    HW230852   1.302   5.867   4.767 -0.8435 -0.2496  1.5839
 9985SOL     OW30853   0.005   1.004   1.050 -0.1086  0.0935 -0.3046
 9985SOL    HW130854   0.088   1.056   1.071  0.3496 -0.1367 -1.4856
 9985SOL    HW230855   0.013   0.963   0.960 -1.0129 -0.9540  0.0663
 9986SOL     OW30856   5.900   3.755   2.883  0.1617 -0.2459  1.1062
 9986SOL    HW130857   5.951   3.715   2.807  3.1028  1.8170  1.8321
 9986SOL    HW230858   5.841   3.828   2.849  1.8136  0.9812  0.8118
 9987SOL     OW30859   4.256   0.775   5.355  0.0366 -0.3815  0.1461
 9987SOL    HW130860   4.315   0.816   5.286 -1.4331  1.2061 -0.2492
 9987SOL    HW230861   4.173   0.830   5.364 -0.6167 -1.5769  1.8971
 9988SOL     OW30862   0.219   2.274   6.973  0.1154 -0.1566 -0.3016
 9988SOL    HW130863   0.153   2.239   7.038  0.0749 -0.7860 -0.6769
 9988SOL    HW230864   0.171   2.321   6.899  0.0916 -0.5585 -0.5414
 9989SOL     OW30865   6.944   6.993   3.303 -0.2118  0.1595  0.1302
 9989SOL    HW130866   6.892   6.915   3.267 -1.1167  0.7727  0.0668
 9989SOL    HW230867   7.023   6.959   3.354 -0.3830 -0.7897 -0.2063
 9990SOL     OW30868   4.367   6.950   0.383 -0.3108  0.5252  0.4460
 9990SOL    HW130869   4.415   7.037   0.397 -0.3170  0.5855  0.0836
 9990SOL    HW230870   4.323   6.950   0.294  0.7262 -0.3428 -0.0834
 9991SOL     OW30871   3.439   4.176   3.536  0.0300 -0.4321 -0.4430
 9991SOL    HW130872   3.378   4.152   3.612  1.4404  0.8503  1.1893
 9991SOL    HW230873   3.433   4.274   3.519 -1.2050 -0.8591 -2.9461
 9992SOL     OW30874   4.426   2.741   1.410 -0.1640 -0.6681  0.0390
 9992SOL    HW130875   4.466   2.650   1.411 -2.1712 -1.6455  2.4024
 9992SOL    HW230876   4.493   2.807   1.446  1.5165 -0.9956 -2.2463
 9993SOL     OW30877   4.279   3.030   0.855 -0.2837  0.2149  0.2544
 9993SOL    HW130878   4.255   2.974   0.776 -0.4904  0.4141  0.1742
 9993SOL    HW230879   4.307   3.121   0.825 -0.4292  0.3138  0.4138
 9994SOL     OW30880   3.204   1.635   5.606  0.5703  0.3089  0.0450
 9994SOL    HW130881   3.144   1.558   5.625  0.8562  0.1504  0.3148
 9994SOL    HW230882   3.277   1.638   5.674  0.5917  0.7859  0.0023
 9995SOL     OW30883   4.541   5.293   6.531 -0.3004 -0.1132  0.1614
 9995SOL    HW130884   4.491   5.216   6.491 -1.7621  0.3117  1.0793
 9995SOL    HW230885   4.571   5.269   6.623 -2.1690  0.8936  1.0937
 9996SOL     OW30886   3.861   3.004   2.819  0.2705  0.0555  0.4522
 9996SOL    HW130887   3.890   2.918   2.777  0.3719  0.6601 -0.7648
 9996SOL    HW230888   3.921   3.078   2.788 -0.8265  0.8451  0.1540
 9997SOL     OW30889   5.424   2.221   0.175  0.4267 -0.3341 -0.0906
 9997SOL    HW130890   5.352   2.172   0.224  0.0525 -0.7841 -1.0719
 9997SOL    HW230891   5.417   2.201   0.077  0.5735  1.2917 -0.4563
 9998SOL     OW30892   5.519   1.756   0.497 -0.0407 -0.1067  0.9225
 9998SOL    HW130893   5.559   1.711   0.576  0.5007  1.0423  1.3380
 9998SOL    HW230894   5.541   1.705   0.414 -0.8315 -1.4632  1.5148
 9999SOL     OW30895   6.563   1.346   2.858 -0.0866  0.2894 -0.2710
 9999SOL    HW130896   6.592   1.285   2.931 -0.8026  1.5507  1.1270
 9999SOL    HW230897   6.486   1.306   2.808 -1.7048  0.7345  1.7486
10000SOL     OW30898   3.622   2.906   2.909 -0.5462 -0.0388  0.1204
10000SOL    HW130899   3.593   2.992   2.950 -1.9444 -0.2368 -0.4050
10000SOL    HW230900   3.706   2.920   2.857 -0.5911  0.9262  0.2998
10001SOL     OW30901   6.731   4.431   0.176 -0.2902  0.8739  0.0514
10001SOL    HW130902   6.678   4.407   0.258  1.0619 -0.3596  0.6177
10001SOL    HW230903   6.756   4.527   0.180 -0.6162  0.9379  0.8875
10002SOL     OW30904   2.509   4.087   0.118  0.0482 -0.0402 -0.0835
10002SOL    HW130905   2.548   4.164   0.068 -1.2616  0.8506  0.1973
10002SOL    HW230906   2.456   4.121   0.196 -1.3296 -1.1439 -0.4815
10003SOL     OW30907   2.926   1.312   0.630 -0.2490 -0.2669  0.0435
10003SOL    HW130908   2.889   1.221   0.647 -1.4873  0.0345 -0.8584
10003SOL    HW230909   3.024   1.306   0.610 -0.5920 -1.5994 -1.4551
10004SOL     OW30910   2.914   4.879   5.065 -0.0261  0.4028  0.1243
10004SOL    HW130911   2.891   4.785   5.090 -2.4744  1.1141  0.7762
10004SOL    HW230912   2.939   4.883   4.969 -1.8834 -0.6534 -0.4436
10005SOL     OW30913   5.695   3.066   6.010 -0.0013 -0.2478  0.3116
10005SOL    HW130914   5.618   3.118   6.047 -0.0397 -0.5740  0.6923
10005SOL    HW230915   5.709   3.093   5.914 -1.7709 -1.4890 -0.3554
10006SOL     OW30916   3.061   1.254   6.865 -0.6700  0.0736 -0.3163
10006SOL    HW130917   3.082   1.195   6.786 -1.6952  0.1687 -0.6843
10006SOL    HW230918   3.071   1.350   6.838 -0.4311  0.0961 -0.1482
10007SOL     OW30919   3.416   3.203   0.582  0.1208  0.4561  0.6326
10007SOL    HW130920   3.324   3.233   0.555  0.3807  0.5011 -0.2617
10007SOL    HW230921   3.484   3.259   0.535  0.6061  0.6550  1.5676
10008SOL     OW30922   2.081   3.220   1.290 -0.0911 -0.2839  0.1508
10008SOL    HW130923   2.035   3.233   1.202 -0.1757 -0.7280  0.1298
10008SOL    HW230924   2.026   3.262   1.362  0.0542  0.2166 -0.0244
10009SOL     OW30925   4.916   5.132   1.528  0.0090  0.9897 -0.4196
10009SOL    HW130926   4.842   5.145   1.594 -0.5989  1.5610 -1.1964
10009SOL    HW230927   4.901   5.048   1.477  0.9904  0.0323  0.7940
10010SOL     OW30928   1.128   0.187   1.441  0.4315  0.0934 -0.1381
10010SOL    HW130929   1.100   0.262   1.500 -0.8384  0.3764 -1.0537
10010SOL    HW230930   1.207   0.140   1.481 -0.3121  0.3388  1.7026
10011SOL     OW30931   3.563   5.604   1.868  0.7165  0.1677 -0.7793
10011SOL    HW130932   3.606   5.695   1.872 -0.0994  0.5306  0.8936
10011SOL    HW230933   3.496   5.602   1.794  0.8709  0.8801 -0.9455
10012SOL     OW30934   0.044   5.692   0.578 -0.4220  0.3390  1.0048
10012SOL    HW130935   0.096   5.667   0.496 -0.9943 -1.4527  1.1323
10012SOL    HW230936   0.096   5.757   0.632 -0.0269  1.5739 -0.7593
10013SOL     OW30937   4.790   0.201   3.121 -0.0744 -0.1983  0.0710
10013SOL    HW130938   4.714   0.136   3.118  1.0761 -1.5749 -1.0266
10013SOL    HW230939   4.815   0.227   3.027  1.8167 -1.0415  0.3010
10014SOL     OW30940   5.824   3.615   0.184  0.0054 -0.1778 -0.3797
10014SOL    HW130941   5.813   3.614   0.085 -1.1128 -1.1616 -0.2681
10014SOL    HW230942   5.754   3.674   0.225  0.8226  0.6940 -0.1932
10015SOL     OW30943   2.474   1.957   2.844 -0.7640  0.3359 -0.2339
10015SOL    HW130944   2.385   1.919   2.818 -1.5757  2.1850 -0.3050
10015SOL    HW230945   2.463   2.052   2.873  1.2930  0.8243 -0.8869
10016SOL     OW30946   1.128   3.121   0.744 -0.3007 -0.0614  0.3543
10016SOL    HW130947   1.223   3.106   0.715  0.5676  1.6393  2.1471
10016SOL    HW230948   1.082   3.177   0.675 -0.5938 -2.2441 -1.3667
10017SOL     OW30949   2.030   2.183   1.516  0.0224 -0.4347 -0.3461
10017SOL    HW130950   2.129   2.184   1.509  0.0911  0.0473  0.5644
10017SOL    HW230951   1.993   2.266   1.473  0.2174  0.7649  1.6619
10018SOL     OW30952   0.867   3.900   5.410  0.3056  0.2915 -0.2216
10018SOL    HW130953   0.863   3.990   5.454  0.1193  0.9572 -1.5499
10018SOL    HW230954   0.946   3.850   5.445  0.3725  0.9306  0.5926
10019SOL     OW30955   0.534   1.647   4.025 -0.4585  0.2717  0.5198
10019SOL    HW130956   0.445   1.686   4.000 -0.6361  0.3041  1.2010
10019SOL    HW230957   0.553   1.569   3.965  0.0641  1.5799 -1.1016
10020SOL     OW30958   1.354   0.141   4.488  0.0740  0.3085 -0.5459
10020SOL    HW130959   1.394   0.109   4.402  0.6020 -0.2442 -0.1093
10020SOL    HW230960   1.421   0.200   4.535  0.7531 -1.2719  0.5760
10021SOL     OW30961   1.111   3.543   3.857  0.3257  0.0459  0.1386
10021SOL    HW130962   1.173   3.622   3.859 -0.0418  0.3272  1.1791
10021SOL    HW230963   1.100   3.508   3.950 -1.4456  0.2995  0.0585
10022SOL     OW30964   6.756   0.027   1.075  0.0693 -0.1764  0.2771
10022SOL    HW130965   6.715  -0.054   1.032  0.7594 -0.0637 -0.6010
10022SOL    HW230966   6.827  -0.002   1.139 -0.6739 -0.3215  1.0602
10023SOL     OW30967   6.286   3.898   6.881  0.1047  0.2340  0.1522
10023SOL    HW130968   6.269   3.848   6.966 -0.5808 -3.3363 -1.8633
10023SOL    HW230969   6.199   3.920   6.837  0.4357  0.0077 -0.6403
10024SOL     OW30970   5.303   4.369   2.427  0.8768  0.0797 -0.4742
10024SOL    HW130971   5.267   4.276   2.430  1.0630 -0.0358 -1.4066
10024SOL    HW230972   5.308   4.400   2.332  1.3696  0.8238 -0.2206
10025SOL     OW30973   6.017   1.505   6.050 -0.6324 -0.0906 -0.4356
10025SOL    HW130974   5.989   1.409   6.047 -0.3528 -0.1608 -0.8558
10025SOL    HW230975   5.936   1.563   6.060 -0.7297 -0.4150  0.7305
10026SOL     OW30976   6.188   1.279   0.110  0.2427 -0.2481  0.6231
10026SOL    HW130977   6.162   1.189   0.074 -0.5432  0.2270 -0.0532
10026SOL    HW230978   6.165   1.349   0.042  1.7196  0.3871  0.7398
10027SOL     OW30979   3.446   5.852   5.774 -0.3297  0.1725 -0.2025
10027SOL    HW130980   3.475   5.914   5.701  0.0537 -0.7312 -0.8391
10027SOL    HW230981   3.372   5.794   5.740  1.4915 -1.9771 -0.7654
10028SOL     OW30982   4.176   0.045   2.825  0.4361 -0.2698 -0.4947
10028SOL    HW130983   4.146   0.064   2.918 -0.2829 -0.4907 -0.6720
10028SOL    HW230984   4.116   0.092   2.760  0.2552 -0.9883 -0.8662
10029SOL     OW30985   0.811   1.552   2.243 -0.0287 -0.0052 -0.0873
10029SOL    HW130986   0.844   1.467   2.202  2.2982 -0.2829  2.1105
10029SOL    HW230987   0.831   1.628   2.181 -1.4831 -0.9255 -1.7654
10030SOL     OW30988   1.438   1.399   6.944 -1.0260  0.5903 -0.3519
10030SOL    HW130989   1.450   1.345   7.027 -0.2186  2.3848  0.7274
10030SOL    HW230990   1.340   1.411   6.927 -1.2014 -0.1062  0.0981
10031SOL     OW30991   1.170   3.415   5.423 -0.4010 -0.5059 -0.3557
10031SOL    HW130992   1.170   3.375   5.331  1.6878 -0.1407 -0.5751
10031SOL    HW230993   1.244   3.372   5.476  1.5796  2.5462 -0.4137
10032SOL     OW30994   2.811   5.542   5.335 -0.5410 -0.1541  0.2728
10032SOL    HW130995   2.778   5.457   5.376  0.0084  0.1412  1.3851
10032SOL    HW230996   2.879   5.584   5.396  0.1543  0.4222 -0.8597
10033SOL     OW30997   1.692   3.579   5.100 -0.4106 -0.2617  0.4992
10033SOL    HW130998   1.624   3.595   5.029 -2.0808 -0.6899  1.9373
10033SOL    HW230999   1.778   3.623   5.074 -1.7139  1.8154 -0.5915
10034SOL     OW31000   3.283   4.712   1.772  0.7354 -0.2653 -0.2480
10034SOL    HW131001   3.254   4.624   1.734 -0.2676  0.3769 -1.0168
10034SOL    HW231002   3.381   4.709   1.792  1.0147 -1.0747 -1.6232
10035SOL     OW31003   6.718   6.121   3.076 -0.0756  0.7200 -0.2809
10035SOL    HW131004   6.700   6.027   3.105  1.3460  0.7489  0.8295
10035SOL    HW231005   6.774   6.121   2.993 -1.1391  0.6199 -1.0213
10036SOL     OW31006   0.643   1.078   1.495  0.9281 -0.0222  0.2804
10036SOL    HW131007   0.663   1.167   1.453 -0.4521 -0.2281 -0.8903
10036SOL    HW231008   0.548   1.077   1.526 -0.6465 -2.5551 -3.8798
10037SOL     OW31009   4.166   4.118   0.568 -0.0230  0.4220 -0.1549
10037SOL    HW131010   4.211   4.198   0.528 -0.4448  0.9149  0.3525
10037SOL    HW231011   4.148   4.134   0.665 -1.1123  0.1518 -0.2985
10038SOL     OW31012   1.000   5.582   1.539  0.0158  0.0417 -0.0798
10038SOL    HW131013   1.085   5.530   1.549  0.6627  1.0175 -0.3216
10038SOL    HW231014   0.986   5.639   1.620 -1.9086 -2.1521  1.2768
10039SOL     OW31015   5.925   2.547   5.054  0.0508  0.6804 -0.4699
10039SOL    HW131016   6.023   2.524   5.056 -0.2842 -0.9515 -1.2212
10039SOL    HW231017   5.871   2.465   5.075 -1.1653  1.9605  1.8317
10040SOL     OW31018   2.590   1.606   1.439  0.3017 -0.1941 -0.3665
10040SOL    HW131019   2.597   1.591   1.340  1.3413 -0.1213 -0.3115
10040SOL    HW231020   2.517   1.548   1.476  1.2344 -1.7629 -0.8624
10041SOL     OW31021   0.377   6.908   0.515  0.3558 -0.7682  0.3837
10041SOL    HW131022   0.428   6.896   0.600 -0.5510 -0.7580  0.9487
10041SOL    HW231023   0.342   7.002   0.510  0.7813 -0.6316 -0.2271
10042SOL     OW31024   0.796   3.525   4.438 -0.2451  0.1529 -0.4960
10042SOL    HW131025   0.837   3.434   4.424 -0.6402 -0.1753  0.4123
10042SOL    HW231026   0.862   3.595   4.411  1.6975 -0.3168  2.5232
10043SOL     OW31027   4.542   4.411   2.756 -0.0641  0.5933 -0.2153
10043SOL    HW131028   4.615   4.374   2.814 -2.1345 -2.6125  0.6103
10043SOL    HW231029   4.561   4.389   2.660 -1.0823 -2.7394  0.2244
10044SOL     OW31030   1.602   3.664   5.341  0.0439 -0.2162  0.1763
10044SOL    HW131031   1.639   3.631   5.254  1.0459 -1.0542  0.9027
10044SOL    HW231032   1.520   3.718   5.323 -0.3467 -1.2033 -1.2283
10045SOL     OW31033   2.422   2.571   3.301 -0.4462 -0.6713  0.1369
10045SOL    HW131034   2.502   2.522   3.266  0.2134  0.0647  0.5843
10045SOL    HW231035   2.353   2.579   3.228  0.2479 -0.5503 -0.5165
10046SOL     OW31036   1.276   3.977   2.957 -0.1495  0.5555 -0.1650
10046SOL    HW131037   1.225   4.058   2.988 -0.8837 -0.2816  0.8873
10046SOL    HW231038   1.280   3.910   3.030  1.6581  0.1758 -0.5617
10047SOL     OW31039   3.655   5.559   5.748  0.1846 -0.4453 -0.2017
10047SOL    HW131040   3.735   5.619   5.748  0.4436 -0.7803 -0.9655
10047SOL    HW231041   3.616   5.555   5.840  0.2615  0.7565 -0.1105
10048SOL     OW31042   2.441   6.134   3.773  0.2580  0.5170  0.6872
10048SOL    HW131043   2.529   6.172   3.746 -0.8571  1.3666 -2.1376
10048SOL    HW231044   2.454   6.071   3.850  3.6747 -1.1334 -1.0112
10049SOL     OW31045   4.617   6.226   6.050 -0.2947 -0.0195  0.6403
10049SOL    HW131046   4.619   6.171   6.134 -0.4384 -0.6484  0.2419
10049SOL    HW231047   4.686   6.191   5.986  1.0785  1.5870  1.1797
10050SOL     OW31048   5.248   1.402   1.474  0.1823  0.1852  0.2978
10050SOL    HW131049   5.273   1.321   1.422 -1.8928  0.6183 -1.5117
10050SOL    HW231050   5.222   1.376   1.567 -2.2658 -1.5362 -0.7944
10051SOL     OW31051   3.583   6.023   6.618  0.3737  0.0068  0.2721
10051SOL    HW131052   3.531   5.947   6.658  1.2166 -1.2387 -0.9327
10051SOL    HW231053   3.676   5.993   6.598  0.2373  0.8259 -1.8108
10052SOL     OW31054   4.839   5.453   1.771  0.5268 -0.2981 -0.3460
10052SOL    HW131055   4.873   5.463   1.864 -0.3048 -1.2075  0.0729
10052SOL    HW231056   4.915   5.458   1.706  1.1110  0.3345  0.3739
10053SOL     OW31057   6.852   4.201   2.198  0.0686  0.0730 -0.1376
10053SOL    HW131058   6.930   4.240   2.246 -0.4204  1.0490 -0.1122
10053SOL    HW231059   6.819   4.121   2.247  1.0801 -0.3891 -0.1783
10054SOL     OW31060   5.588   4.537   4.447 -0.7029  0.3387 -0.2768
10054SOL    HW131061   5.520   4.534   4.520 -1.9769  1.2841 -1.3588
10054SOL    HW231062   5.584   4.452   4.394  0.6770 -0.6289  1.0813
10055SOL     OW31063   4.771   3.691   0.955  0.3993 -0.0604 -0.5868
10055SOL    HW131064   4.816   3.606   0.928  1.4874  0.2439  0.2317
10055SOL    HW231065   4.704   3.716   0.885 -0.0692 -1.6731 -0.7607
10056SOL     OW31066   6.714   5.355   6.533 -0.3044 -0.0350  0.0624
10056SOL    HW131067   6.658   5.426   6.492 -0.4484  0.9539  1.8761
10056SOL    HW231068   6.804   5.392   6.555 -0.1405 -0.6062  0.3853
10057SOL     OW31069   6.637   4.051   0.271  0.1093  0.3890  0.2244
10057SOL    HW131070   6.538   4.040   0.267  0.0700  0.5195  0.7490
10057SOL    HW231071   6.680   3.961   0.284  0.0177  0.4045  0.6534
10058SOL     OW31072   0.593   1.011   3.068 -0.3043  0.0569  0.6602
10058SOL    HW131073   0.687   1.010   3.101  0.4006 -0.4300 -1.2333
10058SOL    HW231074   0.553   1.102   3.081  1.5968  1.2943 -1.5023
10059SOL     OW31075   4.069   2.929   1.748  0.7232 -0.8359  0.8742
10059SOL    HW131076   3.990   2.898   1.799  1.1284 -1.3430  1.2065
10059SOL    HW231077   4.075   3.029   1.752  0.3921 -0.8315  1.2774
10060SOL     OW31078   3.963   0.497   0.261  0.1514  0.3018  0.2214
10060SOL    HW131079   3.954   0.463   0.167 -0.7064  1.3401 -0.0858
10060SOL    HW231080   4.059   0.488   0.290  0.5054  0.3261 -0.8873
10061SOL     OW31081   6.779   6.205   0.506  0.0138 -0.1204 -0.3764
10061SOL    HW131082   6.791   6.107   0.490  2.9364 -0.0931  1.0240
10061SOL    HW231083   6.721   6.218   0.587  0.0115 -0.7218 -0.2716
10062SOL     OW31084   1.838   1.780   6.154  0.5317  0.0266  0.0971
10062SOL    HW131085   1.805   1.692   6.121  1.6714 -0.5365  0.4151
10062SOL    HW231086   1.760   1.837   6.181 -0.2578 -0.5495 -0.9110
10063SOL     OW31087   0.009   3.508   0.290  0.2690 -0.6636 -0.6252
10063SOL    HW131088  -0.014   3.576   0.220 -1.0590 -0.2531  0.1660
10063SOL    HW231089  -0.035   3.421   0.267 -0.0349 -0.5734 -0.3819
10064SOL     OW31090   4.064   6.572   0.939  0.1507  0.1031  0.1077
10064SOL    HW131091   4.162   6.581   0.919  0.4783  0.9561  1.8851
10064SOL    HW231092   4.046   6.483   0.980 -0.0799 -0.5996 -1.4552
10065SOL     OW31093   5.156   5.434   1.846  0.5744  0.2709  0.2014
10065SOL    HW131094   5.081   5.454   1.909  0.1226  0.4214 -0.3747
10065SOL    HW231095   5.137   5.348   1.797  0.9641  0.1064  0.3332
10066SOL     OW31096   6.381   6.718   5.881  0.1999 -0.4330 -0.7083
10066SOL    HW131097   6.339   6.772   5.954  1.3118 -1.3622  0.6854
10066SOL    HW231098   6.434   6.778   5.821  1.5628  0.0904  0.9094
10067SOL     OW31099   4.559   5.463   1.278 -0.0322 -0.9488  0.4821
10067SOL    HW131100   4.484   5.506   1.328 -0.5351 -1.3681  0.0922
10067SOL    HW231101   4.529   5.376   1.240  1.4181 -2.4597  2.5794
10068SOL     OW31102   0.944   5.162   5.701 -0.0588  0.4243  0.5380
10068SOL    HW131103   0.853   5.202   5.692 -0.1439  0.6443  2.1483
10068SOL    HW231104   1.013   5.235   5.692 -0.1315  0.6015  1.3608
10069SOL     OW31105   1.773   4.289   0.057  0.6268 -0.2661 -0.0463
10069SOL    HW131106   1.677   4.264   0.042  0.2139 -0.5459  2.5937
10069SOL    HW231107   1.832   4.235  -0.003 -0.7654 -1.3141 -0.5210
10070SOL     OW31108   4.654   2.446   0.142 -0.3400  0.1883 -0.6030
10070SOL    HW131109   4.647   2.525   0.202 -0.1939 -0.8046  0.7501
10070SOL    HW231110   4.640   2.475   0.047 -1.0104  1.7057 -0.0649
10071SOL     OW31111   5.559   6.836   1.890 -0.1236  0.1855 -1.0114
10071SOL    HW131112   5.485   6.901   1.876  0.5390  0.6668 -2.5624
10071SOL    HW231113   5.589   6.838   1.985 -1.5764  0.5208 -0.5371
10072SOL     OW31114   2.659   4.929   4.373 -0.6035 -0.0061  0.2843
10072SOL    HW131115   2.637   4.931   4.470 -2.0742  1.3136 -0.0318
10072SOL    HW231116   2.709   4.845   4.352 -0.4064 -0.3968  2.1289
10073SOL     OW31117   4.987   1.662   1.597 -0.0730  0.0575  1.3427
10073SOL    HW131118   4.970   1.737   1.660 -1.4788  1.2176 -0.3378
10073SOL    HW231119   5.049   1.692   1.525 -0.9761 -0.2539  0.4206
10074SOL     OW31120   3.333   5.478   1.278 -0.0233 -0.3219  0.2306
10074SOL    HW131121   3.285   5.391   1.285  0.5948 -0.7377 -0.4913
10074SOL    HW231122   3.425   5.462   1.242  0.2195  0.5920  0.4254
10075SOL     OW31123   2.598   0.525   3.677  0.6282 -0.1150  0.3317
10075SOL    HW131124   2.619   0.568   3.589 -0.7107 -1.8979 -0.9249
10075SOL    HW231125   2.579   0.596   3.745  3.0835  1.3492 -0.3813
10076SOL     OW31126   1.003   2.021   2.611 -0.2069 -0.2566  0.2437
10076SOL    HW131127   1.030   1.944   2.552  3.0017  0.6014  0.4278
10076SOL    HW231128   1.058   2.020   2.694 -3.2993 -0.2980  2.4896
10077SOL     OW31129   3.767   3.946   4.076  0.5975  0.7195 -0.4646
10077SOL    HW131130   3.866   3.950   4.083  0.4706  2.3981  1.1007
10077SOL    HW231131   3.733   4.029   4.031 -0.1319  0.5321 -0.2741
10078SOL     OW31132   3.699   0.304   0.314  0.1836 -0.1127  0.5489
10078SOL    HW131133   3.761   0.373   0.351  0.9521 -1.1727  1.2532
10078SOL    HW231134   3.731   0.213   0.337 -1.5309 -0.7038  0.7621
10079SOL     OW31135   4.946   3.168   6.785  0.3608 -0.1025 -0.7081
10079SOL    HW131136   5.025   3.116   6.818 -0.4760 -0.5454  0.6528
10079SOL    HW231137   4.871   3.161   6.850 -0.6018  0.8524 -1.6625
10080SOL     OW31138   1.633   2.342   2.408 -0.9770  0.1519 -0.0451
10080SOL    HW131139   1.551   2.396   2.394  0.3294  2.4266  0.5992
10080SOL    HW231140   1.656   2.341   2.506  0.5902  0.9060 -0.3733
10081SOL     OW31141   6.416   4.999   0.709 -0.2400  0.3127  0.5064
10081SOL    HW131142   6.355   4.921   0.725 -1.5937  1.2920  0.2698
10081SOL    HW231143   6.485   4.973   0.640  1.0545 -1.5220  2.3652
10082SOL     OW31144   0.434   3.758   2.596  0.9548 -0.2719 -0.2186
10082SOL    HW131145   0.525   3.739   2.633  0.9636  1.1407  0.5748
10082SOL    HW231146   0.429   3.854   2.568 -0.4168 -0.2064  0.1728
10083SOL     OW31147   5.631   4.932   0.364  0.7280 -0.2254  0.3233
10083SOL    HW131148   5.600   4.867   0.295  1.0587 -2.2141  1.9507
10083SOL    HW231149   5.650   5.020   0.321 -0.2411 -1.0249 -1.8792
10084SOL     OW31150   2.206   2.111   4.742  0.0543 -0.2037  0.1657
10084SOL    HW131151   2.283   2.157   4.786  0.4884 -0.3657 -0.4023
10084SOL    HW231152   2.138   2.178   4.714  0.7047  0.1174 -0.6961
10085SOL     OW31153   4.500   6.913   5.782  0.7507 -0.2324 -0.2042
10085SOL    HW131154   4.593   6.878   5.786  1.4677  1.6482  0.7831
10085SOL    HW231155   4.502   7.012   5.770 -1.0541  0.1875  2.2132
10086SOL     OW31156   4.940   3.225   2.063 -0.0389  0.4346 -0.1419
10086SOL    HW131157   4.962   3.219   1.965 -0.4001 -1.2399 -0.1458
10086SOL    HW231158   4.867   3.161   2.085  0.5119  0.2815  1.3606
10087SOL     OW31159   3.379   6.067   6.273 -0.0461  0.4171  0.1012
10087SOL    HW131160   3.474   6.078   6.244 -0.3160  1.4061 -0.4785
10087SOL    HW231161   3.319   6.108   6.204 -0.9139 -0.5106  0.2874
10088SOL     OW31162   5.685   4.948   4.540  0.6073  0.2842  0.2599
10088SOL    HW131163   5.648   4.916   4.453  1.2523 -1.2037  0.5036
10088SOL    HW231164   5.742   5.028   4.525 -1.8087  1.9984 -0.2596
10089SOL     OW31165   1.969   1.086   4.818  0.7704 -0.1557  0.1937
10089SOL    HW131166   1.905   1.011   4.832  0.6190 -0.1136 -0.2538
10089SOL    HW231167   2.031   1.062   4.743 -0.1436  0.7246 -0.8684
10090SOL     OW31168   5.361   2.890   1.432 -0.0804 -0.2359  0.1321
10090SOL    HW131169   5.327   2.805   1.393 -0.7780  0.5500 -1.0286
10090SOL    HW231170   5.285   2.955   1.441  0.6013  0.5658  0.1780
10091SOL     OW31171   6.756   3.759   2.548 -0.4606  0.3213 -0.2177
10091SOL    HW131172   6.768   3.713   2.636 -2.1656  1.4681  0.6896
10091SOL    HW231173   6.658   3.776   2.533 -0.2298 -0.0034 -2.4431
10092SOL     OW31174   1.248   2.788   0.724 -0.0104 -0.0536 -0.3374
10092SOL    HW131175   1.320   2.845   0.764 -0.2205 -1.2460  1.8811
10092SOL    HW231176   1.163   2.801   0.775 -0.3394 -1.5430 -0.4659
10093SOL     OW31177   2.768   5.663   4.463 -0.1520 -0.4719  0.3331
10093SOL    HW131178   2.723   5.653   4.552  0.7429 -0.6204  0.7802
10093SOL    HW231179   2.840   5.595   4.454 -1.2128 -1.4522 -1.1480
10094SOL     OW31180   6.253   5.108   3.030  0.2989 -0.3233 -0.8264
10094SOL    HW131181   6.180   5.056   2.985  0.8374 -1.0512 -0.8762
10094SOL    HW231182   6.232   5.117   3.127  0.9119 -1.9501 -0.5084
10095SOL     OW31183   6.361   5.241   1.762  0.1054 -0.0772 -0.0585
10095SOL    HW131184   6.279   5.282   1.722  0.7546  1.3155 -0.0272
10095SOL    HW231185   6.365   5.262   1.860 -0.9733 -2.6354  0.5952
10096SOL     OW31186   0.616   6.693   5.498  0.6534  0.3023  0.1582
10096SOL    HW131187   0.649   6.731   5.585 -0.3091 -0.4095  0.8654
10096SOL    HW231188   0.682   6.626   5.464  0.3858 -0.4659  1.1003
10097SOL     OW31189   4.692   1.552   1.215 -0.0880  0.2361  0.2705
10097SOL    HW131190   4.656   1.599   1.135  0.2843  0.4598  0.2334
10097SOL    HW231191   4.642   1.582   1.297  0.0409  0.5813  0.2250
10098SOL     OW31192   6.655   2.641   0.879 -0.0747  0.3524 -0.1133
10098SOL    HW131193   6.601   2.571   0.832  2.2146 -0.3246 -1.9375
10098SOL    HW231194   6.725   2.596   0.936  0.4431  1.1597 -0.1037
10099SOL     OW31195   3.659   3.421   2.217 -0.6754  0.0281 -0.0598
10099SOL    HW131196   3.676   3.399   2.121 -0.6250 -1.0048  0.1717
10099SOL    HW231197   3.561   3.430   2.232 -0.7089 -0.2016 -0.1317
10100SOL     OW31198   6.832   3.249   2.716 -0.4769 -0.3728  0.2684
10100SOL    HW131199   6.789   3.175   2.665 -0.1124 -1.4932  1.5329
10100SOL    HW231200   6.866   3.318   2.652 -0.9840 -1.1983 -0.9239
10101SOL     OW31201   2.808   6.438   0.865 -0.1636 -0.1199  0.5270
10101SOL    HW131202   2.725   6.384   0.863 -0.1308 -0.2312  1.5397
10101SOL    HW231203   2.880   6.392   0.813 -0.3912 -0.6179  0.6493
10102SOL     OW31204   4.920   6.311   2.508 -0.0023  0.5820  0.3215
10102SOL    HW131205   5.005   6.259   2.512 -0.0312  0.5497  3.6882
10102SOL    HW231206   4.843   6.250   2.525 -0.5973  0.8823 -1.1350
10103SOL     OW31207   4.044   1.768   4.734  0.4161 -0.1361  0.0267
10103SOL    HW131208   4.081   1.852   4.775  1.9677  0.3758 -2.2358
10103SOL    HW231209   4.018   1.705   4.807  1.7051  1.2543  1.7994
10104SOL     OW31210   3.580   0.951   1.545  0.6386 -0.3710 -0.1154
10104SOL    HW131211   3.613   0.926   1.636  2.5172  0.5446 -0.5051
10104SOL    HW231212   3.539   0.870   1.501  2.0146 -1.4802  0.5664
10105SOL     OW31213   0.659   0.368   3.311  0.2917  0.6609  0.2101
10105SOL    HW131214   0.626   0.295   3.370  1.7660 -0.9177 -0.8300
10105SOL    HW231215   0.605   0.369   3.226  0.4954  0.5386  0.0777
10106SOL     OW31216   0.794   5.224   1.349 -0.3771  0.0418  0.2908
10106SOL    HW131217   0.765   5.214   1.253  2.2497  0.7096 -0.6490
10106SOL    HW231218   0.839   5.140   1.379  1.2593  0.7704 -0.0219
10107SOL     OW31219   1.813   3.242   2.035  0.7738  0.1865 -0.1845
10107SOL    HW131220   1.817   3.160   2.092  0.8345  0.9314  0.8963
10107SOL    HW231221   1.893   3.299   2.053 -0.0058  1.1924  0.1524
10108SOL     OW31222   0.383   6.525   0.014 -0.4609  0.1025  0.4818
10108SOL    HW131223   0.396   6.614  -0.028  1.6317  1.5258  3.7103
10108SOL    HW231224   0.459   6.464  -0.009 -0.4638  0.1126  0.4472
10109SOL     OW31225   1.962   5.070   5.748  0.4676  0.1565 -0.1104
10109SOL    HW131226   1.862   5.066   5.752  0.4134 -0.7931 -1.6837
10109SOL    HW231227   1.993   5.161   5.776 -0.8954  0.7089 -0.3414
10110SOL     OW31228   5.597   3.593   6.483 -0.4194  0.1046  0.6582
10110SOL    HW131229   5.583   3.512   6.541  1.2861  0.4984  1.6909
10110SOL    HW231230   5.601   3.565   6.387 -1.8872 -0.7419  0.8106
10111SOL     OW31231   3.015   6.139   6.313  0.3281 -0.4618 -0.0732
10111SOL    HW131232   2.992   6.095   6.399  0.5778  0.2468  0.3621
10111SOL    HW231233   2.938   6.131   6.249 -0.6089  0.6917  0.8807
10112SOL     OW31234   4.642   4.267   5.242  0.1849 -0.3520 -0.7451
10112SOL    HW131235   4.623   4.314   5.156 -0.2840  3.2681  1.1204
10112SOL    HW231236   4.567   4.285   5.306  1.1277 -1.8424  0.8542
10113SOL     OW31237   6.061   2.339   1.450 -0.0494  0.6261  0.0008
10113SOL    HW131238   5.961   2.351   1.450  0.0954  2.0192  0.5505
10113SOL    HW231239   6.104   2.425   1.478  1.3765  0.5472 -1.7854
10114SOL     OW31240   2.976   3.576   2.220  0.0901  0.5805  0.2367
10114SOL    HW131241   2.980   3.603   2.316 -0.2359 -0.9090  0.6963
10114SOL    HW231242   2.922   3.492   2.211  1.2390 -0.0660 -1.0615
10115SOL     OW31243   5.896   0.430   4.470  0.3887 -0.1923  0.4451
10115SOL    HW131244   5.882   0.447   4.568 -0.7719 -0.0416  0.2724
10115SOL    HW231245   5.942   0.342   4.458 -2.6431 -2.0240  1.0739
10116SOL     OW31246   4.881   2.023   6.484 -0.4989  1.0167 -0.2972
10116SOL    HW131247   4.829   2.027   6.399 -1.1081  2.7080  0.1179
10116SOL    HW231248   4.825   2.054   6.560 -0.2186 -1.1993  0.9181
10117SOL     OW31249   3.552   0.233   4.172 -0.1714  0.3334 -1.0326
10117SOL    HW131250   3.576   0.304   4.238  0.3721  0.0872 -0.9631
10117SOL    HW231251   3.628   0.220   4.108 -0.5465  0.3088 -1.4818
10118SOL     OW31252   2.078   3.303   5.130  0.3981  0.4870 -0.1878
10118SOL    HW131253   2.096   3.242   5.053 -2.0337 -1.2200  0.4538
10118SOL    HW231254   2.075   3.249   5.215  2.4545  2.2260  1.0696
10119SOL     OW31255   1.788   2.573   2.547 -0.0916  0.0640 -0.4835
10119SOL    HW131256   1.746   2.542   2.462 -1.5033  0.5517 -0.0036
10119SOL    HW231257   1.729   2.642   2.590  1.2346  0.7874  0.2400
10120SOL     OW31258   3.697   0.576   1.524  0.6056 -0.0399 -0.7746
10120SOL    HW131259   3.749   0.506   1.476  0.0772 -1.3726  0.5451
10120SOL    HW231260   3.757   0.654   1.544  1.3580 -0.3651 -1.6753
10121SOL     OW31261   3.690   3.632   1.835 -0.2591 -0.3585 -0.0371
10121SOL    HW131262   3.696   3.557   1.901 -3.3092 -0.7022 -0.0145
10121SOL    HW231263   3.712   3.719   1.880 -0.5613 -0.7930  0.9572
10122SOL     OW31264   0.333   4.787   1.205  0.5900 -0.2141  0.5952
10122SOL    HW131265   0.286   4.734   1.134 -0.8681 -0.0092  1.3570
10122SOL    HW231266   0.405   4.842   1.163 -3.0757  3.4990 -1.7217
10123SOL     OW31267   4.046   6.176   0.140  0.3346 -0.3417  0.5822
10123SOL    HW131268   3.972   6.159   0.075 -0.1129  1.0448  0.6837
10123SOL    HW231269   4.125   6.119   0.117 -0.3716 -1.0194 -0.2137
10124SOL     OW31270   5.661   2.751   5.424 -0.2298  0.0219  0.9544
10124SOL    HW131271   5.673   2.708   5.513  3.3912  1.3868  1.2976
10124SOL    HW231272   5.714   2.702   5.355 -1.0941  0.3447  0.0321
10125SOL     OW31273   2.016   3.594   0.125 -0.3846 -0.2980  0.6302
10125SOL    HW131274   1.940   3.600   0.189  0.6822 -0.1666  1.9360
10125SOL    HW231275   2.078   3.521   0.153  2.3689  2.4576  2.4093
10126SOL     OW31276   5.584   2.912   3.617  0.0420 -0.8606  0.3527
10126SOL    HW131277   5.638   2.984   3.575 -0.3018  0.1112  1.5232
10126SOL    HW231278   5.643   2.834   3.640  1.5288  0.9949  3.5657
10127SOL     OW31279   3.350   5.612   5.672  0.1814  0.0710 -0.7011
10127SOL    HW131280   3.449   5.624   5.684  0.0452  0.4848  0.0999
10127SOL    HW231281   3.315   5.548   5.741  0.2431 -1.9351 -2.4432
10128SOL     OW31282   3.318   0.334   3.126  0.4341 -0.4875  0.1646
10128SOL    HW131283   3.298   0.269   3.053  1.5361  1.2785 -1.8130
10128SOL    HW231284   3.401   0.386   3.103 -0.3716  1.5799  1.6450
10129SOL     OW31285   3.255   5.224   1.233  0.0103 -0.1767 -0.1926
10129SOL    HW131286   3.308   5.176   1.303  2.1937 -0.0097 -1.6396
10129SOL    HW231287   3.287   5.197   1.142 -1.3649  1.1114 -1.1117
10130SOL     OW31288   0.785   4.919   3.287 -0.1554  0.6054 -0.7936
10130SOL    HW131289   0.867   4.977   3.286  0.9170 -0.6499  2.3316
10130SOL    HW231290   0.807   4.829   3.252 -0.5958  0.6942 -1.3045
10131SOL     OW31291   4.590   2.793   6.648 -0.2852 -0.1634 -0.2639
10131SOL    HW131292   4.630   2.839   6.568 -0.5639  0.0079 -0.3063
10131SOL    HW231293   4.662   2.745   6.698 -0.3035 -1.4313 -1.3824
10132SOL     OW31294   4.301   0.090   3.917 -0.6753 -0.3292  0.3627
10132SOL    HW131295   4.391   0.127   3.894 -0.3886 -0.9519  0.4612
10132SOL    HW231296   4.284   0.102   4.015 -0.1213 -1.3971  0.6100
10133SOL     OW31297   1.703   0.727   2.132  0.1004  0.4897  0.2702
10133SOL    HW131298   1.745   0.789   2.198  3.5269 -1.0839 -0.1756
10133SOL    HW231299   1.648   0.659   2.180  2.4322 -0.5488  1.6085
10134SOL     OW31300   6.826   5.518   0.522  0.3222  0.2945 -0.4017
10134SOL    HW131301   6.822   5.453   0.598 -1.2231  0.3634 -0.3957
10134SOL    HW231302   6.892   5.591   0.544  0.3381 -0.0042  0.6016
10135SOL     OW31303   3.008   5.881   4.100  0.4136 -0.0984  0.0783
10135SOL    HW131304   3.099   5.882   4.140  1.2256 -0.8210 -1.6341
10135SOL    HW231305   2.939   5.890   4.172  1.8291  2.3335  1.2721
10136SOL     OW31306   2.587   4.771   1.552 -0.5937 -0.5797  0.3651
10136SOL    HW131307   2.648   4.799   1.625  0.5467 -2.5863  0.2495
10136SOL    HW231308   2.493   4.769   1.586 -0.3323  0.3808  1.1901
10137SOL     OW31309   0.490   2.129   0.999 -0.5554  0.0663 -0.5250
10137SOL    HW131310   0.510   2.135   1.097  1.0706  0.2563 -0.8513
10137SOL    HW231311   0.400   2.086   0.986 -0.5058 -0.5595  1.0247
10138SOL     OW31312   2.967   1.165   0.322 -0.4200 -0.7936  0.5824
10138SOL    HW131313   3.031   1.190   0.249 -0.3364 -2.4601  0.0574
10138SOL    HW231314   2.875   1.197   0.297 -0.4743 -1.7164 -0.4785
10139SOL     OW31315   3.802   2.712   1.720 -0.6734  0.7977 -0.4347
10139SOL    HW131316   3.729   2.712   1.787 -0.8820 -0.1296 -0.6514
10139SOL    HW231317   3.798   2.797   1.667 -1.8617  0.5770 -0.7318
10140SOL     OW31318   2.706   0.341   3.890  0.1449 -0.0732 -0.5800
10140SOL    HW131319   2.765   0.375   3.963  2.0558 -1.9750 -1.1337
10140SOL    HW231320   2.701   0.409   3.817 -0.7573  1.3167  0.7157
10141SOL     OW31321   0.230   3.024   1.497  0.4205 -0.0235  0.3936
10141SOL    HW131322   0.250   3.026   1.595 -2.9489  0.5224  1.1750
10141SOL    HW231323   0.279   3.099   1.452  1.0792  0.4746  1.8612
10142SOL     OW31324   5.883   0.800   1.875  0.6273  0.6552  0.4402
10142SOL    HW131325   5.858   0.708   1.846 -2.1378  0.9808  1.4771
10142SOL    HW231326   5.868   0.864   1.800  2.8343  0.3061 -0.3788
10143SOL     OW31327   5.413   3.032   0.705  0.0633 -0.2943 -0.1067
10143SOL    HW131328   5.361   2.972   0.644  0.7822 -1.6871  0.6059
10143SOL    HW231329   5.511   3.018   0.690  0.3505  2.8949 -2.0226
10144SOL     OW31330   6.570   6.659   0.575  0.3209 -0.0390 -0.2197
10144SOL    HW131331   6.489   6.660   0.634 -0.2856  1.6064 -1.0231
10144SOL    HW231332   6.569   6.739   0.515  2.4283 -0.1008 -0.4265
10145SOL     OW31333   3.689   0.377   5.344 -0.8136  0.5521 -0.7173
10145SOL    HW131334   3.594   0.400   5.321 -1.1609 -1.3488 -1.3985
10145SOL    HW231335   3.702   0.278   5.336  1.1902  0.7489 -0.4457
10146SOL     OW31336   3.238   3.385   4.795  0.2707  0.1222  0.6656
10146SOL    HW131337   3.198   3.432   4.873  1.7141  1.4830  0.6387
10146SOL    HW231338   3.175   3.390   4.717 -0.3756  0.3962  1.1991
10147SOL     OW31339   2.107   1.412   3.391 -0.2589 -0.2824  0.0333
10147SOL    HW131340   2.024   1.441   3.342  1.6567  4.3586 -1.0113
10147SOL    HW231341   2.185   1.414   3.329  1.4585  0.7144  2.0915
10148SOL     OW31342   6.688   6.211   4.277  0.0221 -0.2790 -0.0671
10148SOL    HW131343   6.711   6.301   4.240 -1.6865  0.0446 -0.4221
10148SOL    HW231344   6.747   6.191   4.355 -1.1875  2.2863  1.6475
10149SOL     OW31345   2.119   4.196   5.778  0.4369  0.1004 -0.6500
10149SOL    HW131346   2.161   4.286   5.766  1.1209  0.1923  1.9009
10149SOL    HW231347   2.175   4.140   5.840 -1.7013 -0.8023  0.5963
10150SOL     OW31348   2.496   5.858   5.190  0.0869  0.4312  0.4609
10150SOL    HW131349   2.541   5.787   5.135 -0.7924 -0.8591  1.3440
10150SOL    HW231350   2.436   5.815   5.257 -0.7488  2.0389  0.8001
10151SOL     OW31351   3.213   6.280   2.360 -0.4265  0.4877  0.1933
10151SOL    HW131352   3.285   6.213   2.344 -0.3167  0.6390  0.0670
10151SOL    HW231353   3.206   6.299   2.458  1.7917  2.8054 -0.0107
10152SOL     OW31354   3.726   5.468   1.648 -0.3717 -0.3603 -0.3713
10152SOL    HW131355   3.684   5.458   1.738 -1.1802 -1.1544 -0.8259
10152SOL    HW231356   3.674   5.534   1.594 -0.4789 -0.6275 -0.5993
10153SOL     OW31357   5.934   0.743   4.235 -0.7007  0.5160 -0.0175
10153SOL    HW131358   5.960   0.750   4.139 -0.0961  0.5818  0.1501
10153SOL    HW231359   5.980   0.664   4.276 -4.6519 -2.7048 -0.9952
10154SOL     OW31360   4.547   1.579   3.224  0.0239 -0.0582 -0.8604
10154SOL    HW131361   4.480   1.654   3.223  0.5071  0.4142  0.0356
10154SOL    HW231362   4.596   1.576   3.137  0.1471  0.8273 -0.8339
10155SOL     OW31363   2.555   0.992   5.723 -0.2469 -0.5819  0.5334
10155SOL    HW131364   2.489   0.960   5.654 -0.4291 -2.9438  1.7373
10155SOL    HW231365   2.640   1.017   5.677 -1.2475  0.5487 -0.8240
10156SOL     OW31366   4.668   6.246   1.209 -0.2821 -0.4091 -0.6434
10156SOL    HW131367   4.610   6.212   1.283  1.0006 -2.0863 -0.3555
10156SOL    HW231368   4.722   6.171   1.171  1.1454  0.9317 -1.3900
10157SOL     OW31369   4.155   6.108   4.288 -0.3033  0.5150 -0.3501
10157SOL    HW131370   4.217   6.054   4.231 -0.0106  1.6496 -1.1564
10157SOL    HW231371   4.209   6.175   4.341 -0.8901  2.8083 -2.4671
10158SOL     OW31372   3.288   3.698   0.313  0.2355 -0.3512  1.3194
10158SOL    HW131373   3.227   3.751   0.372  0.9924  0.3986  1.4500
10158SOL    HW231374   3.325   3.757   0.241  0.5789 -0.8625  1.0685
10159SOL     OW31375   2.951   6.212   5.370  0.6427 -0.0103  1.0973
10159SOL    HW131376   2.951   6.154   5.288 -0.6949  1.1591  0.2225
10159SOL    HW231377   3.017   6.176   5.436  1.6597 -1.0708 -0.4236
10160SOL     OW31378   0.927   0.159   4.159  0.0911  0.0533 -0.4749
10160SOL    HW131379   0.844   0.150   4.214  0.3014 -1.1579 -0.3197
10160SOL    HW231380   0.962   0.252   4.165 -1.2867  0.5983 -0.5901
10161SOL     OW31381   3.622   6.714   5.600  0.5950 -0.2355 -0.1233
10161SOL    HW131382   3.525   6.691   5.608  0.6730 -0.0136  2.0996
10161SOL    HW231383   3.668   6.695   5.687  2.1209  1.5629 -0.4798
10162SOL     OW31384   5.186   6.117   0.806  0.2000 -0.7141 -0.3320
10162SOL    HW131385   5.258   6.121   0.875 -0.4820 -2.3650  0.5133
10162SOL    HW231386   5.191   6.030   0.757 -2.4336 -1.7816  1.1426
10163SOL     OW31387   1.322   5.272   0.876 -0.1157 -0.0980 -0.6384
10163SOL    HW131388   1.356   5.354   0.828 -0.8694  1.0314  0.6928
10163SOL    HW231389   1.358   5.271   0.969 -0.8084 -0.8269 -0.3747
10164SOL     OW31390   0.957   3.417   4.123  0.5159  0.1438  0.0835
10164SOL    HW131391   0.871   3.423   4.072  1.2729 -0.5149 -1.3534
10164SOL    HW231392   0.954   3.480   4.201 -0.7573  1.1129 -0.6945
10165SOL     OW31393   5.204   4.037   1.656 -0.1989 -0.5562  0.6910
10165SOL    HW131394   5.281   4.009   1.599 -0.5511  1.2840 -0.7557
10165SOL    HW231395   5.122   4.046   1.600 -0.8298  0.2130  1.7003
10166SOL     OW31396   5.810   4.136   5.149  0.1573  0.0845  0.4996
10166SOL    HW131397   5.860   4.197   5.088  0.0180  0.7067  0.9911
10166SOL    HW231398   5.873   4.073   5.194  0.2688 -0.3187 -0.2146
10167SOL     OW31399   2.819   1.359   6.983 -0.0892  0.1255 -0.4072
10167SOL    HW131400   2.785   1.421   6.912  0.4625  0.2193 -0.5969
10167SOL    HW231401   2.913   1.333   6.962 -0.2237 -0.5537 -0.1754
10168SOL     OW31402   3.961   2.121   2.608  0.2909 -0.5310  0.0627
10168SOL    HW131403   3.864   2.110   2.588  0.1224  1.7446 -0.6421
10168SOL    HW231404   3.975   2.119   2.707 -0.8761  1.5600  0.3187
10169SOL     OW31405   4.802   1.085   6.525  0.2175 -0.3064  0.6181
10169SOL    HW131406   4.766   1.008   6.578 -0.5773 -0.7821 -0.5658
10169SOL    HW231407   4.871   1.134   6.579  0.1836 -1.3887  1.6773
10170SOL     OW31408   4.349   6.770   1.672 -0.2849  0.6151 -0.4485
10170SOL    HW131409   4.319   6.677   1.694 -0.3328  0.7080 -0.1211
10170SOL    HW231410   4.418   6.766   1.600 -1.1150  0.3994 -1.2688
10171SOL     OW31411   5.085   2.666   2.398  0.6375  0.0782 -0.4426
10171SOL    HW131412   5.052   2.572   2.411  0.3101  0.3465  0.8327
10171SOL    HW231413   5.091   2.686   2.301  2.3938 -1.8593 -0.8069
10172SOL     OW31414   0.509   0.180   1.242 -0.1459  0.0517  0.2964
10172SOL    HW131415   0.454   0.124   1.304 -0.4186  0.4049  0.3752
10172SOL    HW231416   0.582   0.124   1.202 -0.5323 -0.4079  0.2320
10173SOL     OW31417   0.517   5.427   5.276  0.7493 -0.7005 -0.5638
10173SOL    HW131418   0.555   5.488   5.345 -0.4405 -1.2516  0.6002
10173SOL    HW231419   0.449   5.476   5.221  0.5317 -0.6971 -0.2917
10174SOL     OW31420   0.305   5.815   2.163  0.4067 -0.3727  0.3541
10174SOL    HW131421   0.347   5.812   2.073  0.2684  0.1408  0.2750
10174SOL    HW231422   0.308   5.908   2.199 -0.1246 -0.4466  0.6013
10175SOL     OW31423   2.107   3.424   2.732 -0.0022  0.1951 -0.0723
10175SOL    HW131424   2.099   3.339   2.782 -0.4880  0.0259 -0.4294
10175SOL    HW231425   2.175   3.414   2.659 -0.6915 -0.1646 -0.6708
10176SOL     OW31426   2.821   4.157   6.742 -0.3465 -0.5853  0.8671
10176SOL    HW131427   2.785   4.218   6.672  1.6726  0.1273  0.3932
10176SOL    HW231428   2.755   4.084   6.760 -1.5065  0.0256 -0.7239
10177SOL     OW31429   1.938   5.664   4.207 -0.1497 -0.1286 -0.5582
10177SOL    HW131430   1.939   5.722   4.126 -0.2836  0.6885  0.0176
10177SOL    HW231431   2.004   5.699   4.274  0.9312 -1.5558 -0.8271
10178SOL     OW31432   4.783   0.010   0.149 -0.2945 -0.1204 -0.3641
10178SOL    HW131433   4.745  -0.082   0.140 -2.2055  0.6074 -0.1133
10178SOL    HW231434   4.794   0.051   0.059 -0.3562 -0.2368 -0.4246
10179SOL     OW31435   5.301   1.209   2.207 -0.2126 -0.3722 -0.0828
10179SOL    HW131436   5.334   1.300   2.231 -0.7130 -0.4136  0.8013
10179SOL    HW231437   5.214   1.192   2.254 -2.1640  0.1860 -3.1712
10180SOL     OW31438   5.489   4.504   0.507 -0.0702  0.2218 -0.6672
10180SOL    HW131439   5.394   4.537   0.504 -0.3792 -0.4977  0.5707
10180SOL    HW231440   5.522   4.491   0.413 -1.0767  0.7969 -1.1247
10181SOL     OW31441   1.915   1.591   3.124  0.3859 -0.0860 -0.0037
10181SOL    HW131442   1.844   1.583   3.194  0.7026  1.8880  0.5935
10181SOL    HW231443   1.950   1.684   3.122  0.1145  0.0665 -3.0735
10182SOL     OW31444   2.807   3.753   6.083  0.0798 -0.1845  0.0623
10182SOL    HW131445   2.892   3.735   6.133  0.3964  0.4530 -0.2244
10182SOL    HW231446   2.775   3.669   6.041  1.2556 -0.2031 -0.8601
10183SOL     OW31447   5.187   2.130   3.311 -0.4073  0.2308  0.0349
10183SOL    HW131448   5.126   2.126   3.232 -0.0148 -0.8728 -0.2312
10183SOL    HW231449   5.282   2.119   3.281 -0.0969  1.3907  0.5048
10184SOL     OW31450   3.872   0.486   6.547  0.1709 -0.1901  0.3463
10184SOL    HW131451   3.885   0.585   6.556  0.7329 -0.1203 -0.9884
10184SOL    HW231452   3.801   0.468   6.478 -0.7419 -0.7157  1.3900
10185SOL     OW31453   3.837   5.085   6.522  0.1113 -0.6695 -0.0190
10185SOL    HW131454   3.754   5.035   6.546 -2.0904  1.4785 -2.5519
10185SOL    HW231455   3.814   5.178   6.495  3.6153  0.6263  0.9290
10186SOL     OW31456   1.123   6.753   6.984  0.1489 -0.2047  0.3820
10186SOL    HW131457   1.159   6.805   6.906  2.2339 -1.3328  0.5099
10186SOL    HW231458   1.108   6.658   6.956  2.2347 -0.9684  1.6229
10187SOL     OW31459   4.849   6.485   0.466 -0.0016  0.6419  0.6556
10187SOL    HW131460   4.762   6.535   0.472 -0.7544 -0.6208  0.5893
10187SOL    HW231461   4.831   6.387   0.474  1.3031  0.2803 -0.6199
10188SOL     OW31462   1.434   3.385   5.721 -0.7152  0.0253 -0.0734
10188SOL    HW131463   1.451   3.327   5.642 -3.1607 -0.2452 -0.5006
10188SOL    HW231464   1.462   3.479   5.701  0.7577 -0.4617 -0.3844
10189SOL     OW31465   5.787   0.067   1.421  0.2665  0.3183 -0.1906
10189SOL    HW131466   5.856   0.110   1.479  0.1142  0.6746 -0.2711
10189SOL    HW231467   5.818   0.066   1.326 -0.3729  1.6611 -0.4458
10190SOL     OW31468   2.152   0.524   1.079 -0.4917 -1.0301  0.0330
10190SOL    HW131469   2.229   0.488   1.025 -0.0540 -0.1830  0.0881
10190SOL    HW231470   2.077   0.549   1.017 -0.6349 -1.6191 -0.0402
10191SOL     OW31471   0.548   0.979   3.502 -0.1244  0.1701 -0.0913
10191SOL    HW131472   0.515   0.921   3.576  0.4502 -1.0134 -0.7295
10191SOL    HW231473   0.616   1.043   3.538 -1.5559  1.2133  0.8267
10192SOL     OW31474   0.519   4.632   5.810  0.5332 -0.3734  0.2123
10192SOL    HW131475   0.571   4.717   5.794  1.1239 -1.1232 -2.4349
10192SOL    HW231476   0.444   4.627   5.744 -0.2819 -1.3571  1.1827
10193SOL     OW31477   3.736   0.111   2.817  0.1218 -0.2422  0.0843
10193SOL    HW131478   3.819   0.166   2.812  1.0083 -1.4826  0.5425
10193SOL    HW231479   3.705   0.090   2.724  1.2253 -1.0390 -0.1280
10194SOL     OW31480   4.341   1.595   2.023 -0.4686  0.4829  0.4297
10194SOL    HW131481   4.419   1.628   2.077 -0.9347 -0.8506  2.0123
10194SOL    HW231482   4.368   1.586   1.927  0.8179  1.5852  0.6476
10195SOL     OW31483   5.198   4.894   1.107 -0.0499 -0.2470 -0.4741
10195SOL    HW131484   5.205   4.972   1.169  0.4741  0.3633 -1.2853
10195SOL    HW231485   5.232   4.811   1.153  1.9672  0.5130 -0.5141
10196SOL     OW31486   2.306   2.743   3.769  0.2965 -0.2920  0.4860
10196SOL    HW131487   2.280   2.839   3.781 -0.8437 -0.6224  0.7923
10196SOL    HW231488   2.350   2.732   3.679 -2.9779 -0.1245 -1.2871
10197SOL     OW31489   3.593   0.241   5.008 -0.2444 -0.2612 -0.2139
10197SOL    HW131490   3.571   0.294   5.090 -1.6228 -0.6721 -0.2951
10197SOL    HW231491   3.575   0.144   5.025  1.1485 -0.5827 -0.4479
10198SOL     OW31492   6.112   0.181   5.061 -0.5360  0.1741  0.5453
10198SOL    HW131493   6.096   0.266   5.111 -2.1149 -0.4346  1.1493
10198SOL    HW231494   6.053   0.109   5.098 -1.3235 -0.4601 -1.7565
10199SOL     OW31495   6.937   0.234   3.199 -0.6759 -0.4845  0.7173
10199SOL    HW131496   7.007   0.294   3.241 -0.3443  0.2868 -0.8617
10199SOL    HW231497   6.948   0.141   3.234  0.0860 -0.0378  1.7327
10200SOL     OW31498   0.531   1.001   0.369 -0.4748  0.3972  0.1660
10200SOL    HW131499   0.513   0.920   0.315  0.7639  0.9214 -1.0767
10200SOL    HW231500   0.546   0.975   0.465  0.6241 -0.9115 -0.3468
10201SOL     OW31501   5.368   0.045   4.774 -0.5914 -0.3802 -0.1995
10201SOL    HW131502   5.357  -0.042   4.728 -0.3990 -1.3597  1.5023
10201SOL    HW231503   5.284   0.068   4.823 -0.3711 -0.0239  0.0163
10202SOL     OW31504   6.434   4.841   2.907 -0.5115  0.2460 -0.4120
10202SOL    HW131505   6.529   4.867   2.886 -0.4450 -0.0022 -0.4207
10202SOL    HW231506   6.374   4.920   2.892 -0.4160  0.1834 -1.1495
10203SOL     OW31507   5.273   4.001   0.546 -1.0797  0.0329 -0.2840
10203SOL    HW131508   5.314   4.088   0.516 -2.8112  1.3693  1.0086
10203SOL    HW231509   5.325   3.965   0.623  0.4870 -0.8769 -1.7029
10204SOL     OW31510   4.191   1.161   5.993  0.0093 -0.0817  0.2173
10204SOL    HW131511   4.190   1.126   5.900  1.6188 -1.7202  0.7459
10204SOL    HW231512   4.234   1.252   5.994 -3.6407  1.8607 -1.0846
10205SOL     OW31513   0.447   1.314   0.856  0.6408  0.5697  0.3480
10205SOL    HW131514   0.527   1.373   0.856  0.6792  0.5355  1.3500
10205SOL    HW231515   0.420   1.294   0.761  1.1963  1.4012  0.0027
10206SOL     OW31516   1.107   5.611   2.803  0.1576  0.0083 -0.0909
10206SOL    HW131517   1.152   5.527   2.834  1.6135  0.4333 -0.9852
10206SOL    HW231518   1.055   5.592   2.720  1.1927  0.1633 -0.7837
10207SOL     OW31519   4.500   2.065   5.490  0.4713  0.1133 -0.0237
10207SOL    HW131520   4.491   2.018   5.402 -2.5671 -1.0964  0.8056
10207SOL    HW231521   4.475   2.161   5.479 -0.2500 -0.1131 -0.4127
10208SOL     OW31522   2.704   0.616   5.316 -0.5981 -0.2685  0.1636
10208SOL    HW131523   2.641   0.575   5.383 -1.1685  0.6618  0.2065
10208SOL    HW231524   2.654   0.678   5.257  0.1020 -0.3096 -0.4831
10209SOL     OW31525   5.717   6.243   3.378 -0.3834 -0.6137  0.3323
10209SOL    HW131526   5.733   6.341   3.393 -0.3556 -0.5883  0.1406
10209SOL    HW231527   5.650   6.210   3.444  1.5627 -1.0588  2.2364
10210SOL     OW31528   6.090   4.147   5.681  0.2226  0.4180  0.0882
10210SOL    HW131529   6.182   4.186   5.682  1.2769 -1.8911  0.4808
10210SOL    HW231530   6.063   4.129   5.586 -0.2904  2.0199 -0.0976
10211SOL     OW31531   6.290   6.418   2.505 -0.2547  0.5554 -1.0320
10211SOL    HW131532   6.315   6.329   2.468  1.2511  0.8221 -0.7368
10211SOL    HW231533   6.216   6.407   2.572  2.1761 -1.0565  1.6346
10212SOL     OW31534   1.019   3.053   2.596 -0.0430  0.0752 -0.0203
10212SOL    HW131535   0.958   3.089   2.526  0.6006 -0.2562 -0.7709
10212SOL    HW231536   1.113   3.077   2.574  0.2059 -0.3897  0.5058
10213SOL     OW31537   3.768   2.376   5.741  0.5422  0.1730 -0.5962
10213SOL    HW131538   3.697   2.391   5.809 -0.3408  0.4967 -1.5513
10213SOL    HW231539   3.725   2.365   5.651  1.7383  1.7305 -1.4158
10214SOL     OW31540   3.215   2.956   5.649  0.3716 -0.1166 -0.4313
10214SOL    HW131541   3.267   3.037   5.623  0.4645 -0.0146  0.0763
10214SOL    HW231542   3.141   2.941   5.583  1.1811 -0.3953 -1.2909
10215SOL     OW31543   2.767   3.302   1.646  0.0459 -0.5347 -0.7147
10215SOL    HW131544   2.764   3.320   1.548 -1.0244  1.3296 -0.3955
10215SOL    HW231545   2.829   3.367   1.690  0.7692 -1.5618 -0.1662
10216SOL     OW31546   5.410   4.658   2.187  0.2201  0.5996 -0.1193
10216SOL    HW131547   5.320   4.635   2.151 -0.1627  0.8873  0.6123
10216SOL    HW231548   5.420   4.758   2.191  0.3318  0.5741  0.3554
10217SOL     OW31549   1.469   2.953   1.099  0.1510  0.1649 -0.3172
10217SOL    HW131550   1.406   2.909   1.164 -0.3287  0.9306 -0.2553
10217SOL    HW231551   1.536   2.886   1.068 -0.4541 -0.5677 -0.0792
10218SOL     OW31552   6.276   1.202   4.830 -0.8449  0.2231  0.2065
10218SOL    HW131553   6.283   1.266   4.906 -1.6079 -1.5489  1.8623
10218SOL    HW231554   6.212   1.237   4.762 -1.8553  0.8661  1.4519
10219SOL     OW31555   3.526   5.597   0.539  0.5782  0.0905  0.5786
10219SOL    HW131556   3.481   5.547   0.464  0.3327 -1.9181  1.9980
10219SOL    HW231557   3.625   5.593   0.527  0.5382 -0.0710  0.2890
10220SOL     OW31558   3.016   0.744   6.448  0.2337  0.1022 -0.7943
10220SOL    HW131559   2.954   0.822   6.446 -0.3405 -0.3211 -0.0963
10220SOL    HW231560   3.017   0.700   6.358 -0.3591  0.2085 -0.8549
10221SOL     OW31561   1.885   4.517   1.954 -1.1194 -0.1151 -0.3339
10221SOL    HW131562   1.977   4.487   1.930 -1.5648 -3.3215  1.3925
10221SOL    HW231563   1.829   4.522   1.872  0.0834 -0.0356 -1.1760
10222SOL     OW31564   2.310   3.904   1.028 -0.9873  0.2815  0.1394
10222SOL    HW131565   2.398   3.950   1.034 -0.4394 -0.8650  1.2244
10222SOL    HW231566   2.267   3.901   1.118 -2.3719  1.2305 -0.4498
10223SOL     OW31567   0.886   2.402   4.591 -0.0271 -0.1826  0.4850
10223SOL    HW131568   0.916   2.491   4.624  1.1773  0.5973 -2.4641
10223SOL    HW231569   0.937   2.330   4.639  2.2459  0.9137 -0.1401
10224SOL     OW31570   2.925   5.077   6.535  0.0417 -0.2783  0.5508
10224SOL    HW131571   3.013   5.029   6.540  0.2351 -0.0331 -0.2799
10224SOL    HW231572   2.941   5.174   6.519 -0.3661 -0.0541  1.4317
10225SOL     OW31573   6.735   4.338   4.773  0.3739  0.8252 -0.0290
10225SOL    HW131574   6.760   4.262   4.713 -1.4960  0.8359 -0.8892
10225SOL    HW231575   6.799   4.414   4.760  0.2589  0.6671 -1.7530
10226SOL     OW31576   4.193   1.640   3.298 -0.2269  0.6884  0.4117
10226SOL    HW131577   4.221   1.652   3.202  0.6655  1.0453  0.7019
10226SOL    HW231578   4.264   1.679   3.358 -1.0345  0.9681  1.2025
10227SOL     OW31579   6.685   0.802   4.794 -0.1259  0.0373 -0.2926
10227SOL    HW131580   6.645   0.759   4.712  0.9087  1.0118 -1.3395
10227SOL    HW231581   6.765   0.856   4.768 -1.4539  2.7653  0.9395
10228SOL     OW31582   6.990   3.195   5.777 -0.0215  0.0748  0.1929
10228SOL    HW131583   7.082   3.158   5.763  0.1140 -0.1842  1.6221
10228SOL    HW231584   6.925   3.145   5.721  0.6142 -0.1369 -0.3756
10229SOL     OW31585   0.690   4.897   2.439  0.6257 -0.0705  0.4356
10229SOL    HW131586   0.603   4.850   2.456  0.5659 -0.2811 -0.4215
10229SOL    HW231587   0.672   4.984   2.393  0.9054 -0.4405 -0.3936
10230SOL     OW31588   2.668   6.806   0.352  0.0655 -0.1770 -0.4234
10230SOL    HW131589   2.713   6.890   0.380  1.6566 -0.5695 -1.6429
10230SOL    HW231590   2.680   6.737   0.423  1.0384 -0.1355 -0.5303
10231SOL     OW31591   0.508   0.801   4.283  0.0411  0.6922  0.2225
10231SOL    HW131592   0.495   0.868   4.210 -0.3652  0.6506  0.2543
10231SOL    HW231593   0.516   0.710   4.243 -1.1449  0.5528  0.2853
10232SOL     OW31594   1.539   1.551   4.580 -0.0327  0.3748 -0.4618
10232SOL    HW131595   1.477   1.479   4.550 -1.4857  1.8203 -1.0279
10232SOL    HW231596   1.598   1.578   4.504 -1.0923  1.3736 -0.9564
10233SOL     OW31597   6.900   1.006   4.678  0.4772  0.5547 -0.4513
10233SOL    HW131598   6.973   1.074   4.664  0.3129  0.6063 -1.1149
10233SOL    HW231599   6.934   0.932   4.735  1.5415 -0.1819 -1.9928
10234SOL     OW31600   1.565   6.394   3.989 -0.0046 -0.1532 -0.2295
10234SOL    HW131601   1.467   6.383   3.971 -0.4020  0.4668  1.4658
10234SOL    HW231602   1.615   6.386   3.902 -1.4940 -0.9601 -1.0578
10235SOL     OW31603   5.510   0.015   5.043  0.4139  0.0907  0.0151
10235SOL    HW131604   5.497   0.027   4.944  0.4973 -0.3752 -0.0555
10235SOL    HW231605   5.502   0.103   5.088 -0.8228  0.1419 -0.2730
10236SOL     OW31606   1.512   0.270   3.401 -0.0179  0.0991 -0.3448
10236SOL    HW131607   1.492   0.176   3.428 -0.1041 -0.2633 -1.6383
10236SOL    HW231608   1.610   0.279   3.382  0.3378  0.7538  1.5725
10237SOL     OW31609   0.252   6.775   3.949 -0.1477  0.0187  0.0094
10237SOL    HW131610   0.235   6.723   3.865 -2.9337  2.1014 -0.9002
10237SOL    HW231611   0.175   6.762   4.012  0.5857  0.6319  1.0599
10238SOL     OW31612   5.372   2.229   6.713  0.0421  0.0216  0.6618
10238SOL    HW131613   5.343   2.281   6.793  0.4491 -1.4643  1.8396
10238SOL    HW231614   5.295   2.215   6.651 -0.6340  0.0210  1.4902
10239SOL     OW31615   2.821   6.849   6.748  0.2177  0.3404  0.0726
10239SOL    HW131616   2.732   6.892   6.767  0.5034  0.5183  1.0513
10239SOL    HW231617   2.867   6.828   6.834  1.5733  1.1683 -0.4177
10240SOL     OW31618   4.251   0.512   5.219 -0.7641 -0.0650  0.0331
10240SOL    HW131619   4.223   0.578   5.289 -0.6381 -2.5701  2.6396
10240SOL    HW231620   4.182   0.440   5.214  0.0806 -0.8067 -1.2208
10241SOL     OW31621   5.549   4.113   5.127  0.1418  0.0966  0.2189
10241SOL    HW131622   5.646   4.128   5.146 -0.1824  0.7819  1.4163
10241SOL    HW231623   5.499   4.199   5.139 -0.8020 -0.5287  0.9185
10242SOL     OW31624   5.386   2.412   5.609  0.3257 -0.7539 -0.1840
10242SOL    HW131625   5.458   2.350   5.579  0.8194 -0.6545  0.7572
10242SOL    HW231626   5.340   2.374   5.689 -0.6071 -0.7657 -0.7063
10243SOL     OW31627   5.193   2.898   4.942 -0.3278  0.2217 -0.2302
10243SOL    HW131628   5.151   2.808   4.924 -1.4333  0.4371  1.1649
10243SOL    HW231629   5.221   2.939   4.855 -0.9866 -0.9037 -1.0005
10244SOL     OW31630   2.988   1.830   5.243  0.0801  0.1566 -0.1302
10244SOL    HW131631   2.920   1.779   5.189  0.1930  0.7493 -0.8443
10244SOL    HW231632   3.014   1.913   5.194  2.1765 -0.6109 -0.4199
10245SOL     OW31633   1.213   4.084   1.007 -0.3347 -0.2241 -0.4074
10245SOL    HW131634   1.205   4.137   0.923 -0.7844 -1.0254 -0.8879
10245SOL    HW231635   1.170   4.134   1.082  2.8090  1.9581  0.0939
10246SOL     OW31636   6.466   2.177   3.122 -0.1092  0.4499  0.2119
10246SOL    HW131637   6.528   2.240   3.168 -0.8121  0.4111  1.2552
10246SOL    HW231638   6.434   2.108   3.187 -1.1381  0.3917 -0.3267
10247SOL     OW31639   2.568   5.221   5.173 -0.1597  0.2731  0.3792
10247SOL    HW131640   2.483   5.209   5.120  0.8193 -0.5953 -1.0821
10247SOL    HW231641   2.613   5.132   5.184 -0.0696  0.5169  2.2968
10248SOL     OW31642   4.091   1.017   3.704 -0.2407  0.1637 -0.7286
10248SOL    HW131643   4.173   0.963   3.721  0.0804  1.0546  0.7956
10248SOL    HW231644   4.014   0.978   3.755 -0.7079 -0.4822 -1.8978
10249SOL     OW31645   2.531   0.017   0.883 -0.4489 -0.5131 -0.1254
10249SOL    HW131646   2.595   0.071   0.828 -1.1147 -0.0021 -0.4074
10249SOL    HW231647   2.581  -0.026   0.958  0.0159  1.0020  0.4900
10250SOL     OW31648   3.457   3.251   0.013  0.5726  0.2518 -0.3272
10250SOL    HW131649   3.442   3.178   0.080  0.0447 -0.1759 -0.9039
10250SOL    HW231650   3.368   3.284  -0.020  0.8401  0.0994 -1.2034
10251SOL     OW31651   5.972   5.403   2.580  0.3212  0.1154 -0.3249
10251SOL    HW131652   5.896   5.467   2.586 -1.2997 -1.7853  0.3620
10251SOL    HW231653   6.001   5.377   2.672  0.3280 -0.8296 -0.5848
10252SOL     OW31654   2.128   3.436   4.423 -0.5202  0.8295  0.3212
10252SOL    HW131655   2.081   3.348   4.436  0.4169  0.4242  1.1196
10252SOL    HW231656   2.141   3.480   4.512 -0.2338  1.3827  0.0074
10253SOL     OW31657   2.640   0.916   2.094 -0.3052 -0.5131 -0.1187
10253SOL    HW131658   2.554   0.905   2.144 -0.3513 -0.7207 -0.2462
10253SOL    HW231659   2.667   0.829   2.053  0.6349 -0.7845  1.0106
10254SOL     OW31660   2.478   0.382   2.754 -0.0628  0.2041 -0.7989
10254SOL    HW131661   2.537   0.303   2.772  0.0250  0.2004 -1.1034
10254SOL    HW231662   2.507   0.458   2.812 -3.0253 -1.2906  3.0875
10255SOL     OW31663   1.143   5.563   6.786  0.5108  0.3981 -0.0372
10255SOL    HW131664   1.129   5.516   6.698  2.1970 -0.4562  0.1017
10255SOL    HW231665   1.106   5.655   6.781 -1.6262 -0.4347 -0.8143
10256SOL     OW31666   1.236   2.952   3.502  0.5947 -0.1658  0.2854
10256SOL    HW131667   1.208   3.047   3.517  0.7095  0.0559 -0.7879
10256SOL    HW231668   1.266   2.941   3.407 -0.4794 -1.5424  0.0738
10257SOL     OW31669   0.610   0.345   6.424  0.3842  0.2980 -0.4462
10257SOL    HW131670   0.622   0.377   6.330 -1.5417  0.3827 -0.7144
10257SOL    HW231671   0.632   0.248   6.430  0.7600  0.3515 -0.9262
10258SOL     OW31672   5.273   5.933   6.898  0.2210 -0.0755  0.0029
10258SOL    HW131673   5.341   5.987   6.948  2.1235 -1.1628 -1.2354
10258SOL    HW231674   5.310   5.841   6.883 -2.2323 -1.2499  0.6367
10259SOL     OW31675   6.970   4.521   1.045  0.2457 -1.0242  0.8074
10259SOL    HW131676   6.967   4.614   1.007  3.5218 -0.8004  0.7731
10259SOL    HW231677   6.878   4.484   1.051 -1.2829  2.4639  1.4339
10260SOL     OW31678   4.663   2.886   1.463  0.2565 -0.3858  0.2343
10260SOL    HW131679   4.706   2.923   1.546  0.2071  0.3448 -0.0606
10260SOL    HW231680   4.626   2.961   1.408  0.1327 -0.8800 -0.3673
10261SOL     OW31681   6.630   6.007   2.059  0.2880  0.0853  0.1495
10261SOL    HW131682   6.578   5.993   1.975  0.0040  0.0860  0.3241
10261SOL    HW231683   6.650   5.918   2.101 -0.2669  0.1226  0.5014
10262SOL     OW31684   1.318   2.020   3.491 -0.2506  0.5367 -0.5543
10262SOL    HW131685   1.269   1.958   3.551 -0.2607  2.2494  1.3186
10262SOL    HW231686   1.415   2.018   3.513 -0.4327  2.2197  0.6018
10263SOL     OW31687   4.210   4.927   6.401  0.2130 -0.7018  0.0617
10263SOL    HW131688   4.218   4.831   6.428 -1.5816 -0.7429  0.5948
10263SOL    HW231689   4.114   4.956   6.407  0.4638  0.6749 -1.6894
10264SOL     OW31690   2.054   2.963   1.396 -0.5061 -0.0176  0.4510
10264SOL    HW131691   2.075   3.055   1.365  1.1404 -1.4694 -3.3842
10264SOL    HW231692   2.137   2.919   1.430 -0.7620 -0.7510  0.1604
10265SOL     OW31693   1.409   3.803   3.412 -0.7019  0.3663  0.2942
10265SOL    HW131694   1.498   3.847   3.420 -0.8745  1.1199 -1.4499
10265SOL    HW231695   1.357   3.816   3.496  1.0750 -0.7278  1.6284
10266SOL     OW31696   4.523   0.084   6.631  0.2602 -0.9059  0.1773
10266SOL    HW131697   4.534   0.177   6.667  0.9330 -1.3058  1.0466
10266SOL    HW231698   4.532   0.086   6.532 -0.3525  0.0473  0.1262
10267SOL     OW31699   4.835   6.001   5.341 -0.5261 -0.1155  0.1502
10267SOL    HW131700   4.916   5.978   5.288  0.3311 -0.5105  1.5865
10267SOL    HW231701   4.753   5.966   5.294 -0.0091  1.1916 -1.8383
10268SOL     OW31702   1.264   6.084   1.088  0.5570  0.5345  0.3724
10268SOL    HW131703   1.214   6.001   1.113 -0.7802  1.2819  0.2906
10268SOL    HW231704   1.201   6.149   1.044  1.4243  1.8337  0.9834
10269SOL     OW31705   5.031   6.288   4.415 -0.3536  0.1154 -0.1766
10269SOL    HW131706   5.029   6.226   4.494  0.6969 -0.5936 -0.6850
10269SOL    HW231707   4.939   6.323   4.399 -0.8115 -0.6359  0.6560
10270SOL     OW31708   5.665   1.175   4.950  0.6888  0.7746  0.1482
10270SOL    HW131709   5.676   1.117   4.870  0.9382 -0.5657  1.1220
10270SOL    HW231710   5.714   1.262   4.936  0.8145  0.5168 -1.0839
10271SOL     OW31711   4.286   5.383   6.496  0.1132  0.4990  0.5890
10271SOL    HW131712   4.251   5.335   6.415 -1.0249 -0.4512  1.6108
10271SOL    HW231713   4.386   5.377   6.497  0.1182  0.0685 -0.4563
10272SOL     OW31714   0.215   1.356   5.478  0.0890 -0.4807  0.0694
10272SOL    HW131715   0.236   1.316   5.567 -4.1228 -1.3000  0.8946
10272SOL    HW231716   0.199   1.454   5.490 -1.1166 -0.7016  0.4087
10273SOL     OW31717   2.390   2.842   6.357  0.2373 -0.5938 -0.2216
10273SOL    HW131718   2.473   2.796   6.325  1.3227  1.2770 -0.2422
10273SOL    HW231719   2.409   2.888   6.443 -0.6773  0.1699 -0.4187
10274SOL     OW31720   6.878   6.441   2.559  0.0565  0.5312 -0.3052
10274SOL    HW131721   6.852   6.365   2.619 -0.7254 -0.8552 -2.2926
10274SOL    HW231722   6.969   6.424   2.522  0.1178  0.8726 -0.3115
10275SOL     OW31723   6.963   5.398   5.397  0.1968 -0.2277  0.1421
10275SOL    HW131724   6.899   5.324   5.373  0.3143 -0.8800  1.6618
10275SOL    HW231725   6.921   5.486   5.379 -0.9924 -0.6545  0.7017
10276SOL     OW31726   6.898   0.045   2.234 -0.2795  0.2819  0.6741
10276SOL    HW131727   6.941   0.082   2.316  0.0712  1.5591 -0.0513
10276SOL    HW231728   6.965  -0.008   2.183 -0.3202  0.0139  0.8997
10277SOL     OW31729   2.001   1.653   4.072 -0.0535  0.6323  0.0922
10277SOL    HW131730   1.980   1.724   4.140 -0.2892 -0.4432  1.1771
10277SOL    HW231731   2.063   1.691   4.003  1.7086  1.2702  1.9203
10278SOL     OW31732   3.653   1.679   6.578  0.2817  0.6098  0.1005
10278SOL    HW131733   3.718   1.698   6.504 -0.4195  0.0608 -0.6710
10278SOL    HW231734   3.577   1.744   6.573  0.1951  0.5234  0.2908
10279SOL     OW31735   0.652   6.896   6.130  0.3265  0.3408  0.6489
10279SOL    HW131736   0.746   6.876   6.158  0.1494 -0.6392  0.5646
10279SOL    HW231737   0.614   6.965   6.191  0.4423 -0.7040  1.9581
10280SOL     OW31738   5.958   1.923   4.650  0.2736 -0.3843 -0.3891
10280SOL    HW131739   6.053   1.950   4.665 -0.7721  2.5807  1.8820
10280SOL    HW231740   5.952   1.868   4.567  4.0110 -1.2384 -0.2727
10281SOL     OW31741   1.997   3.575   2.914  0.2676  0.4123 -0.6115
10281SOL    HW131742   2.031   3.543   3.002  0.0383  0.1451 -0.6209
10281SOL    HW231743   2.043   3.524   2.841  0.8347  0.9832 -0.6674
10282SOL     OW31744   4.250   5.942   5.477  0.5484  0.1962  0.0352
10282SOL    HW131745   4.254   5.952   5.577 -1.5977  0.0827  0.1811
10282SOL    HW231746   4.244   6.033   5.435  0.3891  0.2049  0.0773
10283SOL     OW31747   5.300   1.227   4.367  0.1389 -0.3038  0.1601
10283SOL    HW131748   5.383   1.182   4.397  0.1568  0.3278  1.1312
10283SOL    HW231749   5.223   1.197   4.424 -0.5078 -1.5662 -1.2988
10284SOL     OW31750   2.888   1.565   6.169  0.4065 -0.2252 -0.2045
10284SOL    HW131751   2.795   1.536   6.145  0.1517 -0.9086  1.5003
10284SOL    HW231752   2.950   1.543   6.093 -0.5749 -1.0723 -0.7864
10285SOL     OW31753   2.478   4.222   6.447 -0.1002  0.4617 -0.2475
10285SOL    HW131754   2.572   4.256   6.457 -0.1964  0.6323  0.1063
10285SOL    HW231755   2.444   4.242   6.356 -0.9841  3.4154  0.6350
10286SOL     OW31756   0.686   2.518   4.452  0.0392  0.1303 -0.4840
10286SOL    HW131757   0.772   2.520   4.504 -0.4551  0.9145  0.3302
10286SOL    HW231758   0.631   2.598   4.475 -0.7898 -0.2040 -1.2276
10287SOL     OW31759   5.192   3.807   7.014  0.4331 -0.0925  0.6857
10287SOL    HW131760   5.152   3.899   7.011  0.6941  0.0097 -0.3587
10287SOL    HW231761   5.133   3.747   7.067 -0.1148  0.5128  0.7817
10288SOL     OW31762   3.640   0.643   6.137 -0.3501 -0.4669 -0.0658
10288SOL    HW131763   3.713   0.674   6.198 -0.2939  0.2860 -0.5115
10288SOL    HW231764   3.668   0.559   6.091 -0.9493 -1.8921  2.0133
10289SOL     OW31765   5.179   3.595   4.493 -0.2251 -0.1598  0.2061
10289SOL    HW131766   5.208   3.691   4.495 -1.1210  0.2867 -2.6179
10289SOL    HW231767   5.095   3.584   4.546 -1.5012  1.2400 -1.4016
10290SOL     OW31768   4.661   5.875   0.031 -0.0779 -0.1485  0.3020
10290SOL    HW131769   4.661   5.945  -0.041 -0.2671  1.1924  1.5476
10290SOL    HW231770   4.750   5.877   0.078 -0.1058 -0.7189  0.3772
10291SOL     OW31771   1.865   4.210   0.316  0.3709 -0.0845  0.0654
10291SOL    HW131772   1.956   4.199   0.356 -0.1903  2.1331  2.1678
10291SOL    HW231773   1.865   4.285   0.250 -0.2597  1.1874  1.4493
10292SOL     OW31774   6.208   0.570   2.340 -0.2439  0.2910 -0.0165
10292SOL    HW131775   6.253   0.500   2.285 -2.3763 -0.6281 -0.7086
10292SOL    HW231776   6.110   0.550   2.346 -1.0178  3.3919 -0.5245
10293SOL     OW31777   2.358   3.910   1.838 -0.6558  0.1395  0.5359
10293SOL    HW131778   2.425   3.972   1.798 -0.4512 -0.2313  0.3051
10293SOL    HW231779   2.373   3.818   1.804  0.0819 -0.3564  2.1180
10294SOL     OW31780   6.436   2.251   2.146 -0.1046  0.2732  0.4261
10294SOL    HW131781   6.383   2.186   2.092  3.0321  0.1970 -2.9909
10294SOL    HW231782   6.388   2.339   2.149 -1.7931 -0.5995  0.1970
10295SOL     OW31783   3.567   3.651   6.040 -0.3701  0.5103  0.6302
10295SOL    HW131784   3.602   3.609   6.124 -2.9394 -0.8228  1.1299
10295SOL    HW231785   3.474   3.685   6.055 -0.0618  2.2914 -1.0845
10296SOL     OW31786   2.050   4.061   1.199  0.7095 -0.3541 -0.7814
10296SOL    HW131787   2.115   4.007   1.252  0.8386 -0.1975 -0.7793
10296SOL    HW231788   2.100   4.115   1.130  0.4742 -1.2289 -1.6613
10297SOL     OW31789   3.476   6.226   6.979  0.4668 -0.4032 -0.0627
10297SOL    HW131790   3.521   6.179   7.054 -2.2434  0.0163  1.9821
10297SOL    HW231791   3.460   6.322   7.004 -1.6426 -0.5683 -0.5542
10298SOL     OW31792   1.808   2.926   1.280  0.2030  0.1833 -0.3528
10298SOL    HW131793   1.897   2.930   1.325  0.5237 -1.2150 -0.8326
10298SOL    HW231794   1.782   2.831   1.264 -1.8003  0.5197  0.5629
10299SOL     OW31795   2.263   2.569   1.799 -0.3207  0.3178  0.2639
10299SOL    HW131796   2.193   2.497   1.798 -0.7158  0.6750  0.8305
10299SOL    HW231797   2.330   2.549   1.870  1.3696 -1.1125 -1.6487
10300SOL     OW31798   6.740   1.425   5.740  0.5612 -0.9994  0.0716
10300SOL    HW131799   6.655   1.473   5.721  0.7022  0.2224  2.2011
10300SOL    HW231800   6.816   1.472   5.695  0.5035 -0.0908  0.8965
10301SOL     OW31801   1.836   3.679   5.492  0.1708  0.0989  0.3978
10301SOL    HW131802   1.753   3.656   5.440 -0.1867  0.2873  0.8856
10301SOL    HW231803   1.890   3.596   5.505  0.2825  0.0524 -0.3033
10302SOL     OW31804   1.444   6.265   6.883 -0.8485 -0.6051  0.1145
10302SOL    HW131805   1.386   6.324   6.827 -1.1061 -0.5552  0.4308
10302SOL    HW231806   1.540   6.293   6.874 -0.6329 -1.7074 -1.7169
10303SOL     OW31807   0.808   3.249   6.896  0.3544  0.2777 -0.5389
10303SOL    HW131808   0.843   3.336   6.860  0.0376  0.0177 -1.5210
10303SOL    HW231809   0.866   3.218   6.972  1.1936  0.7437 -0.9766
10304SOL     OW31810   6.594   3.186   3.903  0.2068  0.3560  0.0981
10304SOL    HW131811   6.623   3.204   3.809 -1.5645  0.3815 -0.4881
10304SOL    HW231812   6.637   3.252   3.965  0.7429  0.8740 -0.8092
10305SOL     OW31813   4.941   5.216   3.986  0.2290  0.1189 -0.4889
10305SOL    HW131814   4.880   5.138   3.971  2.0263 -1.2526 -1.0924
10305SOL    HW231815   5.032   5.193   3.952  1.0816  2.1094  0.3234
10306SOL     OW31816   4.326   2.814   6.367 -0.2805 -0.0861  0.0150
10306SOL    HW131817   4.316   2.715   6.360 -0.9645  0.0796 -2.1122
10306SOL    HW231818   4.238   2.854   6.395 -0.0606 -0.0517  0.6728
10307SOL     OW31819   0.819   1.698   0.315  0.2820  0.0126 -0.2583
10307SOL    HW131820   0.812   1.680   0.217 -3.1378  1.4817 -0.4269
10307SOL    HW231821   0.877   1.778   0.330 -2.2783  2.3307 -1.6343
10308SOL     OW31822   1.975   0.145   5.710 -0.2252  1.0023 -0.8340
10308SOL    HW131823   2.007   0.055   5.681  1.1672  1.9032 -2.3224
10308SOL    HW231824   1.983   0.154   5.809  0.6352 -0.1303 -0.7835
10309SOL     OW31825   0.461   0.812   4.579  0.4124  0.0485  0.6566
10309SOL    HW131826   0.495   0.781   4.490  1.4210  0.0819  1.0169
10309SOL    HW231827   0.479   0.742   4.648  0.6665  0.4887  1.0481
10310SOL     OW31828   2.246   7.011   1.254  0.6801  0.2668  0.2399
10310SOL    HW131829   2.240   7.073   1.176  1.1908 -0.1547 -0.1352
10310SOL    HW231830   2.262   7.064   1.338  1.4171  0.6244 -0.1211
10311SOL     OW31831   0.522   1.896   0.651 -0.4778  0.0172 -0.2002
10311SOL    HW131832   0.469   1.981   0.641 -0.4686 -0.0135 -0.5378
10311SOL    HW231833   0.612   1.917   0.690 -0.8386  0.0325  0.6296
10312SOL     OW31834   1.519   0.102   4.002  0.3542 -0.5988 -0.5508
10312SOL    HW131835   1.462   0.160   3.944 -0.1989 -0.1668  0.3982
10312SOL    HW231836   1.612   0.138   4.004 -0.2892  1.1589  1.1512
10313SOL     OW31837   4.837   4.918   1.053  0.2690 -0.6585  0.0147
10313SOL    HW131838   4.805   4.928   0.959 -0.6132  2.7446  0.5248
10313SOL    HW231839   4.936   4.926   1.055  0.3459 -1.3000 -0.6450
10314SOL     OW31840   6.822   4.142   4.578  0.3781 -0.2645  0.0602
10314SOL    HW131841   6.862   4.070   4.635  1.4623  0.0667 -0.2478
10314SOL    HW231842   6.752   4.103   4.518  2.1058 -1.4515 -1.3188
10315SOL     OW31843   1.376   0.558   3.643 -0.5811 -0.7233  0.1728
10315SOL    HW131844   1.407   0.565   3.548 -2.7074 -2.2414 -0.7213
10315SOL    HW231845   1.290   0.608   3.654 -1.0560 -1.6603  0.9224
10316SOL     OW31846   6.298   3.951   0.558  0.2523 -0.3822 -0.2509
10316SOL    HW131847   6.302   3.967   0.656 -0.8035 -0.2195 -0.2184
10316SOL    HW231848   6.223   3.888   0.537 -2.3808  2.7694 -1.2622
10317SOL     OW31849   2.684   4.630   3.601 -0.0048  0.2507 -0.3947
10317SOL    HW131850   2.588   4.643   3.576 -0.5139 -0.9116  0.8616
10317SOL    HW231851   2.715   4.541   3.567  0.2937  0.1347  0.1731
10318SOL     OW31852   4.533   6.225   2.802 -0.6570  0.0667 -0.4616
10318SOL    HW131853   4.503   6.303   2.857 -0.5302  1.5861 -2.4402
10318SOL    HW231854   4.508   6.140   2.848 -1.5231  1.2571  1.3773
10319SOL     OW31855   6.622   2.986   0.246 -0.2101 -0.0072  0.3330
10319SOL    HW131856   6.640   2.978   0.344 -1.6108  0.5575  0.6688
10319SOL    HW231857   6.686   2.929   0.195  0.8930  0.1138  1.5388
10320SOL     OW31858   3.170   5.418   3.160  0.1939  0.0746  0.0052
10320SOL    HW131859   3.270   5.420   3.165  0.3827 -1.8459 -1.8949
10320SOL    HW231860   3.132   5.483   3.226  2.6929  1.3762  0.2583
10321SOL     OW31861   4.830   1.422   0.445 -0.0302  0.4465 -0.3477
10321SOL    HW131862   4.864   1.463   0.530 -0.4667 -0.5460  0.3161
10321SOL    HW231863   4.884   1.341   0.423 -0.4277  0.2453 -0.5931
10322SOL     OW31864   6.589   0.312   3.124 -0.1335 -0.0928  0.5679
10322SOL    HW131865   6.687   0.314   3.141 -0.4433  1.2719  2.4947
10322SOL    HW231866   6.554   0.220   3.142  0.8147 -0.6655 -0.4311
10323SOL     OW31867   0.705   0.621   4.512  0.1790 -0.0593  0.4924
10323SOL    HW131868   0.757   0.585   4.590 -1.0207 -0.3207  1.2016
10323SOL    HW231869   0.766   0.632   4.434  1.1105 -1.2744  1.0008
10324SOL     OW31870   4.012   3.436   1.884 -0.2495  0.1579  0.3035
10324SOL    HW131871   4.023   3.503   1.811  1.9577 -0.9485 -0.4631
10324SOL    HW231872   4.054   3.470   1.968 -1.9453  1.0183  0.8596
10325SOL     OW31873   1.524   1.448   3.763  0.0391 -0.2948 -0.0962
10325SOL    HW131874   1.480   1.495   3.840  1.7812 -0.3294  0.9802
10325SOL    HW231875   1.600   1.503   3.730  1.5266 -1.8386  0.5630
10326SOL     OW31876   0.980   0.888   4.303 -0.4251 -0.0307  0.0730
10326SOL    HW131877   0.882   0.894   4.320 -0.5474 -0.3365 -0.4813
10326SOL    HW231878   1.019   0.980   4.297 -0.6669  0.0902  0.3541
10327SOL     OW31879   3.146   0.659   3.951 -0.0620  0.3027  0.0280
10327SOL    HW131880   3.173   0.729   4.017  1.4279 -0.0909 -0.1288
10327SOL    HW231881   3.210   0.583   3.955 -2.3623 -1.7477  1.1592
10328SOL     OW31882   3.245   0.889   2.732  0.0966  0.2049 -0.1772
10328SOL    HW131883   3.262   0.976   2.779 -0.8314  0.9337 -1.1297
10328SOL    HW231884   3.327   0.861   2.683 -0.3978  2.1448 -2.3232
10329SOL     OW31885   0.266   5.791   4.573  0.1501  0.1742  0.6521
10329SOL    HW131886   0.253   5.725   4.499 -1.6037  2.5499 -1.3349
10329SOL    HW231887   0.185   5.792   4.632  0.6101 -0.1448  1.3029
10330SOL     OW31888   3.840   4.165   6.620 -0.0896  0.2096  0.1457
10330SOL    HW131889   3.888   4.081   6.648 -0.0423 -0.2709 -1.3233
10330SOL    HW231890   3.744   4.158   6.647  0.3574  0.6876  2.0689
10331SOL     OW31891   4.007   5.949   2.337  0.3865 -0.1571  0.1653
10331SOL    HW131892   3.992   6.013   2.261 -0.9100  1.2526  1.5533
10331SOL    HW231893   4.097   5.966   2.378  0.1086  0.6905  0.4316
10332SOL     OW31894   0.443   2.515   6.058  0.2126  0.4122  0.5119
10332SOL    HW131895   0.394   2.472   5.982 -0.4195 -0.2814  1.2991
10332SOL    HW231896   0.541   2.515   6.038  0.2320 -1.3321  0.4385
10333SOL     OW31897   3.574   3.480   3.820  0.2745  0.4984 -0.3285
10333SOL    HW131898   3.556   3.538   3.899 -0.2409 -1.7152  1.3019
10333SOL    HW231899   3.671   3.458   3.816  0.2053  0.0535  0.1691
10334SOL     OW31900   5.005   4.467   4.787  0.3185 -0.6092 -0.2436
10334SOL    HW131901   5.033   4.382   4.741 -0.7000 -1.3290  0.4367
10334SOL    HW231902   4.963   4.445   4.874 -1.0983  0.5196 -0.6105
10335SOL     OW31903   2.180   3.897   3.371  0.2864  0.0060  0.3492
10335SOL    HW131904   2.154   3.986   3.335 -1.4423 -1.3286 -1.9028
10335SOL    HW231905   2.238   3.850   3.305  1.2845 -0.5605  1.5684
10336SOL     OW31906   0.891   6.265   5.793 -0.2821  0.5192 -0.0673
10336SOL    HW131907   0.990   6.252   5.799 -0.1125  1.5208 -0.4943
10336SOL    HW231908   0.868   6.356   5.826 -1.2446 -0.2406  1.4660
10337SOL     OW31909   0.602   0.062   2.471  0.2955 -0.2316 -0.4002
10337SOL    HW131910   0.684   0.107   2.437 -0.9853  1.3580 -1.5229
10337SOL    HW231911   0.574   0.103   2.558  0.2222 -0.1888 -0.4435
10338SOL     OW31912   6.675   5.154   2.851  0.7974 -0.2918 -0.3792
10338SOL    HW131913   6.718   5.065   2.864  1.4160  0.1181  0.4666
10338SOL    HW231914   6.737   5.226   2.882 -1.6912  0.1882  4.3836
10339SOL     OW31915   6.264   1.980   3.372  0.4484  0.4610  0.1178
10339SOL    HW131916   6.345   2.001   3.426 -0.9576  0.4632  2.3480
10339SOL    HW231917   6.225   2.065   3.336 -0.3836  0.8835  1.8747
10340SOL     OW31918   2.349   6.584   3.825  0.0918  0.3165 -0.1145
10340SOL    HW131919   2.387   6.567   3.733 -0.2722 -0.7774 -0.0745
10340SOL    HW231920   2.355   6.500   3.879 -1.2953  0.4692  0.2909
10341SOL     OW31921   4.031   6.665   5.113  0.3423 -0.3603 -0.5547
10341SOL    HW131922   4.090   6.741   5.141  0.9412 -0.7012 -0.8642
10341SOL    HW231923   4.044   6.647   5.015 -0.0509 -0.6415 -0.5574
10342SOL     OW31924   4.121   4.201   0.822 -0.0915 -0.0528 -0.5322
10342SOL    HW131925   4.165   4.291   0.826  1.0563 -0.5432 -1.4296
10342SOL    HW231926   4.111   4.164   0.914 -0.1792  0.8052 -0.1930
10343SOL     OW31927   1.146   0.317   6.045 -0.1262  0.4682 -0.0110
10343SOL    HW131928   1.064   0.266   6.071  0.9295 -1.1222  0.3209
10343SOL    HW231929   1.176   0.289   5.954  0.7680  0.0526  0.3913
10344SOL     OW31930   1.114   5.763   0.669  0.0288 -0.6528 -0.1764
10344SOL    HW131931   1.051   5.685   0.664 -1.3299  0.4680 -1.6825
10344SOL    HW231932   1.081   5.828   0.737  0.6213 -0.9084  0.3681
10345SOL     OW31933   3.291   5.224   4.045  0.3558  0.2031  0.3591
10345SOL    HW131934   3.381   5.250   4.010  0.8741 -1.8962 -0.0025
10345SOL    HW231935   3.286   5.124   4.051 -1.9006  0.2910  0.5155
10346SOL     OW31936   6.042   2.528   4.080  0.0803 -0.1976  0.3160
10346SOL    HW131937   5.995   2.454   4.032 -1.1240  1.3896 -1.0833
10346SOL    HW231938   5.974   2.588   4.122  1.0375  0.0379  1.5682
10347SOL     OW31939   5.785   2.433   0.445  0.3098 -0.2839  0.0934
10347SOL    HW131940   5.692   2.425   0.408 -0.3190 -0.2443  1.5985
10347SOL    HW231941   5.828   2.516   0.410 -0.8454  0.5864  0.6534
10348SOL     OW31942   1.820   6.535   2.320  0.3767 -0.7949 -0.0555
10348SOL    HW131943   1.907   6.535   2.271  0.8898 -0.7131  0.8383
10348SOL    HW231944   1.744   6.534   2.254  1.0251  0.8129 -0.8812
10349SOL     OW31945   1.663   0.922   4.262  0.6086  0.1557  0.4604
10349SOL    HW131946   1.761   0.943   4.271  0.5122  1.4671 -1.1313
10349SOL    HW231947   1.616   0.947   4.347  1.5559  0.0992  1.0193
10350SOL     OW31948   1.309   1.927   4.299 -0.1842  0.3884  0.2294
10350SOL    HW131949   1.395   1.944   4.346  1.0043  1.6766 -2.2327
10350SOL    HW231950   1.233   1.941   4.363  1.2482  3.6434  1.4486
10351SOL     OW31951   5.991   5.317   0.673  0.5191 -0.5518  0.3011
10351SOL    HW131952   5.931   5.243   0.701 -0.9041  0.8063  0.9737
10351SOL    HW231953   6.073   5.317   0.729  0.0235 -0.9575  1.0362
10352SOL     OW31954   5.313   2.563   0.468 -0.0801 -0.1659 -0.3146
10352SOL    HW131955   5.372   2.483   0.458 -0.3681 -0.0345 -4.3790
10352SOL    HW231956   5.367   2.641   0.501  2.0136 -0.1904 -3.3592
10353SOL     OW31957   1.283   4.836   2.126  0.3647 -0.2423 -0.0959
10353SOL    HW131958   1.376   4.869   2.107  0.8596 -1.0581  0.8331
10353SOL    HW231959   1.223   4.859   2.049  1.8709 -1.8464 -1.8339
10354SOL     OW31960   6.253   4.364   4.480  0.1830  0.2704 -0.4006
10354SOL    HW131961   6.249   4.383   4.382 -2.0154  0.6475 -0.2855
10354SOL    HW231962   6.334   4.408   4.519  0.4785  1.0791 -1.8482
10355SOL     OW31963   3.198   1.530   0.093  1.0839 -0.1201  0.0992
10355SOL    HW131964   3.145   1.504   0.174  0.8901 -0.4800 -0.1390
10355SOL    HW231965   3.215   1.628   0.093  0.9598 -0.1005  0.5022
10356SOL     OW31966   5.838   4.866   6.763 -0.0831  0.2327 -0.3705
10356SOL    HW131967   5.784   4.927   6.705 -0.4114  1.6215  1.3224
10356SOL    HW231968   5.914   4.917   6.803  0.2337 -0.7404  0.2923
10357SOL     OW31969   3.241   6.090   4.382  0.1623  0.3522  0.5157
10357SOL    HW131970   3.148   6.104   4.348 -0.2107  0.6012  1.6035
10357SOL    HW231971   3.246   6.119   4.477  1.8899  2.3433 -0.1135
10358SOL     OW31972   4.100   6.219   6.055 -0.2363  0.1101 -0.1083
10358SOL    HW131973   4.126   6.223   5.959  0.7635  2.7814  0.1946
10358SOL    HW231974   4.013   6.267   6.068  0.5520  1.3932  0.5589
10359SOL     OW31975   1.573   0.013   0.433 -0.0413 -0.1549 -0.1442
10359SOL    HW131976   1.543   0.037   0.525 -1.2247  0.2313 -0.6021
10359SOL    HW231977   1.671  -0.007   0.433 -0.0750 -0.4036  1.2319
10360SOL     OW31978   0.469   4.906   2.685  0.2178 -0.6240  0.1211
10360SOL    HW131979   0.378   4.927   2.651 -0.1150 -0.4595  1.1034
10360SOL    HW231980   0.499   4.817   2.649 -0.4171 -0.7826 -0.0174
10361SOL     OW31981   2.111   4.819   2.468  0.0456 -0.3089  0.1001
10361SOL    HW131982   2.153   4.745   2.415  0.9351 -0.5988  1.1635
10361SOL    HW231983   2.155   4.906   2.446  0.0339 -0.3357 -0.0317
10362SOL     OW31984   1.026   6.534   6.445 -0.2661  0.2043  0.5605
10362SOL    HW131985   1.080   6.613   6.417  1.7270 -1.3196 -0.1563
10362SOL    HW231986   1.055   6.504   6.536  0.5285 -0.9376 -0.0417
10363SOL     OW31987   3.192   3.502   6.023 -0.0381  0.4379  0.2551
10363SOL    HW131988   3.208   3.529   6.118 -0.3013  0.9191  0.1659
10363SOL    HW231989   3.167   3.583   5.969  1.2656  0.3720 -0.4860
10364SOL     OW31990   4.402   4.522   5.749  0.1645 -0.2197  0.0248
10364SOL    HW131991   4.400   4.441   5.807 -0.8970 -1.6075 -1.8334
10364SOL    HW231992   4.341   4.508   5.671  1.8356  1.3941 -1.6591
10365SOL     OW31993   1.397   6.357   3.648 -0.3124 -0.4380  0.0683
10365SOL    HW131994   1.345   6.348   3.733 -1.4141 -0.2877 -0.5699
10365SOL    HW231995   1.443   6.270   3.628 -0.4576 -0.6304  0.5564
10366SOL     OW31996   6.806   2.154   0.607  0.2708 -0.3135  0.0448
10366SOL    HW131997   6.828   2.234   0.662  1.0263 -0.2614 -0.3210
10366SOL    HW231998   6.785   2.077   0.666  1.8004 -0.4618  0.4293
10367SOL     OW31999   3.029   3.037   1.383 -0.2631 -0.4087 -0.4962
10367SOL    HW132000   2.990   2.980   1.310 -0.5095 -1.6045  0.5262
10367SOL    HW232001   3.099   2.985   1.432  1.3637  1.0872 -1.1423
10368SOL     OW32002   0.981   5.341   5.074  0.2133  0.0369 -0.9924
10368SOL    HW132003   0.984   5.317   4.977  1.5396  0.0577 -0.9726
10368SOL    HW232004   0.958   5.438   5.083  1.7689  0.4651 -1.3748
10369SOL     OW32005   0.297   5.404   3.460 -0.1308 -0.0960 -0.0267
10369SOL    HW132006   0.311   5.305   3.464  0.4825 -0.0020  0.2330
10369SOL    HW232007   0.218   5.429   3.517 -1.1416 -0.5813 -1.1732
10370SOL     OW32008   3.050   4.046   0.957 -0.3532  0.1882  0.4729
10370SOL    HW132009   3.091   4.136   0.947  0.0150  0.0184  0.4526
10370SOL    HW232010   3.120   3.975   0.947 -0.5135 -0.0812  1.1818
10371SOL     OW32011   5.818   3.829   0.633  0.4686  0.5600  0.4874
10371SOL    HW132012   5.854   3.802   0.723  0.8146  1.8237  0.7515
10371SOL    HW232013   5.883   3.890   0.588 -0.5369  1.4706  0.2128
10372SOL     OW32014   6.790   6.724   1.745 -0.3934  0.1561 -0.4201
10372SOL    HW132015   6.791   6.626   1.765  0.4295  0.5168  1.5909
10372SOL    HW232016   6.860   6.743   1.676 -0.5910 -0.6718 -0.8705
10373SOL     OW32017   3.074   1.182   4.367 -0.0135 -0.4742 -0.3741
10373SOL    HW132018   3.107   1.276   4.357 -0.2360 -0.4856 -1.3191
10373SOL    HW232019   3.153   1.121   4.372  0.1473 -0.4215 -1.8207
10374SOL     OW32020   3.064   6.610   4.221  0.1016  0.2316 -0.2909
10374SOL    HW132021   3.119   6.663   4.286 -0.2759  0.7820 -0.4110
10374SOL    HW232022   3.039   6.668   4.143  3.1420 -1.2269 -2.5307
10375SOL     OW32023   5.979   5.006   5.622  0.3254  0.3291  0.6034
10375SOL    HW132024   6.070   5.009   5.663  0.7342  0.0190 -0.2618
10375SOL    HW232025   5.921   4.943   5.675  1.5058 -1.8271 -0.5466
10376SOL     OW32026   4.374   3.241   5.811  0.1356  0.4457 -0.0914
10376SOL    HW132027   4.336   3.333   5.819 -1.7880 -0.3395  0.3669
10376SOL    HW232028   4.364   3.193   5.899  1.2894 -0.1464 -0.2646
10377SOL     OW32029   6.046   0.342   6.603  0.5247  0.1805 -0.0483
10377SOL    HW132030   6.112   0.278   6.641 -0.1036  0.5074  1.6819
10377SOL    HW232031   6.092   0.426   6.575  0.9593  0.0849  0.3794
10378SOL     OW32032   6.288   1.168   3.423  0.2230  0.0877  0.1116
10378SOL    HW132033   6.231   1.201   3.498 -0.0635 -1.0169  0.3958
10378SOL    HW232034   6.236   1.101   3.369  0.8876 -0.1307 -0.2629
10379SOL     OW32035   6.363   3.853   3.850  0.8138  0.2107 -0.5417
10379SOL    HW132036   6.392   3.871   3.944 -2.1272  0.5187  0.4308
10379SOL    HW232037   6.266   3.879   3.840  0.2076 -2.4910 -2.8557
10380SOL     OW32038   1.668   2.053   5.647 -0.6038  0.1594 -0.1801
10380SOL    HW132039   1.630   1.999   5.722 -0.0475  2.4037  1.8573
10380SOL    HW232040   1.735   1.998   5.597 -0.0569 -1.0668  1.7803
10381SOL     OW32041   4.017   4.792   3.621  0.1724  0.4004 -0.1459
10381SOL    HW132042   3.948   4.733   3.663  0.2651 -0.3288 -0.9830
10381SOL    HW232043   4.064   4.845   3.692  1.3252 -1.8428  0.8702
10382SOL     OW32044   0.013   5.890   0.307  0.1290 -0.6855  0.6935
10382SOL    HW132045   0.043   5.986   0.299  0.3182 -0.8588 -1.0381
10382SOL    HW232046  -0.046   5.881   0.387 -0.5405  1.0594  0.4605
10383SOL     OW32047   2.993   5.291   3.013 -0.3193 -0.2986  0.5970
10383SOL    HW132048   2.968   5.206   3.061  0.0846  0.4557  2.2028
10383SOL    HW232049   3.053   5.346   3.071  0.0125  0.7754 -0.7118
10384SOL     OW32050   6.856   3.910   6.068  0.0421 -0.1771  0.2427
10384SOL    HW132051   6.884   3.972   5.995 -0.6639 -0.0434  0.0743
10384SOL    HW232052   6.867   3.956   6.156  2.0307 -0.7521  0.3497
10385SOL     OW32053   3.015   5.424   0.934  0.0847  0.1943  0.0001
10385SOL    HW132054   2.998   5.494   1.004 -0.3095  1.7136 -1.5373
10385SOL    HW232055   2.928   5.385   0.904  0.1436  0.3942 -0.4461
10386SOL     OW32056   6.610   1.217   5.630 -0.8288  0.2137  0.1485
10386SOL    HW132057   6.602   1.221   5.531 -0.8926  1.3777  0.1832
10386SOL    HW232058   6.666   1.294   5.663 -1.9629  0.6852  1.0993
10387SOL     OW32059   3.156   3.630   3.962 -0.0059  0.3799  0.7815
10387SOL    HW132060   3.191   3.583   4.044  0.3557  0.4272  0.6567
10387SOL    HW232061   3.058   3.613   3.954 -0.1537  0.8100  1.5197
10388SOL     OW32062   2.205   6.591   4.501  0.3644 -0.3351  0.2919
10388SOL    HW132063   2.205   6.644   4.586 -1.4591  0.8856 -0.4088
10388SOL    HW232064   2.284   6.616   4.446 -0.2986  1.5376  0.1066
10389SOL     OW32065   6.832   6.121   2.401  0.1476  0.2959 -0.1362
10389SOL    HW132066   6.909   6.101   2.341  0.2772 -1.1207  0.4537
10389SOL    HW232067   6.866   6.144   2.492 -0.0361  2.6313 -0.6006
10390SOL     OW32068   0.108   4.588   6.040 -0.3702 -0.4606 -0.6059
10390SOL    HW132069   0.063   4.537   6.114 -0.2366 -1.5705 -1.2705
10390SOL    HW232070   0.038   4.637   5.987 -0.3981  1.0765  0.7429
10391SOL     OW32071   2.171   4.196   0.999  0.4531 -0.3018  0.8209
10391SOL    HW132072   2.164   4.289   0.963 -1.3818 -1.8491 -3.4703
10391SOL    HW232073   2.266   4.165   0.991  0.4572  0.0839 -1.1176
10392SOL     OW32074   0.407   6.405   0.546  0.3075  0.0872 -0.3042
10392SOL    HW132075   0.374   6.496   0.521  0.4787  0.0537 -0.6570
10392SOL    HW232076   0.395   6.391   0.644  1.1330  0.8476 -0.0838
10393SOL     OW32077   5.968   2.646   2.572 -0.3651  0.0923 -0.4725
10393SOL    HW132078   6.006   2.734   2.545  0.8338 -1.2834 -3.8044
10393SOL    HW232079   6.042   2.582   2.593 -1.0436 -0.9236 -1.0606
10394SOL     OW32080   6.520   3.128   2.755 -0.2062  0.1876 -0.1025
10394SOL    HW132081   6.579   3.067   2.808 -0.3139  2.1842  2.5117
10394SOL    HW232082   6.453   3.074   2.704  1.1159 -1.9167  0.2760
10395SOL     OW32083   4.001   2.119   5.922 -0.2157 -0.1186  0.2811
10395SOL    HW132084   4.062   2.096   5.998  0.5198  1.3631  0.1820
10395SOL    HW232085   4.055   2.159   5.848 -1.3004  1.3508  0.2330
10396SOL     OW32086   0.284   4.064   0.401 -0.4493 -0.2298 -0.9637
10396SOL    HW132087   0.326   4.099   0.318 -0.8194 -0.8641 -1.4262
10396SOL    HW232088   0.222   4.133   0.439  1.2632  0.8704 -0.0584
10397SOL     OW32089   2.833   1.836   3.291  0.4933 -0.3947  0.1003
10397SOL    HW132090   2.782   1.750   3.285 -1.0677  0.3668  1.4758
10397SOL    HW232091   2.816   1.891   3.210  0.8107 -1.0014 -0.3912
10398SOL     OW32092   5.446   1.539   1.325  0.3788  0.3558 -0.3636
10398SOL    HW132093   5.391   1.498   1.399 -2.9845  2.5715 -1.3993
10398SOL    HW232094   5.506   1.609   1.363  0.7357 -0.4150  0.5352
10399SOL     OW32095   5.823   3.709   6.937 -0.3871 -0.0220  0.1259
10399SOL    HW132096   5.749   3.774   6.918 -1.9772 -1.9893 -0.7576
10399SOL    HW232097   5.867   3.684   6.851 -0.5503 -0.9687  0.3116
10400SOL     OW32098   3.228   6.073   7.006 -0.7098 -0.7245  0.2702
10400SOL    HW132099   3.212   5.976   6.986 -1.3299 -0.5244 -0.2695
10400SOL    HW232100   3.323   6.096   6.986 -1.5636 -0.2048 -4.2075
10401SOL     OW32101   6.480   0.710   6.122 -0.0018 -0.4789  0.2342
10401SOL    HW132102   6.381   0.722   6.127 -0.0857 -1.2247  0.5964
10401SOL    HW232103   6.525   0.799   6.119 -0.6553 -0.1251  0.7665
10402SOL     OW32104   6.617   1.685   6.655 -0.2859 -0.0357  0.7917
10402SOL    HW132105   6.676   1.685   6.736  1.1980 -0.5124 -0.2392
10402SOL    HW232106   6.631   1.771   6.605  0.4710 -0.6453 -0.0821
10403SOL     OW32107   1.383   6.937   2.230  0.2733 -0.2625  0.5455
10403SOL    HW132108   1.289   6.954   2.258 -0.3761 -1.2945 -0.9258
10403SOL    HW232109   1.418   6.857   2.280  0.1388 -0.2902  0.5964
10404SOL     OW32110   6.023   0.031   1.845  0.0495  0.0320  0.5872
10404SOL    HW132111   5.952   0.084   1.891  0.5486  0.9723  0.3045
10404SOL    HW232112   5.981  -0.041   1.790 -0.6761  0.4373  0.5940
10405SOL     OW32113   5.838   6.326   6.476 -0.2075  0.0054  0.0392
10405SOL    HW132114   5.830   6.401   6.541  0.8638  0.7911 -0.7056
10405SOL    HW232115   5.903   6.258   6.511 -1.2595 -0.6577  0.7635
10406SOL     OW32116   4.935   2.441   4.960 -0.5190 -0.6341  0.2961
10406SOL    HW132117   4.899   2.416   4.870  1.5915 -0.7597 -0.5586
10406SOL    HW232118   5.016   2.387   4.981  0.7799  1.4538  0.9472
10407SOL     OW32119   6.639   0.499   6.221  0.0622  0.0120 -0.0708
10407SOL    HW132120   6.585   0.572   6.180 -2.8677 -1.4520  0.8799
10407SOL    HW232121   6.650   0.424   6.155  0.2910  0.0025 -0.0221
10408SOL     OW32122   5.463   0.780   3.443  0.1727  0.0081 -0.6109
10408SOL    HW132123   5.504   0.707   3.388  3.2315 -0.8255  2.4118
10408SOL    HW232124   5.386   0.744   3.495  0.5754 -0.6301 -0.4482
10409SOL     OW32125   1.105   3.228   0.448  0.1118  0.0778 -0.2538
10409SOL    HW132126   1.127   3.299   0.382 -1.7787  1.5461  0.5899
10409SOL    HW232127   1.005   3.216   0.452  0.1680 -0.1039  2.1197
10410SOL     OW32128   6.224   1.119   6.046 -0.1307 -0.2860 -0.6334
10410SOL    HW132129   6.267   1.208   6.030 -0.3693 -0.3110 -1.4480
10410SOL    HW232130   6.167   1.095   5.968  1.1965 -1.9151 -1.1540
10411SOL     OW32131   3.045   0.617   2.950 -0.1323 -0.5760 -0.2716
10411SOL    HW132132   2.975   0.688   2.962 -0.6624 -0.8911 -1.3388
10411SOL    HW232133   3.080   0.589   3.039 -0.4051  0.5375  0.2036
10412SOL     OW32134   2.033   0.134   2.904 -0.6486 -0.1015  0.1285
10412SOL    HW132135   1.972   0.189   2.961  0.7731  0.9580  0.6891
10412SOL    HW232136   2.069   0.191   2.830 -1.4990 -1.1269 -1.1180
10413SOL     OW32137   6.693   2.593   1.236  0.3629  0.6437  0.0162
10413SOL    HW132138   6.761   2.563   1.170  0.7515 -0.2817  0.8039
10413SOL    HW232139   6.650   2.512   1.277 -0.0207  1.2021  0.7291
10414SOL     OW32140   0.261   1.743   4.048  0.3684 -0.2623 -0.1203
10414SOL    HW132141   0.273   1.816   4.115  2.4422 -1.2825  0.7086
10414SOL    HW232142   0.207   1.777   3.971  1.5764  2.2818  0.0423
10415SOL     OW32143   5.350   1.940   0.629  0.4815  0.3317  0.3276
10415SOL    HW132144   5.382   1.899   0.544 -1.3263  2.5058 -1.5568
10415SOL    HW232145   5.418   2.006   0.662  1.2009 -0.5370  0.6016
10416SOL     OW32146   1.427   2.049   4.797  0.0433 -0.6011  0.0629
10416SOL    HW132147   1.368   2.051   4.878  0.7330 -1.1037  0.5958
10416SOL    HW232148   1.521   2.031   4.825  0.6668  1.2393 -0.6624
10417SOL     OW32149   6.130   6.221   3.290 -0.5030  0.1795  0.3695
10417SOL    HW132150   6.088   6.291   3.233 -0.6806 -1.2102 -1.2605
10417SOL    HW232151   6.058   6.169   3.338 -0.3637  1.2087  1.7675
10418SOL     OW32152   0.534   2.013   5.822 -0.4451 -0.0499  0.0552
10418SOL    HW132153   0.455   2.003   5.883 -1.2167 -0.1621 -0.9336
10418SOL    HW232154   0.503   2.008   5.727  0.7919 -0.3138 -0.3479
10419SOL     OW32155   2.245   4.119   2.814  0.0916  0.4932 -0.3571
10419SOL    HW132156   2.155   4.162   2.823 -0.9488 -1.8714  1.5931
10419SOL    HW232157   2.235   4.027   2.779  1.4309 -0.6320  1.9449
10420SOL     OW32158   0.401   5.096   4.759 -0.1658 -0.2033 -0.3442
10420SOL    HW132159   0.453   5.068   4.678  0.8096 -3.9521  1.3456
10420SOL    HW232160   0.465   5.125   4.831 -1.0023  2.7760 -0.6496
10421SOL     OW32161   1.284   3.980   1.740 -0.0241 -0.1365  0.4900
10421SOL    HW132162   1.196   4.017   1.769 -0.0062 -0.2905  0.7501
10421SOL    HW232163   1.358   4.027   1.790  0.0834  0.4739 -0.2339
10422SOL     OW32164   0.501   4.073   6.683 -0.5406 -1.2243  0.4149
10422SOL    HW132165   0.455   4.023   6.757 -0.1649  0.4126  1.7983
10422SOL    HW232166   0.468   4.167   6.680  1.0647 -0.6451 -0.0577
10423SOL     OW32167   3.924   6.551   6.173 -0.5527 -0.1263 -0.1372
10423SOL    HW132168   3.851   6.534   6.240 -0.7376 -1.9435 -0.7195
10423SOL    HW232169   3.911   6.489   6.095  2.4580 -1.6217  0.4088
10424SOL     OW32170   0.615   5.196   5.344 -0.0712 -0.0399 -0.7582
10424SOL    HW132171   0.572   5.283   5.318  0.1843  0.6034  0.8142
10424SOL    HW232172   0.704   5.188   5.301 -0.5455 -0.0274 -1.7568
10425SOL     OW32173   4.746   2.892   4.640  0.3416 -0.0410 -0.3868
10425SOL    HW132174   4.771   2.913   4.546  0.3509 -0.0842 -0.3939
10425SOL    HW232175   4.750   2.976   4.695  0.8683 -0.1137 -0.3060
10426SOL     OW32176   5.683   6.593   1.263 -0.9852  0.1343 -0.6887
10426SOL    HW132177   5.616   6.579   1.336 -0.7840  1.6530 -0.1791
10426SOL    HW232178   5.667   6.526   1.190 -0.4365 -2.2416  1.2284
10427SOL     OW32179   0.966   1.182   4.091  0.5423  0.8215 -0.1027
10427SOL    HW132180   0.898   1.238   4.137 -0.3674 -0.3850  0.0820
10427SOL    HW232181   0.931   1.088   4.082  0.8338  0.9016 -2.8713
10428SOL     OW32182   0.927   0.070   2.650  0.1978  0.1296 -0.0072
10428SOL    HW132183   1.025   0.079   2.631  0.4997  1.4469  1.9566
10428SOL    HW232184   0.908  -0.022   2.685  0.8385  0.0704  0.1926
10429SOL     OW32185   1.148   6.501   3.587 -0.2605 -0.1524 -0.2612
10429SOL    HW132186   1.110   6.428   3.531  1.7351 -1.1439 -0.4370
10429SOL    HW232187   1.241   6.476   3.616 -0.5151  1.1519  1.9400
10430SOL     OW32188   4.085   1.066   5.646  0.6752 -0.2428 -0.0845
10430SOL    HW132189   4.106   1.161   5.668 -0.3949 -0.0423  0.1077
10430SOL    HW232190   4.049   1.060   5.553 -0.7463 -0.2271  0.4409
10431SOL     OW32191   6.617   6.188   0.734  0.0372  0.0970  0.4482
10431SOL    HW132192   6.529   6.207   0.690  0.1905 -1.8908 -0.8412
10431SOL    HW232193   6.630   6.251   0.811 -2.5030  0.4312  0.6870
10432SOL     OW32194   5.086   3.781   5.955  0.0943  0.2186 -0.5195
10432SOL    HW132195   5.092   3.881   5.948 -0.3495  0.2410 -0.6474
10432SOL    HW232196   5.054   3.756   6.047  1.4996  0.1272 -0.0250
10433SOL     OW32197   2.365   0.786   4.454 -0.1372 -0.2245  0.0279
10433SOL    HW132198   2.460   0.797   4.426 -0.5242 -0.4557 -1.4744
10433SOL    HW232199   2.360   0.781   4.554  1.1602  2.1821  0.2755
10434SOL     OW32200   4.524   2.525   3.339 -0.9118  0.5690 -0.4185
10434SOL    HW132201   4.566   2.499   3.426 -2.2031 -0.9199 -0.1817
10434SOL    HW232202   4.535   2.623   3.323  0.5186  0.6226  0.7521
10435SOL     OW32203   4.073   2.086   7.013 -0.4721 -0.4102  0.3136
10435SOL    HW132204   4.153   2.142   7.037  0.2728 -0.3538 -2.0755
10435SOL    HW232205   4.034   2.047   7.097  1.7254 -0.0182  1.6053
10436SOL     OW32206   2.125   0.128   6.237 -0.4713 -0.2124 -0.3656
10436SOL    HW132207   2.122   0.049   6.176 -2.1057  0.1818 -0.8376
10436SOL    HW232208   2.184   0.198   6.198 -1.0287 -0.2000 -1.2141
10437SOL     OW32209   0.213   0.975   0.476 -0.4221  0.6674 -0.3320
10437SOL    HW132210   0.206   0.950   0.379 -0.6463  2.4610 -0.8064
10437SOL    HW232211   0.295   1.031   0.490 -0.3717  0.3971  0.5333
10438SOL     OW32212   2.537   4.852   1.922 -0.3289 -0.8024  0.2735
10438SOL    HW132213   2.598   4.929   1.942  0.0112 -0.9230 -0.2619
10438SOL    HW232214   2.567   4.771   1.972  0.0880 -0.9159 -0.1437
10439SOL     OW32215   1.273   0.062   1.659 -0.3129  0.2025 -0.5947
10439SOL    HW132216   1.307  -0.031   1.646 -0.0742  0.1679  0.2372
10439SOL    HW232217   1.350   0.126   1.654 -0.3341  0.2606 -0.1976
10440SOL     OW32218   4.211   6.866   1.079 -0.0553 -0.1264  0.4826
10440SOL    HW132219   4.217   6.808   0.997 -2.5843  0.6431 -0.3422
10440SOL    HW232220   4.133   6.836   1.134  1.3422 -0.3298  2.4300
10441SOL     OW32221   4.272   5.873   2.855  0.1870  0.0209 -0.1337
10441SOL    HW132222   4.370   5.891   2.843  0.5809 -2.4684 -1.6111
10441SOL    HW232223   4.260   5.784   2.899 -1.4605  0.7232  0.9372
10442SOL     OW32224   5.737   0.838   1.169  1.0085  0.7384 -0.0504
10442SOL    HW132225   5.672   0.782   1.220  0.8340 -0.5124 -1.5570
10442SOL    HW232226   5.753   0.924   1.217 -0.3298  0.2787  1.2778
10443SOL     OW32227   1.303   0.010   6.874 -0.1677 -0.3206  0.2407
10443SOL    HW132228   1.391  -0.014   6.914 -0.1036 -0.6851 -0.1081
10443SOL    HW232229   1.292  -0.038   6.786 -0.0308  0.9538 -0.4943
10444SOL     OW32230   3.411   6.604   0.478  0.8754  0.6495 -0.4251
10444SOL    HW132231   3.361   6.655   0.407 -2.6083 -1.1979  0.4761
10444SOL    HW232232   3.454   6.524   0.438  1.0634  0.9467 -0.8270
10445SOL     OW32233   2.008   2.411   0.114 -0.0239  0.2586 -0.4824
10445SOL    HW132234   1.973   2.319   0.128 -2.9713  1.4853  1.1599
10445SOL    HW232235   2.063   2.438   0.193  1.0171 -0.1205 -1.0585
10446SOL     OW32236   1.331   6.882   0.514  0.4708 -0.6975  0.5471
10446SOL    HW132237   1.244   6.889   0.564  0.3766  0.3509  0.2673
10446SOL    HW232238   1.314   6.896   0.417  1.1043  0.8129  0.6298
10447SOL     OW32239   4.353   4.954   1.080 -1.1865  0.2882 -0.5489
10447SOL    HW132240   4.434   4.895   1.072  0.1783  2.0385 -0.0590
10447SOL    HW232241   4.311   4.941   1.170  0.0344  1.2019  0.1618
10448SOL     OW32242   1.451   4.874   4.432 -0.2889 -0.0902 -0.3879
10448SOL    HW132243   1.386   4.917   4.495 -3.1597  0.7629 -3.5888
10448SOL    HW232244   1.407   4.795   4.389  1.6697 -0.8439 -1.0842
10449SOL     OW32245   0.795   0.684   4.029 -0.2629 -0.1637  0.0811
10449SOL    HW132246   0.803   0.782   4.012  0.4638 -0.2746 -0.2856
10449SOL    HW232247   0.818   0.664   4.125  0.1521 -0.0353  0.0092
10450SOL     OW32248   2.620   0.641   1.583 -0.3196  0.4897 -0.0946
10450SOL    HW132249   2.671   0.581   1.523  0.2560  0.3174  0.5597
10450SOL    HW232250   2.679   0.714   1.616 -1.4262  2.5280 -2.2961
10451SOL     OW32251   4.723   3.250   0.829 -0.8840 -0.1610  0.0946
10451SOL    HW132252   4.629   3.265   0.860  0.5511  1.3892  4.4502
10451SOL    HW232253   4.758   3.165   0.869 -0.2951 -0.6355 -1.3393
10452SOL     OW32254   2.082   5.338   2.724 -0.7182 -0.0354  0.7013
10452SOL    HW132255   2.182   5.336   2.730 -0.3968  3.0376 -1.3580
10452SOL    HW232256   2.044   5.373   2.809 -0.0200 -0.5223  1.2294
10453SOL     OW32257   0.883   2.111   0.545 -0.1014 -0.0540  0.3477
10453SOL    HW132258   0.958   2.074   0.600  1.4879 -0.0490 -1.7096
10453SOL    HW232259   0.912   2.120   0.450 -2.0159  2.0156 -0.1314
10454SOL     OW32260   6.185   5.007   4.604 -0.0971  0.1255  0.1996
10454SOL    HW132261   6.140   5.062   4.534 -0.7898  0.6974  1.0739
10454SOL    HW232262   6.126   5.000   4.684  1.6593  1.5465  1.7058
10455SOL     OW32263   5.410   5.992   1.319  0.6199 -0.0531 -0.3745
10455SOL    HW132264   5.407   5.952   1.411  2.4323 -0.9113 -0.6462
10455SOL    HW232265   5.465   6.075   1.321  0.5406  0.0075 -0.6530
10456SOL     OW32266   4.090   3.204   3.756 -0.3306  0.4559  0.8300
10456SOL    HW132267   4.099   3.289   3.705 -0.0973 -0.9224 -1.5828
10456SOL    HW232268   4.026   3.143   3.710 -1.0145 -0.4729  2.8594
10457SOL     OW32269   5.512   2.956   4.490  0.5500 -0.0936 -0.0945
10457SOL    HW132270   5.466   2.955   4.401 -0.9853 -2.2907  0.6150
10457SOL    HW232271   5.588   2.892   4.489 -0.4684 -1.3732  0.5716
10458SOL     OW32272   6.012   4.723   0.206 -0.4026  0.7375  0.2864
10458SOL    HW132273   5.924   4.728   0.159 -0.3333  4.6802  0.2419
10458SOL    HW232274   6.002   4.754   0.301  0.6272 -0.7033  0.9046
10459SOL     OW32275   1.024   1.772   6.834  0.1581 -0.3876 -0.5253
10459SOL    HW132276   1.017   1.700   6.765 -1.1008  0.5864 -1.4425
10459SOL    HW232277   0.933   1.809   6.853  1.0094  2.8601 -2.1201
10460SOL     OW32278   3.454   2.155   5.122  0.2498 -0.4025 -0.4006
10460SOL    HW132279   3.384   2.226   5.121  0.9699  0.3472  0.5590
10460SOL    HW232280   3.418   2.072   5.080 -0.7774  0.3637 -1.0735
10461SOL     OW32281   2.865   5.565   6.697  0.1762 -0.0958  0.2478
10461SOL    HW132282   2.824   5.655   6.709  0.2547  0.1104 -0.9113
10461SOL    HW232283   2.909   5.537   6.782 -1.0622  0.3282  1.0589
10462SOL     OW32284   2.702   1.200   5.072 -0.5364 -0.0954 -0.4156
10462SOL    HW132285   2.792   1.183   5.032 -0.2821  0.3507 -0.0493
10462SOL    HW232286   2.645   1.119   5.062  0.7818 -1.3991  1.6868
10463SOL     OW32287   3.422   2.104   4.014  0.1328 -0.4327 -0.7658
10463SOL    HW132288   3.474   2.104   4.100  0.8180  1.9519 -1.0904
10463SOL    HW232289   3.327   2.080   4.033  0.4419 -0.7227  0.5343
10464SOL     OW32290   4.162   0.934   1.435  0.1611 -0.2349 -0.6660
10464SOL    HW132291   4.260   0.912   1.433  0.5198  0.5342  2.6842
10464SOL    HW232292   4.147   1.012   1.495 -2.6402 -0.9409 -0.3206
10465SOL     OW32293   4.790   3.375   0.015 -0.4822 -0.6329 -0.2902
10465SOL    HW132294   4.773   3.425  -0.070  2.9926 -0.7921 -1.2249
10465SOL    HW232295   4.801   3.277  -0.006 -1.2998 -0.9316  0.6307
10466SOL     OW32296   1.749   1.498   6.401 -0.4542 -0.1599 -1.0583
10466SOL    HW132297   1.732   1.588   6.361 -2.7800 -0.8787 -1.8818
10466SOL    HW232298   1.681   1.480   6.473  0.9008 -0.6874  0.1320
10467SOL     OW32299   2.097   1.720   6.175  0.3108  0.0903 -0.1461
10467SOL    HW132300   2.089   1.621   6.188  1.2454  0.0608  0.2637
10467SOL    HW232301   2.005   1.760   6.170 -0.0806 -0.8788 -1.0606
10468SOL     OW32302   4.850   3.193   6.106 -0.1485  0.1878  0.0618
10468SOL    HW132303   4.934   3.159   6.065 -0.1013  1.6772 -1.1819
10468SOL    HW232304   4.778   3.198   6.037 -0.5970  1.0630  0.5635
10469SOL     OW32305   4.461   1.989   2.986  0.3417  0.0359  0.1030
10469SOL    HW132306   4.482   1.892   2.979  0.3893  0.0318  0.2941
10469SOL    HW232307   4.456   2.016   3.082 -0.6908  0.0046  0.0759
10470SOL     OW32308   4.093   2.204   3.539  0.1727 -0.3808 -1.1997
10470SOL    HW132309   4.017   2.264   3.516 -0.0842 -0.2386 -0.0619
10470SOL    HW232310   4.172   2.226   3.482 -0.4167 -0.0545 -1.9015
10471SOL     OW32311   0.529   5.875   0.963  0.1914  0.1358  0.5568
10471SOL    HW132312   0.516   5.855   0.866  0.9389  1.1474  0.2400
10471SOL    HW232313   0.578   5.799   1.007 -0.5420 -0.5269  0.2566
10472SOL     OW32314   6.779   3.230   0.612  0.4279 -0.4383 -0.2512
10472SOL    HW132315   6.782   3.243   0.711 -0.5413 -0.8876 -0.1504
10472SOL    HW232316   6.845   3.292   0.569  1.8839 -1.2290  0.7503
10473SOL     OW32317   3.984   6.638   1.958 -0.0184 -0.1380 -0.7896
10473SOL    HW132318   3.973   6.693   1.875 -1.0407 -0.7303 -1.0802
10473SOL    HW232319   3.894   6.623   2.000  0.2917 -1.1182 -0.4290
10474SOL     OW32320   0.663   5.655   5.381 -0.2774 -0.1834  0.4885
10474SOL    HW132321   0.627   5.693   5.466 -0.7164  0.7079 -0.0725
10474SOL    HW232322   0.760   5.680   5.372  0.1262 -1.3770  1.3242
10475SOL     OW32323   3.248   4.741   5.726  0.1199  0.1391 -0.1668
10475SOL    HW132324   3.232   4.835   5.696  1.2843  0.4175  0.0114
10475SOL    HW232325   3.166   4.705   5.770 -0.1811  1.2626  0.2203
10476SOL     OW32326   3.988   3.422   2.607  0.0571 -0.3408 -0.6981
10476SOL    HW132327   3.963   3.503   2.661 -0.2346 -1.3101  0.6761
10476SOL    HW232328   4.055   3.447   2.538  0.0169  1.0630 -0.2547
10477SOL     OW32329   6.552   5.982   4.380 -0.1039  0.7635  0.3513
10477SOL    HW132330   6.571   6.072   4.341  1.0518  1.0735  1.5183
10477SOL    HW232331   6.456   5.959   4.368 -0.5911  2.4991  0.7008
10478SOL     OW32332   0.773   4.796   0.108  0.4776  0.4245  0.6887
10478SOL    HW132333   0.750   4.840   0.021 -0.3863  1.7823  1.5419
10478SOL    HW232334   0.724   4.709   0.116  0.6497  0.2421 -0.2221
10479SOL     OW32335   3.162   0.806   5.789 -0.5937 -0.1437 -0.2891
10479SOL    HW132336   3.201   0.890   5.750 -0.3903 -1.5499 -3.4454
10479SOL    HW232337   3.063   0.815   5.794 -0.5973  0.2323 -0.8436
10480SOL     OW32338   0.304   4.499   6.293  0.3009  0.1159  0.1349
10480SOL    HW132339   0.210   4.468   6.278  1.0857 -3.6970  1.7989
10480SOL    HW232340   0.338   4.543   6.210 -2.4429  0.3428 -0.9960
10481SOL     OW32341   6.215   1.777   4.656 -0.1573  0.0701  0.3122
10481SOL    HW132342   6.313   1.795   4.669 -0.4928  0.7975  2.2760
10481SOL    HW232343   6.186   1.809   4.566  1.4078 -0.2142 -0.3202
10482SOL     OW32344   2.511   7.003   3.971 -0.0463  0.0765 -0.3708
10482SOL    HW132345   2.520   6.921   3.915 -0.1432  0.3946 -0.8605
10482SOL    HW232346   2.523   6.979   4.067 -0.4254 -0.5695 -0.4763
10483SOL     OW32347   2.240   0.602   1.882 -0.6747 -0.5845  0.0200
10483SOL    HW132348   2.316   0.660   1.913 -2.1316  1.0192  0.7090
10483SOL    HW232349   2.257   0.507   1.910  1.1206 -0.3015  0.0374
10484SOL     OW32350   5.691   5.118   1.488  0.0609  1.3145  0.6513
10484SOL    HW132351   5.650   5.159   1.569  2.6640  1.9643  1.7543
10484SOL    HW232352   5.786   5.093   1.508 -0.2276 -1.7754 -1.1562
10485SOL     OW32353   2.364   4.523   1.979 -0.0403 -0.4772 -0.4892
10485SOL    HW132354   2.457   4.543   2.007 -0.0034 -1.2646 -0.0232
10485SOL    HW232355   2.362   4.504   1.881  0.0544  0.8965 -0.7811
10486SOL     OW32356   0.701   6.417   3.677 -0.1536 -0.2667  0.2498
10486SOL    HW132357   0.693   6.444   3.773 -0.1470  1.4939 -0.2098
10486SOL    HW232358   0.748   6.489   3.625  0.3221 -1.4162 -0.9888
10487SOL     OW32359   3.250   1.546   1.016  0.5605  0.1329 -0.4770
10487SOL    HW132360   3.336   1.499   1.038 -0.1119 -1.4815 -1.0927
10487SOL    HW232361   3.174   1.494   1.055 -0.1851  1.1156 -0.6060
10488SOL     OW32362   6.779   0.180   3.711 -0.3346  0.7642  0.0333
10488SOL    HW132363   6.704   0.245   3.715  0.0076  1.1261  1.0754
10488SOL    HW232364   6.840   0.194   3.790  1.2878  1.0461 -1.2065
10489SOL     OW32365   3.045   5.280   4.568  0.1425  0.0329 -0.1400
10489SOL    HW132366   3.076   5.219   4.495 -0.3524 -1.6667  1.0033
10489SOL    HW232367   3.082   5.248   4.656 -2.0566 -0.0742  0.8162
10490SOL     OW32368   2.073   0.851   2.481  0.3966 -0.2392 -0.5993
10490SOL    HW132369   2.095   0.948   2.472  0.4650 -0.0055  1.6863
10490SOL    HW232370   2.154   0.797   2.457  1.2649  0.3879  0.7830
10491SOL     OW32371   3.715   3.323   2.956 -0.0428  0.1814  0.3688
10491SOL    HW132372   3.805   3.279   2.958  0.0289  0.2048 -1.2694
10491SOL    HW232373   3.646   3.255   2.931 -0.1684  0.6249 -0.5034
10492SOL     OW32374   0.041   5.865   6.994  0.1564 -0.3384  0.2034
10492SOL    HW132375  -0.039   5.845   6.937 -0.3792  2.4562 -0.1984
10492SOL    HW232376   0.056   5.790   7.058 -1.3113 -2.0274 -1.3052
10493SOL     OW32377   1.703   3.886   5.615 -0.1867 -0.1359  0.4845
10493SOL    HW132378   1.675   3.841   5.700  2.1324 -1.6354  0.5269
10493SOL    HW232379   1.762   3.825   5.562 -1.3975  0.8367 -2.1553
10494SOL     OW32380   1.072   2.538   1.386  0.2335  1.3389 -0.1502
10494SOL    HW132381   1.002   2.493   1.442  0.8896 -0.6492 -0.8466
10494SOL    HW232382   1.151   2.477   1.376  0.8657  2.3582 -1.7690
10495SOL     OW32383   2.180   4.315   3.263  0.4404 -0.1903 -0.0890
10495SOL    HW132384   2.124   4.398   3.266 -0.2522 -0.5697 -1.6742
10495SOL    HW232385   2.219   4.299   3.354  0.3588  1.6887  0.3340
10496SOL     OW32386   1.089   6.729   1.119 -0.0645 -0.3100  0.3884
10496SOL    HW132387   1.128   6.816   1.087 -4.1676  1.0975 -1.4368
10496SOL    HW232388   1.121   6.655   1.060  0.4349  0.6127 -0.5379
10497SOL     OW32389   6.012   5.893   0.349 -0.5522 -0.4119 -0.7347
10497SOL    HW132390   6.007   5.793   0.340 -1.0163 -0.4951  0.3462
10497SOL    HW232391   5.998   5.935   0.259 -1.0436 -1.2965 -1.0872
10498SOL     OW32392   3.314   0.755   0.654  0.5134  0.5762 -0.0204
10498SOL    HW132393   3.285   0.678   0.711  0.3654  1.7250  1.5322
10498SOL    HW232394   3.263   0.837   0.681  0.1241  1.0914 -2.1381
10499SOL     OW32395   5.889   1.973   1.676  0.0541 -0.3710 -0.2372
10499SOL    HW132396   5.955   2.044   1.653  0.4900 -0.6889  0.0313
10499SOL    HW232397   5.903   1.893   1.618 -0.9596  0.0488 -1.1007
10500SOL     OW32398   2.354   4.111   5.355  0.4220 -0.0714 -0.1319
10500SOL    HW132399   2.268   4.136   5.310  0.4843  2.2209  0.8385
10500SOL    HW232400   2.402   4.043   5.301 -2.0148 -1.4935 -0.6778
10501SOL     OW32401   2.456   6.294   2.804  0.0926  0.2728 -0.3821
10501SOL    HW132402   2.398   6.231   2.752 -0.9923  1.2378 -0.3705
10501SOL    HW232403   2.518   6.342   2.741 -1.0558  1.2688 -0.7795
10502SOL     OW32404   5.310   0.219   5.862  0.1179  0.4100  0.2229
10502SOL    HW132405   5.305   0.238   5.960  0.6816  1.5621  0.0392
10502SOL    HW232406   5.308   0.120   5.848  1.2961  0.1642  1.4856
10503SOL     OW32407   5.984   1.549   2.654 -0.4183  0.5519  0.1179
10503SOL    HW132408   6.037   1.464   2.661 -0.2124  0.6695 -0.0090
10503SOL    HW232409   5.900   1.532   2.603  0.1264  0.6544 -0.8519
10504SOL     OW32410   4.065   3.656   5.045 -0.2602  0.0449  0.7619
10504SOL    HW132411   4.152   3.616   5.076  0.2341 -0.0157 -0.6061
10504SOL    HW232412   4.048   3.627   4.950 -1.1211  1.1221  0.5719
10505SOL     OW32413   0.766   3.372   0.156  0.1739  0.3142 -0.1974
10505SOL    HW132414   0.706   3.394   0.079 -0.2504  0.3244  0.1282
10505SOL    HW232415   0.808   3.456   0.190  0.6549  0.2583 -0.6550
10506SOL     OW32416   1.464   5.489   6.853 -0.0241  0.4583 -0.2964
10506SOL    HW132417   1.456   5.441   6.940 -0.5774  0.9029 -0.0937
10506SOL    HW232418   1.376   5.530   6.830 -0.2915 -0.9031 -1.8071
10507SOL     OW32419   5.579   3.078   1.066 -0.1934 -0.1675 -0.3555
10507SOL    HW132420   5.669   3.053   1.102  0.3235 -0.2035 -1.6331
10507SOL    HW232421   5.584   3.086   0.967 -2.0345 -2.0316 -0.6552
10508SOL     OW32422   2.687   4.198   0.638 -0.0842  0.1813 -0.1575
10508SOL    HW132423   2.644   4.145   0.565 -0.6656  1.0691 -0.4843
10508SOL    HW232424   2.762   4.146   0.678  0.4748 -0.1987 -1.6326
10509SOL     OW32425   1.741   4.294   4.009 -0.1388 -0.2312  0.2142
10509SOL    HW132426   1.670   4.227   3.987  1.9411 -2.3407 -0.4687
10509SOL    HW232427   1.768   4.284   4.105 -0.3229  0.1520  0.3086
10510SOL     OW32428   5.676   5.863   0.064 -0.0650 -0.4432 -0.5631
10510SOL    HW132429   5.700   5.840  -0.031  1.4626  0.0698 -0.3326
10510SOL    HW232430   5.704   5.957   0.083 -2.7847  0.4106 -0.3598
10511SOL     OW32431   6.797   1.191   5.108 -0.4887 -0.5672  0.4650
10511SOL    HW132432   6.720   1.197   5.172 -0.9547 -1.4140  0.0138
10511SOL    HW232433   6.821   1.095   5.094 -0.8504 -0.4656 -1.1226
10512SOL     OW32434   4.947   4.116   4.447  0.6377 -0.2825 -0.0041
10512SOL    HW132435   4.943   4.016   4.444 -2.4919 -0.2405 -2.3659
10512SOL    HW232436   4.974   4.151   4.357 -2.5336  0.9118 -0.6267
10513SOL     OW32437   6.843   4.109   0.885  0.4389 -0.1686 -0.4883
10513SOL    HW132438   6.864   4.183   0.822 -1.4205 -0.0915 -1.0776
10513SOL    HW232439   6.926   4.084   0.936  1.2695  1.8463 -0.7348
10514SOL     OW32440   1.572   4.099   1.155 -0.4488  0.1536 -0.0635
10514SOL    HW132441   1.510   4.148   1.215 -0.6999  0.7769 -0.8125
10514SOL    HW232442   1.523   4.025   1.109 -0.5977  0.5348 -0.5219
10515SOL     OW32443   0.991   2.239   0.297 -0.0835  0.7086 -0.5914
10515SOL    HW132444   0.945   2.303   0.236  1.0240  1.6689 -0.4548
10515SOL    HW232445   1.075   2.206   0.253 -0.3661 -0.2391 -0.4367
10516SOL     OW32446   0.821   5.715   0.339 -0.4632  0.2415 -0.1393
10516SOL    HW132447   0.822   5.685   0.243 -0.2883  1.4238 -0.5144
10516SOL    HW232448   0.884   5.657   0.392 -0.0306  0.0193 -0.8726
10517SOL     OW32449   3.092   4.794   2.010 -0.0638 -0.4832  0.1958
10517SOL    HW132450   3.019   4.726   2.022 -0.8341  0.5490  1.5852
10517SOL    HW232451   3.146   4.770   1.929 -1.7053 -1.4731 -0.6671
10518SOL     OW32452   5.721   4.684   0.098 -0.1043  0.3956  0.0625
10518SOL    HW132453   5.629   4.721   0.113 -0.2963  1.1471 -2.4120
10518SOL    HW232454   5.737   4.676  -0.000  1.7917 -1.5652  0.4746
10519SOL     OW32455   0.853   2.708   5.056  0.0119  0.0887 -0.0796
10519SOL    HW132456   0.756   2.731   5.069 -0.2225 -0.3473 -1.0007
10519SOL    HW232457   0.861   2.637   4.986  0.8532 -1.2120  1.2590
10520SOL     OW32458   0.214   2.950   0.570  0.1967  0.0212  0.3189
10520SOL    HW132459   0.269   2.938   0.487  0.2375 -0.1801  0.3739
10520SOL    HW232460   0.122   2.982   0.545 -0.2009 -1.2349  0.0826
10521SOL     OW32461   6.410   5.847   4.164 -0.2742 -0.2217  0.0923
10521SOL    HW132462   6.339   5.834   4.095 -1.0371  1.5397  0.4849
10521SOL    HW232463   6.370   5.891   4.244  1.4865  2.0374 -0.1794
10522SOL     OW32464   5.089   4.631   1.824  0.2719 -0.4838 -0.0906
10522SOL    HW132465   5.083   4.606   1.727 -2.4131  0.6021 -0.2841
10522SOL    HW232466   5.073   4.729   1.834  1.3608 -0.4257  1.4179
10523SOL     OW32467   0.266   2.502   4.024 -0.2992  0.2773  0.1512
10523SOL    HW132468   0.353   2.453   4.017 -0.6265 -0.2541 -0.2451
10523SOL    HW232469   0.274   2.590   3.978 -0.3068 -0.2444 -0.8666
10524SOL     OW32470   3.581   3.425   0.471 -0.2515  0.4433  0.0568
10524SOL    HW132471   3.505   3.450   0.412  0.6399  0.0576 -1.3054
10524SOL    HW232472   3.667   3.437   0.422  0.5930  0.9270  1.5806
10525SOL     OW32473   4.679   0.487   1.034  0.0587 -0.4209  0.4329
10525SOL    HW132474   4.677   0.438   1.122 -1.2718 -1.9058 -0.3806
10525SOL    HW232475   4.645   0.427   0.962 -1.5336  1.6812 -0.6530
10526SOL     OW32476   5.663   6.606   4.956 -0.0941  0.0125 -0.6500
10526SOL    HW132477   5.585   6.547   4.973  1.2678 -1.4747  0.8611
10526SOL    HW232478   5.652   6.654   4.869 -2.4866 -0.3980 -0.6226
10527SOL     OW32479   3.352   6.573   3.597  0.6117 -0.4208  0.2079
10527SOL    HW132480   3.345   6.538   3.503  0.7526  0.9247 -0.3255
10527SOL    HW232481   3.448   6.587   3.620  0.5943 -0.9970  0.6699
10528SOL     OW32482   4.355   5.674   5.759 -0.0646  0.1041 -0.7009
10528SOL    HW132483   4.342   5.761   5.711  0.5911 -0.3482 -1.7432
10528SOL    HW232484   4.428   5.683   5.826 -2.2744  1.2981  1.7033
10529SOL     OW32485   3.639   2.911   4.284  0.1705 -0.4682  0.9350
10529SOL    HW132486   3.575   2.947   4.217  0.5039 -0.8886  0.3805
10529SOL    HW232487   3.722   2.879   4.237  0.0517 -1.5578  1.4468
10530SOL     OW32488   3.841   6.793   6.473 -0.4034 -0.2142  0.7381
10530SOL    HW132489   3.932   6.760   6.496 -0.0190 -1.5312 -2.1888
10530SOL    HW232490   3.774   6.721   6.492 -0.5135 -0.0825  0.8436
10531SOL     OW32491   3.856   4.921   2.830  0.2541 -0.6882  0.5462
10531SOL    HW132492   3.866   4.828   2.864  0.9945 -0.2381  1.5911
10531SOL    HW232493   3.881   4.923   2.733 -0.3211 -1.6680  0.3569
10532SOL     OW32494   4.373   3.693   0.426 -0.1600 -0.2450  0.0086
10532SOL    HW132495   4.457   3.655   0.465 -0.6141 -1.4658 -0.1690
10532SOL    HW232496   4.314   3.726   0.499  0.8310  1.4591  0.0974
10533SOL     OW32497   6.259   6.790   6.686  0.0746  0.2576 -0.4652
10533SOL    HW132498   6.299   6.839   6.608  0.3646 -1.7009 -1.6105
10533SOL    HW232499   6.292   6.831   6.771  1.8256  0.8571 -1.3719
10534SOL     OW32500   0.762   2.327   1.327 -0.6902 -0.0105  0.1255
10534SOL    HW132501   0.821   2.374   1.391 -0.6828 -0.1075  0.1903
10534SOL    HW232502   0.668   2.359   1.339 -0.4634  1.1022 -0.8628
10535SOL     OW32503   4.265   6.916   5.065 -0.1581  0.0874  0.3886
10535SOL    HW132504   4.220   6.868   4.989  1.4419  0.0093 -0.5448
10535SOL    HW232505   4.203   6.985   5.101 -1.2119 -0.3349 -0.5328
10536SOL     OW32506   6.674   4.019   5.502 -0.2030 -0.2705 -0.3943
10536SOL    HW132507   6.703   4.102   5.550  0.5758 -0.1184 -1.1169
10536SOL    HW232508   6.752   3.978   5.456 -1.2012  0.5202 -2.9930
10537SOL     OW32509   4.492   6.518   3.413  0.1860  0.1932  0.4581
10537SOL    HW132510   4.517   6.477   3.325 -2.8053 -2.2666  0.5677
10537SOL    HW232511   4.406   6.568   3.403 -0.6808 -0.8746  2.0858
10538SOL     OW32512   4.016   4.567   0.530  0.1757  0.4671  0.0417
10538SOL    HW132513   4.084   4.595   0.598  0.4604  0.4346 -0.2281
10538SOL    HW232514   3.971   4.483   0.562  0.2044  0.5325  0.2587
10539SOL     OW32515   1.048   4.918   5.828 -0.4759  0.3098  0.4831
10539SOL    HW132516   1.059   5.004   5.779  3.2802  0.8443  1.9278
10539SOL    HW232517   0.960   4.918   5.876 -1.5044  2.3582 -1.2576
10540SOL     OW32518   6.238   4.765   0.077 -0.0445 -0.5530 -0.2646
10540SOL    HW132519   6.274   4.715  -0.003 -0.4522  0.1016 -0.8633
10540SOL    HW232520   6.149   4.728   0.102 -0.1778 -0.3749 -0.4747
10541SOL     OW32521   3.519   5.201   6.148 -0.1335  0.4293 -0.0953
10541SOL    HW132522   3.524   5.101   6.149 -1.9567  0.0242 -4.7522
10541SOL    HW232523   3.428   5.230   6.177 -0.1609  0.5819 -0.3293
10542SOL     OW32524   4.040   4.085   5.811 -0.2402 -0.2030 -0.2114
10542SOL    HW132525   4.104   4.031   5.756  0.3423  0.8595 -0.6078
10542SOL    HW232526   4.021   4.172   5.764 -0.6278  0.2294  0.7248
10543SOL     OW32527   5.653   3.923   0.053  0.1490 -0.0069  0.5583
10543SOL    HW132528   5.633   3.965   0.142 -1.7434 -0.3969  0.3571
10543SOL    HW232529   5.570   3.922  -0.002  1.3268  0.3429 -1.2829
10544SOL     OW32530   5.024   0.392   3.811  0.1254  0.3323 -0.0182
10544SOL    HW132531   5.061   0.483   3.829  0.3529 -0.2031  2.5561
10544SOL    HW232532   5.078   0.347   3.740  2.7201  0.6273  1.6568
10545SOL     OW32533   5.854   6.017   2.052 -0.1194 -0.4253 -0.9275
10545SOL    HW132534   5.787   6.046   1.984  1.6871  0.1407 -2.5674
10545SOL    HW232535   5.863   6.088   2.122 -0.3139  0.0731 -1.3994
10546SOL     OW32536   4.880   1.062   0.066  1.0785  0.1847 -0.6712
10546SOL    HW132537   4.903   1.159   0.063  1.7017  0.0299 -1.1089
10546SOL    HW232538   4.939   1.012   0.003  0.7030 -0.4690 -0.5141
10547SOL     OW32539   5.890   4.755   4.906  0.5041  0.2186  0.9153
10547SOL    HW132540   5.812   4.739   4.965  1.7113  1.1805  2.8765
10547SOL    HW232541   5.868   4.727   4.812 -2.4503  1.2697  1.2102
10548SOL     OW32542   3.230   2.885   6.490 -0.3715  0.7802 -0.1464
10548SOL    HW132543   3.147   2.835   6.468  0.3362  0.1791 -1.5911
10548SOL    HW232544   3.308   2.823   6.488 -0.0964  0.7868  3.6152
10549SOL     OW32545   2.935   2.501   0.619 -0.0548  0.8123 -0.3159
10549SOL    HW132546   2.894   2.443   0.549 -0.5003  1.1150 -0.3125
10549SOL    HW232547   2.895   2.478   0.708  0.1825  0.7344 -0.2304
10550SOL     OW32548   4.076   2.651   5.808 -0.2767 -0.2718 -0.6651
10550SOL    HW132549   4.077   2.729   5.871 -1.6127  0.5607 -1.5964
10550SOL    HW232550   3.981   2.628   5.786  0.1366 -1.0883 -1.6973
10551SOL     OW32551   5.078   3.273   0.641  0.7713  0.3608  0.7348
10551SOL    HW132552   5.091   3.369   0.666  0.6498  1.3353 -2.5344
10551SOL    HW232553   4.981   3.254   0.629  0.9357  1.1922 -2.9540
10552SOL     OW32554   1.873   2.415   5.556  0.2479 -0.5207  0.1930
10552SOL    HW132555   1.864   2.463   5.643  0.8458 -0.8984  0.4701
10552SOL    HW232556   1.821   2.463   5.486  0.3416  0.1874  0.6004
10553SOL     OW32557   4.724   2.028   6.269 -0.2491 -0.8200  0.0381
10553SOL    HW132558   4.646   2.046   6.209 -0.5015 -1.1652  0.2622
10553SOL    HW232559   4.723   1.932   6.298  0.7130 -1.0353 -0.6079
10554SOL     OW32560   3.794   4.905   4.490  0.1050 -0.8361  0.1253
10554SOL    HW132561   3.858   4.894   4.567 -0.0138  2.0378  0.7508
10554SOL    HW232562   3.707   4.940   4.524  0.3916  1.5217 -1.3620
10555SOL     OW32563   5.372   1.553   6.785 -0.2525 -0.5327  0.2126
10555SOL    HW132564   5.317   1.578   6.865  3.1934  1.4090  2.1964
10555SOL    HW232565   5.369   1.628   6.718 -0.5160 -0.7153  0.0179
10556SOL     OW32566   5.906   6.980   1.195  0.5691  0.7626  0.5999
10556SOL    HW132567   5.935   6.885   1.199 -1.0406  0.2514  0.5375
10556SOL    HW232568   5.976   7.034   1.147 -0.2587 -1.0854 -3.0388
10557SOL     OW32569   4.457   6.184   0.778  0.2961 -0.7547 -0.1155
10557SOL    HW132570   4.473   6.247   0.855 -0.6239 -1.6200  0.8143
10557SOL    HW232571   4.532   6.118   0.774 -0.0081 -1.1452  0.4936
10558SOL     OW32572   0.603   4.874   5.752 -0.3955 -0.0861 -0.4697
10558SOL    HW132573   0.668   4.918   5.814 -0.9170  1.1666 -0.7684
10558SOL    HW232574   0.529   4.939   5.730 -1.7485 -1.4572 -0.1431
10559SOL     OW32575   4.810   6.203   0.486 -0.0918 -0.1154 -0.7774
10559SOL    HW132576   4.730   6.150   0.458 -0.3044 -0.5502  0.5991
10559SOL    HW232577   4.872   6.213   0.408 -0.1167 -2.2701 -1.1435
10560SOL     OW32578   3.949   0.696   0.481 -0.2957  0.1770  0.9136
10560SOL    HW132579   4.046   0.722   0.473 -0.5591  0.8286 -0.6238
10560SOL    HW232580   3.942   0.599   0.500  0.6779 -0.3192 -0.9881
10561SOL     OW32581   4.586   6.058   6.822 -0.0892  0.0671 -0.4393
10561SOL    HW132582   4.592   6.155   6.844  0.7527  0.1052 -0.8062
10561SOL    HW232583   4.538   6.046   6.736  0.8330  0.2523 -0.9959
10562SOL     OW32584   4.995   4.102   3.224 -0.4364 -0.3945  0.0878
10562SOL    HW132585   4.971   4.107   3.127 -2.7687  0.4778  0.6425
10562SOL    HW232586   5.081   4.150   3.240  0.9713 -2.0998 -1.7676
10563SOL     OW32587   5.587   6.021   1.660  0.1129  0.3755 -0.1259
10563SOL    HW132588   5.605   5.923   1.668 -0.2529  0.4162  1.4623
10563SOL    HW232589   5.637   6.057   1.581  0.8177 -0.9484 -0.3211
10564SOL     OW32590   0.770   1.842   1.229 -0.1320  0.2752  0.0437
10564SOL    HW132591   0.815   1.790   1.301  0.0776  1.7213  1.0102
10564SOL    HW232592   0.826   1.922   1.205 -1.1694  0.9413 -0.2365
10565SOL     OW32593   2.291   0.257   0.281  0.3545 -0.2893 -0.4370
10565SOL    HW132594   2.290   0.237   0.183 -2.7359 -0.2303 -0.5015
10565SOL    HW232595   2.332   0.181   0.330  0.3518 -1.0889 -1.6290
10566SOL     OW32596   6.717   4.697   6.601  0.4064  0.9492  0.2477
10566SOL    HW132597   6.785   4.700   6.675 -0.0055 -1.6164  0.8314
10566SOL    HW232598   6.698   4.790   6.570  3.7947  1.8213  0.3701
10567SOL     OW32599   6.353   3.094   3.664  0.2706  0.1559  0.2482
10567SOL    HW132600   6.283   3.064   3.729  1.7855 -1.7918  1.0892
10567SOL    HW232601   6.401   3.173   3.702 -0.3710  0.4839  0.4048
10568SOL     OW32602   5.491   6.400   2.940  0.5149  0.1688  0.2337
10568SOL    HW132603   5.489   6.483   2.995  3.2906  0.3135  0.2717
10568SOL    HW232604   5.532   6.326   2.993  2.1457 -0.0054 -1.1737
10569SOL     OW32605   5.635   4.113   1.668  0.1234  0.4636 -0.5392
10569SOL    HW132606   5.592   4.201   1.689  0.0634  0.4593 -0.6460
10569SOL    HW232607   5.702   4.126   1.594  1.6993  0.8578  0.8912
10570SOL     OW32608   2.078   2.709   0.547  0.2113 -0.0217  0.2655
10570SOL    HW132609   2.131   2.710   0.632 -2.2910  0.3515  1.9087
10570SOL    HW232610   1.993   2.759   0.560 -1.0718 -1.4668 -1.9506
10571SOL     OW32611   3.000   4.562   0.979 -0.8756  0.0002 -0.0646
10571SOL    HW132612   3.066   4.613   0.923  2.2161 -3.2836  0.2541
10571SOL    HW232613   3.020   4.577   1.076  0.6800 -2.2755  0.0459
10572SOL     OW32614   0.392   3.751   0.252  0.2800  0.1433  0.7561
10572SOL    HW132615   0.361   3.845   0.238 -1.9423 -0.4969  0.9220
10572SOL    HW232616   0.315   3.696   0.284  0.6850 -2.4485 -2.2671
10573SOL     OW32617   1.870   6.783   4.723  0.2468 -0.6681  0.0283
10573SOL    HW132618   1.878   6.862   4.784 -0.0191 -0.2865 -0.4262
10573SOL    HW232619   1.961   6.746   4.704  0.5033  0.4063 -0.8956
10574SOL     OW32620   2.019   4.205   6.908  0.3660  0.1472 -0.1213
10574SOL    HW132621   2.073   4.288   6.890 -1.6832  1.5170 -0.2688
10574SOL    HW232622   1.959   4.186   6.831  0.4544 -1.2252  0.1179
10575SOL     OW32623   6.785   6.241   5.203  0.0070 -0.0934 -0.3010
10575SOL    HW132624   6.799   6.157   5.150  2.0604 -0.5429  0.8562
10575SOL    HW232625   6.693   6.240   5.241 -0.6044 -0.9902 -1.6940
10576SOL     OW32626   3.075   3.118   6.292  0.1348  0.2121 -0.0612
10576SOL    HW132627   2.977   3.097   6.293  0.6393 -2.4697  0.0979
10576SOL    HW232628   3.121   3.063   6.362  1.6743  2.0615  0.4476
10577SOL     OW32629   3.189   6.401   6.013 -0.1547  0.0645  0.6319
10577SOL    HW132630   3.090   6.418   6.012 -0.0728  0.7357  2.1492
10577SOL    HW232631   3.235   6.468   5.954 -0.6362 -0.6844 -0.6412
10578SOL     OW32632   2.348   4.352   2.956  0.6176  0.4292 -0.0045
10578SOL    HW132633   2.261   4.385   2.993  0.6700 -0.5022  0.9985
10578SOL    HW232634   2.349   4.252   2.957  2.8918  0.3185  3.0881
10579SOL     OW32635   2.137   4.401   6.075 -0.3332  0.1085 -0.0281
10579SOL    HW132636   2.131   4.303   6.091 -0.1376  0.0196 -0.4788
10579SOL    HW232637   2.163   4.418   5.980  3.3583  0.4999  0.8840
10580SOL     OW32638   1.171   1.687   2.269 -0.2261 -0.0103  0.3790
10580SOL    HW132639   1.235   1.623   2.312  0.3877  1.3076  1.4876
10580SOL    HW232640   1.220   1.749   2.208 -0.3470  1.2301  1.4972
10581SOL     OW32641   2.291   6.252   3.431  0.5017 -0.4632 -0.0247
10581SOL    HW132642   2.255   6.206   3.512  0.3629  2.2658  1.5466
10581SOL    HW232643   2.223   6.249   3.357 -0.2600 -1.0542  0.6891
10582SOL     OW32644   0.260   4.744   2.875 -0.1335 -0.8029 -0.0299
10582SOL    HW132645   0.237   4.654   2.838  2.1232 -1.1048 -0.9107
10582SOL    HW232646   0.198   4.767   2.950 -1.5408 -2.5209 -0.6149
10583SOL     OW32647   5.283   1.121   3.711 -0.0275  0.5118 -0.6304
10583SOL    HW132648   5.251   1.189   3.645 -0.9542 -1.2407 -2.0624
10583SOL    HW232649   5.272   1.157   3.804  0.0846  2.5303 -1.3522
10584SOL     OW32650   0.246   6.822   0.295 -0.5899 -0.3985  0.5890
10584SOL    HW132651   0.286   6.867   0.375  0.1461 -0.2660  0.1553
10584SOL    HW232652   0.310   6.828   0.218 -2.0297  1.1521 -0.5672
10585SOL     OW32653   5.638   5.989   5.939  0.1805 -0.4868  0.3416
10585SOL    HW132654   5.688   6.026   5.861 -0.6609  0.9477  0.4314
10585SOL    HW232655   5.693   5.999   6.022 -0.3918  1.6376  0.5433
10586SOL     OW32656   6.500   5.041   3.463 -0.4375  0.4851  0.3211
10586SOL    HW132657   6.466   4.952   3.493 -1.6702  1.2553  1.3462
10586SOL    HW232658   6.540   5.033   3.372 -0.9843 -1.0110  0.1831
10587SOL     OW32659   2.349   0.096   2.965  0.1217 -0.3700 -0.0659
10587SOL    HW132660   2.388   0.112   2.875 -0.8127 -0.5362 -0.5163
10587SOL    HW232661   2.259   0.139   2.971 -0.9630 -2.4612 -0.1422
10588SOL     OW32662   5.817   6.986   2.561  0.3499  0.4423 -0.6045
10588SOL    HW132663   5.913   7.000   2.585 -0.4639  0.8253  3.0166
10588SOL    HW232664   5.768   7.073   2.565 -0.3350  0.1192 -1.5608
10589SOL     OW32665   1.063   5.195   6.766  0.4574  0.3728  0.3583
10589SOL    HW132666   1.133   5.141   6.811 -0.0742  0.3784  1.2086
10589SOL    HW232667   0.991   5.134   6.731 -0.0099  0.4979  1.0848
10590SOL     OW32668   2.274   6.516   1.150 -0.1891  0.2315  0.7374
10590SOL    HW132669   2.317   6.522   1.239 -1.1567  2.0209  1.1372
10590SOL    HW232670   2.175   6.526   1.160 -0.5112 -1.4469 -0.3657
10591SOL     OW32671   6.373   5.650   4.446 -0.0921 -0.1650  0.5735
10591SOL    HW132672   6.297   5.693   4.397  0.2947 -0.5711 -0.4177
10591SOL    HW232673   6.433   5.605   4.380  2.1048  1.7923  1.0943
10592SOL     OW32674   2.998   0.737   2.565  0.1056 -0.0388 -0.1068
10592SOL    HW132675   3.058   0.778   2.634 -1.1918  1.0252  0.4079
10592SOL    HW232676   2.986   0.640   2.587  1.5756 -0.2738 -0.1933
10593SOL     OW32677   4.604   3.567   0.529  0.1931 -0.1466 -0.0810
10593SOL    HW132678   4.688   3.584   0.478  1.5837 -3.2210  0.8981
10593SOL    HW232679   4.601   3.625   0.610  0.6374  0.9830 -0.8520
10594SOL     OW32680   3.973   6.960   6.072 -0.4074 -0.2088 -0.1166
10594SOL    HW132681   4.017   7.048   6.085 -3.4573  1.2980  0.9275
10594SOL    HW232682   3.920   6.960   5.987 -0.2489 -1.1331 -0.2347
10595SOL     OW32683   5.481   4.405   3.589 -1.0169  0.0409 -0.1832
10595SOL    HW132684   5.508   4.314   3.621 -1.2081 -0.0876 -0.3846
10595SOL    HW232685   5.384   4.419   3.607 -0.8217  0.4972  0.5234
10596SOL     OW32686   3.810   1.395   3.108  0.3054 -0.4291  0.2201
10596SOL    HW132687   3.909   1.378   3.103  0.1797 -0.9882 -0.6314
10596SOL    HW232688   3.786   1.421   3.201  1.1407 -1.0714  0.6350
10597SOL     OW32689   4.312   1.561   1.751 -0.4586 -0.0969 -0.4257
10597SOL    HW132690   4.214   1.568   1.769 -0.6055  0.7119 -1.4809
10597SOL    HW232691   4.346   1.648   1.717  0.2251 -0.9106 -1.9378
10598SOL     OW32692   2.358   5.514   3.485  0.2765  0.2741 -0.1186
10598SOL    HW132693   2.353   5.481   3.579  0.6388 -1.1341 -0.5758
10598SOL    HW232694   2.430   5.465   3.435 -1.5521 -0.8459 -1.8291
10599SOL     OW32695   0.788   2.376   6.748 -0.2673 -0.0357  0.4755
10599SOL    HW132696   0.858   2.351   6.814 -0.3497 -1.7979 -0.0429
10599SOL    HW232697   0.735   2.294   6.724  0.1240  0.3995 -2.1664
10600SOL     OW32698   4.955   5.568   3.935 -0.5601 -0.1074 -0.4557
10600SOL    HW132699   4.880   5.625   3.967  0.0188 -0.4377  1.6665
10600SOL    HW232700   4.929   5.471   3.943 -0.9232 -0.2149 -2.4459
10601SOL     OW32701   0.911   5.724   5.295  0.5302  0.2469 -0.1052
10601SOL    HW132702   0.953   5.691   5.381  0.4760  0.6471  0.0757
10601SOL    HW232703   0.973   5.789   5.251 -0.7404  2.4699  1.2108
10602SOL     OW32704   0.170   1.858   3.810 -0.1087  0.0040  0.2903
10602SOL    HW132705   0.104   1.908   3.755 -0.1729 -0.1168  0.2580
10602SOL    HW232706   0.226   1.923   3.862 -0.3662  0.0978  0.4494
10603SOL     OW32707   3.446   1.639   4.210  0.4843 -0.7029 -0.1121
10603SOL    HW132708   3.426   1.729   4.249  0.5499 -1.2540  1.2493
10603SOL    HW232709   3.414   1.636   4.115 -2.2459 -0.2146  0.6908
10604SOL     OW32710   1.457   4.562   4.576  0.0697  0.1905 -0.2648
10604SOL    HW132711   1.524   4.637   4.575  0.2120  0.1210  1.6366
10604SOL    HW232712   1.365   4.600   4.563  0.0812  0.7973  1.2214
10605SOL     OW32713   3.588   2.473   0.358 -0.1992 -0.1283  0.3278
10605SOL    HW132714   3.623   2.514   0.442  1.6260 -0.9818  0.0315
10605SOL    HW232715   3.606   2.534   0.281 -2.8140  1.1385  0.6301
10606SOL     OW32716   5.102   5.347   4.351  0.2720 -0.0286  0.7084
10606SOL    HW132717   5.121   5.256   4.314 -0.0767 -0.2357  1.0273
10606SOL    HW232718   5.007   5.351   4.383  0.0578  0.6831  0.0139
10607SOL     OW32719   1.996   4.789   0.208 -0.0299 -0.3110  0.3811
10607SOL    HW132720   2.090   4.773   0.178 -0.4041  1.9811 -2.4928
10607SOL    HW232721   1.932   4.744   0.145 -0.8405  0.9336  0.2686
10608SOL     OW32722   5.610   1.233   5.271 -0.3521  0.1462 -0.2633
10608SOL    HW132723   5.598   1.156   5.334  2.7213 -0.8310 -0.6902
10608SOL    HW232724   5.652   1.201   5.186 -1.4444  1.9356 -1.5642
10609SOL     OW32725   5.589   6.167   6.934  0.0884  0.0810 -0.1513
10609SOL    HW132726   5.580   6.259   6.896 -1.0366  0.1688  0.2928
10609SOL    HW232727   5.511   6.148   6.994  0.9870 -0.6676  0.8132
10610SOL     OW32728   2.351   2.867   4.080 -0.4768  0.1128  0.8807
10610SOL    HW132729   2.255   2.840   4.089  0.0920 -1.6112  2.5644
10610SOL    HW232730   2.389   2.827   3.997 -0.9092 -0.2619  0.8580
10611SOL     OW32731   2.526   1.351   4.754 -0.3826 -0.6493  0.8629
10611SOL    HW132732   2.542   1.268   4.699 -0.4030  0.1709 -0.4191
10611SOL    HW232733   2.428   1.366   4.764 -0.3840 -0.3585  0.4289
10612SOL     OW32734   0.780   2.432   5.809  0.3024 -0.0557 -0.3083
10612SOL    HW132735   0.763   2.334   5.817  1.1047 -0.2227 -0.5579
10612SOL    HW232736   0.763   2.476   5.897 -2.0351 -0.0812 -0.6798
10613SOL     OW32737   4.099   1.972   6.492  0.2531  0.2823 -0.3053
10613SOL    HW132738   4.157   2.026   6.553 -0.3168  1.0585 -0.4402
10613SOL    HW232739   4.149   1.889   6.464  0.7888  0.2741  0.6262
10614SOL     OW32740   0.925   5.024   5.480 -0.3558 -0.0211 -0.4901
10614SOL    HW132741   0.930   5.080   5.562  2.0751 -2.1722  0.9881
10614SOL    HW232742   0.906   5.082   5.401  0.7732  2.6441  1.0696
10615SOL     OW32743   5.906   4.027   1.035 -0.5783 -0.5945  0.0716
10615SOL    HW132744   5.999   4.018   1.069 -0.0609  0.9866 -0.7819
10615SOL    HW232745   5.908   4.061   0.941 -2.0090 -1.2142 -0.2101
10616SOL     OW32746   3.082   1.540   5.365 -0.5461  0.3537  0.1495
10616SOL    HW132747   3.039   1.499   5.446  0.7610  0.1795  0.7738
10616SOL    HW232748   3.050   1.493   5.283 -1.1301 -0.1204  0.6371
10617SOL     OW32749   5.444   5.032   5.847  0.6012 -0.0885 -0.2511
10617SOL    HW132750   5.453   4.968   5.924 -0.9475 -1.3412 -1.0520
10617SOL    HW232751   5.359   5.014   5.799  1.2370  1.0899 -1.9070
10618SOL     OW32752   6.670   4.419   2.136  0.0660  0.2964 -0.8014
10618SOL    HW132753   6.615   4.444   2.216 -0.2174  0.0625 -0.9221
10618SOL    HW232754   6.735   4.347   2.162 -0.3600 -0.1298 -0.8963
10619SOL     OW32755   1.978   0.211   4.366  0.3678  0.3892  0.0304
10619SOL    HW132756   1.929   0.230   4.452 -0.7565  0.4403 -0.6035
10619SOL    HW232757   1.948   0.275   4.296  1.6539  0.6649 -0.2867
10620SOL     OW32758   0.657   4.571   5.501  0.5042  0.1913 -0.3124
10620SOL    HW132759   0.696   4.663   5.507 -1.2713  1.1343 -1.9318
10620SOL    HW232760   0.685   4.518   5.580 -0.9375  3.1651  2.4612
10621SOL     OW32761   1.139   5.733   6.002  0.2281  0.1319 -0.5534
10621SOL    HW132762   1.228   5.704   5.965 -0.2273 -1.9881 -0.1032
10621SOL    HW232763   1.067   5.711   5.937  0.0093  2.1346 -1.0544
10622SOL     OW32764   5.605   3.348   3.546  0.3361 -0.1905 -0.7716
10622SOL    HW132765   5.620   3.353   3.448 -0.1869  3.0560 -0.7909
10622SOL    HW232766   5.508   3.359   3.566  0.6010  0.6623  0.1420
10623SOL     OW32767   5.839   3.021   4.669 -0.9147 -0.0127 -0.7431
10623SOL    HW132768   5.918   3.083   4.665 -0.9468  0.1079  0.2635
10623SOL    HW232769   5.834   2.968   4.584  0.4913 -0.3186 -0.6546
10624SOL     OW32770   5.442   5.397   6.276 -0.4167 -0.0833 -0.5768
10624SOL    HW132771   5.431   5.407   6.177  0.8270 -0.4966 -0.7756
10624SOL    HW232772   5.519   5.453   6.306  0.5230 -1.5387 -0.1877
10625SOL     OW32773   4.563   0.742   1.540 -1.0688 -0.3366  0.6486
10625SOL    HW132774   4.549   0.652   1.499  0.2034 -0.7316  1.0183
10625SOL    HW232775   4.660   0.754   1.563 -1.3169  0.8771  1.1947
10626SOL     OW32776   1.711   5.515   4.199 -0.0044  0.1574  0.1282
10626SOL    HW132777   1.763   5.595   4.227 -0.7903  1.2562 -1.4131
10626SOL    HW232778   1.619   5.519   4.238 -0.8274  1.2704 -1.7986
10627SOL     OW32779   3.800   5.727   4.655 -0.2255  0.1762 -0.3106
10627SOL    HW132780   3.727   5.701   4.592  1.0940  0.0209 -1.8376
10627SOL    HW232781   3.803   5.663   4.731 -1.7096  0.2358 -0.1761
10628SOL     OW32782   0.244   0.564   4.406  0.1391  0.1139  0.2112
10628SOL    HW132783   0.268   0.591   4.499 -0.3558  0.4615  0.2401
10628SOL    HW232784   0.189   0.636   4.363  0.0761 -0.1940 -0.2341
10629SOL     OW32785   3.195   2.606   0.594  0.2813 -0.0595 -0.6822
10629SOL    HW132786   3.097   2.593   0.578  0.1439  2.1515 -2.1066
10629SOL    HW232787   3.209   2.648   0.683  0.1062 -1.8552  0.2340
10630SOL     OW32788   1.525   6.792   4.411  0.0973  0.3021 -0.4424
10630SOL    HW132789   1.476   6.755   4.332  2.0587 -0.1327 -1.5189
10630SOL    HW232790   1.472   6.774   4.494 -2.0045  0.7453 -1.6007
10631SOL     OW32791   0.412   2.027   5.093 -0.4000  0.2473 -0.7401
10631SOL    HW132792   0.358   2.069   5.020 -0.1520 -0.3876 -1.2969
10631SOL    HW232793   0.499   2.076   5.103 -0.0224 -0.2545 -1.5282
10632SOL     OW32794   0.760   6.455   3.341  0.6079 -0.4433 -0.0793
10632SOL    HW132795   0.805   6.491   3.423  1.3863  0.7942 -1.0056
10632SOL    HW232796   0.664   6.483   3.341  0.5413 -0.6537  0.5167
10633SOL     OW32797   2.844   2.230   3.594 -0.5131  0.4067  0.6657
10633SOL    HW132798   2.855   2.131   3.601  1.1040  0.5904  0.9802
10633SOL    HW232799   2.846   2.270   3.686 -2.0810  0.6708  0.6167
10634SOL     OW32800   4.798   6.210   5.182 -0.5858 -0.1941  0.7378
10634SOL    HW132801   4.842   6.298   5.204  0.9207 -0.9080  0.7054
10634SOL    HW232802   4.817   6.145   5.256  1.4015 -1.5370 -0.8485
10635SOL     OW32803   3.408   0.746   3.321 -0.7077  0.1040  0.1417
10635SOL    HW132804   3.412   0.838   3.359 -1.7838  0.5527 -0.7995
10635SOL    HW232805   3.326   0.700   3.353  1.5245 -1.9644  3.6342
10636SOL     OW32806   0.842   0.565   2.516 -0.4758  0.0831 -0.1291
10636SOL    HW132807   0.922   0.621   2.496 -0.7975  0.9955  1.0167
10636SOL    HW232808   0.784   0.560   2.435 -0.3536  1.2811 -0.3090
10637SOL     OW32809   1.940   6.714   2.754 -0.6955 -0.2233  0.0618
10637SOL    HW132810   1.899   6.698   2.844 -0.2945  1.2008  0.5175
10637SOL    HW232811   1.873   6.692   2.683 -2.0869  1.4931  0.7767
10638SOL     OW32812   0.112   0.363   1.994  0.2972  0.5699  0.2758
10638SOL    HW132813   0.166   0.284   1.964  0.4198  0.7430  0.0343
10638SOL    HW232814   0.154   0.447   1.959 -0.6709  0.6465 -0.7416
10639SOL     OW32815   0.003   0.938   3.076  0.0869  0.0023  0.4924
10639SOL    HW132816  -0.027   1.031   3.058 -0.8871 -0.3410  0.3156
10639SOL    HW232817  -0.062   0.873   3.037  0.5186 -0.7592  0.9996
10640SOL     OW32818   1.044   6.264   0.991 -0.1844  0.4028  0.1337
10640SOL    HW132819   0.982   6.294   1.063 -1.2775 -0.3330 -0.4707
10640SOL    HW232820   1.068   6.343   0.933  0.4111  0.9192  1.0618
10641SOL     OW32821   2.418   1.432   3.704  0.5154 -0.0441  0.5020
10641SOL    HW132822   2.331   1.388   3.725  0.3205 -0.4183 -0.9744
10641SOL    HW232823   2.401   1.523   3.665  0.8070  0.1167  0.7471
10642SOL     OW32824   5.710   4.536   3.545  0.5921 -0.4366 -0.9926
10642SOL    HW132825   5.781   4.476   3.510  0.0589 -1.4433 -0.3915
10642SOL    HW232826   5.624   4.486   3.553  0.0960  0.4347 -0.5997
10643SOL     OW32827   1.592   2.328   1.386 -0.4987  0.2027 -0.1564
10643SOL    HW132828   1.651   2.387   1.331  0.8735 -0.0599  0.9805
10643SOL    HW232829   1.627   2.234   1.384 -0.3519  0.2058  1.2343
10644SOL     OW32830   6.182   6.518   5.414 -0.4916  0.1430  0.2732
10644SOL    HW132831   6.116   6.473   5.474 -1.6320  0.3466 -0.7877
10644SOL    HW232832   6.158   6.615   5.405  0.8828  0.5848  1.1097
10645SOL     OW32833   0.952   1.062   1.301 -0.7470  0.4509 -0.2127
10645SOL    HW132834   0.979   1.149   1.341 -0.1720  0.2348 -0.1249
10645SOL    HW232835   0.948   1.071   1.201 -2.8185  1.1726 -0.1169
10646SOL     OW32836   3.296   0.824   3.697 -0.0648 -0.0147  0.1873
10646SOL    HW132837   3.203   0.806   3.728  0.4160 -2.4200  0.4330
10646SOL    HW232838   3.359   0.813   3.774  0.6003 -0.3789 -0.4013
10647SOL     OW32839   3.972   1.539   0.577  0.1150 -0.2700  1.1716
10647SOL    HW132840   3.896   1.500   0.525 -0.3542  1.8954  0.1058
10647SOL    HW232841   3.940   1.620   0.626  1.2132 -0.6997  2.6624
10648SOL     OW32842   3.034   3.125   6.912 -0.1100 -0.1736 -0.1330
10648SOL    HW132843   3.066   3.063   6.841  2.4157  0.0569  0.7010
10648SOL    HW232844   3.025   3.075   6.998 -0.0814  0.1789  0.0759
10649SOL     OW32845   1.878   6.138   6.132 -1.0239 -0.2551  0.0142
10649SOL    HW132846   1.875   6.214   6.197  1.0128 -0.6986  0.6954
10649SOL    HW232847   1.857   6.172   6.041 -0.7757  1.0145  0.4028
10650SOL     OW32848   5.445   6.162   2.555  0.5308 -0.1214 -0.2575
10650SOL    HW132849   5.401   6.230   2.496 -2.3943 -2.0530 -0.5079
10650SOL    HW232850   5.469   6.081   2.500 -0.5703 -1.2173  0.8145
10651SOL     OW32851   4.141   3.552   3.927  0.2881  0.0380 -0.6660
10651SOL    HW132852   4.171   3.535   3.833 -0.1133  0.4953 -0.8813
10651SOL    HW232853   4.181   3.638   3.959  0.9657 -0.4537 -0.1766
10652SOL     OW32854   2.900   6.066   6.568  0.3078  0.7275 -0.4098
10652SOL    HW132855   2.831   5.995   6.559  1.2025 -0.2936  0.4884
10652SOL    HW232856   2.865   6.139   6.627  0.0051  0.2076  0.0595
10653SOL     OW32857   1.077   3.775   4.899 -0.2229  0.4518  0.4105
10653SOL    HW132858   0.992   3.738   4.936 -0.1757 -1.9646 -1.6592
10653SOL    HW232859   1.155   3.740   4.952 -0.2945 -1.0013 -0.4082
10654SOL     OW32860   0.198   1.477   4.729  0.7519 -0.0856  0.2794
10654SOL    HW132861   0.243   1.540   4.793 -0.4695  1.3207 -0.1818
10654SOL    HW232862   0.225   1.498   4.636 -1.2624  1.2253 -0.0694
10655SOL     OW32863   1.900   6.591   1.741  0.7253  0.4092  0.1045
10655SOL    HW132864   1.987   6.594   1.692  0.9656  1.2227  0.5545
10655SOL    HW232865   1.912   6.630   1.832  0.5110 -1.8952  1.2043
10656SOL     OW32866   0.311   5.956   0.083 -0.0621  0.0513  0.2494
10656SOL    HW132867   0.361   6.037   0.051 -0.0715 -0.1873 -0.3874
10656SOL    HW232868   0.213   5.975   0.082 -0.0275  0.2975  0.8713
10657SOL     OW32869   3.115   3.521   0.064  0.5095 -0.6526 -0.0553
10657SOL    HW132870   3.022   3.547   0.088 -0.9557 -3.3409 -2.2110
10657SOL    HW232871   3.150   3.582  -0.007 -0.2615 -0.5606 -0.3623
10658SOL     OW32872   2.445   0.808   1.876  0.4062  0.1303 -0.2672
10658SOL    HW132873   2.483   0.900   1.878  2.0917 -0.4663 -1.9458
10658SOL    HW232874   2.361   0.808   1.821 -0.6084  0.9529  1.2181
10659SOL     OW32875   0.012   4.005   0.579 -0.0760 -0.0847  0.2819
10659SOL    HW132876  -0.082   3.970   0.581 -0.1210  0.0340  0.2268
10659SOL    HW232877   0.041   4.028   0.672  0.5772 -1.9257  0.5850
10660SOL     OW32878   3.565   5.302   3.882  0.0339 -0.2689  0.3189
10660SOL    HW132879   3.649   5.250   3.871 -0.1510 -0.4626 -0.2061
10660SOL    HW232880   3.511   5.297   3.798 -0.9474 -0.9588  0.9591
10661SOL     OW32881   6.475   0.223   6.661  0.8200 -0.1287 -0.4508
10661SOL    HW132882   6.557   0.276   6.683  1.0043 -0.1282 -1.1254
10661SOL    HW232883   6.494   0.161   6.586  0.0940  0.1698 -0.8961
10662SOL     OW32884   0.594   3.272   0.999 -0.4028 -1.1165  0.7272
10662SOL    HW132885   0.590   3.172   1.009  1.4216 -1.2473  0.4143
10662SOL    HW232886   0.683   3.298   0.962 -0.8225  0.6472  0.9011
10663SOL     OW32887   3.498   6.440   4.868  0.2022  0.0891  0.3378
10663SOL    HW132888   3.483   6.464   4.773 -0.1665  1.5018  0.7377
10663SOL    HW232889   3.444   6.359   4.891  1.0840 -0.8835 -0.9060
10664SOL     OW32890   4.403   4.024   0.838 -0.2528  0.1619  0.1373
10664SOL    HW132891   4.311   4.041   0.874 -0.3996  1.1800 -0.6629
10664SOL    HW232892   4.471   4.059   0.903 -0.2974 -2.6862  1.8593
10665SOL     OW32893   1.224   1.831   4.661  0.3130 -0.0567  0.1548
10665SOL    HW132894   1.319   1.861   4.648  0.4101 -0.4519 -0.0405
10665SOL    HW232895   1.195   1.853   4.755  1.4062 -2.1141  1.0440
10666SOL     OW32896   0.010   2.329   0.494 -0.0652 -0.0972 -0.2091
10666SOL    HW132897   0.069   2.398   0.453 -0.7823 -0.4083 -1.8185
10666SOL    HW232898  -0.076   2.324   0.444  0.4006 -2.9482 -0.9049
10667SOL     OW32899   1.250   4.949   4.583 -0.0521 -0.4915 -0.3777
10667SOL    HW132900   1.227   5.000   4.666 -1.5279 -0.6000 -0.6784
10667SOL    HW232901   1.165   4.927   4.533  0.7723 -0.7079 -1.7437
10668SOL     OW32902   4.979   4.877   5.157 -0.0897  0.1121 -0.7527
10668SOL    HW132903   4.936   4.842   5.241 -0.8013 -0.7922 -1.4711
10668SOL    HW232904   4.968   4.976   5.153  1.7536  0.4671  1.2077
10669SOL     OW32905   1.475   1.444   2.607 -0.9072  0.6874 -0.7418
10669SOL    HW132906   1.571   1.452   2.636 -1.1473  1.6743 -0.1652
10669SOL    HW232907   1.455   1.349   2.586 -0.3585  0.0953  1.1702
10670SOL     OW32908   6.962   1.069   3.348 -0.3932 -0.5096 -0.2568
10670SOL    HW132909   7.050   1.024   3.331 -0.6513 -1.3044  0.4247
10670SOL    HW232910   6.893   1.032   3.287 -0.5703 -0.9452  0.1972
10671SOL     OW32911   6.417   4.772   3.561 -0.3794  0.0546 -0.5099
10671SOL    HW132912   6.487   4.772   3.633 -1.9695  1.2665  1.1297
10671SOL    HW232913   6.360   4.690   3.571 -1.2043  0.6992  0.2933
10672SOL     OW32914   6.810   5.426   0.260 -0.5727  0.3748  0.1568
10672SOL    HW132915   6.802   5.481   0.343  1.1948 -0.0442  0.6612
10672SOL    HW232916   6.744   5.458   0.192 -1.2012  1.5450  1.2646
10673SOL     OW32917   4.444   5.215   1.263 -0.0089  0.0717 -0.3083
10673SOL    HW132918   4.362   5.189   1.213 -1.3664  0.0513  1.8239
10673SOL    HW232919   4.520   5.154   1.239 -1.0519 -0.9296 -1.1013
10674SOL     OW32920   3.827   5.771   3.969 -0.3645 -0.8090 -0.6601
10674SOL    HW132921   3.750   5.776   4.032  2.0329  1.5155  2.4402
10674SOL    HW232922   3.811   5.832   3.892 -1.3488  0.2108  0.3076
10675SOL     OW32923   6.155   2.059   6.818 -0.1418  0.0237  0.4692
10675SOL    HW132924   6.115   2.016   6.899 -0.1429 -0.8503  0.0035
10675SOL    HW232925   6.119   2.017   6.735  1.0452 -0.1617  0.0259
10676SOL     OW32926   4.622   0.473   0.077  0.2779 -0.0058  0.6716
10676SOL    HW132927   4.676   0.475  -0.008 -0.0631 -2.7161  0.2854
10676SOL    HW232928   4.572   0.558   0.087  2.6413  1.5959 -0.2665
10677SOL     OW32929   1.072   2.382   5.509 -0.1270 -0.6700  0.2905
10677SOL    HW132930   1.128   2.436   5.446  0.0558  1.7515  2.3525
10677SOL    HW232931   0.977   2.383   5.478  0.1487 -0.6247 -0.5961
10678SOL     OW32932   0.185   0.396   3.428 -0.2440 -0.5202  0.7379
10678SOL    HW132933   0.227   0.351   3.349 -0.3504  0.2085  0.2564
10678SOL    HW232934   0.164   0.328   3.498  1.4139 -0.9590  0.8458
10679SOL     OW32935   3.921   4.928   5.192 -0.4696 -0.0147  0.1697
10679SOL    HW132936   4.003   4.885   5.154 -0.8028 -0.2173 -0.3338
10679SOL    HW232937   3.888   4.998   5.130 -1.7155 -1.1773 -0.5363
10680SOL     OW32938   0.122   3.928   6.839 -0.1569  0.2478 -0.0997
10680SOL    HW132939   0.137   3.852   6.776 -0.6718  1.0785 -1.2528
10680SOL    HW232940   0.032   3.919   6.882  0.3673 -0.5467  0.8680
10681SOL     OW32941   6.932   3.635   0.683  0.3040 -0.8169  0.1507
10681SOL    HW132942   6.991   3.650   0.762  0.6082 -1.8680  0.1259
10681SOL    HW232943   6.973   3.568   0.622  0.8910  1.1811 -1.7798
10682SOL     OW32944   0.241   2.122   4.864  0.0820 -0.4904 -0.7914
10682SOL    HW132945   0.175   2.108   4.938  1.3297  2.7147  1.1350
10682SOL    HW232946   0.198   2.174   4.790  0.3075  1.6426  0.4857
10683SOL     OW32947   2.816   6.439   2.756  0.1392  0.7363  0.4487
10683SOL    HW132948   2.775   6.405   2.841 -0.2202 -1.7062 -0.5949
10683SOL    HW232949   2.767   6.520   2.725 -0.9067  0.5927  1.6407
10684SOL     OW32950   1.736   6.226   6.878 -0.0149 -0.0371 -0.4147
10684SOL    HW132951   1.783   6.138   6.866  1.2316  0.4360  0.7191
10684SOL    HW232952   1.736   6.251   6.975  0.1626  1.4763 -0.7753
10685SOL     OW32953   5.547   0.759   3.739  0.5883 -0.3853 -0.3933
10685SOL    HW132954   5.493   0.722   3.663 -1.1977 -1.1223  1.1624
10685SOL    HW232955   5.643   0.735   3.725 -0.0576 -2.8784 -1.0914
10686SOL     OW32956   6.628   2.445   0.500  0.3361 -0.0405 -0.1573
10686SOL    HW132957   6.696   2.407   0.563  0.9054  1.8706  0.4601
10686SOL    HW232958   6.546   2.387   0.500  0.3847 -0.2046  2.2278
10687SOL     OW32959   1.938   4.225   4.777  0.2886  0.0137 -0.4955
10687SOL    HW132960   2.017   4.267   4.732  0.4106 -0.1242 -0.4091
10687SOL    HW232961   1.968   4.174   4.857 -0.0390  0.9797  0.2476
10688SOL     OW32962   5.206   5.509   5.896  0.7639 -0.3746  0.4725
10688SOL    HW132963   5.167   5.470   5.812 -1.3002  1.3323  0.5450
10688SOL    HW232964   5.196   5.444   5.971 -2.1255 -0.0636  0.4859
10689SOL     OW32965   5.092   1.505   5.352 -0.2201 -0.6009 -0.2186
10689SOL    HW132966   5.131   1.590   5.389  1.3780 -1.7131  0.7885
10689SOL    HW232967   5.152   1.471   5.280  0.0127 -1.6739  0.4650
10690SOL     OW32968   6.235   0.347   5.943 -0.0293  0.4210  0.5129
10690SOL    HW132969   6.251   0.388   6.032 -0.6394  1.4691  0.1533
10690SOL    HW232970   6.221   0.248   5.953  0.6173  0.4215  1.4837
10691SOL     OW32971   6.158   5.970   2.846 -0.4007 -0.5859  0.3370
10691SOL    HW132972   6.138   5.879   2.810 -1.5814 -0.4630  0.6195
10691SOL    HW232973   6.087   5.995   2.912 -0.8233  1.0559 -0.6780
10692SOL     OW32974   1.298   5.547   0.746 -0.3306 -0.6218  0.1820
10692SOL    HW132975   1.207   5.584   0.763 -0.2979  0.1547 -1.2482
10692SOL    HW232976   1.313   5.536   0.648  1.6982  0.7851  0.2671
10693SOL     OW32977   1.114   6.368   2.561 -0.4631  0.5507  0.5421
10693SOL    HW132978   1.053   6.435   2.519  1.5147  2.1918  0.1534
10693SOL    HW232979   1.140   6.299   2.493 -1.1336  0.3697  0.4624
10694SOL     OW32980   5.775   1.656   6.056 -0.1251  0.4579 -0.2562
10694SOL    HW132981   5.768   1.746   6.099 -0.9053 -0.1596  0.9497
10694SOL    HW232982   5.721   1.655   5.971 -0.0907  1.1232 -0.2887
10695SOL     OW32983   5.459   3.125   6.732  0.4396  0.1806 -0.0874
10695SOL    HW132984   5.538   3.097   6.787 -0.4337 -0.6611  0.7921
10695SOL    HW232985   5.456   3.070   6.649  1.4363  1.0523 -0.7293
10696SOL     OW32986   3.975   6.421   5.264 -0.5751 -0.0486 -0.2058
10696SOL    HW132987   3.920   6.449   5.342  1.0641 -1.0008  1.3668
10696SOL    HW232988   4.045   6.490   5.245 -0.0489 -0.4930  0.1073
10697SOL     OW32989   5.033   3.260   4.590 -0.7869  0.0740  0.2010
10697SOL    HW132990   5.031   3.276   4.689  1.4263  0.2593  0.2671
10697SOL    HW232991   5.050   3.163   4.572  0.4808  0.3034  0.0627
10698SOL     OW32992   1.014   1.879   0.340 -0.0060  0.3244 -0.3599
10698SOL    HW132993   1.077   1.801   0.342  0.5624  0.7287 -1.5367
10698SOL    HW232994   1.062   1.962   0.365 -0.5762  0.3383  0.7372
10699SOL     OW32995   0.134   3.975   5.225  0.9526  0.1436  0.1198
10699SOL    HW132996   0.217   4.027   5.245  1.1713  0.2231 -0.9257
10699SOL    HW232997   0.151   3.916   5.146  0.7826 -1.7073  1.4065
10700SOL     OW32998   4.821   2.941   4.387 -0.3479 -0.6679  0.0444
10700SOL    HW132999   4.777   2.890   4.313 -0.5583  0.8144 -0.9002
10700SOL    HW233000   4.886   3.007   4.348 -2.1688  1.8322  0.9531
10701SOL     OW33001   5.905   1.231   6.082 -0.0737 -0.0360 -0.0988
10701SOL    HW133002   5.942   1.181   6.003  2.2528  1.9531 -0.3729
10701SOL    HW233003   5.805   1.229   6.077 -0.0243 -1.2264 -2.2745
10702SOL     OW33004   3.126   1.985   5.573  0.0077 -0.0776  0.0394
10702SOL    HW133005   3.162   2.077   5.557 -0.2398  0.1405  0.7118
10702SOL    HW233006   3.122   1.967   5.671  2.5359 -1.8011 -0.0648
10703SOL     OW33007   6.236   4.331   0.147 -0.4111 -0.3266  0.0481
10703SOL    HW133008   6.225   4.338   0.048  1.1145  0.9990 -0.0656
10703SOL    HW233009   6.270   4.239   0.169 -1.6244 -0.9397 -0.5438
10704SOL     OW33010   5.308   1.624   6.230 -0.4412 -0.6384 -0.0339
10704SOL    HW133011   5.244   1.556   6.194  1.6635 -1.0708 -3.3239
10704SOL    HW233012   5.381   1.577   6.280 -1.8973 -0.2320  2.6523
10705SOL     OW33013   0.361   6.349   5.473  0.1746 -0.5042 -0.1049
10705SOL    HW133014   0.359   6.407   5.392  0.0157  0.0013  0.2557
10705SOL    HW233015   0.453   6.310   5.484  0.1953 -0.5726 -0.5247
10706SOL     OW33016   5.136   5.032   4.908  0.0888  0.2791  0.2399
10706SOL    HW133017   5.200   4.991   4.972 -2.0151 -1.3752  1.4152
10706SOL    HW233018   5.157   5.003   4.815  1.6201  0.6338  0.4446
10707SOL     OW33019   5.050   0.467   1.667  0.3366 -0.2127 -0.1733
10707SOL    HW133020   5.115   0.484   1.740 -1.2654  0.2688  1.1961
10707SOL    HW233021   5.029   0.552   1.619  0.3118 -0.2756 -0.2770
10708SOL     OW33022   3.337   0.813   1.464 -0.1087 -0.3749 -0.4969
10708SOL    HW133023   3.309   0.898   1.509  1.0695  0.0444 -0.5280
10708SOL    HW233024   3.303   0.735   1.516 -1.2666  0.1005 -0.5062
10709SOL     OW33025   2.712   5.828   3.662 -0.3431  0.1125 -0.0033
10709SOL    HW133026   2.749   5.791   3.747  0.0327 -3.1613 -1.4411
10709SOL    HW233027   2.623   5.869   3.679  0.5974  1.3992  2.2465
10710SOL     OW33028   5.319   0.206   4.038 -0.1529  0.5079 -0.2541
10710SOL    HW133029   5.363   0.123   4.004  1.2515  0.5821  1.2218
10710SOL    HW233030   5.221   0.201   4.022  0.2315 -0.1655 -2.6988
10711SOL     OW33031   5.910   6.610   2.229  0.3709  0.2708 -0.5794
10711SOL    HW133032   5.877   6.567   2.145 -1.2643  0.1962  0.0686
10711SOL    HW233033   6.009   6.622   2.224  0.1227  1.8420 -3.2455
10712SOL     OW33034   1.189   2.499   4.531 -0.0774  0.1156  0.1408
10712SOL    HW133035   1.223   2.407   4.549  3.0146  1.0257 -0.4990
10712SOL    HW233036   1.168   2.545   4.618 -2.6862 -1.4227  0.4433
10713SOL     OW33037   1.027   2.251   4.778  0.1068  0.6740 -0.1341
10713SOL    HW133038   1.126   2.267   4.781  0.1960  0.2487 -0.7073
10713SOL    HW233039   0.995   2.222   4.869  0.6449  0.0344 -0.1427
10714SOL     OW33040   1.149   6.801   5.649 -0.2881  0.4891 -1.0743
10714SOL    HW133041   1.240   6.841   5.636 -0.1216  0.7882  0.7269
10714SOL    HW233042   1.084   6.843   5.586  0.5990  1.0816 -1.6094
10715SOL     OW33043   6.322   0.225   5.475  0.1214 -0.3697  0.3072
10715SOL    HW133044   6.360   0.158   5.411 -0.6152 -1.6764  1.1838
10715SOL    HW233045   6.229   0.249   5.448  0.2386  0.0057  0.2228
10716SOL     OW33046   1.708   4.408   3.702  0.2711 -0.1750 -0.1762
10716SOL    HW133047   1.784   4.344   3.688  0.9459  0.4592  0.4907
10716SOL    HW233048   1.734   4.476   3.771 -1.4794 -0.8568  1.2335
10717SOL     OW33049   0.699   4.110   4.629  0.3018  0.4468 -0.1604
10717SOL    HW133050   0.774   4.143   4.686  1.2450 -0.4995 -0.8031
10717SOL    HW233051   0.648   4.039   4.678  0.3345  0.5059 -0.0402
10718SOL     OW33052   6.136   5.717   2.716 -0.2128  0.1606  0.5557
10718SOL    HW133053   6.195   5.639   2.695 -0.4638 -0.2789  1.4267
10718SOL    HW233054   6.107   5.761   2.631  1.2078  0.2729  0.1055
10719SOL     OW33055   6.514   0.789   3.796  0.4421  0.5946 -0.2694
10719SOL    HW133056   6.508   0.879   3.839 -0.4478 -0.2598  1.4647
10719SOL    HW233057   6.440   0.731   3.829  1.2564 -0.9290 -1.0312
10720SOL     OW33058   5.192   3.620   1.627 -0.3848 -0.9806  0.3122
10720SOL    HW133059   5.188   3.545   1.561  1.0311  0.0149 -0.9781
10720SOL    HW233060   5.286   3.630   1.660 -0.5568  0.1893  0.4904
10721SOL     OW33061   4.358   0.610   2.552 -0.0734 -0.2865  0.0357
10721SOL    HW133062   4.371   0.579   2.646 -1.6999 -0.0701  0.3613
10721SOL    HW233063   4.280   0.673   2.548 -1.4441 -1.9437 -1.7737
10722SOL     OW33064   5.194   6.950   2.605  0.2304 -0.0672  0.1672
10722SOL    HW133065   5.228   6.856   2.609  1.0353  0.2026 -0.0966
10722SOL    HW233066   5.145   6.971   2.690 -1.3446 -1.2166 -0.4004
10723SOL     OW33067   5.859   0.673   0.041  0.3993 -0.3455  0.4025
10723SOL    HW133068   5.920   0.715   0.108  0.6183  0.9975 -0.5818
10723SOL    HW233069   5.912   0.613  -0.019  1.0004  1.4478 -0.9706
10724SOL     OW33070   5.356   6.353   3.618  0.6136 -0.4264  0.0808
10724SOL    HW133071   5.455   6.357   3.631  0.6508  0.1082 -0.3266
10724SOL    HW233072   5.311   6.407   3.689  0.7722  1.7181 -1.3555
10725SOL     OW33073   1.373   1.545   2.374  0.2215  0.1141  0.3773
10725SOL    HW133074   1.387   1.523   2.471  0.4727  1.9659  0.7959
10725SOL    HW233075   1.452   1.597   2.340 -0.4421  0.6038 -0.4564
10726SOL     OW33076   0.318   4.201   6.311 -0.0016 -0.4894  0.6142
10726SOL    HW133077   0.253   4.129   6.288 -0.9165  0.4552  0.1351
10726SOL    HW233078   0.271   4.290   6.308  0.9212  0.0635  1.9047
10727SOL     OW33079   0.187   2.011   4.425  0.1312 -0.2415  0.2994
10727SOL    HW133080   0.226   1.979   4.511  0.1627  0.1830  0.4466
10727SOL    HW233081   0.087   2.017   4.433  0.1718  0.2914  0.4825
10728SOL     OW33082   5.303   3.833   4.568 -0.2937 -0.1361  0.1597
10728SOL    HW133083   5.366   3.892   4.619  2.4873 -1.8572 -1.0713
10728SOL    HW233084   5.305   3.857   4.471  1.9484 -2.8840 -0.6225
10729SOL     OW33085   6.604   6.410   2.060 -0.0938  0.8370  0.5709
10729SOL    HW133086   6.640   6.357   2.137  0.1220  0.3446  0.1426
10729SOL    HW233087   6.636   6.504   2.067 -0.6705  0.9804  1.4720
10730SOL     OW33088   1.993   2.060   3.283  0.5431 -1.0610  0.0417
10730SOL    HW133089   2.092   2.076   3.286  0.1943  1.4111  0.7711
10730SOL    HW233090   1.961   2.032   3.374  0.2941  0.4988  0.4710
10731SOL     OW33091   2.488   1.702   3.408  0.1565 -0.1624  0.2406
10731SOL    HW133092   2.402   1.670   3.450 -0.7858  0.7499 -0.9179
10731SOL    HW233093   2.480   1.799   3.385  1.1036 -0.3292 -0.8847
10732SOL     OW33094   0.428   5.811   5.539  0.4072 -0.2833 -0.6202
10732SOL    HW133095   0.361   5.883   5.517 -1.3866 -1.6298  0.1607
10732SOL    HW233096   0.477   5.836   5.622 -1.8944 -0.9501  1.0359
10733SOL     OW33097   1.607   2.431   6.472 -0.1976  0.2112 -0.6165
10733SOL    HW133098   1.704   2.406   6.467 -0.2243 -0.4199  1.2165
10733SOL    HW233099   1.597   2.517   6.522 -0.6883 -0.8685  1.2205
10734SOL     OW33100   6.694   1.983   2.221  0.0203  1.0026 -0.1279
10734SOL    HW133101   6.699   1.985   2.321  0.8906 -0.7200 -0.1008
10734SOL    HW233102   6.600   1.997   2.192 -0.3373  0.9679  0.9528
10735SOL     OW33103   4.646   5.411   2.274  0.5915 -0.0731  0.1445
10735SOL    HW133104   4.664   5.370   2.364  1.2726 -2.2791 -0.9194
10735SOL    HW233105   4.677   5.506   2.274  0.6688 -0.0522  2.2034
10736SOL     OW33106   4.370   6.179   3.465  0.2673  0.0715  0.2893
10736SOL    HW133107   4.393   6.191   3.369  0.0330  1.2317  0.3729
10736SOL    HW233108   4.316   6.256   3.497  2.1176  0.7849  1.8979
10737SOL     OW33109   3.102   6.005   3.263  0.2469 -0.3788 -0.4438
10737SOL    HW133110   3.033   5.963   3.322 -1.5735  0.4859 -1.8565
10737SOL    HW233111   3.143   5.935   3.205  0.0313 -0.7878 -0.1129
10738SOL     OW33112   5.929   2.028   0.959 -0.7430  0.0074  0.3244
10738SOL    HW133113   5.849   2.084   0.981 -0.1306  0.8744  0.3841
10738SOL    HW233114   5.991   2.026   1.037 -1.2673 -1.6836  0.7270
10739SOL     OW33115   2.472   0.256   3.602  0.7338 -0.4216 -0.0926
10739SOL    HW133116   2.498   0.318   3.676  0.8171 -1.3706  0.7013
10739SOL    HW233117   2.476   0.304   3.515 -1.5567  1.4074  0.7026
10740SOL     OW33118   1.893   6.270   1.601 -1.1458 -0.2420 -0.2978
10740SOL    HW133119   1.983   6.304   1.628 -0.5873 -1.0574 -1.0635
10740SOL    HW233120   1.823   6.308   1.662 -0.5335  1.9291 -0.8533
10741SOL     OW33121   1.386   2.778   2.956 -0.2905 -0.7364 -0.5318
10741SOL    HW133122   1.397   2.799   2.859 -0.7575 -1.6779 -0.7935
10741SOL    HW233123   1.312   2.712   2.968 -0.7198 -0.0813  0.5337
10742SOL     OW33124   0.262   5.995   5.476 -0.0541  0.2664  0.5657
10742SOL    HW133125   0.205   6.029   5.401 -0.3671 -1.0257  0.1997
10742SOL    HW233126   0.277   6.069   5.542 -1.4314  0.8820  0.2321
10743SOL     OW33127   4.006   2.911   6.203  0.1376  0.3934  0.0576
10743SOL    HW133128   3.914   2.878   6.178  0.7377  0.2131 -2.1530
10743SOL    HW233129   4.019   2.902   6.302 -2.8028  1.9410  0.7057
10744SOL     OW33130   1.107   5.701   5.508 -0.7330  0.1505  0.3252
10744SOL    HW133131   1.201   5.669   5.492 -0.4631  0.8781  0.3959
10744SOL    HW233132   1.108   5.772   5.578 -1.0615  1.5566 -1.0409
10745SOL     OW33133   1.479   5.063   4.242 -0.0295 -0.0953  0.0055
10745SOL    HW133134   1.456   4.996   4.312  0.1686 -0.1378  0.0301
10745SOL    HW233135   1.565   5.107   4.264  0.7535 -1.1066 -0.9165
10746SOL     OW33136   0.378   4.662   6.055  0.8433  0.0943 -0.0510
10746SOL    HW133137   0.282   4.636   6.041  0.3788  1.2958  0.7193
10746SOL    HW233138   0.426   4.660   5.967 -0.7215  2.6340 -1.0766
10747SOL     OW33139   3.728   2.434   5.360 -0.2559 -0.3076 -0.3399
10747SOL    HW133140   3.722   2.528   5.326 -0.7971 -0.3880 -0.4780
10747SOL    HW233141   3.824   2.410   5.375  0.1166 -0.6412 -2.8708
10748SOL     OW33142   2.148   3.276   5.576 -0.2589 -0.1728 -0.2384
10748SOL    HW133143   2.161   3.368   5.538 -2.4243  0.1977 -0.2325
10748SOL    HW233144   2.108   3.217   5.507 -2.1788 -0.0948  0.7407
10749SOL     OW33145   2.703   2.891   6.894 -0.1511  0.6797 -0.0668
10749SOL    HW133146   2.767   2.927   6.826  0.1465  0.5604  0.1486
10749SOL    HW233147   2.709   2.792   6.896 -0.4660  0.6566 -0.1628
10750SOL     OW33148   0.030   5.260   2.559  0.3899 -0.1977  0.0586
10750SOL    HW133149   0.105   5.307   2.606  0.1288  0.5366 -0.2557
10750SOL    HW233150   0.066   5.213   2.478  1.1353 -2.7372  1.7208
10751SOL     OW33151   7.001   1.934   3.578  0.4913 -0.2424 -0.2638
10751SOL    HW133152   6.913   1.948   3.622  0.2621  0.4248 -0.8995
10751SOL    HW233153   6.988   1.881   3.494  0.6805 -0.0991 -0.3848
10752SOL     OW33154   0.547   1.053   4.705  0.2198 -0.2584 -0.2840
10752SOL    HW133155   0.513   0.984   4.642 -1.1688 -0.3727  0.5571
10752SOL    HW233156   0.502   1.043   4.794 -1.2206  2.6530 -0.5607
10753SOL     OW33157   2.947   0.267   0.861  0.0647 -0.4068 -0.2474
10753SOL    HW133158   2.999   0.189   0.896 -2.0844 -1.3430  1.0920
10753SOL    HW233159   2.974   0.350   0.910  0.8664 -0.6974 -0.1838
10754SOL     OW33160   6.515   1.617   5.705 -0.3847 -0.2083  0.0131
10754SOL    HW133161   6.492   1.599   5.801  3.9179  1.9260  1.7090
10754SOL    HW233162   6.463   1.696   5.673 -0.2305  0.5097  1.4310
10755SOL     OW33163   2.489   4.433   3.380  0.3939 -0.0201  0.2223
10755SOL    HW133164   2.426   4.511   3.369 -1.4008 -1.3204  0.7986
10755SOL    HW233165   2.523   4.405   3.291  0.5136  0.9853 -0.0636
10756SOL     OW33166   4.512   0.774   5.530  0.4752 -0.0206  0.3262
10756SOL    HW133167   4.430   0.829   5.516  0.6937 -0.0392 -1.2393
10756SOL    HW233168   4.553   0.751   5.441  2.0649 -0.1830  1.0548
10757SOL     OW33169   2.185   6.074   1.089  0.0673 -0.6694  0.0847
10757SOL    HW133170   2.159   6.133   1.012  2.0772 -0.3883 -0.4388
10757SOL    HW233171   2.226   5.990   1.054  3.1026  0.4025  0.7049
10758SOL     OW33172   0.237   6.722   5.788  0.3013  0.3864 -0.4348
10758SOL    HW133173   0.296   6.687   5.715  0.0565  1.8794 -1.3911
10758SOL    HW233174   0.149   6.750   5.749 -0.2155  0.2715  0.6164
10759SOL     OW33175   0.719   2.813   5.991 -0.1363 -0.3213 -0.4934
10759SOL    HW133176   0.801   2.854   5.950  0.1896  1.1370  1.4564
10759SOL    HW233177   0.645   2.880   5.993 -0.9102 -1.1396 -0.8394
10760SOL     OW33178   5.663   5.997   0.802 -0.3125 -0.8664  0.2739
10760SOL    HW133179   5.735   6.001   0.733 -0.9726  0.1150 -0.3842
10760SOL    HW233180   5.580   5.957   0.761 -1.3435  1.5046 -0.1520
10761SOL     OW33181   1.257   3.390   4.978  0.0299  0.0006  0.1865
10761SOL    HW133182   1.208   3.375   4.892 -0.3903  0.4984  0.3372
10761SOL    HW233183   1.346   3.343   4.974  0.5147  0.9618 -0.9590
10762SOL     OW33184   4.845   3.721   3.564  0.6024  0.1353 -0.1365
10762SOL    HW133185   4.916   3.761   3.507 -0.0431  0.7081 -0.5451
10762SOL    HW233186   4.851   3.621   3.560  1.0836  0.1812 -0.5389
10763SOL     OW33187   6.552   2.073   4.737 -0.4044  0.0383  0.1836
10763SOL    HW133188   6.544   2.066   4.837 -0.9608  0.4996  0.1773
10763SOL    HW233189   6.583   2.165   4.713  0.0931 -0.1909 -0.0532
10764SOL     OW33190   2.280   2.614   6.788 -0.3548  0.1016 -0.2383
10764SOL    HW133191   2.262   2.655   6.699  1.0524 -0.8843 -1.0157
10764SOL    HW233192   2.211   2.544   6.806 -0.5125  0.1420 -0.6636
10765SOL     OW33193   4.549   0.942   2.224 -0.1779 -0.4721  0.4238
10765SOL    HW133194   4.630   0.911   2.272  0.9311 -1.1664 -1.7459
10765SOL    HW233195   4.556   1.040   2.206  0.1510 -0.5094  0.3412
10766SOL     OW33196   0.682   5.162   4.870 -0.2491  0.0821 -0.4712
10766SOL    HW133197   0.646   5.176   4.962  0.4290  0.4885 -0.2578
10766SOL    HW233198   0.725   5.072   4.864 -1.8386 -0.6765 -0.9170
10767SOL     OW33199   2.335   2.127   0.556 -0.8014 -0.2977 -0.1845
10767SOL    HW133200   2.367   2.222   0.562  0.0871 -0.6082  0.1457
10767SOL    HW233201   2.280   2.105   0.637 -0.3420 -0.3046  0.1280
10768SOL     OW33202   5.002   5.735   1.068 -0.4270  0.3842  0.4448
10768SOL    HW133203   4.903   5.730   1.083 -0.1673 -0.5208  2.1014
10768SOL    HW233204   5.049   5.743   1.156  0.8974  3.4306 -0.4215
10769SOL     OW33205   3.683   5.328   4.691 -0.1803  0.5756 -0.3546
10769SOL    HW133206   3.716   5.392   4.761 -3.0065  0.9599  0.7517
10769SOL    HW233207   3.694   5.369   4.601  1.0569  1.2021  0.0544
10770SOL     OW33208   3.098   4.747   0.602  0.7740  0.5760  0.1625
10770SOL    HW133209   3.037   4.826   0.593 -0.0019  0.0904  1.0498
10770SOL    HW233210   3.046   4.668   0.636  1.5546 -0.3029 -0.6284
10771SOL     OW33211   1.986   6.783   0.681  0.1855 -0.1926  0.7099
10771SOL    HW133212   2.004   6.784   0.779 -1.3342  1.5550  1.0088
10771SOL    HW233213   2.022   6.866   0.639 -0.8011 -0.0568  0.1072
10772SOL     OW33214   3.854   0.721   4.688  0.6715  0.6574 -0.3492
10772SOL    HW133215   3.784   0.793   4.685  0.6635  0.6756  0.1623
10772SOL    HW233216   3.929   0.746   4.627  2.0964  2.6332  2.0080
10773SOL     OW33217   1.388   5.747   2.832 -0.5371 -0.3053 -0.4089
10773SOL    HW133218   1.389   5.788   2.741  0.1188 -3.5709 -2.0379
10773SOL    HW233219   1.307   5.690   2.842 -1.7321  1.6156  1.9770
10774SOL     OW33220   2.111   4.085   3.114 -0.2691  0.2416  0.9948
10774SOL    HW133221   2.136   4.175   3.149 -0.5212  0.5193  0.4844
10774SOL    HW233222   2.172   4.061   3.038 -1.8747  1.2337 -0.7280
10775SOL     OW33223   5.538   1.031   3.655  0.4196  0.0886 -0.2695
10775SOL    HW133224   5.463   1.091   3.683 -0.1424 -0.4216 -0.6694
10775SOL    HW233225   5.523   0.939   3.692  2.1141  0.5346  1.7769
10776SOL     OW33226   0.670   5.349   5.931 -0.6677 -0.2671  0.2767
10776SOL    HW133227   0.615   5.269   5.910 -1.4559 -0.3170  2.2638
10776SOL    HW233228   0.609   5.426   5.953 -0.0495 -0.3969  2.8053
10777SOL     OW33229   5.480   1.193   4.149  0.2859 -0.2365 -0.2622
10777SOL    HW133230   5.437   1.210   4.237  2.5581 -0.3428  0.9543
10777SOL    HW233231   5.506   1.097   4.143  0.5198 -0.1400 -0.8688
10778SOL     OW33232   4.290   6.430   3.897  0.3083 -0.0822  0.0285
10778SOL    HW133233   4.307   6.363   3.825  0.3690  0.7216 -0.7143
10778SOL    HW233234   4.352   6.508   3.886 -0.6063  0.6811  0.1285
10779SOL     OW33235   3.376   1.328   0.036  0.4372  0.3995 -0.5478
10779SOL    HW133236   3.447   1.334   0.105  0.7418  1.0783 -0.9047
10779SOL    HW233237   3.307   1.399   0.053 -0.7568 -0.9509  0.4432
10780SOL     OW33238   0.027   4.658   2.285 -1.1283 -0.4842  0.4834
10780SOL    HW133239   0.013   4.707   2.371  1.4673 -1.2550  1.4620
10780SOL    HW233240   0.115   4.611   2.289 -0.3136  0.4774 -3.0911
10781SOL     OW33241   0.894   5.002   3.681 -0.3329 -0.5895  0.2890
10781SOL    HW133242   0.916   5.003   3.778  0.8764 -0.6327  0.0260
10781SOL    HW233243   0.795   5.012   3.670 -0.2408  3.9802  1.4012
10782SOL     OW33244   6.982   3.080   4.082 -0.1221  0.0543 -0.1863
10782SOL    HW133245   6.914   3.089   4.009  1.8470 -0.5070 -2.1999
10782SOL    HW233246   6.981   2.987   4.118  0.0087 -0.1333 -0.6626
10783SOL     OW33247   5.653   6.951   3.525 -0.2599 -0.2200  0.4432
10783SOL    HW133248   5.590   7.017   3.566 -0.9604 -0.5436 -0.0856
10783SOL    HW233249   5.626   6.858   3.552 -0.5144 -0.4130 -0.4416
10784SOL     OW33250   1.313   5.418   6.109 -0.4258  0.0612 -0.0316
10784SOL    HW133251   1.233   5.444   6.163  0.8807  1.9395  1.1370
10784SOL    HW233252   1.385   5.386   6.171  1.1357  2.3206 -0.5567
10785SOL     OW33253   3.744   6.777   6.108 -0.6057  0.0475 -0.0973
10785SOL    HW133254   3.805   6.706   6.143 -1.3027 -0.0755  0.9287
10785SOL    HW233255   3.777   6.867   6.137  1.0165  0.3024 -2.5073
10786SOL     OW33256   1.574   2.319   0.978 -0.2916 -0.0350  0.0582
10786SOL    HW133257   1.622   2.290   0.895 -1.0378  0.2898 -0.4949
10786SOL    HW233258   1.548   2.415   0.969  1.1007  0.5107  1.3698
10787SOL     OW33259   0.633   1.356   4.954  0.6036 -0.2543  0.0673
10787SOL    HW133260   0.619   1.451   4.984  1.8257  0.5591 -1.7650
10787SOL    HW233261   0.554   1.301   4.981  0.3921  0.9843  2.2309
10788SOL     OW33262   5.647   5.847   4.913  0.2381 -0.3190  0.1323
10788SOL    HW133263   5.596   5.763   4.933  0.1225 -0.3705 -0.3759
10788SOL    HW233264   5.733   5.846   4.965  0.7530 -1.2785 -0.6927
10789SOL     OW33265   6.635   6.940   1.817 -0.4004 -0.2512  0.2739
10789SOL    HW133266   6.723   6.894   1.828 -0.7178 -0.8300  0.4566
10789SOL    HW233267   6.589   6.946   1.905 -1.5124 -1.9671 -0.1431
10790SOL     OW33268   2.581   6.483   1.142  0.2756  0.4797  0.2267
10790SOL    HW133269   2.501   6.488   1.202 -0.5560 -0.8808 -0.7066
10790SOL    HW233270   2.611   6.388   1.134  2.3589  1.0114  0.9644
10791SOL     OW33271   0.366   4.107   2.795 -0.1455  0.3504  0.0637
10791SOL    HW133272   0.450   4.054   2.808 -1.0197 -1.0787  0.1498
10791SOL    HW233273   0.335   4.143   2.883  0.2585  0.7041  0.0622
10792SOL     OW33274   2.913   3.248   3.497  0.1976 -0.2534  0.3777
10792SOL    HW133275   2.974   3.222   3.422 -0.5455 -0.5609 -0.1280
10792SOL    HW233276   2.871   3.166   3.536 -1.0460  0.0563 -0.2738
10793SOL     OW33277   6.493   3.876   4.093  0.9619 -0.6693  0.0606
10793SOL    HW133278   6.511   3.963   4.139 -1.4761  0.1326 -0.3618
10793SOL    HW233279   6.457   3.810   4.159 -0.7047 -0.1324 -0.2690
10794SOL     OW33280   1.500   3.479   1.404 -0.3240 -0.0481  0.2465
10794SOL    HW133281   1.532   3.384   1.411  0.2090  0.2261  1.8808
10794SOL    HW233282   1.552   3.526   1.333 -0.8776 -1.0497 -0.8882
10795SOL     OW33283   2.759   4.982   4.684  0.1564  0.3147 -0.2464
10795SOL    HW133284   2.823   4.952   4.754 -0.0705  3.5978  1.5613
10795SOL    HW233285   2.695   5.048   4.724 -1.3255  0.7534 -3.1129
10796SOL     OW33286   0.765   5.535   0.076 -0.2308  0.1796 -0.2958
10796SOL    HW133287   0.687   5.507   0.132 -0.4495  1.6238  0.1639
10796SOL    HW233288   0.838   5.468   0.085 -0.8590 -0.4215  0.4642
10797SOL     OW33289   4.485   2.766   5.713 -0.0798 -0.0770 -0.2258
10797SOL    HW133290   4.576   2.726   5.704  0.5337  1.4555 -1.4193
10797SOL    HW233291   4.494   2.865   5.727 -1.4872 -0.2836  3.4007
10798SOL     OW33292   3.194   1.654   4.456 -0.3190 -0.5405 -0.0684
10798SOL    HW133293   3.246   1.660   4.541  0.2832  0.6044 -0.5012
10798SOL    HW233294   3.099   1.628   4.477  0.0242 -1.1058  0.8615
10799SOL     OW33295   1.706   0.165   1.763 -0.5517 -0.3568  0.7333
10799SOL    HW133296   1.755   0.079   1.777  1.1634  0.4167 -0.2653
10799SOL    HW233297   1.700   0.185   1.665 -2.1229  0.0291  0.8718
10800SOL     OW33298   4.789   1.251   3.131  0.1153  0.0831 -0.0221
10800SOL    HW133299   4.813   1.342   3.097  0.1240  0.2850  0.5214
10800SOL    HW233300   4.824   1.240   3.224  0.6716 -0.7092 -0.3145
10801SOL     OW33301   4.476   0.120   2.049  0.2169  0.7031 -0.0369
10801SOL    HW133302   4.549   0.144   2.113 -0.8468  0.3747  1.3594
10801SOL    HW233303   4.426   0.041   2.085  0.3430 -0.2855 -1.9083
10802SOL     OW33304   1.838   1.186   1.638 -0.5950  0.2726  0.4216
10802SOL    HW133305   1.918   1.241   1.612 -1.8838  1.3119 -1.6486
10802SOL    HW233306   1.861   1.089   1.634 -0.3927  0.2776 -4.4738
10803SOL     OW33307   3.855   1.327   6.068 -0.3623 -0.1722 -0.9232
10803SOL    HW133308   3.899   1.246   6.109 -0.4368 -0.0906 -0.6826
10803SOL    HW233309   3.815   1.383   6.140 -1.3267 -0.5111 -1.1778
10804SOL     OW33310   5.320   2.385   6.958  0.1844 -0.2340 -0.1109
10804SOL    HW133311   5.374   2.442   7.020 -0.1662  1.0673 -0.9638
10804SOL    HW233312   5.248   2.338   7.010 -1.4534  2.4730  0.2365
10805SOL     OW33313   6.864   5.610   4.422  0.1022 -0.1450 -0.0444
10805SOL    HW133314   6.778   5.636   4.378 -0.4463 -1.3142  0.2808
10805SOL    HW233315   6.941   5.644   4.368 -0.5381 -1.5376 -1.9516
10806SOL     OW33316   6.396   1.652   1.779 -0.2098 -0.0810 -0.2509
10806SOL    HW133317   6.333   1.613   1.846  0.4044 -2.1147 -0.7697
10806SOL    HW233318   6.484   1.670   1.823 -0.2127 -0.1609 -0.2108
10807SOL     OW33319   2.634   0.035   3.546 -0.9171  0.4703  0.3257
10807SOL    HW133320   2.723   0.066   3.514 -0.6739 -0.6262 -0.1039
10807SOL    HW233321   2.575   0.115   3.563 -0.4183  1.1521 -0.9982
10808SOL     OW33322   6.988   4.085   3.974  0.2070  0.1182 -0.6076
10808SOL    HW133323   6.987   4.145   4.054  1.3561 -1.5429  0.7180
10808SOL    HW233324   6.901   4.037   3.967 -0.3403  1.1451 -1.0873
10809SOL     OW33325   3.454   1.902   6.606  0.0865  0.1107 -0.1352
10809SOL    HW133326   3.504   1.988   6.595  0.2300  0.2416  1.3274
10809SOL    HW233327   3.449   1.880   6.704  0.8063 -1.9873 -0.5356
10810SOL     OW33328   3.250   3.376   3.345 -0.2397  0.9347 -0.7301
10810SOL    HW133329   3.197   3.445   3.395  0.1092  0.9664 -0.4006
10810SOL    HW233330   3.192   3.333   3.276 -0.8754  0.5307  0.0357
10811SOL     OW33331   5.478   3.609   1.706  0.1706 -0.3163  0.2568
10811SOL    HW133332   5.554   3.577   1.763  0.2160 -0.8743 -0.1062
10811SOL    HW233333   5.502   3.599   1.610  0.1160  0.6818  0.1266
10812SOL     OW33334   5.161   4.213   0.325 -0.5425  0.2379 -0.5524
10812SOL    HW133335   5.138   4.167   0.239 -0.9928 -0.8949  0.1468
10812SOL    HW233336   5.257   4.195   0.347 -0.8483 -0.8252 -0.0298
10813SOL     OW33337   4.606   3.180   6.409  0.7833  0.7043  0.2160
10813SOL    HW133338   4.667   3.249   6.369  0.3331  1.2455  0.4395
10813SOL    HW233339   4.529   3.226   6.453 -0.4228 -0.0033 -1.0844
10814SOL     OW33340   0.871   4.453   0.403 -0.3991  0.4025  0.4341
10814SOL    HW133341   0.787   4.428   0.354  0.7080 -0.3974 -1.1497
10814SOL    HW233342   0.950   4.431   0.346  0.9865 -0.6306  2.6263
10815SOL     OW33343   0.083   0.533   2.794 -0.4273  0.6628  0.2055
10815SOL    HW133344   0.079   0.582   2.880 -0.8595  0.4951  0.2829
10815SOL    HW233345   0.150   0.577   2.733  1.2277 -0.2789  1.2825
10816SOL     OW33346   0.843   6.860   3.524  0.1926  0.0254 -0.1190
10816SOL    HW133347   0.848   6.929   3.596  2.0158  0.1802 -0.3532
10816SOL    HW233348   0.767   6.882   3.462  0.7844  1.8704 -0.2487
10817SOL     OW33349   3.376   0.176   3.791  0.7021 -0.9056 -0.4392
10817SOL    HW133350   3.300   0.203   3.732  0.3447 -1.3628 -0.1988
10817SOL    HW233351   3.461   0.214   3.756  0.2270  0.4833 -0.1461
10818SOL     OW33352   2.109   6.479   3.803  0.0857  0.1848 -0.2373
10818SOL    HW133353   2.038   6.500   3.870  0.6861  0.3785  0.3542
10818SOL    HW233354   2.178   6.551   3.804 -1.3083  1.7244 -3.1294
10819SOL     OW33355   5.492   1.205   2.669 -0.0235  0.5547 -0.5927
10819SOL    HW133356   5.466   1.176   2.577 -0.6836  1.7255 -0.8036
10819SOL    HW233357   5.517   1.302   2.667 -0.5642  0.7293  0.5547
10820SOL     OW33358   1.325   2.515   1.908 -0.2374  0.4434  0.1115
10820SOL    HW133359   1.238   2.562   1.923 -0.2657 -0.0078  1.4545
10820SOL    HW233360   1.399   2.582   1.911 -0.4454  0.6823 -0.0045
10821SOL     OW33361   6.001   4.587   4.393 -0.5682  0.1705 -0.0087
10821SOL    HW133362   6.045   4.520   4.334 -1.0397 -0.2229  0.0756
10821SOL    HW233363   5.943   4.540   4.460 -1.1213  0.6703 -0.1267
10822SOL     OW33364   0.892   0.240   7.005  0.2183 -0.1961 -0.5804
10822SOL    HW133365   0.986   0.208   7.009 -0.1435 -1.2884 -0.5266
10822SOL    HW233366   0.859   0.234   6.911  0.0292 -0.3368 -0.5054
10823SOL     OW33367   0.278   3.544   0.643  0.1988 -0.4453  0.3032
10823SOL    HW133368   0.261   3.576   0.550 -1.4958  0.4374  0.8637
10823SOL    HW233369   0.236   3.454   0.656 -1.3867  0.3120  0.7463
10824SOL     OW33370   6.919   6.103   0.064 -0.2340  0.1051  0.0270
10824SOL    HW133371   6.956   6.011   0.080 -0.5966 -0.0023  0.2572
10824SOL    HW233372   6.981   6.171   0.103  0.2490 -0.0157 -0.5136
10825SOL     OW33373   2.478   0.331   4.304  0.2306 -0.1394 -0.0886
10825SOL    HW133374   2.456   0.343   4.207  0.5472  3.2099  0.1217
10825SOL    HW233375   2.404   0.282   4.349 -0.6100 -0.4815 -1.7544
10826SOL     OW33376   0.913   2.771   2.269 -0.5928 -0.0367 -0.3697
10826SOL    HW133377   0.920   2.858   2.319 -0.3046  0.1326 -0.7006
10826SOL    HW233378   0.876   2.701   2.330  0.7826 -0.1045  0.4458
10827SOL     OW33379   6.755   0.043   3.092  0.2903 -0.0102 -0.3340
10827SOL    HW133380   6.822   0.116   3.106 -1.1310  1.1311  0.7402
10827SOL    HW233381   6.716   0.016   3.180 -0.7642 -0.5683 -0.9569
10828SOL     OW33382   4.286   4.886   1.350  0.5395 -0.2584  0.0838
10828SOL    HW133383   4.261   4.789   1.349  2.3698 -0.7652 -2.0156
10828SOL    HW233384   4.367   4.900   1.407  1.3038 -0.2668 -0.9832
10829SOL     OW33385   3.820   3.161   0.059  0.8029  0.5237 -0.0276
10829SOL    HW133386   3.775   3.133  -0.026  0.2283 -0.8052  0.6641
10829SOL    HW233387   3.836   3.259   0.058 -0.3140  0.7262 -1.1612
10830SOL     OW33388   1.383   3.005   0.807 -0.5907 -0.2197  0.3083
10830SOL    HW133389   1.375   2.992   0.906  0.1367 -1.0346  0.2746
10830SOL    HW233390   1.471   3.046   0.786 -1.6009  1.9984  0.1423
10831SOL     OW33391   3.081   0.462   0.500  0.4108  0.1692  0.6480
10831SOL    HW133392   3.015   0.519   0.550  0.6106  0.3249  0.7337
10831SOL    HW233393   3.153   0.520   0.462 -0.2039  0.1753 -0.5657
10832SOL     OW33394   5.355   3.681   6.267  0.4040 -0.1356  0.4501
10832SOL    HW133395   5.287   3.656   6.199 -0.7582  1.2342  1.0364
10832SOL    HW233396   5.311   3.692   6.356  2.1199 -3.4802  1.9022
10833SOL     OW33397   1.631   6.647   1.766  0.6703 -0.7176  0.5612
10833SOL    HW133398   1.724   6.620   1.743  0.5767 -0.4143 -0.2062
10833SOL    HW233399   1.598   6.591   1.842  2.0339  0.2346  1.9222
10834SOL     OW33400   6.384   3.593   3.804  0.2390 -0.5063 -0.3651
10834SOL    HW133401   6.383   3.692   3.787 -1.6561 -0.5993 -1.0434
10834SOL    HW233402   6.352   3.575   3.897  1.1578 -0.4755 -0.0312
10835SOL     OW33403   6.864   0.781   1.652 -0.2454  0.6200  0.1789
10835SOL    HW133404   6.936   0.717   1.625 -0.6656 -1.1517  2.8072
10835SOL    HW233405   6.775   0.736   1.644 -0.5584  0.8049  2.0365
10836SOL     OW33406   5.916   3.887   4.948  0.3512  0.0025 -0.2887
10836SOL    HW133407   5.947   3.981   4.931  0.1028  0.3929  1.2553
10836SOL    HW233408   5.841   3.865   4.886 -0.6114  1.3848  0.3326
10837SOL     OW33409   0.689   3.490   5.227 -0.0240  0.2402 -0.0445
10837SOL    HW133410   0.592   3.492   5.251  0.2182  1.5746  0.9418
10837SOL    HW233411   0.742   3.534   5.300  1.0890  1.5192 -1.5606
10838SOL     OW33412   2.094   2.018   4.383 -0.0437 -0.0062 -0.9099
10838SOL    HW133413   2.167   1.970   4.433 -1.8209  0.7544  2.7447
10838SOL    HW233414   2.131   2.101   4.342  1.5792 -0.7707 -1.0709
10839SOL     OW33415   6.510   1.852   0.698 -0.3370 -0.0758  0.3859
10839SOL    HW133416   6.502   1.753   0.712  2.4921 -0.2839  1.2586
10839SOL    HW233417   6.541   1.870   0.605 -0.2077 -0.0636  0.4310
10840SOL     OW33418   1.378   0.130   0.636 -0.1118 -0.1602 -0.1346
10840SOL    HW133419   1.425   0.093   0.717 -0.4922 -0.8213 -0.2089
10840SOL    HW233420   1.327   0.057   0.591 -0.3164  0.3171 -0.6869
10841SOL     OW33421   3.288   0.076   0.558 -0.0844  0.5611  0.5696
10841SOL    HW133422   3.235   0.148   0.604 -0.2435  0.0702  1.1690
10841SOL    HW233423   3.226   0.011   0.514 -0.0346 -0.3568  1.7887
10842SOL     OW33424   6.428   3.156   1.699  0.0136  0.2726 -0.1026
10842SOL    HW133425   6.486   3.236   1.718  0.8946 -0.5791  0.9770
10842SOL    HW233426   6.437   3.130   1.604  0.0322  1.2096 -0.3712
10843SOL     OW33427   1.785   5.380   3.556 -0.5237 -0.1668  0.0741
10843SOL    HW133428   1.712   5.317   3.528  0.1851 -0.2149 -1.7720
10843SOL    HW233429   1.850   5.392   3.481  0.7177  0.8406  1.2574
10844SOL     OW33430   2.421   5.599   6.462 -0.2631 -0.3921  0.5335
10844SOL    HW133431   2.480   5.593   6.542 -2.6429  0.3890  2.4653
10844SOL    HW233432   2.477   5.602   6.379  2.2702 -3.0019  1.9615
10845SOL     OW33433   0.213   6.222   0.675  0.0606  0.1421  0.2359
10845SOL    HW133434   0.237   6.262   0.586 -0.3379 -0.8798 -0.3546
10845SOL    HW233435   0.191   6.295   0.740  0.1849  0.9017 -0.5507
10846SOL     OW33436   1.073   2.484   6.471 -0.0354  0.3734 -0.5864
10846SOL    HW133437   1.139   2.475   6.396 -0.4183  1.1322 -1.0319
10846SOL    HW233438   1.092   2.415   6.540  1.8235  1.1394 -0.2540
10847SOL     OW33439   6.569   1.866   2.680 -0.1142 -0.3090  1.0952
10847SOL    HW133440   6.559   1.791   2.745  2.1100 -0.5410  1.2513
10847SOL    HW233441   6.630   1.839   2.606 -1.1179  0.5933 -0.1144
10848SOL     OW33442   1.323   6.164   0.559  0.2506  0.4142  0.1218
10848SOL    HW133443   1.338   6.122   0.470 -1.1267 -0.5794  0.3295
10848SOL    HW233444   1.242   6.124   0.602 -0.4170  2.4519  0.8689
10849SOL     OW33445   6.697   6.632   6.164  0.2705  0.6477 -1.2780
10849SOL    HW133446   6.645   6.633   6.249  1.6903 -0.6044 -0.3463
10849SOL    HW233447   6.659   6.564   6.102 -0.6324  1.4076 -1.5729
10850SOL     OW33448   7.008   5.730   5.664 -0.1414 -0.2384 -0.4367
10850SOL    HW133449   6.910   5.724   5.645 -0.1871 -1.6359  0.0977
10850SOL    HW233450   7.059   5.708   5.581 -0.2988 -0.8538 -0.3755
10851SOL     OW33451   4.792   6.438   6.076  0.4770 -0.5625 -0.3019
10851SOL    HW133452   4.747   6.350   6.089 -1.0468  0.2486  0.1332
10851SOL    HW233453   4.801   6.457   5.978  0.1456 -0.8669 -0.3918
10852SOL     OW33454   4.445   4.955   4.284 -0.1114  0.1715  0.6013
10852SOL    HW133455   4.382   5.028   4.311  0.7048  0.8893  0.6368
10852SOL    HW233456   4.437   4.878   4.347 -1.1438  0.1331  0.4359
10853SOL     OW33457   0.499   6.725   4.554  0.3740  0.7244 -0.1967
10853SOL    HW133458   0.551   6.751   4.635  0.4649  1.5926 -0.5186
10853SOL    HW233459   0.560   6.685   4.486 -0.2090 -3.9174  1.6154
10854SOL     OW33460   2.483   5.257   5.872 -0.2885  0.2018 -0.0717
10854SOL    HW133461   2.457   5.227   5.780 -2.7086 -0.3152  0.7073
10854SOL    HW233462   2.407   5.242   5.935  0.5786  2.3996  1.6405
10855SOL     OW33463   3.361   4.063   1.649 -0.2684  0.0904 -0.3910
10855SOL    HW133464   3.347   4.012   1.564 -0.7360 -2.6897  1.2276
10855SOL    HW233465   3.273   4.090   1.688 -0.5622 -3.2562  1.6938
10856SOL     OW33466   1.895   2.082   4.018  0.0375 -0.0841 -0.3837
10856SOL    HW133467   1.800   2.059   3.995 -0.0668 -0.5177  0.4350
10856SOL    HW233468   1.896   2.161   4.079  0.3501  1.5813 -2.4208
10857SOL     OW33469   4.677   6.037   6.236 -0.5286 -0.4802 -0.1041
10857SOL    HW133470   4.746   5.975   6.197 -0.4322  0.3353 -1.2932
10857SOL    HW233471   4.587   5.997   6.226 -0.5869 -0.0236 -1.8596
10858SOL     OW33472   6.439   1.843   3.210 -0.3112  0.4635 -0.2488
10858SOL    HW133473   6.374   1.883   3.275  0.2493 -0.0458  0.6461
10858SOL    HW233474   6.398   1.761   3.168  0.1183 -0.4866  1.1152
10859SOL     OW33475   4.849   3.942   4.772  0.6983  0.1519  0.1253
10859SOL    HW133476   4.904   4.019   4.739  1.8847 -0.7943 -0.1608
10859SOL    HW233477   4.804   3.898   4.694 -1.1906  1.4332  0.4428
10860SOL     OW33478   1.180   0.491   2.002  0.0730 -0.1229  0.3513
10860SOL    HW133479   1.119   0.554   2.050 -1.7477 -1.8964  0.5302
10860SOL    HW233480   1.264   0.478   2.055  0.3273  1.7811  0.4896
10861SOL     OW33481   1.183   1.285   3.929 -0.2924 -0.0933 -1.0888
10861SOL    HW133482   1.193   1.211   3.862  1.5537 -1.8239  0.9704
10861SOL    HW233483   1.119   1.257   4.000  0.3936  0.3074 -0.3041
10862SOL     OW33484   1.704   2.985   5.381 -0.4581 -0.6409  0.6366
10862SOL    HW133485   1.751   3.046   5.445 -1.7165  0.8083  0.2386
10862SOL    HW233486   1.734   3.006   5.288 -0.6880 -0.8249  0.5218
10863SOL     OW33487   0.217   5.410   5.429  0.0861 -0.1551 -0.7020
10863SOL    HW133488   0.227   5.503   5.465  0.5778  0.3264 -2.0221
10863SOL    HW233489   0.124   5.398   5.394 -0.9267 -1.1553  2.0566
10864SOL     OW33490   1.751   1.317   5.546  0.7392 -0.4974 -0.7051
10864SOL    HW133491   1.675   1.255   5.529 -0.7834  1.2525 -0.6091
10864SOL    HW233492   1.759   1.333   5.645  0.1664  0.5656 -0.8195
10865SOL     OW33493   3.884   6.281   1.240 -0.5655 -0.3005 -0.3861
10865SOL    HW133494   3.826   6.200   1.237  0.1185 -0.7794 -1.2103
10865SOL    HW233495   3.901   6.306   1.336  1.2895 -2.6749  0.0128
10866SOL     OW33496   5.533   6.950   2.717  0.7761  0.1573 -0.2764
10866SOL    HW133497   5.443   6.958   2.675 -0.0316 -0.2767  1.2930
10866SOL    HW233498   5.538   6.867   2.772  1.9189  0.5040  0.1896
10867SOL     OW33499   5.974   5.812   5.693  0.1652  0.0223 -0.0676
10867SOL    HW133500   5.887   5.766   5.676 -1.7958  2.6798  1.9187
10867SOL    HW233501   5.984   5.889   5.631  0.5748  0.3413  0.3831
10868SOL     OW33502   6.309   6.663   0.283 -0.2971  0.6958  0.5506
10868SOL    HW133503   6.386   6.714   0.320 -0.6463  0.8701  1.0438
10868SOL    HW233504   6.337   6.618   0.198 -0.0280  1.8267  0.0181
10869NA      NA33505   5.558   3.218   5.595 -0.0501 -0.3675  0.0597
10870NA      NA33506   5.067   6.322   1.173 -0.3099 -0.1078  0.2610
10871NA      NA33507   4.773   2.631   5.109  0.1992 -0.5433 -0.0228
10872NA      NA33508   6.155   3.038   1.032  0.0524  0.6435  0.1730
10873NA      NA33509   4.831   3.777   5.189  0.1831 -0.2149  0.2096
10874NA      NA33510   1.990   2.739   6.043  0.0460  0.0022  0.2371
10875NA      NA33511   1.925   5.595   1.055  0.0973  0.1854  0.5290
10876NA      NA33512   4.120   6.558   6.296 -0.2004 -1.0865 -0.3186
10877NA      NA33513   3.157   1.778   5.398  0.4126  0.0199  0.4761
10878NA      NA33514   3.786   0.866   0.477 -0.1887 -0.1576 -0.0858
10879NA      NA33515   3.812   5.965   1.883 -0.0851  0.1508  0.1993
10880NA      NA33516   1.741   6.613   4.387  0.1308  0.0868  0.1710
10881NA      NA33517   3.342   3.170   4.837 -0.3419 -0.2390 -0.0049
10882NA      NA33518   6.418   5.620   4.878  0.1650  0.2615  0.5466
   7.01740   7.01740   7.01740
