CNT in water
33518
    1C        C    1   2.846   2.770   4.749 -0.9409 -0.7217 -0.0470
    1C        C    2   2.901   2.724   4.870 -0.1108 -0.0635 -0.1616
    1C        C    3   2.846   2.773   4.989  0.1177 -0.5841  0.1657
    1C        C    4   2.854   2.777   4.263 -0.0997  0.0092  0.1080
    1C        C    5   2.903   2.726   4.385  0.0097  0.1329  0.1175
    1C        C    6   2.845   2.770   4.506 -0.3697 -0.3499  0.1171
    1C        C    7   3.019   2.648   4.628 -0.1656 -0.0302 -0.0240
    1C        C    8   2.901   2.725   4.627 -0.7453 -0.8898  0.0999
    1C        C    9   3.079   2.607   4.749  0.1736  0.2043 -0.1063
    1C        C   10   3.011   2.634   4.870 -0.3276 -0.3339 -0.2605
    1C        C   11   3.185   2.496   4.981  0.4711  0.2606  0.4280
    1C        C   12   3.067   2.573   4.982  0.0621 -0.3420 -0.4570
    1C        C   13   2.843   2.765   3.774 -0.6250 -0.1035 -0.0943
    1C        C   14   2.898   2.718   3.896 -0.1293 -0.2362 -0.3661
    1C        C   15   2.851   2.771   4.017  0.2776 -0.5373 -0.0742
    1C        C   16   3.024   2.652   4.141  0.1594  0.1398  0.2785
    1C        C   17   2.905   2.728   4.140 -0.0375 -0.1642  0.2006
    1C        C   18   3.085   2.618   4.263 -0.2310 -0.3004  0.3582
    1C        C   19   3.019   2.646   4.385 -0.3386 -0.3814  0.3230
    1C        C   20   3.212   2.560   4.508 -0.0246 -0.7757 -0.0214
    1C        C   21   3.080   2.609   4.507  0.2731  0.0602  0.1598
    1C        C   22   3.282   2.541   4.630 -0.1457 -0.7959  0.0500
    1C        C   23   3.212   2.557   4.752  0.0860 -0.0335  0.0893
    1C        C   24   3.417   2.491   4.870  0.1301  0.3234  0.1821
    1C        C   25   3.275   2.508   4.870  0.0774 -0.1066  0.0673
    1C        C   26   3.492   2.484   4.989  0.0429 -0.2709  0.2051
    1C        C   27   2.841   2.756   3.286 -0.1387 -0.2346  0.2812
    1C        C   28   2.900   2.721   3.409 -0.0572 -0.1766  0.2573
    1C        C   29   2.850   2.769   3.532 -0.3471 -0.4149  0.2295
    1C        C   30   3.017   2.639   3.652 -0.2169 -0.2694 -0.0853
    1C        C   31   2.899   2.717   3.653 -0.4249 -0.5873  0.1871
    1C        C   32   3.084   2.616   3.774 -0.4101 -0.4964 -0.0194
    1C        C   33   3.018   2.645   3.895 -0.1006 -0.1943  0.0784
    1C        C   34   3.216   2.568   4.020 -0.2524 -0.2368  0.2737
    1C        C   35   3.084   2.618   4.018 -0.1773 -0.0358  0.1576
    1C        C   36   3.282   2.541   4.141 -0.1630 -0.3395  0.2075
    1C        C   37   3.217   2.567   4.264 -0.1014  0.0201  0.1709
    1C        C   38   3.421   2.520   4.384 -0.0043 -0.9023 -0.0169
    1C        C   39   3.283   2.546   4.387  0.0501 -0.5833 -0.0067
    1C        C   40   3.490   2.504   4.506 -0.1432  0.4296  0.2546
    1C        C   41   3.421   2.517   4.629 -0.0113 -0.0623  0.3903
    1C        C   42   3.633   2.496   4.748  0.2458  0.0540  0.1806
    1C        C   43   3.491   2.494   4.749  0.2457 -0.0921  0.2397
    1C        C   44   3.705   2.494   4.869  0.0311  0.2795  0.3143
    1C        C   45   3.631   2.482   4.987  0.0525  0.1707  0.3178
    1C        C   46   2.832   2.748   2.797 -0.8598 -0.3166  0.6822
    1C        C   47   2.885   2.701   2.919 -0.1523 -0.7134  0.2280
    1C        C   48   2.833   2.749   3.041  0.1620 -0.4168  0.2470
    1C        C   49   3.014   2.639   3.163  0.1214 -0.1369 -0.3135
    1C        C   50   2.889   2.706   3.163  0.0841 -0.2044  0.3573
    1C        C   51   3.079   2.609   3.284  0.1670  0.4732 -0.1816
    1C        C   52   3.017   2.642   3.406 -0.2500 -0.4502 -0.1380
    1C        C   53   3.208   2.553   3.529 -0.3454 -0.6837  0.0916
    1C        C   54   3.077   2.605   3.529 -0.0843 -0.0203 -0.0899
    1C        C   55   3.279   2.544   3.650 -0.3296 -0.2612  0.1157
    1C        C   56   3.216   2.567   3.774 -0.1596  0.1712  0.1247
    1C        C   57   3.421   2.518   3.895 -0.3340 -0.0093 -0.2038
    1C        C   58   3.283   2.547   3.897 -0.3440 -0.0637  0.1894
    1C        C   59   3.490   2.503   4.017  0.0045 -0.0031 -0.3894
    1C        C   60   3.420   2.509   4.139 -0.1076 -0.0954 -0.4426
    1C        C   61   3.631   2.505   4.260 -0.3319  0.0062 -0.2858
    1C        C   62   3.490   2.507   4.261 -0.3390 -0.1091 -0.3030
    1C        C   63   3.702   2.507   4.382 -0.1391  0.3877 -0.3948
    1C        C   64   3.631   2.497   4.503 -0.1270  0.8647 -0.3435
    1C        C   65   3.837   2.548   4.622 -0.2421 -0.0556 -0.2381
    1C        C   66   3.702   2.506   4.625 -0.3803  0.3825 -0.1544
    1C        C   67   3.905   2.563   4.744 -0.1023 -0.2341 -0.2909
    1C        C   68   3.842   2.525   4.865  0.1988 -0.5096 -0.2193
    1C        C   69   4.056   2.579   4.978 -0.0321 -0.6729 -0.2621
    1C        C   70   3.925   2.529   4.978 -0.2350 -0.1496  0.0858
    1C        C   71   2.829   2.738   2.310 -0.4410 -0.2287 -0.1004
    1C        C   72   2.881   2.690   2.432 -0.0155  0.1978 -0.1117
    1C        C   73   2.830   2.742   2.553  0.0617 -0.3343  0.1537
    1C        C   74   3.011   2.632   2.679 -0.7715 -0.1248  0.0266
    1C        C   75   2.890   2.705   2.676 -0.7757 -0.0953  0.6404
    1C        C   76   3.074   2.596   2.800 -0.1484 -0.2923 -0.3432
    1C        C   77   3.008   2.631   2.920 -0.0846 -0.6055 -0.2158
    1C        C   78   3.208   2.556   3.043 -0.0796 -0.6050  0.0465
    1C        C   79   3.074   2.601   3.041 -0.1387 -0.7960 -0.2343
    1C        C   80   3.278   2.535   3.163  0.0712 -0.2866  0.0140
    1C        C   81   3.211   2.556   3.285 -0.1937 -0.4450 -0.1054
    1C        C   82   3.416   2.504   3.406 -0.2691 -0.0550  0.5568
    1C        C   83   3.278   2.535   3.407 -0.2363  0.1361  0.0260
    1C        C   84   3.486   2.499   3.529  0.3725  1.0741  0.2551
    1C        C   85   3.417   2.511   3.651 -0.0789  0.7469  0.0378
    1C        C   86   3.630   2.503   3.771 -0.1127 -0.4491 -0.1603
    1C        C   87   3.488   2.501   3.772 -0.1169 -0.4605 -0.0291
    1C        C   88   3.701   2.505   3.893  0.0332  0.3093 -0.2516
    1C        C   89   3.631   2.501   4.015  0.0146  0.2401 -0.2582
    1C        C   90   3.837   2.550   4.136 -0.3378  0.8222 -0.1388
    1C        C   91   3.701   2.513   4.137 -0.0578 -0.2830 -0.1566
    1C        C   92   3.906   2.567   4.259 -0.3361  0.4721 -0.0846
    1C        C   93   3.839   2.542   4.381 -0.0592  0.1136 -0.0006
    1C        C   94   4.036   2.627   4.502  0.0673  0.0699  0.2349
    1C        C   95   3.907   2.569   4.501  0.0138  0.1814 -0.0522
    1C        C   96   4.097   2.661   4.624  0.1817 -0.3911  0.3110
    1C        C   97   4.033   2.625   4.745 -0.2382  0.0576  0.2293
    1C        C   98   4.190   2.767   4.866 -0.1652  0.0411 -0.0042
    1C        C   99   4.103   2.654   4.865 -0.0048 -0.0859  0.1330
    1C        C  100   4.205   2.849   4.978  0.1982 -0.3479  0.2363
    1C        C  101   2.833   2.738   2.073 -0.2874 -0.1894  0.0333
    1C        C  102   2.993   2.591   2.195  0.2595  0.3807  0.4002
    1C        C  103   2.881   2.679   2.191 -0.1866 -0.1941 -0.0084
    1C        C  104   3.064   2.572   2.316  0.4039  0.3519  0.3130
    1C        C  105   3.002   2.616   2.435 -0.0396  0.1646  0.1532
    1C        C  106   3.202   2.545   2.553 -0.5056 -0.5655  0.1611
    1C        C  107   3.072   2.601   2.556 -0.1857  0.1744  0.2411
    1C        C  108   3.272   2.527   2.674 -0.0848 -0.1276 -0.0172
    1C        C  109   3.206   2.546   2.797 -0.1909 -0.4278 -0.0270
    1C        C  110   3.412   2.507   2.916 -0.1161  0.3775  0.5162
    1C        C  111   3.272   2.528   2.920 -0.3493 -0.9495 -0.0158
    1C        C  112   3.483   2.502   3.038  0.5162  0.8992  0.1694
    1C        C  113   3.416   2.506   3.162  0.1384  0.0226 -0.0023
    1C        C  114   3.627   2.501   3.284 -0.5105  0.3074 -0.0219
    1C        C  115   3.486   2.491   3.284 -0.5039  0.1840  0.3918
    1C        C  116   3.697   2.516   3.405 -0.1971  0.7792 -0.2552
    1C        C  117   3.627   2.505   3.527  0.3722  1.1315  0.1120
    1C        C  118   3.837   2.539   3.646  0.4791  0.3530 -0.0635
    1C        C  119   3.699   2.507   3.649  0.3539  0.8729  0.1321
    1C        C  120   3.904   2.561   3.768  0.2040  0.1187  0.1348
    1C        C  121   3.839   2.538   3.892  0.1014  0.0632  0.0753
    1C        C  122   4.027   2.637   4.013  0.1245  0.1239 -0.1299
    1C        C  123   3.904   2.567   4.013  0.2570 -0.1162  0.0403
    1C        C  124   4.091   2.668   4.135 -0.3411  0.2094  0.1013
    1C        C  125   4.034   2.624   4.257  0.1210 -0.5151  0.0674
    1C        C  126   4.193   2.762   4.378  0.2121 -0.1977 -0.2070
    1C        C  127   4.097   2.659   4.379 -0.3401  0.3058  0.0858
    1C        C  128   4.233   2.822   4.499  0.0515 -0.3574 -0.0711
    1C        C  129   4.195   2.763   4.622 -0.0560 -0.1655 -0.0061
    1C        C  130   4.325   2.933   4.742 -0.5264  0.2310 -0.1530
    1C        C  131   4.240   2.819   4.743  0.0522 -0.2075 -0.0243
    1C        C  132   4.354   3.004   4.860  0.0559 -0.2855  0.0254
    1C        C  133   4.285   2.963   4.975  0.2714 -0.4010  0.1139
    1C        C  134   3.174   2.469   2.085 -0.3543 -0.3974  0.0049
    1C        C  135   3.041   2.512   2.085 -0.2875 -0.1907  0.5617
    1C        C  136   3.262   2.484   2.193 -0.3563  0.3449 -0.0890
    1C        C  137   3.197   2.521   2.313  0.3220  0.1331  0.3515
    1C        C  138   3.409   2.489   2.431  0.3131  0.6124 -0.3317
    1C        C  139   3.270   2.513   2.434  0.2217  0.0348  0.4061
    1C        C  140   3.481   2.491   2.552 -0.1966  0.1543 -0.0118
    1C        C  141   3.412   2.509   2.674 -0.1024 -0.2690  0.1037
    1C        C  142   3.625   2.493   2.793 -0.4355  0.0285 -0.0255
    1C        C  143   3.484   2.500   2.795 -0.4134  0.3903  0.3377
    1C        C  144   3.695   2.504   2.916  0.1213 -0.1441 -0.3272
    1C        C  145   3.624   2.499   3.038  0.5108  0.6318 -0.0671
    1C        C  146   3.830   2.548   3.158 -0.0802  0.6243 -0.2232
    1C        C  147   3.694   2.509   3.160 -0.0053  0.3806  0.2521
    1C        C  148   3.902   2.563   3.278  0.1861 -0.2157 -0.2658
    1C        C  149   3.836   2.544   3.401 -0.1787  0.6930 -0.3148
    1C        C  150   4.030   2.623   3.520  0.1143 -0.1127 -0.0085
    1C        C  151   3.904   2.559   3.524  0.0783 -0.0658 -0.3577
    1C        C  152   4.087   2.662   3.643  0.5729 -0.3677 -0.1329
    1C        C  153   4.025   2.633   3.767  0.5889 -0.5113 -0.1553
    1C        C  154   4.192   2.763   3.890  0.3516 -0.2629  0.4322
    1C        C  155   4.084   2.672   3.889  0.4482 -0.3773 -0.1244
    1C        C  156   4.242   2.813   4.012  0.0035  0.0541  0.4497
    1C        C  157   4.200   2.758   4.135 -0.2549  0.1130  0.3913
    1C        C  158   4.326   2.928   4.255  0.2872  0.4204  0.4445
    1C        C  159   4.247   2.811   4.257  0.2607  0.4289  0.0617
    1C        C  160   4.362   2.990   4.377  0.4756  0.1811  0.5164
    1C        C  161   4.324   2.930   4.499 -0.2797 -0.0705  0.1638
    1C        C  162   4.422   3.120   4.615 -0.2135  0.3513 -0.2494
    1C        C  163   4.362   2.992   4.620 -0.6470  0.5570 -0.0342
    1C        C  164   4.455   3.189   4.734  0.1229 -0.1428 -0.0480
    1C        C  165   4.422   3.128   4.857 -0.2237 -0.1334 -0.1338
    1C        C  166   4.524   3.319   4.965  0.3747 -0.3291 -0.6114
    1C        C  167   4.480   3.187   4.970 -0.1369 -0.1449 -0.1722
    1C        C  168   3.476   2.436   2.075  0.1067 -0.1230  0.1795
    1C        C  169   3.402   2.466   2.190 -0.3286  0.5804 -0.2711
    1C        C  170   3.620   2.472   2.306  0.0097 -0.1763  0.1968
    1C        C  171   3.478   2.472   2.309 -0.0052  0.1389 -0.4502
    1C        C  172   3.690   2.488   2.428 -0.0464 -0.5279  0.2755
    1C        C  173   3.623   2.495   2.551 -0.2068  0.5290  0.1330
    1C        C  174   3.832   2.538   2.668 -0.2973  0.6731 -0.5748
    1C        C  175   3.696   2.498   2.672 -0.1988  0.4023  0.1288
    1C        C  176   3.897   2.564   2.790 -0.3141  0.9359 -0.6252
    1C        C  177   3.830   2.545   2.912 -0.0944  0.5463 -0.5640
    1C        C  178   4.025   2.626   3.033 -0.3380  0.4031 -0.1095
    1C        C  179   3.895   2.572   3.035 -0.2202  0.1089 -0.4017
    1C        C  180   4.091   2.656   3.154 -0.3086  0.2011 -0.0753
    1C        C  181   4.031   2.620   3.277  0.1600 -0.1483  0.0529
    1C        C  182   4.198   2.751   3.399  0.4377 -0.4672  0.3934
    1C        C  183   4.092   2.658   3.399  0.3181 -0.3298  0.0311
    1C        C  184   4.244   2.803   3.522  0.5955 -0.4174  0.3137
    1C        C  185   4.196   2.751   3.645  0.8326 -0.6881  0.2945
    1C        C  186   4.326   2.920   3.764  0.2057 -0.2524 -0.2239
    1C        C  187   4.242   2.807   3.766  0.0354 -0.1245  0.3482
    1C        C  188   4.366   2.980   3.886 -0.0878 -0.1883 -0.1566
    1C        C  189   4.333   2.921   4.009  0.3637 -0.2558 -0.0626
    1C        C  190   4.428   3.110   4.129 -0.4550 -0.0121 -0.0702
    1C        C  191   4.364   2.985   4.132 -0.2377 -0.1240  0.0274
    1C        C  192   4.454   3.179   4.250 -0.4687  0.3448 -0.2684
    1C        C  193   4.423   3.118   4.373  0.0095  0.3925 -0.1229
    1C        C  194   4.496   3.319   4.489  0.7170  0.2057  0.1607
    1C        C  195   4.448   3.187   4.494  0.3718  0.3153 -0.1496
    1C        C  196   4.521   3.391   4.608  0.3041  0.4060  0.1307
    1C        C  197   4.505   3.322   4.730 -0.1782 -0.0293 -0.1704
    1C        C  198   4.549   3.539   4.848 -0.3291  0.2582 -0.1564
    1C        C  199   4.531   3.397   4.849 -0.6246  0.2920 -0.2705
    1C        C  200   4.584   3.620   4.960 -0.0297  0.0120 -0.0695
    1C        C  201   3.615   2.426   2.075  0.1399  0.2909 -0.1291
    1C        C  202   3.831   2.515   2.185  0.1522 -0.6997  0.2570
    1C        C  203   3.694   2.472   2.185 -0.0872  0.0479  0.1374
    1C        C  204   3.900   2.541   2.306  0.0346  0.2175  0.1314
    1C        C  205   3.827   2.525   2.426 -0.2988  0.4136 -0.0465
    1C        C  206   4.029   2.604   2.546  0.3268  0.0092  0.1295
    1C        C  207   3.899   2.548   2.544  0.2004  0.3116 -0.3334
    1C        C  208   4.088   2.650   2.665 -0.2343  0.6617  0.1651
    1C        C  209   4.028   2.617   2.789 -0.3165  0.9659  0.2028
    1C        C  210   4.199   2.744   2.909  0.0733  0.6448  0.3842
    1C        C  211   4.088   2.657   2.910 -0.0933  0.8557  0.1275
    1C        C  212   4.248   2.799   3.030  0.1621  0.5410  0.3949
    1C        C  213   4.192   2.755   3.151  0.0135 -0.1186  0.0945
    1C        C  214   4.327   2.913   3.272  0.2037 -0.5804 -0.1306
    1C        C  215   4.247   2.796   3.275 -0.0778 -0.3810  0.2228
    1C        C  216   4.355   2.978   3.394 -0.2170  0.1869 -0.4374
    1C        C  217   4.326   2.918   3.518 -0.1807  0.1178 -0.4627
    1C        C  218   4.418   3.106   3.640 -0.1557 -0.2023 -0.1139
    1C        C  219   4.366   2.975   3.641 -0.1458 -0.2081 -0.3211
    1C        C  220   4.445   3.174   3.761 -0.1323  0.0001 -0.2324
    1C        C  221   4.429   3.107   3.884 -0.7375  0.1379 -0.2336
    1C        C  222   4.493   3.309   4.002 -0.6689 -0.0540 -0.0678
    1C        C  223   4.453   3.174   4.006 -0.6768 -0.0546 -0.1385
    1C        C  224   4.515   3.380   4.122  0.4540  0.0695 -0.3399
    1C        C  225   4.497   3.314   4.245 -0.0351  0.2069 -0.3376
    1C        C  226   4.530   3.524   4.364 -0.0915  0.0235  0.0609
    1C        C  227   4.519   3.384   4.365 -0.4688  0.0483 -0.1602
    1C        C  228   4.519   3.601   4.483 -0.5754  0.2556 -0.1304
    1C        C  229   4.517   3.532   4.606 -0.1262  0.3937 -0.0428
    1C        C  230   4.503   3.746   4.726  0.0183  0.2727 -0.1912
    1C        C  231   4.531   3.607   4.725  1.1578  0.4961 -0.2519
    1C        C  232   4.497   3.821   4.845  0.0141 -0.6383  0.3944
    1C        C  233   4.549   3.756   4.957  0.7164  0.2285  0.5873
    1C        C  234   4.023   2.605   2.065 -0.1427 -0.0356  0.0407
    1C        C  235   3.897   2.547   2.065 -0.1177 -0.0899  0.2695
    1C        C  236   4.088   2.645   2.182 -0.1920  0.2801 -0.0385
    1C        C  237   4.025   2.609   2.304  0.1523 -0.0045  0.0554
    1C        C  238   4.197   2.738   2.425  0.7127 -0.4909 -0.2062
    1C        C  239   4.089   2.644   2.424 -0.0762  0.4016  0.0572
    1C        C  240   4.253   2.784   2.546  0.0324 -0.0838 -0.0404
    1C        C  241   4.197   2.740   2.667  0.1905  0.1570  0.1191
    1C        C  242   4.338   2.902   2.784 -0.2795  0.4529  0.1372
    1C        C  243   4.253   2.790   2.787 -0.0890  0.3105  0.1867
    1C        C  244   4.379   2.963   2.905  0.0379  0.4502  0.0316
    1C        C  245   4.338   2.908   3.028  0.9725 -0.1167  0.0989
    1C        C  246   4.424   3.100   3.151 -0.2290  0.2319 -0.0102
    1C        C  247   4.369   2.970   3.150  0.4813 -0.0745  0.2034
    1C        C  248   4.446   3.169   3.273 -0.1339  0.0611  0.0668
    1C        C  249   4.416   3.105   3.395 -0.7372  0.4344  0.1123
    1C        C  250   4.489   3.304   3.514 -1.0820  0.5296 -0.0033
    1C        C  251   4.449   3.169   3.517 -0.4695  0.3472  0.0869
    1C        C  252   4.500   3.377   3.635 -1.0986  0.5119  0.0074
    1C        C  253   4.481   3.311   3.758 -1.1937  0.2846 -0.1287
    1C        C  254   4.523   3.519   3.877 -0.1163 -0.1081  0.4019
    1C        C  255   4.503   3.380   3.880 -0.4538 -0.0684 -0.0591
    1C        C  256   4.521   3.591   3.999 -0.1036  0.3520  0.1335
    1C        C  257   4.521   3.521   4.122  0.0501  0.0855 -0.0168
    1C        C  258   4.497   3.734   4.241  0.3011  0.0315 -0.1790
    1C        C  259   4.515   3.594   4.243 -0.0484 -0.0105  0.0360
    1C        C  260   4.473   3.804   4.361 -0.3119  0.0063 -0.2846
    1C        C  261   4.484   3.737   4.486  0.0673  0.4236 -0.0918
    1C        C  262   4.429   3.946   4.604 -0.3235  0.4803 -0.1725
    1C        C  263   4.481   3.814   4.604 -0.7423  0.3144 -0.0350
    1C        C  264   4.401   4.015   4.724  0.0309 -0.1543  0.2822
    1C        C  265   4.439   3.950   4.844  0.2852 -0.5188  0.0082
    1C        C  266   4.318   4.133   4.962 -0.2538 -0.2803 -0.1259
    1C        C  267   4.394   4.017   4.959 -0.1054 -0.1771 -0.3386
    1C        C  268   4.266   2.767   2.063 -0.1435 -0.1494 -0.4660
    1C        C  269   4.192   2.740   2.179  0.1525 -0.1041 -0.2655
    1C        C  270   4.336   2.895   2.299 -0.3432  0.3513 -0.1606
    1C        C  271   4.245   2.787   2.301  0.0522  0.0155 -0.2681
    1C        C  272   4.384   2.951   2.420  0.0379 -0.1490 -0.0788
    1C        C  273   4.342   2.894   2.542 -0.2369  0.1344 -0.0399
    1C        C  274   4.444   3.084   2.662 -0.4452  0.2703 -0.2199
    1C        C  275   4.379   2.959   2.661 -0.8120  0.4606 -0.0377
    1C        C  276   4.473   3.151   2.783  0.3371 -0.1195 -0.1843
    1C        C  277   4.443   3.089   2.906 -0.4141  0.6830  0.0465
    1C        C  278   4.501   3.294   3.024  0.0080  0.4036 -0.1284
    1C        C  279   4.460   3.159   3.028  0.0616  0.3951  0.1508
    1C        C  280   4.517   3.363   3.147 -0.3867  0.3027 -0.0238
    1C        C  281   4.493   3.302   3.272 -0.2692  0.1063 -0.0990
    1C        C  282   4.513   3.514   3.389 -1.1893  0.2354 -0.0274
    1C        C  283   4.509   3.373   3.393 -0.6657  0.2159 -0.1140
    1C        C  284   4.520   3.586   3.511 -1.0734  0.2515 -0.0454
    1C        C  285   4.520   3.517   3.634 -0.3265  0.4083  0.0452
    1C        C  286   4.502   3.729   3.753  0.1098 -0.2074  0.0487
    1C        C  287   4.521   3.589   3.755  0.6165 -0.1376  0.3698
    1C        C  288   4.488   3.800   3.874  0.0212  0.3530 -0.2902
    1C        C  289   4.508   3.731   3.996 -0.3209  0.3245 -0.2491
    1C        C  290   4.433   3.931   4.118  0.2153  0.1528 -0.1552
    1C        C  291   4.488   3.801   4.117  0.4390  0.2483 -0.0719
    1C        C  292   4.405   4.003   4.236  0.2258  0.0018 -0.0623
    1C        C  293   4.428   3.938   4.359 -0.1254  0.0736  0.0408
    1C        C  294   4.322   4.124   4.481 -0.1320  0.4922  0.0241
    1C        C  295   4.399   4.005   4.480 -0.0487  0.5499 -0.2058
    1C        C  296   4.280   4.188   4.599 -0.0032 -0.0909  0.3873
    1C        C  297   4.330   4.138   4.722  0.1643 -0.0780  0.3223
    1C        C  298   4.200   4.312   4.841 -0.1300  0.0940 -0.3322
    1C        C  299   4.290   4.201   4.843  0.0955  0.2834  0.1099
    1C        C  300   4.167   4.406   4.944 -0.4314  0.1433 -0.4787
    1C        C  301   4.354   2.874   2.063  0.0643 -0.3166  0.0592
    1C        C  302   4.468   3.066   2.178 -0.1903  0.0645  0.0797
    1C        C  303   4.395   2.943   2.179  0.3211 -0.2406 -0.0756
    1C        C  304   4.474   3.145   2.296 -0.0582  0.4093 -0.1574
    1C        C  305   4.444   3.079   2.417 -0.3319  0.0172 -0.4394
    1C        C  306   4.503   3.284   2.540  0.0178 -0.2385  0.1101
    1C        C  307   4.470   3.147   2.538  0.0840 -0.2490 -0.3766
    1C        C  308   4.514   3.358   2.659 -0.2135 -0.1356  0.0659
    1C        C  309   4.505   3.289   2.782  0.4313 -0.1389  0.1159
    1C        C  310   4.532   3.503   2.901  0.2788  0.3434 -0.1701
    1C        C  311   4.515   3.363   2.902 -0.2184  0.4017 -0.1544
    1C        C  312   4.529   3.574   3.023  0.0877  0.4714 -0.2519
    1C        C  313   4.529   3.503   3.145 -0.4384  0.3011 -0.3514
    1C        C  314   4.506   3.719   3.266  0.2331 -0.0237  0.0688
    1C        C  315   4.523   3.579   3.264 -0.1026 -0.0581 -0.1063
    1C        C  316   4.490   3.792   3.386 -0.1999  0.0260 -0.0219
    1C        C  317   4.506   3.727   3.510  0.0445  0.3701  0.1245
    1C        C  318   4.429   3.926   3.631  0.1719  0.2230  0.2058
    1C        C  319   4.486   3.797   3.631 -0.1013  0.1054  0.2520
    1C        C  320   4.399   3.991   3.753  0.2524  0.6864 -0.0215
    1C        C  321   4.435   3.931   3.876 -0.5517  0.1187 -0.0626
    1C        C  322   4.323   4.112   3.993  0.0062  0.3711 -0.1384
    1C        C  323   4.403   3.996   3.997 -0.2979  0.1649 -0.0247
    1C        C  324   4.269   4.162   4.114  0.4684  0.5059  0.0098
    1C        C  325   4.321   4.117   4.237  0.5299  0.2250 -0.1228
    1C        C  326   4.179   4.277   4.357  0.2691  0.2294  0.2208
    1C        C  327   4.275   4.174   4.358  0.4342  0.3828 -0.2362
    1C        C  328   4.132   4.336   4.477  0.1589  0.6537 -0.0340
    1C        C  329   4.186   4.293   4.600  0.2074  0.1021 -0.2487
    1C        C  330   4.018   4.427   4.719 -0.0129  0.0890  0.2007
    1C        C  331   4.136   4.348   4.720  0.2768  0.5212 -0.4177
    1C        C  332   3.966   4.490   4.835  0.3474  0.3054  0.2399
    1C        C  333   4.049   4.480   4.947 -0.0322  0.7509  0.5566
    1C        C  334   4.554   3.267   2.062  0.7408 -0.2910 -0.0354
    1C        C  335   4.533   3.129   2.067 -0.1724 -0.1632 -0.0384
    1C        C  336   4.538   3.350   2.174  0.0850 -0.1482 -0.2275
    1C        C  337   4.507   3.283   2.295 -0.0844  0.4167  0.0422
    1C        C  338   4.528   3.494   2.414  0.2173  0.0879  0.0686
    1C        C  339   4.518   3.353   2.417 -0.6883  0.1538  0.2453
    1C        C  340   4.524   3.567   2.535 -0.4857  0.1724 -0.0073
    1C        C  341   4.528   3.498   2.658  0.1403 -0.1731 -0.2195
    1C        C  342   4.504   3.711   2.779  0.0596 -0.0414  0.1464
    1C        C  343   4.530   3.572   2.778  0.3888  0.0250 -0.3486
    1C        C  344   4.487   3.782   2.900 -0.3085  0.3240 -0.1202
    1C        C  345   4.507   3.713   3.022  0.3385  0.5083 -0.1263
    1C        C  346   4.426   3.913   3.141  0.0342  0.0266 -0.3096
    1C        C  347   4.483   3.783   3.142 -0.4281 -0.1704  0.1167
    1C        C  348   4.394   3.978   3.262  0.4925 -0.2628 -0.0320
    1C        C  349   4.437   3.923   3.384  0.2718  0.2174  0.2608
    1C        C  350   4.317   4.097   3.505  1.0267  0.7424 -0.1893
    1C        C  351   4.404   3.986   3.506  0.7011  0.4908  0.2309
    1C        C  352   4.265   4.151   3.625  0.8331  0.7180 -0.2658
    1C        C  353   4.317   4.106   3.748  0.4943  0.8531 -0.0750
    1C        C  354   4.168   4.254   3.871  0.4865  1.0134 -0.1485
    1C        C  355   4.275   4.162   3.870  0.1468  0.6195 -0.0908
    1C        C  356   4.112   4.302   3.991  0.9105  0.9210  0.0842
    1C        C  357   4.166   4.258   4.114  0.5971  0.6415  0.1180
    1C        C  358   4.009   4.402   4.232  0.4464  0.3210  0.0621
    1C        C  359   4.123   4.318   4.234  0.5593  0.4848  0.1787
    1C        C  360   3.954   4.445   4.354  0.1151  0.2432 -0.0643
    1C        C  361   4.020   4.421   4.477  0.0892  0.5558  0.0045
    1C        C  362   3.825   4.513   4.595  0.2452  0.2014  0.1396
    1C        C  363   3.957   4.463   4.597  0.3653  0.5361  0.1501
    1C        C  364   3.761   4.546   4.716 -0.0663 -0.7533  0.2406
    1C        C  365   3.834   4.540   4.837  0.0392 -0.5161  0.1863
    1C        C  366   3.627   4.585   4.953 -0.2382 -1.0698  0.3510
    1C        C  367   3.766   4.581   4.952 -0.1964  0.2448 -0.2225
    1C        C  368   4.502   3.565   2.055  0.3796  0.4291 -0.0906
    1C        C  369   4.530   3.490   2.171  0.4568 -0.1316 -0.4679
    1C        C  370   4.503   3.703   2.292  0.2217 -0.4897 -0.0547
    1C        C  371   4.523   3.563   2.292  0.0752 -0.5066 -0.2631
    1C        C  372   4.486   3.777   2.411  0.1441 -0.1021 -0.3108
    1C        C  373   4.494   3.705   2.533 -0.7387  0.1110 -0.1315
    1C        C  374   4.442   3.909   2.655  0.6186  0.0346  0.1139
    1C        C  375   4.490   3.777   2.655 -0.0700 -0.2110  0.0783
    1C        C  376   4.407   3.976   2.774 -0.0023  0.0239 -0.0660
    1C        C  377   4.443   3.916   2.897 -0.1365  0.3822  0.1451
    1C        C  378   4.317   4.089   3.017 -0.0689  0.6870  0.0575
    1C        C  379   4.401   3.976   3.017 -0.3230  0.5070  0.0115
    1C        C  380   4.271   4.148   3.137  0.4225  0.2453  0.4577
    1C        C  381   4.308   4.090   3.260  0.3701 -0.3585  0.1873
    1C        C  382   4.165   4.245   3.380  0.5549  0.3913 -0.4212
    1C        C  383   4.266   4.146   3.383  0.8926  0.7426 -0.1286
    1C        C  384   4.118   4.298   3.502  0.5355  0.1300 -0.3206
    1C        C  385   4.172   4.257   3.626  0.2439  0.2050 -0.1699
    1C        C  386   3.996   4.376   3.746  0.1605  0.3117 -0.1415
    1C        C  387   4.114   4.298   3.748  0.2306  0.4182 -0.2491
    1C        C  388   3.939   4.420   3.868 -0.1432 -0.6323  0.0686
    1C        C  389   4.001   4.390   3.991  0.0581 -0.1425  0.0870
    1C        C  390   3.813   4.488   4.110 -0.0010 -0.4753  0.0296
    1C        C  391   3.943   4.434   4.112  0.1476 -0.1049  0.1131
    1C        C  392   3.750   4.511   4.234 -0.1301 -0.2635 -0.0790
    1C        C  393   3.824   4.499   4.354 -0.0098 -0.0666 -0.1387
    1C        C  394   3.617   4.554   4.479  0.1676 -0.6003  0.0546
    1C        C  395   3.756   4.529   4.473  0.1754 -0.5324  0.0816
    1C        C  396   3.544   4.571   4.599  0.0648 -0.5627 -0.0188
    1C        C  397   3.621   4.565   4.717 -0.0879 -0.9422  0.0566
    1C        C  398   3.409   4.554   4.843 -0.1066  0.1204  0.0700
    1C        C  399   3.548   4.574   4.838  0.0559 -0.9383  0.1390
    1C        C  400   3.341   4.520   4.961 -0.3196  0.1752 -0.0382
    1C        C  401   4.505   3.704   2.056  0.1645  0.4313  0.1379
    1C        C  402   4.454   3.914   2.167 -0.1049  0.0007 -0.2907
    1C        C  403   4.496   3.779   2.174  0.1517  0.1118  0.3385
    1C        C  404   4.410   3.971   2.289  0.1661 -0.2205 -0.0926
    1C        C  405   4.431   3.907   2.412  0.2299 -0.0737 -0.0337
    1C        C  406   4.321   4.087   2.532  0.7814  0.0388 -0.3267
    1C        C  407   4.402   3.971   2.534  0.4428 -0.1832  0.0667
    1C        C  408   4.278   4.148   2.651  0.2526 -0.0209 -0.4960
    1C        C  409   4.321   4.089   2.772  0.3436  0.2725 -0.3916
    1C        C  410   4.168   4.236   2.892  0.0969 -0.2409  0.0133
    1C        C  411   4.276   4.144   2.893  0.5341  0.2720 -0.3274
    1C        C  412   4.106   4.275   3.013 -0.2499 -0.3370 -0.1407
    1C        C  413   4.166   4.242   3.136  0.2767  0.0789 -0.2921
    1C        C  414   3.991   4.361   3.258 -0.0485 -0.0978 -0.0699
    1C        C  415   4.115   4.294   3.257 -0.0478 -0.0858 -0.3646
    1C        C  416   3.932   4.399   3.380  0.1527  0.0732 -0.0294
    1C        C  417   3.996   4.369   3.503  0.2094 -0.4302 -0.1840
    1C        C  418   3.808   4.470   3.622 -0.1047 -0.6890 -0.3762
    1C        C  419   3.932   4.404   3.624  0.3523  0.1525 -0.2769
    1C        C  420   3.742   4.501   3.744  0.1668 -0.6726 -0.2327
    1C        C  421   3.811   4.479   3.865 -0.2806 -0.9384 -0.0266
    1C        C  422   3.608   4.537   3.991 -0.2225 -1.5305  0.2092
    1C        C  423   3.746   4.508   3.987 -0.0258 -0.5947  0.0276
    1C        C  424   3.540   4.551   4.114 -0.1181 -0.8856  0.1910
    1C        C  425   3.612   4.540   4.235 -0.1994 -0.6157  0.2606
    1C        C  426   3.403   4.551   4.358 -0.0426 -0.4668  0.5219
    1C        C  427   3.544   4.556   4.358 -0.0710  0.2736  0.2155
    1C        C  428   3.330   4.554   4.479 -0.4473 -0.1320  0.2692
    1C        C  429   3.403   4.560   4.600  0.1019 -1.0016 -0.0217
    1C        C  430   3.196   4.515   4.726 -0.0607  0.0577 -0.2131
    1C        C  431   3.335   4.546   4.723  0.0449 -0.3874  0.0106
    1C        C  432   3.124   4.495   4.847 -0.1484  0.5920 -0.1835
    1C        C  433   3.203   4.504   4.962 -0.3249  0.2346 -0.0351
    1C        C  434   4.389   4.125   2.061 -0.1018 -0.1792  0.2001
    1C        C  435   4.458   4.003   2.060  1.2529  0.5714  0.2179
    1C        C  436   4.302   4.159   2.168  0.1668  0.1217  0.3200
    1C        C  437   4.337   4.093   2.289  0.6790  0.0855  0.1481
    1C        C  438   4.172   4.233   2.406 -0.2189 -0.3959  0.0373
    1C        C  439   4.277   4.140   2.408  0.3204  0.2099 -0.0839
    1C        C  440   4.115   4.281   2.526  0.1675 -0.0338  0.0742
    1C        C  441   4.165   4.234   2.649  0.2901  0.0338  0.0429
    1C        C  442   3.995   4.360   2.768  0.1277 -0.0781  0.0645
    1C        C  443   4.114   4.283   2.771 -0.0439 -0.3357  0.0472
    1C        C  444   3.936   4.399   2.890 -0.0055 -0.0522 -0.0152
    1C        C  445   3.994   4.360   3.013  0.1754  0.2156 -0.0209
    1C        C  446   3.801   4.450   3.134 -0.1683 -0.3740 -0.0863
    1C        C  447   3.929   4.390   3.134 -0.0164 -0.0402 -0.0675
    1C        C  448   3.741   4.485   3.257  0.1901  0.5058 -0.1664
    1C        C  449   3.808   4.465   3.380  0.0870 -0.0563 -0.2023
    1C        C  450   3.606   4.534   3.501 -0.2188 -0.8882  0.1671
    1C        C  451   3.743   4.499   3.500  0.0411  0.1078 -0.2737
    1C        C  452   3.537   4.547   3.624 -0.0939 -0.6691  0.2139
    1C        C  453   3.606   4.537   3.747  0.3760  0.1153  0.0257
    1C        C  454   3.397   4.555   3.868  0.2657 -0.4661 -0.0522
    1C        C  455   3.538   4.556   3.869  0.2652 -0.5650  0.0731
    1C        C  456   3.326   4.551   3.990  0.3859 -1.1364  0.0038
    1C        C  457   3.399   4.553   4.112 -0.1207 -1.1843  0.3075
    1C        C  458   3.195   4.510   4.238  0.0351 -0.4228 -0.1871
    1C        C  459   3.333   4.543   4.236  0.0688 -0.5095  0.4645
    1C        C  460   3.129   4.490   4.361 -0.0555  0.0369 -0.1636
    1C        C  461   3.197   4.508   4.484 -0.6595  0.4715  0.1062
    1C        C  462   3.001   4.429   4.603 -0.5685  0.3534 -0.2825
    1C        C  463   3.127   4.492   4.605 -0.7891  0.7723  0.0679
    1C        C  464   2.938   4.393   4.724 -0.1735  0.1993 -0.1251
    1C        C  465   2.994   4.436   4.847 -0.0391  0.3621 -0.2457
    1C        C  466   2.797   4.341   4.958  0.1876  0.3137 -0.1920
    1C        C  467   2.902   4.432   4.957  0.2976  0.1879  0.0257
    1C        C  468   4.125   4.288   2.046  0.4423  0.3832  0.2524
    1C        C  469   4.186   4.244   2.165 -0.1461 -0.3054  0.3092
    1C        C  470   4.006   4.367   2.281 -0.2831 -0.1319 -0.1241
    1C        C  471   4.121   4.284   2.284 -0.5272 -0.4544  0.1462
    1C        C  472   3.940   4.397   2.402  0.5778 -0.0341  0.3206
    1C        C  473   3.997   4.358   2.525  0.0099 -0.2778  0.5006
    1C        C  474   3.803   4.450   2.647 -0.1519  0.1666 -0.1650
    1C        C  475   3.930   4.388   2.646 -0.3740 -0.2918  0.2888
    1C        C  476   3.739   4.480   2.770  0.1539  0.2024 -0.0155
    1C        C  477   3.810   4.463   2.890  0.3484  0.6512 -0.0695
    1C        C  478   3.605   4.523   3.013 -0.1818 -0.8593 -0.1181
    1C        C  479   3.738   4.476   3.010  0.0127 -0.3110 -0.1612
    1C        C  480   3.534   4.534   3.134  0.0249 -0.4219 -0.0371
    1C        C  481   3.604   4.520   3.256  0.0180 -0.1675 -0.0027
    1C        C  482   3.395   4.539   3.380 -0.0899 -0.6080  0.2024
    1C        C  483   3.537   4.539   3.378 -0.0884 -1.0519  0.0858
    1C        C  484   3.325   4.541   3.502 -0.3117 -0.4939  0.0735
    1C        C  485   3.396   4.553   3.623 -0.0676  0.1258 -0.1259
    1C        C  486   3.191   4.508   3.746  0.1531 -0.0762  0.0621
    1C        C  487   3.327   4.544   3.746  0.1408 -0.0279 -0.0187
    1C        C  488   3.129   4.485   3.871  0.4720 -0.6128  0.1223
    1C        C  489   3.191   4.511   3.994  0.0459 -0.0238  0.2186
    1C        C  490   3.002   4.420   4.116 -0.5602  0.3827 -0.3137
    1C        C  491   3.126   4.487   4.117 -0.5160  0.2911 -0.0137
    1C        C  492   2.941   4.387   4.238 -0.4147  0.3244 -0.2593
    1C        C  493   3.003   4.425   4.359 -0.2651  0.4581 -0.3819
    1C        C  494   2.829   4.306   4.480 -0.2339  0.2608  0.1172
    1C        C  495   2.939   4.395   4.481 -0.2532  0.2878 -0.4214
    1C        C  496   2.778   4.256   4.602 -0.5416  0.2443 -0.0200
    1C        C  497   2.821   4.312   4.724  0.0192 -0.0736 -0.0724
    1C        C  498   2.667   4.162   4.845 -0.0745  0.2219  0.1082
    1C        C  499   2.757   4.271   4.843 -0.2628  0.3727 -0.0715
    1C        C  500   2.593   4.120   4.956  0.0005  0.4004  0.2250
    1C        C  501   4.006   4.359   2.045  0.0260 -0.3121  0.2025
    1C        C  502   3.814   4.462   2.162 -0.2982 -0.0484  0.1592
    1C        C  503   3.945   4.409   2.160 -0.3017 -0.0471 -0.0833
    1C        C  504   3.741   4.472   2.283  0.2421  0.1542  0.4718
    1C        C  505   3.810   4.451   2.404  0.5708 -0.0559  0.2510
    1C        C  506   3.603   4.513   2.524 -0.2239 -0.3067 -0.3943
    1C        C  507   3.740   4.477   2.524 -0.1000  0.1749 -0.1868
    1C        C  508   3.535   4.527   2.646  0.3537 -0.2887 -0.0719
    1C        C  509   3.602   4.515   2.770  0.2133  0.4238  0.0789
    1C        C  510   3.393   4.533   2.890 -0.3128 -0.5060  0.0632
    1C        C  511   3.534   4.537   2.891 -0.3096 -0.6304 -0.0172
    1C        C  512   3.322   4.535   3.012 -0.2035  0.0055  0.1208
    1C        C  513   3.393   4.544   3.134  0.0605  0.1303 -0.0416
    1C        C  514   3.188   4.507   3.257  0.1595  0.0548 -0.0748
    1C        C  515   3.325   4.541   3.257  0.2105 -0.1496  0.0343
    1C        C  516   3.119   4.488   3.379 -0.2691 -0.0304 -0.3257
    1C        C  517   3.186   4.516   3.500 -0.4149  0.0866 -0.2713
    1C        C  518   3.001   4.416   3.627  0.2367 -0.0319 -0.1621
    1C        C  519   3.125   4.484   3.624  0.1220  0.1889  0.0244
    1C        C  520   2.944   4.379   3.750  0.2396  0.1984 -0.0890
    1C        C  521   3.003   4.421   3.872  0.3142 -0.3051  0.0520
    1C        C  522   2.836   4.290   3.995 -0.5923  0.1597  0.1972
    1C        C  523   2.943   4.381   3.993 -0.5565  0.1123 -0.2277
    1C        C  524   2.788   4.238   4.118 -0.8250  0.2889  0.1615
    1C        C  525   2.830   4.299   4.238 -0.4907  0.4228 -0.0225
    1C        C  526   2.703   4.131   4.364  0.2640 -0.0196 -0.0306
    1C        C  527   2.780   4.249   4.360  0.0300  0.1336  0.0725
    1C        C  528   2.663   4.075   4.488  0.7623 -0.3001 -0.0011
    1C        C  529   2.695   4.143   4.607 -0.1876 -0.0081  0.0869
    1C        C  530   2.588   3.957   4.729  0.0911  0.0188  0.3369
    1C        C  531   2.646   4.086   4.727  0.1436 -0.0085  0.2187
    1C        C  532   2.541   3.900   4.851  0.1340 -0.0398  0.3252
    1C        C  533   2.532   3.994   4.958 -0.2437  0.5084 -0.1790
    1C        C  534   3.618   4.551   2.042 -0.1293  0.1398 -0.0342
    1C        C  535   3.754   4.517   2.049 -0.1585  0.0556  0.1363
    1C        C  536   3.536   4.537   2.158 -0.1707 -0.6175 -0.1453
    1C        C  537   3.603   4.507   2.280  0.0507 -0.6314 -0.2704
    1C        C  538   3.391   4.513   2.402 -0.1608 -0.5825  0.1943
    1C        C  539   3.533   4.517   2.402 -0.1673 -0.3032 -0.4254
    1C        C  540   3.322   4.518   2.525 -0.1897  0.5420  0.1466
    1C        C  541   3.394   4.530   2.645  0.3575 -0.1402 -0.1066
    1C        C  542   3.188   4.484   2.768  0.0797  0.1478 -0.0108
    1C        C  543   3.323   4.523   2.768  0.1300 -0.0296 -0.2310
    1C        C  544   3.121   4.468   2.891 -0.2313  0.1280 -0.1825
    1C        C  545   3.186   4.496   3.013 -0.3590  0.5368 -0.2080
    1C        C  546   2.996   4.410   3.137  0.1225  0.0553  0.0801
    1C        C  547   3.121   4.477   3.136  0.0332  0.2248 -0.0485
    1C        C  548   2.941   4.372   3.261  0.0481  0.2110  0.0970
    1C        C  549   2.997   4.418   3.382 -0.3674  0.1569  0.3138
    1C        C  550   2.836   4.284   3.508 -0.2850 -0.2793  0.2170
    1C        C  551   2.942   4.376   3.505 -0.5752  0.0592  0.1917
    1C        C  552   2.791   4.233   3.632 -0.1224  0.1964  0.4752
    1C        C  553   2.836   4.288   3.754 -0.0803  0.5876  0.2855
    1C        C  554   2.705   4.120   3.875 -0.3495  0.2879 -0.1319
    1C        C  555   2.784   4.237   3.875 -0.3792  0.3093  0.0398
    1C        C  556   2.670   4.063   4.000 -0.7015  0.4094 -0.1748
    1C        C  557   2.704   4.125   4.122 -0.0462 -0.3035  0.0098
    1C        C  558   2.600   3.943   4.246  0.3498 -0.2371  0.0948
    1C        C  559   2.659   4.071   4.244 -0.0894 -0.0363  0.1098
    1C        C  560   2.577   3.878   4.369  0.6431 -0.3640  0.0792
    1C        C  561   2.596   3.951   4.488  0.4230 -0.1122 -0.0436
    1C        C  562   2.536   3.747   4.615  0.5594  0.2095  0.2293
    1C        C  563   2.566   3.885   4.610  0.4657  0.2246  0.1466
    1C        C  564   2.518   3.678   4.736 -0.8869 -0.2508 -0.2261
    1C        C  565   2.518   3.759   4.854 -0.8418  0.0917 -0.4604
    1C        C  566   2.522   3.546   4.980 -0.4334  0.3780 -0.6379
    1C        C  567   2.521   3.684   4.972 -0.1571  0.3999 -0.2817
    1C        C  568   3.331   4.467   2.042  0.1647  0.0406  0.0110
    1C        C  569   3.397   4.512   2.158 -0.2564 -0.1740  0.3366
    1C        C  570   3.184   4.474   2.281 -0.4317 -0.1510 -0.1706
    1C        C  571   3.323   4.506   2.279 -0.3100 -0.6304  0.2815
    1C        C  572   3.116   4.457   2.404 -0.1462  0.2141  0.0383
    1C        C  573   3.185   4.482   2.524 -0.0512  0.0061  0.0263
    1C        C  574   2.991   4.401   2.650 -0.0866  0.1358 -0.0587
    1C        C  575   3.119   4.460   2.647  0.1047 -0.2726  0.0587
    1C        C  576   2.933   4.364   2.773 -0.0189  0.0588 -0.0494
    1C        C  577   2.992   4.408   2.893 -0.1725  0.0071  0.0466
    1C        C  578   2.830   4.276   3.016 -0.5251  0.6366 -0.1631
    1C        C  579   2.935   4.370   3.016 -0.0154  0.0742  0.1419
    1C        C  580   2.784   4.231   3.141 -0.2979  0.2715 -0.2064
    1C        C  581   2.836   4.278   3.264  0.2158  0.0036 -0.3173
    1C        C  582   2.708   4.112   3.385  0.0447  0.3620 -0.5222
    1C        C  583   2.788   4.228   3.388  0.1811  0.2641 -0.2244
    1C        C  584   2.672   4.056   3.510  0.4620  0.3566 -0.4023
    1C        C  585   2.714   4.115   3.631 -0.2201  0.2636 -0.1154
    1C        C  586   2.608   3.932   3.757  0.5195 -0.1743 -0.2812
    1C        C  587   2.673   4.057   3.753 -0.1628  0.1883 -0.1306
    1C        C  588   2.581   3.869   3.880  0.4858 -0.0279 -0.2135
    1C        C  589   2.610   3.936   4.000  0.7931 -0.3165 -0.1264
    1C        C  590   2.555   3.735   4.127 -0.1377  0.1217  0.0881
    1C        C  591   2.588   3.872   4.125  0.2016  0.0352 -0.0481
    1C        C  592   2.538   3.667   4.250 -0.1881 -0.2495 -0.1256
    1C        C  593   2.542   3.741   4.370  0.3533 -0.2904 -0.1184
    1C        C  594   2.522   3.534   4.496  0.2954  0.3170  0.2360
    1C        C  595   2.527   3.675   4.494  0.2388  0.3162  0.1909
    1C        C  596   2.520   3.464   4.619 -0.0447  0.0312  0.0696
    1C        C  597   2.510   3.536   4.740 -0.6473 -0.2545  0.1900
    1C        C  598   2.537   3.328   4.865  0.2295 -0.4764  0.1297
    1C        C  599   2.527   3.469   4.863  0.4463 -0.4654 -0.0647
    1C        C  600   2.530   3.249   4.981  0.6527  0.1731  0.6054
    1C        C  601   3.198   4.432   2.046  0.1645  0.0418  0.0045
    1C        C  602   2.982   4.394   2.160 -0.1385 -0.3614 -0.0544
    1C        C  603   3.118   4.440   2.160 -0.2940  0.1031 -0.3176
    1C        C  604   2.930   4.352   2.286  0.1557 -0.8322 -0.0873
    1C        C  605   2.990   4.394   2.407  0.0925 -0.2733 -0.2438
    1C        C  606   2.822   4.271   2.533 -0.2209  0.3622  0.1807
    1C        C  607   2.926   4.367   2.529  0.2052 -0.1090 -0.1485
    1C        C  608   2.780   4.215   2.656 -0.4489  0.3988  0.1201
    1C        C  609   2.822   4.277   2.775 -0.1530  0.2303  0.1028
    1C        C  610   2.691   4.110   2.900 -0.3677  0.2075  0.1718
    1C        C  611   2.772   4.226   2.897 -0.5676  0.3431 -0.0196
    1C        C  612   2.662   4.053   3.025 -0.5453  0.6022  0.3102
    1C        C  613   2.699   4.119   3.145 -0.2087  0.2194  0.4201
    1C        C  614   2.606   3.925   3.271 -0.8377 -0.2204  0.0253
    1C        C  615   2.661   4.055   3.265 -0.5066 -0.3585  0.0257
    1C        C  616   2.572   3.865   3.394 -0.4381  0.0146  0.2529
    1C        C  617   2.599   3.935   3.514  0.5158  0.3318 -0.1381
    1C        C  618   2.533   3.733   3.639  0.1251  0.1853  0.1639
    1C        C  619   2.573   3.868   3.636 -0.1609  0.2617 -0.3185
    1C        C  620   2.524   3.664   3.762  0.3960  0.0090  0.0842
    1C        C  621   2.548   3.731   3.883  0.7215 -0.0759  0.0667
    1C        C  622   2.518   3.524   4.010  0.0138  0.0792  0.0992
    1C        C  623   2.542   3.663   4.007  0.4204  0.0090  0.0979
    1C        C  624   2.510   3.454   4.132  0.2088  0.0635  0.1023
    1C        C  625   2.517   3.527   4.252  0.4077 -0.3376  0.3374
    1C        C  626   2.541   3.319   4.380 -0.0941 -0.1443 -0.0208
    1C        C  627   2.523   3.459   4.376  0.2233 -0.0863  0.4848
    1C        C  628   2.558   3.252   4.503  0.4162 -0.0618 -0.0454
    1C        C  629   2.538   3.324   4.623 -0.1666  0.0093 -0.1833
    1C        C  630   2.608   3.123   4.749 -0.0785 -0.0012  0.0249
    1C        C  631   2.560   3.258   4.745 -0.3240 -0.0926 -0.2096
    1C        C  632   2.625   3.049   4.869  0.2686  0.0579  0.0137
    1C        C  633   2.567   3.114   4.982 -0.0367 -0.0308 -0.0906
    1C        C  634   2.783   4.298   2.055  0.1177 -0.5715 -0.2828
    1C        C  635   2.891   4.386   2.050 -0.0526 -0.3537 -0.1245
    1C        C  636   2.750   4.229   2.172 -0.1414 -0.1520 -0.1094
    1C        C  637   2.814   4.271   2.291 -0.2255 -0.2895 -0.0157
    1C        C  638   2.682   4.109   2.414 -0.6020  0.2942 -0.1236
    1C        C  639   2.762   4.225   2.414  0.2506 -0.2858  0.1896
    1C        C  640   2.646   4.045   2.535 -0.4979  0.2959 -0.0931
    1C        C  641   2.693   4.104   2.655 -0.6816  0.5822 -0.1627
    1C        C  642   2.597   3.919   2.779 -0.1815  0.5634 -0.1035
    1C        C  643   2.652   4.050   2.778 -0.4183  0.6631 -0.0397
    1C        C  644   2.581   3.856   2.904 -0.5992  0.3408 -0.2703
    1C        C  645   2.606   3.923   3.026 -0.4773  0.5676 -0.4206
    1C        C  646   2.545   3.722   3.152 -0.6404  0.5714  0.0851
    1C        C  647   2.583   3.858   3.149 -0.5501  0.5356 -0.4505
    1C        C  648   2.533   3.656   3.276  0.2031  0.1680 -0.0397
    1C        C  649   2.541   3.727   3.398 -0.3108 -0.0184  0.1096
    1C        C  650   2.512   3.518   3.522  0.3500  0.0669 -0.5326
    1C        C  651   2.519   3.659   3.519 -0.0513  0.1092  0.2293
    1C        C  652   2.513   3.449   3.645  0.4904  0.5598 -0.2542
    1C        C  653   2.513   3.523   3.766  0.8715 -0.0301  0.1142
    1C        C  654   2.534   3.313   3.890  0.7962 -0.0206 -0.1279
    1C        C  655   2.515   3.453   3.888  0.8640 -0.0094  0.1251
    1C        C  656   2.555   3.248   4.014  0.9110  0.5016  0.1252
    1C        C  657   2.528   3.314   4.136  0.0471  0.0459  0.1881
    1C        C  658   2.606   3.118   4.262 -0.1155 -0.2667 -0.1439
    1C        C  659   2.554   3.249   4.258 -0.2834 -0.3265  0.0630
    1C        C  660   2.635   3.055   4.385 -0.3526 -0.0757  0.0113
    1C        C  661   2.605   3.119   4.507 -0.2187 -0.2853  0.1561
    1C        C  662   2.711   2.936   4.627  0.5437  0.1567 -0.0640
    1C        C  663   2.632   3.053   4.629  0.0337 -0.1863  0.1546
    1C        C  664   2.749   2.874   4.748 -0.0531  0.1298  0.1130
    1C        C  665   2.699   2.927   4.870 -0.1942 -0.2247  0.2131
    1C        C  666   2.751   2.874   4.989  0.4385 -0.2820 -0.0844
    1C        C  667   2.681   4.023   2.058  0.3921 -0.7046  0.0776
    1C        C  668   2.692   4.101   2.174 -0.3258 -0.0703 -0.2708
    1C        C  669   2.595   3.910   2.297  0.2094  0.0020  0.0896
    1C        C  670   2.648   4.041   2.295 -0.4596  0.2724 -0.1499
    1C        C  671   2.558   3.846   2.418 -0.1046 -0.0671 -0.0432
    1C        C  672   2.591   3.915   2.536  0.1645  0.0110 -0.1654
    1C        C  673   2.524   3.717   2.663  0.0662  0.2848  0.2659
    1C        C  674   2.567   3.851   2.660  0.4281  0.1621 -0.0352
    1C        C  675   2.522   3.647   2.786  0.6327  0.1280  0.1857
    1C        C  676   2.548   3.718   2.905 -0.4315  0.3027  0.3237
    1C        C  677   2.525   3.512   3.033  0.7596  0.0726  0.1156
    1C        C  678   2.539   3.652   3.030  0.1901  0.1351  0.2846
    1C        C  679   2.519   3.442   3.156  0.4190 -0.1355 -0.0195
    1C        C  680   2.516   3.516   3.276 -0.0502  0.1968 -0.2317
    1C        C  681   2.534   3.308   3.400  0.8143 -0.0852  0.0064
    1C        C  682   2.519   3.448   3.400  0.3025 -0.1350 -0.4202
    1C        C  683   2.549   3.240   3.523  0.9506  0.3427  0.2244
    1C        C  684   2.539   3.310   3.646  0.6744  0.5947  0.0578
    1C        C  685   2.605   3.111   3.771 -0.0546 -0.1523 -0.0343
    1C        C  686   2.557   3.244   3.769  0.4309  0.0216 -0.2179
    1C        C  687   2.642   3.054   3.895 -0.0280  0.0443  0.0462
    1C        C  688   2.610   3.118   4.017  0.0449  0.1230  0.0210
    1C        C  689   2.715   2.937   4.141 -0.1028 -0.3622 -0.1837
    1C        C  690   2.636   3.054   4.140  0.3290 -0.0662 -0.1391
    1C        C  691   2.765   2.886   4.263 -0.2201 -0.0863 -0.0209
    1C        C  692   2.716   2.940   4.384 -0.3796 -0.0944 -0.0794
    1C        C  693   2.758   2.881   4.506  0.2936  0.1786 -0.1739
    1C        C  694   2.629   3.893   2.059 -0.0164 -0.5456 -0.1521
    1C        C  695   2.525   3.706   2.178  0.4555 -0.2028  0.2330
    1C        C  696   2.583   3.835   2.178  0.2380 -0.1088  0.1579
    1C        C  697   2.506   3.638   2.300  0.1906  0.1034  0.3612
    1C        C  698   2.517   3.711   2.420  0.2268 -0.1578  0.5130
    1C        C  699   2.506   3.502   2.547  0.4832 -0.0986  0.0541
    1C        C  700   2.508   3.643   2.544 -0.1713 -0.0793  0.5238
    1C        C  701   2.512   3.433   2.670  0.0483 -0.2250  0.0039
    1C        C  702   2.516   3.506   2.791  0.1211  0.1356 -0.2166
    1C        C  703   2.533   3.297   2.914 -0.0993  0.2952 -0.0200
    1C        C  704   2.518   3.437   2.914  0.7064  0.3894 -0.0795
    1C        C  705   2.541   3.227   3.037  0.5941  0.2231 -0.0998
    1C        C  706   2.534   3.301   3.157  1.4342 -0.0358  0.1157
    1C        C  707   2.602   3.104   3.284  0.6995 -0.2685 -0.0549
    1C        C  708   2.549   3.235   3.280  0.7525 -0.2434  0.0942
    1C        C  709   2.635   3.043   3.406  0.1435 -0.4814 -0.0096
    1C        C  710   2.604   3.110   3.527  0.6385  0.1959 -0.2567
    1C        C  711   2.717   2.932   3.651 -0.0218 -0.0113  0.1380
    1C        C  712   2.637   3.048   3.649  0.5152  0.3534 -0.1453
    1C        C  713   2.758   2.877   3.775  0.1264  0.4723  0.3048
    1C        C  714   2.721   2.938   3.897  0.4635  0.3837  0.4474
    1C        C  715   2.758   2.878   4.020  0.1167 -0.6788  0.0476
    1C        C  716   2.449   3.500   2.067  0.3737 -0.3101 -0.2312
    1C        C  717   2.496   3.632   2.063  0.6626 -0.3938  0.3028
    1C        C  718   2.470   3.422   2.185  0.7133  0.1325 -0.0003
    1C        C  719   2.486   3.497   2.305  0.4133  0.0637  0.0778
    1C        C  720   2.527   3.290   2.432  0.1009 -0.0332 -0.1335
    1C        C  721   2.496   3.428   2.427  0.0891 -0.0334  0.0477
    1C        C  722   2.547   3.220   2.553  0.3928  0.1970 -0.0494
    1C        C  723   2.537   3.294   2.672  0.4455 -0.1525  0.1725
    1C        C  724   2.589   3.089   2.797 -0.2923 -0.2219  0.0321
    1C        C  725   2.552   3.225   2.794  0.4790 -0.0063  0.2497
    1C        C  726   2.615   3.025   2.920 -0.3522 -0.5427 -0.1212
    1C        C  727   2.592   3.096   3.040  0.0235 -0.0096 -0.3652
    1C        C  728   2.702   2.916   3.163  0.1236  0.0544  0.0086
    1C        C  729   2.631   3.038   3.162 -0.0523 -0.0473 -0.3586
    1C        C  730   2.748   2.863   3.285 -0.4426 -0.5002 -0.0162
    1C        C  731   2.703   2.919   3.406 -0.3411 -0.7474  0.1364
    1C        C  732   2.751   2.869   3.529 -0.4182 -0.4859  0.2716
    1C        C  733   2.486   3.196   2.077 -0.3434  0.3627 -0.3993
    1C        C  734   2.494   3.281   2.187  0.3086  0.0653 -0.2125
    1C        C  735   2.579   3.085   2.310  0.1087  0.0340  0.4101
    1C        C  736   2.531   3.219   2.310  0.1380  0.0436 -0.1735
    1C        C  737   2.613   3.017   2.429 -0.2971 -0.2429  0.3678
    1C        C  738   2.588   3.085   2.550  0.3934  0.1918  0.2729
    1C        C  739   2.691   2.904   2.674  0.6328  0.2010 -0.2525
    1C        C  740   2.615   3.023   2.674 -0.4592 -0.4790  0.1329
    1C        C  741   2.738   2.854   2.797 -0.1584  0.3242  0.1117
    1C        C  742   2.688   2.904   2.919 -0.0476 -0.3631  0.4476
    1C        C  743   2.737   2.852   3.041 -0.2573 -0.8051  0.3450
    1C        C  744   2.539   3.067   2.079 -0.4267  0.3398  0.4018
    1C        C  745   2.692   2.903   2.187  0.0840  0.5116 -0.0925
    1C        C  746   2.609   3.017   2.190  0.3103  0.6720  0.0937
    1C        C  747   2.734   2.844   2.308 -0.0217  0.1458 -0.2314
    1C        C  748   2.692   2.901   2.430 -0.0831 -0.1068 -0.1342
    1C        C  749   2.737   2.848   2.553  0.8546  0.3807 -0.2543
    1C        C  750   2.750   2.850   2.071 -0.1992 -0.1224  0.0496
    1C        C  751   3.669   2.336   1.970 -0.1875  0.0507 -0.0912
    1C        O  752   3.708   2.219   1.993  0.1561  0.0922 -0.4688
    1C        O  753   3.699   2.388   1.844 -0.0962  0.4616  0.0982
    1C        C  754   4.617   3.060   1.966 -0.1508 -0.5575  0.2459
    1C        O  755   4.601   3.070   1.842 -0.0592 -0.1882  0.2638
    1C        O  756   4.748   3.025   1.999  0.2484  0.4211 -0.2752
    1C        C  757   4.440   4.236   1.976 -0.4480 -0.0045  0.2243
    1C        O  758   4.531   4.313   2.016 -0.0356 -0.6202  0.4956
    1C        O  759   4.388   4.243   1.846 -0.1871 -0.0724  0.1169
    1C        C  760   3.580   4.635   1.926 -0.0210  0.1113 -0.0926
    1C        O  761   3.562   4.759   1.940 -0.3961  0.1362 -0.7190
    1C        O  762   3.592   4.598   1.792 -0.6120  0.5519 -0.2725
    1C        C  763   2.855   4.504   1.968 -0.5262 -0.4839 -0.1057
    1C        O  764   2.907   4.505   1.853  0.4626 -0.5479  0.3301
    1C        O  765   2.785   4.618   2.008  0.2710 -0.0473  0.0733
    1C        C  766   2.332   3.484   1.977  0.2950 -0.1720 -0.1537
    1C        O  767   2.350   3.489   1.853 -0.0969 -0.0442 -0.2037
    1C        O  768   2.205   3.523   2.021  0.1736 -0.3862 -0.3176
    1C        C  769   4.707   3.594   5.038 -0.0747  0.2583  0.0871
    1C        O  770   4.706   3.569   5.162 -0.7297 -0.8142 -0.1240
    1C        O  771   4.825   3.647   4.985 -0.1544  0.4338  0.0858
    1C        C  772   4.267   4.464   5.037 -0.0920 -0.7362 -0.2959
    1C        O  773   4.302   4.403   5.142  0.0668 -0.4579 -0.1893
    1C        O  774   4.379   4.538   4.998 -0.3669 -0.2157 -0.0924
    1C        C  775   4.147   2.505   5.068  0.3210 -0.0859 -0.1260
    1C        O  776   4.175   2.541   5.185 -0.0969 -0.2052  0.0125
    1C        O  777   4.144   2.366   5.048  0.7029 -0.1456  0.2192
    1C        C  778   2.891   4.538   5.061  0.2347  0.1116  0.0945
    1C        O  779   2.806   4.631   5.054  0.0350 -0.0869 -0.1130
    1C        O  780   2.912   4.506   5.195  0.1750 -0.0429  0.0662
    1C        C  781   2.480   3.041   5.077 -0.1436  0.1351 -0.0591
    1C        O  782   2.395   2.957   5.037 -0.0160 -0.1121  0.1867
    1C        O  783   2.468   3.058   5.215  0.4792 -0.4378  0.0718
    1C        C  784   2.411   3.994   5.044 -0.1251 -0.0089 -0.0041
    1C        O  785   2.298   3.999   4.989 -0.1340  0.0905  0.0230
    1C        O  786   2.400   3.965   5.181 -0.1350  0.1549  0.0310
    1C        C  787   2.952   2.414   2.019  0.2075 -0.0691 -0.3032
    1C        O  788   2.938   2.422   1.894  0.0393 -0.5109 -0.3148
    1C        O  789   2.950   2.282   2.062 -0.0861  0.3114  0.9027
    1C        C  790   3.197   2.389   5.082  0.0058 -0.0094  0.2006
    1C        O  791   3.196   2.267   5.052 -0.2177  0.1591 -0.5119
    1C        O  792   3.167   2.404   5.218 -0.6609  0.2388  0.0309
    1C        H  793   4.256   3.043   5.041 -1.6184  0.4274 -1.6286
    1C        H  794   4.179   2.809   5.074 -0.0593  0.2162  0.4107
    1C        H  795   4.501   3.130   5.058 -0.5646  0.1224  0.1071
    1C        H  796   4.565   3.358   5.056 -0.6990  0.9652 -0.6573
    1C        H  797   4.607   3.820   5.020 -1.4103  1.2306  1.6416
    1C        H  798   4.412   3.967   5.052 -1.5647  0.5516  0.3631
    1C        H  799   4.248   4.139   5.043 -0.7044 -0.6278 -0.4823
    1C        H  800   4.050   4.567   5.010 -0.3663  0.1998  1.3456
    1C        H  801   3.819   4.640   5.025  0.3718  1.0766 -1.2821
    1C        H  802   3.577   4.593   5.047 -1.9982  0.3546 -0.6479
    1C        H  803   3.395   4.458   5.030 -0.0680  0.3972 -0.0325
    1C        H  804   3.153   4.548   5.046  0.6219 -0.5778  0.9881
    1C        H  805   3.897   2.453   5.047 -1.3097  1.0101  0.9918
    1C        H  806   3.683   2.473   5.080  0.4025  0.8518  0.1921
    1C        H  807   2.992   2.533   5.047  0.4454  1.6213  1.2985
    1C        H  808   3.447   2.435   5.073  0.6986  0.5098  1.0332
    1C        H  809   2.836   2.703   5.070  2.6918  0.7553  1.7661
    1C        H  810   2.726   2.919   5.083  0.2844 -0.3379 -0.0984
    1C        H  811   2.494   3.297   5.070 -0.5602  0.2708  0.0896
    1C        H  812   2.571   3.506   5.066 -0.7015  0.3781 -0.4853
    1C        H  813   2.522   3.739   5.065 -0.1014  0.0233 -0.0569
    1C        H  814   2.543   4.200   5.005  1.6869  1.4514  0.3251
    1C        H  815   2.729   4.346   5.041  0.8833 -0.4973  0.4536
    1C        H  816   2.718   2.887   1.976 -0.2937 -0.3822 -0.0191
    1C        H  817   2.851   2.691   1.979  0.4972  1.5714 -0.7649
    1C        H  818   3.191   2.380   2.027 -1.3373 -1.2672  1.0075
    1C        H  819   3.429   2.442   1.978 -0.1373 -2.8441  0.0480
    1C        H  820   3.834   2.579   1.984 -0.0524 -1.7444 -0.4776
    1C        H  821   4.065   2.631   1.970 -0.0955  3.5364  0.9045
    1C        H  822   4.297   2.679   2.011  1.7952  0.3817 -0.2945
    1C        H  823   4.337   2.938   1.979 -0.7787 -1.4482 -0.6480
    1C        H  824   4.629   3.303   1.995  1.4552 -1.2484  0.2318
    1C        H  825   4.459   3.514   1.972 -0.0964 -0.4178  0.6486
    1C        H  826   4.538   3.750   1.965 -3.0175 -0.0091 -1.3844
    1C        H  827   3.817   4.562   1.974 -1.0000 -1.0759 -1.3015
    1C        H  828   3.935   4.337   1.967 -0.4260  0.6985  0.3111
    1C        H  829   4.156   4.244   1.953  0.7006  2.1997 -0.5516
    1C        H  830   4.461   3.957   1.963 -0.3435  0.4450  0.2087
    1C        H  831   2.641   3.833   1.971  0.4967 -0.7987  0.0852
    1C        H  832   2.699   4.067   1.963 -0.2053 -1.2855 -0.3206
    1C        H  833   2.703   4.308   1.985 -0.8498  0.0792  0.8854
    1C        H  834   3.385   4.450   1.951  0.0561  2.2724 -0.5294
    1C        H  835   3.146   4.398   1.958 -1.7077 -1.8679  1.7174
    1C        H  836   2.486   2.992   2.024 -0.1222 -0.6299  1.4009
    1C        H  837   2.410   3.211   2.003 -0.6550 -1.3225 -0.4615
    1C        H  838   2.457   3.689   1.981 -0.6666 -0.6464  0.7315
    2V3OU   H29  839   2.817   3.545   1.577 -1.3880  0.0164 -1.3702
    2V3OU   C27  840   2.791   3.501   1.676  0.3152  1.1704 -0.3553
    2V3OU   H27  841   2.722   3.561   1.740 -0.4278 -1.5259  1.5835
    2V3OU   H28  842   2.740   3.401   1.668 -1.0426  1.5819  2.0629
    2V3OU   O11  843   2.912   3.477   1.748 -0.2761  0.0780  0.3206
    2V3OU   C15  844   2.922   3.406   1.865  0.2065 -0.4637 -0.0427
    2V3OU   C13  845   3.052   3.381   1.915  0.1865 -0.2321  0.1316
    2V3OU   C14  846   3.080   3.272   1.999 -0.2685 -0.1237  0.4294
    2V3OU   C16  847   2.978   3.191   2.046 -0.6234  0.2636  0.3367
    2V3OU    H6  848   2.990   3.104   2.113 -0.0009 -0.9102 -1.2520
    2V3OU   C12  849   3.217   3.225   2.030 -0.2784 -0.5338 -0.1263
    2V3OU    O2  850   3.246   3.118   2.087  0.3937  0.0542  0.6482
    2V3OU   C10  851   3.326   3.311   1.982 -0.5348  0.0550  0.3329
    2V3OU    C8  852   3.458   3.276   2.010 -0.5112  0.0944  0.2715
    2V3OU   O10  853   3.495   3.165   2.079  0.2296 -0.2683 -0.6809
    2V3OU   H26  854   3.410   3.120   2.094  0.2480 -0.0294  0.2333
    2V3OU    C6  855   3.569   3.352   1.963 -0.1812 -0.1460  0.6605
    2V3OU    C5  856   3.542   3.472   1.899 -0.2993 -0.3130  0.3955
    2V3OU    C4  857   3.708   3.298   1.959 -0.1225  0.0718 -0.5999
    2V3OU    H4  858   3.722   3.235   2.052  0.2229  0.3088 -0.4904
    2V3OU    H5  859   3.724   3.230   1.870  0.2639  0.1994 -0.6327
    2V3OU    C2  860   3.820   3.403   1.960 -0.0211 -0.0399 -0.2366
    2V3OU    O6  861   3.811   3.467   2.088  0.7224  0.3470 -0.3774
    2V3OU   H21  862   3.772   3.555   2.071 -1.7343  0.3205  3.7475
    2V3OU    C3  863   3.789   3.499   1.845 -0.1587  0.6159  0.3402
    2V3OU    H2  864   3.864   3.583   1.845 -2.3320  2.6538  1.1346
    2V3OU    H3  865   3.785   3.445   1.747  0.6197  0.1003  0.5787
    2V3OU   C25  866   3.952   3.334   1.928 -0.2137 -0.7386  0.4015
    2V3OU    O7  867   3.990   3.307   1.814  0.1654  0.7170  0.1514
    2V3OU   C26  868   4.038   3.288   2.044  0.3297 -0.4439  0.1235
    2V3OU   H22  869   4.075   3.380   2.094 -1.3387 -0.6218  1.7897
    2V3OU   H23  870   4.127   3.231   2.006  0.4661 -0.1132 -0.0549
    2V3OU    O8  871   3.960   3.217   2.138 -0.1314  0.1829  0.2185
    2V3OU   H24  872   3.937   3.290   2.198 -0.8796 -0.8936  1.2793
    2V3OU    C1  873   3.655   3.566   1.871 -0.6029 -0.0879 -0.1032
    2V3OU    H1  874   3.629   3.624   1.778  0.0125 -0.3431 -0.4461
    2V3OU    O3  875   3.663   3.657   1.981 -0.3767 -0.0436 -0.1562
    2V3OU   C19  876   3.618   3.793   1.979 -0.0276  0.0689 -0.5528
    2V3OU    H9  877   3.523   3.801   1.918 -1.3886  0.6568  1.5672
    2V3OU    O4  878   3.713   3.850   1.891  0.2395 -0.3061 -0.5088
    2V3OU   C20  879   3.845   3.882   1.933 -0.1888  0.5620  0.2027
    2V3OU   H10  880   3.898   3.783   1.943  0.6122  1.0269  0.6867
    2V3OU   C24  881   3.611   3.857   2.117  0.2838 -0.1242 -0.4471
    2V3OU   H16  882   3.539   3.795   2.177  0.7526 -0.8710 -0.6493
    2V3OU   H17  883   3.564   3.957   2.097  1.2553  0.3843 -0.2406
    2V3OU   C23  884   3.754   3.879   2.167 -0.0504 -0.1009  0.5276
    2V3OU   H15  885   3.796   3.775   2.188 -2.3077 -1.4699 -1.2665
    2V3OU    N1  886   3.740   3.960   2.287 -0.2007 -0.2942  0.6416
    2V3OU   H19  887   3.813   3.916   2.339  1.2531  0.2597 -0.8304
    2V3OU   H20  888   3.654   3.929   2.326 -1.4931 -0.0930 -1.8341
    2V3OU   C21  889   3.851   3.952   2.069 -0.5281  0.3058  0.3499
    2V3OU   H11  890   3.956   3.939   2.109 -0.0948  4.1158  0.7981
    2V3OU    O5  891   3.820   4.090   2.076 -0.1302  0.3889  0.5154
    2V3OU   H18  892   3.783   4.104   2.165 -0.3584  1.6983  0.2407
    2V3OU   C22  893   3.913   3.949   1.814  0.2270 -0.3568 -0.0846
    2V3OU   H12  894   3.855   4.041   1.788 -3.2010 -2.4355 -0.3760
    2V3OU   H13  895   3.898   3.883   1.725 -2.6932 -0.4172  0.3488
    2V3OU   H14  896   4.021   3.969   1.839  0.3442 -1.6609  0.5367
    2V3OU   C11  897   3.160   3.477   1.890 -0.3429  0.4021  0.2323
    2V3OU    O1  898   3.133   3.595   1.860 -0.4556  0.3798  0.2435
    2V3OU    C9  899   3.300   3.434   1.916 -0.4425 -0.2531 -0.2817
    2V3OU    C7  900   3.407   3.514   1.878 -0.2551 -0.5946 -0.4830
    2V3OU    O9  901   3.384   3.623   1.796 -0.2121 -0.1075  0.1436
    2V3OU   H25  902   3.288   3.635   1.791 -0.2958 -0.9921 -0.8165
    2V3OU   C17  903   2.819   3.323   1.914 -0.4443  0.3279 -0.0588
    2V3OU    H7  904   2.714   3.338   1.887 -0.7972 -1.3716  0.2633
    2V3OU   C18  905   2.850   3.217   1.999 -0.5617  0.6338  0.3724
    2V3OU    H8  906   2.778   3.134   2.007  2.0379 -1.5607  2.8559
    3SOL     OW  907   1.075   1.195   6.461 -0.0182 -0.0519 -0.0605
    3SOL    HW1  908   1.156   1.165   6.510  0.4381  1.0436 -0.1097
    3SOL    HW2  909   0.993   1.170   6.513  0.3116 -1.4966 -0.1987
    4SOL     OW  910   1.284   5.988   0.453  0.0442 -0.0357 -0.1677
    4SOL    HW1  911   1.356   6.028   0.510 -0.8877 -1.2798  2.0050
    4SOL    HW2  912   1.200   5.980   0.506 -0.8442 -1.4115 -1.6860
    5SOL     OW  913   1.124   4.300   2.249  0.1681  0.2326 -0.3946
    5SOL    HW1  914   1.150   4.397   2.245 -0.0301  0.2758 -4.3082
    5SOL    HW2  915   1.205   4.245   2.269  1.1777  0.9912 -2.2087
    6SOL     OW  916   6.773   5.237   5.776 -0.0838 -0.6678  0.3620
    6SOL    HW1  917   6.803   5.306   5.842  1.3670 -0.6074 -0.3395
    6SOL    HW2  918   6.682   5.261   5.743  0.6552  1.3150 -0.3737
    7SOL     OW  919   3.937   0.544   0.088  0.6992 -0.0109  0.3062
    7SOL    HW1  920   3.947   0.462   0.144  1.9055 -0.9965 -1.2738
    7SOL    HW2  921   4.009   0.609   0.110 -0.8082  1.1080  2.2357
    8SOL     OW  922   5.008   0.300   0.359 -0.2120 -0.4974 -0.4922
    8SOL    HW1  923   5.000   0.206   0.326 -0.1701 -0.3571 -0.9146
    8SOL    HW2  924   5.094   0.339   0.328 -0.0608 -0.4387 -0.0023
    9SOL     OW  925   1.722   6.826   1.518  0.2620 -0.1731  0.6240
    9SOL    HW1  926   1.700   6.732   1.492 -0.4151  0.6756 -2.2615
    9SOL    HW2  927   1.637   6.874   1.544  0.4352 -0.0187  0.9174
   10SOL     OW  928   0.731   2.028   6.284  0.0758 -0.6197  0.0249
   10SOL    HW1  929   0.718   2.044   6.187  1.6633  0.3270 -0.0817
   10SOL    HW2  930   0.718   2.114   6.334  0.0888 -0.9162  0.5523
   11SOL     OW  931   5.871   1.641   3.482 -0.4064  0.6875  1.0378
   11SOL    HW1  932   5.906   1.554   3.517 -1.9188 -0.4146 -0.0716
   11SOL    HW2  933   5.773   1.633   3.462 -0.8926  3.0173  2.0185
   12SOL     OW  934   5.478   0.600   0.854 -0.6711 -0.3498  0.1307
   12SOL    HW1  935   5.469   0.674   0.788 -0.9983 -0.8349 -0.3790
   12SOL    HW2  936   5.461   0.636   0.946  0.0894  0.3910 -0.0002
   13SOL     OW  937   4.391   1.479   2.652 -0.3326 -0.3013 -0.1537
   13SOL    HW1  938   4.406   1.572   2.616 -0.8408 -0.6479 -1.3270
   13SOL    HW2  939   4.318   1.435   2.599  0.5617 -1.7163 -0.2458
   14SOL     OW  940   0.022   4.724   7.022  0.2046  0.1169  0.2502
   14SOL    HW1  941   0.075   4.694   7.101  0.3683  1.3152  0.6213
   14SOL    HW2  942   0.009   4.647   6.959  1.4352 -0.4694  0.6770
   15SOL     OW  943   2.997   2.681   1.126 -0.3401 -0.1812  0.1332
   15SOL    HW1  944   3.035   2.765   1.164 -0.2900 -0.1965  0.1167
   15SOL    HW2  945   3.031   2.668   1.033 -1.9644  0.8675 -0.6638
   16SOL     OW  946   0.406   3.460   3.861  0.6695 -0.2493 -0.5822
   16SOL    HW1  947   0.340   3.385   3.856  1.6182 -1.1241 -0.3922
   16SOL    HW2  948   0.490   3.433   3.814  1.6289  0.0419  0.8956
   17SOL     OW  949   5.690   6.105   2.993 -0.5896 -0.1731  0.0521
   17SOL    HW1  950   5.744   6.072   3.070  0.4890  0.0966 -0.5742
   17SOL    HW2  951   5.671   6.202   3.004 -1.3450 -0.3545  0.4822
   18SOL     OW  952   6.694   4.254   3.047  0.0618 -0.1038  0.3107
   18SOL    HW1  953   6.635   4.224   3.122 -1.5814  2.4059  0.1656
   18SOL    HW2  954   6.637   4.281   2.969  1.6465 -0.9559 -1.1935
   19SOL     OW  955   3.115   4.869   4.552  0.2997  0.3162  0.7115
   19SOL    HW1  956   3.066   4.956   4.549  3.0809  2.0090 -1.0902
   19SOL    HW2  957   3.116   4.829   4.460  0.4273 -0.7849  1.1843
   20SOL     OW  958   2.685   4.757   6.883  0.0816 -0.6133  0.6696
   20SOL    HW1  959   2.735   4.713   6.809 -1.3317 -0.7589 -0.2336
   20SOL    HW2  960   2.630   4.689   6.932 -1.1111 -0.0896  0.0899
   21SOL     OW  961   6.050   6.685   5.217  0.3073  0.4872 -0.0832
   21SOL    HW1  962   6.064   6.628   5.298  0.8321  0.4745 -0.1783
   21SOL    HW2  963   6.026   6.778   5.245 -0.4847  0.2427  0.0751
   22SOL     OW  964   6.559   3.274   6.436 -0.1051  0.2561  0.0168
   22SOL    HW1  965   6.524   3.352   6.488  2.0755  1.1372  0.2893
   22SOL    HW2  966   6.633   3.304   6.376  0.3559 -1.4901 -0.3601
   23SOL     OW  967   3.084   4.979   4.037  0.0263 -0.3539  0.7898
   23SOL    HW1  968   3.118   5.017   3.951 -0.4431  1.0617  1.1928
   23SOL    HW2  969   3.153   4.919   4.077  0.9200  0.2786  0.2350
   24SOL     OW  970   0.989   3.840   2.377  0.5585  0.1843  0.0340
   24SOL    HW1  971   1.031   3.924   2.341 -2.4271  2.4569  1.3548
   24SOL    HW2  972   1.002   3.836   2.476 -3.5800  2.0969  0.8797
   25SOL     OW  973   5.518   4.883   5.882 -0.8312 -0.3092  0.3600
   25SOL    HW1  974   5.516   4.980   5.858  2.5204  0.0807  1.0628
   25SOL    HW2  975   5.566   4.832   5.810 -0.5124 -1.0389  1.0724
   26SOL     OW  976   2.970   5.069   6.745  0.4369 -0.1336  0.1577
   26SOL    HW1  977   2.996   5.150   6.798 -0.0443 -0.1184  0.3744
   26SOL    HW2  978   2.873   5.049   6.760  1.0652 -2.1029  1.9070
   27SOL     OW  979   0.986   5.046   6.805 -0.2402  0.1588  0.3570
   27SOL    HW1  980   0.938   5.052   6.893 -1.5922  0.9447 -0.4112
   27SOL    HW2  981   0.929   4.997   6.739 -0.3001  1.6644 -0.7582
   28SOL     OW  982   6.454   2.049   2.348  0.4641 -0.0873  0.1564
   28SOL    HW1  983   6.518   1.999   2.290  1.0028  0.8220 -0.0515
   28SOL    HW2  984   6.389   1.985   2.389 -0.4949 -0.6778 -2.1080
   29SOL     OW  985   6.566   6.455   4.998 -0.2487  0.1355 -0.7667
   29SOL    HW1  986   6.608   6.533   4.951  2.7498 -1.3148 -0.7062
   29SOL    HW2  987   6.637   6.401   5.042 -2.4437 -1.6117  0.8246
   30SOL     OW  988   3.767   1.129   3.207  0.1333  0.0600 -0.2056
   30SOL    HW1  989   3.747   1.207   3.147 -1.6254  0.5651  0.9530
   30SOL    HW2  990   3.681   1.092   3.243  1.0486 -1.3102  0.6734
   31SOL     OW  991   2.370   6.871   2.042 -0.1943  0.3787  0.0888
   31SOL    HW1  992   2.336   6.908   1.956 -2.3373 -1.8875 -0.1521
   31SOL    HW2  993   2.306   6.892   2.116 -0.2947 -0.8365  0.3727
   32SOL     OW  994   0.733   1.309   3.849  0.9325 -0.0463 -0.2956
   32SOL    HW1  995   0.727   1.401   3.887  0.1279  0.6281 -1.9524
   32SOL    HW2  996   0.809   1.260   3.892 -0.8612  0.0007  3.3719
   33SOL     OW  997   3.258   3.764   4.092 -0.0370 -0.1341 -0.3409
   33SOL    HW1  998   3.212   3.837   4.042 -1.9845  0.0179  1.5409
   33SOL    HW2  999   3.339   3.734   4.040 -0.2199  2.0453 -2.0335
   34SOL     OW 1000   2.507   3.824   6.814  0.0976  0.5881 -0.1461
   34SOL    HW1 1001   2.432   3.872   6.860 -0.5221  0.2365 -0.7661
   34SOL    HW2 1002   2.593   3.870   6.834 -0.5903  2.6133 -1.5364
   35SOL     OW 1003   6.270   3.555   5.652  0.2387 -0.4110 -0.0238
   35SOL    HW1 1004   6.288   3.506   5.567  3.2239  0.4903 -0.0312
   35SOL    HW2 1005   6.193   3.617   5.639  0.0933 -0.9058 -1.8064
   36SOL     OW 1006   5.059   2.256   5.660 -0.2582 -0.0360 -0.4237
   36SOL    HW1 1007   5.127   2.187   5.685 -0.1633  0.1168 -0.2614
   36SOL    HW2 1008   5.015   2.291   5.742  0.2239  0.6383 -0.4469
   37SOL     OW 1009   4.600   1.059   0.344 -0.1656 -0.2752 -0.5205
   37SOL    HW1 1010   4.529   1.129   0.351  1.7532  1.8149 -1.0483
   37SOL    HW2 1011   4.684   1.099   0.309  0.8113 -3.0480 -1.6759
   38SOL     OW 1012   4.637   1.025   2.684 -0.2107 -0.2143 -0.5792
   38SOL    HW1 1013   4.544   1.020   2.649 -0.5730  2.0804 -0.0952
   38SOL    HW2 1014   4.636   1.008   2.783 -0.5789  2.3753 -0.0639
   39SOL     OW 1015   2.448   5.010   6.979 -0.2577 -0.1127 -0.2204
   39SOL    HW1 1016   2.502   4.953   7.040  0.2423  0.7417  0.1562
   39SOL    HW2 1017   2.389   4.952   6.922  2.4128 -1.2422 -2.0251
   40SOL     OW 1018   6.024   5.158   2.435  0.5061 -0.2847 -0.0461
   40SOL    HW1 1019   6.115   5.123   2.457  0.7047  1.1822  1.6507
   40SOL    HW2 1020   5.961   5.136   2.510  0.2574  1.4992  0.3136
   41SOL     OW 1021   1.302   5.346   3.669 -0.3238  0.2456  0.2035
   41SOL    HW1 1022   1.309   5.348   3.569  2.5019  2.2856  0.3172
   41SOL    HW2 1023   1.278   5.437   3.702 -3.6030 -0.8999  1.4150
   42SOL     OW 1024   6.364   5.307   1.857  0.4097  0.0911 -0.0681
   42SOL    HW1 1025   6.409   5.295   1.946 -0.5578  1.5145  0.6593
   42SOL    HW2 1026   6.314   5.224   1.834  0.2493 -0.1224  0.9857
   43SOL     OW 1027   0.339   5.061   0.807 -0.1580  0.4690 -0.3930
   43SOL    HW1 1028   0.284   5.127   0.858 -1.5131 -1.3643  0.6382
   43SOL    HW2 1029   0.406   5.019   0.868  0.6756  0.7998 -1.0402
   44SOL     OW 1030   0.120   1.203   2.783  0.1412 -0.4711  0.4269
   44SOL    HW1 1031   0.200   1.262   2.791 -0.8722  1.0222  0.1895
   44SOL    HW2 1032   0.144   1.109   2.806  1.9260 -0.0517  0.4013
   45SOL     OW 1033   0.885   2.340   1.120  0.9814  0.1205 -0.2683
   45SOL    HW1 1034   0.897   2.380   1.211 -0.7444 -0.0473  0.0561
   45SOL    HW2 1035   0.932   2.252   1.116  2.4349  0.8587 -0.0850
   46SOL     OW 1036   5.229   1.628   6.176 -0.1626 -0.5235  0.0620
   46SOL    HW1 1037   5.145   1.602   6.129  0.0261 -0.2270 -0.4553
   46SOL    HW2 1038   5.236   1.728   6.180 -0.1578 -0.5417  0.7017
   47SOL     OW 1039   1.550   4.894   4.138  0.1082 -0.0267  0.3887
   47SOL    HW1 1040   1.636   4.848   4.157  1.1475  1.7469  0.1876
   47SOL    HW2 1041   1.508   4.854   4.056  1.5647  0.1483 -0.4692
   48SOL     OW 1042   6.774   4.942   2.901  0.3057  0.2887  0.0057
   48SOL    HW1 1043   6.805   4.979   2.814  0.3972 -2.7487 -1.3892
   48SOL    HW2 1044   6.676   4.922   2.897  0.2373  0.4369  0.7275
   49SOL     OW 1045   5.365   1.126   2.895  0.1282  0.1606  0.0611
   49SOL    HW1 1046   5.274   1.139   2.934 -1.1952  0.6178 -2.9205
   49SOL    HW2 1047   5.366   1.043   2.839  2.1040 -0.7978  1.4114
   50SOL     OW 1048   0.287   0.060   5.074  0.4594  0.1235 -0.0770
   50SOL    HW1 1049   0.236   0.028   5.154  2.2427  1.9936  1.9585
   50SOL    HW2 1050   0.355   0.128   5.103  3.2997 -1.3066 -2.7661
   51SOL     OW 1051   1.666   1.299   4.157  0.0994 -0.2601  0.1166
   51SOL    HW1 1052   1.592   1.234   4.136  0.1916  0.1533 -1.6941
   51SOL    HW2 1053   1.626   1.386   4.186 -0.0562 -0.6219  1.0318
   52SOL     OW 1054   1.996   5.463   6.765  0.3820 -0.1095 -1.1518
   52SOL    HW1 1055   2.091   5.432   6.761  1.2047  1.4669  2.3716
   52SOL    HW2 1056   1.991   5.559   6.736 -0.1624 -0.2099 -1.4064
   53SOL     OW 1057   5.208   5.355   1.786 -0.5774  0.8387 -0.0171
   53SOL    HW1 1058   5.233   5.287   1.855 -0.0829  1.7834  0.7618
   53SOL    HW2 1059   5.276   5.354   1.713 -0.0919  1.0830  0.4240
   54SOL     OW 1060   2.500   5.874   2.773 -0.5201  0.3106  0.1071
   54SOL    HW1 1061   2.587   5.897   2.816 -1.5333  1.8664  1.4156
   54SOL    HW2 1062   2.517   5.828   2.685  1.6135  1.5506 -0.1769
   55SOL     OW 1063   7.025   3.883   3.240  0.1104  0.1976  0.0323
   55SOL    HW1 1064   7.078   3.848   3.317 -1.7297 -1.6005  0.6037
   55SOL    HW2 1065   7.082   3.942   3.183  2.3367 -0.7304  1.1873
   56SOL     OW 1066   5.495   6.496   6.933 -0.0387  0.3332 -0.1091
   56SOL    HW1 1067   5.474   6.399   6.924  1.4482  0.0501 -0.6154
   56SOL    HW2 1068   5.586   6.515   6.898 -0.5027  2.0139 -0.5049
   57SOL     OW 1069   1.723   1.182   4.813 -0.0865 -0.0338 -0.1074
   57SOL    HW1 1070   1.745   1.144   4.723 -0.4872  0.6904 -0.5182
   57SOL    HW2 1071   1.808   1.206   4.860  0.1174 -0.1495 -0.4095
   58SOL     OW 1072   2.707   0.783   4.179  0.5860  0.3285  0.5972
   58SOL    HW1 1073   2.729   0.685   4.176  1.2727  0.4806  0.3835
   58SOL    HW2 1074   2.631   0.798   4.242  0.9045 -0.2670  1.1384
   59SOL     OW 1075   1.352   7.019   5.664  0.0776 -0.3056  0.3687
   59SOL    HW1 1076   1.379   6.989   5.756  0.1468 -0.4486  0.3013
   59SOL    HW2 1077   1.342   7.119   5.664 -1.4819 -0.4343  0.9512
   60SOL     OW 1078   4.930   3.438   1.306 -0.3372 -0.2670 -0.2155
   60SOL    HW1 1079   4.851   3.404   1.357  0.4771 -1.6056  0.1943
   60SOL    HW2 1080   4.906   3.525   1.262 -1.5364  0.1495  1.1771
   61SOL     OW 1081   1.139   0.825   4.570  0.2974 -0.0777 -0.6763
   61SOL    HW1 1082   1.168   0.899   4.509 -2.3258  1.1437 -0.5807
   61SOL    HW2 1083   1.187   0.833   4.657  0.6075  1.0737 -0.9324
   62SOL     OW 1084   1.641   0.432   3.963 -0.1921 -0.1396 -0.2224
   62SOL    HW1 1085   1.679   0.340   3.971  0.2264  0.1257  1.0447
   62SOL    HW2 1086   1.541   0.427   3.974 -0.5518 -0.7825 -3.1510
   63SOL     OW 1087   4.023   0.968   6.374 -0.1063 -0.3940  0.4621
   63SOL    HW1 1088   4.077   0.885   6.359  0.7420  0.1979  0.1778
   63SOL    HW2 1089   3.996   1.006   6.286  2.4921  1.5384  0.3786
   64SOL     OW 1090   6.877   5.799   4.161  0.0227 -0.1447  0.2639
   64SOL    HW1 1091   6.940   5.726   4.186 -0.6404 -0.9668 -0.4072
   64SOL    HW2 1092   6.871   5.806   4.062 -0.5236  0.3001  0.3203
   65SOL     OW 1093   1.864   6.646   4.006 -0.1627  0.2299 -0.0378
   65SOL    HW1 1094   1.791   6.692   4.056 -2.5385 -2.3944 -0.8468
   65SOL    HW2 1095   1.892   6.564   4.056 -1.8904 -1.9134 -2.3391
   66SOL     OW 1096   1.154   0.659   6.919  0.1541  0.4434  0.9318
   66SOL    HW1 1097   1.251   0.677   6.904 -0.0726 -0.7490 -3.6811
   66SOL    HW2 1098   1.101   0.742   6.900  0.1623  0.7673  2.2463
   67SOL     OW 1099   6.191   3.840   5.020 -0.3095  0.1675  0.0467
   67SOL    HW1 1100   6.185   3.834   4.921 -0.7444  0.4011  0.0556
   67SOL    HW2 1101   6.202   3.936   5.047  0.1689  0.0706  0.2072
   68SOL     OW 1102   1.141   3.457   3.405  0.7205 -0.5169  0.0047
   68SOL    HW1 1103   1.194   3.399   3.344 -0.0856 -1.9928  0.6371
   68SOL    HW2 1104   1.172   3.443   3.500  0.6851  0.2882  0.1388
   69SOL     OW 1105   4.265   6.826   3.031  0.4184  0.2212  0.6705
   69SOL    HW1 1106   4.345   6.766   3.022  1.2751  1.4316 -0.1308
   69SOL    HW2 1107   4.296   6.919   3.053 -0.8198  0.5803  0.9615
   70SOL     OW 1108   5.311   4.589   0.959  0.1756 -0.1317  0.2165
   70SOL    HW1 1109   5.319   4.561   1.055 -1.9844 -2.2291 -0.1316
   70SOL    HW2 1110   5.350   4.519   0.900  2.3251  1.5541 -0.5092
   71SOL     OW 1111   3.520   5.341   2.034  0.1182 -0.6470 -0.3865
   71SOL    HW1 1112   3.569   5.317   2.118  0.4938 -0.7548 -0.6345
   71SOL    HW2 1113   3.427   5.307   2.038  0.9855 -3.3827 -1.2906
   72SOL     OW 1114   1.283   4.139   5.987 -0.2441  0.0014  0.2450
   72SOL    HW1 1115   1.374   4.141   5.946  0.0301  1.8620  0.8755
   72SOL    HW2 1116   1.239   4.052   5.965  1.0117 -0.2415 -1.4835
   73SOL     OW 1117   6.694   6.206   6.667  0.1033  0.2728  0.3551
   73SOL    HW1 1118   6.719   6.116   6.703  0.3558  0.2769  0.1908
   73SOL    HW2 1119   6.598   6.205   6.639 -0.0203  0.1894  0.7758
   74SOL     OW 1120   1.879   0.396   4.990 -0.1920 -0.5502 -0.1176
   74SOL    HW1 1121   1.870   0.315   5.049 -3.7759  0.2741  0.7075
   74SOL    HW2 1122   1.976   0.419   4.980  0.7360 -1.8090  3.9704
   75SOL     OW 1123   4.343   1.523   3.625  0.4175 -0.7280 -0.4109
   75SOL    HW1 1124   4.425   1.492   3.578 -0.1432 -1.2488 -1.0750
   75SOL    HW2 1125   4.315   1.612   3.587  0.4536 -0.7383 -0.4618
   76SOL     OW 1126   0.364   4.447   7.002  0.0994 -0.0225 -0.1065
   76SOL    HW1 1127   0.290   4.466   7.067 -0.5517 -0.6209 -0.6578
   76SOL    HW2 1128   0.329   4.454   6.909  1.2179  1.6327 -0.4398
   77SOL     OW 1129   6.871   0.246   4.958 -0.2786  0.4032 -0.0101
   77SOL    HW1 1130   6.893   0.170   4.897  2.4741  0.9232  0.2328
   77SOL    HW2 1131   6.833   0.212   5.043  2.6904 -0.9288  0.8770
   78SOL     OW 1132   2.978   4.857   6.553 -0.5382  1.2652 -0.7186
   78SOL    HW1 1133   2.964   4.925   6.625  0.3812  0.3548  0.3667
   78SOL    HW2 1134   3.067   4.872   6.510  1.7545 -1.6782  2.4566
   79SOL     OW 1135   5.894   4.870   4.420  0.1664 -0.1938  0.4054
   79SOL    HW1 1136   5.818   4.931   4.441 -0.9987 -0.5379 -2.3247
   79SOL    HW2 1137   5.972   4.892   4.479 -0.7952  2.6965  0.7681
   80SOL     OW 1138   2.212   0.815   5.715 -0.2038  0.1744  0.5018
   80SOL    HW1 1139   2.298   0.805   5.665 -0.2843 -0.0489  0.4055
   80SOL    HW2 1140   2.158   0.890   5.677 -0.2503  0.0260  0.2737
   81SOL     OW 1141   0.046   5.230   4.278  0.3644 -0.3962 -0.8744
   81SOL    HW1 1142  -0.041   5.278   4.272  1.5982  2.2363  0.5817
   81SOL    HW2 1143   0.075   5.226   4.374  1.4694 -1.9876 -1.2414
   82SOL     OW 1144   5.270   1.982   2.603 -0.3410 -0.2326 -0.5631
   82SOL    HW1 1145   5.342   1.959   2.670  0.5167 -0.3016 -1.4916
   82SOL    HW2 1146   5.284   1.929   2.520  0.1256  1.7068 -1.7737
   83SOL     OW 1147   4.751   1.693   4.461 -0.5547  0.2279 -0.6988
   83SOL    HW1 1148   4.656   1.720   4.476 -0.4685  0.3171 -0.3074
   83SOL    HW2 1149   4.792   1.754   4.393 -0.7705  0.1993 -0.8576
   84SOL     OW 1150   1.006   0.059   7.016 -0.1533  0.4978  0.0927
   84SOL    HW1 1151   1.023   0.128   7.086  0.5268  0.5004 -0.0638
   84SOL    HW2 1152   0.920   0.012   7.035  0.0725  0.4266  0.9839
   85SOL     OW 1153   0.438   3.108   4.094 -0.5662 -0.7813 -0.1736
   85SOL    HW1 1154   0.523   3.154   4.119  0.4517 -1.0668 -2.7991
   85SOL    HW2 1155   0.417   3.038   4.163  0.7397 -0.0074  1.0732
   86SOL     OW 1156   0.595   1.250   6.899  0.0250 -0.2970 -0.3681
   86SOL    HW1 1157   0.542   1.227   6.981  1.0691  0.0426  0.4128
   86SOL    HW2 1158   0.579   1.180   6.829 -0.2069 -1.0582  0.4267
   87SOL     OW 1159   3.167   3.088   4.641  0.3447  0.0254 -0.2156
   87SOL    HW1 1160   3.087   3.124   4.592  0.4031  1.4431  0.6795
   87SOL    HW2 1161   3.245   3.148   4.625  0.7763 -0.3844  0.3221
   88SOL     OW 1162   3.080   3.142   3.182 -0.1509 -0.0034 -0.5043
   88SOL    HW1 1163   3.151   3.207   3.210  0.2121 -0.8572  0.6266
   88SOL    HW2 1164   3.015   3.130   3.258 -0.3479 -0.7738 -0.7902
   89SOL     OW 1165   1.762   0.757   4.619  0.1682 -0.3459  0.3504
   89SOL    HW1 1166   1.846   0.805   4.596  0.9859 -0.6548  2.5147
   89SOL    HW2 1167   1.687   0.823   4.624  0.2419 -0.0555 -1.4697
   90SOL     OW 1168   2.715   1.609   1.241  0.7721  0.0687  0.0935
   90SOL    HW1 1169   2.800   1.634   1.287  0.1571  2.3178  0.1176
   90SOL    HW2 1170   2.639   1.614   1.306  0.1227  1.7593 -0.7350
   91SOL     OW 1171   3.374   3.592   6.173 -0.0790  0.0295 -0.1117
   91SOL    HW1 1172   3.460   3.604   6.222 -1.0890  3.0253  1.1789
   91SOL    HW2 1173   3.338   3.682   6.146 -2.1336 -1.2114 -1.8235
   92SOL     OW 1174   0.833   2.878   6.670 -0.4358 -0.0911 -0.6055
   92SOL    HW1 1175   0.827   2.780   6.650  1.6128 -0.1383 -1.2158
   92SOL    HW2 1176   0.770   2.928   6.611 -0.4785 -0.9293 -1.2926
   93SOL     OW 1177   4.953   4.535   2.384  0.5435 -0.5515 -0.1699
   93SOL    HW1 1178   5.018   4.459   2.389  0.4996 -0.5792  0.0037
   93SOL    HW2 1179   4.901   4.528   2.300 -0.9450 -1.9450  0.7995
   94SOL     OW 1180   0.481   0.550   5.228 -0.1843 -0.0376  0.5679
   94SOL    HW1 1181   0.571   0.526   5.265  0.4092  2.0349  0.6036
   94SOL    HW2 1182   0.488   0.559   5.128 -0.2287  0.5014  0.6077
   95SOL     OW 1183   2.867   0.592   5.914  0.5321 -0.2429 -0.4003
   95SOL    HW1 1184   2.829   0.682   5.893 -0.8332 -1.1487 -2.0017
   95SOL    HW2 1185   2.811   0.547   5.984  0.0031 -0.6399 -1.0678
   96SOL     OW 1186   5.403   3.657   5.217 -0.3552 -0.3069 -0.4732
   96SOL    HW1 1187   5.349   3.737   5.245 -1.3668 -0.9515 -0.5116
   96SOL    HW2 1188   5.439   3.671   5.125  0.2010  0.4499 -0.1529
   97SOL     OW 1189   1.933   6.004   0.998  0.6229 -0.2243 -0.3528
   97SOL    HW1 1190   1.838   5.979   1.018  0.4795  0.8744  0.4201
   97SOL    HW2 1191   1.991   5.924   1.010 -0.1498 -0.8063 -0.4159
   98SOL     OW 1192   1.013   4.143   0.288  0.0710 -0.5536 -0.0056
   98SOL    HW1 1193   1.098   4.183   0.321 -0.4223 -0.3035  0.9940
   98SOL    HW2 1194   0.974   4.203   0.217  0.2626 -0.2044  0.1834
   99SOL     OW 1195   0.529   1.488   0.858  0.4140  0.4748  0.0128
   99SOL    HW1 1196   0.556   1.487   0.762  1.3562 -0.1491  0.2671
   99SOL    HW2 1197   0.532   1.394   0.894 -0.9011  0.5556  0.3973
  100SOL     OW 1198   0.331   2.788   0.120 -0.0259 -0.5132 -0.5567
  100SOL    HW1 1199   0.233   2.768   0.113  0.0689 -1.1438 -0.1548
  100SOL    HW2 1200   0.365   2.821   0.032 -0.0634 -2.6926 -1.4501
  101SOL     OW 1201   4.005   1.385   5.158 -0.1597 -0.6832 -0.3984
  101SOL    HW1 1202   3.983   1.297   5.118  2.9325 -1.6659 -0.1583
  101SOL    HW2 1203   3.959   1.458   5.107 -0.0941 -2.2083 -2.7617
  102SOL     OW 1204   6.638   3.424   1.816  0.1075  0.1931  0.8065
  102SOL    HW1 1205   6.643   3.433   1.716  0.4142  1.4273  0.9201
  102SOL    HW2 1206   6.627   3.327   1.840  2.3467 -0.4062 -0.3187
  103SOL     OW 1207   1.831   3.102   2.278 -0.3316  0.3688  0.2138
  103SOL    HW1 1208   1.906   3.058   2.228 -0.0083 -0.4602  1.3858
  103SOL    HW2 1209   1.848   3.201   2.283  0.4724  0.2448  0.1195
  104SOL     OW 1210   1.905   1.006   1.623  0.4091 -0.4393 -0.1844
  104SOL    HW1 1211   1.898   0.954   1.538  3.3923 -1.9342  0.3199
  104SOL    HW2 1212   1.990   1.059   1.623 -0.1539  0.5384  1.3698
  105SOL     OW 1213   6.268   4.286   5.627 -0.1548  0.1464  0.4561
  105SOL    HW1 1214   6.358   4.270   5.667 -0.0648 -0.8076 -0.0837
  105SOL    HW2 1215   6.198   4.278   5.697 -0.1016 -2.6115  0.3008
  106SOL     OW 1216   4.444   0.917   5.033  0.6205  0.1733  0.3036
  106SOL    HW1 1217   4.529   0.935   5.083  0.4255  0.0473  0.6868
  106SOL    HW2 1218   4.372   0.978   5.067  0.9914  1.5549 -1.2466
  107SOL     OW 1219   5.705   1.000   6.363 -0.3504  0.6745  0.2238
  107SOL    HW1 1220   5.713   1.099   6.352 -0.0906  0.5661 -0.6466
  107SOL    HW2 1221   5.789   0.965   6.406 -0.7263  0.9104  1.1696
  108SOL     OW 1222   0.258   2.617   2.063  0.6166  0.3137  0.2708
  108SOL    HW1 1223   0.187   2.576   2.005  0.7448  0.6810 -0.1530
  108SOL    HW2 1224   0.289   2.550   2.130  2.8620 -1.2909 -2.1843
  109SOL     OW 1225   6.313   1.352   2.374 -0.0880 -0.1495 -0.2975
  109SOL    HW1 1226   6.366   1.437   2.371  1.5010 -1.0516  0.6584
  109SOL    HW2 1227   6.219   1.372   2.399 -0.0588  1.4371 -1.2988
  110SOL     OW 1228   5.563   3.342   6.005  1.0900 -0.5958 -0.1513
  110SOL    HW1 1229   5.641   3.284   6.027 -0.0474 -2.2257 -0.2046
  110SOL    HW2 1230   5.594   3.434   5.984  2.7604 -0.4752  2.4515
  111SOL     OW 1231   4.771   0.860   0.654  0.0295  0.3994 -0.1812
  111SOL    HW1 1232   4.864   0.851   0.620  0.1551  1.3185 -0.0948
  111SOL    HW2 1233   4.767   0.934   0.721 -0.8237  0.5479 -0.3908
  112SOL     OW 1234   2.640   6.773   3.653  0.1932  0.4849 -0.2553
  112SOL    HW1 1235   2.688   6.845   3.705  0.8807 -0.4449  0.4388
  112SOL    HW2 1236   2.657   6.786   3.556 -0.4259  1.7716 -0.2118
  113SOL     OW 1237   3.816   6.565   0.409  0.3875  0.7154 -0.1982
  113SOL    HW1 1238   3.904   6.537   0.446 -0.0075  0.1359  0.3225
  113SOL    HW2 1239   3.766   6.618   0.477 -0.6462 -0.9696  0.4225
  114SOL     OW 1240   1.014   5.944   5.237  0.3411 -0.0259  0.2597
  114SOL    HW1 1241   1.069   5.862   5.255  0.3391  0.4474  2.8206
  114SOL    HW2 1242   1.069   6.025   5.258 -0.3753  0.5524 -0.0903
  115SOL     OW 1243   6.780   0.023   5.144  0.0137 -0.4953 -0.1373
  115SOL    HW1 1244   6.829   0.072   5.216 -0.5394 -0.1096 -0.0136
  115SOL    HW2 1245   6.798  -0.075   5.152 -1.7023 -0.7219  1.8689
  116SOL     OW 1246   0.759   5.785   4.516 -0.3228 -0.1049  0.1365
  116SOL    HW1 1247   0.777   5.884   4.518 -1.9488  0.2381 -0.5283
  116SOL    HW2 1248   0.845   5.736   4.526  0.4099  1.3644  1.5155
  117SOL     OW 1249   0.506   3.718   3.839 -0.2948 -0.1113 -0.4949
  117SOL    HW1 1250   0.462   3.628   3.840 -1.0995  0.2551  1.0732
  117SOL    HW2 1251   0.521   3.748   3.745 -2.9666 -0.4913 -1.0991
  118SOL     OW 1252   4.618   0.065   4.855 -0.4081  0.3914  0.3175
  118SOL    HW1 1253   4.536   0.028   4.812  0.0691 -0.9482  0.5422
  118SOL    HW2 1254   4.612   0.053   4.954 -0.1521  0.7419  0.3784
  119SOL     OW 1255   1.061   2.408   2.661  0.0543 -0.1779  0.3481
  119SOL    HW1 1256   1.141   2.415   2.600 -0.5494  2.2701 -0.2478
  119SOL    HW2 1257   0.999   2.338   2.625  0.5952 -0.1039 -0.7909
  120SOL     OW 1258   4.837   0.771   5.281 -0.4729 -0.4423 -0.1757
  120SOL    HW1 1259   4.915   0.806   5.333 -0.9161 -0.9657  0.8558
  120SOL    HW2 1260   4.796   0.694   5.329 -1.9880  0.1721 -0.4251
  121SOL     OW 1261   4.017   6.985   3.542  0.2434 -0.3190 -0.1117
  121SOL    HW1 1262   4.022   6.897   3.590  0.2855 -0.1011  0.2893
  121SOL    HW2 1263   4.105   7.005   3.500  0.3929 -0.2146  0.2523
  122SOL     OW 1264   4.790   1.145   4.806  0.3223 -0.6383  0.0100
  122SOL    HW1 1265   4.695   1.114   4.798  0.3663 -0.9015  0.4877
  122SOL    HW2 1266   4.800   1.201   4.888  1.0297 -2.3345  1.1195
  123SOL     OW 1267   3.325   1.709   2.188 -0.2420  0.9221 -0.0717
  123SOL    HW1 1268   3.330   1.609   2.183 -0.0261  0.7985  1.7139
  123SOL    HW2 1269   3.233   1.735   2.218 -0.7934  1.3730 -2.0578
  124SOL     OW 1270   5.692   1.686   1.021 -0.2653 -0.0780 -0.1478
  124SOL    HW1 1271   5.699   1.711   1.118 -0.2028 -0.3699 -0.0777
  124SOL    HW2 1272   5.773   1.634   0.994 -1.4543 -2.2885  0.3197
  125SOL     OW 1273   1.497   5.945   5.492  0.2366 -0.6691  0.3677
  125SOL    HW1 1274   1.517   6.043   5.488  1.1158 -0.6048  3.6398
  125SOL    HW2 1275   1.580   5.894   5.468 -0.2624 -0.6883 -1.4867
  126SOL     OW 1276   2.524   2.296   5.360  0.3511 -0.8163  0.5040
  126SOL    HW1 1277   2.445   2.295   5.300  0.4972 -2.0171  0.3047
  126SOL    HW2 1278   2.594   2.357   5.322  0.3602 -1.3958 -0.4489
  127SOL     OW 1279   2.145   3.898   3.417  0.2281  0.3128 -0.3372
  127SOL    HW1 1280   2.166   3.863   3.508  1.5687  2.2740  0.1602
  127SOL    HW2 1281   2.062   3.953   3.421  0.2971  0.4140 -0.2998
  128SOL     OW 1282   5.436   2.534   4.358 -0.2140 -0.3944  0.1515
  128SOL    HW1 1283   5.481   2.558   4.445 -0.6920 -0.9530  0.5576
  128SOL    HW2 1284   5.339   2.518   4.374 -0.2777 -0.6558 -0.4652
  129SOL     OW 1285   6.067   0.800   2.581 -0.1395 -0.7472  0.4298
  129SOL    HW1 1286   6.072   0.860   2.661 -0.4808 -0.9806  0.6265
  129SOL    HW2 1287   5.984   0.819   2.529  1.3475  1.2847 -1.3905
  130SOL     OW 1288   2.080   0.465   3.752 -0.1445 -0.2472 -0.1322
  130SOL    HW1 1289   2.018   0.393   3.784  0.9218 -0.5998  1.2020
  130SOL    HW2 1290   2.173   0.430   3.750  0.3086  0.9280 -0.0316
  131SOL     OW 1291   6.129   1.459   4.272  0.6514  0.3732  0.5908
  131SOL    HW1 1292   6.131   1.421   4.364 -1.6235 -0.6276  0.2835
  131SOL    HW2 1293   6.056   1.527   4.265  0.3395 -0.0547 -0.6387
  132SOL     OW 1294   6.644   5.142   1.184 -0.0232 -0.1329 -0.1222
  132SOL    HW1 1295   6.717   5.165   1.249  0.1938  1.1768 -0.7922
  132SOL    HW2 1296   6.636   5.215   1.117 -2.8975  0.4177  0.7197
  133SOL     OW 1297   2.329   0.958   0.412 -0.2341 -0.4895 -0.4310
  133SOL    HW1 1298   2.324   0.961   0.512 -1.6054 -0.2547 -0.4803
  133SOL    HW2 1299   2.285   1.039   0.374  1.3269  0.0182 -1.2301
  134SOL     OW 1300   0.293   2.717   4.619 -0.2284  0.5204 -0.2604
  134SOL    HW1 1301   0.287   2.628   4.665 -1.6619  1.3283  1.2193
  134SOL    HW2 1302   0.387   2.752   4.627  0.0872 -0.3735  0.0780
  135SOL     OW 1303   6.656   2.250   3.716  0.1037 -0.4874  0.6121
  135SOL    HW1 1304   6.718   2.320   3.679  0.5542  0.2266  2.5934
  135SOL    HW2 1305   6.621   2.194   3.641 -0.9540  2.3623 -1.2045
  136SOL     OW 1306   0.209   0.041   3.236  0.3089  0.3917  0.0953
  136SOL    HW1 1307   0.119   0.000   3.251  0.5090 -0.7385 -1.4857
  136SOL    HW2 1308   0.246   0.074   3.323 -0.8050 -0.8720  1.0878
  137SOL     OW 1309   2.641   3.743   0.529  0.3405  0.1650 -0.2627
  137SOL    HW1 1310   2.617   3.647   0.538  1.5596 -0.0894  0.7660
  137SOL    HW2 1311   2.741   3.753   0.538  0.0081  1.8313  3.4460
  138SOL     OW 1312   4.331   2.050   5.736 -0.1820 -0.2960  0.6468
  138SOL    HW1 1313   4.392   2.039   5.814  0.5661  1.1045  0.3033
  138SOL    HW2 1314   4.343   2.142   5.698 -0.2705 -1.0542 -1.3253
  139SOL     OW 1315   1.504   2.417   2.001  0.1789 -0.3723 -0.2184
  139SOL    HW1 1316   1.527   2.479   1.926 -0.4020 -0.3081 -0.3525
  139SOL    HW2 1317   1.451   2.340   1.965  0.4547 -0.6770  0.0267
  140SOL     OW 1318   4.841   5.119   4.487  0.0210 -0.4071  0.0322
  140SOL    HW1 1319   4.747   5.118   4.521 -0.3810  0.4454 -1.0006
  140SOL    HW2 1320   4.900   5.165   4.553 -0.5006  0.0659  0.1685
  141SOL     OW 1321   4.117   6.441   6.523  0.0561  0.4185 -0.2120
  141SOL    HW1 1322   4.028   6.407   6.553 -0.8244  2.6789 -0.0556
  141SOL    HW2 1323   4.131   6.417   6.427  0.8452 -2.8498  0.5775
  142SOL     OW 1324   3.297   2.764   0.479 -0.3088 -0.0436 -0.2597
  142SOL    HW1 1325   3.359   2.693   0.445 -0.9647 -0.8098  0.0964
  142SOL    HW2 1326   3.239   2.796   0.403  0.2656  0.4121 -0.5113
  143SOL     OW 1327   3.941   2.446   1.589  0.2521 -0.2847  0.3730
  143SOL    HW1 1328   3.895   2.536   1.595  0.2137 -0.3519  1.2844
  143SOL    HW2 1329   3.916   2.392   1.669  2.1765 -0.2121  1.0631
  144SOL     OW 1330   6.662   6.651   4.852 -0.2222 -0.5178 -0.0954
  144SOL    HW1 1331   6.761   6.659   4.860 -0.3546  1.0911  0.2910
  144SOL    HW2 1332   6.628   6.717   4.785 -1.0535 -0.9584 -0.1238
  145SOL     OW 1333   6.675   4.509   5.421  0.3505  0.3047  0.0168
  145SOL    HW1 1334   6.696   4.601   5.452  0.9275 -0.2601  1.4051
  145SOL    HW2 1335   6.726   4.489   5.337  0.9917  0.8937  0.2626
  146SOL     OW 1336   1.272   5.020   3.417  0.5147  0.3494  0.5849
  146SOL    HW1 1337   1.264   4.986   3.511  0.9772 -1.7551 -0.0924
  146SOL    HW2 1338   1.369   5.035   3.395  0.3496  1.8008  0.7266
  147SOL     OW 1339   6.422   3.889   2.704  0.4076  0.3878  0.5771
  147SOL    HW1 1340   6.432   3.948   2.784  2.6544  0.0097  0.6571
  147SOL    HW2 1341   6.499   3.905   2.642 -0.5893 -0.2798 -0.8907
  148SOL     OW 1342   2.287   4.379   1.769  0.0179  0.5985 -0.3596
  148SOL    HW1 1343   2.218   4.309   1.752 -0.6383  1.3568 -0.9104
  148SOL    HW2 1344   2.258   4.465   1.728  1.1499  1.0174 -0.3259
  149SOL     OW 1345   0.116   1.202   5.443  0.0060 -0.2863 -0.3770
  149SOL    HW1 1346   0.075   1.120   5.481 -0.0993  0.5760  1.5078
  149SOL    HW2 1347   0.064   1.282   5.474  2.0305  0.7084  0.6394
  150SOL     OW 1348   3.733   4.117   0.189 -0.1086  0.3267  0.1827
  150SOL    HW1 1349   3.756   4.156   0.278  1.6532  0.7533 -0.4130
  150SOL    HW2 1350   3.809   4.061   0.156 -0.1951  1.1766 -1.5834
  151SOL     OW 1351   6.618   1.949   1.882  0.0617 -0.3443  0.2403
  151SOL    HW1 1352   6.678   1.869   1.874  0.5971  0.1981 -1.8526
  151SOL    HW2 1353   6.613   1.996   1.793 -0.5720  1.7113  1.2990
  152SOL     OW 1354   2.841   5.553   6.896  0.2338  0.2377  0.5454
  152SOL    HW1 1355   2.846   5.487   6.821 -0.1854 -0.2443  0.9426
  152SOL    HW2 1356   2.910   5.531   6.965  1.9333  1.7776 -0.5448
  153SOL     OW 1357   4.162   5.465   6.529  0.4180 -0.3080 -0.5120
  153SOL    HW1 1358   4.146   5.431   6.621  0.9419  0.4087 -0.1470
  153SOL    HW2 1359   4.082   5.445   6.472 -0.4465  0.3760  0.4214
  154SOL     OW 1360   0.563   4.403   0.693  0.4505  0.0582 -0.2501
  154SOL    HW1 1361   0.527   4.495   0.706 -1.0981 -0.1121 -2.7549
  154SOL    HW2 1362   0.567   4.357   0.782 -2.1400  1.3555  0.6577
  155SOL     OW 1363   0.327   4.619   1.920  0.0475 -0.1348 -0.0435
  155SOL    HW1 1364   0.281   4.638   2.006  0.5510 -0.5889  0.3292
  155SOL    HW2 1365   0.419   4.583   1.937  0.5363  0.6988 -0.7743
  156SOL     OW 1366   0.036   1.858   2.026 -0.2875  0.0063 -0.0345
  156SOL    HW1 1367   0.011   1.911   2.107 -1.8506  0.5256 -0.8333
  156SOL    HW2 1368   0.109   1.906   1.976  1.6637 -0.9575  1.6949
  157SOL     OW 1369   4.971   2.642   3.210 -0.0316 -0.1680 -0.6566
  157SOL    HW1 1370   4.965   2.545   3.232 -1.7569  0.0610  0.0515
  157SOL    HW2 1371   4.978   2.653   3.111 -0.6484 -1.0102 -0.8066
  158SOL     OW 1372   1.614   5.252   2.397  0.6317 -0.2212  0.4984
  158SOL    HW1 1373   1.616   5.173   2.336  2.6458  0.0280  0.1701
  158SOL    HW2 1374   1.582   5.332   2.347  2.6175  0.0608 -0.3866
  159SOL     OW 1375   0.492   6.068   4.236  0.0272  0.0118  0.1618
  159SOL    HW1 1376   0.455   6.127   4.165  0.1042 -0.1358 -0.0008
  159SOL    HW2 1377   0.549   5.997   4.195  2.3697  1.5467  0.5560
  160SOL     OW 1378   5.558   2.972   2.983  0.0569 -0.0380 -0.1023
  160SOL    HW1 1379   5.502   3.034   2.928  0.8998  2.1507  1.3861
  160SOL    HW2 1380   5.505   2.890   3.004 -1.9050  1.0890 -0.3493
  161SOL     OW 1381   1.639   0.949   2.428  0.1278 -0.2076 -0.4399
  161SOL    HW1 1382   1.705   0.906   2.367 -0.2470  0.4259 -1.3113
  161SOL    HW2 1383   1.593   1.024   2.381  1.3659  1.7551  1.2836
  162SOL     OW 1384   5.440   0.729   0.215  0.0323 -0.1228  0.0965
  162SOL    HW1 1385   5.377   0.711   0.290  0.2472 -1.7238 -0.0627
  162SOL    HW2 1386   5.487   0.644   0.190  1.0341  0.6826 -0.8855
  163SOL     OW 1387   1.277   2.433   5.515 -0.1110  0.7529  0.7132
  163SOL    HW1 1388   1.256   2.458   5.421  0.8001 -0.0533  0.2688
  163SOL    HW2 1389   1.223   2.488   5.578 -1.0967  0.9581 -0.2888
  164SOL     OW 1390   6.133   1.836   6.502  0.1039  0.0351 -0.3623
  164SOL    HW1 1391   6.153   1.748   6.545  0.4854  0.3050  0.0270
  164SOL    HW2 1392   6.043   1.868   6.531 -0.1405 -0.3443 -0.7028
  165SOL     OW 1393   4.450   5.090   0.343 -0.6710 -0.4472  0.6675
  165SOL    HW1 1394   4.472   5.072   0.247 -1.0439 -1.3383  0.7412
  165SOL    HW2 1395   4.409   5.009   0.383  2.3127 -1.2178  2.4509
  166SOL     OW 1396   0.747   4.966   5.618  0.1866  0.1196 -0.2631
  166SOL    HW1 1397   0.665   4.915   5.645  0.1710  0.5234  0.4925
  166SOL    HW2 1398   0.817   4.902   5.586 -0.3316 -0.2500 -0.6700
  167SOL     OW 1399   5.187   0.242   3.738 -0.1334 -0.0173 -0.4998
  167SOL    HW1 1400   5.100   0.212   3.777 -0.4992 -0.9234 -1.9366
  167SOL    HW2 1401   5.261   0.221   3.801 -0.6349 -2.0377 -0.5224
  168SOL     OW 1402   6.306   1.373   0.458 -0.5585  0.4552 -0.3508
  168SOL    HW1 1403   6.231   1.308   0.441 -0.4023  0.5235 -1.3406
  168SOL    HW2 1404   6.268   1.456   0.499 -1.1058  0.6733 -1.2650
  169SOL     OW 1405   5.557   4.377   2.491  0.1521 -0.5043 -0.1991
  169SOL    HW1 1406   5.599   4.468   2.499  0.8205 -0.8288  0.0269
  169SOL    HW2 1407   5.503   4.358   2.573 -0.7045  0.0361 -0.6178
  170SOL     OW 1408   2.992   2.177   4.603 -0.0080 -0.1990  0.0952
  170SOL    HW1 1409   2.988   2.197   4.505  0.6204  0.0461  0.1118
  170SOL    HW2 1410   3.075   2.125   4.623  0.8787  1.3935  0.7627
  171SOL     OW 1411   4.104   4.944   5.530  0.1623 -0.0940 -0.2084
  171SOL    HW1 1412   4.060   4.902   5.451  1.8710  0.3526 -1.4646
  171SOL    HW2 1413   4.035   4.964   5.600 -1.1644 -1.9924 -0.8735
  172SOL     OW 1414   5.787   2.533   3.780  0.2154 -0.0288 -0.0343
  172SOL    HW1 1415   5.716   2.466   3.762 -0.2233  0.5131 -0.3305
  172SOL    HW2 1416   5.746   2.621   3.804  0.7409  0.7643 -1.8973
  173SOL     OW 1417   4.596   5.451   4.241 -0.4623 -0.6243 -0.4175
  173SOL    HW1 1418   4.571   5.364   4.282 -0.6694 -1.0284 -1.3601
  173SOL    HW2 1419   4.515   5.492   4.197 -0.7228  0.7767  1.2716
  174SOL     OW 1420   2.573   0.837   6.318  0.2581  0.7689  0.3119
  174SOL    HW1 1421   2.561   0.756   6.375 -1.1534  1.2471  0.7222
  174SOL    HW2 1422   2.504   0.905   6.341  2.0120  2.5213  0.6795
  175SOL     OW 1423   0.657   6.096   1.014  0.0139  0.3887 -0.1119
  175SOL    HW1 1424   0.702   6.184   1.024  1.9252 -0.6568  1.0160
  175SOL    HW2 1425   0.649   6.052   1.103  0.2425 -1.1025 -0.7949
  176SOL     OW 1426   2.765   3.580   1.251  0.2099 -0.9005  0.0449
  176SOL    HW1 1427   2.779   3.488   1.215  2.2014  0.4223 -3.0540
  176SOL    HW2 1428   2.667   3.600   1.257 -0.2267 -2.6193 -0.8563
  177SOL     OW 1429   0.971   0.253   0.301  0.1122  0.5354  0.3997
  177SOL    HW1 1430   1.044   0.291   0.244  2.0693 -2.1162  0.9240
  177SOL    HW2 1431   0.888   0.245   0.246  0.9387  1.2436 -1.0277
  178SOL     OW 1432   6.105   0.727   2.978  0.1425 -0.5204 -0.1648
  178SOL    HW1 1433   6.171   0.696   3.046 -0.7648 -1.4188  0.3428
  178SOL    HW2 1434   6.028   0.662   2.975  0.0793 -0.4150 -1.9218
  179SOL     OW 1435   5.974   0.523   3.861  0.1788 -0.6915 -0.2985
  179SOL    HW1 1436   6.033   0.587   3.909 -1.8051  0.5113  0.6726
  179SOL    HW2 1437   5.895   0.572   3.823 -2.0848 -2.6133  1.5728
  180SOL     OW 1438   6.158   4.022   1.051 -0.0443 -0.5020  0.4161
  180SOL    HW1 1439   6.146   4.012   1.149  0.8175 -0.2317  0.5555
  180SOL    HW2 1440   6.157   3.932   1.007  0.3986 -0.6816  0.7734
  181SOL     OW 1441   0.968   2.940   0.402  0.0781 -0.3545 -0.0444
  181SOL    HW1 1442   1.041   2.897   0.348  0.3849 -0.3609  0.3736
  181SOL    HW2 1443   0.996   3.033   0.427 -1.7934  1.3476 -3.5488
  182SOL     OW 1444   3.696   0.210   0.497  0.3382 -0.3691  0.2696
  182SOL    HW1 1445   3.603   0.238   0.521  0.6910  1.3541 -0.2250
  182SOL    HW2 1446   3.695   0.164   0.409 -0.1308 -1.0796  0.6318
  183SOL     OW 1447   3.622   3.690   0.346 -0.4180 -0.6153  0.1286
  183SOL    HW1 1448   3.688   3.762   0.326 -1.1651  0.4342  1.2928
  183SOL    HW2 1449   3.544   3.699   0.283 -0.3783 -0.5614  0.0870
  184SOL     OW 1450   5.461   4.269   1.789  0.0931  0.1086  0.0772
  184SOL    HW1 1451   5.374   4.230   1.820  0.0761 -1.2020 -1.4824
  184SOL    HW2 1452   5.491   4.222   1.706  1.9378  1.0299  0.1660
  185SOL     OW 1453   2.514   3.392   5.401  0.6034  0.6955 -0.6364
  185SOL    HW1 1454   2.427   3.440   5.409  0.0985 -0.4703  1.8117
  185SOL    HW2 1455   2.503   3.313   5.341  0.0898  0.8200 -0.7095
  186SOL     OW 1456   6.098   3.281   3.963  0.4772 -0.2342  0.4830
  186SOL    HW1 1457   6.160   3.324   3.898  0.0250 -1.1897 -0.5986
  186SOL    HW2 1458   6.012   3.257   3.917 -1.8056  3.2465  2.4016
  187SOL     OW 1459   0.111   2.879   0.511 -0.6864  0.5555  0.1348
  187SOL    HW1 1460   0.068   2.790   0.496  1.0490 -0.0440 -1.7475
  187SOL    HW2 1461   0.185   2.869   0.577 -0.1978  0.4828 -0.4151
  188SOL     OW 1462   6.657   4.403   4.359  0.2351 -0.0406 -0.3735
  188SOL    HW1 1463   6.736   4.354   4.395  0.6546  0.9588  0.1046
  188SOL    HW2 1464   6.660   4.403   4.259  0.5506 -0.4739 -0.3640
  189SOL     OW 1465   1.220   2.679   6.296 -0.5525  0.0576 -0.5452
  189SOL    HW1 1466   1.164   2.675   6.378  0.0095 -0.1628 -0.1684
  189SOL    HW2 1467   1.206   2.767   6.250 -1.2967 -0.0442 -0.5277
  190SOL     OW 1468   3.378   1.143   1.178  0.2186 -0.7208  0.6042
  190SOL    HW1 1469   3.404   1.178   1.088  1.0726  0.4142  1.2695
  190SOL    HW2 1470   3.375   1.219   1.244  2.4978 -1.8879  2.1909
  191SOL     OW 1471   3.600   4.810   6.517 -0.3040  0.1001 -0.3951
  191SOL    HW1 1472   3.694   4.842   6.532  0.4566 -1.4465 -1.5022
  191SOL    HW2 1473   3.536   4.871   6.562  1.0313  2.8824 -2.0178
  192SOL     OW 1474   6.837   5.288   5.258  0.2962  0.6320  0.1980
  192SOL    HW1 1475   6.822   5.341   5.174 -0.8104 -1.8306 -1.2943
  192SOL    HW2 1476   6.754   5.237   5.280  1.2795 -0.4686  1.5357
  193SOL     OW 1477   3.028   1.827   3.403 -0.3978 -0.3439  0.3574
  193SOL    HW1 1478   3.013   1.862   3.496 -1.1995  1.6835 -0.4597
  193SOL    HW2 1479   3.122   1.846   3.375 -0.1201 -1.0704  0.8031
  194SOL     OW 1480   2.915   3.726   6.706 -0.0369  0.0788  0.4537
  194SOL    HW1 1481   2.979   3.703   6.633  0.9777  1.8340  0.7495
  194SOL    HW2 1482   2.832   3.765   6.667  0.9468  2.0677  0.2109
  195SOL     OW 1483   5.650   0.920   0.188  0.8009  0.3966  0.5075
  195SOL    HW1 1484   5.561   0.877   0.204  0.3155  1.5189  0.9383
  195SOL    HW2 1485   5.721   0.866   0.232  0.0236  0.8234  2.3830
  196SOL     OW 1486   0.198   6.661   1.213  0.3984 -0.5746 -0.1399
  196SOL    HW1 1487   0.238   6.735   1.159 -0.9318  0.5844  0.3813
  196SOL    HW2 1488   0.170   6.697   1.303 -1.1296 -1.4617 -0.2176
  197SOL     OW 1489   6.919   4.689   6.283 -0.3000  0.2587 -0.0877
  197SOL    HW1 1490   6.945   4.627   6.357 -2.6058 -0.0250  0.5516
  197SOL    HW2 1491   6.902   4.636   6.200  0.3489  0.3589 -0.2905
  198SOL     OW 1492   2.562   6.896   6.611  0.1315  0.4432 -0.0333
  198SOL    HW1 1493   2.646   6.866   6.657  0.3602  1.4344  0.2099
  198SOL    HW2 1494   2.549   6.842   6.528 -0.2692 -1.3695  1.1412
  199SOL     OW 1495   0.808   0.252   0.055  0.3932 -0.3872  0.1338
  199SOL    HW1 1496   0.711   0.252   0.078 -0.0180  0.6091 -1.3992
  199SOL    HW2 1497   0.819   0.236  -0.044  1.7140  0.6798  0.0708
  200SOL     OW 1498   3.173   5.822   0.942  0.9727 -0.0473  0.1647
  200SOL    HW1 1499   3.257   5.871   0.921  1.1267  0.0389  0.9534
  200SOL    HW2 1500   3.181   5.727   0.912  2.0628 -0.5175  1.8524
  201SOL     OW 1501   5.912   2.576   4.017 -0.0823  0.3538 -0.3775
  201SOL    HW1 1502   5.868   2.528   3.941 -0.6953  0.4211 -0.0703
  201SOL    HW2 1503   5.900   2.674   4.005 -0.4935  0.3498 -0.0065
  202SOL     OW 1504   5.080   2.507   3.701  0.3491  0.5232  0.2987
  202SOL    HW1 1505   5.162   2.562   3.717 -0.1139  1.0666  0.8397
  202SOL    HW2 1506   5.012   2.528   3.771 -2.1491  3.6271 -2.7455
  203SOL     OW 1507   5.155   4.121   3.834 -0.0866  0.8545  0.0083
  203SOL    HW1 1508   5.103   4.174   3.901 -0.9323 -1.0475  0.9368
  203SOL    HW2 1509   5.221   4.062   3.881 -2.1057 -2.0665 -0.5201
  204SOL     OW 1510   5.729   6.052   1.168 -0.2634  0.0049 -0.2264
  204SOL    HW1 1511   5.763   6.057   1.074 -1.3953  1.8167 -0.5911
  204SOL    HW2 1512   5.783   6.115   1.225 -0.3564 -0.1852  0.0685
  205SOL     OW 1513   5.683   4.396   4.072  0.1954 -0.0970  0.4145
  205SOL    HW1 1514   5.733   4.412   4.158  1.2132  0.2254 -0.2159
  205SOL    HW2 1515   5.746   4.408   3.995 -0.5342 -1.0862 -0.3532
  206SOL     OW 1516   0.220   3.037   1.836 -0.2164 -0.2061 -0.0746
  206SOL    HW1 1517   0.313   3.009   1.859  0.2753  1.7953  0.5488
  206SOL    HW2 1518   0.218   3.075   1.744 -0.4333 -0.2392 -0.0858
  207SOL     OW 1519   6.237   1.859   2.970 -0.0499  0.0087  0.8090
  207SOL    HW1 1520   6.238   1.909   2.884  1.6304 -0.0101  0.7939
  207SOL    HW2 1521   6.248   1.761   2.952  4.7696  0.2864  1.1140
  208SOL     OW 1522   5.511   2.931   2.179 -0.0563  1.1881 -0.2089
  208SOL    HW1 1523   5.458   2.871   2.121  0.7941  1.9993 -1.8901
  208SOL    HW2 1524   5.575   2.984   2.124  1.6078  1.1903  1.5859
  209SOL     OW 1525   5.258   6.301   3.308  0.0631 -0.1989  0.1883
  209SOL    HW1 1526   5.158   6.294   3.315  0.1535 -0.7277  1.0469
  209SOL    HW2 1527   5.286   6.276   3.215 -0.2191 -5.6364  1.2107
  210SOL     OW 1528   4.888   2.226   4.853  0.1086 -0.2627  0.1601
  210SOL    HW1 1529   4.792   2.204   4.869  0.3975 -1.1639  0.7559
  210SOL    HW2 1530   4.941   2.201   4.934  1.2007 -2.0755 -1.0522
  211SOL     OW 1531   5.597   2.087   5.148  0.0275 -0.1888  0.0436
  211SOL    HW1 1532   5.636   2.169   5.191 -1.4746 -0.2816  1.6976
  211SOL    HW2 1533   5.500   2.102   5.129 -0.2750 -1.5657  0.3602
  212SOL     OW 1534   3.134   4.895   1.430  0.1819  0.1233 -0.3615
  212SOL    HW1 1535   3.194   4.970   1.456  0.8263  0.9333 -3.7806
  212SOL    HW2 1536   3.055   4.930   1.382 -0.5824 -1.2799 -0.1917
  213SOL     OW 1537   6.028   1.887   3.138  0.5264  0.7369 -0.0442
  213SOL    HW1 1538   6.005   1.822   3.067 -1.6598 -1.2601  2.2973
  213SOL    HW2 1539   6.116   1.930   3.117  0.5266 -0.5780 -3.2586
  214SOL     OW 1540   0.979   3.825   4.034  0.3974  0.0811  0.1641
  214SOL    HW1 1541   0.999   3.761   4.108 -0.4077  1.4998  1.6849
  214SOL    HW2 1542   0.879   3.836   4.026  0.4619 -0.1883 -1.2824
  215SOL     OW 1543   1.096   6.114   6.669  0.0250  0.2516 -0.8860
  215SOL    HW1 1544   1.051   6.027   6.687  0.9674  0.2770  2.0341
  215SOL    HW2 1545   1.029   6.188   6.671 -0.6318 -0.2543 -2.4936
  216SOL     OW 1546   4.917   2.226   2.901  0.1053  0.4335  0.5022
  216SOL    HW1 1547   5.008   2.186   2.908 -0.3845 -0.4470  2.4177
  216SOL    HW2 1548   4.848   2.156   2.920 -1.2246  0.3213 -3.6490
  217SOL     OW 1549   5.499   4.096   3.013  0.2403 -0.6201  0.1207
  217SOL    HW1 1550   5.478   4.102   3.110  1.2203 -0.3292  0.3270
  217SOL    HW2 1551   5.587   4.140   2.995  0.3043 -1.0986 -0.8166
  218SOL     OW 1552   3.572   3.125   4.048 -0.2981  0.3583  0.1346
  218SOL    HW1 1553   3.654   3.073   4.068 -0.3145 -0.6099 -2.0211
  218SOL    HW2 1554   3.492   3.074   4.079 -0.1524  0.6791  1.0413
  219SOL     OW 1555   5.746   4.111   4.217 -0.5238  0.1331  0.1391
  219SOL    HW1 1556   5.682   4.067   4.155  1.0734 -2.1682 -0.0279
  219SOL    HW2 1557   5.720   4.206   4.231 -3.4424 -0.4749 -0.5388
  220SOL     OW 1558   1.583   1.620   1.700 -0.3388  0.7331 -0.0935
  220SOL    HW1 1559   1.659   1.563   1.731 -1.7140 -0.6896  0.8001
  220SOL    HW2 1560   1.525   1.566   1.639 -1.9682  0.9526  1.1997
  221SOL     OW 1561   3.304   5.470   5.375  0.4225 -0.2498  0.3339
  221SOL    HW1 1562   3.212   5.470   5.335  0.9599 -0.5687 -0.9632
  221SOL    HW2 1563   3.330   5.563   5.401 -0.0956 -0.0904  0.2826
  222SOL     OW 1564   6.359   2.070   6.642 -0.4097 -0.2608 -0.0852
  222SOL    HW1 1565   6.354   2.133   6.564 -0.9675 -1.1091 -0.7501
  222SOL    HW2 1566   6.266   2.045   6.671 -0.2173 -2.0531 -0.8918
  223SOL     OW 1567   3.069   4.141   1.097 -0.9766  0.1182 -0.0604
  223SOL    HW1 1568   3.027   4.227   1.070 -1.0873 -0.1182 -0.6457
  223SOL    HW2 1569   3.142   4.117   1.033 -1.4782 -0.6199 -0.3702
  224SOL     OW 1570   2.088   2.652   2.591 -0.2609 -0.2475  0.6921
  224SOL    HW1 1571   2.169   2.709   2.605  0.5620 -1.3472  0.5583
  224SOL    HW2 1572   2.007   2.699   2.626  0.4660  0.7755  1.0361
  225SOL     OW 1573   5.661   4.271   6.689 -0.1908 -0.3684  0.3418
  225SOL    HW1 1574   5.635   4.307   6.599  0.3899  0.0487  0.3381
  225SOL    HW2 1575   5.718   4.189   6.676  0.6536  0.2089  0.3032
  226SOL     OW 1576   6.469   0.697   2.604  0.1779 -0.4749 -0.0673
  226SOL    HW1 1577   6.424   0.776   2.562 -1.7572 -0.7519  1.3635
  226SOL    HW2 1578   6.488   0.628   2.533 -0.3988  0.2288 -0.9264
  227SOL     OW 1579   2.491   0.317   6.719  0.9410 -0.0759 -0.7340
  227SOL    HW1 1580   2.517   0.408   6.688  1.4472 -0.1621 -0.5858
  227SOL    HW2 1581   2.563   0.251   6.693  1.4467 -0.1267  0.6938
  228SOL     OW 1582   1.694   4.624   2.464  0.1293  0.4340  0.7565
  228SOL    HW1 1583   1.705   4.672   2.551 -1.8038  1.7020  0.3722
  228SOL    HW2 1584   1.616   4.562   2.470  0.6818 -0.3134  0.2650
  229SOL     OW 1585   3.412   0.875   2.582 -0.0970  0.8228 -0.7056
  229SOL    HW1 1586   3.397   0.947   2.513 -1.1544  1.0562 -0.2536
  229SOL    HW2 1587   3.366   0.792   2.553 -0.9202  1.0502 -0.0898
  230SOL     OW 1588   0.945   4.625   3.128 -0.2146 -0.5895  0.3528
  230SOL    HW1 1589   0.982   4.535   3.148 -1.6846 -1.6229 -1.2466
  230SOL    HW2 1590   0.939   4.637   3.029 -2.2327  0.2782  0.5305
  231SOL     OW 1591   4.804   2.154   4.492  0.6652  1.0982 -0.5608
  231SOL    HW1 1592   4.789   2.082   4.560  0.3358  0.0079 -1.7355
  231SOL    HW2 1593   4.831   2.239   4.538  1.7665  0.0521  0.8307
  232SOL     OW 1594   6.438   1.372   3.791 -0.3736  0.0702  0.1193
  232SOL    HW1 1595   6.532   1.370   3.757 -0.4348 -0.5958 -0.0351
  232SOL    HW2 1596   6.386   1.441   3.741 -0.1478 -0.0642 -0.3083
  233SOL     OW 1597   2.482   1.776   0.535 -0.6114  0.4726  0.1676
  233SOL    HW1 1598   2.433   1.765   0.622  1.5207 -0.1033  1.3625
  233SOL    HW2 1599   2.567   1.826   0.551 -0.4073  0.7958 -1.7196
  234SOL     OW 1600   3.656   1.037   0.946 -0.4966 -0.3987 -0.6020
  234SOL    HW1 1601   3.687   1.042   1.041 -0.0613 -2.9057 -0.5266
  234SOL    HW2 1602   3.603   1.119   0.923  1.0233  1.1733  1.1639
  235SOL     OW 1603   4.881   5.813   0.711  0.1533  0.1700 -0.3144
  235SOL    HW1 1604   4.947   5.823   0.637 -0.9053 -1.3494 -1.5361
  235SOL    HW2 1605   4.853   5.717   0.717 -0.3555  0.4063  1.5785
  236SOL     OW 1606   2.453   6.703   1.735  0.3905 -0.0617 -0.4479
  236SOL    HW1 1607   2.520   6.713   1.808  1.7157 -1.6544 -1.3532
  236SOL    HW2 1608   2.486   6.749   1.653 -1.5039  2.4970  0.1243
  237SOL     OW 1609   2.862   6.991   5.667 -0.2299  0.4907  0.1914
  237SOL    HW1 1610   2.838   6.896   5.688 -0.8361  0.5940  0.0095
  237SOL    HW2 1611   2.858   7.045   5.750 -0.4554  0.4676  0.1971
  238SOL     OW 1612   6.312   3.713   6.320  0.0774 -0.5330  0.1949
  238SOL    HW1 1613   6.271   3.639   6.373  1.2314 -0.5109  1.1528
  238SOL    HW2 1614   6.321   3.685   6.225  0.3147 -1.5522  0.5063
  239SOL     OW 1615   2.959   6.326   2.576 -0.0498  0.4818  0.1435
  239SOL    HW1 1616   2.952   6.390   2.500  2.8043 -0.8924 -1.4357
  239SOL    HW2 1617   2.904   6.245   2.557  0.8505  0.0324 -0.6425
  240SOL     OW 1618   0.193   3.738   3.891 -0.4029  0.2315 -0.3031
  240SOL    HW1 1619   0.259   3.736   3.816 -1.1244  1.1242 -0.9817
  240SOL    HW2 1620   0.210   3.661   3.952  1.4429  0.5863 -0.3079
  241SOL     OW 1621   6.176   2.650   2.931 -0.1849  0.1265 -0.6279
  241SOL    HW1 1622   6.114   2.665   2.854 -0.0225 -0.5861 -0.9135
  241SOL    HW2 1623   6.240   2.576   2.908 -0.2337 -0.2047  0.2424
  242SOL     OW 1624   2.914   3.713   4.046 -0.5575  0.4724 -0.1486
  242SOL    HW1 1625   2.949   3.754   4.130  1.5651 -1.5576  0.0526
  242SOL    HW2 1626   2.931   3.775   3.970  2.0941  0.3046  0.2119
  243SOL     OW 1627   3.972   3.595   1.571 -0.5421  0.3812 -0.2377
  243SOL    HW1 1628   4.021   3.628   1.651 -0.2699 -0.0339 -0.2310
  243SOL    HW2 1629   4.014   3.632   1.488 -0.7735  0.7448 -0.1970
  244SOL     OW 1630   6.632   0.701   1.031 -0.0180 -0.1072 -0.0846
  244SOL    HW1 1631   6.602   0.796   1.019  2.3826  0.5849 -1.2111
  244SOL    HW2 1632   6.570   0.654   1.093 -2.0536  1.7986 -0.5679
  245SOL     OW 1633   6.615   5.283   2.680  0.4171  0.4982  0.0376
  245SOL    HW1 1634   6.576   5.329   2.600 -0.3000  1.5175  0.9519
  245SOL    HW2 1635   6.625   5.185   2.661 -1.3080  0.4420 -0.7127
  246SOL     OW 1636   4.526   0.776   1.251 -0.1552 -0.2311  0.0272
  246SOL    HW1 1637   4.595   0.741   1.314  1.7512  0.5800 -1.4788
  246SOL    HW2 1638   4.474   0.700   1.213 -0.0226 -0.8848  1.1150
  247SOL     OW 1639   2.747   5.034   1.855 -0.0441  0.0499 -0.0500
  247SOL    HW1 1640   2.713   5.122   1.888 -1.1190 -0.2657 -0.2588
  247SOL    HW2 1641   2.802   4.990   1.926 -0.6338  0.2894  0.5631
  248SOL     OW 1642   3.352   1.485   0.112 -0.4840 -0.1584 -0.4829
  248SOL    HW1 1643   3.343   1.416   0.040  0.3260 -1.4469  0.6005
  248SOL    HW2 1644   3.448   1.512   0.122 -0.7591  0.9817 -0.7356
  249SOL     OW 1645   2.038   0.113   1.763 -0.0438  0.1538  0.4777
  249SOL    HW1 1646   1.969   0.042   1.777  1.5284 -1.1825  1.8335
  249SOL    HW2 1647   2.119   0.072   1.721  0.1135  1.6186 -0.7205
  250SOL     OW 1648   0.416   3.164   6.013  0.7847  0.0112 -0.7679
  250SOL    HW1 1649   0.464   3.101   5.952  2.2274  2.1422 -1.9573
  250SOL    HW2 1650   0.344   3.211   5.962  0.3488  0.0448 -0.1395
  251SOL     OW 1651   3.609   3.001   3.525  0.7380  0.4752  0.1332
  251SOL    HW1 1652   3.680   3.070   3.533  0.5361  0.5997  0.9425
  251SOL    HW2 1653   3.551   3.002   3.607  1.2106 -1.1666  0.5300
  252SOL     OW 1654   6.753   6.414   5.557 -0.3837 -0.2432  0.1519
  252SOL    HW1 1655   6.736   6.379   5.649  1.3176 -2.3716 -0.2620
  252SOL    HW2 1656   6.850   6.405   5.535 -0.7055  0.3987 -1.7917
  253SOL     OW 1657   2.944   3.303   5.829 -0.5524 -0.1135 -0.0024
  253SOL    HW1 1658   2.944   3.397   5.864  0.3059 -0.3820  0.7362
  253SOL    HW2 1659   3.009   3.248   5.880 -1.7269 -1.3662  0.2035
  254SOL     OW 1660   4.375   5.866   3.214  0.6982 -0.0974  0.0931
  254SOL    HW1 1661   4.402   5.961   3.230 -1.2626  0.2314  1.9947
  254SOL    HW2 1662   4.346   5.855   3.118 -1.7411  2.0236  0.4788
  255SOL     OW 1663   3.000   2.546   6.629 -0.2081 -0.3700 -0.0555
  255SOL    HW1 1664   3.090   2.505   6.647 -1.0037 -3.2294 -2.0113
  255SOL    HW2 1665   3.012   2.627   6.572  1.1630 -0.1957  0.4273
  256SOL     OW 1666   3.453   4.419   1.198 -0.1556 -0.8120 -0.0663
  256SOL    HW1 1667   3.395   4.494   1.165 -1.4152 -1.2175  1.1529
  256SOL    HW2 1668   3.538   4.418   1.145 -0.1791  1.3421 -0.2517
  257SOL     OW 1669   1.510   5.432   2.218  0.4906 -0.8101  0.0080
  257SOL    HW1 1670   1.562   5.411   2.135 -1.0012 -1.4583 -0.7958
  257SOL    HW2 1671   1.415   5.404   2.206  0.1154 -0.3970  1.7430
  258SOL     OW 1672   1.422   2.057   1.592  0.0391  0.2434  0.0326
  258SOL    HW1 1673   1.467   2.120   1.529 -0.1524  0.0301 -0.3162
  258SOL    HW2 1674   1.491   2.018   1.654  0.2901  0.1448 -0.3058
  259SOL     OW 1675   5.270   1.509   6.449 -0.5413 -0.9465 -0.0264
  259SOL    HW1 1676   5.189   1.540   6.400 -0.2637 -0.1411  0.0136
  259SOL    HW2 1677   5.241   1.460   6.531 -1.0431  1.2935  1.2397
  260SOL     OW 1678   2.435   2.745   6.915 -0.3431 -0.2064  0.7465
  260SOL    HW1 1679   2.492   2.817   6.955  0.4536 -0.3245 -0.1364
  260SOL    HW2 1680   2.358   2.726   6.976 -0.7873  1.6524  0.8397
  261SOL     OW 1681   4.947   3.791   3.865 -0.6551  0.4438 -0.3201
  261SOL    HW1 1682   4.910   3.881   3.885  0.3012  1.2464 -1.9204
  261SOL    HW2 1683   5.047   3.798   3.856 -0.3556 -1.1425  1.3415
  262SOL     OW 1684   2.300   3.034   0.052 -0.1181  0.1152  0.3290
  262SOL    HW1 1685   2.207   3.052   0.085 -0.4339 -1.1246  0.2065
  262SOL    HW2 1686   2.365   3.049   0.126 -0.3863  1.1990  0.3598
  263SOL     OW 1687   1.591   0.199   4.878  0.5662 -0.0437 -0.1589
  263SOL    HW1 1688   1.621   0.288   4.843  0.6721 -0.3530 -0.8574
  263SOL    HW2 1689   1.645   0.126   4.836  0.2804 -0.4639  0.1915
  264SOL     OW 1690   0.487   1.640   6.250  0.7599 -0.0521  0.2551
  264SOL    HW1 1691   0.427   1.592   6.315 -1.3713  2.5023  0.3375
  264SOL    HW2 1692   0.571   1.587   6.238 -0.0822 -2.1864  2.6664
  265SOL     OW 1693   0.349   1.154   6.171 -0.2417  0.1366  1.0580
  265SOL    HW1 1694   0.395   1.205   6.099  0.0564  0.6531  1.6020
  265SOL    HW2 1695   0.250   1.168   6.162 -0.2352 -0.1575  0.4928
  266SOL     OW 1696   0.864   7.021   0.898  0.6502 -0.1661 -0.4371
  266SOL    HW1 1697   0.807   7.009   0.817 -0.1288 -1.4297  0.2564
  266SOL    HW2 1698   0.949   6.969   0.888  1.1796  0.7823 -0.9903
  267SOL     OW 1699   6.691   2.209   6.161  0.3497  0.2979  0.6989
  267SOL    HW1 1700   6.775   2.156   6.175  0.1351  0.1203  1.3634
  267SOL    HW2 1701   6.657   2.240   6.250  0.6834  1.8984  0.3031
  268SOL     OW 1702   0.653   0.283   0.691 -0.0970 -0.2017 -0.2302
  268SOL    HW1 1703   0.751   0.294   0.710 -0.4677  1.0100  1.0884
  268SOL    HW2 1704   0.616   0.369   0.656 -0.7571 -0.5816 -0.4759
  269SOL     OW 1705   1.359   1.441   5.222  0.1647  0.1632 -0.2645
  269SOL    HW1 1706   1.270   1.450   5.177 -0.3324 -0.7403  0.5088
  269SOL    HW2 1707   1.363   1.353   5.269  1.2842  0.4161  0.1216
  270SOL     OW 1708   3.762   5.454   0.199 -0.0124  0.3599 -0.0622
  270SOL    HW1 1709   3.754   5.358   0.172 -0.4346  0.0717  1.0301
  270SOL    HW2 1710   3.710   5.511   0.136 -0.0095 -0.1585 -0.5393
  271SOL     OW 1711   4.628   4.391   3.232  0.2118 -0.4493  0.0709
  271SOL    HW1 1712   4.546   4.434   3.193 -0.5620 -0.8844  1.1917
  271SOL    HW2 1713   4.687   4.359   3.157 -0.3090  0.4583 -0.7590
  272SOL     OW 1714   3.145   6.374   5.645 -0.0570 -0.0342 -0.3367
  272SOL    HW1 1715   3.116   6.296   5.700 -1.4164  0.1003 -0.8178
  272SOL    HW2 1716   3.238   6.359   5.611  0.8242 -0.1327  1.9411
  273SOL     OW 1717   0.120   3.791   0.635  0.0010  0.6167 -0.2556
  273SOL    HW1 1718   0.124   3.752   0.727  2.1932  0.0375 -0.5353
  273SOL    HW2 1719   0.082   3.723   0.572  0.4650  0.2223 -0.1217
  274SOL     OW 1720   6.134   4.631   6.305 -0.2990  0.4918 -0.7272
  274SOL    HW1 1721   6.166   4.677   6.388  0.9347 -1.0526 -0.2962
  274SOL    HW2 1722   6.035   4.646   6.295 -0.7195 -0.2302  1.6641
  275SOL     OW 1723   6.980   5.967   4.737 -0.0348  0.0075 -0.7238
  275SOL    HW1 1724   7.007   5.913   4.817 -1.8884 -0.8244 -0.6088
  275SOL    HW2 1725   7.056   5.972   4.673  0.5732 -1.7603 -0.1949
  276SOL     OW 1726   0.197   1.858   6.454  0.3937 -0.0367  0.0649
  276SOL    HW1 1727   0.195   1.833   6.357  0.0515 -1.6219  0.4455
  276SOL    HW2 1728   0.288   1.840   6.491  0.1387 -0.8302  0.3461
  277SOL     OW 1729   3.159   4.003   2.370  0.3452 -0.2540 -0.9375
  277SOL    HW1 1730   3.137   4.018   2.273  1.4705 -0.8190 -1.2907
  277SOL    HW2 1731   3.100   3.930   2.406 -0.1460  0.0248 -1.1621
  278SOL     OW 1732   0.424   3.551   1.593  0.4716 -0.1489  0.2980
  278SOL    HW1 1733   0.339   3.498   1.594  1.1845 -1.3352 -0.1684
  278SOL    HW2 1734   0.404   3.647   1.616 -1.2204 -0.0416 -1.4301
  279SOL     OW 1735   4.002   6.087   5.250 -0.1686 -0.8065  0.1369
  279SOL    HW1 1736   4.031   6.065   5.343 -2.3781 -0.7353  0.9065
  279SOL    HW2 1737   3.947   6.012   5.214  0.2977 -0.6348 -0.9614
  280SOL     OW 1738   6.495   4.903   6.604 -0.2066  0.0318  0.1354
  280SOL    HW1 1739   6.493   4.917   6.703  0.8401  1.7794 -0.0448
  280SOL    HW2 1740   6.570   4.841   6.581  0.7262  1.0688  0.3185
  281SOL     OW 1741   1.201   0.164   3.774 -0.6677 -0.0064 -0.1934
  281SOL    HW1 1742   1.216   0.121   3.684 -1.2720  0.0622 -0.3294
  281SOL    HW2 1743   1.182   0.261   3.761  2.6417  0.8081  0.2254
  282SOL     OW 1744   5.661   2.084   6.890  0.2244 -0.4863 -0.2778
  282SOL    HW1 1745   5.619   2.163   6.845 -1.0543 -1.4849 -0.9229
  282SOL    HW2 1746   5.755   2.073   6.857  0.1378  0.2632 -0.8145
  283SOL     OW 1747   0.324   5.903   6.920  0.3920  0.1485 -0.0942
  283SOL    HW1 1748   0.365   5.918   7.009 -0.1444 -0.1559  0.2073
  283SOL    HW2 1749   0.289   5.810   6.914 -0.3019  0.4153 -0.3186
  284SOL     OW 1750   1.274   3.012   3.497  0.5819  0.0953 -0.9376
  284SOL    HW1 1751   1.351   3.060   3.455  0.1447 -0.4588 -2.4347
  284SOL    HW2 1752   1.192   3.024   3.441 -0.8418  1.8523  1.3493
  285SOL     OW 1753   4.222   0.501   5.389  0.1177  0.2982 -0.3641
  285SOL    HW1 1754   4.230   0.500   5.289 -2.0523  1.1093 -0.5997
  285SOL    HW2 1755   4.127   0.517   5.415  0.6260  0.0652  1.8577
  286SOL     OW 1756   6.966   4.307   0.756 -0.0491  0.0463 -0.3883
  286SOL    HW1 1757   6.989   4.273   0.848  1.9287  2.0773 -0.0450
  286SOL    HW2 1758   6.887   4.368   0.762  0.0369  0.1267 -0.0487
  287SOL     OW 1759   4.562   6.210   3.841 -0.3999 -0.2234  0.5434
  287SOL    HW1 1760   4.543   6.121   3.883  1.3606 -1.1354 -0.4747
  287SOL    HW2 1761   4.476   6.259   3.826 -1.3357 -1.3435  1.9490
  288SOL     OW 1762   6.136   1.329   4.595 -0.3205 -0.0005 -0.5349
  288SOL    HW1 1763   6.176   1.286   4.675 -1.4092 -0.7020 -0.3394
  288SOL    HW2 1764   6.190   1.408   4.568 -0.5282  0.9037  1.5533
  289SOL     OW 1765   2.037   0.546   3.242  0.1050  0.5606 -0.1416
  289SOL    HW1 1766   1.995   0.456   3.257  0.6140  0.7741  3.4592
  289SOL    HW2 1767   2.133   0.543   3.270  0.0721  2.2694  0.2747
  290SOL     OW 1768   5.937   2.582   1.323 -0.1636 -0.6352 -0.2639
  290SOL    HW1 1769   5.894   2.584   1.233  0.2922  0.7745 -0.4589
  290SOL    HW2 1770   5.951   2.487   1.351 -3.0512 -1.1926 -0.3586
  291SOL     OW 1771   2.972   3.908   1.516  0.2981  0.2893 -0.8700
  291SOL    HW1 1772   3.014   3.817   1.509  0.4247  0.3901 -1.5342
  291SOL    HW2 1773   2.911   3.911   1.595  2.2094  0.4058  0.6834
  292SOL     OW 1774   3.090   0.679   4.125  0.1138 -0.5914 -0.2601
  292SOL    HW1 1775   3.113   0.703   4.219  1.1162  0.0570 -0.6567
  292SOL    HW2 1776   3.000   0.716   4.102  0.3361  0.2137  0.1108
  293SOL     OW 1777   4.519   1.744   2.621  0.0498 -0.2566 -0.2587
  293SOL    HW1 1778   4.521   1.803   2.701 -1.1999 -0.9100  0.2733
  293SOL    HW2 1779   4.609   1.746   2.576  0.6482  0.4134  0.9288
  294SOL     OW 1780   2.373   6.010   4.442 -0.2344 -0.2890 -0.8333
  294SOL    HW1 1781   2.357   6.024   4.344 -1.1097  0.6779 -0.5719
  294SOL    HW2 1782   2.468   6.030   4.463 -0.1622  0.0163 -1.4093
  295SOL     OW 1783   5.906   1.698   1.743 -0.4582 -0.4657 -0.7840
  295SOL    HW1 1784   5.852   1.743   1.813  0.1721  0.7466 -1.0583
  295SOL    HW2 1785   5.967   1.631   1.787  0.8284  1.1551  0.0045
  296SOL     OW 1786   1.633   2.714   5.227  0.1426  0.2415 -0.5648
  296SOL    HW1 1787   1.716   2.658   5.217 -1.3174 -1.8151 -1.9111
  296SOL    HW2 1788   1.588   2.723   5.139 -1.0260  1.4304  0.1212
  297SOL     OW 1789   2.840   6.199   5.538 -0.3006 -0.2797 -0.1925
  297SOL    HW1 1790   2.781   6.149   5.602 -2.3715  1.4207 -0.6625
  297SOL    HW2 1791   2.844   6.149   5.452  0.9425 -1.6027  0.5799
  298SOL     OW 1792   2.347   2.395   6.894 -0.1489  0.1737 -1.0511
  298SOL    HW1 1793   2.258   2.422   6.856  0.0538  0.0548 -1.6115
  298SOL    HW2 1794   2.417   2.458   6.861 -0.3395  1.6132  1.1042
  299SOL     OW 1795   0.928   3.825   5.212  0.3790 -0.6959  0.6119
  299SOL    HW1 1796   0.840   3.870   5.225  1.2712  0.7768  1.9502
  299SOL    HW2 1797   0.915   3.740   5.160 -1.6482  0.0328 -0.1679
  300SOL     OW 1798   4.687   5.453   4.504  0.0470  0.3036  0.6154
  300SOL    HW1 1799   4.637   5.451   4.418  0.9215 -2.3408  0.0982
  300SOL    HW2 1800   4.782   5.427   4.489  0.0582 -0.9205  2.4534
  301SOL     OW 1801   6.977   0.968   1.974 -1.1219 -0.7147 -0.2839
  301SOL    HW1 1802   6.895   0.958   1.918 -1.9440  1.5725  0.3763
  301SOL    HW2 1803   6.970   0.909   2.054 -1.0630 -2.1949 -1.3413
  302SOL     OW 1804   5.863   3.433   6.169  0.5808  0.0195 -0.2047
  302SOL    HW1 1805   5.915   3.475   6.095  0.9291  0.5185  0.3192
  302SOL    HW2 1806   5.925   3.379   6.227  0.7045  1.3817  0.9710
  303SOL     OW 1807   3.855   1.742   1.421  0.2457  0.1620 -0.3200
  303SOL    HW1 1808   3.809   1.831   1.412 -0.6139 -0.3414 -1.2045
  303SOL    HW2 1809   3.860   1.716   1.517 -1.2438  0.3067 -0.1796
  304SOL     OW 1810   2.096   3.765   2.450 -0.4643  0.2510  0.1556
  304SOL    HW1 1811   2.016   3.726   2.496  0.5687 -1.3364  0.7113
  304SOL    HW2 1812   2.158   3.804   2.518  0.8722 -1.7291  0.1635
  305SOL     OW 1813   2.706   5.684   0.267  0.1203 -0.3817  0.1432
  305SOL    HW1 1814   2.794   5.727   0.245  0.2499 -0.6724  0.0892
  305SOL    HW2 1815   2.653   5.671   0.184  0.0946 -0.3499  0.1551
  306SOL     OW 1816   7.007   5.821   1.958 -0.5165  0.0555 -0.5800
  306SOL    HW1 1817   7.018   5.835   2.056  0.1427 -1.3102 -0.4418
  306SOL    HW2 1818   7.049   5.898   1.909  1.4393 -0.4733  0.1684
  307SOL     OW 1819   0.005   1.052   6.616  0.1134 -0.0339  0.1447
  307SOL    HW1 1820  -0.001   1.081   6.711 -2.7011 -0.0471  0.0498
  307SOL    HW2 1821   0.016   1.133   6.557  2.2194 -0.0501  0.4210
  308SOL     OW 1822   6.301   5.507   5.373 -0.2307  0.4314  0.1418
  308SOL    HW1 1823   6.393   5.540   5.354 -0.0264  0.1921  0.7171
  308SOL    HW2 1824   6.291   5.486   5.470 -0.2713 -1.3949 -0.2127
  309SOL     OW 1825   0.437   2.819   0.924 -0.2565  0.6030  0.3051
  309SOL    HW1 1826   0.531   2.792   0.902 -0.4735 -1.5097  1.6829
  309SOL    HW2 1827   0.430   2.839   1.022 -0.9363  2.3117 -0.0541
  310SOL     OW 1828   6.210   4.953   4.821 -0.4708  0.2794 -0.5104
  310SOL    HW1 1829   6.151   4.940   4.900 -2.5093  1.1766 -1.7858
  310SOL    HW2 1830   6.269   5.033   4.835 -0.3718  0.0605  0.3364
  311SOL     OW 1831   2.189   5.186   4.459  0.2463  0.0104 -0.8120
  311SOL    HW1 1832   2.203   5.193   4.557  1.4923 -1.0100 -0.8946
  311SOL    HW2 1833   2.111   5.126   4.441 -1.4039  1.9459 -0.4378
  312SOL     OW 1834   4.049   0.028   0.295 -0.1496 -0.0965  0.4519
  312SOL    HW1 1835   4.000  -0.008   0.216  1.3085 -2.0352  0.3425
  312SOL    HW2 1836   4.138   0.063   0.265  0.5555 -1.1494  1.2167
  313SOL     OW 1837   5.757   0.621   4.662  0.1724  0.8696 -0.4140
  313SOL    HW1 1838   5.759   0.642   4.564 -1.2719  0.8276 -0.4773
  313SOL    HW2 1839   5.841   0.573   4.688 -0.2069 -0.8151 -2.0485
  314SOL     OW 1840   6.682   2.266   5.777  0.3775 -0.8159 -0.0150
  314SOL    HW1 1841   6.588   2.296   5.764  0.0464 -1.1294  1.5001
  314SOL    HW2 1842   6.741   2.346   5.794 -0.2221 -0.8194  2.3949
  315SOL     OW 1843   2.423   2.784   6.376 -0.1243 -0.3883  0.0948
  315SOL    HW1 1844   2.398   2.795   6.280  1.1476  1.6108 -0.0569
  315SOL    HW2 1845   2.473   2.865   6.407 -0.7948 -0.8370  2.5446
  316SOL     OW 1846   5.335   5.226   6.249 -0.4330 -0.6852 -0.0878
  316SOL    HW1 1847   5.265   5.169   6.206  0.5182 -0.1551 -2.5223
  316SOL    HW2 1848   5.425   5.186   6.232  0.1428  0.7545 -0.5534
  317SOL     OW 1849   5.572   4.375   6.431  0.2414 -0.3994 -0.1657
  317SOL    HW1 1850   5.479   4.358   6.463  0.1549  0.6797  0.1955
  317SOL    HW2 1851   5.583   4.473   6.412  1.6577 -0.3092  0.9667
  318SOL     OW 1852   4.419   4.442   0.633  0.0860  0.3700 -0.2234
  318SOL    HW1 1853   4.393   4.508   0.562  0.4393  0.9777  0.1999
  318SOL    HW2 1854   4.506   4.399   0.608 -0.9833 -1.2652 -1.3717
  319SOL     OW 1855   5.993   2.383   6.693  0.2016  0.1337  0.3161
  319SOL    HW1 1856   5.982   2.481   6.715 -1.8090  0.4715 -1.8125
  319SOL    HW2 1857   6.049   2.374   6.611  0.4004 -0.4985  0.5232
  320SOL     OW 1858   2.360   4.617   6.984  1.0167 -0.1757  0.5681
  320SOL    HW1 1859   2.260   4.626   6.976  0.9108 -0.4271  1.5008
  320SOL    HW2 1860   2.401   4.620   6.893  0.2325  0.8346  0.2251
  321SOL     OW 1861   0.952   0.148   2.876 -0.3672 -0.3688 -0.4834
  321SOL    HW1 1862   0.877   0.172   2.939  0.3781  1.4156 -0.1978
  321SOL    HW2 1863   0.950   0.210   2.798 -0.0179 -1.2303 -1.1876
  322SOL     OW 1864   2.207   3.754   0.807  1.0479  0.3314 -0.0589
  322SOL    HW1 1865   2.141   3.688   0.843  0.9151 -0.0474 -0.9653
  322SOL    HW2 1866   2.250   3.803   0.882 -1.9837  2.2802  0.5729
  323SOL     OW 1867   6.199   5.382   1.117  0.3268  0.3019  0.2582
  323SOL    HW1 1868   6.194   5.460   1.179  2.4728  1.2585 -0.7020
  323SOL    HW2 1869   6.289   5.378   1.074 -0.5149 -1.3380 -1.5302
  324SOL     OW 1870   5.204   3.651   0.793 -0.6830 -0.2222  0.3147
  324SOL    HW1 1871   5.109   3.660   0.764 -1.0783 -0.3895  1.4982
  324SOL    HW2 1872   5.242   3.742   0.810 -0.3263 -0.0996 -1.0517
  325SOL     OW 1873   1.955   0.848   3.290 -0.0380 -0.0030  0.7090
  325SOL    HW1 1874   1.961   0.863   3.389  0.7693  0.6767  0.5766
  325SOL    HW2 1875   1.954   0.750   3.271  1.1652 -0.1641  1.3498
  326SOL     OW 1876   0.493   1.054   3.507 -0.0136 -0.5332 -0.4642
  326SOL    HW1 1877   0.472   1.038   3.410  0.2201  0.7438 -0.7517
  326SOL    HW2 1878   0.408   1.067   3.558 -0.3079 -3.7563  0.0465
  327SOL     OW 1879   3.263   1.935   5.162 -0.8876  0.1560  0.0883
  327SOL    HW1 1880   3.205   1.936   5.080  2.2524  1.3286 -2.3607
  327SOL    HW2 1881   3.223   1.994   5.232 -3.0875  0.0870 -1.0154
  328SOL     OW 1882   2.449   3.965   5.788  0.3508 -0.2766  0.1468
  328SOL    HW1 1883   2.419   3.944   5.881  0.0913 -2.1065 -0.3245
  328SOL    HW2 1884   2.380   4.023   5.743 -0.3229 -0.7480  0.5564
  329SOL     OW 1885   3.090   3.554   3.148 -0.3017 -0.1559  0.0507
  329SOL    HW1 1886   3.049   3.640   3.118 -1.2482 -0.7234 -0.3010
  329SOL    HW2 1887   3.031   3.510   3.215 -0.9171 -1.5699 -1.3516
  330SOL     OW 1888   2.247   2.487   3.124 -0.5291 -0.1774  0.5702
  330SOL    HW1 1889   2.329   2.507   3.071  0.9192 -2.4895  1.7621
  330SOL    HW2 1890   2.172   2.463   3.063  0.1702  0.3063 -0.5050
  331SOL     OW 1891   1.208   5.878   1.182  0.0850  0.0120 -0.1367
  331SOL    HW1 1892   1.278   5.808   1.188 -0.1174 -0.1394  0.6855
  331SOL    HW2 1893   1.120   5.836   1.161  0.0259  0.0621  0.0096
  332SOL     OW 1894   5.731   3.488   4.133 -0.1410 -0.3326  0.4089
  332SOL    HW1 1895   5.755   3.519   4.225  1.0175 -0.2475  0.0962
  332SOL    HW2 1896   5.759   3.392   4.122 -2.3834 -1.1080  0.8898
  333SOL     OW 1897   1.756   5.127   6.397  0.1938 -0.4451 -0.2208
  333SOL    HW1 1898   1.805   5.202   6.443 -0.4600 -0.2591  0.1803
  333SOL    HW2 1899   1.816   5.048   6.391  0.7850  0.0031 -0.3558
  334SOL     OW 1900   5.226   3.076   3.246 -0.7053 -0.3946 -0.3739
  334SOL    HW1 1901   5.252   3.169   3.273 -1.7928  0.4110 -2.0055
  334SOL    HW2 1902   5.258   3.011   3.316  0.2528  1.1635  0.6846
  335SOL     OW 1903   2.558   6.788   6.379  0.1712  0.1705  0.2288
  335SOL    HW1 1904   2.534   6.808   6.284 -0.0018  0.8181  0.4087
  335SOL    HW2 1905   2.629   6.718   6.381 -0.7385 -0.7983 -0.3494
  336SOL     OW 1906   6.125   4.548   5.361 -0.4270 -0.2638 -0.2818
  336SOL    HW1 1907   6.092   4.454   5.352 -1.7416  0.0909  0.6231
  336SOL    HW2 1908   6.222   4.547   5.387 -0.1657 -1.3409 -1.2017
  337SOL     OW 1909   2.757   6.477   5.064 -0.3025  0.2055  0.3142
  337SOL    HW1 1910   2.710   6.413   5.124  1.0134 -0.7686  0.3440
  337SOL    HW2 1911   2.855   6.464   5.071 -0.0924  0.2229 -1.8539
  338SOL     OW 1912   5.594   2.745   1.772 -0.3866  0.0368  0.0403
  338SOL    HW1 1913   5.633   2.698   1.692  0.6480 -0.4589  0.8059
  338SOL    HW2 1914   5.546   2.827   1.742  1.5269  0.8674 -0.9851
  339SOL     OW 1915   6.341   1.964   6.360 -0.0888 -0.4509 -0.1175
  339SOL    HW1 1916   6.264   1.943   6.420 -1.0561  3.3249  0.2486
  339SOL    HW2 1917   6.415   2.005   6.414  0.9435 -1.2436 -0.8944
  340SOL     OW 1918   4.825   5.050   0.673 -0.3357  0.4157 -0.2793
  340SOL    HW1 1919   4.850   5.118   0.604 -1.7369 -0.6303 -1.8816
  340SOL    HW2 1920   4.875   4.965   0.656  0.9797  0.8146  1.3735
  341SOL     OW 1921   6.369   5.014   1.268  0.2057  0.6883  0.0269
  341SOL    HW1 1922   6.439   4.966   1.214  0.0577 -0.9286  1.1803
  341SOL    HW2 1923   6.288   5.028   1.211  0.6994  0.6414 -0.7023
  342SOL     OW 1924   6.168   4.218   1.443  0.3159  0.0527 -0.3972
  342SOL    HW1 1925   6.244   4.222   1.378  0.3542 -1.1508 -0.4580
  342SOL    HW2 1926   6.204   4.206   1.535  0.2286  0.6467 -0.2837
  343SOL     OW 1927   4.883   6.336   5.062 -0.0965  0.2637  0.0813
  343SOL    HW1 1928   4.947   6.276   5.014 -1.6088 -0.9287 -0.5190
  343SOL    HW2 1929   4.859   6.294   5.150 -0.5570  0.3806  0.0101
  344SOL     OW 1930   4.263   6.356   4.401 -0.0633  0.0075  0.6206
  344SOL    HW1 1931   4.170   6.391   4.404  0.1580  0.6421  0.3258
  344SOL    HW2 1932   4.304   6.358   4.492 -0.1355  0.2870  0.6458
  345SOL     OW 1933   1.544   5.158   3.987 -0.0698  0.2049 -0.2058
  345SOL    HW1 1934   1.553   5.104   4.070  0.7579 -0.3314 -0.6270
  345SOL    HW2 1935   1.635   5.183   3.953 -0.2310 -1.7437 -2.3244
  346SOL     OW 1936   1.965   5.270   1.320  0.0746  1.0320 -0.2392
  346SOL    HW1 1937   2.049   5.285   1.373  0.1493  1.4065 -0.4645
  346SOL    HW2 1938   1.914   5.194   1.360  1.6225 -0.7247 -1.4236
  347SOL     OW 1939   5.607   4.460   3.282  0.8969 -0.0393  0.0627
  347SOL    HW1 1940   5.528   4.415   3.239  1.3641  1.3516 -2.4881
  347SOL    HW2 1941   5.691   4.410   3.259  1.1757  0.8326 -0.9025
  348SOL     OW 1942   4.282   0.269   3.275  0.2477  0.2348 -0.0694
  348SOL    HW1 1943   4.230   0.316   3.346 -0.4492 -0.7915  0.1292
  348SOL    HW2 1944   4.259   0.171   3.277  0.8987  0.0497 -1.1169
  349SOL     OW 1945   5.430   6.993   6.813 -0.7863  0.1318  0.2550
  349SOL    HW1 1946   5.426   7.000   6.714 -1.4003 -2.6971 -0.0180
  349SOL    HW2 1947   5.522   6.966   6.842  0.2477  3.7200  0.8280
  350SOL     OW 1948   2.839   6.787   2.395 -0.0963 -0.9865 -0.1888
  350SOL    HW1 1949   2.797   6.805   2.306  0.1639 -0.9098 -0.2972
  350SOL    HW2 1950   2.811   6.697   2.427  0.6197 -1.4534 -0.8273
  351SOL     OW 1951   2.550   1.857   5.491 -0.3218 -0.1071  0.3196
  351SOL    HW1 1952   2.522   1.780   5.433  1.8403 -1.7049  1.2795
  351SOL    HW2 1953   2.491   1.861   5.572 -0.9107 -0.2740 -0.0927
  352SOL     OW 1954   0.194   6.437   5.633  0.1927 -0.4159  0.3730
  352SOL    HW1 1955   0.200   6.468   5.728 -0.2317 -0.2042  0.3317
  352SOL    HW2 1956   0.285   6.442   5.591 -0.1601  2.5382 -0.1890
  353SOL     OW 1957   5.518   0.487   6.515  0.4029  0.0304 -0.1191
  353SOL    HW1 1958   5.489   0.477   6.420  1.3774  0.4401 -0.4708
  353SOL    HW2 1959   5.447   0.451   6.576 -0.3897  0.1061 -0.9823
  354SOL     OW 1960   5.115   1.556   2.072  0.7471  0.1327 -0.3997
  354SOL    HW1 1961   5.121   1.499   1.990  0.3931  0.1884 -0.4635
  354SOL    HW2 1962   5.049   1.629   2.057  0.2627 -0.1933  0.1428
  355SOL     OW 1963   3.971   1.834   6.971 -0.5256 -0.5453  0.6852
  355SOL    HW1 1964   3.949   1.871   6.880 -1.9500 -0.1052  1.1751
  355SOL    HW2 1965   4.067   1.851   6.991  0.1119 -1.6619 -1.1914
  356SOL     OW 1966   6.818   5.368   4.261 -0.1962 -0.4342 -0.0892
  356SOL    HW1 1967   6.726   5.341   4.231 -0.4939  1.2120 -0.7754
  356SOL    HW2 1968   6.813   5.459   4.302  0.6472 -1.5550  2.6861
  357SOL     OW 1969   3.977   0.797   6.680 -0.0551 -0.2894 -0.4453
  357SOL    HW1 1970   3.887   0.838   6.698  0.0455  0.1283 -0.8646
  357SOL    HW2 1971   4.048   0.865   6.699  0.0874 -0.0335 -1.7418
  358SOL     OW 1972   2.294   3.976   0.170  0.0287 -0.0201  0.1558
  358SOL    HW1 1973   2.352   4.050   0.135 -0.7443  2.3703  3.4300
  358SOL    HW2 1974   2.335   3.937   0.252 -1.4857 -0.4096  0.7655
  359SOL     OW 1975   6.418   5.987   5.173 -0.1969  0.2329 -0.2962
  359SOL    HW1 1976   6.501   6.023   5.216  1.8345 -1.1647 -2.7327
  359SOL    HW2 1977   6.390   6.049   5.099 -1.5971  0.8817  0.7452
  360SOL     OW 1978   6.042   4.713   0.744  0.0834 -0.3618 -0.1769
  360SOL    HW1 1979   6.064   4.642   0.810 -0.7764 -0.0435  0.4654
  360SOL    HW2 1980   6.039   4.673   0.652  0.2274 -1.0181  0.0981
  361SOL     OW 1981   5.893   1.315   4.824 -0.1302  0.0219 -0.2907
  361SOL    HW1 1982   5.844   1.399   4.847  0.7231  0.7338 -0.9994
  361SOL    HW2 1983   5.861   1.282   4.735 -0.4663 -0.4150 -0.0110
  362SOL     OW 1984   2.827   0.947   4.656 -0.0615 -0.0352  0.5202
  362SOL    HW1 1985   2.848   0.935   4.559  1.2467 -1.1843  0.9173
  362SOL    HW2 1986   2.735   0.985   4.666 -0.2922 -0.0966 -1.1600
  363SOL     OW 1987   3.581   0.041   4.568  0.6836 -0.3067 -0.0962
  363SOL    HW1 1988   3.512   0.103   4.532  0.1100 -1.2519 -0.6439
  363SOL    HW2 1989   3.548  -0.001   4.652  0.9324 -0.1468  0.0850
  364SOL     OW 1990   4.863   5.550   2.937 -0.0322 -0.4116  0.1666
  364SOL    HW1 1991   4.849   5.507   2.848  1.4879  0.7905 -0.6979
  364SOL    HW2 1992   4.774   5.575   2.976 -0.6859 -0.0293 -1.4747
  365SOL     OW 1993   3.114   1.313   1.845  0.4249 -0.3893  0.1541
  365SOL    HW1 1994   3.125   1.282   1.939  0.6112 -1.4161 -0.1927
  365SOL    HW2 1995   3.102   1.412   1.844 -0.5074 -0.4629  1.3252
  366SOL     OW 1996   5.254   3.219   6.851 -0.2288 -0.2317  0.1778
  366SOL    HW1 1997   5.279   3.312   6.877 -0.4178 -0.1332  0.0122
  366SOL    HW2 1998   5.247   3.162   6.932 -2.4972  0.4705  0.5626
  367SOL     OW 1999   3.223   3.777   0.650  0.0322  0.1865  0.0799
  367SOL    HW1 2000   3.293   3.708   0.629 -0.9860 -0.8238 -0.0829
  367SOL    HW2 2001   3.144   3.733   0.693 -1.7104  0.7775 -2.2758
  368SOL     OW 2002   6.589   4.173   4.126 -0.2931 -0.4730 -0.2759
  368SOL    HW1 2003   6.596   4.228   4.043 -0.5853  0.1729  0.1167
  368SOL    HW2 2004   6.515   4.209   4.183  1.0284  0.2165  1.0826
  369SOL     OW 2005   6.768   1.016   3.639  0.4561 -0.0649 -0.0177
  369SOL    HW1 2006   6.780   1.105   3.595 -0.0071 -0.0475 -0.1188
  369SOL    HW2 2007   6.749   0.947   3.568 -0.2855 -0.0388  0.1494
  370SOL     OW 2008   0.400   2.838   6.607  0.1639 -0.2079 -0.8575
  370SOL    HW1 2009   0.324   2.897   6.580 -2.2860 -2.4334  0.6639
  370SOL    HW2 2010   0.414   2.845   6.705  1.4044 -0.4427 -1.0081
  371SOL     OW 2011   1.009   6.655   3.788 -0.4684  0.7962  0.2019
  371SOL    HW1 2012   0.991   6.750   3.761 -0.8046  0.9525  0.9469
  371SOL    HW2 2013   1.059   6.655   3.875 -2.0250  0.2792  1.1361
  372SOL     OW 2014   4.553   6.386   0.742 -0.3192  0.7568  0.5972
  372SOL    HW1 2015   4.650   6.407   0.754 -0.5702  2.3818  0.0183
  372SOL    HW2 2016   4.541   6.287   0.740  1.3038  0.5209  0.8152
  373SOL     OW 2017   3.204   4.043   2.684  0.4871  0.0204 -0.0053
  373SOL    HW1 2018   3.217   4.066   2.588  0.6947 -2.2524 -0.5783
  373SOL    HW2 2019   3.278   4.082   2.738  1.3008 -0.0771 -1.0222
  374SOL     OW 2020   2.596   2.547   3.610  0.4446 -0.4579 -0.4371
  374SOL    HW1 2021   2.677   2.596   3.641 -0.3632  0.9672 -0.4561
  374SOL    HW2 2022   2.604   2.451   3.634  1.6143 -0.1317  0.6077
  375SOL     OW 2023   5.186   5.023   5.107 -0.2205 -0.7229 -0.2708
  375SOL    HW1 2024   5.158   5.094   5.171  2.6212  1.4255 -1.1897
  375SOL    HW2 2025   5.196   5.062   5.015  3.5343 -1.5791 -0.4063
  376SOL     OW 2026   5.644   5.140   6.748 -0.1402 -0.0384  0.1388
  376SOL    HW1 2027   5.634   5.174   6.655  1.5127 -0.8513 -0.3780
  376SOL    HW2 2028   5.661   5.216   6.810 -1.7527  0.5684 -0.0965
  377SOL     OW 2029   2.336   4.436   0.169 -0.2904 -0.7199 -0.3216
  377SOL    HW1 2030   2.368   4.523   0.131 -4.6665  1.5846  0.6440
  377SOL    HW2 2031   2.392   4.361   0.133  2.8901  2.2662 -2.2278
  378SOL     OW 2032   4.255   3.041   1.186 -0.2535 -0.3055 -0.1385
  378SOL    HW1 2033   4.212   3.131   1.178 -1.9468 -1.0745 -0.0631
  378SOL    HW2 2034   4.239   2.990   1.101  1.7343 -0.1429 -0.6631
  379SOL     OW 2035   5.353   0.445   2.871 -0.5524  0.2744  0.0146
  379SOL    HW1 2036   5.419   0.516   2.893 -0.3550  0.3471 -0.7723
  379SOL    HW2 2037   5.400   0.361   2.846 -0.7917 -0.5872  2.2771
  380SOL     OW 2038   6.680   4.792   0.733 -0.1048 -0.1866 -0.1554
  380SOL    HW1 2039   6.606   4.744   0.779  0.6530 -1.3976 -0.1694
  380SOL    HW2 2040   6.768   4.764   0.771  0.6854 -2.4181 -3.2166
  381SOL     OW 2041   2.209   3.924   2.646  0.0258  0.0858  0.4234
  381SOL    HW1 2042   2.237   3.948   2.740  0.4943 -1.2886  0.6528
  381SOL    HW2 2043   2.249   3.990   2.582  0.1871  0.6979  1.1350
  382SOL     OW 2044   1.655   6.743   2.234 -0.4006 -0.2420  0.0777
  382SOL    HW1 2045   1.624   6.728   2.328 -0.5286  0.6281  0.1775
  382SOL    HW2 2046   1.753   6.720   2.227 -0.4000 -0.3470  0.4064
  383SOL     OW 2047   4.982   4.993   3.966 -0.2016 -0.6287  0.0245
  383SOL    HW1 2048   4.958   4.938   3.886 -1.4336 -0.3843  0.1999
  383SOL    HW2 2049   4.899   5.035   4.004  0.4303 -0.3036  1.1070
  384SOL     OW 2050   6.241   5.752   3.680  0.2385  0.0702  0.2981
  384SOL    HW1 2051   6.166   5.691   3.656  0.5918 -0.7777  1.2576
  384SOL    HW2 2052   6.303   5.762   3.602 -0.4835  0.2245 -0.2717
  385SOL     OW 2053   4.446   4.990   6.371 -0.1466 -0.4602  0.4185
  385SOL    HW1 2054   4.465   5.085   6.397 -2.7502  0.1018  0.5574
  385SOL    HW2 2055   4.459   4.979   6.273 -1.1578  0.4625  0.1501
  386SOL     OW 2056   1.363   2.280   2.781 -0.0935 -0.2784 -0.2168
  386SOL    HW1 2057   1.377   2.268   2.879  0.0133 -2.5417 -0.4552
  386SOL    HW2 2058   1.272   2.316   2.764  0.3203  1.3158  0.7370
  387SOL     OW 2059   6.914   3.965   4.814  0.2602  0.2512  0.1269
  387SOL    HW1 2060   6.824   4.008   4.825  0.0137 -0.6528  2.2995
  387SOL    HW2 2061   6.985   4.028   4.844  0.3728  0.8567 -1.3126
  388SOL     OW 2062   0.922   6.667   0.188 -0.3120  0.6586  0.7381
  388SOL    HW1 2063   0.988   6.651   0.114 -1.2025 -0.0323  0.0674
  388SOL    HW2 2064   0.927   6.591   0.253  0.4866  1.2772  1.4138
  389SOL     OW 2065   6.291   3.404   5.926 -0.3513  0.5519  0.3759
  389SOL    HW1 2066   6.274   3.356   6.012 -0.4250 -0.4647 -0.1871
  389SOL    HW2 2067   6.273   3.342   5.849 -1.7544  1.8741 -0.4283
  390SOL     OW 2068   2.626   5.305   3.330  0.2050 -0.0033 -0.2413
  390SOL    HW1 2069   2.597   5.211   3.310  1.1010  0.0137 -1.8177
  390SOL    HW2 2070   2.724   5.313   3.314 -0.1072  1.5376 -1.6571
  391SOL     OW 2071   4.908   0.618   2.723 -0.4954  0.2754 -0.4275
  391SOL    HW1 2072   4.977   0.626   2.795 -1.2455  0.2372  0.3184
  391SOL    HW2 2073   4.879   0.709   2.694 -0.7122  0.2956 -0.1565
  392SOL     OW 2074   4.118   3.716   6.102  0.3603  0.8989  0.1382
  392SOL    HW1 2075   4.101   3.704   6.004  1.1615  2.2660 -0.1928
  392SOL    HW2 2076   4.210   3.753   6.116  0.2698  0.6942  1.4140
  393SOL     OW 2077   2.875   6.758   4.101  0.1067 -0.1416 -0.4877
  393SOL    HW1 2078   2.868   6.705   4.185  1.4166 -0.5750 -0.6401
  393SOL    HW2 2079   2.966   6.798   4.093 -0.0393  0.0119 -1.6440
  394SOL     OW 2080   6.848   0.828   6.723 -0.3047  0.4162 -0.0640
  394SOL    HW1 2081   6.900   0.895   6.670 -0.3061 -0.4713 -1.2463
  394SOL    HW2 2082   6.905   0.792   6.797  1.5072 -1.8367 -2.3802
  395SOL     OW 2083   5.140   6.388   6.767 -0.1280  0.1230  0.4563
  395SOL    HW1 2084   5.195   6.470   6.785 -0.1084 -0.0652  1.2516
  395SOL    HW2 2085   5.051   6.397   6.813 -0.7496  0.3884 -0.7448
  396SOL     OW 2086   2.198   4.560   1.601  0.0029  0.1256  0.1111
  396SOL    HW1 2087   2.273   4.582   1.540 -1.4482 -0.2576 -1.9103
  396SOL    HW2 2088   2.125   4.515   1.550 -1.1124 -0.6494  2.2338
  397SOL     OW 2089   3.769   1.344   1.873 -0.5913  0.1794  0.6350
  397SOL    HW1 2090   3.673   1.324   1.851 -0.0800  0.7467 -2.6492
  397SOL    HW2 2091   3.821   1.259   1.877 -0.8026  0.0032 -0.1449
  398SOL     OW 2092   0.230   6.119   2.004  0.0903  0.5112  0.2906
  398SOL    HW1 2093   0.246   6.020   2.015 -1.4226  0.3689  1.6782
  398SOL    HW2 2094   0.154   6.134   1.941 -2.2807  0.5010  2.9110
  399SOL     OW 2095   1.665   6.915   2.743  0.0472 -0.5133 -0.3788
  399SOL    HW1 2096   1.695   6.986   2.806 -0.6312  0.0729 -0.7043
  399SOL    HW2 2097   1.595   6.859   2.787 -0.9083  0.3043 -0.8082
  400SOL     OW 2098   5.890   0.322   3.067  0.1162  0.2906  0.2059
  400SOL    HW1 2099   5.866   0.406   3.020 -1.1286 -0.3565 -0.3527
  400SOL    HW2 2100   5.969   0.339   3.127  0.8394  1.4660 -1.0180
  401SOL     OW 2101   3.204   0.055   0.134 -0.1329 -0.3184  0.1894
  401SOL    HW1 2102   3.163   0.051   0.043  1.3361 -2.2834 -0.4830
  401SOL    HW2 2103   3.291   0.005   0.132  0.4793  0.5655  2.4160
  402SOL     OW 2104   2.884   3.508   4.629  0.1092  0.0781  0.2254
  402SOL    HW1 2105   2.788   3.487   4.643  0.1668 -1.7401 -1.5166
  402SOL    HW2 2106   2.939   3.465   4.701 -0.2975  0.2007  0.6101
  403SOL     OW 2107   5.299   6.528   4.430 -0.5909  0.2660  0.5224
  403SOL    HW1 2108   5.368   6.495   4.366 -1.4847  0.0076 -0.3370
  403SOL    HW2 2109   5.209   6.497   4.400 -0.9781 -0.3439  2.2335
  404SOL     OW 2110   2.345   5.948   6.557 -0.3016  0.4932 -0.5634
  404SOL    HW1 2111   2.405   6.028   6.558 -0.9509  0.9923 -0.6434
  404SOL    HW2 2112   2.324   5.923   6.463 -1.6689  1.4496 -0.5437
  405SOL     OW 2113   6.840   5.473   4.619 -0.3268 -0.8671  0.0100
  405SOL    HW1 2114   6.933   5.503   4.598 -0.2029 -0.9275  0.4599
  405SOL    HW2 2115   6.775   5.526   4.565 -0.0940 -0.0132  0.5435
  406SOL     OW 2116   6.601   3.163   1.935  0.7656  0.0032 -0.6252
  406SOL    HW1 2117   6.550   3.183   2.019  2.3546  2.0775 -0.0772
  406SOL    HW2 2118   6.580   3.070   1.905 -1.6563  0.0231  0.7253
  407SOL     OW 2119   5.623   5.792   1.232  0.4473  0.2006  0.8878
  407SOL    HW1 2120   5.630   5.889   1.209  0.6318  0.6897  2.8362
  407SOL    HW2 2121   5.529   5.773   1.262  0.6355 -0.0189  1.3358
  408SOL     OW 2122   0.336   1.165   6.624  0.1772  0.6873 -0.5383
  408SOL    HW1 2123   0.388   1.179   6.539  0.1086 -1.6168 -1.0371
  408SOL    HW2 2124   0.344   1.069   6.652  0.3212  1.4142  2.1802
  409SOL     OW 2125   5.773   5.851   6.954  0.5570  0.1715  0.3927
  409SOL    HW1 2126   5.740   5.908   6.879 -0.4502 -1.8494 -0.7874
  409SOL    HW2 2127   5.716   5.865   7.035 -0.3891  0.0210 -0.2355
  410SOL     OW 2128   0.374   4.322   6.542  0.5229  0.5690 -0.4226
  410SOL    HW1 2129   0.342   4.409   6.505  0.3181  1.1330  1.0576
  410SOL    HW2 2130   0.305   4.252   6.527 -0.1289  1.0964  0.0922
  411SOL     OW 2131   0.336   0.490   1.315  0.2401  0.1342 -0.2034
  411SOL    HW1 2132   0.299   0.525   1.401 -1.2000  0.2077 -0.8271
  411SOL    HW2 2133   0.290   0.533   1.238  2.1876  0.8021 -1.0708
  412SOL     OW 2134   5.956   6.343   3.260  0.1786 -0.3344  0.2748
  412SOL    HW1 2135   5.874   6.392   3.288  1.5625  1.7194  0.9778
  412SOL    HW2 2136   5.999   6.301   3.339  0.3721 -0.4993  0.0841
  413SOL     OW 2137   2.790   0.771   2.096 -0.0573 -0.1841 -0.7725
  413SOL    HW1 2138   2.728   0.697   2.123  0.4703 -0.0968  0.7239
  413SOL    HW2 2139   2.879   0.757   2.138  0.6266  0.3143 -2.0009
  414SOL     OW 2140   2.073   0.513   4.795  0.1632  0.7269  0.2083
  414SOL    HW1 2141   2.079   0.477   4.702 -0.8862  0.1312  0.3524
  414SOL    HW2 2142   2.160   0.499   4.842  0.0273 -0.9740  0.0179
  415SOL     OW 2143   4.051   1.483   3.908 -0.3469  0.8977  0.2414
  415SOL    HW1 2144   4.020   1.390   3.890  1.2813  0.5147 -0.8116
  415SOL    HW2 2145   3.998   1.548   3.853 -0.3130  0.4072 -0.3748
  416SOL     OW 2146   4.396   5.263   2.588 -0.3980  0.2993 -0.4316
  416SOL    HW1 2147   4.302   5.278   2.558 -0.2386 -0.2731 -1.2560
  416SOL    HW2 2148   4.407   5.168   2.616  0.1741  0.1116 -1.2687
  417SOL     OW 2149   0.176   0.715   3.374  0.1269  0.0208 -0.6764
  417SOL    HW1 2150   0.263   0.755   3.343  1.5018 -2.7231 -0.6337
  417SOL    HW2 2151   0.127   0.782   3.429  2.6996  1.3489  0.1713
  418SOL     OW 2152   4.129   5.667   4.075  0.3046  0.2264 -0.3285
  418SOL    HW1 2153   4.087   5.703   4.159 -0.0546  1.0135 -0.8387
  418SOL    HW2 2154   4.083   5.706   3.995  0.2981 -0.9106 -0.9055
  419SOL     OW 2155   0.267   5.698   3.851 -0.0622  0.7208 -0.4611
  419SOL    HW1 2156   0.190   5.652   3.895 -0.8979  1.4421 -1.1264
  419SOL    HW2 2157   0.343   5.634   3.840 -0.3125  0.1722  0.8128
  420SOL     OW 2158   0.250   1.337   6.821  0.1623 -0.0317 -0.2106
  420SOL    HW1 2159   0.290   1.289   6.743  3.0680  1.0016  0.4859
  420SOL    HW2 2160   0.221   1.429   6.794 -1.6127 -0.6901 -0.6583
  421SOL     OW 2161   0.329   6.300   3.289 -0.1727 -0.4098  0.2079
  421SOL    HW1 2162   0.385   6.368   3.242  1.9623 -2.8828 -1.0885
  421SOL    HW2 2163   0.369   6.279   3.378  0.2075 -1.1777 -0.1321
  422SOL     OW 2164   1.053   4.969   5.177  0.2375 -0.0007  0.5130
  422SOL    HW1 2165   1.131   5.025   5.205  0.3470 -0.8438  2.0178
  422SOL    HW2 2166   0.985   5.027   5.132  1.2335  0.9491  0.1775
  423SOL     OW 2167   3.515   1.979   3.832  0.0036  0.4127  0.6917
  423SOL    HW1 2168   3.526   1.909   3.761  0.7002 -1.4313  2.5095
  423SOL    HW2 2169   3.595   2.040   3.831 -0.1927  0.6816 -0.3473
  424SOL     OW 2170   2.275   2.584   4.304 -0.1658 -0.5142  1.2961
  424SOL    HW1 2171   2.244   2.607   4.211  2.6142 -0.3341  0.3215
  424SOL    HW2 2172   2.257   2.661   4.365  0.6026  0.5629  0.2053
  425SOL     OW 2173   4.902   4.082   5.496 -0.5036 -0.0288  0.0019
  425SOL    HW1 2174   4.886   4.009   5.563  1.8862 -0.3911  0.2530
  425SOL    HW2 2175   4.848   4.162   5.522 -1.6848 -1.0309  0.8200
  426SOL     OW 2176   1.806   3.292   0.668 -0.6154  1.0562 -0.2091
  426SOL    HW1 2177   1.885   3.300   0.729 -1.0758  0.5939  0.4694
  426SOL    HW2 2178   1.810   3.204   0.620  0.2563  1.8274 -1.6055
  427SOL     OW 2179   1.253   5.631   0.137  0.1476 -0.1078  0.2069
  427SOL    HW1 2180   1.302   5.546   0.118 -0.3890 -0.3897  0.0455
  427SOL    HW2 2181   1.281   5.667   0.226  1.3508  0.2526 -0.3003
  428SOL     OW 2182   5.838   3.897   4.302  0.3902  0.8205  0.9068
  428SOL    HW1 2183   5.931   3.895   4.339 -0.6153 -1.1852  3.6634
  428SOL    HW2 2184   5.811   3.993   4.288  2.5373  1.4791  0.8377
  429SOL     OW 2185   3.763   5.948   6.765  0.4123  0.6666 -0.1572
  429SOL    HW1 2186   3.850   5.989   6.736  0.9096 -1.2392 -1.5275
  429SOL    HW2 2187   3.697   5.953   6.690  0.4031 -0.7583 -0.2631
  430SOL     OW 2188   6.856   3.875   5.095 -0.0367 -0.0653 -0.2993
  430SOL    HW1 2189   6.913   3.899   5.017  0.0378 -0.6375 -0.4271
  430SOL    HW2 2190   6.761   3.900   5.076  0.0184  0.0100 -0.4778
  431SOL     OW 2191   6.011   6.428   0.423 -0.0042  0.5228 -0.4043
  431SOL    HW1 2192   6.062   6.513   0.435 -1.7063  1.7453 -1.2517
  431SOL    HW2 2193   5.968   6.402   0.509  0.9784  0.2003 -0.0065
  432SOL     OW 2194   4.458   2.745   6.598  0.1955 -0.3176 -0.3302
  432SOL    HW1 2195   4.512   2.761   6.515  2.8314  1.3502  1.5578
  432SOL    HW2 2196   4.422   2.832   6.632 -0.4414 -0.9019  0.5402
  433SOL     OW 2197   2.737   3.544   5.318  0.4222 -0.6028 -0.0620
  433SOL    HW1 2198   2.668   3.473   5.333 -1.0157  0.7425 -0.1633
  433SOL    HW2 2199   2.794   3.553   5.400  0.1388 -1.3446  0.2249
  434SOL     OW 2200   5.503   2.426   0.813  0.0533  0.2789 -0.4628
  434SOL    HW1 2201   5.503   2.330   0.841 -1.0902  0.9378  2.0682
  434SOL    HW2 2202   5.413   2.451   0.779  0.1138  0.6658 -0.3448
  435SOL     OW 2203   3.187   2.362   1.291 -0.7639  0.3015  0.2049
  435SOL    HW1 2204   3.111   2.426   1.302 -0.8825 -0.1114  2.3330
  435SOL    HW2 2205   3.226   2.342   1.381  0.6090 -1.0279 -0.6359
  436SOL     OW 2206   6.657   0.167   3.640  0.2176 -0.0404  0.3045
  436SOL    HW1 2207   6.557   0.165   3.629  0.1975 -3.4400  0.2437
  436SOL    HW2 2208   6.679   0.191   3.735 -0.6885 -0.1145  0.5468
  437SOL     OW 2209   6.629   6.084   5.304 -0.0435  0.1992 -0.4118
  437SOL    HW1 2210   6.679   6.105   5.219  0.1242 -1.8911 -0.8777
  437SOL    HW2 2211   6.694   6.080   5.380  0.1430 -0.1689 -0.5897
  438SOL     OW 2212   5.395   6.031   6.686 -0.2292 -0.5670 -0.7955
  438SOL    HW1 2213   5.452   6.004   6.608  0.4633 -0.9689 -0.1596
  438SOL    HW2 2214   5.327   6.097   6.656  1.1926  0.6836 -1.3833
  439SOL     OW 2215   2.578   4.452   7.003  0.6642  0.3179 -0.6221
  439SOL    HW1 2216   2.488   4.496   7.005 -0.4453 -1.8065  1.5479
  439SOL    HW2 2217   2.585   4.396   6.920  0.0027  0.5541 -0.8437
  440SOL     OW 2218   6.988   4.181   1.016 -0.1405  1.0073  0.3658
  440SOL    HW1 2219   7.010   4.128   1.098  1.9304  0.8499 -0.2245
  440SOL    HW2 2220   6.893   4.213   1.021 -0.7983 -0.9835  1.6959
  441SOL     OW 2221   6.890   5.229   4.676 -0.4792 -0.0091 -0.8009
  441SOL    HW1 2222   6.856   5.183   4.757  0.0141 -0.6413 -0.9422
  441SOL    HW2 2223   6.858   5.323   4.675  0.0741  0.2098  0.4746
  442SOL     OW 2224   0.467   4.664   1.136 -0.1185 -0.6788 -0.1963
  442SOL    HW1 2225   0.430   4.579   1.098  1.2492 -1.5008  0.2337
  442SOL    HW2 2226   0.561   4.649   1.167  0.0021  0.8840  0.3118
  443SOL     OW 2227   6.238   5.436   2.769  0.1113 -0.0344  0.1728
  443SOL    HW1 2228   6.328   5.409   2.736  0.0644 -0.2576  0.2250
  443SOL    HW2 2229   6.228   5.407   2.864  0.3670  0.8801  0.4860
  444SOL     OW 2230   1.853   5.396   4.099 -0.3555  0.0493  0.6630
  444SOL    HW1 2231   1.821   5.332   4.169  0.9325 -1.9884 -0.4861
  444SOL    HW2 2232   1.945   5.429   4.123 -1.0287  1.5714  1.2702
  445SOL     OW 2233   1.488   1.128   6.059  0.0878  0.1667  0.0719
  445SOL    HW1 2234   1.500   1.144   5.961 -0.2593  2.0113  0.2872
  445SOL    HW2 2235   1.535   1.201   6.109  0.6819 -1.0312  1.3068
  446SOL     OW 2236   1.858   1.256   5.967  0.0756 -0.0048  0.2427
  446SOL    HW1 2237   1.879   1.347   6.002 -0.6610  0.9006 -1.5568
  446SOL    HW2 2238   1.768   1.257   5.923  0.9807 -1.0146 -1.7645
  447SOL     OW 2239   4.714   5.097   0.918 -0.0827 -0.0196 -0.2798
  447SOL    HW1 2240   4.737   5.088   0.821 -1.5356  2.1941 -0.9117
  447SOL    HW2 2241   4.771   5.168   0.959 -0.9762  0.6362 -0.1256
  448SOL     OW 2242   5.879   2.286   5.698  0.0042 -0.6179 -0.0303
  448SOL    HW1 2243   5.840   2.337   5.621  0.0443 -0.7759 -0.1573
  448SOL    HW2 2244   5.931   2.208   5.663 -0.5103 -1.0612  0.1821
  449SOL     OW 2245   3.863   0.172   5.685 -0.6385  0.1227 -0.5192
  449SOL    HW1 2246   3.864   0.256   5.739  0.0998 -0.6452  0.7195
  449SOL    HW2 2247   3.939   0.172   5.621  1.9723 -1.2858  2.3148
  450SOL     OW 2248   4.934   4.503   1.398  0.4502  0.0466 -0.2386
  450SOL    HW1 2249   4.900   4.529   1.488 -0.0488  1.6656 -0.8513
  450SOL    HW2 2250   4.886   4.421   1.366 -0.4544  0.3429  0.3410
  451SOL     OW 2251   0.437   4.724   2.610 -0.0932 -0.1777  0.0855
  451SOL    HW1 2252   0.494   4.787   2.558  2.3553 -1.7740  0.6367
  451SOL    HW2 2253   0.405   4.768   2.693 -1.6626  1.4867 -1.3408
  452SOL     OW 2254   3.266   2.848   0.740 -0.5271  0.6112 -0.2379
  452SOL    HW1 2255   3.267   2.812   0.647  0.3249  0.4375 -0.1635
  452SOL    HW2 2256   3.357   2.840   0.780 -0.6521  1.5896  0.2658
  453SOL     OW 2257   3.322   3.549   1.435  0.1356 -0.0372 -0.2376
  453SOL    HW1 2258   3.325   3.468   1.377  0.5618 -0.4949  0.4126
  453SOL    HW2 2259   3.407   3.601   1.424  0.1305 -0.0170 -0.1815
  454SOL     OW 2260   5.137   3.035   5.651  0.1203  0.1114  0.5098
  454SOL    HW1 2261   5.179   3.126   5.647 -1.1219  0.7935  1.9248
  454SOL    HW2 2262   5.053   3.034   5.596  0.1032 -0.1497  0.5380
  455SOL     OW 2263   1.983   0.613   5.182 -0.8620 -0.5014  0.0281
  455SOL    HW1 2264   1.910   0.546   5.196 -1.0263 -0.0782  1.3388
  455SOL    HW2 2265   1.944   0.698   5.147 -0.5564 -1.2883 -2.4180
  456SOL     OW 2266   1.907   0.401   5.609  0.0771  0.0068  0.3008
  456SOL    HW1 2267   1.919   0.499   5.593 -0.3424 -0.2010 -1.4462
  456SOL    HW2 2268   1.838   0.365   5.547  0.5894 -1.5039  0.5647
  457SOL     OW 2269   6.518   4.948   4.704  0.1997  0.4328  0.2063
  457SOL    HW1 2270   6.595   4.892   4.735 -1.8212 -0.5420  4.0612
  457SOL    HW2 2271   6.462   4.895   4.641  1.5653  0.4647 -1.0966
  458SOL     OW 2272   4.499   2.466   2.614 -0.3675 -0.0209 -0.2005
  458SOL    HW1 2273   4.499   2.445   2.712 -0.7462 -0.9916 -0.3922
  458SOL    HW2 2274   4.424   2.416   2.570  0.9922 -1.1649 -1.2948
  459SOL     OW 2275   1.009   4.857   2.447 -0.7809  0.7739 -0.0912
  459SOL    HW1 2276   1.000   4.775   2.503 -1.0556  1.2349  0.5497
  459SOL    HW2 2277   1.102   4.864   2.412 -0.6186  0.4569  0.2745
  460SOL     OW 2278   4.802   6.489   0.830  0.6361 -0.0790  0.0717
  460SOL    HW1 2279   4.813   6.587   0.814  0.5548  0.0712  0.9008
  460SOL    HW2 2280   4.785   6.472   0.927 -0.0790 -0.8523 -0.1700
  461SOL     OW 2281   5.141   3.322   2.290 -0.0784  0.2969  0.4229
  461SOL    HW1 2282   5.042   3.337   2.292 -0.2499 -0.5893 -0.4911
  461SOL    HW2 2283   5.185   3.394   2.236 -0.2304  0.6154  0.7179
  462SOL     OW 2284   1.012   0.350   5.596 -0.1159  0.0915  0.1457
  462SOL    HW1 2285   0.935   0.331   5.656 -0.7857 -0.6036 -0.8990
  462SOL    HW2 2286   0.990   0.319   5.503 -0.8109  4.7424 -1.4987
  463SOL     OW 2287   4.816   5.316   0.311  0.1538 -0.4166  0.4507
  463SOL    HW1 2288   4.727   5.298   0.352 -0.6337 -0.7770 -1.3247
  463SOL    HW2 2289   4.816   5.285   0.216  1.3676  1.7954 -0.3443
  464SOL     OW 2290   6.604   4.566   2.260 -0.1055 -0.9191 -0.4621
  464SOL    HW1 2291   6.524   4.604   2.214  0.0299  0.6590  0.5514
  464SOL    HW2 2292   6.601   4.588   2.357  1.1896 -1.4923 -0.2673
  465SOL     OW 2293   6.545   4.275   6.683  0.4827  0.7418  0.0861
  465SOL    HW1 2294   6.629   4.313   6.723  0.9052  0.6018 -0.6392
  465SOL    HW2 2295   6.569   4.215   6.607 -0.1293 -1.5514  1.5995
  466SOL     OW 2296   1.285   3.167   0.312  0.4468  0.4941  0.3256
  466SOL    HW1 2297   1.292   3.266   0.326  1.0040  0.3584  1.0563
  466SOL    HW2 2298   1.194   3.136   0.339  0.0956  0.8791 -0.3900
  467SOL     OW 2299   6.125   0.094   1.068 -0.1299 -0.1974  0.3630
  467SOL    HW1 2300   6.100   0.180   1.024  2.1559  1.6131  2.3574
  467SOL    HW2 2301   6.051   0.027   1.055 -1.0746  1.3031 -3.0237
  468SOL     OW 2302   3.019   0.026   0.359 -0.2187 -0.5096 -0.3385
  468SOL    HW1 2303   2.949   0.097   0.361  1.2334  0.9644  0.0664
  468SOL    HW2 2304   3.072   0.033   0.275 -2.5559 -3.7420 -2.2999
  469SOL     OW 2305   3.903   4.020   4.255 -0.5998 -0.3062  0.1045
  469SOL    HW1 2306   3.947   3.976   4.177  0.8697  1.4700 -0.1361
  469SOL    HW2 2307   3.822   4.070   4.225 -0.4337 -0.1953 -0.1591
  470SOL     OW 2308   5.698   5.909   6.164 -0.0547 -0.2847 -0.2395
  470SOL    HW1 2309   5.755   5.859   6.229  0.0321  1.5008  1.1204
  470SOL    HW2 2310   5.627   5.848   6.129  0.6675 -1.6349  0.5473
  471SOL     OW 2311   2.825   0.543   4.196  0.9827  0.2358  0.4269
  471SOL    HW1 2312   2.843   0.544   4.294  1.3900 -0.4719  0.3738
  471SOL    HW2 2313   2.899   0.494   4.150  1.5656  1.8274 -0.4015
  472SOL     OW 2314   6.734   0.952   3.917  0.1112  0.3980  0.0890
  472SOL    HW1 2315   6.688   1.032   3.954 -0.5893  0.1796 -0.2867
  472SOL    HW2 2316   6.734   0.956   3.817  1.3817  0.6474  0.0849
  473SOL     OW 2317   0.977   3.101   1.069 -0.4801  0.7376  0.2542
  473SOL    HW1 2318   0.925   3.035   1.124  0.0721  0.2952  0.2564
  473SOL    HW2 2319   0.959   3.085   0.972  0.6874 -0.3268  0.1844
  474SOL     OW 2320   6.125   1.740   3.343  0.3603 -0.0135 -0.1126
  474SOL    HW1 2321   6.085   1.785   3.262 -0.4835 -1.0177 -0.2800
  474SOL    HW2 2322   6.052   1.719   3.408  0.8137 -0.6405  0.1986
  475SOL     OW 2323   3.341   3.725   6.761 -0.4626 -0.9712  0.0842
  475SOL    HW1 2324   3.266   3.737   6.695  0.7070 -0.5385 -1.2181
  475SOL    HW2 2325   3.410   3.664   6.722  0.7756  0.1666  0.4159
  476SOL     OW 2326   6.199   4.934   0.682 -0.1507 -0.4578 -0.2299
  476SOL    HW1 2327   6.249   4.903   0.601 -0.3929 -1.6578  0.0668
  476SOL    HW2 2328   6.135   4.863   0.712 -2.5031  1.2456 -0.9485
  477SOL     OW 2329   5.904   2.500   3.238  0.1551 -1.0353 -0.1838
  477SOL    HW1 2330   5.976   2.466   3.178  1.1875 -0.5107  0.7132
  477SOL    HW2 2331   5.908   2.452   3.326  0.7131  0.3701  0.5888
  478SOL     OW 2332   2.357   2.135   0.887  0.1588  0.6581 -0.1148
  478SOL    HW1 2333   2.382   2.111   0.793  0.3697 -0.2615  0.1664
  478SOL    HW2 2334   2.420   2.092   0.951 -0.2194  0.9519  0.4735
  479SOL     OW 2335   4.740   1.991   1.332 -0.0506  0.2370  0.6554
  479SOL    HW1 2336   4.779   2.020   1.419  1.0309 -2.1201  1.0236
  479SOL    HW2 2337   4.646   1.960   1.346 -0.8109  2.2346  0.4503
  480SOL     OW 2338   0.373   2.076   6.994 -0.0057  0.0347  0.4987
  480SOL    HW1 2339   0.320   2.023   7.059  0.2665 -0.0295  0.6666
  480SOL    HW2 2340   0.315   2.149   6.956 -0.8631 -1.3009 -0.8834
  481SOL     OW 2341   1.641   5.706   0.379  0.1503 -0.7452 -0.4710
  481SOL    HW1 2342   1.572   5.691   0.450 -0.1785 -0.6116 -0.7651
  481SOL    HW2 2343   1.694   5.788   0.401 -0.7039 -0.0506 -0.9790
  482SOL     OW 2344   2.177   0.304   5.656  0.0794  0.5555 -0.3229
  482SOL    HW1 2345   2.205   0.376   5.719 -1.2008  0.6835  0.1422
  482SOL    HW2 2346   2.089   0.328   5.616  0.7224  0.3176 -1.9481
  483SOL     OW 2347   5.657   3.484   3.879  0.3962  0.2940  0.8522
  483SOL    HW1 2348   5.686   3.490   3.975  1.7234 -1.3893  0.6002
  483SOL    HW2 2349   5.692   3.399   3.839 -0.5805  0.7158 -0.9941
  484SOL     OW 2350   4.421   5.851   3.521 -0.3311 -0.1345 -0.1701
  484SOL    HW1 2351   4.412   5.852   3.422  0.7920 -0.8991 -0.3039
  484SOL    HW2 2352   4.514   5.824   3.546 -0.3257  0.9236  1.0889
  485SOL     OW 2353   1.936   6.929   3.691 -0.5813  0.4277 -0.5657
  485SOL    HW1 2354   1.960   6.989   3.615 -1.2992  0.9257 -0.4157
  485SOL    HW2 2355   1.970   6.967   3.777  2.3707 -1.3434 -0.8326
  486SOL     OW 2356   1.236   5.345   3.070  0.2567  0.5101 -0.1153
  486SOL    HW1 2357   1.328   5.318   3.098  0.4066  0.5846 -0.5299
  486SOL    HW2 2358   1.242   5.412   2.996 -0.1257  0.8586  0.1660
  487SOL     OW 2359   5.555   0.215   0.237  0.1825  0.1875 -0.2755
  487SOL    HW1 2360   5.576   0.233   0.334  0.2793  0.6246 -0.3734
  487SOL    HW2 2361   5.544   0.117   0.223  1.2590  0.0202 -0.0381
  488SOL     OW 2362   4.201   0.935   3.157 -0.0653 -0.1757 -0.1535
  488SOL    HW1 2363   4.163   1.017   3.201 -0.5401 -0.7961  0.6262
  488SOL    HW2 2364   4.215   0.864   3.226  1.9368 -0.2030 -0.5105
  489SOL     OW 2365   0.407   0.260   2.936 -0.0498  0.1411 -0.3014
  489SOL    HW1 2366   0.455   0.175   2.920  0.0286 -0.1713  1.4851
  489SOL    HW2 2367   0.311   0.241   2.957 -0.0097  0.4903  0.2045
  490SOL     OW 2368   2.014   5.025   0.751  0.0501  0.1144 -0.7745
  490SOL    HW1 2369   1.962   4.963   0.692 -2.7685 -1.1678  2.7204
  490SOL    HW2 2370   1.976   5.117   0.746 -1.1959 -0.3322  0.0966
  491SOL     OW 2371   4.705   2.420   6.452 -0.5861 -1.1252 -1.0186
  491SOL    HW1 2372   4.659   2.353   6.393 -1.9149  0.1543 -1.4938
  491SOL    HW2 2373   4.679   2.513   6.424 -1.6800 -0.4510  1.8629
  492SOL     OW 2374   0.315   1.556   1.829  0.0852 -0.2880 -0.1655
  492SOL    HW1 2375   0.220   1.566   1.800  0.0474 -1.4021 -0.4787
  492SOL    HW2 2376   0.367   1.638   1.806 -0.8161  0.3622  0.0859
  493SOL     OW 2377   6.225   1.839   4.763 -0.5464  0.4496  0.6547
  493SOL    HW1 2378   6.318   1.856   4.732 -0.9901 -1.4911 -2.1317
  493SOL    HW2 2379   6.224   1.765   4.829 -0.1386  0.3610  0.5609
  494SOL     OW 2380   0.642   3.668   1.149  0.3775 -0.2674 -0.0877
  494SOL    HW1 2381   0.599   3.737   1.208  1.0701  0.6978 -0.6711
  494SOL    HW2 2382   0.613   3.577   1.177 -1.3722  0.3060  0.0662
  495SOL     OW 2383   1.391   5.743   4.717  0.0742 -0.2107 -0.0564
  495SOL    HW1 2384   1.485   5.767   4.690  0.1676 -0.2245  0.2567
  495SOL    HW2 2385   1.358   5.669   4.658 -1.3522  2.6568 -3.1690
  496SOL     OW 2386   0.514   1.118   3.983 -0.1512 -0.5067 -0.2013
  496SOL    HW1 2387   0.558   1.194   3.934  0.6585 -0.4148  0.6368
  496SOL    HW2 2388   0.417   1.116   3.960 -0.3918  1.3574  0.4491
  497SOL     OW 2389   4.663   4.809   1.624  0.3421 -0.7628  0.9613
  497SOL    HW1 2390   4.582   4.775   1.672  0.1328  1.2175  2.1314
  497SOL    HW2 2391   4.737   4.743   1.633 -0.4510 -1.5597  1.8637
  498SOL     OW 2392   2.848   0.256   3.795  0.6974  0.0585 -0.2391
  498SOL    HW1 2393   2.917   0.287   3.729  0.1487 -0.7870 -1.2324
  498SOL    HW2 2394   2.757   0.265   3.755  0.1588  1.5118  1.1999
  499SOL     OW 2395   2.520   6.466   3.009  0.0190 -0.3064  0.4627
  499SOL    HW1 2396   2.532   6.485   3.106  2.0986 -0.4534  0.2791
  499SOL    HW2 2397   2.429   6.426   2.994 -0.8872  0.9853  2.1127
  500SOL     OW 2398   3.986   1.615   4.555  0.5416 -0.2976  0.2765
  500SOL    HW1 2399   3.969   1.546   4.625 -0.4945 -0.3945 -0.0577
  500SOL    HW2 2400   4.081   1.609   4.526  1.1024 -0.0051  1.9269
  501SOL     OW 2401   0.915   0.935   2.929  1.0918 -0.3157  0.1182
  501SOL    HW1 2402   0.937   0.837   2.936  2.6734  0.0179  0.1557
  501SOL    HW2 2403   0.897   0.971   3.020  2.8724 -0.0847  0.4155
  502SOL     OW 2404   5.901   5.413   5.031  0.4507  0.0120 -0.0478
  502SOL    HW1 2405   5.977   5.375   5.084  0.6584  1.9165  1.0915
  502SOL    HW2 2406   5.936   5.478   4.963 -0.0277 -0.5999 -0.9049
  503SOL     OW 2407   1.073   0.896   5.007 -0.5606  0.3352 -0.1470
  503SOL    HW1 2408   1.063   0.799   4.986 -1.1958 -0.7041  4.0791
  503SOL    HW2 2409   0.992   0.928   5.057  0.3009  2.6846 -0.1253
  504SOL     OW 2410   3.928   3.590   3.949 -0.4766  0.2164 -0.0127
  504SOL    HW1 2411   3.833   3.557   3.950 -0.5993  0.3911 -1.9190
  504SOL    HW2 2412   3.987   3.519   3.909  0.1743  0.1981  0.9539
  505SOL     OW 2413   2.487   1.350   1.131 -0.4954 -0.2505 -0.0590
  505SOL    HW1 2414   2.538   1.421   1.082 -1.2058  1.6326  1.8103
  505SOL    HW2 2415   2.515   1.348   1.227 -2.5025 -0.5526  0.5655
  506SOL     OW 2416   6.466   1.263   0.282  0.3669  0.1410  0.4911
  506SOL    HW1 2417   6.405   1.296   0.354  0.5588  0.7196  0.3933
  506SOL    HW2 2418   6.524   1.190   0.319  0.3878  0.3594  0.8965
  507SOL     OW 2419   2.550   4.822   0.932  0.3992  0.3145 -1.0072
  507SOL    HW1 2420   2.647   4.817   0.957  0.8906  1.3095 -2.5924
  507SOL    HW2 2421   2.531   4.909   0.888 -1.3040  0.2473 -0.4954
  508SOL     OW 2422   6.558   3.564   6.495  0.0281  0.2279 -0.1552
  508SOL    HW1 2423   6.624   3.611   6.553 -1.3232  0.2402  1.4452
  508SOL    HW2 2424   6.473   3.618   6.491 -0.7834 -1.0087 -0.0628
  509SOL     OW 2425   2.047   4.931   5.538  0.1769  0.4596 -0.1982
  509SOL    HW1 2426   1.982   5.000   5.505  1.5974  1.9920  0.0511
  509SOL    HW2 2427   2.074   4.954   5.632 -0.3143 -1.2127  0.3781
  510SOL     OW 2428   2.271   1.617   6.086  0.3432 -0.1446 -0.2788
  510SOL    HW1 2429   2.231   1.605   5.995 -0.8353 -1.8768  0.4182
  510SOL    HW2 2430   2.357   1.566   6.091 -0.2768 -1.1879 -0.0234
  511SOL     OW 2431   5.011   1.297   2.583  0.2573 -0.6526  0.7737
  511SOL    HW1 2432   5.047   1.373   2.638  2.7692  0.1082 -1.6621
  511SOL    HW2 2433   4.917   1.318   2.555  1.1740  2.1379 -0.6178
  512SOL     OW 2434   3.698   3.598   1.518 -0.6965 -0.0193 -0.0727
  512SOL    HW1 2435   3.670   3.503   1.532 -0.6579 -0.1843 -1.0387
  512SOL    HW2 2436   3.797   3.605   1.525 -0.4540 -0.5087 -2.2780
  513SOL     OW 2437   1.209   1.920   1.166  0.3151  0.1665  0.4941
  513SOL    HW1 2438   1.272   1.943   1.092  0.5911 -0.2059  0.6054
  513SOL    HW2 2439   1.262   1.900   1.249  0.0815 -0.6413  0.4547
  514SOL     OW 2440   1.514   4.014   4.073 -0.1652  0.5992  0.1664
  514SOL    HW1 2441   1.418   4.000   4.097 -0.2325 -0.1670 -0.4883
  514SOL    HW2 2442   1.549   4.094   4.120 -0.6221 -0.1477  1.8391
  515SOL     OW 2443   6.393   2.814   2.642 -0.0423  0.0509  0.2623
  515SOL    HW1 2444   6.388   2.899   2.694  2.5128  1.0713 -0.9949
  515SOL    HW2 2445   6.467   2.757   2.679  0.5598 -0.0479 -1.0529
  516SOL     OW 2446   2.728   1.377   3.038 -0.2875  0.2118 -0.1227
  516SOL    HW1 2447   2.813   1.391   3.088  0.1093 -0.3306 -0.6356
  516SOL    HW2 2448   2.681   1.296   3.072 -0.1556  0.0023 -0.4333
  517SOL     OW 2449   5.675   3.039   1.930  0.3467 -0.3529 -0.2947
  517SOL    HW1 2450   5.734   3.055   1.850  0.7376  2.6131  0.4675
  517SOL    HW2 2451   5.731   3.040   2.013 -0.5033  0.5183  0.2876
  518SOL     OW 2452   2.868   1.690   3.235 -0.5437 -0.7678  0.2533
  518SOL    HW1 2453   2.928   1.727   3.306 -0.4237  1.7645 -1.0361
  518SOL    HW2 2454   2.790   1.751   3.222  0.5675  0.1786 -3.2411
  519SOL     OW 2455   3.132   0.928   0.768 -0.2474  0.4804  0.0556
  519SOL    HW1 2456   3.119   0.848   0.827  0.9804  0.5844  0.4840
  519SOL    HW2 2457   3.056   0.992   0.782 -0.8001 -0.2289  0.3308
  520SOL     OW 2458   1.465   2.825   5.978  0.3047 -0.7242  0.3020
  520SOL    HW1 2459   1.557   2.787   5.966  0.6006 -0.1728  0.8217
  520SOL    HW2 2460   1.427   2.850   5.888  1.0090 -0.1408  0.1640
  521SOL     OW 2461   0.557   6.829   0.041 -0.3294 -0.0477  0.1847
  521SOL    HW1 2462   0.532   6.888   0.117 -2.8769  2.1034 -2.1203
  521SOL    HW2 2463   0.479   6.772   0.015  0.9314 -1.7870 -0.0259
  522SOL     OW 2464   3.831   3.986   2.986  0.8715 -0.1668  0.2090
  522SOL    HW1 2465   3.836   3.887   2.997  0.3134 -0.0908  1.2284
  522SOL    HW2 2466   3.831   4.030   3.076 -0.6581  0.6603 -0.1624
  523SOL     OW 2467   1.884   1.970   0.053  0.1796  0.0688 -1.3450
  523SOL    HW1 2468   1.816   1.946  -0.016  0.2503  3.0595 -2.5797
  523SOL    HW2 2469   1.886   2.069   0.066  2.4075 -0.1429  0.6569
  524SOL     OW 2470   0.789   4.129   2.031 -0.0423  0.0697 -0.0949
  524SOL    HW1 2471   0.753   4.152   2.122 -1.9899  3.0623 -1.4594
  524SOL    HW2 2472   0.749   4.042   2.001 -0.1996 -0.4240  1.4456
  525SOL     OW 2473   6.426   0.564   0.230  0.2337  0.6089  0.0293
  525SOL    HW1 2474   6.331   0.596   0.224  0.4471  1.0821 -1.1297
  525SOL    HW2 2475   6.465   0.592   0.317 -1.7309 -2.5903  2.1560
  526SOL     OW 2476   0.168   0.712   1.116  0.2293  0.0902  0.4929
  526SOL    HW1 2477   0.148   0.654   1.037  0.0788 -1.1401  1.4100
  526SOL    HW2 2478   0.083   0.751   1.150 -0.0054 -1.1263  1.3496
  527SOL     OW 2479   1.338   0.749   1.279  0.4397  0.1740  0.4056
  527SOL    HW1 2480   1.342   0.655   1.313 -0.8135  0.1272  0.4968
  527SOL    HW2 2481   1.249   0.789   1.303 -0.0457  0.5227 -1.7622
  528SOL     OW 2482   0.107   6.117   6.765  0.0343  0.4180  0.2040
  528SOL    HW1 2483   0.178   6.053   6.733 -0.0334  0.0631  0.7468
  528SOL    HW2 2484   0.082   6.094   6.859  1.0603  2.1436  0.9580
  529SOL     OW 2485   5.181   6.464   5.333  0.1180  0.4648  0.0762
  529SOL    HW1 2486   5.238   6.546   5.337  1.0435 -0.0078 -2.1074
  529SOL    HW2 2487   5.088   6.486   5.360  0.2678  2.3278 -0.8271
  530SOL     OW 2488   4.629   1.939   6.966  0.4353 -0.2211  0.6380
  530SOL    HW1 2489   4.573   1.914   7.045 -0.2912  3.7841  1.5992
  530SOL    HW2 2490   4.711   1.987   6.998  0.5826  0.6579 -0.9862
  531SOL     OW 2491   1.268   1.819   2.343  0.7711 -0.6015 -0.3974
  531SOL    HW1 2492   1.262   1.832   2.244 -3.1833 -3.1503 -0.7135
  531SOL    HW2 2493   1.323   1.738   2.363  0.7906 -0.6323 -0.5749
  532SOL     OW 2494   5.825   5.102   1.024  0.3332 -0.3356 -0.1838
  532SOL    HW1 2495   5.892   5.028   1.031 -0.3106 -0.8469  0.8123
  532SOL    HW2 2496   5.860   5.184   1.069 -0.0622 -0.8832  1.1705
  533SOL     OW 2497   5.380   3.591   2.350  0.0865 -0.8301  0.2493
  533SOL    HW1 2498   5.429   3.677   2.367 -0.5096 -0.1253 -1.3814
  533SOL    HW2 2499   5.409   3.522   2.416  1.5327  0.2436  0.7775
  534SOL     OW 2500   2.811   0.267   0.030 -0.0497 -0.7597 -0.5201
  534SOL    HW1 2501   2.889   0.217  -0.007  2.0568  0.9880  1.2619
  534SOL    HW2 2502   2.836   0.363   0.043 -2.4311 -0.1921  0.3919
  535SOL     OW 2503   5.250   2.648   3.327  0.3522 -0.3626  0.6525
  535SOL    HW1 2504   5.235   2.725   3.389  0.6583 -0.0090  0.2893
  535SOL    HW2 2505   5.164   2.627   3.279  0.1143 -0.6369  1.1835
  536SOL     OW 2506   1.991   4.042   1.905 -0.0776  0.3240  0.1524
  536SOL    HW1 2507   1.978   3.953   1.861  1.1621 -0.2627  0.9202
  536SOL    HW2 2508   2.061   4.094   1.855  0.3533  0.2112  0.6346
  537SOL     OW 2509   6.323   6.919   3.243 -0.1014  0.3511 -0.0404
  537SOL    HW1 2510   6.349   7.009   3.279  0.4030  0.9654 -1.8136
  537SOL    HW2 2511   6.406   6.870   3.215 -0.4953  0.1399 -0.8649
  538SOL     OW 2512   2.055   2.688   3.504 -0.4845 -0.2408  0.1865
  538SOL    HW1 2513   2.043   2.779   3.465  2.0484  0.1143  0.1152
  538SOL    HW2 2514   1.993   2.677   3.582 -0.5269  1.7144  0.4711
  539SOL     OW 2515   3.587   0.503   4.028 -0.2567 -0.6552  0.1327
  539SOL    HW1 2516   3.662   0.504   3.962 -0.0740  0.5192  0.3353
  539SOL    HW2 2517   3.517   0.569   4.000  0.1498  0.3818  1.4453
  540SOL     OW 2518   3.540   1.048   0.491  0.0227 -0.1742 -0.1494
  540SOL    HW1 2519   3.469   1.046   0.562  0.6519 -1.3630  0.4603
  540SOL    HW2 2520   3.623   1.090   0.528  0.3262 -0.7251 -0.1993
  541SOL     OW 2521   5.228   2.881   3.499  0.2280 -1.0634  0.2086
  541SOL    HW1 2522   5.162   2.910   3.568 -0.7400 -3.9069  0.6085
  541SOL    HW2 2523   5.314   2.931   3.513 -1.3550  1.7484  0.5031
  542SOL     OW 2524   0.728   3.116   3.770 -0.0916  0.8134 -0.4414
  542SOL    HW1 2525   0.672   3.198   3.758 -0.2858  1.1779  2.3824
  542SOL    HW2 2526   0.671   3.041   3.801  0.1706 -0.3519 -2.5804
  543SOL     OW 2527   4.640   6.433   1.238  0.0099  0.2650  0.2080
  543SOL    HW1 2528   4.577   6.440   1.316  0.9280  0.5512  0.9378
  543SOL    HW2 2529   4.730   6.467   1.265  0.7512 -1.0609 -0.5110
  544SOL     OW 2530   5.023   3.312   6.452 -0.5152 -0.7695  0.0482
  544SOL    HW1 2531   5.039   3.410   6.459  0.7437 -0.6851 -2.7012
  544SOL    HW2 2532   5.053   3.267   6.537 -0.9334  1.1519  1.2674
  545SOL     OW 2533   5.395   5.475   4.309 -0.1984 -0.8741  0.6149
  545SOL    HW1 2534   5.465   5.546   4.312 -0.2701 -0.8230  1.7615
  545SOL    HW2 2535   5.393   5.432   4.219 -0.3389  0.7535 -0.1877
  546SOL     OW 2536   4.177   1.474   0.151  0.2280  0.7116  0.3216
  546SOL    HW1 2537   4.211   1.551   0.097  1.0306 -0.1174 -0.3930
  546SOL    HW2 2538   4.211   1.389   0.112 -0.6356 -0.0107  1.1080
  547SOL     OW 2539   3.630   5.326   3.787 -0.5261 -0.3967  0.7489
  547SOL    HW1 2540   3.687   5.371   3.856  0.1390 -2.3745  1.5454
  547SOL    HW2 2541   3.608   5.234   3.817  0.4202 -1.6099 -1.9807
  548SOL     OW 2542   0.734   4.614   5.026 -0.2172 -0.2725  0.3587
  548SOL    HW1 2543   0.823   4.649   5.055 -0.1912  1.7442 -1.8927
  548SOL    HW2 2544   0.663   4.654   5.084  0.2532 -1.9270  2.1972
  549SOL     OW 2545   4.857   0.960   1.538 -0.2038  0.1919 -0.7314
  549SOL    HW1 2546   4.778   1.018   1.519  0.2947  0.4310 -2.2611
  549SOL    HW2 2547   4.852   0.926   1.632 -2.0152  0.3433 -0.7364
  550SOL     OW 2548   2.230   1.300   6.191 -0.1180 -0.2040  0.0480
  550SOL    HW1 2549   2.211   1.386   6.238 -0.5871 -0.2655 -0.0182
  550SOL    HW2 2550   2.147   1.244   6.189  0.3203 -0.8873  0.5464
  551SOL     OW 2551   3.755   0.871   1.377  0.5171  0.4781 -0.3422
  551SOL    HW1 2552   3.669   0.876   1.326  0.5239 -1.2069 -0.5809
  551SOL    HW2 2553   3.745   0.918   1.464 -0.9782 -0.4966  0.0576
  552SOL     OW 2554   4.720   4.655   4.840  0.2889 -0.4548  0.1814
  552SOL    HW1 2555   4.728   4.682   4.744 -0.1656 -1.3465 -0.1222
  552SOL    HW2 2556   4.784   4.581   4.860  1.8242  1.0524  1.1155
  553SOL     OW 2557   5.182   5.966   6.914 -0.1075  0.3678  0.1751
  553SOL    HW1 2558   5.248   6.007   6.850 -0.4302 -0.2864 -0.5898
  553SOL    HW2 2559   5.154   5.877   6.880 -0.3074  0.0132  1.2372
  554SOL     OW 2560   1.090   5.125   1.766 -0.1724  0.2621 -0.1072
  554SOL    HW1 2561   1.159   5.053   1.766  0.1826  0.5930 -0.3589
  554SOL    HW2 2562   1.061   5.144   1.672 -0.1465  0.5536 -0.0589
  555SOL     OW 2563   0.713   5.709   5.931  0.1105  0.3198 -0.3383
  555SOL    HW1 2564   0.626   5.662   5.915  0.9273 -0.4303 -3.0196
  555SOL    HW2 2565   0.726   5.780   5.862  2.0114 -0.1736 -0.5447
  556SOL     OW 2566   3.598   3.147   3.130  0.4045  0.4865 -0.0049
  556SOL    HW1 2567   3.511   3.120   3.090  1.2122 -0.1439 -1.4260
  556SOL    HW2 2568   3.586   3.230   3.183 -1.2361 -0.1119  0.6305
  557SOL     OW 2569   5.603   1.390   5.762  0.2339 -0.6484  0.0546
  557SOL    HW1 2570   5.587   1.424   5.855  0.6536  0.7743 -0.3659
  557SOL    HW2 2571   5.691   1.342   5.759  0.8335  0.4004  0.1453
  558SOL     OW 2572   3.021   3.873   4.232  0.1797  0.0282 -0.5125
  558SOL    HW1 2573   3.071   3.959   4.221 -0.6856  0.5002 -0.8952
  558SOL    HW2 2574   3.019   3.848   4.329 -0.2973  0.9143 -0.2749
  559SOL     OW 2575   2.044   4.942   3.528  0.1368  0.0469  0.3569
  559SOL    HW1 2576   1.981   4.866   3.541  2.3145 -1.7700  0.8710
  559SOL    HW2 2577   2.018   4.993   3.446 -0.3337 -2.3865 -1.1093
  560SOL     OW 2578   1.879   3.121   4.465  0.2497 -0.3579  0.3128
  560SOL    HW1 2579   1.880   3.212   4.421 -1.6066  0.0183  0.9912
  560SOL    HW2 2580   1.838   3.055   4.402 -0.9159 -0.1471  0.8283
  561SOL     OW 2581   6.988   6.664   5.751 -0.1896  0.4711 -0.2349
  561SOL    HW1 2582   6.927   6.646   5.828 -1.6479  0.3905 -1.3651
  561SOL    HW2 2583   7.080   6.633   5.774 -0.3295  1.4215  1.8560
  562SOL     OW 2584   6.513   4.987   5.142  0.4794  0.6017  0.1432
  562SOL    HW1 2585   6.434   4.929   5.165  0.1709  1.1295  0.4287
  562SOL    HW2 2586   6.583   4.931   5.097  0.4847 -0.1458  1.0446
  563SOL     OW 2587   2.496   6.868   3.372  0.1578  0.4584 -0.0998
  563SOL    HW1 2588   2.430   6.943   3.371 -0.0561  0.5061  3.6878
  563SOL    HW2 2589   2.446   6.781   3.371  0.2426  0.4111 -0.7592
  564SOL     OW 2590   4.770   2.749   2.440 -0.0796 -0.0093  0.0740
  564SOL    HW1 2591   4.859   2.709   2.459  0.7174  1.7070  0.1319
  564SOL    HW2 2592   4.764   2.771   2.342  0.2000  1.3276  0.3485
  565SOL     OW 2593   2.900   1.312   5.911 -0.3999  0.0590  0.9434
  565SOL    HW1 2594   2.887   1.406   5.942 -0.5371 -0.5457  2.8885
  565SOL    HW2 2595   2.840   1.251   5.963 -0.5583 -1.0829 -0.5093
  566SOL     OW 2596   2.740   1.737   1.013  0.1544 -0.5374  0.6261
  566SOL    HW1 2597   2.683   1.681   0.952 -0.6844 -0.2054  1.0980
  566SOL    HW2 2598   2.728   1.706   1.107  0.1728  0.0434  0.8183
  567SOL     OW 2599   0.980   2.081   6.665 -0.5638 -0.5887  0.1294
  567SOL    HW1 2600   1.008   2.129   6.582 -1.0863 -0.5189 -0.0103
  567SOL    HW2 2601   0.978   1.983   6.647 -0.7148 -0.5711  0.0429
  568SOL     OW 2602   4.453   1.567   0.635 -0.4457  0.3450  0.0613
  568SOL    HW1 2603   4.411   1.647   0.677 -0.7735  0.7583 -1.0366
  568SOL    HW2 2604   4.552   1.581   0.628 -0.0967 -0.4982  2.3493
  569SOL     OW 2605   1.263   2.725   0.915 -0.0449 -0.2933  0.2474
  569SOL    HW1 2606   1.233   2.770   0.830  0.2525 -0.9510 -0.2082
  569SOL    HW2 2607   1.224   2.774   0.993  2.4137  2.4698 -0.0759
  570SOL     OW 2608   2.809   0.445   6.779 -0.7736  0.2507 -0.7380
  570SOL    HW1 2609   2.732   0.505   6.760  1.0490  2.9466 -0.1375
  570SOL    HW2 2610   2.831   0.450   6.877  0.5465  0.0409 -1.0102
  571SOL     OW 2611   3.946   0.379   5.142  0.4556 -0.1673 -0.1659
  571SOL    HW1 2612   3.848   0.359   5.147  0.5949 -0.8643 -0.0171
  571SOL    HW2 2613   3.961   0.476   5.156 -0.1174 -0.2480  1.2843
  572SOL     OW 2614   3.380   1.140   6.733  1.0870  0.0131 -0.1503
  572SOL    HW1 2615   3.396   1.046   6.764  0.1354 -0.2124 -0.3210
  572SOL    HW2 2616   3.454   1.199   6.766  2.1472 -0.9479 -0.7562
  573SOL     OW 2617   6.188   2.627   1.604  0.2088 -0.1719 -0.5154
  573SOL    HW1 2618   6.122   2.552   1.594 -0.5240  0.3960 -0.0086
  573SOL    HW2 2619   6.211   2.638   1.700  1.4523 -0.6869 -0.7237
  574SOL     OW 2620   6.370   5.374   5.093 -0.4833  0.0930 -0.0973
  574SOL    HW1 2621   6.315   5.456   5.109 -1.2787 -0.1541 -1.4568
  574SOL    HW2 2622   6.357   5.310   5.170  0.8835  1.5857  1.4504
  575SOL     OW 2623   6.928   2.347   5.106 -0.2155 -0.2729  0.0047
  575SOL    HW1 2624   6.833   2.369   5.128  0.0868 -0.3988  1.5504
  575SOL    HW2 2625   6.975   2.429   5.074 -0.2491  0.3559  1.4954
  576SOL     OW 2626   1.863   1.767   6.082 -0.0079  0.2634  0.7434
  576SOL    HW1 2627   1.862   1.836   6.010  1.2880 -0.4884 -0.0288
  576SOL    HW2 2628   1.918   1.799   6.159  1.0946 -0.1105  0.1379
  577SOL     OW 2629   2.004   2.094   3.474 -0.3138  0.2516  0.1656
  577SOL    HW1 2630   1.929   2.074   3.538 -0.7921  0.3985 -0.3433
  577SOL    HW2 2631   1.971   2.156   3.402  0.1939  0.0145 -0.2759
  578SOL     OW 2632   6.965   1.177   0.589 -0.0242 -0.0969  0.3554
  578SOL    HW1 2633   6.979   1.244   0.516  0.8113 -1.8243 -1.1496
  578SOL    HW2 2634   6.962   1.085   0.550 -2.5256 -0.9071  2.1815
  579SOL     OW 2635   5.475   5.517   0.457  0.4038  0.1965 -0.5797
  579SOL    HW1 2636   5.547   5.559   0.513  1.5945 -0.7823 -1.3260
  579SOL    HW2 2637   5.504   5.514   0.362 -1.3065  1.1854 -1.1532
  580SOL     OW 2638   0.738   6.558   3.801  0.3785  0.1187 -0.0212
  580SOL    HW1 2639   0.832   6.591   3.811  0.9098 -1.0162 -1.0599
  580SOL    HW2 2640   0.692   6.610   3.728 -1.0131  3.1062  2.7427
  581SOL     OW 2641   1.880   0.813   3.571  0.1115  0.0463  0.4926
  581SOL    HW1 2642   1.925   0.862   3.645 -0.6224 -2.5434  2.8162
  581SOL    HW2 2643   1.934   0.733   3.546 -0.5115 -0.0648 -0.5683
  582SOL     OW 2644   2.023   5.886   4.117  0.5987 -0.2032 -0.5508
  582SOL    HW1 2645   2.025   5.818   4.043 -3.5055 -1.0487 -0.0839
  582SOL    HW2 2646   1.947   5.949   4.102  1.5043  1.4728  1.4720
  583SOL     OW 2647   4.692   5.143   5.903  0.1767 -0.1232 -0.2979
  583SOL    HW1 2648   4.693   5.088   5.819 -1.9091  1.4084 -1.4123
  583SOL    HW2 2649   4.782   5.185   5.916  0.5268 -0.3241 -1.8241
  584SOL     OW 2650   0.533   1.704   1.395 -0.3962  0.0473 -0.2824
  584SOL    HW1 2651   0.629   1.733   1.390  0.2330 -1.7585  0.4181
  584SOL    HW2 2652   0.510   1.682   1.490 -0.9330 -1.2806 -0.6942
  585SOL     OW 2653   5.414   3.988   1.158  0.4921  0.4086  0.3665
  585SOL    HW1 2654   5.483   3.942   1.103  0.3311  0.2345  0.3109
  585SOL    HW2 2655   5.410   3.947   1.249 -1.7653 -1.7685 -0.5963
  586SOL     OW 2656   5.337   0.324   4.384  0.0104  0.2599  0.1882
  586SOL    HW1 2657   5.362   0.341   4.480 -1.9129  0.0270  0.7827
  586SOL    HW2 2658   5.269   0.251   4.380  1.8276 -1.4498 -1.6081
  587SOL     OW 2659   0.083   4.151   1.659  0.5060  0.1133  0.0958
  587SOL    HW1 2660   0.103   4.108   1.747 -0.7991  0.8566  0.7931
  587SOL    HW2 2661   0.112   4.247   1.662  2.6840 -0.4298 -1.1728
  588SOL     OW 2662   3.099   6.485   3.958 -0.1689  0.3185  0.4512
  588SOL    HW1 2663   3.000   6.482   3.973 -0.3863  1.1981 -0.6289
  588SOL    HW2 2664   3.123   6.574   3.918  0.6798 -0.8123 -1.6972
  589SOL     OW 2665   1.312   3.881   2.101 -0.9906  0.2588  0.4010
  589SOL    HW1 2666   1.412   3.884   2.105 -1.0013  0.3519  0.6083
  589SOL    HW2 2667   1.283   3.871   2.006 -0.8098  1.3306  0.2178
  590SOL     OW 2668   5.293   5.586   6.979  0.4558 -0.0930  0.5670
  590SOL    HW1 2669   5.265   5.603   7.073 -2.6660 -3.1335  0.3852
  590SOL    HW2 2670   5.355   5.508   6.977  1.7340  0.8911  0.1403
  591SOL     OW 2671   4.838   4.887   1.048  0.3651 -0.1569 -0.1603
  591SOL    HW1 2672   4.786   4.945   0.987  0.0818 -0.0722  0.1577
  591SOL    HW2 2673   4.934   4.913   1.046  0.2015  0.4863  0.1656
  592SOL     OW 2674   0.249   4.546   6.442  0.3386 -0.4996 -0.2677
  592SOL    HW1 2675   0.275   4.608   6.369  0.9067 -0.6907 -0.2381
  592SOL    HW2 2676   0.153   4.560   6.467  0.2542 -0.1726 -0.7828
  593SOL     OW 2677   0.590   3.268   4.543  0.3459 -0.2856  0.2826
  593SOL    HW1 2678   0.514   3.300   4.600 -0.1216 -0.0636 -0.4559
  593SOL    HW2 2679   0.589   3.169   4.539 -0.3817 -0.2571 -0.3575
  594SOL     OW 2680   2.271   1.481   2.296 -0.4009  0.1725  0.1375
  594SOL    HW1 2681   2.323   1.564   2.274 -0.4344  0.6756  1.8196
  594SOL    HW2 2682   2.244   1.435   2.211  0.3191  1.4359 -0.8124
  595SOL     OW 2683   0.394   3.992   6.356 -0.3147  0.4035  0.4179
  595SOL    HW1 2684   0.459   3.958   6.288  0.5350  1.0292  0.8979
  595SOL    HW2 2685   0.317   4.035   6.309  0.0471  0.4454 -0.1540
  596SOL     OW 2686   5.196   1.565   2.453 -0.1509  0.2655  1.4705
  596SOL    HW1 2687   5.147   1.570   2.540  0.1182 -2.0514  1.8117
  596SOL    HW2 2688   5.234   1.474   2.441  0.3292  0.6986 -0.8284
  597SOL     OW 2689   6.380   0.647   6.695  0.3549 -0.3148 -0.0262
  597SOL    HW1 2690   6.370   0.725   6.756  2.0524  1.0315 -1.3499
  597SOL    HW2 2691   6.426   0.572   6.743  0.5880  0.2770  0.6859
  598SOL     OW 2692   4.503   2.645   5.010 -0.3867 -0.4988 -0.1788
  598SOL    HW1 2693   4.481   2.671   4.916 -0.5443  0.8869  0.2116
  598SOL    HW2 2694   4.589   2.595   5.012 -0.1273 -0.1028 -1.0055
  599SOL     OW 2695   1.783   0.018   0.837 -0.2263 -0.1402 -0.1183
  599SOL    HW1 2696   1.734  -0.068   0.855 -2.0126  0.4315 -1.8415
  599SOL    HW2 2697   1.717   0.088   0.809  1.2543  1.6642  0.7244
  600SOL     OW 2698   5.394   5.219   1.559 -0.5363 -0.0109  0.0051
  600SOL    HW1 2699   5.342   5.137   1.534  1.8458 -1.3551 -0.8915
  600SOL    HW2 2700   5.490   5.194   1.573 -0.1482  2.2469  2.0859
  601SOL     OW 2701   5.854   4.673   6.844 -0.7816 -0.0004 -0.1245
  601SOL    HW1 2702   5.790   4.718   6.783 -0.5944  0.5488  0.0744
  601SOL    HW2 2703   5.829   4.692   6.939 -1.2496 -1.0976 -0.0129
  602SOL     OW 2704   3.066   4.465   6.701  0.7881  0.1901 -0.0793
  602SOL    HW1 2705   3.078   4.421   6.612  1.9703 -0.2247  0.2705
  602SOL    HW2 2706   3.042   4.395   6.769 -0.8374  0.5992 -0.1791
  603SOL     OW 2707   2.897   6.807   0.396  0.0966  1.0102  0.5022
  603SOL    HW1 2708   2.949   6.722   0.403 -0.8679  0.1236 -1.9609
  603SOL    HW2 2709   2.960   6.884   0.391  1.3410 -0.0465 -2.7491
  604SOL     OW 2710   0.187   4.358   3.932  0.3431  0.2582 -0.5122
  604SOL    HW1 2711   0.125   4.293   3.975  2.6532 -1.5254  0.3423
  604SOL    HW2 2712   0.225   4.318   3.849 -1.1127  2.1438 -2.1781
  605SOL     OW 2713   3.941   4.120   6.981 -0.1517 -0.9378  0.2851
  605SOL    HW1 2714   4.038   4.113   6.956  0.0951  0.4573  0.7648
  605SOL    HW2 2715   3.885   4.086   6.905  0.6927 -0.6945 -0.4656
  606SOL     OW 2716   5.432   3.930   6.820  0.4166  0.8329  0.0022
  606SOL    HW1 2717   5.513   3.918   6.877  0.2048 -0.0574  0.1312
  606SOL    HW2 2718   5.399   3.841   6.789 -1.0042  1.0889  0.6420
  607SOL     OW 2719   2.423   2.059   0.607 -0.0131 -0.0850 -0.1201
  607SOL    HW1 2720   2.380   2.108   0.531 -0.2335  1.4425  0.9506
  607SOL    HW2 2721   2.389   1.965   0.609 -0.3025 -0.0481 -1.6437
  608SOL     OW 2722   6.023   0.503   4.710 -0.1057 -0.1284  0.2581
  608SOL    HW1 2723   6.078   0.428   4.748  1.4950  0.2333 -1.2201
  608SOL    HW2 2724   6.077   0.587   4.708 -0.6530  0.2291 -1.3044
  609SOL     OW 2725   5.163   6.384   0.170 -0.0829 -0.6384  0.2294
  609SOL    HW1 2726   5.172   6.394   0.269  0.8946 -1.3378  0.2233
  609SOL    HW2 2727   5.141   6.473   0.130  1.7309  0.1470  0.8487
  610SOL     OW 2728   5.904   1.535   1.042 -0.7377 -0.1234 -0.2845
  610SOL    HW1 2729   5.920   1.448   0.994  0.8076 -0.3058  0.4683
  610SOL    HW2 2730   5.982   1.554   1.102  0.0128  2.8391 -1.9915
  611SOL     OW 2731   6.088   5.533   0.102 -0.0664 -0.4735  0.1090
  611SOL    HW1 2732   6.092   5.439   0.135  0.9954 -0.1138  1.0589
  611SOL    HW2 2733   6.025   5.586   0.158 -0.0772 -0.4296  0.0564
  612SOL     OW 2734   0.059   1.317   2.171 -0.0021 -0.5700 -0.3231
  612SOL    HW1 2735   0.098   1.244   2.115  0.0882 -0.4771 -0.3819
  612SOL    HW2 2736   0.050   1.400   2.117  1.0010 -0.1963  0.0564
  613SOL     OW 2737   4.437   1.147   2.100 -0.1996  0.2102 -0.7388
  613SOL    HW1 2738   4.399   1.221   2.045 -0.1225  2.3773  1.9047
  613SOL    HW2 2739   4.366   1.109   2.159  0.7930  2.2190  2.0244
  614SOL     OW 2740   5.246   4.840   0.865 -0.1633  0.1589  0.2821
  614SOL    HW1 2741   5.201   4.885   0.942 -0.8398 -0.2791  0.1482
  614SOL    HW2 2742   5.259   4.743   0.886  0.6198  0.2508  0.2691
  615SOL     OW 2743   6.284   5.813   4.819 -0.9660  0.0325 -0.6762
  615SOL    HW1 2744   6.379   5.793   4.842 -1.3086 -0.2991  0.5152
  615SOL    HW2 2745   6.257   5.760   4.739 -0.0444  0.4226 -1.2657
  616SOL     OW 2746   1.557   1.271   0.693 -0.6037  0.5167  0.4316
  616SOL    HW1 2747   1.624   1.345   0.683 -0.1074  0.0329  0.1312
  616SOL    HW2 2748   1.605   1.185   0.711 -1.2443  0.5349  2.4465
  617SOL     OW 2749   2.475   3.342   0.024 -0.5787  0.4482  0.0559
  617SOL    HW1 2750   2.385   3.338  -0.021 -0.5221  0.9536 -0.1083
  617SOL    HW2 2751   2.521   3.427  -0.002 -0.0986  0.2439  0.2309
  618SOL     OW 2752   0.172   3.694   5.457 -0.7510  0.2241 -0.1368
  618SOL    HW1 2753   0.124   3.691   5.545 -0.6933 -2.3168 -0.1175
  618SOL    HW2 2754   0.185   3.601   5.423  1.4502  1.0017 -1.6400
  619SOL     OW 2755   4.627   1.109   1.516  0.0226  0.2118 -0.1282
  619SOL    HW1 2756   4.605   1.181   1.583 -2.8318  0.2870 -1.0098
  619SOL    HW2 2757   4.543   1.062   1.490  1.4994 -1.8349 -1.4348
  620SOL     OW 2758   3.095   0.426   4.074 -0.0809 -0.2355 -0.1866
  620SOL    HW1 2759   3.163   0.370   4.122 -1.1111 -2.2043 -0.8735
  620SOL    HW2 2760   3.109   0.522   4.096  1.8671 -0.7253  0.9767
  621SOL     OW 2761   0.646   6.470   3.152  0.2216 -0.3624  1.0067
  621SOL    HW1 2762   0.639   6.523   3.068 -0.0630  0.4964  1.5685
  621SOL    HW2 2763   0.659   6.373   3.129  5.0561  0.2761 -0.1550
  622SOL     OW 2764   3.418   6.128   0.651 -0.1831 -0.3619 -0.0302
  622SOL    HW1 2765   3.473   6.187   0.592 -1.6242  0.4105 -0.6628
  622SOL    HW2 2766   3.371   6.060   0.594  0.5116 -1.3563  0.5575
  623SOL     OW 2767   3.090   3.421   6.518  0.1785 -0.7834 -0.2034
  623SOL    HW1 2768   3.006   3.412   6.571  1.3418  0.4095  1.9824
  623SOL    HW2 2769   3.147   3.339   6.531  0.4521 -0.5030  0.4312
  624SOL     OW 2770   6.942   5.895   3.923  0.2012 -0.9096  0.5523
  624SOL    HW1 2771   6.928   5.987   3.886  0.3381 -0.6992  1.0211
  624SOL    HW2 2772   7.026   5.857   3.885  0.2380 -0.7736  0.4962
  625SOL     OW 2773   3.627   6.501   2.722  0.2262  0.1204  0.2597
  625SOL    HW1 2774   3.581   6.565   2.783  0.1172  0.5942 -0.3089
  625SOL    HW2 2775   3.612   6.407   2.754 -0.3516  0.3247  0.6003
  626SOL     OW 2776   3.472   0.174   1.215  0.1716  0.8152  0.1783
  626SOL    HW1 2777   3.410   0.215   1.148  0.4553 -0.4894 -0.9078
  626SOL    HW2 2778   3.537   0.243   1.246  1.4109  0.9669 -2.4971
  627SOL     OW 2779   5.148   2.824   2.299  0.5274 -0.3741 -0.5177
  627SOL    HW1 2780   5.173   2.902   2.357  1.8837  0.3022 -1.9534
  627SOL    HW2 2781   5.100   2.857   2.218 -1.0117 -1.2821 -0.0351
  628SOL     OW 2782   6.016   5.233   6.804  0.1337 -0.2562  0.1061
  628SOL    HW1 2783   5.990   5.246   6.709 -0.6929  1.3335  0.5213
  628SOL    HW2 2784   6.116   5.241   6.812  0.4039 -2.1812 -0.8577
  629SOL     OW 2785   0.048   1.879   6.833  0.8608 -0.2877  0.5276
  629SOL    HW1 2786  -0.026   1.898   6.898  0.7024 -1.1286  0.6122
  629SOL    HW2 2787   0.122   1.831   6.881  0.1671 -2.1390 -0.1515
  630SOL     OW 2788   0.237   5.947   2.723 -0.2581 -0.1511  0.4285
  630SOL    HW1 2789   0.300   5.871   2.739 -2.4521 -1.7216  2.2123
  630SOL    HW2 2790   0.290   6.030   2.704  2.2559 -1.7697 -0.1281
  631SOL     OW 2791   3.923   0.123   6.679  0.1958 -0.2738  0.1742
  631SOL    HW1 2792   3.927   0.208   6.732  0.1944 -0.4011  0.3784
  631SOL    HW2 2793   3.972   0.051   6.728  1.7537  0.0525 -0.8311
  632SOL     OW 2794   2.954   1.155   3.065  0.0450 -0.6257  0.1008
  632SOL    HW1 2795   2.950   1.161   2.965  0.1859 -2.0115 -0.0116
  632SOL    HW2 2796   2.964   1.247   3.104 -1.6026  0.1012 -1.0697
  633SOL     OW 2797   2.267   0.375   4.454  0.2125 -0.1583 -0.3456
  633SOL    HW1 2798   2.188   0.360   4.514  0.7917  1.4284  0.9093
  633SOL    HW2 2799   2.344   0.319   4.485 -0.9520 -3.6166 -3.0232
  634SOL     OW 2800   4.651   4.273   2.243 -0.4572 -0.3567  0.2461
  634SOL    HW1 2801   4.586   4.282   2.167 -0.7358 -0.1844  0.5018
  634SOL    HW2 2802   4.713   4.197   2.225 -0.5831 -0.3770 -0.1091
  635SOL     OW 2803   1.951   5.608   5.748  0.1394  0.2925 -0.4469
  635SOL    HW1 2804   1.933   5.706   5.737 -0.1105  0.1192 -1.7350
  635SOL    HW2 2805   1.896   5.556   5.682 -0.6126 -0.8076  0.9996
  636SOL     OW 2806   5.163   6.401   0.933  0.2408 -0.0146 -0.3162
  636SOL    HW1 2807   5.226   6.383   0.857  0.1478 -0.7734 -0.2244
  636SOL    HW2 2808   5.178   6.493   0.968  1.8834 -0.4656  0.2453
  637SOL     OW 2809   6.310   4.763   1.032  0.1762 -0.7068 -0.0967
  637SOL    HW1 2810   6.298   4.856   1.000  0.7519 -0.5516  0.1170
  637SOL    HW2 2811   6.403   4.732   1.010 -0.0475 -1.2690 -0.2695
  638SOL     OW 2812   1.596   4.749   3.316  0.1347 -0.2848 -0.6247
  638SOL    HW1 2813   1.549   4.829   3.279 -1.9786 -1.2244 -0.1827
  638SOL    HW2 2814   1.547   4.666   3.286 -0.6608 -1.1744  2.7269
  639SOL     OW 2815   5.421   0.702   1.095  0.0821  0.1403 -0.5114
  639SOL    HW1 2816   5.416   0.802   1.102  0.4230  0.1489 -0.4064
  639SOL    HW2 2817   5.486   0.667   1.162  1.0498 -0.0327 -1.5170
  640SOL     OW 2818   1.667   4.394   6.728 -0.0861  0.0916 -0.1589
  640SOL    HW1 2819   1.579   4.416   6.685 -0.5928 -0.6175  0.4758
  640SOL    HW2 2820   1.696   4.471   6.785 -0.4791  0.1940 -0.0917
  641SOL     OW 2821   1.302   5.738   0.360 -0.0263 -0.0281 -0.5200
  641SOL    HW1 2822   1.314   5.683   0.443 -2.0953  0.0293 -0.1210
  641SOL    HW2 2823   1.295   5.835   0.385  0.6049  0.1200 -0.9024
  642SOL     OW 2824   2.801   0.760   1.395  0.2404  0.5875 -0.4324
  642SOL    HW1 2825   2.740   0.811   1.334 -0.9998 -1.7610 -1.3028
  642SOL    HW2 2826   2.773   0.773   1.490 -1.6125 -0.3291 -0.8068
  643SOL     OW 2827   5.814   6.290   3.698  0.0832  0.0204 -0.4132
  643SOL    HW1 2828   5.759   6.322   3.775  2.4959  1.0131  1.0249
  643SOL    HW2 2829   5.858   6.203   3.723 -2.7993 -2.2989 -2.5812
  644SOL     OW 2830   3.770   2.079   3.582 -0.2304 -0.3692 -0.2002
  644SOL    HW1 2831   3.804   2.132   3.504  0.0250 -0.0998  0.0947
  644SOL    HW2 2832   3.697   2.018   3.551 -0.1230 -0.2714 -0.6543
  645SOL     OW 2833   6.042   2.400   1.565  0.7767  0.3066  0.1835
  645SOL    HW1 2834   6.019   2.353   1.480 -0.5537 -1.0596  1.2362
  645SOL    HW2 2835   6.071   2.334   1.634  1.8673  1.3903  0.8038
  646SOL     OW 2836   5.211   4.619   2.502 -0.3080  0.0363 -0.0825
  646SOL    HW1 2837   5.117   4.599   2.475 -0.2984 -0.2235  0.0789
  646SOL    HW2 2838   5.271   4.613   2.422 -0.5138  0.7789 -0.3042
  647SOL     OW 2839   3.049   0.206   3.547  0.0527 -0.3814  0.2615
  647SOL    HW1 2840   3.039   0.119   3.498  0.4094 -0.5260  0.4423
  647SOL    HW2 2841   3.145   0.221   3.570  0.0133  0.1331  0.1070
  648SOL     OW 2842   3.932   4.057   5.318  0.2227  0.0417  0.2455
  648SOL    HW1 2843   3.923   4.028   5.223 -1.4898 -0.2561  0.4575
  648SOL    HW2 2844   3.904   3.982   5.378  4.6014 -1.0867  1.1980
  649SOL     OW 2845   0.641   1.850   3.807 -0.4125 -0.0545 -0.2138
  649SOL    HW1 2846   0.740   1.853   3.821 -0.1490  0.1358 -1.9674
  649SOL    HW2 2847   0.599   1.932   3.846  0.3198  0.6428 -0.8669
  650SOL     OW 2848   2.246   2.904   2.330  0.5514  0.4046 -0.2514
  650SOL    HW1 2849   2.291   2.867   2.412 -1.1958 -0.0339  0.5546
  650SOL    HW2 2850   2.278   2.853   2.250  2.0778  0.6491  0.1624
  651SOL     OW 2851   1.707   3.926   0.907 -0.1409  0.3217  0.7187
  651SOL    HW1 2852   1.787   3.961   0.858 -0.9684  0.3306 -0.6789
  651SOL    HW2 2853   1.715   3.948   1.004  1.0225  1.2903  0.4241
  652SOL     OW 2854   1.375   4.013   5.181 -0.3895  0.0886  0.1575
  652SOL    HW1 2855   1.387   4.100   5.134 -0.9906  2.3371  3.8029
  652SOL    HW2 2856   1.278   3.997   5.199 -0.3025 -1.4730 -0.5706
  653SOL     OW 2857   1.262   1.015   1.825  0.1839 -0.2319 -0.3711
  653SOL    HW1 2858   1.287   1.110   1.806 -1.1755  0.3744  0.6722
  653SOL    HW2 2859   1.289   0.992   1.919  0.6631 -0.9521 -0.6755
  654SOL     OW 2860   3.410   3.093   0.400  0.3237  0.4938  0.2336
  654SOL    HW1 2861   3.365   3.019   0.450  0.5911  0.0588 -0.1668
  654SOL    HW2 2862   3.341   3.147   0.351  0.3306 -1.1137 -1.6554
  655SOL     OW 2863   2.757   4.466   0.589 -0.2416 -0.2707  0.0980
  655SOL    HW1 2864   2.829   4.421   0.643  1.2338  0.2439 -1.3553
  655SOL    HW2 2865   2.668   4.430   0.615  0.6494 -1.8389  1.0955
  656SOL     OW 2866   1.636   6.825   4.985 -0.1137  0.1788  0.2950
  656SOL    HW1 2867   1.683   6.787   4.906  0.2775  0.0316  0.5940
  656SOL    HW2 2868   1.694   6.893   5.030 -0.7421  1.0269 -0.1408
  657SOL     OW 2869   1.369   4.259   7.018 -0.1028  0.3212 -0.3562
  657SOL    HW1 2870   1.340   4.169   7.052 -1.7604  1.0603  0.2996
  657SOL    HW2 2871   1.466   4.272   7.036  0.5139 -1.8651 -1.6932
  658SOL     OW 2872   4.231   2.279   4.800 -0.2898 -0.2537  0.2112
  658SOL    HW1 2873   4.162   2.230   4.746  0.3047  0.3766 -1.1705
  658SOL    HW2 2874   4.192   2.306   4.888 -1.0826 -1.9076  0.4066
  659SOL     OW 2875   4.947   3.646   3.314 -0.0881  0.2617 -0.0164
  659SOL    HW1 2876   4.940   3.675   3.409  0.5061  2.2921 -0.5296
  659SOL    HW2 2877   4.897   3.561   3.301 -0.1498 -0.0766  2.1069
  660SOL     OW 2878   6.364   4.048   2.925 -0.6052 -0.0566 -0.3140
  660SOL    HW1 2879   6.377   4.090   3.015  1.7358 -0.6524 -0.3192
  660SOL    HW2 2880   6.291   4.096   2.876  0.9675  3.1341  0.2102
  661SOL     OW 2881   3.220   4.193   5.187 -0.4439 -0.3199  0.5722
  661SOL    HW1 2882   3.203   4.198   5.088  0.9396  1.9130  0.3938
  661SOL    HW2 2883   3.286   4.263   5.214 -0.5414 -1.0805  3.0618
  662SOL     OW 2884   4.019   2.671   1.042  0.0952  0.6475  0.1087
  662SOL    HW1 2885   4.113   2.703   1.051  0.4648 -0.5260  0.6986
  662SOL    HW2 2886   3.993   2.620   1.124 -0.2379 -1.0108 -0.9645
  663SOL     OW 2887   3.561   4.334   0.197  0.0758 -0.2505  0.4740
  663SOL    HW1 2888   3.630   4.263   0.213  0.9406  0.6344  0.8138
  663SOL    HW2 2889   3.548   4.347   0.099  2.0046  1.0177  0.3202
  664SOL     OW 2890   1.955   6.141   3.408 -0.0807 -0.3401  0.3171
  664SOL    HW1 2891   2.023   6.202   3.367 -2.2159  1.6843 -0.3861
  664SOL    HW2 2892   1.895   6.105   3.338 -1.8828  0.7269  1.2321
  665SOL     OW 2893   2.725   6.546   2.461 -0.3053 -0.0576  0.2939
  665SOL    HW1 2894   2.723   6.537   2.561 -0.3171  0.9749  0.3993
  665SOL    HW2 2895   2.632   6.537   2.424 -0.5014  0.9281  0.5212
  666SOL     OW 2896   6.360   0.544   0.659  0.4874 -0.7667  0.0931
  666SOL    HW1 2897   6.401   0.620   0.608 -0.7198  0.8394  1.4211
  666SOL    HW2 2898   6.421   0.516   0.733  1.0306 -1.2746 -0.5305
  667SOL     OW 2899   2.608   2.197   3.833 -0.0343  0.0467 -0.2963
  667SOL    HW1 2900   2.696   2.223   3.871 -0.2524  0.2334  0.0884
  667SOL    HW2 2901   2.536   2.254   3.873 -0.3433 -0.1906 -0.5073
  668SOL     OW 2902   1.067   0.805   1.352  0.1204 -0.3905 -0.0288
  668SOL    HW1 2903   1.001   0.760   1.293  0.0742  1.2140 -1.2901
  668SOL    HW2 2904   1.034   0.897   1.375  1.9751  0.5489 -0.8943
  669SOL     OW 2905   5.740   4.594   1.555  0.1839 -0.2032  0.2193
  669SOL    HW1 2906   5.643   4.571   1.553  0.2128 -0.3351 -2.2928
  669SOL    HW2 2907   5.793   4.515   1.585 -0.3964 -0.4086  0.7179
  670SOL     OW 2908   2.317   3.237   1.397 -0.2368  0.3766  0.2721
  670SOL    HW1 2909   2.398   3.191   1.360  0.3922 -0.1329  2.1978
  670SOL    HW2 2910   2.239   3.175   1.394 -0.1423  0.2687  0.0031
  671SOL     OW 2911   5.441   0.974   3.906 -0.6279  0.0761  0.0799
  671SOL    HW1 2912   5.394   0.897   3.949 -0.0872  0.6157  1.7125
  671SOL    HW2 2913   5.528   0.943   3.867  0.0134  0.0044  1.5294
  672SOL     OW 2914   1.498   0.969   6.294  0.3083 -0.4282  0.3329
  672SOL    HW1 2915   1.493   1.025   6.211  2.8970 -1.3979 -0.5603
  672SOL    HW2 2916   1.414   0.982   6.347 -0.7595  1.4280 -1.6292
  673SOL     OW 2917   0.801   6.867   6.003 -0.0697  0.3207  0.8740
  673SOL    HW1 2918   0.864   6.885   5.927  0.5003 -1.8673  0.7538
  673SOL    HW2 2919   0.715   6.830   5.967 -0.0041 -0.2028  1.2414
  674SOL     OW 2920   5.274   2.699   1.312  0.3770 -0.4152 -0.3143
  674SOL    HW1 2921   5.205   2.771   1.308  1.1946  0.3400 -2.5116
  674SOL    HW2 2922   5.290   2.673   1.407 -1.2289  1.0261  0.3996
  675SOL     OW 2923   0.567   3.974   5.605  0.0468  0.3201 -0.5331
  675SOL    HW1 2924   0.617   3.888   5.609 -0.3658  0.0949 -0.0840
  675SOL    HW2 2925   0.484   3.962   5.551 -0.9962 -0.0962  1.0987
  676SOL     OW 2926   1.306   1.257   0.896 -0.0488  0.3824 -0.5631
  676SOL    HW1 2927   1.345   1.232   0.984 -2.6061  1.0672  0.8499
  676SOL    HW2 2928   1.363   1.327   0.853  1.3428 -0.1034  0.4342
  677SOL     OW 2929   3.743   3.126   6.031 -0.0823 -0.0392  0.2323
  677SOL    HW1 2930   3.793   3.207   5.999 -1.0541  0.3684 -0.3180
  677SOL    HW2 2931   3.671   3.104   5.965  0.2123 -1.4109  0.3346
  678SOL     OW 2932   2.414   5.693   6.066 -0.1921 -0.0385 -0.9347
  678SOL    HW1 2933   2.346   5.763   6.085  0.6255  0.5339 -0.0161
  678SOL    HW2 2934   2.456   5.663   6.152  2.1560  1.1181 -1.5808
  679SOL     OW 2935   1.923   2.584   4.654 -0.2702 -0.4427 -0.3930
  679SOL    HW1 2936   1.841   2.555   4.703 -0.7274  1.3582 -0.0324
  679SOL    HW2 2937   1.994   2.610   4.719 -0.0288 -0.3130 -0.7034
  680SOL     OW 2938   5.530   5.418   5.371 -0.2564  0.1579  0.0935
  680SOL    HW1 2939   5.610   5.376   5.413 -0.8565 -1.2772 -0.1315
  680SOL    HW2 2940   5.554   5.455   5.282  0.1502 -0.2921  0.0136
  681SOL     OW 2941   2.219   5.110   1.241  0.1660  0.1403  0.5497
  681SOL    HW1 2942   2.249   5.143   1.152  0.1487 -4.5249 -1.5109
  681SOL    HW2 2943   2.295   5.064   1.287 -0.8142 -1.2336  0.8644
  682SOL     OW 2944   2.217   0.491   5.825 -0.2678 -0.0285 -0.1370
  682SOL    HW1 2945   2.201   0.495   5.924 -1.7166  1.1886 -0.3860
  682SOL    HW2 2946   2.193   0.578   5.784 -0.7694 -0.8742 -1.7107
  683SOL     OW 2947   2.148   3.442   1.699  0.2683 -0.7988 -1.0137
  683SOL    HW1 2948   2.140   3.530   1.651 -0.8280 -1.7844 -2.7470
  683SOL    HW2 2949   2.205   3.453   1.780  1.4882  1.1543 -2.0756
  684SOL     OW 2950   5.233   6.212   3.638  0.5385 -0.2902  0.6211
  684SOL    HW1 2951   5.170   6.257   3.701 -1.6036 -2.2546  0.0183
  684SOL    HW2 2952   5.288   6.145   3.687 -0.8035 -1.4910  0.5460
  685SOL     OW 2953   1.771   2.019   2.377  0.1678 -0.4318  0.3572
  685SOL    HW1 2954   1.724   2.106   2.360 -0.0955 -0.7103 -0.3708
  685SOL    HW2 2955   1.760   1.993   2.473 -1.1345 -0.4718  0.2075
  686SOL     OW 2956   6.252   6.070   3.257  0.0499 -0.3662  0.2093
  686SOL    HW1 2957   6.200   6.110   3.182 -0.8527  1.6171  1.7926
  686SOL    HW2 2958   6.335   6.027   3.222  0.0684  1.2269 -1.8141
  687SOL     OW 2959   2.214   4.518   6.632  0.5237 -0.6289  1.0637
  687SOL    HW1 2960   2.306   4.532   6.667  0.3039 -0.5510  1.6355
  687SOL    HW2 2961   2.161   4.603   6.642  0.6659 -0.3890 -0.1454
  688SOL     OW 2962   2.512   3.031   0.299  0.1803  0.0794 -0.5319
  688SOL    HW1 2963   2.612   3.025   0.304  0.2168  1.3760  1.1883
  688SOL    HW2 2964   2.485   3.126   0.286 -0.8597  0.3821  2.9128
  689SOL     OW 2965   2.158   6.520   3.242 -0.1881 -0.6934  0.0888
  689SOL    HW1 2966   2.148   6.427   3.278 -0.6483 -0.6589  0.0554
  689SOL    HW2 2967   2.103   6.583   3.298 -0.6104 -0.5831 -0.4404
  690SOL     OW 2968   5.455   5.855   4.178 -0.1269  0.3743  0.1593
  690SOL    HW1 2969   5.486   5.800   4.101 -0.4245 -0.3308  0.5343
  690SOL    HW2 2970   5.499   5.823   4.262  0.3390  1.2593  0.2595
  691SOL     OW 2971   5.018   0.464   0.904 -0.6596  0.2793  0.4697
  691SOL    HW1 2972   5.079   0.484   0.980  1.5499 -0.6989 -0.9495
  691SOL    HW2 2973   4.957   0.542   0.889  0.4968  1.4631  1.6949
  692SOL     OW 2974   5.670   5.110   3.366 -0.2497 -0.1380 -0.2026
  692SOL    HW1 2975   5.733   5.185   3.387  0.0448 -0.7140  1.0733
  692SOL    HW2 2976   5.576   5.143   3.373 -0.1163  0.2158 -0.0505
  693SOL     OW 2977   6.956   4.412   4.920  0.3282 -0.5284 -0.2872
  693SOL    HW1 2978   7.017   4.489   4.940  0.1476 -0.6743  0.9380
  693SOL    HW2 2979   6.894   4.399   4.997  0.2477 -1.7982 -0.5470
  694SOL     OW 2980   2.376   0.281   6.168 -0.1088  0.0497 -0.2677
  694SOL    HW1 2981   2.442   0.250   6.099 -2.0749 -1.5093 -1.5722
  694SOL    HW2 2982   2.319   0.354   6.129 -0.1064  0.3757  0.3291
  695SOL     OW 2983   3.466   5.977   4.432 -0.0222  0.2176 -0.4524
  695SOL    HW1 2984   3.487   5.899   4.491 -0.3360 -0.6376 -1.4505
  695SOL    HW2 2985   3.419   5.946   4.350  0.0242  1.4394 -0.9711
  696SOL     OW 2986   2.829   6.228   0.780 -0.6113  0.4418 -0.2395
  696SOL    HW1 2987   2.914   6.179   0.801 -0.0381  1.2290 -0.6556
  696SOL    HW2 2988   2.812   6.297   0.850 -1.4707 -0.3982  0.4006
  697SOL     OW 2989   5.210   1.720   3.960  0.4951 -0.4396  0.6963
  697SOL    HW1 2990   5.184   1.745   4.053 -1.3389  0.4850 -0.0059
  697SOL    HW2 2991   5.234   1.803   3.909  0.5997 -0.8298  0.0923
  698SOL     OW 2992   0.921   2.750   4.918  0.1135  0.2556 -0.1919
  698SOL    HW1 2993   0.856   2.677   4.896  0.2105 -0.3012  1.2550
  698SOL    HW2 2994   0.873   2.838   4.917 -0.0048  0.2089 -1.9331
  699SOL     OW 2995   4.643   6.292   5.413 -0.0275  0.1466 -0.1893
  699SOL    HW1 2996   4.560   6.238   5.424 -0.3164  0.4916 -0.6578
  699SOL    HW2 2997   4.622   6.378   5.366  0.7026 -0.0721 -0.9556
  700SOL     OW 2998   6.922   3.039   6.066 -0.0927 -0.3528 -0.1907
  700SOL    HW1 2999   6.986   3.010   6.137  1.4745  4.0663  0.5401
  700SOL    HW2 3000   6.828   3.031   6.099  0.3230 -2.4591  0.5925
  701SOL     OW 3001   6.257   3.233   6.134  0.2573  0.1252  0.3028
  701SOL    HW1 3002   6.160   3.209   6.132  0.1894  0.2440  1.5032
  701SOL    HW2 3003   6.293   3.218   6.226  1.2172  0.7260  0.0348
  702SOL     OW 3004   0.059   5.208   3.984 -0.4282  0.0230 -1.2653
  702SOL    HW1 3005   0.067   5.295   3.935 -1.8142  0.8091 -0.1850
  702SOL    HW2 3006   0.033   5.226   4.079 -2.4497 -1.6225 -1.4377
  703SOL     OW 3007   1.813   4.613   0.919 -0.1685 -0.0934 -0.2773
  703SOL    HW1 3008   1.868   4.541   0.877  0.0610 -0.2280  0.2560
  703SOL    HW2 3009   1.855   4.642   1.004  0.4925  1.6273 -1.1406
  704SOL     OW 3010   2.237   5.327   6.755 -0.3164 -0.5549 -0.4867
  704SOL    HW1 3011   2.294   5.280   6.823 -1.1385 -0.6491  0.1586
  704SOL    HW2 3012   2.251   5.284   6.666  0.5914 -0.5962 -0.3421
  705SOL     OW 3013   0.332   2.091   2.914  0.3952  0.2232 -0.1922
  705SOL    HW1 3014   0.296   2.026   2.847  0.0534  0.8816 -0.6557
  705SOL    HW2 3015   0.331   2.183   2.875  3.7889  0.1571 -0.7582
  706SOL     OW 3016   0.732   3.713   2.460 -0.0837  0.2061 -0.0707
  706SOL    HW1 3017   0.686   3.759   2.536 -1.4680  0.3742 -0.9943
  706SOL    HW2 3018   0.831   3.727   2.468 -0.2398  0.6083  1.4355
  707SOL     OW 3019   3.352   4.686   1.418 -0.4768  0.7759  0.2050
  707SOL    HW1 3020   3.281   4.755   1.400 -1.8069 -0.8279 -1.0602
  707SOL    HW2 3021   3.330   4.637   1.502 -0.1727  1.0978  0.4756
  708SOL     OW 3022   5.351   0.896   1.415 -0.2257 -0.1528 -0.1219
  708SOL    HW1 3023   5.280   0.960   1.383  0.0608 -1.0867 -2.8875
  708SOL    HW2 3024   5.436   0.914   1.365  1.3617  0.4339  2.5899
  709SOL     OW 3025   0.612   5.139   5.909 -0.1771 -0.5922 -0.1355
  709SOL    HW1 3026   0.674   5.171   5.837 -1.1447 -0.8442 -1.0905
  709SOL    HW2 3027   0.586   5.044   5.892  2.5628 -2.0218  2.6003
  710SOL     OW 3028   3.141   5.897   5.720 -0.3674 -0.0777  0.5839
  710SOL    HW1 3029   3.107   5.804   5.734 -0.5573 -0.0673  0.1812
  710SOL    HW2 3030   3.145   5.918   5.623  1.6175 -0.3850  0.5491
  711SOL     OW 3031   5.123   3.695   5.356  0.4524 -0.2502 -0.2753
  711SOL    HW1 3032   5.028   3.708   5.329  0.5012  0.9244  0.0880
  711SOL    HW2 3033   5.127   3.643   5.442  0.2027 -1.4653 -0.9742
  712SOL     OW 3034   4.388   4.560   0.907 -0.1804 -0.2455  0.4962
  712SOL    HW1 3035   4.405   4.503   0.826  1.6710  0.7279  0.1535
  712SOL    HW2 3036   4.456   4.539   0.977 -1.0571 -0.2386  1.3822
  713SOL     OW 3037   6.392   5.321   0.064  0.2061  0.0431 -0.5744
  713SOL    HW1 3038   6.488   5.293   0.060 -0.2599 -1.8391  0.3565
  713SOL    HW2 3039   6.344   5.266   0.133 -2.2122 -1.1911 -3.0525
  714SOL     OW 3040   5.311   1.241   3.948 -0.5406 -1.0326  0.6304
  714SOL    HW1 3041   5.331   1.144   3.934 -0.8091 -0.9201 -0.5610
  714SOL    HW2 3042   5.219   1.262   3.915 -0.3779 -0.3103  0.6248
  715SOL     OW 3043   2.826   2.401   0.033  0.4088  0.4475 -0.0903
  715SOL    HW1 3044   2.738   2.354   0.040  1.4066 -2.9527 -4.9936
  715SOL    HW2 3045   2.811   2.498   0.015 -2.4305 -0.0792 -1.0612
  716SOL     OW 3046   6.607   4.887   1.089 -0.1906  0.4201  0.5439
  716SOL    HW1 3047   6.630   4.984   1.094  0.1010  0.3453  0.6801
  716SOL    HW2 3048   6.664   4.836   1.152 -1.1923  0.3069  1.3811
  717SOL     OW 3049   3.052   6.838   6.483 -0.0665 -0.2329 -0.4345
  717SOL    HW1 3050   3.017   6.783   6.408  0.0382  0.2770 -0.8604
  717SOL    HW2 3051   3.050   6.935   6.458  0.7693 -0.1194 -0.1147
  718SOL     OW 3052   3.837   1.909   5.800 -0.1330  0.4959 -0.3420
  718SOL    HW1 3053   3.910   1.902   5.733  0.1791 -2.0978  0.1536
  718SOL    HW2 3054   3.869   1.957   5.882  0.2381  1.4807 -1.0561
  719SOL     OW 3055   1.239   6.185   0.817  0.4013  0.1474 -0.1337
  719SOL    HW1 3056   1.275   6.136   0.737  0.8202 -1.4739  1.0073
  719SOL    HW2 3057   1.185   6.122   0.873 -1.0261  1.6014  0.1827
  720SOL     OW 3058   0.010   1.317   4.309  0.4374 -0.3385 -0.0655
  720SOL    HW1 3059  -0.013   1.398   4.254 -0.8383  0.0571  0.9893
  720SOL    HW2 3060   0.109   1.313   4.323  0.5472  0.8937 -0.3591
  721SOL     OW 3061   6.017   2.408   1.045 -0.4466 -0.3444  0.1270
  721SOL    HW1 3062   5.936   2.457   1.079  0.4237  1.7233 -0.6154
  721SOL    HW2 3063   6.019   2.413   0.945  0.4035 -0.6897  0.1181
  722SOL     OW 3064   5.673   5.291   5.103 -0.1361 -0.6151  0.5293
  722SOL    HW1 3065   5.624   5.325   5.023 -0.1805 -0.3889  0.6511
  722SOL    HW2 3066   5.762   5.336   5.109  1.5805 -3.3841 -1.5816
  723SOL     OW 3067   4.072   3.996   0.248 -0.1861  0.3333  0.8179
  723SOL    HW1 3068   4.147   4.047   0.292  0.5785  0.7148 -0.8662
  723SOL    HW2 3069   4.091   3.987   0.151  0.3126 -4.1987  1.1433
  724SOL     OW 3070   3.415   5.768   6.853 -0.3126 -0.6100  0.6640
  724SOL    HW1 3071   3.499   5.807   6.815 -1.1328  0.5905  0.0139
  724SOL    HW2 3072   3.402   5.676   6.818 -0.1509 -0.1676 -0.6285
  725SOL     OW 3073   2.706   2.339   3.002 -0.4340 -0.4334 -0.0901
  725SOL    HW1 3074   2.695   2.365   3.098 -0.7742 -0.8905 -0.0005
  725SOL    HW2 3075   2.761   2.256   2.995  1.0340  0.5408 -0.4046
  726SOL     OW 3076   2.674   4.801   0.220  0.0321  0.6212  0.4501
  726SOL    HW1 3077   2.707   4.791   0.314  1.3977  1.6529  0.1253
  726SOL    HW2 3078   2.752   4.819   0.160 -0.2611 -3.5427 -1.5366
  727SOL     OW 3079   6.941   6.462   3.877 -0.1708 -0.2925  0.1668
  727SOL    HW1 3080   6.966   6.414   3.793 -0.6416 -1.4282  0.6576
  727SOL    HW2 3081   6.842   6.461   3.888 -0.1466  0.2732  0.4989
  728SOL     OW 3082   4.913   3.464   2.227 -0.1302  0.0108  0.1944
  728SOL    HW1 3083   4.949   3.451   2.135 -1.6418 -0.1578 -0.4107
  728SOL    HW2 3084   4.892   3.561   2.241  0.4456  0.0953  0.5125
  729SOL     OW 3085   3.499   0.403   6.012  0.1761  0.6439 -0.6615
  729SOL    HW1 3086   3.416   0.358   5.979 -0.7451  1.3173  0.6464
  729SOL    HW2 3087   3.543   0.347   6.081 -0.1390  1.0536 -0.1230
  730SOL     OW 3088   3.590   1.151   0.251  0.0858 -0.2736  0.2240
  730SOL    HW1 3089   3.663   1.095   0.211  0.5748 -0.6506  1.6010
  730SOL    HW2 3090   3.547   1.101   0.326 -0.7556  0.4505  0.2359
  731SOL     OW 3091   3.491   6.116   5.415 -0.4594  0.1587 -0.4876
  731SOL    HW1 3092   3.537   6.181   5.355 -0.3374  0.8094  0.2894
  731SOL    HW2 3093   3.556   6.080   5.481 -0.8102  0.2089 -0.1105
  732SOL     OW 3094   3.551   2.896   4.611  0.4447 -0.4226 -0.0715
  732SOL    HW1 3095   3.590   2.985   4.634  0.8924 -0.4659 -0.6474
  732SOL    HW2 3096   3.460   2.887   4.653  0.7962 -0.0822  0.7879
  733SOL     OW 3097   6.381   2.049   5.750  0.1453 -0.7945 -0.3091
  733SOL    HW1 3098   6.417   2.045   5.843 -1.5417 -0.4155  0.3904
  733SOL    HW2 3099   6.338   1.962   5.727 -0.5525 -0.4679 -0.2559
  734SOL     OW 3100   4.058   1.097   0.277  0.6034  0.3182  0.0952
  734SOL    HW1 3101   4.075   1.052   0.365  1.5580 -0.3091 -0.3935
  734SOL    HW2 3102   4.099   1.043   0.203 -1.0229  0.3263 -0.8515
  735SOL     OW 3103   4.690   5.406   3.182 -0.0965  0.6954  0.2029
  735SOL    HW1 3104   4.739   5.336   3.129 -0.0734  0.2032  0.8657
  735SOL    HW2 3105   4.660   5.479   3.120  0.2150  0.2922 -0.4384
  736SOL     OW 3106   1.690   6.786   3.009 -0.0538 -0.6138  0.0400
  736SOL    HW1 3107   1.697   6.743   3.098 -0.7562 -0.5053  0.1538
  736SOL    HW2 3108   1.623   6.737   2.953  1.4919 -1.6369 -1.0004
  737SOL     OW 3109   4.488   6.690   2.998 -0.5656 -0.3015  0.0987
  737SOL    HW1 3110   4.563   6.736   2.950 -1.1290 -0.4141 -0.9113
  737SOL    HW2 3111   4.526   6.628   3.067  0.2198  2.0495  1.9182
  738SOL     OW 3112   2.080   3.029   1.080 -0.1206 -0.0281  0.6729
  738SOL    HW1 3113   2.008   2.966   1.109  0.3859 -1.3288 -0.7324
  738SOL    HW2 3114   2.144   2.980   1.021  1.2767  1.3954  0.9564
  739SOL     OW 3115   2.694   6.881   1.347 -0.2365 -0.1243  0.3083
  739SOL    HW1 3116   2.643   6.933   1.278  0.1312  0.2814  0.3405
  739SOL    HW2 3117   2.782   6.853   1.309 -0.0203  0.1243  0.6142
  740SOL     OW 3118   3.565   6.479   4.964  0.4948 -0.1518  0.5048
  740SOL    HW1 3119   3.598   6.555   4.908 -0.1719 -1.0162 -1.1462
  740SOL    HW2 3120   3.465   6.476   4.958  0.5832 -2.2500 -1.0534
  741SOL     OW 3121   5.184   6.745   2.104 -0.1031  0.4748 -0.0602
  741SOL    HW1 3122   5.118   6.815   2.128 -1.8145 -0.7354 -1.0002
  741SOL    HW2 3123   5.199   6.746   2.005 -1.1179 -1.2288 -0.2698
  742SOL     OW 3124   6.075   4.362   4.278 -0.5527  0.2389  0.1472
  742SOL    HW1 3125   6.104   4.383   4.371  2.0331  1.5921 -0.8495
  742SOL    HW2 3126   6.055   4.447   4.229 -1.0288 -0.3856 -0.7739
  743SOL     OW 3127   5.498   6.175   1.290  0.3195  0.1830 -0.0006
  743SOL    HW1 3128   5.585   6.146   1.252  0.3751 -0.3731  0.5478
  743SOL    HW2 3129   5.446   6.224   1.220  1.2239  0.8609 -0.2198
  744SOL     OW 3130   3.869   6.355   5.220  0.2819 -0.3144 -0.0430
  744SOL    HW1 3131   3.931   6.427   5.190  0.1306 -0.7059 -1.3766
  744SOL    HW2 3132   3.917   6.267   5.222  0.2761 -0.3105  0.8728
  745SOL     OW 3133   3.815   3.249   5.724  0.1872 -0.2704 -0.7501
  745SOL    HW1 3134   3.833   3.276   5.630 -1.0968  0.4535 -0.7945
  745SOL    HW2 3135   3.722   3.213   5.732  0.5178 -0.9914  0.1131
  746SOL     OW 3136   1.162   4.826   6.858 -0.2038 -0.4602 -0.6062
  746SOL    HW1 3137   1.194   4.839   6.952  0.0558  0.2828 -0.7947
  746SOL    HW2 3138   1.094   4.896   6.836 -0.9827 -1.2102 -0.6594
  747SOL     OW 3139   2.543   2.347   6.369 -0.2758 -0.1416  0.0659
  747SOL    HW1 3140   2.603   2.276   6.405 -1.6631 -0.7098  1.3704
  747SOL    HW2 3141   2.589   2.394   6.294  1.1756 -1.5509  0.0091
  748SOL     OW 3142   1.852   3.699   4.786 -0.3324 -0.4939  1.0451
  748SOL    HW1 3143   1.849   3.780   4.845  0.0169  0.6412 -0.4488
  748SOL    HW2 3144   1.943   3.657   4.793 -0.4122 -0.5847  1.5870
  749SOL     OW 3145   5.334   0.826   1.693 -0.0108 -0.3276  0.8776
  749SOL    HW1 3146   5.334   0.838   1.593 -0.3963 -0.4107  0.8647
  749SOL    HW2 3147   5.276   0.895   1.735 -0.6883 -0.9324  0.9563
  750SOL     OW 3148   1.271   3.847   4.020  0.5144 -1.2811 -0.6777
  750SOL    HW1 3149   1.301   3.866   3.927 -1.1135  0.7943 -0.8651
  750SOL    HW2 3150   1.173   3.827   4.020  0.4823 -1.2072  0.5977
  751SOL     OW 3151   0.333   5.383   5.944 -0.1361  0.2275  0.3469
  751SOL    HW1 3152   0.395   5.340   6.010  0.0172  2.1125  1.5380
  751SOL    HW2 3153   0.246   5.335   5.942 -0.0969  0.0429  1.8704
  752SOL     OW 3154   2.084   0.653   5.415  0.0475  0.1083  0.1593
  752SOL    HW1 3155   2.046   0.655   5.323 -2.1002 -0.0886  0.9952
  752SOL    HW2 3156   2.018   0.692   5.479  1.1490 -0.5520  1.7436
  753SOL     OW 3157   1.281   6.510   4.832 -0.5705 -0.3341 -0.0136
  753SOL    HW1 3158   1.222   6.509   4.912  0.8488 -0.7385  1.0637
  753SOL    HW2 3159   1.295   6.416   4.800 -0.6376 -0.2247 -0.3795
  754SOL     OW 3160   1.408   2.839   2.181  0.5447  0.1302 -0.2352
  754SOL    HW1 3161   1.440   2.778   2.253 -0.9842 -0.0652  0.3292
  754SOL    HW2 3162   1.465   2.921   2.179  1.6168 -0.5865  0.0862
  755SOL     OW 3163   0.325   5.314   5.113 -0.4550  0.0692  0.0850
  755SOL    HW1 3164   0.323   5.357   5.023  1.3579  1.8780  0.8383
  755SOL    HW2 3165   0.313   5.215   5.103 -0.2436  0.2207 -2.1333
  756SOL     OW 3166   3.561   5.848   6.296  0.0784  0.9751  0.1518
  756SOL    HW1 3167   3.494   5.886   6.232 -1.0061 -0.1029  0.5864
  756SOL    HW2 3168   3.563   5.748   6.286  0.0104  0.7991  1.6681
  757SOL     OW 3169   2.199   3.160   3.416  0.0626  0.1357  0.0177
  757SOL    HW1 3170   2.188   3.158   3.316 -0.8828 -2.9690  0.0966
  757SOL    HW2 3171   2.259   3.086   3.444  0.6507  1.2291  1.7816
  758SOL     OW 3172   1.633   2.920   6.927 -0.1962 -0.6745  0.2332
  758SOL    HW1 3173   1.724   2.879   6.925  0.7596  1.0424  2.9548
  758SOL    HW2 3174   1.606   2.937   7.021 -3.4825 -1.2882 -0.4839
  759SOL     OW 3175   5.648   3.347   6.313  0.0318 -0.1468 -0.2994
  759SOL    HW1 3176   5.694   3.392   6.236  1.0629  0.4913  0.6547
  759SOL    HW2 3177   5.642   3.249   6.295 -2.0611  0.2617 -2.3268
  760SOL     OW 3178   4.948   0.175   1.830  0.6635 -0.3145  0.0186
  760SOL    HW1 3179   5.046   0.159   1.846  0.9622  0.3446 -1.0172
  760SOL    HW2 3180   4.937   0.253   1.768 -0.5030 -0.7480 -0.3430
  761SOL     OW 3181   3.952   2.248   5.860 -0.4400 -0.5858 -0.4698
  761SOL    HW1 3182   3.983   2.212   5.772 -0.9521  0.9931 -1.3275
  761SOL    HW2 3183   3.924   2.343   5.850  0.2502 -0.1114  1.5837
  762SOL     OW 3184   3.324   4.608   1.060 -0.1425  0.4148 -0.1854
  762SOL    HW1 3185   3.269   4.589   0.979 -1.2704 -0.4253  0.7445
  762SOL    HW2 3186   3.383   4.687   1.043 -0.0021 -0.0423 -1.9782
  763SOL     OW 3187   0.506   4.003   4.271  0.5177 -0.2621  0.3160
  763SOL    HW1 3188   0.458   3.918   4.248  1.4730 -1.0484  1.1089
  763SOL    HW2 3189   0.565   4.030   4.195 -0.0133 -0.1343 -0.0566
  764SOL     OW 3190   6.704   6.782   6.715  0.3329 -0.2992 -0.6829
  764SOL    HW1 3191   6.682   6.819   6.625 -0.5648  0.6119 -0.1220
  764SOL    HW2 3192   6.706   6.857   6.782  1.2908 -0.9195 -0.0007
  765SOL     OW 3193   2.840   4.769   4.653  0.1551  0.4133 -0.2875
  765SOL    HW1 3194   2.827   4.802   4.747  1.5591 -1.4897  0.6503
  765SOL    HW2 3195   2.938   4.768   4.632 -0.1897  1.9935 -2.2867
  766SOL     OW 3196   6.482   1.618   1.918 -0.0884  0.5784 -0.2574
  766SOL    HW1 3197   6.391   1.581   1.937 -0.3544  0.0623 -2.2683
  766SOL    HW2 3198   6.549   1.574   1.977 -0.7036 -1.5906 -1.0687
  767SOL     OW 3199   1.078   6.855   0.872  0.0656 -1.0446 -0.0556
  767SOL    HW1 3200   1.105   6.797   0.949 -0.4205 -3.1228 -1.3663
  767SOL    HW2 3201   1.159   6.898   0.833  0.6597 -2.0447  0.0322
  768SOL     OW 3202   4.951   0.385   1.658 -0.0158 -0.1224 -0.3152
  768SOL    HW1 3203   4.976   0.478   1.631  1.0880 -0.7775 -1.6733
  768SOL    HW2 3204   4.859   0.365   1.625  0.8783 -0.5176 -2.7796
  769SOL     OW 3205   2.815   0.092   2.910  0.2683 -0.4191 -0.5286
  769SOL    HW1 3206   2.834   0.009   2.857 -0.1299 -0.3806 -0.7332
  769SOL    HW2 3207   2.778   0.162   2.850  0.8048 -0.0138 -0.3991
  770SOL     OW 3208   1.081   3.011   1.615 -0.3250 -0.2514 -0.2415
  770SOL    HW1 3209   0.989   3.009   1.654 -0.8619 -1.7289 -1.4566
  770SOL    HW2 3210   1.149   3.006   1.688 -1.2117  0.3158  0.6412
  771SOL     OW 3211   0.951   4.449   3.917  0.0223 -0.1865  0.1850
  771SOL    HW1 3212   0.938   4.536   3.964 -3.1060 -0.3446 -0.1637
  771SOL    HW2 3213   0.990   4.382   3.981  1.6691  1.1668  0.6879
  772SOL     OW 3214   5.863   3.247   2.885  0.3686  0.1138 -0.4606
  772SOL    HW1 3215   5.852   3.148   2.896  0.0693  0.1555 -0.3558
  772SOL    HW2 3216   5.889   3.288   2.972 -1.6957  0.4047  0.0739
  773SOL     OW 3217   5.471   6.732   0.039 -0.2243 -0.2072  0.3468
  773SOL    HW1 3218   5.386   6.770   0.004  1.0263  1.1202 -1.4424
  773SOL    HW2 3219   5.472   6.633   0.022 -1.1182 -0.1305 -0.2449
  774SOL     OW 3220   1.609   0.567   0.975 -0.2464 -0.6501 -0.0189
  774SOL    HW1 3221   1.558   0.650   0.998 -0.6224 -0.3307 -1.8133
  774SOL    HW2 3222   1.689   0.592   0.921  1.4967 -1.2114  2.1523
  775SOL     OW 3223   1.597   6.895   0.256  0.2906 -0.0664  0.0071
  775SOL    HW1 3224   1.695   6.915   0.262  0.7778 -2.0942 -0.2849
  775SOL    HW2 3225   1.561   6.932   0.170  0.4748  1.7578  0.6650
  776SOL     OW 3226   5.748   2.216   5.949 -0.8180  0.2787 -0.0864
  776SOL    HW1 3227   5.722   2.307   5.981 -0.3948  0.1737  0.5824
  776SOL    HW2 3228   5.831   2.223   5.893  0.9769  0.0299  2.3590
  777SOL     OW 3229   1.187   2.049   3.653  0.4915  0.5155  0.4243
  777SOL    HW1 3230   1.235   2.053   3.566  0.9283  1.7599  0.6903
  777SOL    HW2 3231   1.108   2.110   3.651 -0.0368 -0.1485  0.5981
  778SOL     OW 3232   4.100   6.272   4.848  0.6093  0.4569  0.3256
  778SOL    HW1 3233   4.103   6.236   4.942  0.1790 -1.8982 -0.5130
  778SOL    HW2 3234   4.066   6.366   4.851 -0.0322  0.2334  2.4805
  779SOL     OW 3235   1.303   3.792   1.490 -0.8289  0.3584  0.3909
  779SOL    HW1 3236   1.213   3.782   1.532 -0.7127  1.9934  1.1377
  779SOL    HW2 3237   1.296   3.851   1.409 -0.5687 -0.2773 -0.1018
  780SOL     OW 3238   1.301   1.335   1.347 -0.2814  0.0054  0.1101
  780SOL    HW1 3239   1.255   1.422   1.330 -0.0672  0.5159  1.9063
  780SOL    HW2 3240   1.356   1.310   1.268 -1.8457  0.5142 -1.2009
  781SOL     OW 3241   0.396   6.401   2.388  0.2962  0.2432 -0.0983
  781SOL    HW1 3242   0.340   6.398   2.472  1.7167 -2.5607  0.8885
  781SOL    HW2 3243   0.348   6.352   2.315 -0.7336  2.2922 -0.8798
  782SOL     OW 3244   3.225   6.773   0.268  0.2526  0.7650 -0.0446
  782SOL    HW1 3245   3.205   6.867   0.297 -0.8227  0.8472 -0.9949
  782SOL    HW2 3246   3.150   6.713   0.295  1.5243 -0.1146  1.7430
  783SOL     OW 3247   4.163   4.520   1.052 -0.5317 -0.0722 -0.3555
  783SOL    HW1 3248   4.106   4.530   0.971 -0.1980 -0.4510 -0.6441
  783SOL    HW2 3249   4.259   4.528   1.027 -0.4755  1.9472  0.3402
  784SOL     OW 3250   5.786   2.349   4.827 -0.1287  0.0421 -0.4005
  784SOL    HW1 3251   5.827   2.430   4.787  0.6852  0.4538  1.1854
  784SOL    HW2 3252   5.858   2.293   4.870 -0.7879 -1.0655 -0.6955
  785SOL     OW 3253   1.431   0.768   1.005  0.7722  0.2476  0.2866
  785SOL    HW1 3254   1.349   0.763   0.948  0.9416  2.7613 -0.2670
  785SOL    HW2 3255   1.405   0.780   1.100  0.4655  1.0779  0.1074
  786SOL     OW 3256   0.356   1.752   3.871 -0.4606 -0.4472  0.2985
  786SOL    HW1 3257   0.365   1.793   3.962 -0.4561 -1.5959  0.8282
  786SOL    HW2 3258   0.433   1.781   3.814  0.1388 -0.6066  1.0100
  787SOL     OW 3259   5.522   0.590   3.052  0.6041 -0.3752 -0.5634
  787SOL    HW1 3260   5.484   0.616   3.140 -0.4214  0.7648 -1.3097
  787SOL    HW2 3261   5.583   0.511   3.063 -0.3414 -0.9139  0.9749
  788SOL     OW 3262   6.956   5.285   0.978  1.5139  0.4040 -0.3694
  788SOL    HW1 3263   6.949   5.384   0.965  2.6490  0.7569  1.4065
  788SOL    HW2 3264   6.992   5.243   0.895 -0.6176  1.2032 -1.7948
  789SOL     OW 3265   4.194   1.550   4.934 -0.4393  0.3487  0.1108
  789SOL    HW1 3266   4.097   1.574   4.941 -0.8316 -1.2153  0.2262
  789SOL    HW2 3267   4.204   1.451   4.926  1.0358  0.5955 -1.9603
  790SOL     OW 3268   3.878   1.817   5.279  0.0067  0.3527 -0.0199
  790SOL    HW1 3269   3.969   1.844   5.248 -0.6850  1.7551 -0.9275
  790SOL    HW2 3270   3.849   1.878   5.354  0.2365 -0.7956  1.0423
  791SOL     OW 3271   2.650   3.888   0.181 -0.1539  0.4110  0.4756
  791SOL    HW1 3272   2.705   3.902   0.264  2.4709  2.7439 -1.4846
  791SOL    HW2 3273   2.608   3.975   0.154 -0.0527 -0.0504 -1.2408
  792SOL     OW 3274   2.336   2.927   3.408 -0.2394 -0.2004  0.1285
  792SOL    HW1 3275   2.283   2.861   3.355 -0.5997  0.4241 -0.2812
  792SOL    HW2 3276   2.432   2.899   3.409 -0.4791 -1.0579  0.4563
  793SOL     OW 3277   4.366   0.689   1.561 -0.3146  0.3660  0.2570
  793SOL    HW1 3278   4.462   0.710   1.546 -0.4899  1.7999  0.9791
  793SOL    HW2 3279   4.356   0.635   1.645 -0.1858  0.7276  0.5070
  794SOL     OW 3280   3.579   3.888   3.731  0.1471  0.1406  0.2487
  794SOL    HW1 3281   3.512   3.945   3.683 -1.6527 -0.5877  1.7985
  794SOL    HW2 3282   3.615   3.819   3.667 -0.2633  0.7916 -0.7138
  795SOL     OW 3283   6.840   4.610   3.581  0.3017  0.2487 -0.6561
  795SOL    HW1 3284   6.742   4.628   3.569 -0.2728 -2.3535 -0.5023
  795SOL    HW2 3285   6.893   4.689   3.550 -1.6726  0.2874 -4.5745
  796SOL     OW 3286   1.300   0.370   2.451  0.1406  0.1793 -0.0828
  796SOL    HW1 3287   1.396   0.368   2.424  0.1699  1.9731 -0.2634
  796SOL    HW2 3288   1.252   0.439   2.396 -1.5768 -1.5813 -0.9412
  797SOL     OW 3289   2.983   1.791   6.300 -0.5069 -0.1904  0.1790
  797SOL    HW1 3290   2.917   1.763   6.229 -0.6425  0.0554  0.2072
  797SOL    HW2 3291   2.937   1.850   6.367 -0.0434  0.7346 -0.2975
  798SOL     OW 3292   2.598   2.164   5.711  0.3440 -0.2163 -0.6718
  798SOL    HW1 3293   2.602   2.171   5.811 -0.7897  0.8098 -0.6694
  798SOL    HW2 3294   2.661   2.093   5.680  0.3762 -0.8742  0.8041
  799SOL     OW 3295   5.603   2.291   2.672  0.3256  0.6742  0.8151
  799SOL    HW1 3296   5.607   2.267   2.769 -1.7614 -0.1804  0.7512
  799SOL    HW2 3297   5.589   2.389   2.663 -0.5761  0.6222  1.4514
  800SOL     OW 3298   2.647   2.704   1.676  0.9635 -0.2345  0.5654
  800SOL    HW1 3299   2.728   2.757   1.702 -0.5558  1.8777  1.3332
  800SOL    HW2 3300   2.652   2.613   1.716  2.2898  0.3537  1.8265
  801SOL     OW 3301   1.222   2.067   6.416  0.4596  0.1069 -0.3865
  801SOL    HW1 3302   1.165   2.025   6.345  0.0383  1.5733 -0.9586
  801SOL    HW2 3303   1.227   2.166   6.400  2.9216  0.0755 -0.1647
  802SOL     OW 3304   5.246   0.637   3.371  0.1194  0.8693  0.0754
  802SOL    HW1 3305   5.339   0.607   3.391  0.2522  0.5387 -0.9264
  802SOL    HW2 3306   5.241   0.665   3.275 -1.5840 -2.6012 -1.0436
  803SOL     OW 3307   2.078   1.553   1.454 -0.4455  0.0191 -0.1344
  803SOL    HW1 3308   2.022   1.514   1.526  0.1404 -1.0340 -0.2197
  803SOL    HW2 3309   2.020   1.593   1.383 -1.1112 -1.5580 -0.5072
  804SOL     OW 3310   3.603   4.134   2.616 -0.0666 -0.2001  0.2222
  804SOL    HW1 3311   3.677   4.195   2.588  0.0176 -0.1608  0.5298
  804SOL    HW2 3312   3.549   4.108   2.535  0.0440  0.0838  0.0557
  805SOL     OW 3313   4.798   4.351   0.064 -0.2677  1.1463 -0.2044
  805SOL    HW1 3314   4.894   4.360   0.091 -0.4431  0.9006  0.5410
  805SOL    HW2 3315   4.769   4.255   0.074 -0.4447  1.1181 -0.9405
  806SOL     OW 3316   6.448   2.065   0.677 -0.6043  0.0892 -0.1185
  806SOL    HW1 3317   6.410   1.976   0.704  0.0611 -0.3732 -0.6767
  806SOL    HW2 3318   6.501   2.102   0.753 -0.6967 -0.0943  0.0391
  807SOL     OW 3319   5.543   0.240   5.641 -0.6268  0.2132  0.5001
  807SOL    HW1 3320   5.472   0.192   5.589 -1.5312  3.3279 -1.4160
  807SOL    HW2 3321   5.505   0.270   5.729 -1.2167  0.5758  0.1281
  808SOL     OW 3322   1.656   0.395   6.369  0.3687  0.4039 -0.0821
  808SOL    HW1 3323   1.595   0.400   6.291  0.8806  1.5103 -0.4282
  808SOL    HW2 3324   1.729   0.330   6.350  0.4737  0.6454 -0.5218
  809SOL     OW 3325   5.019   5.483   5.402  0.5341 -0.7848 -0.1906
  809SOL    HW1 3326   5.115   5.508   5.411  0.6285 -0.7530 -1.1825
  809SOL    HW2 3327   4.968   5.560   5.363 -0.4671  0.2753  2.9104
  810SOL     OW 3328   3.670   4.058   4.111  0.0676 -0.2808  0.0918
  810SOL    HW1 3329   3.580   4.101   4.111  0.0954 -0.2082  0.8202
  810SOL    HW2 3330   3.663   3.966   4.151  0.1552 -0.6356 -0.6986
  811SOL     OW 3331   6.994   3.315   0.947 -0.6826 -0.1434  0.2299
  811SOL    HW1 3332   6.923   3.269   1.001 -1.1828 -1.3552 -1.3652
  811SOL    HW2 3333   7.020   3.257   0.870  1.9332  0.3651  0.6342
  812SOL     OW 3334   7.005   3.494   6.248 -0.7053 -0.3407  0.0787
  812SOL    HW1 3335   7.052   3.534   6.169 -0.0572 -0.2246  0.5178
  812SOL    HW2 3336   6.914   3.535   6.257 -0.7232 -0.2374 -0.5083
  813SOL     OW 3337   0.827   5.041   0.005 -0.3910  0.5837 -0.1243
  813SOL    HW1 3338   0.839   4.946   0.034  1.2125  1.1540  1.2422
  813SOL    HW2 3339   0.731   5.067   0.016 -0.5472 -0.3932  1.1261
  814SOL     OW 3340   0.910   1.770   0.471  0.0646  0.5937 -0.0205
  814SOL    HW1 3341   0.989   1.818   0.510 -1.6688  3.6704  0.0146
  814SOL    HW2 3342   0.888   1.691   0.528  3.9070 -1.3460 -0.8716
  815SOL     OW 3343   2.996   2.246   4.315 -0.0964  0.0818 -0.5100
  815SOL    HW1 3344   3.063   2.252   4.241  1.5225  1.0638  0.9459
  815SOL    HW2 3345   2.931   2.322   4.307 -0.8087 -0.6338 -1.6976
  816SOL     OW 3346   1.449   6.989   6.500 -0.6215 -0.2835 -0.0176
  816SOL    HW1 3347   1.499   7.067   6.539  2.2101 -0.4515 -2.9008
  816SOL    HW2 3348   1.401   7.018   6.417 -0.6253 -1.3369 -0.3953
  817SOL     OW 3349   5.465   4.994   5.426 -0.2305  0.0262  0.9439
  817SOL    HW1 3350   5.420   5.081   5.405  0.9895  0.7031  1.0506
  817SOL    HW2 3351   5.396   4.926   5.451 -1.4172  0.3178 -1.2820
  818SOL     OW 3352   2.081   4.772   2.805 -0.3222  0.0469  0.1163
  818SOL    HW1 3353   2.047   4.698   2.747 -1.1098 -0.1721  0.8555
  818SOL    HW2 3354   2.173   4.798   2.774 -0.5357 -0.3921 -0.9248
  819SOL     OW 3355   4.600   2.355   5.086 -0.3477  0.2640 -0.0792
  819SOL    HW1 3356   4.600   2.362   4.986 -1.3094  1.0857 -0.0388
  819SOL    HW2 3357   4.507   2.340   5.119  0.2168 -2.0809  0.5989
  820SOL     OW 3358   0.907   7.025   1.173  0.3488  0.1794  0.0051
  820SOL    HW1 3359   0.939   7.109   1.218  2.3786  0.3093 -1.5541
  820SOL    HW2 3360   0.872   7.047   1.082  1.5443 -0.7128 -0.6991
  821SOL     OW 3361   0.365   2.309   3.422  0.4243  0.2340 -0.0194
  821SOL    HW1 3362   0.373   2.367   3.340  0.7179  0.8046  0.4085
  821SOL    HW2 3363   0.445   2.324   3.481  0.2587 -0.2465  0.3260
  822SOL     OW 3364   0.895   4.388   6.613  0.2694 -0.2670  0.1615
  822SOL    HW1 3365   0.837   4.371   6.692 -1.1307 -1.0843 -0.9832
  822SOL    HW2 3366   0.961   4.460   6.634 -0.1104 -0.4219  2.0170
  823SOL     OW 3367   5.744   5.279   0.631 -0.6537 -0.4940 -0.5202
  823SOL    HW1 3368   5.832   5.279   0.679 -1.4096  2.4029  1.1294
  823SOL    HW2 3369   5.709   5.185   0.624  2.3268 -1.6807 -0.9055
  824SOL     OW 3370   5.913   3.346   5.818 -0.5872  0.3289  0.3527
  824SOL    HW1 3371   5.964   3.410   5.875  0.2461 -1.4640  1.7110
  824SOL    HW2 3372   5.817   3.374   5.814 -0.2306  1.6988  0.7954
  825SOL     OW 3373   4.383   6.941   6.945  0.9245 -0.1677  1.0118
  825SOL    HW1 3374   4.352   7.010   7.010  0.6477  0.6051  0.0749
  825SOL    HW2 3375   4.322   6.862   6.948 -2.7997  2.2254 -2.4277
  826SOL     OW 3376   5.724   1.471   4.570  0.3005 -0.0519  0.1362
  826SOL    HW1 3377   5.774   1.390   4.540 -1.0342 -1.2535  1.0099
  826SOL    HW2 3378   5.649   1.444   4.630  1.2632  2.0193  2.4824
  827SOL     OW 3379   3.665   0.069   0.265 -0.1771 -0.2661  0.2248
  827SOL    HW1 3380   3.592   0.007   0.235  0.7687 -1.7225  0.8566
  827SOL    HW2 3381   3.739   0.068   0.197  0.2837 -0.6251  0.7253
  828SOL     OW 3382   4.941   5.340   4.792 -0.1157  0.3057  0.0994
  828SOL    HW1 3383   5.031   5.341   4.835 -0.3024  0.1690  0.4933
  828SOL    HW2 3384   4.952   5.350   4.693  0.4140 -1.0316  0.0023
  829SOL     OW 3385   4.107   3.672   2.082  0.0263 -0.6476  0.0009
  829SOL    HW1 3386   4.084   3.695   2.176  0.0727  0.5206 -0.2545
  829SOL    HW2 3387   4.206   3.665   2.072  0.1699  1.1864 -0.3404
  830SOL     OW 3388   3.086   3.502   0.464  0.3751 -0.4099  0.1144
  830SOL    HW1 3389   3.055   3.507   0.559 -0.1720 -0.4070 -0.0570
  830SOL    HW2 3390   3.016   3.543   0.404  1.1996  0.5894 -0.1898
  831SOL     OW 3391   3.762   3.790   6.066 -0.1228  0.2333  0.1268
  831SOL    HW1 3392   3.859   3.771   6.076 -0.2341 -0.6149 -0.2984
  831SOL    HW2 3393   3.738   3.874   6.116  0.2383 -1.1826  2.8193
  832SOL     OW 3394   2.324   1.464   0.909 -0.0700 -0.3876 -0.3199
  832SOL    HW1 3395   2.423   1.451   0.900  0.1614  1.0223 -0.1054
  832SOL    HW2 3396   2.303   1.492   1.002 -0.7469 -1.1933 -0.2233
  833SOL     OW 3397   4.525   3.763   6.921  0.0008 -0.5580 -0.1405
  833SOL    HW1 3398   4.452   3.713   6.876  1.5795 -1.4704 -1.8010
  833SOL    HW2 3399   4.561   3.709   6.997  0.7162 -1.3158 -1.0042
  834SOL     OW 3400   1.402   4.989   6.701  0.6737  0.3260  0.1474
  834SOL    HW1 3401   1.454   4.910   6.734 -0.5148  0.3045  2.1313
  834SOL    HW2 3402   1.400   5.059   6.772 -0.5808  1.0089 -0.5365
  835SOL     OW 3403   5.442   3.557   3.365  0.6387 -0.6492 -0.2202
  835SOL    HW1 3404   5.377   3.634   3.365 -0.8034 -1.7901  1.7431
  835SOL    HW2 3405   5.535   3.592   3.362 -0.0009  1.1193 -0.6878
  836SOL     OW 3406   0.353   0.583   1.906 -0.7334  0.6822  0.9504
  836SOL    HW1 3407   0.448   0.578   1.937 -0.3204  0.4121 -0.3019
  836SOL    HW2 3408   0.336   0.512   1.838 -1.3488  1.7344 -0.0445
  837SOL     OW 3409   2.907   3.621   2.176 -0.5528 -0.3076  0.1017
  837SOL    HW1 3410   2.906   3.538   2.230  0.4778 -0.4442 -0.0654
  837SOL    HW2 3411   2.832   3.619   2.110 -0.5886 -1.0685  0.1591
  838SOL     OW 3412   2.608   1.227   2.588  0.1221  0.7644 -0.1425
  838SOL    HW1 3413   2.650   1.245   2.677  0.2933 -0.3040  0.0092
  838SOL    HW2 3414   2.661   1.273   2.517  2.2397 -1.3413 -0.0672
  839SOL     OW 3415   6.323   6.379   4.009 -0.2326  0.1370 -0.1757
  839SOL    HW1 3416   6.261   6.377   4.088 -0.7168 -0.2205 -0.5539
  839SOL    HW2 3417   6.288   6.317   3.938 -0.6520  1.5897 -1.2918
  840SOL     OW 3418   0.844   6.400   2.247  0.1648  0.5350 -0.7167
  840SOL    HW1 3419   0.889   6.320   2.288  0.9621  0.4387 -1.7288
  840SOL    HW2 3420   0.755   6.373   2.210 -0.8131  0.7297  1.3242
  841SOL     OW 3421   5.018   3.526   5.530  0.4546 -0.2565  0.1546
  841SOL    HW1 3422   4.978   3.528   5.622 -0.5581 -0.5873 -0.2718
  841SOL    HW2 3423   5.064   3.438   5.516  2.3367  0.5191  1.0348
  842SOL     OW 3424   4.159   3.135   0.035  0.3144 -0.1975  0.0542
  842SOL    HW1 3425   4.129   3.042   0.056  3.1617 -1.6843 -1.7443
  842SOL    HW2 3426   4.202   3.175   0.116  2.4361 -2.0200 -0.0582
  843SOL     OW 3427   1.430   0.302   5.849 -0.0256 -0.7486  0.2338
  843SOL    HW1 3428   1.373   0.306   5.766 -0.5911 -1.1780  0.5974
  843SOL    HW2 3429   1.524   0.279   5.823  0.4853  1.8839 -0.5953
  844SOL     OW 3430   4.632   5.070   3.347 -1.1654 -0.0866  0.3761
  844SOL    HW1 3431   4.675   5.025   3.425 -1.4658  0.1694  0.6850
  844SOL    HW2 3432   4.587   5.154   3.376 -0.2110  0.6839 -0.2742
  845SOL     OW 3433   4.280   0.287   3.668  0.5213 -0.5936 -0.2071
  845SOL    HW1 3434   4.185   0.317   3.667  0.6184 -0.1475  1.3062
  845SOL    HW2 3435   4.285   0.195   3.709  0.8317 -0.1985  0.6590
  846SOL     OW 3436   2.934   0.195   6.684 -0.0572  0.1507 -0.0993
  846SOL    HW1 3437   2.963   0.158   6.596  0.9489 -0.5585  0.5116
  846SOL    HW2 3438   2.912   0.292   6.674 -1.5287 -0.2891 -1.4644
  847SOL     OW 3439   5.927   2.666   6.781 -0.2184  0.0456  0.4632
  847SOL    HW1 3440   5.947   2.625   6.870 -0.6293  0.0418  0.5542
  847SOL    HW2 3441   5.967   2.757   6.776 -2.0273  0.9631  1.4897
  848SOL     OW 3442   5.074   5.455   1.263  0.4922  0.1239  0.2801
  848SOL    HW1 3443   5.140   5.459   1.337  1.4286  0.9124 -0.5784
  848SOL    HW2 3444   4.988   5.497   1.293  0.5916 -0.3084  1.1835
  849SOL     OW 3445   2.056   5.464   6.212  0.2959 -0.1031  0.4837
  849SOL    HW1 3446   2.034   5.514   6.129  2.4493  0.4667  0.1852
  849SOL    HW2 3447   2.119   5.518   6.268  0.6667 -1.4113  1.4006
  850SOL     OW 3448   1.796   2.318   5.746  0.0654  0.4619  0.0385
  850SOL    HW1 3449   1.896   2.317   5.757 -0.1481 -0.6206  2.6612
  850SOL    HW2 3450   1.753   2.307   5.836 -2.4359  0.8448 -1.0442
  851SOL     OW 3451   2.422   0.063   0.700  0.3548 -0.1816 -0.0071
  851SOL    HW1 3452   2.443   0.112   0.785 -1.8385  0.0213  0.4791
  851SOL    HW2 3453   2.502   0.011   0.671  1.5604  0.7431  1.4848
  852SOL     OW 3454   4.239   2.377   1.877  0.6974  0.1103  0.0995
  852SOL    HW1 3455   4.144   2.354   1.854  0.1942  0.3989  1.7713
  852SOL    HW2 3456   4.255   2.358   1.974  2.5752 -0.6128 -0.3088
  853SOL     OW 3457   6.615   2.512   0.459  0.3514 -0.3323 -0.4632
  853SOL    HW1 3458   6.539   2.511   0.394 -0.2085  1.1763  0.1100
  853SOL    HW2 3459   6.685   2.447   0.430  0.3643  0.6515 -2.8739
  854SOL     OW 3460   3.362   3.245   4.574 -0.1080  0.3024  0.3986
  854SOL    HW1 3461   3.423   3.199   4.510 -1.9808 -0.9194 -0.5969
  854SOL    HW2 3462   3.359   3.343   4.555 -0.8609 -0.0764 -1.6438
  855SOL     OW 3463   0.579   3.406   5.937 -0.0202 -0.4623  0.4695
  855SOL    HW1 3464   0.522   3.486   5.956 -0.6507 -0.6965 -0.3593
  855SOL    HW2 3465   0.532   3.323   5.966  1.3134 -0.4699  2.8443
  856SOL     OW 3466   2.017   1.531   4.985 -0.3918  0.0720 -0.2618
  856SOL    HW1 3467   2.074   1.530   4.902  1.4178 -2.9440  0.8610
  856SOL    HW2 3468   1.964   1.447   4.990 -0.4258  0.1687  1.6482
  857SOL     OW 3469   1.811   0.935   0.681 -0.0362  0.7951 -0.5275
  857SOL    HW1 3470   1.797   1.013   0.742  0.0862  0.0262  0.5066
  857SOL    HW2 3471   1.744   0.864   0.702  0.9001 -0.0515 -0.3173
  858SOL     OW 3472   4.706   1.400   4.471 -0.1557  0.0280  0.4100
  858SOL    HW1 3473   4.738   1.488   4.438 -0.7322  0.7755  1.7712
  858SOL    HW2 3474   4.690   1.339   4.393  0.1954  1.1352 -0.5559
  859SOL     OW 3475   2.285   6.314   2.965  0.3666  0.1749 -0.3647
  859SOL    HW1 3476   2.310   6.257   2.887  0.3307 -0.3599  0.0141
  859SOL    HW2 3477   2.188   6.306   2.984  0.5206 -0.3242  0.2356
  860SOL     OW 3478   5.610   1.857   2.105  0.0803  0.1611  0.1718
  860SOL    HW1 3479   5.618   1.933   2.169  0.6296 -0.2364  0.5832
  860SOL    HW2 3480   5.517   1.820   2.109 -0.6633  1.7354 -1.1132
  861SOL     OW 3481   4.029   3.716   0.557  0.5480 -0.0436 -0.4144
  861SOL    HW1 3482   4.121   3.678   0.547  0.2280 -1.3065  1.0470
  861SOL    HW2 3483   4.032   3.815   0.547  2.6982  0.4002  2.9137
  862SOL     OW 3484   0.192   5.933   5.316 -0.0890 -0.2436  0.6195
  862SOL    HW1 3485   0.243   5.968   5.237  2.1624 -0.0251  2.0890
  862SOL    HW2 3486   0.114   5.993   5.334  0.3801  0.7029 -0.3714
  863SOL     OW 3487   6.382   1.800   0.771 -0.2502 -0.0837  0.2367
  863SOL    HW1 3488   6.481   1.811   0.787 -0.8895  1.7660  4.6149
  863SOL    HW2 3489   6.342   1.747   0.846 -2.7893  0.4293 -0.6619
  864SOL     OW 3490   1.267   4.872   3.645  0.2955 -0.6230 -0.3580
  864SOL    HW1 3491   1.207   4.825   3.709 -1.9253  0.7999 -1.2945
  864SOL    HW2 3492   1.321   4.940   3.694 -1.6004  0.6635  0.0415
  865SOL     OW 3493   6.800   2.172   4.439 -0.1355  0.5670  0.7713
  865SOL    HW1 3494   6.763   2.156   4.530 -0.3332 -0.6723  0.4972
  865SOL    HW2 3495   6.900   2.173   4.442  0.0151 -2.7297  0.5930
  866SOL     OW 3496   3.732   2.568   6.888 -0.5212  0.1479 -0.0709
  866SOL    HW1 3497   3.816   2.620   6.900 -0.4771 -0.2605  1.5876
  866SOL    HW2 3498   3.743   2.501   6.814  1.5437 -1.7287  1.8191
  867SOL     OW 3499   6.652   5.680   6.846  0.2763 -1.0223  0.0769
  867SOL    HW1 3500   6.658   5.586   6.813  1.0433 -1.7193  2.0416
  867SOL    HW2 3501   6.728   5.699   6.908 -0.6464  0.4420  0.8346
  868SOL     OW 3502   3.293   0.647   2.487 -0.6253 -0.0540  0.0257
  868SOL    HW1 3503   3.341   0.583   2.426 -0.3164 -0.4900  0.7105
  868SOL    HW2 3504   3.219   0.691   2.437 -2.0621 -2.3199 -0.0068
  869SOL     OW 3505   0.531   3.140   2.024  0.1207  0.5668  0.3710
  869SOL    HW1 3506   0.536   3.063   2.089  0.8183  0.4349  0.1762
  869SOL    HW2 3507   0.603   3.129   1.956  1.2064  2.1775  1.2015
  870SOL     OW 3508   3.983   6.955   4.327 -0.3553  0.7024 -0.0440
  870SOL    HW1 3509   4.067   6.944   4.378 -1.0488 -1.2481  0.7478
  870SOL    HW2 3510   4.004   6.992   4.236  1.0669  2.4531  0.9287
  871SOL     OW 3511   4.637   1.865   3.501 -0.1438  0.5116 -0.0747
  871SOL    HW1 3512   4.633   1.926   3.580  0.5523  1.2352 -0.5903
  871SOL    HW2 3513   4.661   1.772   3.531 -1.4593  0.4139  0.7426
  872SOL     OW 3514   5.538   1.432   1.035  1.2347 -0.6089  0.6764
  872SOL    HW1 3515   5.583   1.383   0.960  0.7104 -0.7038  0.4186
  872SOL    HW2 3516   5.569   1.527   1.035  1.6296 -0.7360  0.6632
  873SOL     OW 3517   0.577   0.224   5.929  0.0921  0.3130 -0.4268
  873SOL    HW1 3518   0.588   0.217   6.028 -0.7954  0.2921 -0.3193
  873SOL    HW2 3519   0.538   0.138   5.894  2.3266 -0.4937 -1.1049
  874SOL     OW 3520   6.616   0.782   3.141 -0.1862  0.2459  0.0459
  874SOL    HW1 3521   6.669   0.837   3.078  3.5412 -2.2938  0.6558
  874SOL    HW2 3522   6.600   0.833   3.226  2.3007  0.8073  0.2395
  875SOL     OW 3523   1.524   4.997   3.263 -0.1656  0.1979  0.5747
  875SOL    HW1 3524   1.548   5.091   3.290 -1.3996  0.9733 -0.8283
  875SOL    HW2 3525   1.511   4.994   3.163 -1.0090 -1.2738  0.7046
  876SOL     OW 3526   1.883   2.263   0.021 -0.3529  0.1739  0.2359
  876SOL    HW1 3527   1.828   2.217  -0.048  2.9843 -2.4805 -0.9394
  876SOL    HW2 3528   1.860   2.361   0.023 -2.1716 -0.0645 -2.9829
  877SOL     OW 3529   1.118   6.415   3.663 -0.6135 -0.4171 -0.2766
  877SOL    HW1 3530   1.083   6.498   3.708 -1.0754  0.0158 -1.4042
  877SOL    HW2 3531   1.218   6.416   3.664 -0.6182 -0.1887  0.3241
  878SOL     OW 3532   0.595   5.665   3.539  1.1861 -0.0880 -0.3930
  878SOL    HW1 3533   0.518   5.717   3.503  0.2869 -0.2698  1.1879
  878SOL    HW2 3534   0.636   5.714   3.616 -0.2282 -1.9970  1.7126
  879SOL     OW 3535   1.196   1.858   6.774 -0.3361  0.2690  0.1580
  879SOL    HW1 3536   1.182   1.947   6.730 -0.7100 -1.0646 -2.6221
  879SOL    HW2 3537   1.122   1.842   6.840 -0.9914  1.4635 -0.2509
  880SOL     OW 3538   1.424   6.240   2.562  0.5920 -0.0951 -0.5014
  880SOL    HW1 3539   1.382   6.174   2.624  0.0304  2.1832  1.7112
  880SOL    HW2 3540   1.392   6.223   2.469  0.0389 -2.5266  0.0621
  881SOL     OW 3541   2.658   5.346   0.241 -0.1258  0.1216 -0.1396
  881SOL    HW1 3542   2.690   5.272   0.300 -1.9433 -0.3136  0.3621
  881SOL    HW2 3543   2.656   5.432   0.292 -1.2215 -0.1588  0.3136
  882SOL     OW 3544   2.111   2.755   1.425  0.1039 -0.8494 -0.0844
  882SOL    HW1 3545   2.138   2.851   1.416  1.0885 -0.8286  2.5253
  882SOL    HW2 3546   2.188   2.696   1.402  0.7574 -0.8992  2.1005
  883SOL     OW 3547   4.954   2.300   2.473  0.1015 -0.1693  0.4074
  883SOL    HW1 3548   5.030   2.307   2.408  0.7716  0.1928  1.2083
  883SOL    HW2 3549   4.869   2.329   2.429  0.2797 -1.3223 -0.7408
  884SOL     OW 3550   0.008   2.111   4.821  0.3693 -0.4815 -0.2489
  884SOL    HW1 3551   0.028   2.061   4.906  1.5626 -0.3826 -0.4566
  884SOL    HW2 3552   0.063   2.193   4.817 -0.4251  0.0440 -0.6685
  885SOL     OW 3553   2.462   0.606   4.704 -0.5074 -0.7067 -0.5163
  885SOL    HW1 3554   2.487   0.606   4.608 -0.5963  0.8640 -0.5533
  885SOL    HW2 3555   2.542   0.581   4.759 -0.1306 -0.4137 -0.9276
  886SOL     OW 3556   4.534   0.771   2.418  0.0769 -0.4928 -0.1828
  886SOL    HW1 3557   4.577   0.685   2.392  0.5512 -0.1872 -0.4217
  886SOL    HW2 3558   4.587   0.847   2.382 -1.0522 -0.1040 -1.0900
  887SOL     OW 3559   6.876   0.933   2.857  0.2056  0.1799 -0.2171
  887SOL    HW1 3560   6.835   0.946   2.947 -0.5753 -3.4919  0.1433
  887SOL    HW2 3561   6.820   0.868   2.805  2.2393 -0.1152 -2.1858
  888SOL     OW 3562   4.865   0.148   4.687 -0.3368 -0.6850 -0.4227
  888SOL    HW1 3563   4.798   0.193   4.746  0.3902 -0.8264  0.5292
  888SOL    HW2 3564   4.858   0.048   4.699  0.2648 -0.6887 -0.0513
  889SOL     OW 3565   2.641   0.922   1.920 -0.0321  0.2450  0.0903
  889SOL    HW1 3566   2.549   0.898   1.950 -0.4855 -2.8051 -3.1483
  889SOL    HW2 3567   2.708   0.869   1.971 -0.1907  0.7402  0.8341
  890SOL     OW 3568   6.300   0.128   2.087  0.2446 -0.3236  0.0413
  890SOL    HW1 3569   6.378   0.148   2.029  0.5342 -0.3735  0.4070
  890SOL    HW2 3570   6.329   0.128   2.183 -0.3744  0.4801  0.2421
  891SOL     OW 3571   2.049   5.670   5.339  0.1430 -0.3667  0.1888
  891SOL    HW1 3572   2.118   5.711   5.399 -0.0197 -0.5656  0.5162
  891SOL    HW2 3573   2.025   5.579   5.373 -1.2846  0.2356  0.8790
  892SOL     OW 3574   2.864   6.877   2.783 -0.0025 -0.0727 -0.8632
  892SOL    HW1 3575   2.774   6.889   2.742  0.1316 -0.9355 -1.4389
  892SOL    HW2 3576   2.867   6.790   2.832  0.5609 -0.1264 -0.9812
  893SOL     OW 3577   2.293   0.023   3.312 -0.5727 -0.1566  0.2597
  893SOL    HW1 3578   2.205   0.065   3.286 -0.5297  0.2147  0.7055
  893SOL    HW2 3579   2.364   0.056   3.250 -0.8142 -0.7686 -0.3566
  894SOL     OW 3580   5.619   2.778   3.801 -0.1245  0.2782 -0.3297
  894SOL    HW1 3581   5.567   2.818   3.876  0.6360 -0.2497  0.5051
  894SOL    HW2 3582   5.591   2.820   3.714  0.0314  1.9785  0.4061
  895SOL     OW 3583   3.065   5.204   6.098  0.0039 -0.5755  0.1872
  895SOL    HW1 3584   2.987   5.154   6.061  0.3227 -1.3363  0.5297
  895SOL    HW2 3585   3.150   5.167   6.060  0.1612  1.4367 -1.6255
  896SOL     OW 3586   5.638   5.896   0.145 -0.2955  0.3120 -0.0907
  896SOL    HW1 3587   5.704   5.915   0.218  0.4906 -3.9104  0.5544
  896SOL    HW2 3588   5.554   5.948   0.162  1.6459  3.3887  0.8482
  897SOL     OW 3589   5.691   3.296   5.655 -0.2675 -0.0520 -0.0939
  897SOL    HW1 3590   5.639   3.326   5.575 -0.6628 -0.2995  0.0666
  897SOL    HW2 3591   5.631   3.244   5.716  0.1650 -0.3283  0.1019
  898SOL     OW 3592   0.941   6.741   5.388  0.0309 -0.3233 -0.1529
  898SOL    HW1 3593   1.039   6.732   5.405  0.2177 -0.7738 -1.4112
  898SOL    HW2 3594   0.924   6.749   5.290 -1.1692  0.1676  0.0679
  899SOL     OW 3595   0.470   4.215   2.946 -0.3656  0.4646  0.1835
  899SOL    HW1 3596   0.392   4.205   3.006 -0.0313 -0.7518  0.4422
  899SOL    HW2 3597   0.519   4.128   2.939  1.4774  1.4008  0.7288
  900SOL     OW 3598   5.450   0.291   3.314 -0.1955 -0.0345  0.2017
  900SOL    HW1 3599   5.411   0.354   3.381 -2.3640 -0.9253 -0.1299
  900SOL    HW2 3600   5.402   0.204   3.319  1.6747 -1.1445 -0.4360
  901SOL     OW 3601   0.343   6.707   4.359 -0.2527 -0.1921 -0.3531
  901SOL    HW1 3602   0.366   6.621   4.315 -1.9253 -0.7401 -0.2264
  901SOL    HW2 3603   0.419   6.772   4.348  1.0311 -1.6605 -0.4332
  902SOL     OW 3604   3.307   3.130   6.642 -0.4278 -0.1574  0.1640
  902SOL    HW1 3605   3.257   3.108   6.726 -3.0792  1.8448 -0.7427
  902SOL    HW2 3606   3.329   3.227   6.641 -1.1273  0.0100 -1.7753
  903SOL     OW 3607   6.060   6.543   5.437 -0.0413  0.5021 -0.2236
  903SOL    HW1 3608   6.000   6.505   5.508 -1.4381  0.4345 -1.4070
  903SOL    HW2 3609   6.133   6.478   5.417 -1.3266 -0.8001 -0.8863
  904SOL     OW 3610   3.507   0.547   6.403  0.5108 -0.3382  0.8268
  904SOL    HW1 3611   3.587   0.487   6.399  0.0050 -1.0355  1.0130
  904SOL    HW2 3612   3.439   0.508   6.465 -0.1796 -0.0065  0.2993
  905SOL     OW 3613   6.528   2.235   3.141 -0.5047 -0.2135  0.8915
  905SOL    HW1 3614   6.531   2.174   3.062  3.9095  0.6838  0.1075
  905SOL    HW2 3615   6.519   2.330   3.110 -1.0160 -0.0028  1.6445
  906SOL     OW 3616   4.225   2.469   0.962 -0.0669  0.3711  0.1077
  906SOL    HW1 3617   4.150   2.431   0.908  0.3676  0.1469 -0.3511
  906SOL    HW2 3618   4.190   2.505   1.048 -0.3562 -2.1469  1.1085
  907SOL     OW 3619   1.425   1.754   3.077  0.8939 -0.1658  0.0210
  907SOL    HW1 3620   1.512   1.717   3.109  1.1195  0.7005  0.4405
  907SOL    HW2 3621   1.441   1.817   3.000  0.5573 -0.6307 -0.4345
  908SOL     OW 3622   0.931   0.260   2.017 -0.0018  0.0695 -0.0829
  908SOL    HW1 3623   0.925   0.220   2.108  1.6749  0.9501  0.4636
  908SOL    HW2 3624   1.002   0.213   1.965  0.7584  1.1310 -0.0468
  909SOL     OW 3625   6.637   1.206   4.004  1.0350 -0.1415  0.0974
  909SOL    HW1 3626   6.690   1.286   3.976  2.1683 -1.9235 -3.4296
  909SOL    HW2 3627   6.541   1.220   3.981  1.3440 -0.0461 -1.1879
  910SOL     OW 3628   1.758   5.228   4.340 -0.1121  1.3044  0.7557
  910SOL    HW1 3629   1.734   5.318   4.379  0.3497  0.3086  3.6004
  910SOL    HW2 3630   1.718   5.156   4.397  0.1354 -0.3405 -1.0544
  911SOL     OW 3631   2.331   3.978   1.890 -0.9133  0.4456  0.2515
  911SOL    HW1 3632   2.315   3.906   1.958  0.4623  0.4438  0.6032
  911SOL    HW2 3633   2.339   4.066   1.936  0.0633  0.4398  0.1209
  912SOL     OW 3634   5.803   3.119   1.713 -0.0515  0.0347 -0.6216
  912SOL    HW1 3635   5.875   3.072   1.661 -0.6435 -1.8995  0.1962
  912SOL    HW2 3636   5.779   3.204   1.667  2.7566  0.7749 -0.9061
  913SOL     OW 3637   4.036   2.024   1.496  0.8360 -0.2029 -0.3987
  913SOL    HW1 3638   3.956   2.045   1.552  1.3010 -1.3555  0.7538
  913SOL    HW2 3639   4.098   2.103   1.494 -0.0692  0.5133 -0.8876
  914SOL     OW 3640   0.761   3.386   4.349  0.5245  0.0546 -0.0927
  914SOL    HW1 3641   0.681   3.352   4.399 -0.0413 -0.1671 -1.1292
  914SOL    HW2 3642   0.792   3.317   4.284  1.9456 -0.1056  0.7101
  915SOL     OW 3643   6.223   2.185   2.241 -0.4220 -0.5621 -0.2913
  915SOL    HW1 3644   6.214   2.269   2.295 -2.4489 -1.2431  0.4914
  915SOL    HW2 3645   6.320   2.167   2.226  0.1747  0.4876  1.8092
  916SOL     OW 3646   6.327   6.257   0.995  0.0676  0.1414 -0.0473
  916SOL    HW1 3647   6.342   6.186   1.063 -0.8637 -0.2266 -0.2057
  916SOL    HW2 3648   6.414   6.302   0.973  0.6253 -0.7835  0.2289
  917SOL     OW 3649   6.266   5.469   5.630 -0.0219 -0.1876 -0.2892
  917SOL    HW1 3650   6.285   5.523   5.712 -0.8508  0.8991 -0.7893
  917SOL    HW2 3651   6.202   5.396   5.652 -1.9939  1.4402 -0.3807
  918SOL     OW 3652   3.041   5.725   4.172  0.0801 -0.0972  0.2391
  918SOL    HW1 3653   3.107   5.654   4.148 -1.2824 -0.9073 -1.3534
  918SOL    HW2 3654   2.983   5.745   4.092 -1.6775  0.4639  1.5954
  919SOL     OW 3655   6.974   4.848   3.620 -0.1055  0.0686  0.2456
  919SOL    HW1 3656   6.960   4.802   3.707  4.2156  0.9835  1.6802
  919SOL    HW2 3657   6.951   4.945   3.629  0.6552  0.2327  0.5509
  920SOL     OW 3658   1.600   5.411   5.261  0.7735 -0.4815  0.0045
  920SOL    HW1 3659   1.570   5.345   5.193  0.9507  0.5152 -1.0732
  920SOL    HW2 3660   1.588   5.504   5.226  0.3305  0.0865  1.5652
  921SOL     OW 3661   0.372   2.774   0.639 -0.1770  0.2980 -0.5780
  921SOL    HW1 3662   0.430   2.820   0.571  0.1041  0.3154 -0.3258
  921SOL    HW2 3663   0.391   2.811   0.730  2.7844 -2.8001  0.2723
  922SOL     OW 3664   5.823   3.870   0.974  0.7240 -0.5869 -0.7040
  922SOL    HW1 3665   5.865   3.792   1.021  0.8966  0.2115  0.5087
  922SOL    HW2 3666   5.802   3.942   1.040 -1.2486 -0.3686 -1.4894
  923SOL     OW 3667   6.485   1.890   2.620  0.2072 -0.6797  0.2292
  923SOL    HW1 3668   6.564   1.834   2.597  0.5698 -0.6034  1.2383
  923SOL    HW2 3669   6.515   1.975   2.663 -0.4623 -1.4162  2.2371
  924SOL     OW 3670   4.565   2.187   6.319  0.1223  0.3440 -0.2202
  924SOL    HW1 3671   4.480   2.222   6.282 -0.0497  0.4540  0.2664
  924SOL    HW2 3672   4.554   2.169   6.417  0.3273 -0.6781 -0.3705
  925SOL     OW 3673   2.675   2.081   5.060 -0.7032 -0.1981 -0.0581
  925SOL    HW1 3674   2.770   2.066   5.088 -1.0347 -1.1288  0.6560
  925SOL    HW2 3675   2.663   2.176   5.031  0.3278  0.0623  0.3141
  926SOL     OW 3676   4.680   2.453   3.295 -0.2949  0.0725  0.4707
  926SOL    HW1 3677   4.646   2.359   3.286 -0.9619  0.3912 -0.5756
  926SOL    HW2 3678   4.769   2.452   3.339 -0.2858 -1.0617  0.4615
  927SOL     OW 3679   4.371   0.336   1.244 -0.6224 -0.6414  0.1503
  927SOL    HW1 3680   4.362   0.324   1.145  0.2508 -2.7124  0.2743
  927SOL    HW2 3681   4.280   0.351   1.283 -1.1565 -1.1525 -0.8344
  928SOL     OW 3682   5.196   5.575   4.443  0.8060  0.0379  0.5288
  928SOL    HW1 3683   5.263   5.532   4.381 -1.3326 -1.8891 -0.6089
  928SOL    HW2 3684   5.132   5.630   4.389  0.6767  0.7664  1.4220
  929SOL     OW 3685   2.172   5.827   6.053 -0.5961 -0.2445  0.2321
  929SOL    HW1 3686   2.118   5.757   6.006  0.1431 -0.4268 -0.3621
  929SOL    HW2 3687   2.117   5.910   6.064 -1.0979 -0.5337 -0.0787
  930SOL     OW 3688   4.753   4.494   0.656  0.1277 -0.1845 -0.0485
  930SOL    HW1 3689   4.784   4.537   0.741  0.2787 -2.6168  1.2033
  930SOL    HW2 3690   4.707   4.563   0.599 -1.2416  1.2700  2.6038
  931SOL     OW 3691   4.982   5.725   2.693  0.1688 -0.9066 -0.4686
  931SOL    HW1 3692   5.077   5.697   2.701  1.1377  1.8904 -1.0089
  931SOL    HW2 3693   4.944   5.740   2.785  1.7672  2.2261 -0.1636
  932SOL     OW 3694   4.027   0.675   2.008  0.6639  0.1960  0.0429
  932SOL    HW1 3695   4.018   0.731   1.926 -2.4595  0.6192  0.5376
  932SOL    HW2 3696   3.984   0.722   2.085  1.8773 -1.0167  1.5311
  933SOL     OW 3697   0.666   4.255   2.254  0.0885 -0.4469 -0.2134
  933SOL    HW1 3698   0.638   4.328   2.317 -1.7204 -0.6939 -0.6884
  933SOL    HW2 3699   0.621   4.170   2.281  2.0714 -1.4000  0.2551
  934SOL     OW 3700   1.350   2.820   5.208 -0.8994 -0.5600  0.2653
  934SOL    HW1 3701   1.411   2.787   5.136  0.8493  0.8384  1.0121
  934SOL    HW2 3702   1.270   2.864   5.167  0.4303  0.9024 -0.8752
  935SOL     OW 3703   1.182   4.676   6.117  0.8347 -0.0811  0.4719
  935SOL    HW1 3704   1.195   4.767   6.158  0.4874 -0.3502  1.1942
  935SOL    HW2 3705   1.090   4.643   6.139 -0.1142  0.5767 -2.1445
  936SOL     OW 3706   0.003   6.097   5.391  0.3565 -0.1614 -0.2364
  936SOL    HW1 3707   0.013   6.191   5.425  0.0368 -0.2025 -0.0183
  936SOL    HW2 3708  -0.087   6.062   5.418 -0.2366  0.0833 -1.7948
  937SOL     OW 3709   2.421   1.074   2.302  0.4114  0.1872  0.2590
  937SOL    HW1 3710   2.331   1.089   2.260  0.4641 -0.7529 -0.2171
  937SOL    HW2 3711   2.476   1.157   2.293  0.4590  0.0028 -1.6863
  938SOL     OW 3712   0.539   6.792   1.337 -0.1612 -0.4357  0.3662
  938SOL    HW1 3713   0.492   6.801   1.250 -0.7617  0.7020  0.7774
  938SOL    HW2 3714   0.592   6.875   1.355 -0.7151 -0.3034  1.4576
  939SOL     OW 3715   2.809   0.194   4.624  0.4538 -0.6405  0.2878
  939SOL    HW1 3716   2.727   0.195   4.681  2.1563 -0.5656  2.9013
  939SOL    HW2 3717   2.824   0.286   4.586 -1.8163 -1.1613 -2.1489
  940SOL     OW 3718   5.130   5.533   3.756  0.2126  0.1321 -0.1778
  940SOL    HW1 3719   5.043   5.495   3.726  0.6645 -0.2706 -1.0364
  940SOL    HW2 3720   5.191   5.541   3.677  0.6952  1.1159  0.2767
  941SOL     OW 3721   3.909   4.983   3.997 -0.1916 -0.0413  0.4581
  941SOL    HW1 3722   3.915   4.911   3.928 -0.3200  1.3361 -1.0326
  941SOL    HW2 3723   3.902   5.072   3.953  0.9774  1.0086  2.2646
  942SOL     OW 3724   4.918   0.387   0.045  0.6002  0.2147  0.2159
  942SOL    HW1 3725   5.014   0.414   0.045  0.7374 -0.2550  0.8129
  942SOL    HW2 3726   4.869   0.439   0.116  1.1024 -1.8644  2.1823
  943SOL     OW 3727   1.502   2.448   4.567 -0.0013 -0.0358 -0.2329
  943SOL    HW1 3728   1.464   2.360   4.539 -0.6718 -0.3854  1.6131
  943SOL    HW2 3729   1.430   2.518   4.568  0.2244  0.1999 -0.3718
  944SOL     OW 3730   2.658   5.308   2.770  0.4535 -0.4593  0.1644
  944SOL    HW1 3731   2.676   5.407   2.772  0.5166 -0.3647 -2.1582
  944SOL    HW2 3732   2.561   5.292   2.788  0.5679 -0.0527  1.2299
  945SOL     OW 3733   0.550   2.502   5.818 -0.0479  1.2629  0.1963
  945SOL    HW1 3734   0.582   2.551   5.899  0.7896 -0.9079  1.2535
  945SOL    HW2 3735   0.450   2.502   5.816 -0.2521 -1.1635  2.9980
  946SOL     OW 3736   0.452   1.915   6.220  0.0166 -0.6156 -0.5495
  946SOL    HW1 3737   0.480   1.821   6.242  0.7316  0.0990  1.9923
  946SOL    HW2 3738   0.532   1.975   6.220 -0.5154  0.1124 -1.4609
  947SOL     OW 3739   6.687   1.554   0.965 -0.3715 -0.2384  0.2536
  947SOL    HW1 3740   6.764   1.616   0.976  1.1670 -2.0082 -0.0050
  947SOL    HW2 3741   6.658   1.553   0.869 -0.2850 -0.0338  0.2261
  948SOL     OW 3742   2.650   0.049   0.080  0.1910 -0.1329 -0.4700
  948SOL    HW1 3743   2.700   0.129   0.045 -1.6692  1.3742  0.1116
  948SOL    HW2 3744   2.594   0.011   0.007  1.4766 -1.2823 -0.8896
  949SOL     OW 3745   2.138   2.636   7.014  0.5355  0.3025 -0.0503
  949SOL    HW1 3746   2.109   2.557   6.961  0.1268 -0.5693  1.4289
  949SOL    HW2 3747   2.093   2.718   6.978 -0.6355 -0.4374 -0.3378
  950SOL     OW 3748   5.994   3.369   0.129  0.5979 -0.2406 -0.0365
  950SOL    HW1 3749   6.061   3.429   0.086  0.0841  0.5674  0.2600
  950SOL    HW2 3750   6.010   3.274   0.100  0.4533  0.2298 -1.7599
  951SOL     OW 3751   3.996   6.719   6.590 -0.1409  0.3576 -0.8070
  951SOL    HW1 3752   4.043   6.644   6.635 -0.7021 -0.6025 -1.7745
  951SOL    HW2 3753   4.063   6.784   6.554  0.3979 -0.3282 -1.0578
  952SOL     OW 3754   4.283   0.238   4.821 -0.1022  0.2910  0.7020
  952SOL    HW1 3755   4.370   0.284   4.803 -0.9026  0.7136 -2.6217
  952SOL    HW2 3756   4.208   0.295   4.788 -1.8647  0.4278  4.4090
  953SOL     OW 3757   5.361   6.831   1.174  0.2359  0.3136  0.5142
  953SOL    HW1 3758   5.416   6.812   1.092 -0.9606  2.9826 -1.0215
  953SOL    HW2 3759   5.284   6.767   1.177  1.3606 -1.0872  0.6941
  954SOL     OW 3760   1.504   2.334   0.559 -0.0197 -0.4524  0.2714
  954SOL    HW1 3761   1.573   2.310   0.626  0.6451  0.4030 -0.0864
  954SOL    HW2 3762   1.487   2.255   0.499  0.4813 -0.7388  0.4983
  955SOL     OW 3763   4.697   4.686   2.066 -0.5029 -0.3418  0.3014
  955SOL    HW1 3764   4.626   4.725   2.007  0.2377 -1.4982 -1.4267
  955SOL    HW2 3765   4.774   4.750   2.073  0.3555 -1.0596 -1.8457
  956SOL     OW 3766   1.783   0.821   4.224 -0.3412 -0.1538 -0.2304
  956SOL    HW1 3767   1.769   0.876   4.141  3.0031 -1.9356 -2.2202
  956SOL    HW2 3768   1.810   0.881   4.299 -0.6084  1.2781 -1.2319
  957SOL     OW 3769   0.939   6.196   3.737  0.4013 -0.1746  0.0694
  957SOL    HW1 3770   0.979   6.282   3.704 -0.4776  0.4188  0.5093
  957SOL    HW2 3771   0.879   6.158   3.667  1.7335 -1.0967 -0.6146
  958SOL     OW 3772   4.495   4.910   1.371  0.4183 -0.1155 -0.3230
  958SOL    HW1 3773   4.439   4.982   1.412  1.0650  0.0956  0.2147
  958SOL    HW2 3774   4.559   4.875   1.439  1.2701 -0.0112 -1.0475
  959SOL     OW 3775   5.709   6.391   3.435  0.4657  0.1546 -0.3024
  959SOL    HW1 3776   5.613   6.395   3.462  0.4133 -1.7374 -0.0569
  959SOL    HW2 3777   5.762   6.348   3.508  1.2140 -0.3085 -1.0997
  960SOL     OW 3778   6.904   1.513   1.249  0.6453  0.4498  0.5994
  960SOL    HW1 3779   6.948   1.513   1.159  0.9566 -1.4865  0.6964
  960SOL    HW2 3780   6.960   1.565   1.314  0.0025  2.5648 -0.4579
  961SOL     OW 3781   6.162   3.609   1.523  0.3227 -0.0227  0.3409
  961SOL    HW1 3782   6.207   3.672   1.587 -1.7901  2.1321 -0.1689
  961SOL    HW2 3783   6.200   3.622   1.431 -0.4462  0.8965  0.1441
  962SOL     OW 3784   6.062   1.593   2.957 -0.1086 -0.1665 -0.0176
  962SOL    HW1 3785   6.104   1.529   2.893 -0.0413  1.6802 -1.9070
  962SOL    HW2 3786   6.023   1.670   2.907 -0.4534  1.1511  2.1490
  963SOL     OW 3787   5.132   4.322   2.373  0.8043 -0.0247  0.1594
  963SOL    HW1 3788   5.103   4.258   2.445 -0.3065 -1.2063 -1.2785
  963SOL    HW2 3789   5.228   4.306   2.351  0.2070 -2.3004 -1.1724
  964SOL     OW 3790   4.681   1.478   1.966  0.2008  0.0757 -0.1119
  964SOL    HW1 3791   4.769   1.525   1.964  0.2983 -0.0890  0.1589
  964SOL    HW2 3792   4.694   1.382   1.992  0.0978 -0.3388 -1.5115
  965SOL     OW 3793   4.950   0.055   3.182  0.3155  0.8160 -0.4786
  965SOL    HW1 3794   4.886   0.036   3.257  0.4719 -0.0727 -0.5604
  965SOL    HW2 3795   5.022   0.117   3.214 -0.7060  2.0283 -0.4555
  966SOL     OW 3796   0.280   1.685   4.512 -0.4001 -0.1197 -0.0209
  966SOL    HW1 3797   0.338   1.765   4.528 -0.2765  0.3177 -2.2515
  966SOL    HW2 3798   0.325   1.624   4.447 -0.2327 -2.3658  2.0928
  967SOL     OW 3799   3.099   3.647   1.558  0.6918 -0.4067 -0.0550
  967SOL    HW1 3800   3.178   3.591   1.535 -0.7048 -3.3202  1.6543
  967SOL    HW2 3801   3.081   3.640   1.656 -1.1943  0.8407 -0.2544
  968SOL     OW 3802   1.380   6.314   2.876 -0.3215 -0.2810  0.0139
  968SOL    HW1 3803   1.468   6.297   2.832 -0.5291 -2.9756  0.4292
  968SOL    HW2 3804   1.394   6.325   2.975 -0.5427 -3.8058  0.5901
  969SOL     OW 3805   5.570   3.205   5.211  0.0528 -0.2315  0.2211
  969SOL    HW1 3806   5.580   3.267   5.288  0.6985 -1.2921  1.0256
  969SOL    HW2 3807   5.488   3.148   5.224 -0.2189  0.0506 -0.2242
  970SOL     OW 3808   6.548   2.824   5.385 -0.4943  0.2741  0.2271
  970SOL    HW1 3809   6.554   2.756   5.459 -0.1783  1.4535  1.3153
  970SOL    HW2 3810   6.484   2.792   5.316 -1.4201 -0.5076  1.3974
  971SOL     OW 3811   5.028   5.150   6.149 -0.1384  0.0240 -0.0204
  971SOL    HW1 3812   5.031   5.051   6.137 -1.1969 -0.0284  0.0225
  971SOL    HW2 3813   5.027   5.195   6.060  1.3123  0.0533 -0.0432
  972SOL     OW 3814   3.316   1.145   6.300 -0.1158 -0.1587 -0.4423
  972SOL    HW1 3815   3.363   1.107   6.220 -0.7660  0.9211 -1.3665
  972SOL    HW2 3816   3.222   1.171   6.275 -1.4222 -2.5924  1.4288
  973SOL     OW 3817   3.435   1.221   0.036 -0.0004  0.1197  0.3095
  973SOL    HW1 3818   3.345   1.179   0.046 -0.0612  0.0197 -0.6169
  973SOL    HW2 3819   3.494   1.189   0.111 -0.0255 -1.6664 -0.3708
  974SOL     OW 3820   6.476   1.102   3.506  0.6691 -0.3382  0.3186
  974SOL    HW1 3821   6.515   1.150   3.585 -0.2096  0.4776  0.2696
  974SOL    HW2 3822   6.383   1.072   3.527  0.9037 -1.2913  0.0480
  975SOL     OW 3823   5.800   5.229   6.316 -0.7115  0.2682  0.7271
  975SOL    HW1 3824   5.834   5.138   6.339 -0.0661  0.5541  0.9103
  975SOL    HW2 3825   5.865   5.276   6.256 -1.5764  0.1859 -0.3179
  976SOL     OW 3826   4.115   4.753   4.032  0.7661  0.0604 -0.3794
  976SOL    HW1 3827   4.056   4.823   3.992 -0.1891  0.3116  1.3820
  976SOL    HW2 3828   4.105   4.753   4.131  1.1836 -2.1840 -0.2765
  977SOL     OW 3829   1.662   0.289   1.040 -0.1328 -0.0274  0.4536
  977SOL    HW1 3830   1.650   0.386   1.063 -0.9581 -0.0963  0.3644
  977SOL    HW2 3831   1.683   0.281   0.943  1.6386  0.1565  0.7957
  978SOL     OW 3832   5.846   5.961   4.929  0.3358 -0.3072 -0.1180
  978SOL    HW1 3833   5.928   5.915   4.965  0.2396  0.8140  1.6202
  978SOL    HW2 3834   5.850   6.058   4.950 -1.7745 -0.3307  0.6720
  979SOL     OW 3835   2.748   5.727   5.780 -0.0409  0.6294 -0.4417
  979SOL    HW1 3836   2.812   5.782   5.833  0.0395 -1.0072  1.2603
  979SOL    HW2 3837   2.698   5.665   5.841 -1.0028 -0.3378 -2.1184
  980SOL     OW 3838   6.620   1.704   4.936 -0.5778 -0.2406 -0.4915
  980SOL    HW1 3839   6.701   1.724   4.881 -2.1706 -0.9837 -3.3117
  980SOL    HW2 3840   6.587   1.787   4.980  0.6424  0.4183 -0.7848
  981SOL     OW 3841   5.729   4.290   1.829 -0.0027 -0.0596 -0.2526
  981SOL    HW1 3842   5.769   4.232   1.900  1.8313  0.2777 -0.9323
  981SOL    HW2 3843   5.630   4.277   1.825  0.0562 -1.1680  1.3519
  982SOL     OW 3844   5.320   2.755   2.085 -0.6845  0.4597  0.1710
  982SOL    HW1 3845   5.280   2.698   2.014  0.4783  0.6109 -0.6269
  982SOL    HW2 3846   5.252   2.771   2.157 -2.3978  1.5486 -1.5956
  983SOL     OW 3847   4.381   5.307   3.114  0.2258 -0.5470 -0.2187
  983SOL    HW1 3848   4.466   5.313   3.061 -0.4902  1.2152 -1.2731
  983SOL    HW2 3849   4.400   5.328   3.210  0.7822  1.6971 -0.7489
  984SOL     OW 3850   3.691   2.092   3.184  0.3647 -0.1926 -0.7757
  984SOL    HW1 3851   3.704   2.070   3.088  2.6687 -1.0400 -0.3318
  984SOL    HW2 3852   3.766   2.149   3.216 -1.1683  1.3908  0.1873
  985SOL     OW 3853   5.168   3.692   2.498 -0.2816  0.6285  0.2211
  985SOL    HW1 3854   5.242   3.661   2.438 -0.7540 -2.1286  0.9428
  985SOL    HW2 3855   5.088   3.714   2.442 -0.6097 -1.5930 -0.3000
  986SOL     OW 3856   4.520   1.941   1.856  0.0323  0.1921  0.5485
  986SOL    HW1 3857   4.582   1.992   1.797 -1.6676 -0.7506 -2.2113
  986SOL    HW2 3858   4.544   1.844   1.853 -2.0937 -0.3612 -1.4675
  987SOL     OW 3859   1.641   2.543   0.879 -0.3264  0.4398 -0.0753
  987SOL    HW1 3860   1.619   2.523   0.784 -2.1421  1.0492  0.1770
  987SOL    HW2 3861   1.737   2.569   0.886 -0.4040  1.3749 -1.9016
  988SOL     OW 3862   2.653   0.044   6.286 -0.3264 -0.0683  0.4564
  988SOL    HW1 3863   2.713  -0.033   6.267  0.6262  0.4322  1.2969
  988SOL    HW2 3864   2.613   0.034   6.378  0.1753  0.6403  0.7702
  989SOL     OW 3865   4.431   4.734   0.185  0.5850 -0.3028 -0.5043
  989SOL    HW1 3866   4.520   4.688   0.186 -1.2262 -4.1384  0.3966
  989SOL    HW2 3867   4.374   4.695   0.113 -0.5143  1.9635 -0.9458
  990SOL     OW 3868   5.458   4.061   1.603 -0.1127 -0.0846 -0.3781
  990SOL    HW1 3869   5.476   4.097   1.511 -0.4388  1.8756  0.2764
  990SOL    HW2 3870   5.404   3.978   1.595 -2.5682  1.4992 -1.9799
  991SOL     OW 3871   5.666   0.233   4.061  0.7579  0.2038  0.2212
  991SOL    HW1 3872   5.751   0.275   4.027  0.1676  0.1385 -1.4509
  991SOL    HW2 3873   5.672   0.133   4.049 -0.0588  0.2964 -1.2407
  992SOL     OW 3874   6.312   0.710   4.309 -0.0721  0.3223  0.0994
  992SOL    HW1 3875   6.397   0.663   4.285 -0.3822  0.6851 -1.9267
  992SOL    HW2 3876   6.304   0.795   4.255 -2.3987 -0.4599 -0.9568
  993SOL     OW 3877   4.704   5.046   7.024 -0.3374 -0.0119  0.2249
  993SOL    HW1 3878   4.611   5.053   7.062  0.3161  2.4091  1.5482
  993SOL    HW2 3879   4.744   4.959   7.054 -1.5438 -0.2939  1.1422
  994SOL     OW 3880   1.262   2.284   4.352  0.3282 -0.0509 -0.0856
  994SOL    HW1 3881   1.195   2.351   4.383  0.0922  0.5419 -1.7491
  994SOL    HW2 3882   1.218   2.195   4.342 -0.1267  0.2366 -0.7391
  995SOL     OW 3883   2.691   2.716   5.775 -0.4302 -0.5417 -0.0288
  995SOL    HW1 3884   2.785   2.682   5.769 -0.2750 -0.2448  0.6578
  995SOL    HW2 3885   2.648   2.680   5.858 -0.1420  1.1827  0.9063
  996SOL     OW 3886   4.499   0.724   4.121  0.6934 -0.6295  0.6714
  996SOL    HW1 3887   4.432   0.781   4.170  1.5310  0.2560  0.8223
  996SOL    HW2 3888   4.577   0.781   4.095  0.7629 -1.3395 -0.7207
  997SOL     OW 3889   5.523   6.780   5.855 -0.6147  0.2990  0.2123
  997SOL    HW1 3890   5.462   6.752   5.929 -1.1302 -0.6274 -0.5573
  997SOL    HW2 3891   5.615   6.742   5.872 -0.6902  0.2199  0.4535
  998SOL     OW 3892   0.570   0.224   2.288  0.2622  0.5617 -0.0296
  998SOL    HW1 3893   0.640   0.211   2.219 -0.4677  0.3779 -0.7566
  998SOL    HW2 3894   0.531   0.135   2.314  1.5459  0.4602  1.7376
  999SOL     OW 3895   5.127   3.442   4.088 -0.1500  0.4144  0.2671
  999SOL    HW1 3896   5.064   3.462   4.013 -0.3850  0.1508  0.3912
  999SOL    HW2 3897   5.087   3.473   4.174  0.5138  1.5394  0.1862
 1000SOL     OW 3898   6.509   1.251   5.588  0.2670  0.5676 -0.9105
 1000SOL    HW1 3899   6.494   1.348   5.606  3.1633  0.7749  1.0643
 1000SOL    HW2 3900   6.606   1.236   5.566 -0.2137 -1.8299 -1.7037
 1001SOL     OW 3901   5.674   1.454   1.494 -1.2457 -0.5483 -0.1094
 1001SOL    HW1 3902   5.713   1.396   1.566 -0.6000 -0.8405 -0.6697
 1001SOL    HW2 3903   5.592   1.500   1.527 -1.3985 -1.2872  0.5578
 1002SOL     OW 3904   3.290   2.853   1.450  0.0320 -0.6693 -0.4271
 1002SOL    HW1 3905   3.244   2.890   1.369  1.0013  0.7015 -0.3799
 1002SOL    HW2 3906   3.337   2.927   1.499 -0.4630 -1.4758  1.3570
 1003SOL     OW 3907   3.434   4.658   0.017 -0.4580  1.3297 -0.3153
 1003SOL    HW1 3908   3.518   4.641  -0.035  0.6218  1.6354  1.2860
 1003SOL    HW2 3909   3.355   4.626  -0.036  0.8261 -0.9843 -0.9399
 1004SOL     OW 3910   1.734   0.726   3.140 -0.0804 -0.3547 -0.4940
 1004SOL    HW1 3911   1.659   0.708   3.077  0.1536 -1.2345 -0.5302
 1004SOL    HW2 3912   1.716   0.811   3.189 -1.8900 -1.3155  0.6318
 1005SOL     OW 3913   0.610   0.658   6.126 -0.1655 -0.1012  0.6099
 1005SOL    HW1 3914   0.665   0.620   6.200  0.2057  0.1774  0.4793
 1005SOL    HW2 3915   0.552   0.586   6.087  1.3532 -0.8299 -0.4016
 1006SOL     OW 3916   5.818   2.166   3.969  0.2522 -0.5469 -0.0750
 1006SOL    HW1 3917   5.730   2.213   3.971  1.0711  1.0379  1.2485
 1006SOL    HW2 3918   5.809   2.077   4.014 -1.2077 -1.5332 -2.1883
 1007SOL     OW 3919   5.389   3.759   0.453 -0.0409 -0.6183  0.0818
 1007SOL    HW1 3920   5.335   3.841   0.470  1.4571  0.0892  1.8146
 1007SOL    HW2 3921   5.460   3.751   0.524  1.2202 -2.2460 -1.2875
 1008SOL     OW 3922   6.859   6.405   6.576 -0.4055  0.4778 -0.6609
 1008SOL    HW1 3923   6.815   6.452   6.499  0.1711  0.7452 -0.8344
 1008SOL    HW2 3924   6.808   6.322   6.597  0.2026 -0.3406 -2.2474
 1009SOL     OW 3925   0.032   2.314   2.012 -0.2915  0.5040  0.1251
 1009SOL    HW1 3926  -0.051   2.261   1.993  0.5136 -0.2294 -1.5192
 1009SOL    HW2 3927   0.037   2.393   1.951 -0.1825  1.0322  0.7996
 1010SOL     OW 3928   3.962   6.494   6.988 -0.1737 -0.2753 -0.2672
 1010SOL    HW1 3929   4.021   6.470   6.911  1.4192 -2.4366  1.5183
 1010SOL    HW2 3930   3.954   6.594   6.993  2.3953  0.0489 -1.2475
 1011SOL     OW 3931   2.576   1.129   4.575  0.3737 -0.0310 -0.2135
 1011SOL    HW1 3932   2.525   1.120   4.490  0.9093  0.2291 -0.5664
 1011SOL    HW2 3933   2.630   1.213   4.573  0.2614  0.0629  0.4525
 1012SOL     OW 3934   0.288   1.775   6.918  0.1607  0.0818  0.4842
 1012SOL    HW1 3935   0.352   1.845   6.884  0.5404  0.1625  1.3328
 1012SOL    HW2 3936   0.324   1.736   7.003  0.3957 -1.7702 -0.4100
 1013SOL     OW 3937   5.795   0.845   2.458 -0.0336  1.1345  0.7137
 1013SOL    HW1 3938   5.726   0.777   2.433 -0.4334  1.3513  1.2151
 1013SOL    HW2 3939   5.752   0.921   2.506  0.6821  0.7836  1.9790
 1014SOL     OW 3940   4.426   6.538   0.925 -0.3860 -0.0640 -0.1061
 1014SOL    HW1 3941   4.456   6.483   0.847  0.1561  0.8801 -0.5741
 1014SOL    HW2 3942   4.498   6.603   0.949 -0.8979  0.2293  0.6365
 1015SOL     OW 3943   3.711   1.855   0.685 -0.3108 -0.1480  0.8483
 1015SOL    HW1 3944   3.670   1.785   0.627  2.8661 -1.0587 -0.5297
 1015SOL    HW2 3945   3.758   1.811   0.762 -0.1027  0.6525  1.1887
 1016SOL     OW 3946   2.470   5.202   0.844 -0.0616 -0.1292  0.2890
 1016SOL    HW1 3947   2.445   5.297   0.824 -2.3994 -0.3367  1.8780
 1016SOL    HW2 3948   2.552   5.200   0.900  1.3585  0.7866 -1.6153
 1017SOL     OW 3949   4.183   4.085   6.913 -0.1699  0.3278  0.7734
 1017SOL    HW1 3950   4.283   4.080   6.925 -0.1083 -1.3520 -0.2173
 1017SOL    HW2 3951   4.161   4.165   6.858  0.9973 -1.0461 -1.9162
 1018SOL     OW 3952   1.392   2.059   2.171  0.8980 -0.7136 -0.3648
 1018SOL    HW1 3953   1.407   2.071   2.269  0.5043 -1.4019 -0.2109
 1018SOL    HW2 3954   1.432   1.972   2.142  1.0661 -0.4818 -0.8282
 1019SOL     OW 3955   0.452   4.903   5.953 -0.2327  0.5989  0.7049
 1019SOL    HW1 3956   0.527   4.897   6.018  1.8467 -0.6445 -1.6501
 1019SOL    HW2 3957   0.386   4.830   5.972  0.7816 -0.2867  0.9288
 1020SOL     OW 3958   4.031   2.816   6.590 -0.0818  0.1226  0.5065
 1020SOL    HW1 3959   3.951   2.794   6.533  0.5693 -1.8140  0.2617
 1020SOL    HW2 3960   4.071   2.902   6.559 -1.3399  0.4866 -0.1783
 1021SOL     OW 3961   3.880   4.629   1.728  0.0120 -0.8428 -0.8015
 1021SOL    HW1 3962   3.800   4.593   1.776 -0.8124 -0.0391 -1.5328
 1021SOL    HW2 3963   3.874   4.728   1.724  1.1042 -0.7710 -0.7798
 1022SOL     OW 3964   5.174   6.386   2.713 -0.1198  0.2997 -0.1622
 1022SOL    HW1 3965   5.161   6.346   2.623  1.3720 -0.6896  0.0200
 1022SOL    HW2 3966   5.103   6.352   2.775  0.1358 -0.7560 -0.4287
 1023SOL     OW 3967   5.289   6.572   3.040  0.4189  0.0019  0.0322
 1023SOL    HW1 3968   5.376   6.616   3.016  0.5182 -1.0765 -1.8110
 1023SOL    HW2 3969   5.304   6.475   3.060 -0.1365  0.1983  1.5044
 1024SOL     OW 3970   1.438   6.677   5.930 -0.6956  0.2680  0.3217
 1024SOL    HW1 3971   1.516   6.666   5.869 -0.9872  2.2522 -0.4955
 1024SOL    HW2 3972   1.445   6.612   6.006  1.6613  0.2639  0.1741
 1025SOL     OW 3973   3.782   6.944   1.128  0.1029  0.6351  0.1151
 1025SOL    HW1 3974   3.758   7.036   1.098 -0.1233  0.3430 -0.6222
 1025SOL    HW2 3975   3.709   6.907   1.185  0.2310  0.9359  0.4809
 1026SOL     OW 3976   3.190   1.695   4.408 -0.2854 -0.9834 -0.2163
 1026SOL    HW1 3977   3.206   1.790   4.382 -0.1291 -1.3122 -1.3653
 1026SOL    HW2 3978   3.269   1.639   4.384 -1.2655 -1.8035 -1.6923
 1027SOL     OW 3979   4.299   1.084   1.045 -0.0462  0.0762  0.0377
 1027SOL    HW1 3980   4.224   1.061   0.983 -0.0609  1.8371 -0.6470
 1027SOL    HW2 3981   4.263   1.105   1.136 -0.2958  0.0677 -0.0604
 1028SOL     OW 3982   4.347   4.779   1.167 -0.2817  0.5044 -0.4496
 1028SOL    HW1 3983   4.400   4.842   1.223  0.8325  0.0704 -0.9942
 1028SOL    HW2 3984   4.340   4.814   1.074 -1.7415  0.9990 -0.1763
 1029SOL     OW 3985   0.912   0.036   5.095 -0.1883  0.2558 -0.4969
 1029SOL    HW1 3986   0.856   0.113   5.064 -0.8499  0.5435  1.3166
 1029SOL    HW2 3987   1.004   0.068   5.117  0.1536  0.1285 -1.6713
 1030SOL     OW 3988   3.878   3.562   5.567  1.0165  0.2802  0.5632
 1030SOL    HW1 3989   3.964   3.524   5.601  0.7423 -2.3117 -1.3192
 1030SOL    HW2 3990   3.852   3.516   5.482 -3.2525 -0.5510  2.0389
 1031SOL     OW 3991   2.674   4.860   5.559  0.4802  0.5856 -0.0383
 1031SOL    HW1 3992   2.597   4.815   5.605  1.8848 -1.9279  0.0347
 1031SOL    HW2 3993   2.659   4.859   5.460  0.5898 -0.3154 -0.0566
 1032SOL     OW 3994   6.295   0.905   1.563  0.0916  0.2758  0.3209
 1032SOL    HW1 3995   6.278   0.983   1.504 -0.7361  1.0074  1.4971
 1032SOL    HW2 3996   6.291   0.933   1.659  1.2457 -0.9150  0.7505
 1033SOL     OW 3997   3.928   6.178   0.869  0.4814  0.5459  0.4269
 1033SOL    HW1 3998   3.918   6.235   0.950  0.6526 -0.5096  1.2035
 1033SOL    HW2 3999   4.020   6.189   0.832  0.8570  0.0132  1.1765
 1034SOL     OW 4000   2.188   6.502   4.644 -0.3069  0.5256 -0.1784
 1034SOL    HW1 4001   2.128   6.545   4.577 -0.2582  0.5594 -0.2007
 1034SOL    HW2 4002   2.232   6.422   4.603  0.1795  0.8912 -0.3779
 1035SOL     OW 4003   3.393   4.153   2.816  0.1732  0.2291  0.4677
 1035SOL    HW1 4004   3.472   4.171   2.758 -0.7164 -0.0641 -0.8578
 1035SOL    HW2 4005   3.422   4.100   2.896  1.4029  0.5980  0.2796
 1036SOL     OW 4006   4.479   2.149   3.866 -0.1361 -0.3447 -0.3987
 1036SOL    HW1 4007   4.500   2.217   3.937 -1.5356  0.8470 -1.0547
 1036SOL    HW2 4008   4.432   2.071   3.907 -0.9794  0.3582  0.0157
 1037SOL     OW 4009   1.939   6.283   4.930 -0.0184  0.1399  0.0593
 1037SOL    HW1 4010   1.871   6.217   4.960  0.6599 -0.5837  0.0245
 1037SOL    HW2 4011   1.896   6.373   4.922 -0.4087  0.2754  2.6041
 1038SOL     OW 4012   4.898   3.797   5.214  0.2202 -0.1886 -0.2723
 1038SOL    HW1 4013   4.831   3.739   5.168  0.4370 -0.0815 -0.7258
 1038SOL    HW2 4014   4.867   3.892   5.212  0.3498 -0.1486 -0.4207
 1039SOL     OW 4015   3.728   5.171   0.192 -0.2331  0.0130  0.1134
 1039SOL    HW1 4016   3.638   5.133   0.172 -0.1253 -0.8632  1.2364
 1039SOL    HW2 4017   3.750   5.157   0.288  2.1343 -2.0136 -0.6167
 1040SOL     OW 4018   3.246   3.241   6.132 -0.0921  0.0273 -0.0204
 1040SOL    HW1 4019   3.308   3.291   6.071 -0.1125  1.2764  0.9444
 1040SOL    HW2 4020   3.178   3.304   6.170 -1.3411 -1.1149 -0.2497
 1041SOL     OW 4021   3.033   3.603   1.284 -0.1176 -0.6617 -0.2412
 1041SOL    HW1 4022   2.936   3.623   1.268 -0.3178 -1.7540 -0.5092
 1041SOL    HW2 4023   3.051   3.605   1.382 -0.4518 -0.5926 -0.1784
 1042SOL     OW 4024   2.630   6.477   5.997  0.8649  0.1150  0.6120
 1042SOL    HW1 4025   2.575   6.557   5.971  1.2928  0.0199 -0.6325
 1042SOL    HW2 4026   2.578   6.420   6.060 -1.1985 -0.8512 -1.8097
 1043SOL     OW 4027   6.477   4.720   1.660  0.1556  0.0867 -0.1719
 1043SOL    HW1 4028   6.507   4.656   1.589  0.0387 -1.3309  0.9999
 1043SOL    HW2 4029   6.385   4.753   1.638  0.3032  0.0321 -0.9076
 1044SOL     OW 4030   1.974   3.611   1.979  0.7800  0.6010  0.3572
 1044SOL    HW1 4031   2.065   3.572   1.992  0.2263 -0.9919 -0.3384
 1044SOL    HW2 4032   1.916   3.587   2.057  0.1735 -0.8133 -0.5012
 1045SOL     OW 4033   2.227   1.959   2.994  0.1091 -0.4687  0.0426
 1045SOL    HW1 4034   2.190   1.925   3.081 -2.4583  0.9021 -0.4246
 1045SOL    HW2 4035   2.325   1.944   2.992  0.1722 -1.0118  2.9575
 1046SOL     OW 4036   1.369   6.729   3.069 -0.5262  0.0672 -0.0488
 1046SOL    HW1 4037   1.271   6.734   3.088 -0.4851  1.6868 -0.1361
 1046SOL    HW2 4038   1.411   6.659   3.127 -1.7707 -0.8441 -0.2243
 1047SOL     OW 4039   4.568   5.406   2.438 -0.2368 -0.4383 -0.4334
 1047SOL    HW1 4040   4.542   5.502   2.444  0.6738 -0.1943 -0.1164
 1047SOL    HW2 4041   4.532   5.356   2.517  0.0443 -0.1596 -0.1245
 1048SOL     OW 4042   0.485   1.770   5.090  0.4878  0.1939  0.3642
 1048SOL    HW1 4043   0.494   1.868   5.071  4.4714  0.3382  2.0149
 1048SOL    HW2 4044   0.507   1.718   5.008  1.3267  0.7222  0.2432
 1049SOL     OW 4045   3.092   1.432   4.145 -0.4620 -0.2435  0.1246
 1049SOL    HW1 4046   3.043   1.500   4.090  0.2062  1.2817  1.3216
 1049SOL    HW2 4047   3.181   1.469   4.171 -0.5368 -1.1321  1.7603
 1050SOL     OW 4048   0.074   6.407   5.202 -0.8103 -0.2316  0.3513
 1050SOL    HW1 4049   0.136   6.330   5.185  2.0579  1.4064  2.5145
 1050SOL    HW2 4050   0.071   6.465   5.121  1.6565  0.3307  0.5887
 1051SOL     OW 4051   5.037   2.009   5.070 -0.5936  0.1082  0.6087
 1051SOL    HW1 4052   5.050   2.085   5.133 -1.6317  2.7590 -2.1525
 1051SOL    HW2 4053   4.955   1.958   5.095  0.3285 -0.4754  2.7276
 1052SOL     OW 4054   2.711   2.134   4.589 -0.3616  0.1795  0.1907
 1052SOL    HW1 4055   2.694   2.223   4.631  0.1959  0.1444  0.5049
 1052SOL    HW2 4056   2.810   2.121   4.579 -0.3991 -0.7547  0.9294
 1053SOL     OW 4057   6.411   2.739   0.092 -0.4852 -0.0898 -0.6789
 1053SOL    HW1 4058   6.376   2.712   0.002  0.6119 -0.6114 -0.9656
 1053SOL    HW2 4059   6.508   2.716   0.098 -0.6456 -0.4556  0.7981
 1054SOL     OW 4060   2.546   0.337   6.999 -0.1088 -0.2958 -0.0043
 1054SOL    HW1 4061   2.643   0.311   7.004 -0.1635 -0.5914 -0.4209
 1054SOL    HW2 4062   2.510   0.313   6.909 -1.0256 -1.7646  0.7251
 1055SOL     OW 4063   1.505   0.479   5.465  0.4006  0.1828  0.0522
 1055SOL    HW1 4064   1.431   0.545   5.472 -1.0690 -1.4688  0.7767
 1055SOL    HW2 4065   1.563   0.486   5.546  1.5910  2.0338 -0.8885
 1056SOL     OW 4066   4.034   6.738   0.219  0.1123  0.0497  0.0362
 1056SOL    HW1 4067   4.075   6.765   0.307  0.2064 -3.9148  1.3886
 1056SOL    HW2 4068   3.938   6.716   0.232  0.0540 -0.3200 -0.9404
 1057SOL     OW 4069   1.278   0.228   4.918 -0.0178 -0.2171  0.5798
 1057SOL    HW1 4070   1.373   0.202   4.901  0.5711  0.2154  2.8828
 1057SOL    HW2 4071   1.275   0.311   4.973 -1.7804  0.4650 -0.4524
 1058SOL     OW 4072   5.813   5.876   4.390  0.0492  0.2702  0.1408
 1058SOL    HW1 4073   5.791   5.899   4.485 -0.4058 -1.2002  0.4099
 1058SOL    HW2 4074   5.738   5.824   4.350  0.5347  0.2848 -0.8125
 1059SOL     OW 4075   0.246   3.680   2.160  0.3379 -0.0576  0.5262
 1059SOL    HW1 4076   0.346   3.675   2.165  0.4413 -0.2759 -1.1493
 1059SOL    HW2 4077   0.209   3.692   2.252  1.8991  0.0404  1.1823
 1060SOL     OW 4078   3.559   6.624   3.174 -0.6162  0.2025 -0.0636
 1060SOL    HW1 4079   3.636   6.622   3.238  0.0350  0.8015 -0.8034
 1060SOL    HW2 4080   3.553   6.536   3.127  0.9042  0.7884 -1.4487
 1061SOL     OW 4081   0.781   0.643   5.842 -0.1871  0.3849  0.1951
 1061SOL    HW1 4082   0.807   0.681   5.753  0.6159 -1.4203 -0.3789
 1061SOL    HW2 4083   0.704   0.695   5.879 -1.8166  0.0018 -2.4356
 1062SOL     OW 4084   0.099   5.637   4.242  0.9810  0.6154 -0.6693
 1062SOL    HW1 4085   0.165   5.711   4.229  2.2816 -0.5617 -0.8909
 1062SOL    HW2 4086   0.141   5.549   4.221 -0.1335 -0.3501  0.8665
 1063SOL     OW 4087   1.862   5.659   1.988 -0.1808  0.2141  0.3976
 1063SOL    HW1 4088   1.926   5.645   2.063 -0.3365 -0.3430  0.4265
 1063SOL    HW2 4089   1.851   5.757   1.971 -0.5167  0.3638  1.4284
 1064SOL     OW 4090   2.851   6.360   4.168 -0.2159 -0.3996 -0.2219
 1064SOL    HW1 4091   2.818   6.384   4.260  0.6895  0.0436 -0.0066
 1064SOL    HW2 4092   2.945   6.391   4.157  0.5825 -2.7139 -0.3814
 1065SOL     OW 4093   1.397   5.273   6.006  0.0469 -0.2937  0.0302
 1065SOL    HW1 4094   1.369   5.199   6.068  0.1988  1.1188  1.8858
 1065SOL    HW2 4095   1.486   5.309   6.036 -0.4627  1.2437 -0.2261
 1066SOL     OW 4096   0.982   2.581   2.024  0.0693  0.3206 -0.4926
 1066SOL    HW1 4097   0.977   2.567   1.925 -3.0563  3.8704 -1.0455
 1066SOL    HW2 4098   1.044   2.656   2.044 -1.1845  1.2768 -0.0731
 1067SOL     OW 4099   4.923   2.664   2.928  0.2376  0.3874  0.2931
 1067SOL    HW1 4100   4.867   2.746   2.917  0.0738 -0.0769 -4.2716
 1067SOL    HW2 4101   4.864   2.583   2.929  0.6147  0.0779 -1.0152
 1068SOL     OW 4102   0.457   0.144   4.199 -0.2048 -0.0765 -0.1551
 1068SOL    HW1 4103   0.551   0.128   4.172  0.0766 -0.4675  0.9786
 1068SOL    HW2 4104   0.400   0.065   4.175 -0.4079  0.4469 -1.4761
 1069SOL     OW 4105   1.466   6.807   2.516 -0.6778  0.3783 -0.1861
 1069SOL    HW1 4106   1.514   6.827   2.602 -0.5305  0.5684 -0.3106
 1069SOL    HW2 4107   1.381   6.860   2.512 -0.6623  0.4039 -0.1775
 1070SOL     OW 4108   6.257   6.554   2.543 -0.1341  0.3612 -0.0333
 1070SOL    HW1 4109   6.201   6.548   2.461 -1.7830  0.5323  1.0351
 1070SOL    HW2 4110   6.198   6.564   2.623  1.4821  2.7020  0.9561
 1071SOL     OW 4111   6.793   6.177   4.694  0.0076 -0.3307 -0.1917
 1071SOL    HW1 4112   6.872   6.118   4.709 -0.0048 -0.2282  0.2800
 1071SOL    HW2 4113   6.824   6.266   4.659  0.0002 -0.7249 -1.2126
 1072SOL     OW 4114   5.955   6.129   5.495  0.4145 -0.0598  0.0379
 1072SOL    HW1 4115   6.010   6.059   5.450 -1.7572 -0.4719 -2.1610
 1072SOL    HW2 4116   5.936   6.203   5.431 -0.8200  0.4969  1.0052
 1073SOL     OW 4117   6.759   3.616   3.717  0.8137  0.3268 -0.3804
 1073SOL    HW1 4118   6.690   3.602   3.646  0.0954  0.5993  0.2413
 1073SOL    HW2 4119   6.736   3.699   3.768  0.6113 -0.5199  0.9504
 1074SOL     OW 4120   2.167   4.628   5.246 -0.0478  0.1094 -0.3374
 1074SOL    HW1 4121   2.153   4.570   5.165 -1.9947  0.2948 -0.1660
 1074SOL    HW2 4122   2.250   4.599   5.293  0.1150 -1.2118 -1.3706
 1075SOL     OW 4123   0.640   0.298   3.230 -0.2421 -0.3011 -0.1870
 1075SOL    HW1 4124   0.683   0.297   3.321  1.3541 -0.1570 -0.9102
 1075SOL    HW2 4125   0.558   0.356   3.233 -1.4022 -1.9026  1.6385
 1076SOL     OW 4126   6.443   5.238   0.540  0.3934  0.3733 -0.0345
 1076SOL    HW1 4127   6.402   5.225   0.631 -0.2419 -0.2588 -0.3962
 1076SOL    HW2 4128   6.420   5.330   0.506 -2.4391 -0.5796 -1.0228
 1077SOL     OW 4129   1.001   4.551   1.427 -0.0748  0.4762 -0.6106
 1077SOL    HW1 4130   1.055   4.472   1.398 -0.6406 -0.9395  1.8995
 1077SOL    HW2 4131   0.904   4.533   1.408 -0.6453 -1.1030  2.9647
 1078SOL     OW 4132   0.385   5.170   2.690  0.6053  0.2862  0.5931
 1078SOL    HW1 4133   0.380   5.147   2.593 -0.7092 -1.0491  0.9445
 1078SOL    HW2 4134   0.398   5.269   2.700  0.9651  0.4186 -0.9232
 1079SOL     OW 4135   2.321   6.901   5.678 -0.3636  0.6386  0.5001
 1079SOL    HW1 4136   2.257   6.970   5.714  0.4497  1.2164  0.8799
 1079SOL    HW2 4137   2.373   6.941   5.602 -2.1742 -0.6205 -1.4929
 1080SOL     OW 4138   6.953   4.856   1.460  0.2505  0.0033 -0.1908
 1080SOL    HW1 4139   6.976   4.778   1.518  0.4839  0.8196  0.8238
 1080SOL    HW2 4140   7.028   4.922   1.461 -1.5386  2.1577  2.2270
 1081SOL     OW 4141   2.306   2.252   6.531 -0.3059  0.3211  0.0663
 1081SOL    HW1 4142   2.326   2.250   6.629 -0.0384  0.2643  0.0120
 1081SOL    HW2 4143   2.388   2.278   6.480 -0.7163  1.3755 -0.0742
 1082SOL     OW 4144   3.399   4.500   5.691 -0.3446  0.1534  0.2836
 1082SOL    HW1 4145   3.465   4.509   5.616  1.7767 -5.7108  0.8938
 1082SOL    HW2 4146   3.448   4.504   5.778 -1.7384  0.7119  1.0594
 1083SOL     OW 4147   3.202   4.339   6.261  0.3607 -0.1424  0.0120
 1083SOL    HW1 4148   3.190   4.296   6.172  1.3101  0.7289 -0.5601
 1083SOL    HW2 4149   3.270   4.412   6.254  0.6476 -0.2283  1.5066
 1084SOL     OW 4150   1.518   1.254   4.637  0.1336  0.3599  0.2646
 1084SOL    HW1 4151   1.440   1.297   4.682  0.5364  1.1333  0.2349
 1084SOL    HW2 4152   1.593   1.245   4.701 -0.1785 -0.9977  0.4847
 1085SOL     OW 4153   3.683   2.859   5.583 -0.1869  0.0976  0.0773
 1085SOL    HW1 4154   3.772   2.894   5.553  0.8084 -1.1336  1.4521
 1085SOL    HW2 4155   3.636   2.817   5.506  0.5269  0.5298 -0.6112
 1086SOL     OW 4156   1.975   5.345   2.363  0.2208 -0.3284  0.0365
 1086SOL    HW1 4157   1.912   5.421   2.354  0.2252 -0.4282 -0.8770
 1086SOL    HW2 4158   1.997   5.331   2.460 -0.0854  0.5714  0.2407
 1087SOL     OW 4159   6.084   1.220   0.366 -0.0056 -0.4102 -0.0085
 1087SOL    HW1 4160   6.045   1.136   0.329  1.3890 -1.2273  0.3384
 1087SOL    HW2 4161   6.108   1.282   0.291 -0.6211 -0.5013 -0.2843
 1088SOL     OW 4162   2.128   5.880   2.662  0.1376 -0.1697  0.4072
 1088SOL    HW1 4163   2.104   5.920   2.751  1.2369 -1.3529  1.2777
 1088SOL    HW2 4164   2.144   5.782   2.673 -0.8464 -0.5648 -1.3458
 1089SOL     OW 4165   0.199   4.505   1.393 -0.1410  0.3185  0.2481
 1089SOL    HW1 4166   0.277   4.458   1.434 -0.3180 -0.2756 -0.0949
 1089SOL    HW2 4167   0.164   4.452   1.316 -0.8414  0.6140  0.3534
 1090SOL     OW 4168   5.057   0.661   1.118 -0.5598  0.0312 -0.3725
 1090SOL    HW1 4169   5.065   0.714   1.034 -0.7094 -0.4419 -0.6886
 1090SOL    HW2 4170   4.986   0.701   1.176 -1.4585 -0.4710 -1.1069
 1091SOL     OW 4171   5.999   0.350   0.988 -0.5687 -0.0059 -0.0187
 1091SOL    HW1 4172   5.981   0.307   0.900 -0.0103  0.4094 -0.3468
 1091SOL    HW2 4173   5.916   0.393   1.023 -0.0782  2.8294 -2.0237
 1092SOL     OW 4174   5.163   0.708   5.967  0.0164 -0.3385 -0.4607
 1092SOL    HW1 4175   5.089   0.644   5.949  0.9461 -1.6166  0.1142
 1092SOL    HW2 4176   5.138   0.799   5.932 -3.0821  0.0401  2.2602
 1093SOL     OW 4177   5.785   2.086   2.544  0.1039 -0.2888 -0.0170
 1093SOL    HW1 4178   5.724   2.039   2.481  0.0813  0.0150 -0.2235
 1093SOL    HW2 4179   5.738   2.163   2.586  0.4249  0.1256 -0.3976
 1094SOL     OW 4180   4.965   2.580   1.100 -0.4598  0.0324  0.4205
 1094SOL    HW1 4181   5.000   2.554   1.010 -2.5412 -2.9609  0.3126
 1094SOL    HW2 4182   5.000   2.516   1.169 -2.0402 -0.2533  1.0102
 1095SOL     OW 4183   1.115   1.097   2.828 -0.4512 -0.1671 -0.2116
 1095SOL    HW1 4184   1.046   1.162   2.859  0.6640 -0.3395  2.9877
 1095SOL    HW2 4185   1.098   1.007   2.868  0.5985 -0.6865 -0.8631
 1096SOL     OW 4186   0.873   0.700   4.238  0.1157 -0.0971 -0.4576
 1096SOL    HW1 4187   0.801   0.763   4.208 -0.3037  0.2182  1.1195
 1096SOL    HW2 4188   0.847   0.606   4.215 -1.7465 -0.1921  1.6665
 1097SOL     OW 4189   1.357   0.299   2.705 -0.2277  0.1044  0.0355
 1097SOL    HW1 4190   1.395   0.381   2.748 -2.5088  1.0527  0.3982
 1097SOL    HW2 4191   1.331   0.320   2.610 -0.9519 -0.1348  0.1721
 1098SOL     OW 4192   2.918   3.839   5.623 -0.5415 -0.0488  0.1682
 1098SOL    HW1 4193   2.856   3.916   5.633 -1.1976 -0.4438 -0.7471
 1098SOL    HW2 4194   2.969   3.848   5.538 -1.0852 -0.9353 -0.2676
 1099SOL     OW 4195   0.560   2.073   0.309  0.2750  0.0364 -0.6594
 1099SOL    HW1 4196   0.601   2.157   0.346 -2.2946  0.5281  1.3605
 1099SOL    HW2 4197   0.576   1.997   0.372  0.0947 -0.2943 -1.0077
 1100SOL     OW 4198   4.703   4.158   6.376 -0.2217 -0.4172 -0.2917
 1100SOL    HW1 4199   4.744   4.074   6.342  1.4352 -0.1352  0.9073
 1100SOL    HW2 4200   4.774   4.226   6.394 -1.4275  0.8745 -0.2276
 1101SOL     OW 4201   4.970   4.779   1.310  0.2331  0.3050 -0.2499
 1101SOL    HW1 4202   4.982   4.829   1.395 -0.7813  0.7203 -0.3306
 1101SOL    HW2 4203   4.941   4.685   1.331 -0.6245  0.5864 -0.1348
 1102SOL     OW 4204   0.298   1.287   4.266 -1.1249 -0.4394 -0.2318
 1102SOL    HW1 4205   0.376   1.272   4.206 -2.1460 -1.2796 -1.4112
 1102SOL    HW2 4206   0.312   1.240   4.353 -0.5898 -1.1016 -0.6709
 1103SOL     OW 4207   6.779   3.317   6.256  0.2162 -0.7234  0.0777
 1103SOL    HW1 4208   6.760   3.320   6.158  1.2925  2.0601 -0.1323
 1103SOL    HW2 4209   6.876   3.337   6.272  0.5954 -3.3026  1.6648
 1104SOL     OW 4210   2.358   5.223   6.271 -0.2664  0.1355  0.0268
 1104SOL    HW1 4211   2.334   5.156   6.201 -0.3999 -0.1594  0.3557
 1104SOL    HW2 4212   2.455   5.214   6.294 -0.5547 -0.7570  0.9367
 1105SOL     OW 4213   1.877   2.039   3.729 -0.0041 -0.3979 -0.1043
 1105SOL    HW1 4214   1.782   2.029   3.760 -0.1241 -1.6091 -0.7989
 1105SOL    HW2 4215   1.932   1.964   3.764  0.9822  0.8684  1.1960
 1106SOL     OW 4216   1.923   4.806   4.995  0.3506  0.5299 -0.2171
 1106SOL    HW1 4217   1.918   4.707   4.988 -0.2778  0.5364  0.0397
 1106SOL    HW2 4218   2.010   4.832   5.038  0.6791  0.1139 -0.6259
 1107SOL     OW 4219   4.127   5.376   4.655 -0.3979 -0.5573 -0.1877
 1107SOL    HW1 4220   4.100   5.406   4.746 -0.6690  0.7608 -0.6862
 1107SOL    HW2 4221   4.204   5.312   4.662  0.6459  0.7731  0.8729
 1108SOL     OW 4222   1.579   1.666   2.000  0.5580 -0.1294 -0.1678
 1108SOL    HW1 4223   1.581   1.676   1.901  2.3979 -0.4267 -0.2072
 1108SOL    HW2 4224   1.668   1.631   2.031 -0.2153 -0.6993  1.5181
 1109SOL     OW 4225   5.737   2.578   6.590  0.6113 -0.2764 -0.4395
 1109SOL    HW1 4226   5.807   2.603   6.656  0.8889 -2.2487  0.0901
 1109SOL    HW2 4227   5.652   2.627   6.610  1.3048  0.7313  0.0611
 1110SOL     OW 4228   0.543   0.311   0.049  0.3448 -0.6274 -0.4496
 1110SOL    HW1 4229   0.546   0.254  -0.033  1.1704 -0.5563 -0.4773
 1110SOL    HW2 4230   0.502   0.399   0.028 -1.8105 -1.5125 -0.2063
 1111SOL     OW 4231   3.039   3.964   4.659 -0.2563  0.2941 -0.0984
 1111SOL    HW1 4232   3.062   3.895   4.728  0.0830  0.4741 -0.0275
 1111SOL    HW2 4233   2.968   4.024   4.695  1.7803  2.0794  1.2202
 1112SOL     OW 4234   2.293   2.058   1.186  0.0260 -0.6460 -0.4751
 1112SOL    HW1 4235   2.297   2.145   1.136 -1.4069 -0.4319 -0.2630
 1112SOL    HW2 4236   2.338   2.069   1.274 -0.8672  0.1625 -0.0899
 1113SOL     OW 4237   0.150   0.517   4.933  0.1997  0.0866  0.9265
 1113SOL    HW1 4238   0.120   0.536   5.027  4.4772 -0.3550  2.5941
 1113SOL    HW2 4239   0.246   0.490   4.933  0.3120 -0.3378 -3.6315
 1114SOL     OW 4240   2.408   1.044   6.421 -0.6759 -0.1270 -0.4118
 1114SOL    HW1 4241   2.402   1.139   6.451 -1.2980 -0.4173  0.4336
 1114SOL    HW2 4242   2.317   1.011   6.397 -0.8518 -1.1599  1.4523
 1115SOL     OW 4243   3.484   6.738   6.664 -0.1341  0.1580 -0.0478
 1115SOL    HW1 4244   3.438   6.665   6.715 -0.4440 -0.3714 -1.0528
 1115SOL    HW2 4245   3.523   6.700   6.580  0.2263  1.0412 -0.2858
 1116SOL     OW 4246   6.190   4.196   0.826  0.9091  0.0242 -0.0024
 1116SOL    HW1 4247   6.180   4.140   0.908  0.1115  0.8029  0.4467
 1116SOL    HW2 4248   6.133   4.278   0.834  0.9174  0.1742 -1.2810
 1117SOL     OW 4249   2.212   6.636   4.241  0.0736 -0.7197 -0.2716
 1117SOL    HW1 4250   2.258   6.722   4.222 -1.9858  1.1932  2.5714
 1117SOL    HW2 4251   2.278   6.571   4.279  1.3356  0.1972 -0.8301
 1118SOL     OW 4252   4.742   1.571   3.558  0.3238 -0.5284  0.6968
 1118SOL    HW1 4253   4.824   1.534   3.602  0.3669 -1.3388 -0.0455
 1118SOL    HW2 4254   4.762   1.593   3.463 -0.6640 -1.9891  0.1349
 1119SOL     OW 4255   2.922   0.479   0.820  0.2149  0.1743 -0.4375
 1119SOL    HW1 4256   2.883   0.397   0.778  1.1062 -0.0982 -0.7571
 1119SOL    HW2 4257   2.863   0.557   0.800 -1.5527 -0.6332  1.2807
 1120SOL     OW 4258   3.231   6.748   5.141 -0.3930 -0.3724  0.5576
 1120SOL    HW1 4259   3.158   6.733   5.208  0.3179 -0.0202  1.4263
 1120SOL    HW2 4260   3.190   6.779   5.055 -1.2554  0.2563  1.1675
 1121SOL     OW 4261   4.698   2.102   1.745 -0.3075  0.1437 -0.1403
 1121SOL    HW1 4262   4.637   2.154   1.685 -0.1622 -1.4488 -1.7617
 1121SOL    HW2 4263   4.786   2.090   1.700  0.1278 -0.3047  0.8079
 1122SOL     OW 4264   5.609   5.164   5.881  0.2236 -0.3963  0.3414
 1122SOL    HW1 4265   5.632   5.115   5.797  0.6370 -0.6373  0.5936
 1122SOL    HW2 4266   5.600   5.262   5.861 -0.0557 -0.4994 -0.0551
 1123SOL     OW 4267   5.217   4.611   4.632 -0.3024 -0.1433  0.2755
 1123SOL    HW1 4268   5.288   4.541   4.641 -1.4681 -1.1684  2.1737
 1123SOL    HW2 4269   5.189   4.642   4.722 -2.1515  0.3380 -0.4163
 1124SOL     OW 4270   4.730   3.869   1.733 -0.7336  0.2767  0.1597
 1124SOL    HW1 4271   4.674   3.952   1.735  1.5847  1.9164  1.9005
 1124SOL    HW2 4272   4.763   3.854   1.640 -2.3150  0.4415 -0.4711
 1125SOL     OW 4273   2.423   4.601   5.383  0.6898  0.4789 -1.1344
 1125SOL    HW1 4274   2.365   4.665   5.433 -0.5000  1.6210 -3.7965
 1125SOL    HW2 4275   2.402   4.507   5.411  1.2427  1.0800  1.5805
 1126SOL     OW 4276   3.817   0.118   5.001  0.2238 -0.5578 -0.1862
 1126SOL    HW1 4277   3.873   0.199   4.991 -0.2346 -0.4873 -2.7900
 1126SOL    HW2 4278   3.727   0.144   5.036  0.5659 -0.1687  0.4206
 1127SOL     OW 4279   4.488   3.039   5.486  0.5116 -0.4808  0.0759
 1127SOL    HW1 4280   4.547   3.088   5.422 -0.6383  1.5502  0.4881
 1127SOL    HW2 4281   4.460   2.951   5.445  2.2417 -0.6307 -0.8900
 1128SOL     OW 4282   1.756   6.181   1.283 -0.0003  0.0143 -0.7811
 1128SOL    HW1 4283   1.806   6.265   1.302  1.2920 -0.7406 -0.7019
 1128SOL    HW2 4284   1.813   6.102   1.308 -1.9138 -0.8810  0.9561
 1129SOL     OW 4285   2.094   3.381   3.980  0.1424 -0.8370  0.5142
 1129SOL    HW1 4286   2.058   3.370   3.888  0.2414 -1.3617  0.5389
 1129SOL    HW2 4287   2.089   3.478   4.006  0.3024 -0.6548 -0.1132
 1130SOL     OW 4288   6.912   6.427   4.867 -0.6257 -0.4166  1.1898
 1130SOL    HW1 4289   6.901   6.454   4.771 -3.2029  0.8636  1.7352
 1130SOL    HW2 4290   6.975   6.350   4.873  0.8170  0.4525 -1.3396
 1131SOL     OW 4291   0.361   1.898   1.292 -0.0437 -0.0627 -0.8585
 1131SOL    HW1 4292   0.422   1.826   1.326  1.1330  0.4083 -1.9194
 1131SOL    HW2 4293   0.340   1.962   1.366  0.5742 -0.3483 -0.4339
 1132SOL     OW 4294   2.268   0.517   3.350 -0.2910  0.3455 -0.2948
 1132SOL    HW1 4295   2.307   0.466   3.274 -0.6583 -2.6376  1.3886
 1132SOL    HW2 4296   2.324   0.505   3.432 -1.7990  0.5008  0.8073
 1133SOL     OW 4297   3.428   0.207   5.800  0.1029  0.0687  0.5045
 1133SOL    HW1 4298   3.350   0.250   5.846  0.5383  1.4849 -0.0260
 1133SOL    HW2 4299   3.485   0.161   5.868 -0.5907 -0.0084  1.0426
 1134SOL     OW 4300   4.527   5.054   1.139 -0.4857 -0.0751  0.3738
 1134SOL    HW1 4301   4.594   5.041   1.066  0.3317  3.3627  0.3647
 1134SOL    HW2 4302   4.567   5.026   1.227  0.2687  0.1550  0.1121
 1135SOL     OW 4303   5.923   6.280   5.235 -0.1565  0.0626 -0.2148
 1135SOL    HW1 4304   6.006   6.328   5.206  0.6158 -0.7121  0.6361
 1135SOL    HW2 4305   5.868   6.339   5.294  0.9399 -0.1451  1.0781
 1136SOL     OW 4306   5.813   6.469   1.339 -0.0098 -0.3104 -0.2558
 1136SOL    HW1 4307   5.874   6.538   1.377 -0.1151 -1.1486  1.5448
 1136SOL    HW2 4308   5.721   6.480   1.379 -0.5964 -0.1727 -1.5875
 1137SOL     OW 4309   4.824   5.630   1.348  0.1356  0.5470 -0.1991
 1137SOL    HW1 4310   4.843   5.727   1.362  1.4758  0.2190  0.3419
 1137SOL    HW2 4311   4.753   5.620   1.278  0.6224  1.8754 -0.9148
 1138SOL     OW 4312   3.140   0.504   6.993 -0.5030  0.0445 -0.2696
 1138SOL    HW1 4313   3.163   0.600   6.976 -0.3180 -0.2006 -1.4704
 1138SOL    HW2 4314   3.112   0.461   6.908 -0.2018 -1.0812  0.1829
 1139SOL     OW 4315   5.287   5.486   3.268 -0.2196  0.1103 -0.0915
 1139SOL    HW1 4316   5.206   5.534   3.234 -0.9298  0.3029  1.7599
 1139SOL    HW2 4317   5.273   5.387   3.258 -1.1966  0.0900  1.2041
 1140SOL     OW 4318   1.718   4.994   0.390  0.2549  0.4788  0.3829
 1140SOL    HW1 4319   1.671   4.921   0.438  1.0359  0.6020  1.3730
 1140SOL    HW2 4320   1.754   4.960   0.303 -2.6602  0.6856 -1.0146
 1141SOL     OW 4321   5.037   2.458   5.439  0.4414 -0.1722  0.2356
 1141SOL    HW1 4322   4.987   2.545   5.434  2.3439  0.9302 -0.6376
 1141SOL    HW2 4323   5.012   2.411   5.523 -0.4577  1.3392  0.8676
 1142SOL     OW 4324   0.381   6.186   1.054  0.3325  0.2421 -0.7401
 1142SOL    HW1 4325   0.348   6.269   1.098 -2.9467 -1.0949 -0.4003
 1142SOL    HW2 4326   0.481   6.189   1.049  0.4721  3.2328  1.0676
 1143SOL     OW 4327   6.549   6.088   4.289 -0.6093  0.1970  0.2188
 1143SOL    HW1 4328   6.638   6.047   4.309 -0.1143  1.1930  0.1280
 1143SOL    HW2 4329   6.490   6.081   4.369 -0.1935  0.1837  0.5263
 1144SOL     OW 4330   4.140   0.404   2.239  0.2517 -0.1015 -0.0318
 1144SOL    HW1 4331   4.050   0.409   2.196  0.4498  1.8084 -0.2905
 1144SOL    HW2 4332   4.190   0.489   2.225  1.3383 -0.3566  1.7991
 1145SOL     OW 4333   0.517   3.597   2.752 -0.4548  0.1658 -0.5445
 1145SOL    HW1 4334   0.464   3.650   2.685 -4.0670 -0.0628  1.8237
 1145SOL    HW2 4335   0.540   3.508   2.714 -2.8912 -0.1652 -1.3909
 1146SOL     OW 4336   4.685   3.406   1.453  0.7773 -0.1192  0.3272
 1146SOL    HW1 4337   4.668   3.504   1.465  2.2178 -0.0646  2.5612
 1146SOL    HW2 4338   4.691   3.362   1.543  1.5958 -1.9915 -0.5826
 1147SOL     OW 4339   2.258   6.670   1.073  0.0877  0.4252  0.1069
 1147SOL    HW1 4340   2.321   6.594   1.058 -0.9224 -0.5660  0.6780
 1147SOL    HW2 4341   2.270   6.706   1.165  1.2415  1.6368 -0.4924
 1148SOL     OW 4342   2.875   4.658   6.694 -0.3296  0.2102 -0.2254
 1148SOL    HW1 4343   2.906   4.737   6.640 -0.0267  0.0030 -0.3608
 1148SOL    HW2 4344   2.951   4.594   6.703 -0.8871 -0.5837 -1.0553
 1149SOL     OW 4345   2.228   6.891   4.800  0.7284  0.0343  0.1698
 1149SOL    HW1 4346   2.166   6.826   4.843  1.3679 -1.2655 -0.8231
 1149SOL    HW2 4347   2.304   6.910   4.862  0.1549  0.4496  0.7681
 1150SOL     OW 4348   6.135   5.126   1.172 -0.4483 -0.5353 -0.1983
 1150SOL    HW1 4349   6.170   5.219   1.164  0.1168 -0.5363  1.6807
 1150SOL    HW2 4350   6.051   5.126   1.226 -0.0640 -1.1712  0.4251
 1151SOL     OW 4351   7.022   4.537   6.785  0.3289 -0.0679  0.0958
 1151SOL    HW1 4352   7.114   4.496   6.780  0.1191 -0.5071 -0.2445
 1151SOL    HW2 4353   7.026   4.632   6.754  1.1209  0.6963  2.3763
 1152SOL     OW 4354   2.681   4.005   5.618  0.0243 -0.5807  0.4569
 1152SOL    HW1 4355   2.616   3.991   5.692  0.0409 -0.1194  0.5610
 1152SOL    HW2 4356   2.649   3.957   5.536 -1.1914  0.7976  0.0851
 1153SOL     OW 4357   3.776   1.363   5.900  0.0245 -0.1843  0.1814
 1153SOL    HW1 4358   3.846   1.323   5.842 -0.2276  0.4722 -0.5834
 1153SOL    HW2 4359   3.687   1.324   5.878 -0.1250  0.3195 -0.1223
 1154SOL     OW 4360   5.564   0.484   0.100 -0.6174 -0.3394  0.3303
 1154SOL    HW1 4361   5.555   0.485  -0.000  0.0689 -0.8739  0.2495
 1154SOL    HW2 4362   5.579   0.389   0.130 -0.7611 -0.1711  0.9316
 1155SOL     OW 4363   5.564   3.795   0.989  0.3528 -0.4002  0.0756
 1155SOL    HW1 4364   5.514   3.827   0.908 -2.8745 -1.8989  1.3222
 1155SOL    HW2 4365   5.660   3.824   0.982  0.5922 -1.4443 -4.8460
 1156SOL     OW 4366   0.724   4.207   2.662 -0.6317 -0.5942 -0.1004
 1156SOL    HW1 4367   0.774   4.216   2.748  0.5755  0.7022 -0.8867
 1156SOL    HW2 4368   0.789   4.212   2.586 -1.9841  1.8240 -1.2016
 1157SOL     OW 4369   1.910   6.186   5.684  0.2425 -0.0867  0.4425
 1157SOL    HW1 4370   1.978   6.115   5.667 -0.0184 -0.4859  1.0414
 1157SOL    HW2 4371   1.876   6.221   5.597 -0.0002 -1.0524  0.1427
 1158SOL     OW 4372   0.420   0.454   3.155 -0.1289  0.0156 -0.0712
 1158SOL    HW1 4373   0.369   0.537   3.134 -0.8414 -0.9136 -2.3442
 1158SOL    HW2 4374   0.413   0.391   3.077  0.2203 -2.2416  1.6406
 1159SOL     OW 4375   5.387   4.358   5.888 -0.3974 -0.5863  0.7394
 1159SOL    HW1 4376   5.371   4.306   5.804  0.8972  0.5282 -0.2213
 1159SOL    HW2 4377   5.381   4.296   5.967 -0.7193 -1.8212 -0.2271
 1160SOL     OW 4378   5.795   2.218   0.541  0.0100  0.0485 -0.5240
 1160SOL    HW1 4379   5.728   2.146   0.561  0.3774 -0.3532 -0.7255
 1160SOL    HW2 4380   5.749   2.307   0.544 -0.4705 -0.1959 -0.3725
 1161SOL     OW 4381   1.799   6.490   2.239  0.3654  0.2307  0.7060
 1161SOL    HW1 4382   1.748   6.410   2.205  0.3929  0.3806  0.3029
 1161SOL    HW2 4383   1.764   6.517   2.328 -1.3414  1.2937 -0.2381
 1162SOL     OW 4384   4.525   4.788   5.832  0.0955 -0.0521  0.7306
 1162SOL    HW1 4385   4.466   4.709   5.816  1.5726 -1.2102  0.7524
 1162SOL    HW2 4386   4.491   4.867   5.780 -1.6774 -0.5494  1.0804
 1163SOL     OW 4387   1.476   5.291   5.056 -0.2439  0.1339 -0.7560
 1163SOL    HW1 4388   1.529   5.256   4.979  1.5443 -0.4782  0.6777
 1163SOL    HW2 4389   1.404   5.225   5.080  1.0652 -1.0938 -0.0816
 1164SOL     OW 4390   6.372   3.111   6.421 -0.4263  0.6965  0.3117
 1164SOL    HW1 4391   6.445   3.177   6.435  0.3288 -0.7341  4.0684
 1164SOL    HW2 4392   6.300   3.126   6.489 -2.4041  0.3514 -1.5903
 1165SOL     OW 4393   4.496   2.162   6.962 -0.4139  0.2156 -0.0011
 1165SOL    HW1 4394   4.513   2.065   6.947 -0.5473 -0.0941  1.6320
 1165SOL    HW2 4395   4.561   2.217   6.909 -0.5338 -0.7473 -1.1726
 1166SOL     OW 4396   0.026   1.377   3.683 -0.1189 -0.0365 -0.3031
 1166SOL    HW1 4397   0.098   1.418   3.739 -0.5579  1.7992 -1.0045
 1166SOL    HW2 4398   0.010   1.283   3.713  1.6252 -0.0545  0.7386
 1167SOL     OW 4399   6.255   0.406   2.117 -0.0183  0.8710 -0.2104
 1167SOL    HW1 4400   6.254   0.307   2.106 -0.1820  0.9021 -0.4773
 1167SOL    HW2 4401   6.177   0.435   2.172  1.1997  0.6427  1.7199
 1168SOL     OW 4402   0.778   1.535   5.014 -1.0142 -0.1454  0.2439
 1168SOL    HW1 4403   0.742   1.479   5.088  1.3300 -0.6171  1.1124
 1168SOL    HW2 4404   0.845   1.600   5.050  0.2388 -0.4282 -1.4283
 1169SOL     OW 4405   0.648   6.851   4.929 -0.0466 -0.0182 -0.2387
 1169SOL    HW1 4406   0.667   6.762   4.887  1.0807  0.5878 -1.0621
 1169SOL    HW2 4407   0.733   6.903   4.936 -0.2926  0.1616  2.2621
 1170SOL     OW 4408   2.066   6.817   6.145  0.3130  0.1202  0.2360
 1170SOL    HW1 4409   2.036   6.722   6.131  4.1944 -1.1687 -0.8537
 1170SOL    HW2 4410   2.076   6.834   6.243  0.6551 -1.0593  0.4333
 1171SOL     OW 4411   4.251   0.577   4.908 -0.0732  0.5006  0.1702
 1171SOL    HW1 4412   4.207   0.521   4.838  0.3801  0.8080 -0.3698
 1171SOL    HW2 4413   4.302   0.518   4.971 -1.3414  0.1303  0.8884
 1172SOL     OW 4414   6.904   2.886   3.022 -0.2394 -0.1651  0.5089
 1172SOL    HW1 4415   6.837   2.960   3.016  0.3760  0.4611  1.1016
 1172SOL    HW2 4416   6.857   2.799   3.036 -0.9707  0.1112 -0.1946
 1173SOL     OW 4417   0.279   0.940   6.825 -0.6092 -0.0949 -0.2686
 1173SOL    HW1 4418   0.256   0.863   6.764 -0.0050 -0.9498  0.5608
 1173SOL    HW2 4419   0.321   0.905   6.908 -1.3422  1.0633  0.6250
 1174SOL     OW 4420   0.306   1.642   2.632  0.0344 -0.0159  0.2671
 1174SOL    HW1 4421   0.322   1.545   2.613  0.2761 -0.1387  1.0396
 1174SOL    HW2 4422   0.214   1.655   2.668  0.0412  0.0173  0.2728
 1175SOL     OW 4423   1.554   0.381   6.952 -0.2576 -0.3722 -0.0504
 1175SOL    HW1 4424   1.653   0.392   6.942 -0.3617  1.2778  0.4209
 1175SOL    HW2 4425   1.533   0.356   7.046 -0.3485  0.6315  0.2140
 1176SOL     OW 4426   0.041   5.482   3.845 -0.3353 -0.0862 -0.1411
 1176SOL    HW1 4427   0.092   5.474   3.760  0.1976  1.9447 -0.0716
 1176SOL    HW2 4428  -0.054   5.508   3.826 -0.2684  0.1742 -0.1141
 1177SOL     OW 4429   1.873   5.611   2.744  0.1391 -0.0839 -0.0988
 1177SOL    HW1 4430   1.816   5.687   2.712 -1.5887 -2.5061 -3.3885
 1177SOL    HW2 4431   1.966   5.623   2.711 -0.3777  0.1613 -1.5760
 1178SOL     OW 4432   4.880   0.794   1.821  0.7065 -0.3564  0.1813
 1178SOL    HW1 4433   4.977   0.770   1.822  1.3558  1.9765 -0.4779
 1178SOL    HW2 4434   4.852   0.821   1.914  0.8148 -0.5582  0.2736
 1179SOL     OW 4435   4.096   2.230   2.664  0.0694 -0.0274 -0.1778
 1179SOL    HW1 4436   4.164   2.265   2.601 -0.1335 -0.0535 -0.4128
 1179SOL    HW2 4437   4.005   2.233   2.621  0.3387 -3.4493 -1.3327
 1180SOL     OW 4438   3.529   4.180   4.961 -0.6534  0.5074  0.4486
 1180SOL    HW1 4439   3.431   4.166   4.946 -0.4890 -1.9081  1.1964
 1180SOL    HW2 4440   3.546   4.192   5.059 -0.4189  3.6034  0.1135
 1181SOL     OW 4441   1.907   3.448   5.178 -0.3624 -0.2785 -0.0367
 1181SOL    HW1 4442   1.991   3.459   5.124 -0.0875 -2.6123 -0.1870
 1181SOL    HW2 4443   1.841   3.394   5.126 -0.9923 -0.6081  1.0790
 1182SOL     OW 4444   6.577   4.556   3.183  0.2558 -0.4412 -0.2595
 1182SOL    HW1 4445   6.482   4.581   3.166  0.2258  1.4598  2.1443
 1182SOL    HW2 4446   6.581   4.496   3.264  1.2326  2.2847  1.8606
 1183SOL     OW 4447   5.496   1.819   6.781  0.1024 -0.1979  0.0178
 1183SOL    HW1 4448   5.499   1.756   6.704  0.6934  0.2461 -0.3297
 1183SOL    HW2 4449   5.585   1.821   6.826 -0.0636 -0.0043  0.3445
 1184SOL     OW 4450   5.484   3.652   5.485 -0.3484 -0.0076 -0.0442
 1184SOL    HW1 4451   5.462   3.647   5.387 -1.6372 -4.6279  0.2232
 1184SOL    HW2 4452   5.400   3.647   5.538  0.4553 -0.7306  1.2207
 1185SOL     OW 4453   2.809   6.290   4.770  0.3953  0.3791 -0.2074
 1185SOL    HW1 4454   2.872   6.298   4.847  1.1280 -1.2162 -0.6079
 1185SOL    HW2 4455   2.726   6.343   4.789  1.1111  1.0818  1.0873
 1186SOL     OW 4456   0.172   3.526   2.671  0.1417 -0.2617 -0.4719
 1186SOL    HW1 4457   0.190   3.549   2.576  0.3254  0.1640 -0.3333
 1186SOL    HW2 4458   0.157   3.609   2.724 -0.6152 -0.5213 -0.2567
 1187SOL     OW 4459   6.062   4.718   2.359  0.0085  0.0380 -0.0644
 1187SOL    HW1 4460   6.031   4.789   2.296 -0.5187  0.5192  0.7172
 1187SOL    HW2 4461   6.003   4.638   2.351  0.5018 -0.2544 -0.8302
 1188SOL     OW 4462   2.317   0.293   3.763  0.3944 -0.0576  0.4087
 1188SOL    HW1 4463   2.319   0.211   3.706 -0.9809  0.3595 -0.2594
 1188SOL    HW2 4464   2.393   0.353   3.737  0.9285 -0.7463  0.3538
 1189SOL     OW 4465   1.257   5.494   2.843  0.3194 -0.3864  0.1497
 1189SOL    HW1 4466   1.272   5.593   2.846  1.3197 -0.5054 -0.5155
 1189SOL    HW2 4467   1.221   5.468   2.754 -0.1346 -0.6039  0.3933
 1190SOL     OW 4468   2.838   0.483   2.644  0.2193  0.0012 -0.5240
 1190SOL    HW1 4469   2.816   0.579   2.624 -0.1326  0.5300  2.0306
 1190SOL    HW2 4470   2.924   0.479   2.695  0.8471 -1.1840 -1.6304
 1191SOL     OW 4471   0.483   4.244   6.119 -0.3236 -0.1117  0.6189
 1191SOL    HW1 4472   0.556   4.253   6.186 -0.6774  1.1819  0.8463
 1191SOL    HW2 4473   0.400   4.288   6.153 -0.4782  0.6798 -0.7128
 1192SOL     OW 4474   1.080   4.625   0.175 -0.0687 -0.1906  0.0817
 1192SOL    HW1 4475   1.129   4.607   0.260 -0.1415 -0.2372  0.1149
 1192SOL    HW2 4476   1.121   4.703   0.127  0.6837 -0.8734 -0.4054
 1193SOL     OW 4477   4.024   0.342   0.360  0.0581 -0.0326 -0.6710
 1193SOL    HW1 4478   3.944   0.401   0.362  0.8791  1.1069  0.0499
 1193SOL    HW2 4479   4.031   0.293   0.447  1.2842  1.5091  0.1469
 1194SOL     OW 4480   4.752   0.859   4.111  0.1058 -0.1880 -0.5044
 1194SOL    HW1 4481   4.797   0.790   4.054 -1.7882 -0.5678 -1.6695
 1194SOL    HW2 4482   4.720   0.934   4.052  0.2562  0.6295  0.4399
 1195SOL     OW 4483   6.705   5.857   1.598  0.1190  0.2676  0.4647
 1195SOL    HW1 4484   6.767   5.780   1.587  0.2562  0.5334 -0.8815
 1195SOL    HW2 4485   6.612   5.824   1.610  0.2408 -0.1089  0.3703
 1196SOL     OW 4486   3.272   3.214   5.435 -0.0374 -0.5916  0.3733
 1196SOL    HW1 4487   3.175   3.234   5.428 -0.2558 -2.0462 -2.5146
 1196SOL    HW2 4488   3.310   3.203   5.343  3.6760  3.2379  1.1488
 1197SOL     OW 4489   4.205   3.206   0.346  0.1988 -0.2380  0.0769
 1197SOL    HW1 4490   4.121   3.255   0.369 -0.0873  0.2443 -1.8216
 1197SOL    HW2 4491   4.190   3.107   0.353 -0.8370 -0.1873 -1.1550
 1198SOL     OW 4492   1.826   3.691   4.007 -0.4607 -0.0418  0.2264
 1198SOL    HW1 4493   1.785   3.644   4.085  0.0344  0.3962  0.7570
 1198SOL    HW2 4494   1.926   3.688   4.015 -0.3615 -0.9527 -0.9631
 1199SOL     OW 4495   7.005   0.076   0.473 -0.7070 -0.0010  0.3673
 1199SOL    HW1 4496   6.996   0.047   0.568 -3.6429  1.5472  0.6627
 1199SOL    HW2 4497   6.995   0.175   0.467  1.8051  0.2592 -1.3827
 1200SOL     OW 4498   2.594   2.290   0.110  0.4054 -0.1019  0.3241
 1200SOL    HW1 4499   2.560   2.279   0.203  0.8646 -1.3503  0.3655
 1200SOL    HW2 4500   2.519   2.278   0.045  0.1372  0.5046  0.5174
 1201SOL     OW 4501   0.000   5.015   5.571 -0.4758  0.1107 -0.0833
 1201SOL    HW1 4502  -0.035   5.085   5.508 -0.2243 -1.1680 -1.7381
 1201SOL    HW2 4503  -0.072   4.988   5.634 -1.2875  0.2739 -0.9072
 1202SOL     OW 4504   1.722   2.051   1.887  0.5085  0.3740 -0.3409
 1202SOL    HW1 4505   1.626   2.053   1.912  0.9551  1.9197  1.5337
 1202SOL    HW2 4506   1.732   2.071   1.789 -1.0315  1.4058 -0.3236
 1203SOL     OW 4507   4.364   1.712   4.825  0.5201 -0.4061  0.0652
 1203SOL    HW1 4508   4.452   1.682   4.861 -0.2194 -1.0891  1.3676
 1203SOL    HW2 4509   4.292   1.648   4.853 -0.2187 -0.6304 -2.1236
 1204SOL     OW 4510   0.999   1.013   4.772 -0.1026 -0.0914  0.4089
 1204SOL    HW1 4511   1.025   0.956   4.850 -0.6675  0.6582  1.1697
 1204SOL    HW2 4512   1.053   0.987   4.692  0.7830 -0.6086  1.1508
 1205SOL     OW 4513   6.190   6.121   1.328  1.0120 -0.1799  0.3468
 1205SOL    HW1 4514   6.178   6.081   1.419 -2.0705  0.4737  0.3485
 1205SOL    HW2 4515   6.177   6.050   1.258  1.7360 -0.3474  0.3694
 1206SOL     OW 4516   2.208   5.262   5.555  0.5470  0.2897 -0.2988
 1206SOL    HW1 4517   2.275   5.195   5.586  1.0385  1.9152  2.4228
 1206SOL    HW2 4518   2.196   5.333   5.624 -3.0594  0.7942 -1.2054
 1207SOL     OW 4519   0.953   2.149   4.051 -0.7557  0.1092  0.6252
 1207SOL    HW1 4520   0.908   2.207   4.118 -0.6786 -1.1289  1.8034
 1207SOL    HW2 4521   1.043   2.185   4.029  0.3876 -0.8930  3.3353
 1208SOL     OW 4522   2.733   1.526   1.552  0.0690  0.1156 -0.5817
 1208SOL    HW1 4523   2.759   1.615   1.590  0.2720  0.2965 -1.1415
 1208SOL    HW2 4524   2.810   1.487   1.503  0.9400 -1.6674  2.0021
 1209SOL     OW 4525   5.580   2.494   1.052 -0.7109  0.1610 -0.0262
 1209SOL    HW1 4526   5.525   2.564   1.098 -0.0044  1.1327 -0.6430
 1209SOL    HW2 4527   5.548   2.482   0.958  1.5179  2.4262 -1.1885
 1210SOL     OW 4528   3.242   6.824   4.623  0.2832 -0.1006 -0.5833
 1210SOL    HW1 4529   3.197   6.907   4.593 -0.1809  0.3384  1.2211
 1210SOL    HW2 4530   3.314   6.799   4.558  0.9031  2.1014 -0.8109
 1211SOL     OW 4531   4.637   0.940   2.936  0.2934 -0.2633  0.2169
 1211SOL    HW1 4532   4.546   0.898   2.927  0.4091 -0.4634 -0.0633
 1211SOL    HW2 4533   4.684   0.902   3.015  0.3935 -0.6677 -0.0304
 1212SOL     OW 4534   0.630   2.150   0.067  0.0555  0.5267  0.6172
 1212SOL    HW1 4535   0.596   2.149   0.161  0.2759 -1.2930  0.7086
 1212SOL    HW2 4536   0.559   2.118   0.005  0.9597 -1.6039  0.6073
 1213SOL     OW 4537   0.231   5.630   1.896  0.1577  0.1808  0.2533
 1213SOL    HW1 4538   0.165   5.612   1.823  1.2907  0.2223 -0.8199
 1213SOL    HW2 4539   0.266   5.543   1.932  0.1407  0.1677  0.2371
 1214SOL     OW 4540   4.258   4.569   5.426  0.4681  0.3705  0.3776
 1214SOL    HW1 4541   4.237   4.597   5.520 -1.0900 -0.3680  0.2895
 1214SOL    HW2 4542   4.281   4.471   5.425  0.7017  0.4265  0.0149
 1215SOL     OW 4543   4.603   0.188   0.346  0.1512  0.4757  0.1044
 1215SOL    HW1 4544   4.635   0.282   0.350  1.8563 -0.0585 -0.3095
 1215SOL    HW2 4545   4.607   0.155   0.251  0.1383 -0.2109  0.3332
 1216SOL     OW 4546   1.973   4.507   3.218 -0.2723 -0.2362 -0.9080
 1216SOL    HW1 4547   1.974   4.455   3.303  0.0647  1.5469  0.2244
 1216SOL    HW2 4548   1.954   4.603   3.238 -0.2286  0.2131 -2.8628
 1217SOL     OW 4549   1.282   1.135   3.441 -0.4081  0.2369 -0.3007
 1217SOL    HW1 4550   1.318   1.220   3.404  1.0803  0.4145  1.4000
 1217SOL    HW2 4551   1.263   1.072   3.367  3.4167  0.1732 -1.4762
 1218SOL     OW 4552   3.059   1.545   5.453 -0.2501 -0.2621  0.1161
 1218SOL    HW1 4553   2.972   1.569   5.495 -1.0642  1.1455 -2.1631
 1218SOL    HW2 4554   3.112   1.629   5.437  0.6180 -0.8933 -0.3919
 1219SOL     OW 4555   5.802   6.682   5.841  0.2932 -0.2614 -0.3069
 1219SOL    HW1 4556   5.845   6.630   5.915 -1.0641  0.9781  1.4256
 1219SOL    HW2 4557   5.848   6.771   5.831  0.4849 -0.4281 -1.0016
 1220SOL     OW 4558   1.822   3.473   5.724  0.2531 -0.4119 -0.0533
 1220SOL    HW1 4559   1.772   3.458   5.638 -0.0033  0.2099 -0.0144
 1220SOL    HW2 4560   1.914   3.506   5.704 -0.2470  1.0357 -0.0741
 1221SOL     OW 4561   1.253   5.715   4.104 -0.3196 -0.0980  0.7828
 1221SOL    HW1 4562   1.194   5.731   4.183 -1.5999  1.3300 -0.3899
 1221SOL    HW2 4563   1.196   5.689   4.026  1.0458 -3.1024  0.6659
 1222SOL     OW 4564   5.958   3.814   6.535  0.5370 -0.5308 -0.5714
 1222SOL    HW1 4565   5.969   3.728   6.585 -0.9774 -0.8829 -0.8139
 1222SOL    HW2 4566   5.924   3.795   6.442 -2.3161  0.4114  0.1804
 1223SOL     OW 4567   3.480   6.366   6.863  0.1708  0.3176 -0.1516
 1223SOL    HW1 4568   3.428   6.447   6.835  0.2903  0.1430 -0.9156
 1223SOL    HW2 4569   3.578   6.382   6.847  0.3194  0.4836  0.8721
 1224SOL     OW 4570   1.406   2.085   3.168  0.3486  0.8332  0.3952
 1224SOL    HW1 4571   1.389   2.169   3.116  0.7942  1.8780  1.8804
 1224SOL    HW2 4572   1.409   2.007   3.105  2.4763  2.2186 -1.4043
 1225SOL     OW 4573   4.049   0.402   3.732  0.5276 -0.4333  0.2036
 1225SOL    HW1 4574   4.012   0.377   3.821  1.0256 -0.5432  0.3828
 1225SOL    HW2 4575   3.989   0.470   3.689  0.8030  0.3780  1.0558
 1226SOL     OW 4576   3.587   4.803   1.635 -0.3389  0.3150 -0.7031
 1226SOL    HW1 4577   3.573   4.729   1.701 -0.5917  0.1965 -0.8870
 1226SOL    HW2 4578   3.558   4.772   1.544 -1.9689  1.1841 -0.5016
 1227SOL     OW 4579   3.904   6.400   1.092 -0.4094  0.2715  0.6231
 1227SOL    HW1 4580   3.862   6.464   1.028  0.7837 -0.0370 -0.5091
 1227SOL    HW2 4581   3.977   6.446   1.143  0.2907 -0.0900 -0.0233
 1228SOL     OW 4582   0.257   5.961   0.756  0.0382 -0.3070 -0.0965
 1228SOL    HW1 4583   0.353   5.985   0.765  0.1613 -1.1689  1.0366
 1228SOL    HW2 4584   0.200   6.042   0.772  0.5631  0.2847 -1.1135
 1229SOL     OW 4585   4.733   0.399   2.690  0.0665 -0.2983  0.4846
 1229SOL    HW1 4586   4.825   0.433   2.670  0.1364 -0.1328  1.0641
 1229SOL    HW2 4587   4.740   0.323   2.755 -0.2016 -0.3408  0.4641
 1230SOL     OW 4588   1.845   6.283   0.598 -0.6591  0.3284  1.0101
 1230SOL    HW1 4589   1.915   6.342   0.559 -1.6724  0.1980 -1.1582
 1230SOL    HW2 4590   1.884   6.228   0.671  1.7599 -0.4181 -0.7446
 1231SOL     OW 4591   0.558   3.433   1.278  0.3037 -0.8365  0.1194
 1231SOL    HW1 4592   0.646   3.406   1.317  0.5068  0.8797  0.9810
 1231SOL    HW2 4593   0.501   3.474   1.349 -0.0855  0.6222 -0.9697
 1232SOL     OW 4594   6.335   5.705   5.868 -0.1755  0.2389  0.2368
 1232SOL    HW1 4595   6.397   5.648   5.923  1.2930  0.8177 -0.7493
 1232SOL    HW2 4596   6.371   5.712   5.774 -2.4276 -0.4494 -0.7476
 1233SOL     OW 4597   0.205   4.710   0.202 -0.2789 -0.0152  0.0769
 1233SOL    HW1 4598   0.285   4.661   0.239 -0.1449  1.3797  1.7781
 1233SOL    HW2 4599   0.218   4.808   0.213 -1.7917  0.2915 -0.5964
 1234SOL     OW 4600   5.459   2.795   1.149 -0.5773 -0.1566 -0.1361
 1234SOL    HW1 4601   5.515   2.860   1.200 -1.0756  0.0132  0.2054
 1234SOL    HW2 4602   5.385   2.761   1.208 -0.7650 -0.4661 -0.5414
 1235SOL     OW 4603   1.974   6.687   6.953  0.3175 -0.6610  0.3663
 1235SOL    HW1 4604   2.032   6.769   6.949  1.8151 -1.6226  1.4729
 1235SOL    HW2 4605   2.009   6.618   6.891  2.1809 -2.3094  3.0469
 1236SOL     OW 4606   1.647   5.026   4.513 -0.0122 -0.2306  0.0188
 1236SOL    HW1 4607   1.682   4.937   4.484 -0.1465 -0.1501 -0.3954
 1236SOL    HW2 4608   1.714   5.070   4.574  0.8760  0.1591 -1.1998
 1237SOL     OW 4609   0.589   2.404   1.780 -0.4048 -0.1498  0.5417
 1237SOL    HW1 4610   0.505   2.389   1.831 -0.1053 -1.2412  0.7608
 1237SOL    HW2 4611   0.668   2.381   1.837  0.0966  1.5243  0.5723
 1238SOL     OW 4612   4.057   6.030   4.746  0.6420 -0.1593  0.2831
 1238SOL    HW1 4613   4.139   5.973   4.744  0.5934 -0.2193  0.0096
 1238SOL    HW2 4614   4.077   6.117   4.791  1.0628  0.1570 -0.4947
 1239SOL     OW 4615   5.978   5.208   3.446  0.0837  0.5106  0.2545
 1239SOL    HW1 4616   5.996   5.111   3.431  1.1180  0.7567 -0.1834
 1239SOL    HW2 4617   6.020   5.262   3.373 -0.6051  1.2849  0.4113
 1240SOL     OW 4618   1.728   2.765   2.015  0.0454  0.6355 -0.3309
 1240SOL    HW1 4619   1.814   2.754   2.066  0.8905  1.5006 -1.4965
 1240SOL    HW2 4620   1.726   2.700   1.939  0.1650  1.2941 -0.9140
 1241SOL     OW 4621   0.060   6.994   6.539 -0.8585  0.0666  0.1610
 1241SOL    HW1 4622  -0.000   7.072   6.558 -0.8567  0.7965 -2.3933
 1241SOL    HW2 4623   0.016   6.932   6.474  0.6983  0.0939 -0.9878
 1242SOL     OW 4624   4.972   4.794   2.573  0.2372  0.1336  0.0841
 1242SOL    HW1 4625   5.061   4.784   2.528  0.5780 -0.4725  0.8639
 1242SOL    HW2 4626   4.942   4.705   2.607 -1.7227 -0.1265 -2.0665
 1243SOL     OW 4627   3.517   5.386   6.465 -0.2306  0.2706  0.0996
 1243SOL    HW1 4628   3.490   5.293   6.440 -0.2511  0.3311 -0.1069
 1243SOL    HW2 4629   3.438   5.447   6.455 -0.1754  0.3385  0.0790
 1244SOL     OW 4630   5.140   5.692   6.786 -0.0690  0.0264 -0.2406
 1244SOL    HW1 4631   5.064   5.628   6.798  0.8256 -1.3090 -1.3867
 1244SOL    HW2 4632   5.217   5.664   6.844 -0.3992  1.3416  0.8805
 1245SOL     OW 4633   3.556   6.970   6.545 -0.3517  0.0732 -0.1199
 1245SOL    HW1 4634   3.614   7.013   6.615  0.2084 -0.9930  0.0909
 1245SOL    HW2 4635   3.528   6.879   6.577  0.1882 -0.5671 -1.4158
 1246SOL     OW 4636   4.331   6.204   4.148 -0.2521 -0.3738 -0.1124
 1246SOL    HW1 4637   4.329   6.105   4.158  1.5336 -0.3252  1.4255
 1246SOL    HW2 4638   4.312   6.247   4.237  1.0204  0.5804 -0.2695
 1247SOL     OW 4639   0.064   4.990   5.307  0.2966  0.6984 -0.1879
 1247SOL    HW1 4640  -0.033   4.992   5.283  0.0625 -0.7237  0.5474
 1247SOL    HW2 4641   0.074   4.959   5.402  1.4749  0.8609 -0.2444
 1248SOL     OW 4642   1.334   1.123   2.491 -0.0166 -0.1060 -0.1570
 1248SOL    HW1 4643   1.320   1.035   2.538  0.1670 -0.2198 -0.3145
 1248SOL    HW2 4644   1.409   1.114   2.426  1.3438  0.6968  1.2267
 1249SOL     OW 4645   3.433   6.159   1.965 -0.1350  0.0724  0.9466
 1249SOL    HW1 4646   3.497   6.103   2.017 -1.1682  0.0546  2.2635
 1249SOL    HW2 4647   3.360   6.191   2.026 -1.2770  0.2394 -0.4581
 1250SOL     OW 4648   3.944   4.324   5.841 -0.7052  0.5953  0.2519
 1250SOL    HW1 4649   3.961   4.316   5.743 -1.1488 -2.9271  0.3401
 1250SOL    HW2 4650   4.026   4.296   5.891 -1.0475  0.6725  0.8641
 1251SOL     OW 4651   3.990   6.531   3.546 -0.3512  0.3718  0.2318
 1251SOL    HW1 4652   3.997   6.620   3.591 -1.0311  0.7782 -0.4520
 1251SOL    HW2 4653   3.971   6.461   3.615  0.2616  0.7410  0.7851
 1252SOL     OW 4654   6.124   5.697   5.283 -0.0899  0.3007 -0.0790
 1252SOL    HW1 4655   6.086   5.682   5.375  1.3063  0.8071  0.5990
 1252SOL    HW2 4656   6.197   5.631   5.266  0.9057  1.3951 -0.0985
 1253SOL     OW 4657   0.451   3.363   5.324  0.2220  0.1595 -0.1254
 1253SOL    HW1 4658   0.513   3.442   5.321 -0.2572  0.6904  2.1866
 1253SOL    HW2 4659   0.502   3.281   5.298  2.2299  0.4506  2.4678
 1254SOL     OW 4660   2.357   1.766   5.253  0.2577  0.5824  0.9638
 1254SOL    HW1 4661   2.281   1.710   5.287 -0.7864  2.3760  1.7072
 1254SOL    HW2 4662   2.335   1.801   5.162  1.2774 -0.8258  0.1237
 1255SOL     OW 4663   3.193   6.119   4.978 -0.2050  0.1730  0.2054
 1255SOL    HW1 4664   3.255   6.180   4.928 -1.9704  0.2194 -2.1048
 1255SOL    HW2 4665   3.165   6.044   4.918 -1.0568 -0.7954  1.7543
 1256SOL     OW 4666   2.525   0.787   1.494  0.1988 -0.4260 -0.0831
 1256SOL    HW1 4667   2.553   0.691   1.490  1.3870 -0.2529  2.3869
 1256SOL    HW2 4668   2.455   0.799   1.564  2.2034  0.8987  1.8358
 1257SOL     OW 4669   1.904   1.104   3.796  0.6624  0.1312  0.2050
 1257SOL    HW1 4670   1.971   1.062   3.735 -1.1522  0.5035 -2.2197
 1257SOL    HW2 4671   1.860   1.181   3.749 -0.8854  0.4149  1.9903
 1258SOL     OW 4672   2.005   1.376   0.935  0.7882 -0.2510  0.0834
 1258SOL    HW1 4673   1.931   1.428   0.978 -0.2888 -1.6234 -0.0488
 1258SOL    HW2 4674   2.091   1.428   0.941 -0.2670  1.5968 -0.1963
 1259SOL     OW 4675   3.049   4.060   6.583  0.5042  0.0838  0.4181
 1259SOL    HW1 4676   3.139   4.034   6.549  2.1996  0.7388  3.9259
 1259SOL    HW2 4677   3.006   3.980   6.626  1.8821  0.7979  3.4212
 1260SOL     OW 4678   3.565   0.470   2.613 -0.0785 -0.3489 -0.0858
 1260SOL    HW1 4679   3.653   0.451   2.570 -0.6480  0.1417 -1.5187
 1260SOL    HW2 4680   3.494   0.415   2.568 -0.8192  0.7933 -0.3336
 1261SOL     OW 4681   6.803   2.893   4.579  0.4308  0.2805  0.3592
 1261SOL    HW1 4682   6.835   2.988   4.580 -0.2951  0.5468 -0.3445
 1261SOL    HW2 4683   6.842   2.846   4.500 -0.1004  0.3203  0.0681
 1262SOL     OW 4684   2.678   4.492   0.221  0.1639  0.6727 -0.1820
 1262SOL    HW1 4685   2.668   4.590   0.242  0.9877  0.9132 -0.8356
 1262SOL    HW2 4686   2.648   4.475   0.127  1.4723  0.6044 -0.6132
 1263SOL     OW 4687   5.420   0.796   6.638  0.1780  0.8554  0.0709
 1263SOL    HW1 4688   5.355   0.731   6.676 -0.0054  0.0799 -1.4827
 1263SOL    HW2 4689   5.512   0.756   6.641  0.4562  1.5528  1.3705
 1264SOL     OW 4690   6.054   0.777   5.748 -0.5064 -0.7640 -0.0538
 1264SOL    HW1 4691   6.062   0.805   5.653  0.5137  0.7816  0.4586
 1264SOL    HW2 4692   5.967   0.808   5.785 -0.1878  0.1087 -0.0252
 1265SOL     OW 4693   6.700   2.612   6.045  0.2496 -0.3644  0.7054
 1265SOL    HW1 4694   6.645   2.633   6.126 -0.1612 -1.7713  0.8252
 1265SOL    HW2 4695   6.781   2.670   6.044 -0.4164  0.6142  1.4004
 1266SOL     OW 4696   3.675   1.759   3.347 -0.2434  0.0190 -0.3163
 1266SOL    HW1 4697   3.617   1.834   3.378 -0.0547 -0.8455  2.4304
 1266SOL    HW2 4698   3.760   1.795   3.309 -0.3340  1.2150  0.5735
 1267SOL     OW 4699   4.252   5.050   1.021 -0.7119 -0.3501 -0.1427
 1267SOL    HW1 4700   4.325   5.066   1.087 -0.6467 -0.6343 -0.1446
 1267SOL    HW2 4701   4.278   4.976   0.960 -1.3001 -0.9353  0.3022
 1268SOL     OW 4702   6.876   5.829   2.516 -0.1991  0.5005 -0.2097
 1268SOL    HW1 4703   6.846   5.748   2.566 -3.3633  1.3115 -0.5865
 1268SOL    HW2 4704   6.838   5.828   2.424  0.6879  1.8501 -0.6307
 1269SOL     OW 4705   1.142   1.682   1.590 -0.5013  0.3750  0.7006
 1269SOL    HW1 4706   1.176   1.599   1.633  1.4931  0.7774  0.0097
 1269SOL    HW2 4707   1.106   1.744   1.660 -0.6976 -0.4772  1.3653
 1270SOL     OW 4708   2.975   4.812   5.449 -0.5891  0.2884  0.1280
 1270SOL    HW1 4709   2.998   4.715   5.451 -2.7496 -0.3234 -1.3442
 1270SOL    HW2 4710   2.893   4.829   5.504 -0.7519  1.0989 -0.3295
 1271SOL     OW 4711   3.547   0.169   1.802  0.2301 -0.2007 -0.0045
 1271SOL    HW1 4712   3.466   0.216   1.769  0.9629  0.7123 -0.5407
 1271SOL    HW2 4713   3.530   0.134   1.894 -0.6982  0.1358 -0.0371
 1272SOL     OW 4714   1.164   7.005   5.467  0.2982 -0.3101  0.4415
 1272SOL    HW1 4715   1.068   6.999   5.492 -0.0615  0.1368 -0.7671
 1272SOL    HW2 4716   1.218   7.032   5.547 -1.2011  4.4765  0.1441
 1273SOL     OW 4717   5.823   5.103   3.020  0.0654 -0.1297  0.0793
 1273SOL    HW1 4718   5.800   5.081   3.115  2.3009 -0.3252  0.6343
 1273SOL    HW2 4719   5.749   5.074   2.961 -0.8922 -1.0724  1.6609
 1274SOL     OW 4720   5.915   0.447   5.112 -0.1792 -0.2231 -0.0331
 1274SOL    HW1 4721   5.940   0.514   5.043 -2.3577  0.7729  0.0684
 1274SOL    HW2 4722   5.893   0.360   5.068 -2.8623  0.7641 -0.8787
 1275SOL     OW 4723   4.140   0.506   4.368  0.1536  0.1259  0.1909
 1275SOL    HW1 4724   4.224   0.463   4.337 -0.0481 -0.7818  0.8529
 1275SOL    HW2 4725   4.118   0.583   4.309  1.5407  0.4940  0.1183
 1276SOL     OW 4726   5.206   0.130   1.183  0.1956 -0.1261 -0.3042
 1276SOL    HW1 4727   5.241   0.155   1.273 -0.9183 -0.2366  0.1745
 1276SOL    HW2 4728   5.213   0.031   1.172  0.7272 -0.0683 -0.5186
 1277SOL     OW 4729   0.670   2.967   0.225  0.0560 -0.0527  0.2747
 1277SOL    HW1 4730   0.609   2.976   0.147 -1.8663  1.6073  1.8551
 1277SOL    HW2 4731   0.735   2.892   0.209  0.4857  0.9201 -3.3252
 1278SOL     OW 4732   2.087   0.269   2.954 -0.2044 -0.4300  0.3579
 1278SOL    HW1 4733   2.097   0.367   2.936 -0.2806 -0.3303  0.8257
 1278SOL    HW2 4734   2.086   0.218   2.868  0.2955 -0.0621  0.1285
 1279SOL     OW 4735   5.445   4.066   4.370 -0.8223 -0.2286  0.2360
 1279SOL    HW1 4736   5.363   4.094   4.419  0.6199 -0.7463  3.2256
 1279SOL    HW2 4737   5.438   3.970   4.345 -0.8049 -0.5362  1.3439
 1280SOL     OW 4738   0.869   2.061   0.164 -0.3631 -0.2502  0.5584
 1280SOL    HW1 4739   0.918   2.125   0.223 -0.3093  1.0797 -0.8668
 1280SOL    HW2 4740   0.790   2.107   0.123  0.4708 -0.6129 -1.6008
 1281SOL     OW 4741   2.256   4.021   3.181 -0.0459 -0.8402 -0.7237
 1281SOL    HW1 4742   2.220   3.986   3.267 -1.7419 -1.0087 -1.4732
 1281SOL    HW2 4743   2.325   4.091   3.200 -2.0672  0.8759  0.8289
 1282SOL     OW 4744   1.831   2.247   4.042 -0.0718  0.3730 -0.2108
 1282SOL    HW1 4745   1.750   2.256   3.984 -0.9502  0.6008  1.0077
 1282SOL    HW2 4746   1.913   2.261   3.987 -0.9091  1.5814 -1.2045
 1283SOL     OW 4747   1.396   6.712   1.672  0.0153  0.5174  0.2372
 1283SOL    HW1 4748   1.358   6.644   1.610  0.8642 -0.6151  0.9191
 1283SOL    HW2 4749   1.360   6.696   1.764  0.3580  0.8946  0.4398
 1284SOL     OW 4750   2.233   1.946   1.918  0.0662  0.4385  0.0864
 1284SOL    HW1 4751   2.192   1.981   2.003 -0.0224  0.8502 -0.1219
 1284SOL    HW2 4752   2.191   1.992   1.840  0.0609 -0.0299 -0.1889
 1285SOL     OW 4753   3.277   1.542   6.846  0.4243  0.0852  0.3030
 1285SOL    HW1 4754   3.193   1.594   6.859  1.6376  1.7687  1.8763
 1285SOL    HW2 4755   3.265   1.449   6.882 -1.3243 -0.3526 -1.2704
 1286SOL     OW 4756   3.229   3.143   1.056 -0.3533  0.6529  0.6598
 1286SOL    HW1 4757   3.165   3.068   1.040  0.8529 -0.1294 -0.7430
 1286SOL    HW2 4758   3.194   3.201   1.129 -2.9017  0.5707 -0.4020
 1287SOL     OW 4759   6.709   2.660   2.968 -0.1568  0.0573 -0.1846
 1287SOL    HW1 4760   6.682   2.648   2.873  3.3391  1.3240 -1.5264
 1287SOL    HW2 4761   6.770   2.586   2.996 -1.7391 -0.7329  1.4450
 1288SOL     OW 4762   2.587   6.381   0.050 -0.4175 -0.1285 -0.0249
 1288SOL    HW1 4763   2.487   6.380   0.047 -0.4723  1.4800  0.2940
 1288SOL    HW2 4764   2.617   6.428   0.133  0.5447  1.8306 -1.3986
 1289SOL     OW 4765   1.748   1.821   0.621  0.0198 -0.3534 -0.0199
 1289SOL    HW1 4766   1.830   1.840   0.676 -0.2239  0.5187  0.0647
 1289SOL    HW2 4767   1.758   1.865   0.531 -0.3497 -0.2472 -0.0109
 1290SOL     OW 4768   2.339   5.363   1.872  0.0932  0.8772  0.2486
 1290SOL    HW1 4769   2.239   5.365   1.861  0.0671  0.4974  0.4283
 1290SOL    HW2 4770   2.381   5.414   1.796 -0.2804  2.0309  0.7867
 1291SOL     OW 4771   3.691   2.129   5.690  0.2245 -1.0131  0.1113
 1291SOL    HW1 4772   3.737   2.046   5.722 -0.1016 -1.3559 -0.2995
 1291SOL    HW2 4773   3.602   2.137   5.733  0.2799 -0.8485  0.1933
 1292SOL     OW 4774   6.805   5.971   2.770  0.1458  0.4436 -0.5078
 1292SOL    HW1 4775   6.816   5.919   2.685 -2.9420  0.3618 -0.9938
 1292SOL    HW2 4776   6.807   5.908   2.848 -0.3732 -0.0001 -0.8391
 1293SOL     OW 4777   6.111   3.642   2.743 -0.3885  0.2683  0.2005
 1293SOL    HW1 4778   6.145   3.659   2.835  2.8978 -2.1517 -0.3684
 1293SOL    HW2 4779   6.036   3.575   2.747  0.1973 -0.3616  1.1237
 1294SOL     OW 4780   2.821   3.238   1.351  0.1018  0.2312  0.7269
 1294SOL    HW1 4781   2.723   3.219   1.345  0.3449 -0.9492  0.4118
 1294SOL    HW2 4782   2.851   3.229   1.446  0.4250 -2.1477  0.4441
 1295SOL     OW 4783   3.569   1.050   6.170 -0.0818  0.2170 -0.0592
 1295SOL    HW1 4784   3.542   0.959   6.201 -2.0173  1.2021  1.3053
 1295SOL    HW2 4785   3.520   1.074   6.086  0.2390  0.1174 -0.2789
 1296SOL     OW 4786   4.155   5.135   6.101  0.5933  0.0320 -0.1287
 1296SOL    HW1 4787   4.183   5.207   6.163 -1.6491  0.7527  0.1381
 1296SOL    HW2 4788   4.151   5.171   6.007 -1.3400  0.5707  0.1162
 1297SOL     OW 4789   1.446   3.577   0.142 -0.0909  0.6003 -0.6296
 1297SOL    HW1 4790   1.488   3.641   0.078  1.5795 -0.2405 -0.4299
 1297SOL    HW2 4791   1.443   3.486   0.102  0.6577  0.1288  0.3352
 1298SOL     OW 4792   5.196   2.517   0.193  0.7902 -0.5162  0.2258
 1298SOL    HW1 4793   5.261   2.544   0.122 -0.2896 -0.1883 -0.6665
 1298SOL    HW2 4794   5.201   2.419   0.208  2.8241 -0.2912  1.5516
 1299SOL     OW 4795   5.419   1.128   1.660 -0.3623 -0.4417 -0.4935
 1299SOL    HW1 4796   5.471   1.079   1.590 -2.0172 -1.3226 -1.1647
 1299SOL    HW2 4797   5.475   1.138   1.742  1.1946 -0.4554 -1.5115
 1300SOL     OW 4798   0.225   4.722   5.627  0.8049  0.2664  0.3946
 1300SOL    HW1 4799   0.241   4.821   5.632  3.4119 -0.0525 -0.5733
 1300SOL    HW2 4800   0.183   4.692   5.713 -0.2281  2.2029  0.6350
 1301SOL     OW 4801   3.259   5.269   2.109 -0.2659 -0.1494 -0.2836
 1301SOL    HW1 4802   3.167   5.231   2.101  0.1236 -0.8425 -2.1685
 1301SOL    HW2 4803   3.282   5.280   2.205 -2.6617  0.9880  0.2349
 1302SOL     OW 4804   0.855   4.830   1.303 -0.4430  0.1627  1.3004
 1302SOL    HW1 4805   0.950   4.861   1.296 -0.5488  0.3193  0.5097
 1302SOL    HW2 4806   0.833   4.814   1.399 -0.0295  1.3994  1.6167
 1303SOL     OW 4807   0.891   6.777   5.127 -0.2674  0.0372  0.1968
 1303SOL    HW1 4808   0.884   6.877   5.136  2.1882  0.1077  2.7707
 1303SOL    HW2 4809   0.952   6.754   5.051  1.6889  0.6901  1.4995
 1304SOL     OW 4810   3.491   2.050   0.293 -0.0162  0.8087  0.3533
 1304SOL    HW1 4811   3.578   2.085   0.327  1.5766 -0.6822 -1.8588
 1304SOL    HW2 4812   3.471   1.961   0.336  0.7030  0.1330 -0.6553
 1305SOL     OW 4813   0.172   4.109   5.259  0.1099 -0.3359  0.3362
 1305SOL    HW1 4814   0.092   4.151   5.300  0.7557  0.1872  1.0868
 1305SOL    HW2 4815   0.164   4.112   5.159 -0.0563  1.1953  0.3751
 1306SOL     OW 4816   4.946   2.531   0.093  0.0864 -0.2870  0.2349
 1306SOL    HW1 4817   5.023   2.529   0.157 -0.0387 -1.1557  0.3850
 1306SOL    HW2 4818   4.977   2.503   0.002  0.0978  0.1210  0.1121
 1307SOL     OW 4819   6.927   3.840   5.995  0.0375 -0.2281  0.2931
 1307SOL    HW1 4820   6.840   3.833   5.945  0.5007  0.2051 -0.6087
 1307SOL    HW2 4821   6.933   3.930   6.038  0.1560 -0.1579  0.1300
 1308SOL     OW 4822   0.846   4.758   0.074  0.8696 -0.0649 -0.5389
 1308SOL    HW1 4823   0.808   4.722  -0.011  1.3025  0.0478 -0.7825
 1308SOL    HW2 4824   0.921   4.699   0.106  1.5696  0.5984 -0.9320
 1309SOL     OW 4825   3.970   2.941   1.330 -0.3609  0.0252  0.1525
 1309SOL    HW1 4826   3.927   2.851   1.340 -1.9159  0.6571 -0.5049
 1309SOL    HW2 4827   3.980   2.982   1.421  3.2732 -1.9971  0.8734
 1310SOL     OW 4828   2.894   0.199   1.332  0.0741 -0.0772 -0.3074
 1310SOL    HW1 4829   2.980   0.215   1.380 -0.2346  0.0615  0.2064
 1310SOL    HW2 4830   2.906   0.125   1.266  0.5963 -0.0345 -0.2665
 1311SOL     OW 4831   5.739   6.719   5.127  0.7356 -0.6187  0.1223
 1311SOL    HW1 4832   5.652   6.709   5.176  0.3135 -0.1232 -0.5119
 1311SOL    HW2 4833   5.815   6.710   5.192  0.3261 -3.6279  0.3232
 1312SOL     OW 4834   3.762   3.749   7.001 -0.3029 -0.0385 -0.1642
 1312SOL    HW1 4835   3.779   3.656   7.035 -1.2413 -0.0405  0.3254
 1312SOL    HW2 4836   3.667   3.774   7.018 -0.1202  0.9298 -0.5076
 1313SOL     OW 4837   1.516   0.140   1.284 -0.3707  0.5756 -0.6030
 1313SOL    HW1 4838   1.610   0.164   1.308 -0.7969  0.4614  1.3130
 1313SOL    HW2 4839   1.508   0.040   1.275 -0.5319  0.5076  0.2748
 1314SOL     OW 4840   2.767   0.848   5.874  0.5243  0.1692 -0.1618
 1314SOL    HW1 4841   2.757   0.804   5.784  0.7893 -0.9936  0.3604
 1314SOL    HW2 4842   2.699   0.812   5.937  1.4232 -0.2890  0.5743
 1315SOL     OW 4843   2.624   0.154   1.431 -0.2961 -0.7357 -0.3888
 1315SOL    HW1 4844   2.695   0.212   1.472 -1.7614  0.9613 -0.1219
 1315SOL    HW2 4845   2.626   0.165   1.331 -0.6186 -0.1671 -0.3330
 1316SOL     OW 4846   3.023   2.875   0.400 -0.2995  0.3149 -0.5689
 1316SOL    HW1 4847   3.015   2.787   0.354  0.0737  0.1215 -0.2727
 1316SOL    HW2 4848   2.973   2.873   0.486  1.4009 -0.3316  0.4627
 1317SOL     OW 4849   2.359   6.341   4.471  0.3259 -0.3953 -0.1099
 1317SOL    HW1 4850   2.392   6.288   4.549  0.7561  1.7152  1.2313
 1317SOL    HW2 4851   2.420   6.326   4.393  0.2720 -2.0204  0.1194
 1318SOL     OW 4852   0.068   6.472   1.601  0.2733  0.4521 -0.2467
 1318SOL    HW1 4853   0.156   6.471   1.554 -0.0004  0.6628 -0.7758
 1318SOL    HW2 4854   0.021   6.384   1.588  1.0085 -0.2039  1.2334
 1319SOL     OW 4855   6.710   4.690   4.248 -0.3795 -0.1427  0.0058
 1319SOL    HW1 4856   6.642   4.636   4.197  0.9868  0.0728 -2.1720
 1319SOL    HW2 4857   6.737   4.639   4.330 -1.0799 -1.5349 -0.5717
 1320SOL     OW 4858   0.831   0.039   1.792 -0.0631 -0.0989 -0.9269
 1320SOL    HW1 4859   0.920  -0.006   1.803  0.1612  0.7451  1.1510
 1320SOL    HW2 4860   0.774  -0.015   1.730  0.5395 -2.7288  0.6533
 1321SOL     OW 4861   1.312   3.731   6.343  0.0417 -0.0612 -0.1443
 1321SOL    HW1 4862   1.289   3.808   6.402  2.5909  0.2358  0.5993
 1321SOL    HW2 4863   1.267   3.648   6.377  1.0683  0.1921  1.9916
 1322SOL     OW 4864   6.219   4.835   2.900  0.3075 -0.5565  0.3849
 1322SOL    HW1 4865   6.281   4.912   2.885 -0.4008 -0.0448 -0.0274
 1322SOL    HW2 4866   6.201   4.789   2.813  0.8475 -1.2901  0.6575
 1323SOL     OW 4867   2.175   3.503   1.331 -0.4043 -0.5960  0.5971
 1323SOL    HW1 4868   2.200   3.418   1.378  0.6786  0.0364  1.2102
 1323SOL    HW2 4869   2.218   3.504   1.241  1.6304  0.3202  1.5031
 1324SOL     OW 4870   6.560   6.903   3.082  0.0745 -0.7786  0.1774
 1324SOL    HW1 4871   6.657   6.920   3.098 -0.0210 -1.0843  1.1362
 1324SOL    HW2 4872   6.540   6.806   3.099  0.0170 -1.2355 -2.1555
 1325SOL     OW 4873   4.803   6.967   5.968  0.2129 -0.3423  0.5374
 1325SOL    HW1 4874   4.810   6.897   5.897  0.5559  0.9644 -0.7563
 1325SOL    HW2 4875   4.884   7.026   5.965 -0.5167  0.7039  0.9516
 1326SOL     OW 4876   2.414   5.744   5.808  0.1155  0.4561 -0.0525
 1326SOL    HW1 4877   2.385   5.719   5.901  0.9994  1.2548  0.4657
 1326SOL    HW2 4878   2.491   5.809   5.814 -0.8533  1.7917 -1.3325
 1327SOL     OW 4879   1.866   4.122   6.329  0.8270 -0.0735  0.0698
 1327SOL    HW1 4880   1.860   4.204   6.273  1.5083  1.3941  2.0489
 1327SOL    HW2 4881   1.861   4.041   6.270  1.6313  1.3660 -2.0906
 1328SOL     OW 4882   0.103   4.486   3.051 -0.4121  0.5976  0.4868
 1328SOL    HW1 4883   0.124   4.473   3.148 -0.6346 -2.1087  0.2315
 1328SOL    HW2 4884   0.014   4.445   3.030  1.3817 -2.5520 -1.5970
 1329SOL     OW 4885   2.707   1.972   6.967  0.2104  0.2880 -0.3195
 1329SOL    HW1 4886   2.689   2.038   7.040  1.2179 -0.1620  0.3536
 1329SOL    HW2 4887   2.783   2.003   6.911  0.6425 -0.2553 -0.0430
 1330SOL     OW 4888   6.635   2.646   2.647 -0.4166 -0.0720 -0.4878
 1330SOL    HW1 4889   6.637   2.689   2.556 -0.3345 -1.1586 -1.0095
 1330SOL    HW2 4890   6.697   2.568   2.648 -1.7819 -1.1777 -0.0675
 1331SOL     OW 4891   6.326   1.531   3.575  0.3176  0.4527 -0.0981
 1331SOL    HW1 4892   6.348   1.618   3.619  1.5904 -0.3826  0.9858
 1331SOL    HW2 4893   6.344   1.538   3.477  1.6025  1.0578  0.1589
 1332SOL     OW 4894   1.326   4.674   3.057 -0.2795  0.3453 -0.0197
 1332SOL    HW1 4895   1.271   4.670   2.974 -0.4784 -0.0107  0.1266
 1332SOL    HW2 4896   1.266   4.685   3.136 -0.1480 -0.1534  0.1509
 1333SOL     OW 4897   3.796   3.662   2.528 -0.2941 -0.4210 -0.6854
 1333SOL    HW1 4898   3.788   3.621   2.619  0.1033 -1.1811 -0.9819
 1333SOL    HW2 4899   3.718   3.722   2.511  0.6355  1.3773  0.9648
 1334SOL     OW 4900   3.309   6.960   3.571 -0.0487  0.1091  0.4232
 1334SOL    HW1 4901   3.238   6.927   3.510  1.3145 -0.8216 -0.7372
 1334SOL    HW2 4902   3.382   7.003   3.518  1.0848 -0.5441  1.3907
 1335SOL     OW 4903   4.250   1.299   5.298 -0.1234  0.3687 -0.3927
 1335SOL    HW1 4904   4.168   1.339   5.257 -0.1672  0.6678 -0.0152
 1335SOL    HW2 4905   4.330   1.352   5.270 -0.0837  0.2090 -0.5823
 1336SOL     OW 4906   2.305   5.150   3.419  0.6230 -0.1862  0.8501
 1336SOL    HW1 4907   2.258   5.064   3.440  0.7122 -1.4299 -3.1014
 1336SOL    HW2 4908   2.396   5.130   3.384  0.4488  1.4073 -0.6734
 1337SOL     OW 4909   1.111   2.548   5.006  0.2119 -0.1433  0.0028
 1337SOL    HW1 4910   1.142   2.477   4.944  0.5404  0.4552 -0.5293
 1337SOL    HW2 4911   1.053   2.613   4.957 -1.1507 -0.7371  0.7746
 1338SOL     OW 4912   4.276   5.643   0.807 -0.6421  0.1872  0.1762
 1338SOL    HW1 4913   4.280   5.707   0.731 -1.9195  0.7715  0.5604
 1338SOL    HW2 4914   4.361   5.648   0.860  0.7917 -1.1337 -1.8584
 1339SOL     OW 4915   3.278   4.997   2.216 -0.3402  0.0411  0.7297
 1339SOL    HW1 4916   3.252   5.072   2.155  0.6551 -0.4982 -0.4111
 1339SOL    HW2 4917   3.228   5.005   2.302  0.7886  2.8164  1.2261
 1340SOL     OW 4918   7.021   5.670   5.680 -0.2704 -0.1107 -0.5473
 1340SOL    HW1 4919   7.079   5.746   5.652  0.7346 -0.8439 -0.5300
 1340SOL    HW2 4920   6.958   5.700   5.752  0.1525  0.6851 -0.5046
 1341SOL     OW 4921   2.471   2.649   3.880 -0.2888 -0.5193  0.2401
 1341SOL    HW1 4922   2.502   2.636   3.786  0.0029 -2.2708  0.5473
 1341SOL    HW2 4923   2.427   2.739   3.888  0.7762  0.1796 -1.2512
 1342SOL     OW 4924   6.111   1.277   3.324 -0.1054 -0.8040  0.1038
 1342SOL    HW1 4925   6.139   1.309   3.415  3.4684  1.8300 -1.7165
 1342SOL    HW2 4926   6.046   1.342   3.285 -1.1644 -1.6146  0.4682
 1343SOL     OW 4927   2.797   4.883   1.146 -0.1842  0.3297 -0.6253
 1343SOL    HW1 4928   2.840   4.812   1.202 -1.1988 -0.2967 -0.6208
 1343SOL    HW2 4929   2.824   4.871   1.051 -0.7014 -0.3503 -0.6961
 1344SOL     OW 4930   1.920   0.713   1.183 -0.0245 -0.2987 -0.3197
 1344SOL    HW1 4931   1.959   0.760   1.103 -0.0097 -1.6289 -1.1225
 1344SOL    HW2 4932   1.850   0.649   1.152  1.2317 -2.1563  0.5364
 1345SOL     OW 4933   0.107   1.488   5.786 -0.1413 -0.2641 -0.3193
 1345SOL    HW1 4934   0.044   1.508   5.861  1.1510 -0.0688  0.7429
 1345SOL    HW2 4935   0.168   1.566   5.771 -0.0955 -0.4717 -1.2898
 1346SOL     OW 4936   3.038   0.375   4.848  0.7508 -0.4162  0.3428
 1346SOL    HW1 4937   2.944   0.344   4.861  0.4945  0.4476  0.6796
 1346SOL    HW2 4938   3.095   0.299   4.820  0.1316 -1.1457  1.0188
 1347SOL     OW 4939   0.599   5.562   5.561  0.3129 -0.0063 -0.4528
 1347SOL    HW1 4940   0.686   5.611   5.562  0.2537  0.1037  0.4221
 1347SOL    HW2 4941   0.529   5.618   5.606  0.0825 -0.6074 -0.0559
 1348SOL     OW 4942   6.073   0.222   1.431  0.3002 -0.3768 -0.1755
 1348SOL    HW1 4943   6.088   0.270   1.345 -3.4258  2.2445  0.3988
 1348SOL    HW2 4944   5.996   0.159   1.422 -0.2485  0.0496  1.2641
 1349SOL     OW 4945   5.995   1.542   0.669  0.3276  0.0413  0.5509
 1349SOL    HW1 4946   5.942   1.620   0.700  2.2528  2.0254 -0.8653
 1349SOL    HW2 4947   5.940   1.490   0.602 -0.5695  0.8235  0.6502
 1350SOL     OW 4948   3.572   3.289   3.813  0.1769 -0.3305 -0.6090
 1350SOL    HW1 4949   3.570   3.241   3.900  1.8975 -0.7680 -0.7753
 1350SOL    HW2 4950   3.480   3.319   3.789  0.0019  3.1038  3.1629
 1351SOL     OW 4951   0.437   5.181   4.030  0.0728  0.3070 -0.6507
 1351SOL    HW1 4952   0.370   5.141   4.092  0.1588 -0.4890 -1.0562
 1351SOL    HW2 4953   0.401   5.180   3.936  0.0171  1.3295 -0.6498
 1352SOL     OW 4954   6.230   0.929   4.806  0.9194 -0.3191  0.0474
 1352SOL    HW1 4955   6.145   0.970   4.774  2.0404  0.6274 -1.9576
 1352SOL    HW2 4956   6.215   0.834   4.830 -0.3752 -0.7039 -2.0587
 1353SOL     OW 4957   6.983   1.578   2.060 -0.2086 -0.3150  0.0162
 1353SOL    HW1 4958   6.961   1.531   1.975 -2.0291 -0.5282  0.5628
 1353SOL    HW2 4959   7.008   1.673   2.040 -0.3754 -0.4368 -0.7889
 1354SOL     OW 4960   3.368   6.634   0.103  0.5255 -0.0180 -0.2544
 1354SOL    HW1 4961   3.308   6.678   0.170 -1.1854 -0.7968 -1.2037
 1354SOL    HW2 4962   3.392   6.542   0.134 -1.7053 -1.0722 -1.3894
 1355SOL     OW 4963   4.193   6.533   5.976 -0.1260  0.2460  0.4385
 1355SOL    HW1 4964   4.282   6.490   5.989 -0.1977 -0.0443 -0.0088
 1355SOL    HW2 4965   4.163   6.575   6.062  0.6655  0.7758  0.4709
 1356SOL     OW 4966   3.566   3.111   2.342  0.3216  0.9206 -0.0067
 1356SOL    HW1 4967   3.556   3.148   2.249 -0.4060  1.6069  0.3395
 1356SOL    HW2 4968   3.557   3.012   2.339  0.9890  0.8677 -0.7617
 1357SOL     OW 4969   4.770   2.008   2.989  0.5011 -0.3193 -0.3282
 1357SOL    HW1 4970   4.692   1.982   2.932 -0.7713 -0.1279  1.2349
 1357SOL    HW2 4971   4.766   1.957   3.075  2.0751 -0.2354 -0.1867
 1358SOL     OW 4972   0.389   6.795   6.690 -0.3530  0.0449  0.2712
 1358SOL    HW1 4973   0.475   6.844   6.705 -0.0803 -0.6886  1.1742
 1358SOL    HW2 4974   0.390   6.710   6.742 -1.4228 -0.2222 -0.1276
 1359SOL     OW 4975   2.805   1.183   2.073 -0.1041  0.3805  0.0655
 1359SOL    HW1 4976   2.758   1.229   2.149 -1.7168 -2.1475  0.7011
 1359SOL    HW2 4977   2.738   1.153   2.005  0.8524 -1.0911 -0.2639
 1360SOL     OW 4978   1.657   4.715   7.014  0.3279  0.1124  0.1972
 1360SOL    HW1 4979   1.572   4.662   7.014 -0.1554  0.8552 -0.8481
 1360SOL    HW2 4980   1.716   4.683   7.088 -0.4063 -1.1369  0.2763
 1361SOL     OW 4981   1.919   5.768   4.992 -0.2885 -0.0394  0.5466
 1361SOL    HW1 4982   1.874   5.686   4.956  0.1525 -0.1236  0.1828
 1361SOL    HW2 4983   1.970   5.813   4.919  1.2736 -0.6471  1.2123
 1362SOL     OW 4984   4.636   1.032   2.300 -0.1364  0.8837  0.2831
 1362SOL    HW1 4985   4.634   1.083   2.386 -0.8085  2.2322 -0.4944
 1362SOL    HW2 4986   4.575   1.076   2.234  0.2824 -0.1896 -0.8603
 1363SOL     OW 4987   4.859   0.854   2.616 -0.1042  0.3395 -0.1180
 1363SOL    HW1 4988   4.937   0.895   2.663  0.4485 -0.1937 -0.5656
 1363SOL    HW2 4989   4.784   0.920   2.613  0.0983  0.6282  0.8852
 1364SOL     OW 4990   2.401   0.836   1.975 -0.5827  0.2461  0.1125
 1364SOL    HW1 4991   2.411   0.753   1.920  0.2689  1.5208 -1.7952
 1364SOL    HW2 4992   2.329   0.823   2.043 -1.4737 -1.5549 -1.0888
 1365SOL     OW 4993   1.692   2.596   3.947  0.1365 -0.2470 -0.6774
 1365SOL    HW1 4994   1.668   2.505   3.980 -0.9457  0.7556  1.5138
 1365SOL    HW2 4995   1.609   2.649   3.929  0.6951  1.0048  0.2433
 1366SOL     OW 4996   1.086   2.073   2.538 -0.4383  0.4135 -0.3384
 1366SOL    HW1 4997   1.175   2.116   2.521  0.9413 -2.1497  0.0061
 1366SOL    HW2 4998   1.073   1.997   2.474 -1.9501  0.1225  0.2831
 1367SOL     OW 4999   4.850   6.721   3.369 -0.3000  0.0202 -0.3903
 1367SOL    HW1 5000   4.865   6.737   3.466 -0.0967  0.4820 -0.4949
 1367SOL    HW2 5001   4.938   6.711   3.322 -0.4010 -0.4045 -0.4966
 1368SOL     OW 5002   1.108   4.360   2.775 -0.4267  0.1646 -0.0678
 1368SOL    HW1 5003   1.037   4.296   2.807 -1.5305  0.9366 -0.8953
 1368SOL    HW2 5004   1.166   4.313   2.709 -2.6125  0.5460 -2.4224
 1369SOL     OW 5005   1.079   1.549   6.532  0.7536  0.0009  0.6961
 1369SOL    HW1 5006   1.167   1.592   6.553 -0.8388  3.9110  0.1817
 1369SOL    HW2 5007   1.093   1.477   6.463  3.4141  1.4106 -0.4026
 1370SOL     OW 5008   3.649   0.626   1.485  0.0676  0.4804 -0.0126
 1370SOL    HW1 5009   3.724   0.579   1.531  1.0797  0.8009 -1.2590
 1370SOL    HW2 5010   3.683   0.712   1.445 -1.2937  1.3342  0.5858
 1371SOL     OW 5011   1.988   0.462   4.063 -0.4646  0.2439  0.0196
 1371SOL    HW1 5012   2.058   0.399   4.099 -0.7521 -0.0026  0.1516
 1371SOL    HW2 5013   1.940   0.418   3.987 -0.6895  0.2951  0.1335
 1372SOL     OW 5014   3.562   6.042   1.593  0.4139 -0.1448 -0.1025
 1372SOL    HW1 5015   3.493   6.110   1.618  1.9932  1.9475 -1.1535
 1372SOL    HW2 5016   3.652   6.085   1.591  1.5556 -2.4066 -0.3822
 1373SOL     OW 5017   5.247   1.887   4.899 -0.1303  0.0076 -0.3888
 1373SOL    HW1 5018   5.312   1.946   4.852  0.5658  0.6802  1.3241
 1373SOL    HW2 5019   5.236   1.918   4.993 -0.2228 -2.2204  0.4034
 1374SOL     OW 5020   0.602   6.703   2.976 -0.0351  0.3231  0.0448
 1374SOL    HW1 5021   0.693   6.735   2.948 -0.6909  2.3157  0.0376
 1374SOL    HW2 5022   0.560   6.771   3.036 -0.0284 -2.2832  3.2997
 1375SOL     OW 5023   2.637   0.241   2.116 -0.0069  0.0087 -0.3300
 1375SOL    HW1 5024   2.582   0.231   2.199  1.7452 -0.9596  0.7536
 1375SOL    HW2 5025   2.632   0.157   2.062  0.0743  0.0778 -0.4452
 1376SOL     OW 5026   4.355   2.344   3.051 -0.3262 -0.2545 -0.6662
 1376SOL    HW1 5027   4.297   2.382   3.124 -0.3222 -0.4784 -0.5446
 1376SOL    HW2 5028   4.302   2.279   2.998  0.4122 -2.1883  0.8469
 1377SOL     OW 5029   5.717   1.714   5.128  0.1556  0.4907 -0.5177
 1377SOL    HW1 5030   5.750   1.789   5.070  2.0336 -0.6735 -1.0259
 1377SOL    HW2 5031   5.742   1.733   5.223  0.3655  0.6465 -0.6027
 1378SOL     OW 5032   1.987   5.478   5.047  0.1278  0.6028 -0.3474
 1378SOL    HW1 5033   1.965   5.560   5.099 -1.5950 -0.9174  1.4640
 1378SOL    HW2 5034   1.987   5.398   5.108  2.5991 -0.6918 -1.8692
 1379SOL     OW 5035   4.740   2.434   4.400  0.8408  0.5666  0.3370
 1379SOL    HW1 5036   4.643   2.455   4.383  0.7369  0.4778  0.8157
 1379SOL    HW2 5037   4.760   2.447   4.497  0.9962 -0.6622  0.4806
 1380SOL     OW 5038   6.905   2.123   5.747  0.3988 -0.1950 -0.4072
 1380SOL    HW1 5039   6.823   2.179   5.761  2.4524  2.5549  1.9810
 1380SOL    HW2 5040   6.916   2.061   5.824  0.5248 -0.6477 -0.7851
 1381SOL     OW 5041   6.162   0.410   1.220  0.1353 -0.5043 -0.4406
 1381SOL    HW1 5042   6.124   0.375   1.134 -2.0222  1.4239 -0.3658
 1381SOL    HW2 5043   6.220   0.489   1.200  2.5215 -2.1404 -0.3514
 1382SOL     OW 5044   4.904   5.272   1.753 -0.3829  0.2293  0.1215
 1382SOL    HW1 5045   4.862   5.284   1.663  1.4354 -2.0922 -1.1727
 1382SOL    HW2 5046   4.948   5.358   1.780 -1.4400  1.1420 -0.9172
 1383SOL     OW 5047   2.587   0.664   3.327 -0.4178 -0.0944 -0.1632
 1383SOL    HW1 5048   2.528   0.687   3.250 -1.6415 -0.8735  0.5065
 1383SOL    HW2 5049   2.639   0.582   3.306 -0.0508  0.2274 -0.5138
 1384SOL     OW 5050   2.884   5.791   4.773 -0.7827  0.2548 -0.4441
 1384SOL    HW1 5051   2.846   5.837   4.693  0.0910 -1.6880 -2.0437
 1384SOL    HW2 5052   2.984   5.801   4.773 -0.7963  0.4843  0.5752
 1385SOL     OW 5053   2.571   6.958   4.227  0.7131 -0.0881 -0.2312
 1385SOL    HW1 5054   2.592   6.983   4.321 -0.3617  0.1076 -0.0299
 1385SOL    HW2 5055   2.592   7.035   4.166 -1.6386  1.0241  0.2638
 1386SOL     OW 5056   1.948   6.877   2.970  0.6008  0.2413 -0.3683
 1386SOL    HW1 5057   1.988   6.885   2.879 -0.7740 -4.7247 -1.6985
 1386SOL    HW2 5058   1.849   6.862   2.963  0.0393  2.0121  2.1857
 1387SOL     OW 5059   1.387   5.097   3.759  0.5411 -0.0430  0.4408
 1387SOL    HW1 5060   1.430   5.121   3.846  1.8794  0.7443 -0.3945
 1387SOL    HW2 5061   1.337   5.176   3.724 -2.2520 -1.1100  1.6821
 1388SOL     OW 5062   4.720   5.920   6.026 -0.4200 -0.3282  0.1157
 1388SOL    HW1 5063   4.818   5.937   6.016 -0.4091  0.3429  1.1897
 1388SOL    HW2 5064   4.703   5.872   6.113 -1.1351  0.6558  0.5470
 1389SOL     OW 5065   0.588   2.000   2.853 -0.0292  0.0708  0.4390
 1389SOL    HW1 5066   0.496   2.022   2.885  0.1251  1.1442  0.1943
 1389SOL    HW2 5067   0.636   2.085   2.831  1.0030 -0.4784  0.5166
 1390SOL     OW 5068   2.898   5.875   5.938  0.1177  0.3330  0.3630
 1390SOL    HW1 5069   2.953   5.949   5.900 -0.3236  1.6524  2.1321
 1390SOL    HW2 5070   2.854   5.906   6.023 -2.9866 -0.7716 -0.6949
 1391SOL     OW 5071   1.991   2.882   4.928  0.1417 -0.4774  0.1529
 1391SOL    HW1 5072   1.932   2.930   4.863  1.8082  1.0494 -0.3108
 1391SOL    HW2 5073   1.964   2.905   5.021 -2.0817 -2.4576  0.0811
 1392SOL     OW 5074   3.570   3.297   4.769 -0.2693  0.3791  0.2231
 1392SOL    HW1 5075   3.492   3.282   4.707 -0.7595  0.5187  0.7907
 1392SOL    HW2 5076   3.625   3.373   4.735 -1.8664  2.0458  1.1678
 1393SOL     OW 5077   0.571   6.334   1.332 -0.3884  0.4298 -0.3014
 1393SOL    HW1 5078   0.603   6.423   1.365 -3.4588  1.0789  1.3675
 1393SOL    HW2 5079   0.591   6.325   1.235  2.5603  1.6287  0.0975
 1394SOL     OW 5080   5.337   2.609   1.554 -0.4250  0.1989  0.1097
 1394SOL    HW1 5081   5.381   2.519   1.565 -2.2690 -0.7718 -0.1081
 1394SOL    HW2 5082   5.280   2.628   1.634 -0.3640  1.0108 -0.0310
 1395SOL     OW 5083   4.182   5.340   0.616 -0.3215 -0.4377 -0.2729
 1395SOL    HW1 5084   4.125   5.344   0.698 -0.5137  1.6776 -0.4552
 1395SOL    HW2 5085   4.250   5.268   0.627 -0.0176  0.1039  1.9809
 1396SOL     OW 5086   3.021   3.287   4.486  0.0466 -0.3421  0.2843
 1396SOL    HW1 5087   2.952   3.285   4.414  2.3632  0.1277 -2.0925
 1396SOL    HW2 5088   3.013   3.373   4.537 -0.1744  0.3930 -0.9433
 1397SOL     OW 5089   4.661   2.119   4.260  0.1706  0.8270 -0.6037
 1397SOL    HW1 5090   4.600   2.194   4.236  0.7247  1.3107 -0.5148
 1397SOL    HW2 5091   4.693   2.131   4.354 -0.4293  0.0007 -0.2747
 1398SOL     OW 5092   6.092   2.883   2.253 -0.2636 -0.2220 -0.0970
 1398SOL    HW1 5093   6.072   2.900   2.350 -2.0252  0.6394 -0.5534
 1398SOL    HW2 5094   6.007   2.857   2.206  0.1529  1.2363 -1.7729
 1399SOL     OW 5095   1.502   3.376   5.746 -0.5608  0.0630  0.1981
 1399SOL    HW1 5096   1.571   3.439   5.780  1.8496 -1.0495 -2.2770
 1399SOL    HW2 5097   1.540   3.283   5.742 -3.3726 -1.3109  1.9558
 1400SOL     OW 5098   0.036   0.569   2.220 -0.4767  0.2337 -0.1469
 1400SOL    HW1 5099   0.105   0.504   2.189 -2.0578 -1.1572 -0.9366
 1400SOL    HW2 5100   0.010   0.547   2.314  0.9445  1.5047  0.5883
 1401SOL     OW 5101   0.351   2.954   4.327  0.1659 -0.3130 -0.1936
 1401SOL    HW1 5102   0.284   3.023   4.355 -1.3779 -1.3209 -1.2307
 1401SOL    HW2 5103   0.328   2.866   4.368 -0.1552 -1.0428 -1.8386
 1402SOL     OW 5104   6.160   4.131   2.780 -0.7285 -0.2592  0.4513
 1402SOL    HW1 5105   6.153   4.032   2.784 -0.2212 -0.4015 -1.4258
 1402SOL    HW2 5106   6.149   4.162   2.686  2.3335  1.1642  0.4108
 1403SOL     OW 5107   4.219   6.932   4.462  0.2424  0.2377  0.3810
 1403SOL    HW1 5108   4.304   6.984   4.455  0.4230  0.0260  0.9947
 1403SOL    HW2 5109   4.235   6.848   4.513 -0.0795 -0.3678 -0.4849
 1404SOL     OW 5110   1.511   6.334   1.533  0.0938  0.6566  0.1856
 1404SOL    HW1 5111   1.432   6.346   1.592  0.1334 -0.0059  0.3776
 1404SOL    HW2 5112   1.493   6.261   1.468 -0.4714  2.2208 -1.5273
 1405SOL     OW 5113   2.035   3.476   0.722  0.0883 -0.9231  0.0759
 1405SOL    HW1 5114   2.042   3.476   0.821  1.0236  3.5027  0.2180
 1405SOL    HW2 5115   2.126   3.465   0.682 -0.0445 -0.9998 -0.2092
 1406SOL     OW 5116   4.855   6.098   0.737 -0.1281 -0.2985 -0.5131
 1406SOL    HW1 5117   4.863   6.004   0.707  0.4772 -0.4473  0.0838
 1406SOL    HW2 5118   4.780   6.143   0.688  0.1487 -0.8270 -1.4357
 1407SOL     OW 5119   0.488   5.461   5.338  0.1876 -0.2429  0.6947
 1407SOL    HW1 5120   0.545   5.504   5.408  1.7055 -1.4539  0.2735
 1407SOL    HW2 5121   0.544   5.439   5.258 -0.8356 -1.5933  0.2998
 1408SOL     OW 5122   2.513   4.317   1.339 -0.5589 -1.0363  0.6496
 1408SOL    HW1 5123   2.454   4.299   1.418 -1.3160 -1.7877 -0.0740
 1408SOL    HW2 5124   2.501   4.246   1.270  0.4256 -0.6378  0.0302
 1409SOL     OW 5125   6.267   1.373   6.158  0.4103  0.0819  0.9070
 1409SOL    HW1 5126   6.268   1.331   6.067  1.2693  0.2165  0.8475
 1409SOL    HW2 5127   6.196   1.329   6.214  1.0931 -1.2778  0.7576
 1410SOL     OW 5128   1.817   5.733   0.809 -0.0435  0.0631  0.4001
 1410SOL    HW1 5129   1.895   5.795   0.802  1.3143 -1.6219 -0.2076
 1410SOL    HW2 5130   1.832   5.669   0.884 -0.7998 -0.3689  0.1918
 1411SOL     OW 5131   4.903   1.105   2.873  0.0178  0.3179  0.1285
 1411SOL    HW1 5132   4.971   1.092   2.801  1.1118  2.0056  0.7860
 1411SOL    HW2 5133   4.819   1.057   2.849  0.6791  0.0402 -1.7900
 1412SOL     OW 5134   0.377   1.372   2.327  0.2048 -0.2214  0.5269
 1412SOL    HW1 5135   0.312   1.361   2.401  0.0957 -0.5022  0.3917
 1412SOL    HW2 5136   0.351   1.450   2.270 -0.6215 -0.9617 -0.1416
 1413SOL     OW 5137   3.866   3.072   0.188  0.3008 -0.6946 -0.2389
 1413SOL    HW1 5138   3.911   3.012   0.121 -0.2698 -0.6231 -0.7006
 1413SOL    HW2 5139   3.931   3.140   0.221  0.9317 -1.5074  0.2193
 1414SOL     OW 5140   6.672   1.268   0.929 -0.0383  0.2772 -0.3801
 1414SOL    HW1 5141   6.768   1.286   0.911 -0.5313  1.3499 -2.1206
 1414SOL    HW2 5142   6.627   1.351   0.962 -1.2315  1.0772 -3.6589
 1415SOL     OW 5143   3.332   1.779   5.943  0.3053  0.4999 -0.0520
 1415SOL    HW1 5144   3.272   1.726   6.003  0.1837 -1.6142 -1.9206
 1415SOL    HW2 5145   3.386   1.717   5.887  1.5760  2.3983 -1.0359
 1416SOL     OW 5146   3.167   3.313   1.275 -0.0194  0.7745  0.0099
 1416SOL    HW1 5147   3.148   3.255   1.355  0.7566  1.9062  1.0673
 1416SOL    HW2 5148   3.114   3.398   1.282 -1.2542  0.1711 -1.5896
 1417SOL     OW 5149   3.352   4.109   1.936 -0.2658  0.8425 -0.0193
 1417SOL    HW1 5150   3.444   4.142   1.914 -0.1591  1.4937  1.3389
 1417SOL    HW2 5151   3.284   4.165   1.889 -0.0141  1.5008  0.3938
 1418SOL     OW 5152   5.587   3.692   4.965 -0.4052 -0.8364 -0.4136
 1418SOL    HW1 5153   5.515   3.705   4.897 -0.0922  0.2019 -0.5663
 1418SOL    HW2 5154   5.605   3.595   4.978 -0.7858 -1.0530 -1.4835
 1419SOL     OW 5155   0.258   4.898   4.525  0.3179  0.4232 -0.3056
 1419SOL    HW1 5156   0.178   4.841   4.545 -0.4896  1.9653  1.0255
 1419SOL    HW2 5157   0.230   4.993   4.517  2.0025  0.9817  0.0432
 1420SOL     OW 5158   4.544   6.599   4.298 -0.3679  0.2880  0.7774
 1420SOL    HW1 5159   4.643   6.596   4.306 -0.2823  0.2217 -0.1871
 1420SOL    HW2 5160   4.503   6.613   4.389  0.4874 -0.4123  1.2832
 1421SOL     OW 5161   4.521   3.403   6.857 -0.7360  0.5383  0.7494
 1421SOL    HW1 5162   4.453   3.332   6.877 -0.7479  0.8888  2.0621
 1421SOL    HW2 5163   4.609   3.376   6.897 -0.6316  1.0635  0.8814
 1422SOL     OW 5164   5.764   3.802   5.395 -0.2275  0.0814 -0.6037
 1422SOL    HW1 5165   5.781   3.797   5.296  0.8326  0.8571 -0.4788
 1422SOL    HW2 5166   5.731   3.714   5.427 -3.4340  0.5872 -2.1318
 1423SOL     OW 5167   4.594   6.061   2.997  0.2740 -0.7915  0.1481
 1423SOL    HW1 5168   4.690   6.074   3.022 -0.3144  3.3278  0.9962
 1423SOL    HW2 5169   4.538   6.062   3.079 -0.7473  0.8768 -0.5288
 1424SOL     OW 5170   6.884   2.449   5.468 -0.1512 -0.0961  0.1668
 1424SOL    HW1 5171   6.836   2.466   5.554  0.8617 -2.5089  1.2949
 1424SOL    HW2 5172   6.870   2.354   5.440  1.2938  0.0529 -1.1948
 1425SOL     OW 5173   3.419   6.321   3.249 -0.0116  0.2244 -0.0297
 1425SOL    HW1 5174   3.347   6.251   3.244 -2.6623  2.6549  0.9363
 1425SOL    HW2 5175   3.425   6.370   3.162 -0.4126  0.7957  0.2555
 1426SOL     OW 5176   0.063   0.573   6.566  0.9084 -0.0942  0.0637
 1426SOL    HW1 5177   0.070   0.533   6.475  2.0915 -1.4990  0.7190
 1426SOL    HW2 5178  -0.023   0.545   6.609  0.4238  0.4370 -0.5546
 1427SOL     OW 5179   2.388   5.128   6.021 -0.8108 -0.1777  0.4209
 1427SOL    HW1 5180   2.372   5.086   5.932  0.2558  0.4229 -0.0664
 1427SOL    HW2 5181   2.377   5.227   6.014  0.4205 -0.0107  0.6785
 1428SOL     OW 5182   2.204   5.147   0.937  0.9016  0.7773  0.4678
 1428SOL    HW1 5183   2.273   5.178   0.872  0.7133 -0.5567 -0.4080
 1428SOL    HW2 5184   2.193   5.048   0.929 -0.9696  0.9314  0.7197
 1429SOL     OW 5185   6.436   4.978   0.450 -0.0348 -0.5832 -0.2906
 1429SOL    HW1 5186   6.521   4.928   0.463  0.1646 -0.0272  0.6279
 1429SOL    HW2 5187   6.439   5.064   0.501 -0.1032  0.7076 -2.3781
 1430SOL     OW 5188   4.123   5.849   0.982 -0.3882 -0.3306  0.0872
 1430SOL    HW1 5189   4.192   5.920   0.966 -0.9179 -0.1495 -1.6023
 1430SOL    HW2 5190   4.154   5.763   0.940 -0.2824 -0.8054  1.1060
 1431SOL     OW 5191   1.259   0.261   1.274  0.1932 -0.6001 -0.4408
 1431SOL    HW1 5192   1.256   0.321   1.194 -0.5022 -1.2624 -0.9317
 1431SOL    HW2 5193   1.334   0.195   1.263 -0.4240 -1.2292 -0.9586
 1432SOL     OW 5194   1.783   6.644   5.230  0.3027  0.6820 -0.0845
 1432SOL    HW1 5195   1.854   6.581   5.200 -0.8411  0.0891 -1.6921
 1432SOL    HW2 5196   1.735   6.605   5.309  1.8511  1.1923  1.1555
 1433SOL     OW 5197   5.496   1.612   4.398  0.1649 -0.0632 -0.4229
 1433SOL    HW1 5198   5.572   1.557   4.434 -0.2488  0.6010  1.5548
 1433SOL    HW2 5199   5.443   1.556   4.335  1.6030 -0.9104 -0.9513
 1434SOL     OW 5200   1.213   2.997   4.802 -0.1603 -0.2261  0.2721
 1434SOL    HW1 5201   1.132   2.950   4.767 -0.4118  0.3282  0.0933
 1434SOL    HW2 5202   1.250   3.057   4.730 -0.1268  0.2004  0.6394
 1435SOL     OW 5203   6.688   0.206   3.919  0.7333 -0.3010 -0.1725
 1435SOL    HW1 5204   6.619   0.276   3.939  0.9293 -0.5164  1.4121
 1435SOL    HW2 5205   6.761   0.211   3.986  2.3887  0.0205 -1.9143
 1436SOL     OW 5206   3.321   4.578   0.356 -0.2556 -0.5467 -0.6336
 1436SOL    HW1 5207   3.384   4.621   0.291 -0.6898 -0.3917 -0.9594
 1436SOL    HW2 5208   3.348   4.483   0.371  0.5530 -0.2421 -0.1176
 1437SOL     OW 5209   2.137   3.647   4.767  0.3125  0.5453  0.5851
 1437SOL    HW1 5210   2.186   3.731   4.791  0.7703  0.3624  0.3093
 1437SOL    HW2 5211   2.171   3.613   4.679  0.4904 -0.1995  0.9300
 1438SOL     OW 5212   1.154   4.036   4.166 -0.2435  0.4512  0.5893
 1438SOL    HW1 5213   1.096   4.007   4.243 -1.5158  0.3666 -0.3634
 1438SOL    HW2 5214   1.188   3.955   4.118 -0.0878  0.5141  0.5922
 1439SOL     OW 5215   4.141   5.755   3.304 -0.4471  0.1618  0.2922
 1439SOL    HW1 5216   4.156   5.657   3.287 -0.8157 -0.0902  1.3568
 1439SOL    HW2 5217   4.222   5.806   3.276 -0.6095 -0.3342 -1.1546
 1440SOL     OW 5218   2.870   4.106   6.889  0.0130 -0.0553  0.1756
 1440SOL    HW1 5219   2.839   4.098   6.794 -0.4778 -1.1486  0.4159
 1440SOL    HW2 5220   2.885   4.015   6.928 -1.9693  0.2500  1.8315
 1441SOL     OW 5221   4.927   6.601   5.355  0.1709  0.4471  0.2657
 1441SOL    HW1 5222   4.863   6.624   5.282  0.0256 -0.2259  0.1775
 1441SOL    HW2 5223   4.935   6.679   5.418  0.7693  1.2702 -0.7970
 1442SOL     OW 5224   1.821   1.543   1.805 -0.3190  0.1267  0.4834
 1442SOL    HW1 5225   1.850   1.487   1.727 -0.3288  1.6177 -0.6289
 1442SOL    HW2 5226   1.902   1.579   1.852 -0.3208  0.3602  0.3095
 1443SOL     OW 5227   4.030   0.223   2.386 -0.7930  0.0501 -0.6719
 1443SOL    HW1 5228   3.961   0.207   2.315 -1.4439 -0.3569  0.0351
 1443SOL    HW2 5229   4.103   0.281   2.349 -1.2352  0.0407 -1.5974
 1444SOL     OW 5230   1.861   2.674   3.722  0.1432  0.3188  0.1617
 1444SOL    HW1 5231   1.803   2.739   3.673  0.4196  0.7204  0.3662
 1444SOL    HW2 5232   1.805   2.624   3.788  0.0213  0.6795  0.3347
 1445SOL     OW 5233   1.003   1.084   4.265  0.5530  0.3761 -0.0487
 1445SOL    HW1 5234   0.922   1.100   4.208  0.8692  1.2374 -0.2704
 1445SOL    HW2 5235   0.991   1.127   4.354  0.4437 -0.1844  0.2152
 1446SOL     OW 5236   0.377   4.004   6.008 -0.3784  0.1347 -0.3038
 1446SOL    HW1 5237   0.432   4.088   6.006 -0.7872  0.4018 -0.4368
 1446SOL    HW2 5238   0.294   4.019   6.061 -1.2513  0.3270 -1.6521
 1447SOL     OW 5239   0.524   5.292   6.125  0.8035 -0.1498 -0.6002
 1447SOL    HW1 5240   0.501   5.231   6.200 -0.0142  0.4637 -0.3370
 1447SOL    HW2 5241   0.563   5.239   6.049 -0.7207 -1.1318 -0.7402
 1448SOL     OW 5242   1.425   4.912   1.220 -0.1053  0.2395 -0.1206
 1448SOL    HW1 5243   1.448   4.833   1.277  0.8505  0.7976  0.2774
 1448SOL    HW2 5244   1.493   4.922   1.147  0.7899  1.7246  0.8830
 1449SOL     OW 5245   3.899   5.463   2.776  0.3244 -0.3564  0.9013
 1449SOL    HW1 5246   3.858   5.405   2.705  1.0670 -2.2604  1.9512
 1449SOL    HW2 5247   3.921   5.552   2.737 -0.0407 -1.0519 -1.0384
 1450SOL     OW 5248   3.528   2.273   5.305 -0.4843  0.3387  0.5759
 1450SOL    HW1 5249   3.454   2.334   5.334 -2.1828 -1.4690  0.2504
 1450SOL    HW2 5250   3.501   2.226   5.221  2.7117  2.5572 -1.9601
 1451SOL     OW 5251   6.430   5.320   0.945  0.3873  0.3544  0.6233
 1451SOL    HW1 5252   6.526   5.292   0.943 -0.0212 -1.2104  1.5552
 1451SOL    HW2 5253   6.376   5.255   0.892 -0.1440  1.4386 -0.2188
 1452SOL     OW 5254   6.192   3.601   2.262 -0.0565 -0.2923 -0.4747
 1452SOL    HW1 5255   6.262   3.672   2.264  0.0046 -0.3023 -1.6344
 1452SOL    HW2 5256   6.138   3.610   2.178 -1.6401 -0.0992  0.5156
 1453SOL     OW 5257   3.537   1.884   6.929 -0.0118  0.4096  0.6164
 1453SOL    HW1 5258   3.543   1.975   6.969 -1.8502  1.4718 -1.3348
 1453SOL    HW2 5259   3.471   1.885   6.854  1.2965 -2.0892 -0.6856
 1454SOL     OW 5260   6.564   3.554   3.557 -0.2856  0.1577  0.1236
 1454SOL    HW1 5261   6.484   3.582   3.504  0.1881  0.6808 -0.3307
 1454SOL    HW2 5262   6.611   3.479   3.511  1.2651  1.9013 -1.3214
 1455SOL     OW 5263   3.716   0.232   6.468 -0.3627  0.3733 -0.1694
 1455SOL    HW1 5264   3.766   0.172   6.531 -1.5588 -0.6519 -0.1495
 1455SOL    HW2 5265   3.738   0.327   6.488  0.8373 -0.0077  0.4453
 1456SOL     OW 5266   2.747   6.308   6.329 -0.8309 -0.0744 -0.0958
 1456SOL    HW1 5267   2.776   6.237   6.394  0.4207 -0.9783 -1.5674
 1456SOL    HW2 5268   2.809   6.308   6.250 -2.0765  1.2368 -1.1204
 1457SOL     OW 5269   3.474   0.920   6.855  0.1250  0.3259 -0.5066
 1457SOL    HW1 5270   3.503   0.853   6.787  1.2940  0.0083  0.2841
 1457SOL    HW2 5271   3.528   0.910   6.938 -0.2369  1.7187 -0.0683
 1458SOL     OW 5272   3.359   0.388   1.484 -0.1728  0.0548 -0.6935
 1458SOL    HW1 5273   3.420   0.358   1.410 -0.8268 -1.4292 -0.6574
 1458SOL    HW2 5274   3.368   0.487   1.496 -0.1396  0.3712 -2.8559
 1459SOL     OW 5275   0.706   0.722   4.990 -0.8696 -0.1970  0.3472
 1459SOL    HW1 5276   0.760   0.642   5.015 -0.3206 -0.0560 -0.3655
 1459SOL    HW2 5277   0.739   0.760   4.904  1.4320  3.0367  2.3869
 1460SOL     OW 5278   2.185   6.328   6.831 -0.4557 -0.1188 -0.0107
 1460SOL    HW1 5279   2.129   6.296   6.908 -1.8297  0.8523 -0.5806
 1460SOL    HW2 5280   2.192   6.255   6.763  0.6489 -0.9351  0.9421
 1461SOL     OW 5281   6.959   1.768   6.496  0.3342  0.1257  0.4309
 1461SOL    HW1 5282   6.957   1.725   6.586 -0.3741  0.5162  0.6160
 1461SOL    HW2 5283   7.039   1.828   6.490 -0.4660  1.3566  1.4251
 1462SOL     OW 5284   0.377   4.257   4.412 -0.0915 -0.9148  0.2076
 1462SOL    HW1 5285   0.435   4.320   4.465 -0.5421  1.5612 -2.0287
 1462SOL    HW2 5286   0.426   4.171   4.399  1.4751 -0.3052  1.5942
 1463SOL     OW 5287   0.524   4.713   5.182 -0.2454  0.2541 -0.5350
 1463SOL    HW1 5288   0.567   4.803   5.186 -1.7191  1.1739 -3.2372
 1463SOL    HW2 5289   0.527   4.672   5.273  3.1587  1.6689  0.1777
 1464SOL     OW 5290   0.668   5.751   0.089 -0.0660  0.3897  0.1159
 1464SOL    HW1 5291   0.618   5.679   0.137 -1.0265  0.2543 -1.0344
 1464SOL    HW2 5292   0.660   5.738  -0.010  1.3332  1.0149 -0.1100
 1465SOL     OW 5293   1.412   1.601   2.419 -0.1732  0.2715 -0.0364
 1465SOL    HW1 5294   1.427   1.575   2.514 -0.7226  0.7535  0.1844
 1465SOL    HW2 5295   1.495   1.645   2.383  0.2314 -0.4134  0.0428
 1466SOL     OW 5296   1.643   1.885   3.522  0.6399 -0.5446  0.4143
 1466SOL    HW1 5297   1.649   1.912   3.618  1.7870  0.7126  0.0146
 1466SOL    HW2 5298   1.637   1.967   3.465  0.7016 -1.2614 -0.6351
 1467SOL     OW 5299   3.790   2.382   6.665 -0.1342  0.1695  0.6596
 1467SOL    HW1 5300   3.849   2.405   6.587  1.2133 -0.4828  1.4493
 1467SOL    HW2 5301   3.834   2.311   6.720 -1.3805  0.1287  1.6442
 1468SOL     OW 5302   2.729   6.535   4.616 -0.0228 -0.1006 -0.1520
 1468SOL    HW1 5303   2.773   6.446   4.629 -0.2937 -0.3329 -0.8059
 1468SOL    HW2 5304   2.703   6.546   4.520 -2.1538 -0.3228  0.3572
 1469SOL     OW 5305   5.740   6.716   3.183 -0.0469  0.3697 -0.1675
 1469SOL    HW1 5306   5.832   6.695   3.217 -0.6640 -0.0459  1.3455
 1469SOL    HW2 5307   5.680   6.638   3.202 -0.6752  0.5456 -1.3495
 1470SOL     OW 5308   1.224   6.312   5.944 -0.1391  0.3928  0.6947
 1470SOL    HW1 5309   1.220   6.334   6.042  0.2979 -0.4789  0.9205
 1470SOL    HW2 5310   1.319   6.312   5.914  0.1295 -2.9674  1.1697
 1471SOL     OW 5311   6.357   6.416   3.728 -0.8596  0.8520 -0.2079
 1471SOL    HW1 5312   6.374   6.400   3.631  1.6223 -2.3247  0.5639
 1471SOL    HW2 5313   6.431   6.471   3.766  0.9019 -1.9286  0.6657
 1472SOL     OW 5314   4.636   6.422   4.827  0.0554 -0.7818  0.3718
 1472SOL    HW1 5315   4.604   6.511   4.860 -0.6996 -0.8218 -0.2204
 1472SOL    HW2 5316   4.559   6.359   4.821  0.4246 -1.1996 -0.0963
 1473SOL     OW 5317   2.292   2.233   0.098 -0.3726 -0.2292  0.3002
 1473SOL    HW1 5318   2.301   2.226  -0.001 -0.7790 -0.5843  0.2833
 1473SOL    HW2 5319   2.227   2.305   0.121 -0.6917 -0.5147  0.2920
 1474SOL     OW 5320   1.224   5.196   6.389  0.3371 -0.4748 -0.2415
 1474SOL    HW1 5321   1.217   5.288   6.428  0.3914 -0.0999 -1.0814
 1474SOL    HW2 5322   1.316   5.159   6.406  0.4791 -0.1679 -0.3370
 1475SOL     OW 5323   1.923   3.538   0.061 -0.1826 -0.0876 -0.4747
 1475SOL    HW1 5324   2.022   3.550   0.071 -0.2082 -0.4144  0.1955
 1475SOL    HW2 5325   1.879   3.628   0.053  0.2358  0.0360 -1.5291
 1476SOL     OW 5326   5.159   6.935   2.813  0.0193  0.0708  0.1594
 1476SOL    HW1 5327   5.128   7.024   2.782  0.6909  0.2118 -0.1306
 1476SOL    HW2 5328   5.258   6.938   2.829  0.0870 -0.6726 -0.0668
 1477SOL     OW 5329   5.165   6.064   4.452  0.1548  0.1352  0.0647
 1477SOL    HW1 5330   5.199   6.019   4.369 -0.7011  0.8713 -0.7183
 1477SOL    HW2 5331   5.068   6.042   4.464  0.0351  0.7714  0.3429
 1478SOL     OW 5332   3.729   1.609   6.305  0.0857 -0.2401  0.4169
 1478SOL    HW1 5333   3.638   1.636   6.274  0.8154  0.9984 -0.7254
 1478SOL    HW2 5334   3.757   1.526   6.257  0.2806  0.3969 -0.6004
 1479SOL     OW 5335   2.058   5.348   3.561 -0.2653 -0.2252  0.4429
 1479SOL    HW1 5336   1.965   5.324   3.534 -0.2694  0.1228  0.1416
 1479SOL    HW2 5337   2.123   5.298   3.503 -0.1979 -2.4362  2.2604
 1480SOL     OW 5338   6.539   0.900   3.362 -0.0055 -0.1774 -0.1091
 1480SOL    HW1 5339   6.632   0.887   3.396 -1.2227 -2.2282  2.8087
 1480SOL    HW2 5340   6.497   0.977   3.410 -0.6216 -0.8907  0.5128
 1481SOL     OW 5341   6.356   0.636   5.480 -0.0639 -0.0154  0.4741
 1481SOL    HW1 5342   6.369   0.574   5.402 -1.2329 -3.1303  2.5729
 1481SOL    HW2 5343   6.259   0.644   5.501  0.0243  2.8077  0.2028
 1482SOL     OW 5344   6.202   6.002   4.110  0.1986 -0.6953  0.0654
 1482SOL    HW1 5345   6.216   6.004   4.011  0.6073 -1.0131  0.1137
 1482SOL    HW2 5346   6.105   5.984   4.130 -0.0319  0.1326 -0.2751
 1483SOL     OW 5347   2.587   3.729   5.925 -0.2478  0.3374 -0.0263
 1483SOL    HW1 5348   2.590   3.801   5.856 -3.0316  1.4204  0.8519
 1483SOL    HW2 5349   2.507   3.671   5.908  1.4835 -2.1747 -0.2479
 1484SOL     OW 5350   3.132   6.317   6.209  0.0741  0.4131 -0.3394
 1484SOL    HW1 5351   3.054   6.299   6.149 -0.0027  0.4234 -0.2423
 1484SOL    HW2 5352   3.196   6.378   6.162  0.6037 -0.5492 -0.8830
 1485SOL     OW 5353   0.359   2.540   6.264 -0.6809  0.1285 -0.1556
 1485SOL    HW1 5354   0.270   2.583   6.278 -1.6379 -2.1627  1.3453
 1485SOL    HW2 5355   0.376   2.529   6.166 -0.5530  3.3489 -0.6177
 1486SOL     OW 5356   2.722   4.679   2.295  0.7731  0.6043  0.6392
 1486SOL    HW1 5357   2.781   4.626   2.357  2.1631  1.0245 -0.2829
 1486SOL    HW2 5358   2.740   4.651   2.201 -0.1156  1.1453  0.3034
 1487SOL     OW 5359   5.055   1.032   6.984  0.1547 -0.1120  0.2095
 1487SOL    HW1 5360   5.055   1.059   6.888 -0.1367 -0.7919  0.0084
 1487SOL    HW2 5361   5.066   1.113   7.042 -0.2257  0.3715 -0.3790
 1488SOL     OW 5362   0.059   2.661   3.434  0.0110 -0.0808 -0.4401
 1488SOL    HW1 5363   0.075   2.715   3.517  0.7078 -0.4121 -0.3507
 1488SOL    HW2 5364   0.088   2.714   3.354 -0.4316  0.1438 -0.4516
 1489SOL     OW 5365   0.316   2.832   3.303 -0.6857  0.7568  0.3208
 1489SOL    HW1 5366   0.328   2.913   3.361 -1.8576  0.2911  1.2583
 1489SOL    HW2 5367   0.359   2.848   3.214  2.3178  1.0301  1.6842
 1490SOL     OW 5368   3.092   1.867   4.098 -0.4787 -0.7352 -0.2304
 1490SOL    HW1 5369   3.046   1.779   4.088 -0.3783 -0.8661  0.4063
 1490SOL    HW2 5370   3.121   1.878   4.193 -1.7402  0.5866  0.0413
 1491SOL     OW 5371   2.085   4.184   5.465  0.2036 -0.2114 -0.2118
 1491SOL    HW1 5372   2.118   4.104   5.415  0.4396 -1.7906  2.2515
 1491SOL    HW2 5373   1.991   4.167   5.497  0.3572  0.3493  0.5753
 1492SOL     OW 5374   5.505   1.966   1.487  0.5491  0.2495 -0.6685
 1492SOL    HW1 5375   5.465   2.008   1.569  0.3373 -0.7989 -0.2261
 1492SOL    HW2 5376   5.595   1.928   1.510  0.9720  0.9093 -1.1975
 1493SOL     OW 5377   6.374   4.163   4.500  0.0592  0.3674  0.3189
 1493SOL    HW1 5378   6.354   4.207   4.413 -1.7551 -0.5538  0.2289
 1493SOL    HW2 5379   6.438   4.087   4.486 -0.9732 -0.3956 -0.3909
 1494SOL     OW 5380   5.533   3.307   3.466  0.2167 -0.5838  0.0112
 1494SOL    HW1 5381   5.589   3.277   3.390  0.5806 -0.2372  0.1372
 1494SOL    HW2 5382   5.523   3.406   3.463  0.6196 -0.5173  0.6705
 1495SOL     OW 5383   0.864   6.136   5.932  0.6653  0.5174 -0.6793
 1495SOL    HW1 5384   0.868   6.072   5.855  0.0142 -1.3291  0.7324
 1495SOL    HW2 5385   0.773   6.135   5.972  0.8174  1.9157 -0.2536
 1496SOL     OW 5386   6.392   1.589   0.945 -0.2299 -0.2295  0.0077
 1496SOL    HW1 5387   6.492   1.594   0.952 -0.2389  0.5608 -0.2825
 1496SOL    HW2 5388   6.351   1.616   1.033 -0.2035  1.0924 -0.3629
 1497SOL     OW 5389   2.228   1.923   4.484 -0.0663 -0.0918  0.0887
 1497SOL    HW1 5390   2.249   1.872   4.568  0.6941 -1.2702 -0.7893
 1497SOL    HW2 5391   2.300   1.990   4.468  0.6324 -0.9331 -0.4211
 1498SOL     OW 5392   6.200   1.191   1.520 -0.3620 -0.1034 -0.0732
 1498SOL    HW1 5393   6.256   1.269   1.547 -0.6375 -0.0822  0.4494
 1498SOL    HW2 5394   6.243   1.144   1.443 -0.2120  0.5859 -0.4178
 1499SOL     OW 5395   6.811   4.810   0.328 -0.3510  0.3106 -0.1309
 1499SOL    HW1 5396   6.884   4.864   0.370  0.4038 -0.6660 -0.1674
 1499SOL    HW2 5397   6.749   4.777   0.399  0.5704 -0.8114  0.1867
 1500SOL     OW 5398   6.741   4.407   2.616  0.4901  0.0943  0.1462
 1500SOL    HW1 5399   6.792   4.340   2.563  0.1967 -0.9505  1.1694
 1500SOL    HW2 5400   6.652   4.370   2.641  0.1714  1.0036  0.4151
 1501SOL     OW 5401   0.184   4.310   5.941  0.2874 -0.2190 -0.1958
 1501SOL    HW1 5402   0.284   4.316   5.944  0.4016 -0.9991 -1.5569
 1501SOL    HW2 5403   0.156   4.276   5.851 -1.3297  2.0196 -0.5947
 1502SOL     OW 5404   4.876   6.406   1.352 -0.1929 -0.0867 -0.5215
 1502SOL    HW1 5405   4.955   6.346   1.364 -1.1259 -0.8272  3.7545
 1502SOL    HW2 5406   4.900   6.499   1.381 -0.3312  0.2021 -1.3204
 1503SOL     OW 5407   3.353   1.092   3.113  0.9512 -1.3058  0.5387
 1503SOL    HW1 5408   3.300   1.026   3.166 -0.9856 -1.0437 -0.9533
 1503SOL    HW2 5409   3.351   1.067   3.016 -0.7627  1.4059 -0.2350
 1504SOL     OW 5410   0.396   1.168   1.636  0.3091  0.6603 -0.7460
 1504SOL    HW1 5411   0.336   1.091   1.657  0.4857  0.6124 -0.4067
 1504SOL    HW2 5412   0.491   1.141   1.647  0.3833  0.8216 -0.9892
 1505SOL     OW 5413   1.579   4.239   4.441 -0.8956 -0.0792  0.3664
 1505SOL    HW1 5414   1.489   4.278   4.460 -0.8684  1.3813 -2.0014
 1505SOL    HW2 5415   1.602   4.171   4.510 -2.9305  0.9395  2.1489
 1506SOL     OW 5416   0.966   6.768   0.643 -0.3796 -0.5078  0.6171
 1506SOL    HW1 5417   1.030   6.825   0.591 -0.0196 -2.1967 -0.8792
 1506SOL    HW2 5418   0.999   6.759   0.737  1.7992 -1.5852 -0.1843
 1507SOL     OW 5419   0.635   4.750   3.612 -0.0615 -0.5326  0.0706
 1507SOL    HW1 5420   0.586   4.716   3.531 -0.5599  1.3238 -0.4572
 1507SOL    HW2 5421   0.702   4.819   3.584 -0.5249  0.4399  1.2682
 1508SOL     OW 5422   0.164   4.350   0.194 -0.9592 -0.2596 -0.2222
 1508SOL    HW1 5423   0.245   4.303   0.229 -1.9066  0.4645  3.4419
 1508SOL    HW2 5424   0.085   4.289   0.200 -1.3966  0.3452  0.2729
 1509SOL     OW 5425   5.216   2.190   2.797  0.2843  0.3082  0.4239
 1509SOL    HW1 5426   5.225   2.121   2.725  0.4629  0.1441  0.5997
 1509SOL    HW2 5427   5.231   2.281   2.759  0.8533  0.1854  0.3447
 1510SOL     OW 5428   5.543   2.523   4.083 -0.5464 -0.1523  0.4466
 1510SOL    HW1 5429   5.507   2.514   4.176  2.0316 -1.0487  1.4756
 1510SOL    HW2 5430   5.570   2.432   4.050  1.8660  0.5427  0.3278
 1511SOL     OW 5431   2.274   1.471   0.515  0.3393 -0.3210  0.0355
 1511SOL    HW1 5432   2.311   1.422   0.435  0.7888  0.1717 -0.0659
 1511SOL    HW2 5433   2.350   1.505   0.571  0.0379  0.4339 -0.0046
 1512SOL     OW 5434   6.739   5.571   3.160 -0.6820 -0.0279  0.3096
 1512SOL    HW1 5435   6.730   5.486   3.212 -1.1633  0.2694  0.7171
 1512SOL    HW2 5436   6.763   5.549   3.065  1.1151 -0.5423  0.8386
 1513SOL     OW 5437   4.163   1.597   2.858  0.0267  0.9735  0.4417
 1513SOL    HW1 5438   4.083   1.556   2.902  0.7272 -1.2134 -0.1945
 1513SOL    HW2 5439   4.242   1.537   2.871  0.6444  1.0827 -2.3459
 1514SOL     OW 5440   3.130   6.083   6.752 -0.3322 -0.4469 -0.2242
 1514SOL    HW1 5441   3.151   6.006   6.691  1.1554 -0.6369  0.5148
 1514SOL    HW2 5442   3.141   6.169   6.702  0.4930 -0.6168 -0.3350
 1515SOL     OW 5443   4.850   1.572   3.290 -0.2713  0.3831 -0.5937
 1515SOL    HW1 5444   4.871   1.480   3.321  0.9367  0.5203 -0.9242
 1515SOL    HW2 5445   4.801   1.568   3.203 -0.6403  0.0525 -0.3714
 1516SOL     OW 5446   6.237   2.773   1.022  0.4168 -0.0921 -0.3726
 1516SOL    HW1 5447   6.273   2.679   1.015  0.2751 -0.1072 -1.0058
 1516SOL    HW2 5448   6.153   2.780   0.968 -0.4618 -0.0161  0.9761
 1517SOL     OW 5449   5.262   0.570   1.642  0.7781 -0.1467  0.2243
 1517SOL    HW1 5450   5.289   0.666   1.654 -2.6402  0.9165  0.4725
 1517SOL    HW2 5451   5.226   0.556   1.550  0.7959 -1.0864  0.3465
 1518SOL     OW 5452   5.738   1.616   2.056  0.7119  0.1604 -0.6229
 1518SOL    HW1 5453   5.788   1.670   2.124  1.6000 -1.2674 -0.0997
 1518SOL    HW2 5454   5.661   1.669   2.021  1.4789  1.7051 -0.0469
 1519SOL     OW 5455   4.085   1.240   0.689  0.1027 -0.4265  0.1525
 1519SOL    HW1 5456   4.015   1.308   0.671 -0.6055 -1.3723 -0.7376
 1519SOL    HW2 5457   4.166   1.259   0.632 -0.2368 -0.5395 -0.3735
 1520SOL     OW 5458   6.739   6.537   7.016 -0.7802 -0.0122  0.3426
 1520SOL    HW1 5459   6.783   6.528   6.927 -0.9643  0.1064  0.2406
 1520SOL    HW2 5460   6.646   6.500   7.011 -0.6009 -0.5185  0.6290
 1521SOL     OW 5461   0.278   0.685   0.387  0.7742 -0.4184  0.2074
 1521SOL    HW1 5462   0.372   0.688   0.353  0.7442 -0.8413  0.0773
 1521SOL    HW2 5463   0.215   0.673   0.310  0.7084 -1.4036  0.3999
 1522SOL     OW 5464   5.892   4.394   1.640  0.0841  0.4037 -0.2788
 1522SOL    HW1 5465   5.824   4.341   1.690 -1.0556  1.1774 -0.9704
 1522SOL    HW2 5466   5.981   4.383   1.684 -0.4452 -0.7133  0.5796
 1523SOL     OW 5467   0.798   6.246   2.586  0.0022  0.4125 -0.0438
 1523SOL    HW1 5468   0.736   6.323   2.603  1.2596  1.5060 -0.2546
 1523SOL    HW2 5469   0.892   6.280   2.582  0.7223 -1.3287  1.1009
 1524SOL     OW 5470   6.197   0.812   6.279  0.0308 -0.4739 -0.1617
 1524SOL    HW1 5471   6.268   0.750   6.245  0.1977 -0.1140 -0.4716
 1524SOL    HW2 5472   6.185   0.888   6.215 -0.3281 -0.3005  0.1061
 1525SOL     OW 5473   1.666   6.054   3.508  0.4155 -0.1110 -0.4438
 1525SOL    HW1 5474   1.765   6.056   3.501  0.4727 -1.1061 -0.1087
 1525SOL    HW2 5475   1.630   5.981   3.449  0.2087 -2.3551  2.2611
 1526SOL     OW 5476   2.597   6.934   2.750 -0.0351  0.1270 -0.3156
 1526SOL    HW1 5477   2.576   7.023   2.791 -2.2906  0.3158 -1.6859
 1526SOL    HW2 5478   2.565   6.861   2.811  4.4205 -0.0490  2.2508
 1527SOL     OW 5479   4.331   1.719   5.716  0.0755  0.1350  0.4094
 1527SOL    HW1 5480   4.379   1.734   5.802  1.4027 -0.9807 -0.1077
 1527SOL    HW2 5481   4.275   1.799   5.695  2.2107  1.8058  0.7089
 1528SOL     OW 5482   4.045   3.798   6.391  0.1652 -0.1343  0.3577
 1528SOL    HW1 5483   4.107   3.810   6.468 -0.1292  0.6894  0.4764
 1528SOL    HW2 5484   4.092   3.749   6.317  0.9955  0.5801  0.3947
 1529SOL     OW 5485   5.744   5.979   6.716 -0.6889 -1.0198  0.2984
 1529SOL    HW1 5486   5.831   5.971   6.669  0.2918 -0.4444  1.9521
 1529SOL    HW2 5487   5.673   6.005   6.650  0.8861  1.1522 -0.6550
 1530SOL     OW 5488   0.302   2.457   4.744 -0.6899  0.0025  0.7432
 1530SOL    HW1 5489   0.289   2.459   4.843 -1.6783  1.0892  0.6208
 1530SOL    HW2 5490   0.214   2.441   4.699 -0.1456 -1.1211  0.0459
 1531SOL     OW 5491   2.226   0.255   6.655  0.3990 -0.0975  0.6894
 1531SOL    HW1 5492   2.314   0.291   6.686  1.2573  0.4580 -2.0464
 1531SOL    HW2 5493   2.240   0.200   6.572 -1.9912  1.7506 -1.0963
 1532SOL     OW 5494   5.098   0.509   5.641 -0.1735 -0.2667 -0.3898
 1532SOL    HW1 5495   5.099   0.607   5.621  0.6905 -0.3181 -0.6698
 1532SOL    HW2 5496   5.019   0.487   5.698 -0.4668  0.5644 -0.4606
 1533SOL     OW 5497   4.490   2.022   5.948 -0.1417 -0.4230  0.4058
 1533SOL    HW1 5498   4.559   2.065   6.006 -0.8220  1.4900 -0.1291
 1533SOL    HW2 5499   4.498   1.923   5.954  2.1853 -0.2453  0.8743
 1534SOL     OW 5500   4.063   5.449   4.927  0.1543  0.0756  0.0585
 1534SOL    HW1 5501   4.037   5.367   4.979  1.3549 -0.2153  0.2244
 1534SOL    HW2 5502   4.120   5.508   4.983 -0.7263  1.0627 -0.0564
 1535SOL     OW 5503   6.896   1.365   1.488  0.4990 -0.5476  0.8298
 1535SOL    HW1 5504   6.977   1.308   1.502  2.7533  2.3245  0.3833
 1535SOL    HW2 5505   6.884   1.381   1.390  0.1546  0.0346  0.9650
 1536SOL     OW 5506   4.819   6.662   2.607 -0.3192  0.4293  0.1348
 1536SOL    HW1 5507   4.896   6.665   2.671  0.7940 -1.3573 -1.0391
 1536SOL    HW2 5508   4.805   6.568   2.576  1.5357  1.5189 -4.9427
 1537SOL     OW 5509   2.675   1.466   2.444 -0.1959  0.3281  0.0278
 1537SOL    HW1 5510   2.609   1.504   2.508 -0.2158 -1.2545  1.0149
 1537SOL    HW2 5511   2.765   1.506   2.460 -0.2439  0.0937  0.9247
 1538SOL     OW 5512   1.242   3.473   5.482  0.7286  0.5294 -0.1350
 1538SOL    HW1 5513   1.337   3.499   5.500  0.9078 -0.7830  1.0445
 1538SOL    HW2 5514   1.183   3.515   5.551  0.8116 -0.6791  0.7243
 1539SOL     OW 5515   0.975   2.146   3.502 -0.0542  0.2802  0.2314
 1539SOL    HW1 5516   0.997   2.155   3.405 -1.3020 -0.3099 -0.1287
 1539SOL    HW2 5517   0.881   2.176   3.517  0.0263  0.0569  1.2157
 1540SOL     OW 5518   2.033   4.901   3.046 -0.2208 -0.3261  0.2830
 1540SOL    HW1 5519   1.960   4.851   3.093 -2.9896  2.2446 -0.8735
 1540SOL    HW2 5520   2.054   4.856   2.959 -1.3365 -0.5248  0.0933
 1541SOL     OW 5521   1.911   2.932   0.220 -0.1229 -0.0697  0.2667
 1541SOL    HW1 5522   1.910   3.030   0.236 -1.8858 -0.0757  0.3836
 1541SOL    HW2 5523   1.893   2.884   0.305  2.6705 -0.6350  0.6456
 1542SOL     OW 5524   6.693   5.841   5.027  0.1944  0.9082 -0.5317
 1542SOL    HW1 5525   6.644   5.780   4.964  2.3189  0.0300 -1.4346
 1542SOL    HW2 5526   6.680   5.936   4.999 -3.5139  1.0665  1.1299
 1543SOL     OW 5527   0.570   3.562   1.980 -0.1908 -1.1484  0.3136
 1543SOL    HW1 5528   0.640   3.516   1.926  0.1882 -1.1664  0.8119
 1543SOL    HW2 5529   0.497   3.497   2.004 -1.4428 -0.6628 -1.9315
 1544SOL     OW 5530   1.626   0.539   5.707 -0.3373 -0.7633  0.2911
 1544SOL    HW1 5531   1.640   0.626   5.754  2.6618 -0.6442 -0.6449
 1544SOL    HW2 5532   1.637   0.463   5.771 -3.0845 -0.5730  1.1372
 1545SOL     OW 5533   1.933   1.308   4.254 -0.1236  0.2129  0.1710
 1545SOL    HW1 5534   1.945   1.270   4.345  0.2891  1.6042  0.7295
 1545SOL    HW2 5535   1.839   1.291   4.223 -0.9907  1.6474  1.8219
 1546SOL     OW 5536   6.925   2.460   6.215  0.4366 -0.7396  0.1567
 1546SOL    HW1 5537   6.894   2.367   6.233 -0.7017 -0.1529  1.4078
 1546SOL    HW2 5538   6.849   2.524   6.228  1.1456  0.3569 -0.8861
 1547SOL     OW 5539   0.422   6.037   2.229  0.2368  0.3027 -0.1932
 1547SOL    HW1 5540   0.414   5.952   2.177 -0.0451 -1.5965  2.7110
 1547SOL    HW2 5541   0.341   6.094   2.213  0.8203  0.4889 -2.8261
 1548SOL     OW 5542   2.450   1.020   3.465  0.2761 -0.5671  0.4574
 1548SOL    HW1 5543   2.488   0.977   3.546  0.8849 -0.8020  0.0515
 1548SOL    HW2 5544   2.358   0.983   3.447 -0.7361  0.9315  2.1756
 1549SOL     OW 5545   0.534   2.639   2.678  0.1866 -0.9881  0.1548
 1549SOL    HW1 5546   0.440   2.672   2.685  0.2278 -0.3704 -1.7837
 1549SOL    HW2 5547   0.539   2.565   2.611  1.4564  0.7800 -1.8365
 1550SOL     OW 5548   0.731   6.554   1.437 -0.4192  0.2348  0.2586
 1550SOL    HW1 5549   0.703   6.622   1.370  0.6818  0.1681 -0.2896
 1550SOL    HW2 5550   0.785   6.599   1.509  0.3224 -0.0414 -0.1125
 1551SOL     OW 5551   1.901   2.390   6.654  0.3180 -0.5763 -1.0078
 1551SOL    HW1 5552   1.840   2.452   6.704  1.8096 -0.0875  0.2780
 1551SOL    HW2 5553   1.859   2.299   6.649  0.4376 -0.9080  1.9980
 1552SOL     OW 5554   5.318   3.909   1.968 -0.1559  0.3544 -0.4676
 1552SOL    HW1 5555   5.341   3.858   1.885 -2.6069  0.9779 -1.6156
 1552SOL    HW2 5556   5.248   3.859   2.019 -1.1445  1.6065 -0.5767
 1553SOL     OW 5557   0.293   1.975   5.968  0.3478 -0.7892  0.2327
 1553SOL    HW1 5558   0.342   1.916   6.032  0.1359 -0.4236  0.7478
 1553SOL    HW2 5559   0.355   2.006   5.896  1.0347  0.0790  1.1567
 1554SOL     OW 5560   3.281   0.042   4.952 -0.5658  0.0396 -0.0299
 1554SOL    HW1 5561   3.223  -0.037   4.974  1.4768 -1.6946 -0.5471
 1554SOL    HW2 5562   3.239   0.094   4.878 -1.2962 -1.4025 -0.6754
 1555SOL     OW 5563   6.303   1.121   5.479 -0.2405  0.6234  0.4039
 1555SOL    HW1 5564   6.361   1.041   5.492 -1.7433 -0.3332  1.4105
 1555SOL    HW2 5565   6.351   1.203   5.512  1.3389  0.1948 -0.7235
 1556SOL     OW 5566   4.738   6.157   2.705 -0.5473  0.1410  0.6110
 1556SOL    HW1 5567   4.652   6.124   2.745  0.7216 -1.2862  2.3169
 1556SOL    HW2 5568   4.766   6.097   2.631  0.5852 -1.4167  2.2128
 1557SOL     OW 5569   2.585   1.904   4.473 -0.2956 -0.2804  0.3976
 1557SOL    HW1 5570   2.526   1.918   4.393  0.2547  0.1023  0.0450
 1557SOL    HW2 5571   2.653   1.977   4.476  1.9403 -2.1762 -0.8003
 1558SOL     OW 5572   1.282   2.015   3.898 -0.2008 -0.0874 -0.0536
 1558SOL    HW1 5573   1.261   2.022   3.801 -0.4980 -1.0893 -0.0758
 1558SOL    HW2 5574   1.239   2.090   3.948 -2.2333 -0.9915 -0.3647
 1559SOL     OW 5575   3.223   1.597   0.488 -0.7965 -0.5423  0.4163
 1559SOL    HW1 5576   3.279   1.610   0.570  0.2353 -0.2802 -0.3152
 1559SOL    HW2 5577   3.212   1.499   0.471  0.7021 -0.6288 -0.2474
 1560SOL     OW 5578   5.643   3.728   4.565 -0.1981 -0.6412  0.3092
 1560SOL    HW1 5579   5.551   3.693   4.580 -0.8036  0.8195  0.2214
 1560SOL    HW2 5580   5.688   3.676   4.492 -0.9834 -1.3250  0.3070
 1561SOL     OW 5581   6.885   0.990   5.493  0.2685 -0.3786  0.6943
 1561SOL    HW1 5582   6.958   0.930   5.523  1.3877  0.2088 -0.7533
 1561SOL    HW2 5583   6.837   0.949   5.415  0.9864  0.5323 -0.2529
 1562SOL     OW 5584   0.039   6.585   0.149  0.1160 -0.5274  0.2884
 1562SOL    HW1 5585  -0.022   6.618   0.221 -0.8734 -1.9572  0.1473
 1562SOL    HW2 5586   0.045   6.485   0.153  0.7117 -0.5679 -1.0780
 1563SOL     OW 5587   5.712   2.634   0.108 -0.1121  0.1418  0.2175
 1563SOL    HW1 5588   5.730   2.730   0.129 -3.0071  1.0748 -1.1022
 1563SOL    HW2 5589   5.745   2.613   0.016  0.5576 -0.1912  0.5199
 1564SOL     OW 5590   4.641   4.712   0.513  0.1824 -0.0266 -0.0962
 1564SOL    HW1 5591   4.541   4.723   0.509  0.3681  1.9209 -0.7926
 1564SOL    HW2 5592   4.682   4.765   0.438  1.6792 -2.0874 -0.7980
 1565SOL     OW 5593   0.565   2.735   4.646  0.1450 -0.2866  0.2046
 1565SOL    HW1 5594   0.601   2.650   4.609  0.7075 -0.0832  0.2779
 1565SOL    HW2 5595   0.586   2.741   4.744  0.5405  0.1648  0.0933
 1566SOL     OW 5596   0.716   0.612   0.445  0.7061  0.0251 -0.7191
 1566SOL    HW1 5597   0.737   0.651   0.535  1.0788 -1.3372 -0.1931
 1566SOL    HW2 5598   0.801   0.592   0.398  0.5213 -0.2973 -0.9152
 1567SOL     OW 5599   3.885   4.886   6.560  0.3332  0.6730  0.2377
 1567SOL    HW1 5600   3.951   4.811   6.564 -0.4631  0.0037  1.1648
 1567SOL    HW2 5601   3.878   4.929   6.650 -0.8173  0.4445  0.2748
 1568SOL     OW 5602   3.246   5.449   1.069  0.2139 -0.2804  0.0708
 1568SOL    HW1 5603   3.175   5.473   1.003 -1.0797  0.9096  1.8050
 1568SOL    HW2 5604   3.298   5.531   1.093  1.3193 -0.8884 -0.1613
 1569SOL     OW 5605   6.696   1.874   3.740  0.7185 -0.3751  0.0177
 1569SOL    HW1 5606   6.686   1.910   3.648 -1.5121  0.5166  0.5393
 1569SOL    HW2 5607   6.762   1.799   3.740  0.2357 -0.8688 -2.4246
 1570SOL     OW 5608   2.930   6.713   6.902 -0.5603  0.5938 -0.5370
 1570SOL    HW1 5609   2.930   6.614   6.917  0.7995  0.6375 -0.0937
 1570SOL    HW2 5610   2.888   6.759   6.980 -0.5138  0.4062 -0.4017
 1571SOL     OW 5611   6.791   1.810   3.214 -0.1542  0.0233  0.1393
 1571SOL    HW1 5612   6.842   1.807   3.299 -1.4879 -0.2867  0.9602
 1571SOL    HW2 5613   6.703   1.763   3.226 -1.0280  1.3110 -0.9356
 1572SOL     OW 5614   2.397   0.529   4.279 -0.0563 -0.4106  0.0227
 1572SOL    HW1 5615   2.366   0.469   4.352  0.0259 -1.2922 -0.6519
 1572SOL    HW2 5616   2.336   0.520   4.200 -1.3494  2.0144  0.6410
 1573SOL     OW 5617   5.016   5.474   6.676 -0.5738  0.5134 -0.0179
 1573SOL    HW1 5618   5.089   5.440   6.617 -1.0666 -0.1581 -0.2494
 1573SOL    HW2 5619   4.931   5.426   6.654 -1.5696  2.6483 -1.1303
 1574SOL     OW 5620   2.072   2.613   1.951 -0.3918  0.2772 -0.3013
 1574SOL    HW1 5621   2.004   2.572   1.890 -1.3730  0.8943  0.3444
 1574SOL    HW2 5622   2.025   2.670   2.019  0.8165  1.0689 -0.1121
 1575SOL     OW 5623   0.656   2.111   0.696 -0.3114  0.0972  0.8956
 1575SOL    HW1 5624   0.670   2.155   0.785 -2.1312  2.1938  0.2173
 1575SOL    HW2 5625   0.716   2.153   0.629 -1.2986  0.8344  0.4618
 1576SOL     OW 5626   2.839   6.772   0.990  0.5091  0.6254 -0.3114
 1576SOL    HW1 5627   2.743   6.743   0.994  0.4897  0.8490  2.2382
 1576SOL    HW2 5628   2.866   6.783   0.894 -1.1837 -2.0506 -1.2200
 1577SOL     OW 5629   1.588   2.113   2.711 -0.1742 -0.0045  0.2201
 1577SOL    HW1 5630   1.524   2.188   2.725  1.1308  1.4635 -1.1213
 1577SOL    HW2 5631   1.576   2.076   2.619 -1.1339 -1.8280  1.0410
 1578SOL     OW 5632   2.211   0.534   5.080  0.3434 -0.4213  0.1804
 1578SOL    HW1 5633   2.130   0.553   5.137  1.9730  0.5577  2.3220
 1578SOL    HW2 5634   2.264   0.461   5.122  1.2619 -0.1390 -0.4669
 1579SOL     OW 5635   0.366   5.995   5.099  0.1677 -0.2805  0.1360
 1579SOL    HW1 5636   0.425   5.933   5.153 -0.4186  1.8001  3.4763
 1579SOL    HW2 5637   0.372   5.970   5.003  0.1047 -5.3881  1.1485
 1580SOL     OW 5638   1.490   0.710   6.267 -0.4069 -0.4185 -1.2156
 1580SOL    HW1 5639   1.517   0.658   6.348 -0.1711 -1.6578 -2.0616
 1580SOL    HW2 5640   1.490   0.807   6.288 -0.4817 -0.7252  0.3059
 1581SOL     OW 5641   3.105   6.208   0.191 -0.4016 -0.5296  0.3886
 1581SOL    HW1 5642   3.125   6.203   0.093  0.1521  0.9004  0.4035
 1581SOL    HW2 5643   3.133   6.122   0.235  0.0282 -0.9063 -0.5853
 1582SOL     OW 5644   6.805   5.734   5.862  0.5844  0.1882 -0.8893
 1582SOL    HW1 5645   6.768   5.720   5.770  0.1236 -0.7807 -0.5663
 1582SOL    HW2 5646   6.770   5.663   5.923 -0.1257  1.5607  0.3482
 1583SOL     OW 5647   2.370   1.365   5.343 -0.0957  0.3015  0.4899
 1583SOL    HW1 5648   2.459   1.410   5.343  0.9253 -1.4467 -2.1406
 1583SOL    HW2 5649   2.309   1.411   5.277  0.5572 -1.2559 -1.3104
 1584SOL     OW 5650   2.153   0.560   2.863 -0.2773 -0.1411  0.4910
 1584SOL    HW1 5651   2.075   0.571   2.924  0.1634  1.4802  0.8349
 1584SOL    HW2 5652   2.141   0.619   2.783  0.4145 -0.1469  0.3748
 1585SOL     OW 5653   6.684   6.813   6.395 -0.0349  0.7855  0.1953
 1585SOL    HW1 5654   6.640   6.880   6.336 -0.2351  1.6679  1.3233
 1585SOL    HW2 5655   6.783   6.826   6.391 -0.0289  0.6580 -0.1461
 1586SOL     OW 5656   1.620   0.807   5.549 -0.2318  0.4024 -0.0032
 1586SOL    HW1 5657   1.581   0.718   5.524 -0.0114  0.1071  0.6555
 1586SOL    HW2 5658   1.549   0.863   5.592  0.0760 -0.2044  1.3652
 1587SOL     OW 5659   3.856   6.900   3.057  0.0827 -0.0187  0.6744
 1587SOL    HW1 5660   3.910   6.818   3.035 -0.1266 -0.2483  1.0088
 1587SOL    HW2 5661   3.914   6.981   3.046 -0.4502  0.0818 -2.4726
 1588SOL     OW 5662   0.914   0.764   2.423 -0.4568 -0.3010  0.1160
 1588SOL    HW1 5663   0.924   0.691   2.491  2.2303 -0.6383 -0.5076
 1588SOL    HW2 5664   0.886   0.848   2.469  1.4601 -0.4747  1.7603
 1589SOL     OW 5665   2.608   5.384   4.184  0.2720 -0.1935  0.0103
 1589SOL    HW1 5666   2.518   5.354   4.217  0.0899  1.5329  1.1760
 1589SOL    HW2 5667   2.598   5.421   4.091 -0.2006 -0.1215  0.0850
 1590SOL     OW 5668   0.310   4.085   2.359  0.1862 -0.7517  0.2254
 1590SOL    HW1 5669   0.307   4.080   2.459  1.4694 -2.4987  0.2373
 1590SOL    HW2 5670   0.255   4.161   2.327  0.5176  0.4279  2.3128
 1591SOL     OW 5671   1.210   3.001   6.462 -0.0386  0.0672 -0.1208
 1591SOL    HW1 5672   1.159   3.036   6.383 -0.8192 -2.1682 -0.6602
 1591SOL    HW2 5673   1.165   3.032   6.547 -0.5045  0.6357 -0.5671
 1592SOL     OW 5674   6.140   0.156   6.624 -0.0243  0.4040 -0.7042
 1592SOL    HW1 5675   6.201   0.223   6.582 -0.0096  1.2151  0.5536
 1592SOL    HW2 5676   6.187   0.069   6.633  1.7184  1.5082  1.9843
 1593SOL     OW 5677   5.430   6.873   4.283  0.1157  0.5896 -0.3405
 1593SOL    HW1 5678   5.491   6.936   4.332  0.5056  0.1575 -0.2651
 1593SOL    HW2 5679   5.471   6.782   4.280 -0.3237  0.3975 -0.6812
 1594SOL     OW 5680   6.367   5.607   6.670  0.0581 -0.0857  0.5523
 1594SOL    HW1 5681   6.440   5.541   6.649  1.2398  0.7667  1.8111
 1594SOL    HW2 5682   6.359   5.616   6.769 -1.8208 -0.1833  0.4372
 1595SOL     OW 5683   2.007   4.310   3.408 -0.2156 -0.3312  0.4668
 1595SOL    HW1 5684   1.955   4.374   3.465  1.1663  0.8985  0.4290
 1595SOL    HW2 5685   2.030   4.229   3.462 -0.9339 -0.2505  0.9129
 1596SOL     OW 5686   5.047   6.753   1.116 -0.4519 -0.0248  0.0839
 1596SOL    HW1 5687   4.999   6.675   1.077 -1.9131  0.6926  0.3736
 1596SOL    HW2 5688   5.011   6.838   1.076  0.5988  0.5354  0.3008
 1597SOL     OW 5689   0.714   1.364   1.218  0.1476  0.2529 -0.1926
 1597SOL    HW1 5690   0.689   1.281   1.267  0.4437  0.0380 -0.4016
 1597SOL    HW2 5691   0.725   1.439   1.283 -0.9473  0.3406 -0.0807
 1598SOL     OW 5692   0.474   3.901   6.910 -0.0366 -0.1403  0.8721
 1598SOL    HW1 5693   0.415   3.822   6.893 -1.0477  0.6305  0.6816
 1598SOL    HW2 5694   0.491   3.949   6.824  1.4439 -0.7232  0.8128
 1599SOL     OW 5695   5.805   5.072   2.587  0.3352  0.4380  0.5929
 1599SOL    HW1 5696   5.712   5.045   2.560  0.1784  1.4987  0.0051
 1599SOL    HW2 5697   5.820   5.049   2.683 -0.5485  0.2750  0.7000
 1600SOL     OW 5698   1.828   3.536   5.987  0.0667  0.0227 -0.6587
 1600SOL    HW1 5699   1.921   3.501   5.996 -0.3932 -1.3653 -0.9512
 1600SOL    HW2 5700   1.796   3.522   5.893 -1.4069 -2.1908  0.0955
 1601SOL     OW 5701   3.722   3.085   4.743 -0.2541 -0.0352 -0.4518
 1601SOL    HW1 5702   3.729   3.043   4.834 -0.2626 -0.4157 -0.6249
 1601SOL    HW2 5703   3.663   3.166   4.748  0.5777  0.5498  0.0917
 1602SOL     OW 5704   5.141   3.487   1.477  0.1275  0.5277  0.1199
 1602SOL    HW1 5705   5.147   3.467   1.575 -0.3398  2.9400  0.7076
 1602SOL    HW2 5706   5.050   3.461   1.443  1.0123 -2.4093 -0.2854
 1603SOL     OW 5707   5.422   0.871   6.993  0.2361 -0.3320  0.5251
 1603SOL    HW1 5708   5.353   0.824   6.939  1.1393 -0.0482 -0.9226
 1603SOL    HW2 5709   5.467   0.806   7.054 -0.9290 -0.6187  1.0971
 1604SOL     OW 5710   3.660   5.641   7.025 -0.1102 -0.2697 -0.5271
 1604SOL    HW1 5711   3.602   5.702   7.078 -0.3790 -1.9221  1.1823
 1604SOL    HW2 5712   3.603   5.582   6.968 -0.3178 -2.5146  1.8224
 1605SOL     OW 5713   5.429   1.177   3.532  0.5314 -0.1883 -0.3341
 1605SOL    HW1 5714   5.415   1.251   3.598  2.5898  0.4160 -0.5030
 1605SOL    HW2 5715   5.506   1.120   3.563 -0.8482 -2.1396 -0.3412
 1606SOL     OW 5716   3.464   0.366   4.832  0.8817  0.2172 -0.4378
 1606SOL    HW1 5717   3.437   0.363   4.928 -3.0645  0.8643 -1.3846
 1606SOL    HW2 5718   3.462   0.460   4.799 -3.7976 -0.3538 -2.4654
 1607SOL     OW 5719   2.788   5.898   1.126  0.3791  0.0187 -0.3160
 1607SOL    HW1 5720   2.730   5.919   1.048 -0.3665 -1.8964 -0.3433
 1607SOL    HW2 5721   2.756   5.948   1.206 -1.5590 -1.2005 -0.2614
 1608SOL     OW 5722   5.776   0.599   0.497  0.3888  0.1058  0.2584
 1608SOL    HW1 5723   5.738   0.510   0.473 -3.0222  1.4834  0.0605
 1608SOL    HW2 5724   5.852   0.586   0.561 -0.5857 -2.8860  0.9663
 1609SOL     OW 5725   3.014   1.544   6.381 -0.7498  0.1920  0.7255
 1609SOL    HW1 5726   3.101   1.563   6.428 -1.2407 -0.4541  1.9320
 1609SOL    HW2 5727   2.983   1.627   6.335  0.5537  0.4065  0.1946
 1610SOL     OW 5728   4.659   0.113   1.979 -0.5064 -0.0097  0.3297
 1610SOL    HW1 5729   4.713   0.180   2.030  0.4860 -0.1379 -0.5258
 1610SOL    HW2 5730   4.714   0.030   1.964 -0.9493 -0.1522 -0.5383
 1611SOL     OW 5731   5.642   3.741   1.516 -0.7425 -0.1664 -0.0504
 1611SOL    HW1 5732   5.708   3.694   1.457 -0.3890 -0.8225  0.8532
 1611SOL    HW2 5733   5.687   3.772   1.599 -1.4570 -0.1173  0.3263
 1612SOL     OW 5734   0.331   6.928   4.131 -0.0909  0.5363  0.7532
 1612SOL    HW1 5735   0.233   6.907   4.132 -0.0354  0.1454 -0.3452
 1612SOL    HW2 5736   0.382   6.848   4.097  0.4277  1.3136 -0.3769
 1613SOL     OW 5737   1.522   1.529   5.910  0.4251 -0.1332  0.2747
 1613SOL    HW1 5738   1.548   1.542   6.006  0.0755 -0.7917  0.4612
 1613SOL    HW2 5739   1.454   1.598   5.884  0.3319 -0.1131  0.5716
 1614SOL     OW 5740   4.803   3.301   6.687 -0.0278  0.1102 -0.0598
 1614SOL    HW1 5741   4.797   3.357   6.604 -0.3430 -0.6141 -0.5343
 1614SOL    HW2 5742   4.875   3.233   6.676  1.2598  1.2433  1.0334
 1615SOL     OW 5743   6.640   6.547   1.157  0.5199  0.0942  0.3909
 1615SOL    HW1 5744   6.676   6.598   1.079 -0.6726  1.4480  0.6867
 1615SOL    HW2 5745   6.597   6.610   1.222  0.0064 -1.1785  1.3347
 1616SOL     OW 5746   1.143   0.411   3.689  0.1059  0.0086 -0.0044
 1616SOL    HW1 5747   1.110   0.417   3.595  0.6994  0.1768 -0.2012
 1616SOL    HW2 5748   1.162   0.502   3.724  0.8699 -0.1183 -0.0743
 1617SOL     OW 5749   4.651   3.218   0.999  0.0195  0.0715 -0.6027
 1617SOL    HW1 5750   4.593   3.137   1.011 -0.3642  0.5051  0.6980
 1617SOL    HW2 5751   4.637   3.280   1.077 -1.0526  2.2400 -2.4102
 1618SOL     OW 5752   0.103   4.489   3.339  0.9754  0.5654  0.0613
 1618SOL    HW1 5753   0.003   4.486   3.345  1.0436 -1.5835  1.3285
 1618SOL    HW2 5754   0.137   4.567   3.392 -0.0266  1.4539 -0.5775
 1619SOL     OW 5755   3.929   4.401   6.688 -0.3192 -0.6679 -0.1341
 1619SOL    HW1 5756   3.888   4.395   6.779 -3.1116 -0.0313 -1.2657
 1619SOL    HW2 5757   3.921   4.313   6.641  0.9931 -0.9563  0.1402
 1620SOL     OW 5758   1.222   2.911   6.901 -0.3002  0.1105 -0.1570
 1620SOL    HW1 5759   1.228   2.924   7.000  0.0319 -0.6485 -0.0643
 1620SOL    HW2 5760   1.307   2.870   6.867 -0.1164  1.0586 -0.8829
 1621SOL     OW 5761   5.810   0.229   0.398  0.2214 -0.3684 -0.2278
 1621SOL    HW1 5762   5.800   0.129   0.402  0.8895 -0.5088 -1.4686
 1621SOL    HW2 5763   5.729   0.272   0.436 -0.5115 -1.3901 -0.5863
 1622SOL     OW 5764   4.349   6.770   5.172 -0.2432  0.4241 -0.5799
 1622SOL    HW1 5765   4.342   6.862   5.212  0.8090  0.0783  0.4471
 1622SOL    HW2 5766   4.358   6.702   5.244 -0.2204 -0.4270 -1.3577
 1623SOL     OW 5767   6.321   3.584   1.115 -0.3526  0.5434 -0.1610
 1623SOL    HW1 5768   6.417   3.567   1.139  0.1614  0.9668 -1.8266
 1623SOL    HW2 5769   6.284   3.503   1.071  0.0723  1.2752 -1.9475
 1624SOL     OW 5770   5.258   2.634   5.622  0.1117  0.0694  0.5579
 1624SOL    HW1 5771   5.265   2.725   5.664  1.2534  0.3585 -0.1877
 1624SOL    HW2 5772   5.297   2.638   5.530 -2.0607 -0.6108 -0.4453
 1625SOL     OW 5773   1.354   1.808   2.072 -0.1922 -0.3093 -0.3708
 1625SOL    HW1 5774   1.430   1.745   2.056  1.0491  1.1836 -0.6311
 1625SOL    HW2 5775   1.278   1.786   2.010  0.3108 -1.3863 -0.6161
 1626SOL     OW 5776   4.206   4.746   3.273 -0.3860 -0.1797 -0.0559
 1626SOL    HW1 5777   4.143   4.734   3.196  0.9473 -0.8181 -1.0981
 1626SOL    HW2 5778   4.214   4.843   3.294 -0.8110  0.0072 -0.7075
 1627SOL     OW 5779   1.642   6.048   3.823  0.3882  0.7416  0.5553
 1627SOL    HW1 5780   1.702   6.116   3.866  0.8271  0.6882  0.0458
 1627SOL    HW2 5781   1.654   6.052   3.724  0.9763 -0.5655  0.5462
 1628SOL     OW 5782   4.135   3.305   6.373  0.2973 -0.2994 -0.1694
 1628SOL    HW1 5783   4.199   3.262   6.310  0.1255 -1.9760  0.7407
 1628SOL    HW2 5784   4.057   3.341   6.322  0.8609 -0.3161 -1.0559
 1629SOL     OW 5785   2.075   3.617   6.266 -0.0079 -0.3475 -0.4842
 1629SOL    HW1 5786   2.155   3.606   6.326 -0.7195 -3.2246  0.1012
 1629SOL    HW2 5787   1.992   3.614   6.322 -0.6138 -0.3398 -1.3769
 1630SOL     OW 5788   2.344   0.421   3.066  0.1162  0.2265  0.5259
 1630SOL    HW1 5789   2.426   0.367   3.046  0.4209  0.8878 -0.0532
 1630SOL    HW2 5790   2.287   0.425   2.983 -1.3969 -1.7014  1.3799
 1631SOL     OW 5791   1.469   3.518   0.551 -0.3748 -0.2288  0.1439
 1631SOL    HW1 5792   1.396   3.491   0.489 -0.9295  2.8184 -0.6854
 1631SOL    HW2 5793   1.432   3.530   0.643 -1.0459  1.5873 -0.3318
 1632SOL     OW 5794   5.337   4.771   5.528  0.4372  1.0172 -0.6588
 1632SOL    HW1 5795   5.365   4.677   5.547  0.9186  1.3426  0.2546
 1632SOL    HW2 5796   5.278   4.772   5.446  0.3016 -0.0893 -0.5871
 1633SOL     OW 5797   6.096   0.542   6.662 -0.0523  0.7461  0.2665
 1633SOL    HW1 5798   6.062   0.610   6.727 -0.2743  0.1093  0.8282
 1633SOL    HW2 5799   6.196   0.548   6.657 -0.0428  0.8698  0.5837
 1634SOL     OW 5800   6.426   0.641   2.263  0.4444 -0.0703 -0.4172
 1634SOL    HW1 5801   6.394   0.556   2.221  1.9679 -0.3108 -1.1595
 1634SOL    HW2 5802   6.349   0.703   2.274 -0.2219 -0.4404 -2.5497
 1635SOL     OW 5803   2.768   4.578   5.374  0.1084  0.0629  0.1453
 1635SOL    HW1 5804   2.682   4.608   5.332  0.4780  1.3165  0.2306
 1635SOL    HW2 5805   2.835   4.559   5.302  0.3818  1.0845  0.1142
 1636SOL     OW 5806   4.282   0.614   0.436 -0.1312 -0.0219  0.4432
 1636SOL    HW1 5807   4.362   0.662   0.398 -1.0251  1.7168  0.6305
 1636SOL    HW2 5808   4.277   0.522   0.398  1.5573  0.0788 -0.1110
 1637SOL     OW 5809   3.407   6.835   3.164  0.5730 -0.2379  0.2173
 1637SOL    HW1 5810   3.480   6.766   3.170 -0.2091 -1.0235  1.0138
 1637SOL    HW2 5811   3.382   6.848   3.068 -0.4865 -2.4188  0.1315
 1638SOL     OW 5812   4.237   6.399   0.326  0.5833  0.1092 -0.3005
 1638SOL    HW1 5813   4.254   6.303   0.303  1.4930  0.3019 -0.4966
 1638SOL    HW2 5814   4.158   6.405   0.387  0.1697 -0.7083 -0.7289
 1639SOL     OW 5815   1.010   0.899   6.168  0.0555  0.6398 -0.2301
 1639SOL    HW1 5816   1.102   0.903   6.130  0.0839 -0.2935 -0.2978
 1639SOL    HW2 5817   0.998   0.970   6.236  1.0591  0.3383  0.2709
 1640SOL     OW 5818   0.473   5.577   0.158 -0.2643 -0.4771 -0.0567
 1640SOL    HW1 5819   0.385   5.623   0.163 -0.9860 -1.7105 -0.8257
 1640SOL    HW2 5820   0.488   5.545   0.065  0.7768 -0.7154  0.1845
 1641SOL     OW 5821   0.261   1.742   0.399 -0.4042 -0.2651 -0.6248
 1641SOL    HW1 5822   0.195   1.667   0.409 -1.1664  0.5544  0.7403
 1641SOL    HW2 5823   0.353   1.707   0.418 -0.7487 -0.8535  0.0236
 1642SOL     OW 5824   2.754   0.257   0.743 -0.4726 -0.4949 -0.0193
 1642SOL    HW1 5825   2.684   0.285   0.677  1.2947  0.7585 -1.4505
 1642SOL    HW2 5826   2.764   0.157   0.742 -1.9137 -0.6537 -0.0863
 1643SOL     OW 5827   2.908   6.199   1.938  0.0791 -0.5566 -0.2693
 1643SOL    HW1 5828   2.828   6.258   1.956  1.9527  1.5237  2.0771
 1643SOL    HW2 5829   2.930   6.202   1.840 -0.4764  2.0102 -0.4074
 1644SOL     OW 5830   5.522   1.830   1.743  0.6054 -0.1695  0.0703
 1644SOL    HW1 5831   5.441   1.880   1.770  1.3977  1.3375 -0.2483
 1644SOL    HW2 5832   5.597   1.851   1.805  1.3553  0.2339 -0.9432
 1645SOL     OW 5833   2.250   2.208   4.701  0.0555 -0.1665 -0.1288
 1645SOL    HW1 5834   2.320   2.179   4.635  0.9326  0.2767  0.5898
 1645SOL    HW2 5835   2.195   2.282   4.661  1.2150  0.7820 -0.0187
 1646SOL     OW 5836   6.428   6.648   0.320  0.3075 -0.2225  0.8250
 1646SOL    HW1 5837   6.336   6.641   0.359  0.5474  0.6605  1.5875
 1646SOL    HW2 5838   6.495   6.631   0.392  0.7452 -1.8456  0.0540
 1647SOL     OW 5839   1.048   3.935   0.459 -0.5984 -0.5561  0.5145
 1647SOL    HW1 5840   1.142   3.901   0.452 -0.2720  0.0150  1.8995
 1647SOL    HW2 5841   1.038   4.015   0.400 -0.0079 -0.1814  0.9172
 1648SOL     OW 5842   2.760   0.529   1.055  0.1734 -0.1478  0.0753
 1648SOL    HW1 5843   2.845   0.575   1.031  0.1794 -0.5976 -0.8214
 1648SOL    HW2 5844   2.749   0.447   0.998  0.0801 -1.1721  1.5139
 1649SOL     OW 5845   4.798   1.311   6.636  0.3201  0.0867 -0.2578
 1649SOL    HW1 5846   4.742   1.327   6.554  1.3565  1.6587 -0.7022
 1649SOL    HW2 5847   4.748   1.252   6.699 -1.3897  0.5669 -1.1008
 1650SOL     OW 5848   2.174   4.241   5.166  0.5171 -0.4086  0.6092
 1650SOL    HW1 5849   2.220   4.283   5.244  0.8553  0.5363 -0.0758
 1650SOL    HW2 5850   2.218   4.154   5.144  0.9015 -0.3149  0.9950
 1651SOL     OW 5851   1.564   0.371   2.469 -0.1099  0.1296 -0.5378
 1651SOL    HW1 5852   1.620   0.359   2.551  0.7259 -0.8673 -1.2300
 1651SOL    HW2 5853   1.599   0.447   2.414  0.9485 -0.8453 -1.2500
 1652SOL     OW 5854   2.865   3.815   6.962 -0.3243 -0.0190 -0.0917
 1652SOL    HW1 5855   2.846   3.748   7.034 -2.1818  0.0671 -0.4594
 1652SOL    HW2 5856   2.886   3.766   6.877 -1.8589 -0.1642 -0.4059
 1653SOL     OW 5857   6.789   2.948   5.028  0.1477  0.0545 -0.0895
 1653SOL    HW1 5858   6.730   2.871   5.002 -0.7075  0.2647  1.1204
 1653SOL    HW2 5859   6.830   2.930   5.117  0.6024  0.6449 -0.1705
 1654SOL     OW 5860   2.691   3.168   5.304 -0.9568  0.5632  0.0057
 1654SOL    HW1 5861   2.612   3.126   5.259  0.3794 -0.5376 -1.4216
 1654SOL    HW2 5862   2.687   3.150   5.402 -0.5943 -2.8540 -0.4712
 1655SOL     OW 5863   4.500   2.569   1.445 -0.4685 -0.2436  0.2885
 1655SOL    HW1 5864   4.447   2.486   1.428  1.0680 -1.0912 -0.5656
 1655SOL    HW2 5865   4.529   2.570   1.541 -1.5357 -0.0193  0.6346
 1656SOL     OW 5866   7.023   6.501   1.877 -0.2306  0.3517 -0.2061
 1656SOL    HW1 5867   7.065   6.519   1.788 -0.8356  0.2614 -0.5086
 1656SOL    HW2 5868   6.944   6.442   1.866 -0.0555 -0.0157  0.4473
 1657SOL     OW 5869   5.169   5.044   4.225 -0.0042 -0.0152 -0.2180
 1657SOL    HW1 5870   5.225   5.027   4.305 -0.8705 -0.1875  0.3683
 1657SOL    HW2 5871   5.184   4.971   4.158 -1.0562 -1.2333  0.8127
 1658SOL     OW 5872   3.299   3.822   0.988 -0.1566 -0.3054  0.1552
 1658SOL    HW1 5873   3.262   3.834   1.080 -0.8860  1.6805 -0.3402
 1658SOL    HW2 5874   3.339   3.908   0.957  1.5777 -1.3961 -0.7775
 1659SOL     OW 5875   6.523   3.930   4.144  0.0083  0.3465  0.2324
 1659SOL    HW1 5876   6.568   3.887   4.222 -0.7588 -0.4528  0.2642
 1659SOL    HW2 5877   6.531   4.029   4.150  1.9146  0.2210  0.1143
 1660SOL     OW 5878   4.420   6.562   2.297 -0.1931  0.0552 -0.0269
 1660SOL    HW1 5879   4.405   6.482   2.239  2.2025 -0.1515 -0.4555
 1660SOL    HW2 5880   4.460   6.533   2.384  0.4306  0.7655 -0.0727
 1661SOL     OW 5881   5.564   0.691   5.495  0.2564  0.0984 -0.1631
 1661SOL    HW1 5882   5.535   0.610   5.547 -0.2451 -0.2371 -0.9557
 1661SOL    HW2 5883   5.515   0.771   5.529 -0.8944 -0.3002 -0.8214
 1662SOL     OW 5884   1.774   6.247   0.145 -0.4234  0.0846 -0.3046
 1662SOL    HW1 5885   1.748   6.211   0.235 -0.2571 -0.4749 -0.4738
 1662SOL    HW2 5886   1.775   6.172   0.078 -0.2255  0.4368 -0.7033
 1663SOL     OW 5887   0.189   4.721   3.522 -0.5003  0.3199 -0.0430
 1663SOL    HW1 5888   0.130   4.801   3.531  1.3935  2.0848 -2.0800
 1663SOL    HW2 5889   0.175   4.660   3.600 -2.2448  2.4664  1.4403
 1664SOL     OW 5890   1.251   0.279   0.014  0.1063  0.2523  0.5580
 1664SOL    HW1 5891   1.323   0.280  -0.056 -1.0735 -2.9045 -0.8362
 1664SOL    HW2 5892   1.172   0.330  -0.020 -1.0400 -2.4956 -1.2545
 1665SOL     OW 5893   1.569   6.500   0.217  0.1221  0.4566  0.3618
 1665SOL    HW1 5894   1.615   6.581   0.252  1.2340  0.8772 -1.9070
 1665SOL    HW2 5895   1.491   6.528   0.160 -1.6995 -0.2009  2.4189
 1666SOL     OW 5896   2.778   0.321   6.343  0.0691  0.3570 -0.4835
 1666SOL    HW1 5897   2.754   0.225   6.327  0.6973  0.3341 -1.3639
 1666SOL    HW2 5898   2.715   0.380   6.293 -0.9554  0.4499  0.8810
 1667SOL     OW 5899   2.562   1.049   6.672 -0.1838 -0.1620  0.6070
 1667SOL    HW1 5900   2.496   1.067   6.599 -1.6143  0.4830  2.0201
 1667SOL    HW2 5901   2.630   1.122   6.673  0.1618 -0.4461 -0.3837
 1668SOL     OW 5902   5.494   4.439   5.314  0.5059 -0.2583 -0.1181
 1668SOL    HW1 5903   5.432   4.432   5.236 -1.1358  0.0536  1.1078
 1668SOL    HW2 5904   5.553   4.519   5.303 -0.5732  0.5090 -0.4651
 1669SOL     OW 5905   2.563   6.392   4.883 -0.0451 -0.6053  0.1212
 1669SOL    HW1 5906   2.516   6.470   4.840  0.2903 -0.2546  0.3866
 1669SOL    HW2 5907   2.617   6.424   4.961  0.0586 -1.1130  0.2610
 1670SOL     OW 5908   5.706   0.732   6.667  0.3228 -0.5973  0.0339
 1670SOL    HW1 5909   5.782   0.761   6.610  0.2266 -0.7633 -0.1841
 1670SOL    HW2 5910   5.705   0.784   6.752 -0.3132  0.6104 -0.6845
 1671SOL     OW 5911   0.612   0.543   4.521  0.2580 -0.8493  0.5682
 1671SOL    HW1 5912   0.579   0.567   4.612  0.7331  0.0639  0.5136
 1671SOL    HW2 5913   0.537   0.507   4.466 -0.5753  0.8225  0.5692
 1672SOL     OW 5914   2.341   2.245   2.536 -0.1218 -0.3697 -0.4098
 1672SOL    HW1 5915   2.365   2.280   2.446 -0.7056 -1.2627 -0.9293
 1672SOL    HW2 5916   2.245   2.266   2.556 -0.0652 -0.3954 -0.1077
 1673SOL     OW 5917   6.617   1.452   1.285  0.1901  0.3660 -0.1224
 1673SOL    HW1 5918   6.700   1.484   1.331 -0.0547  0.3404  0.3493
 1673SOL    HW2 5919   6.617   1.483   1.190  0.8496  0.1658 -0.1947
 1674SOL     OW 5920   1.080   3.769   1.676 -0.9075  0.4274 -0.1181
 1674SOL    HW1 5921   1.112   3.729   1.762  0.6745 -0.3656 -1.0305
 1674SOL    HW2 5922   1.039   3.697   1.620  0.4782  0.3654 -1.0945
 1675SOL     OW 5923   4.770   1.671   3.045 -0.4008  0.6951  0.4980
 1675SOL    HW1 5924   4.776   1.722   2.959  0.9063 -1.1924 -0.6000
 1675SOL    HW2 5925   4.700   1.599   3.037  0.9206 -0.6189  0.3325
 1676SOL     OW 5926   2.605   0.468   1.556  0.1148 -0.5348  0.3012
 1676SOL    HW1 5927   2.547   0.452   1.636 -0.4471  2.5856  0.6538
 1676SOL    HW2 5928   2.698   0.439   1.576  0.5581  2.3365  3.1494
 1677SOL     OW 5929   4.984   0.668   4.318 -0.2487  0.0391 -0.1997
 1677SOL    HW1 5930   4.986   0.705   4.225  0.9695 -0.4529 -0.3964
 1677SOL    HW2 5931   5.013   0.738   4.382  0.9063 -0.1898 -0.4411
 1678SOL     OW 5932   2.436   0.755   0.240 -0.0257  0.1828 -0.5248
 1678SOL    HW1 5933   2.358   0.728   0.183 -0.0606 -1.1196  0.1103
 1678SOL    HW2 5934   2.403   0.803   0.321 -0.1095  0.4085 -0.6928
 1679SOL     OW 5935   5.896   3.306   4.506  0.2897  0.1842 -0.9845
 1679SOL    HW1 5936   5.947   3.386   4.476  1.5926 -0.7166 -1.2418
 1679SOL    HW2 5937   5.948   3.223   4.486  0.3790 -0.5971  1.9780
 1680SOL     OW 5938   6.422   6.762   1.314 -0.1318 -0.2186  0.1800
 1680SOL    HW1 5939   6.478   6.756   1.396  0.0599 -0.4612  0.0340
 1680SOL    HW2 5940   6.375   6.850   1.312 -0.2884 -0.2897  0.6437
 1681SOL     OW 5941   7.007   3.581   1.068  0.0972  0.7216 -0.0305
 1681SOL    HW1 5942   6.972   3.498   1.024 -0.3448  1.2112 -0.6175
 1681SOL    HW2 5943   6.937   3.619   1.128  1.1808 -0.7504  2.3298
 1682SOL     OW 5944   5.400   4.047   2.767 -0.2680  0.3301 -0.1122
 1682SOL    HW1 5945   5.316   3.993   2.762  0.5715 -0.8870 -3.1593
 1682SOL    HW2 5946   5.446   4.030   2.854 -1.1673 -2.1255 -0.0535
 1683SOL     OW 5947   5.794   5.801   0.567 -0.0509  0.5198  0.2699
 1683SOL    HW1 5948   5.724   5.739   0.602  2.3116 -1.5346  1.6645
 1683SOL    HW2 5949   5.803   5.879   0.629 -1.0899  0.8209  0.0586
 1684SOL     OW 5950   1.533   6.016   4.229 -0.2667  0.1373  0.4388
 1684SOL    HW1 5951   1.480   5.987   4.149 -1.3981  0.8083  0.9234
 1684SOL    HW2 5952   1.549   5.937   4.289  1.2200 -0.5310 -0.7608
 1685SOL     OW 5953   5.257   2.859   6.077  0.5663  0.1401  0.5188
 1685SOL    HW1 5954   5.317   2.832   6.152  0.9208  0.1581  0.2475
 1685SOL    HW2 5955   5.299   2.934   6.026  0.4746 -0.0786  0.1158
 1686SOL     OW 5956   4.997   2.850   5.947  0.0076 -0.2176 -0.0884
 1686SOL    HW1 5957   4.987   2.943   5.913 -0.3917  0.3851  1.5761
 1686SOL    HW2 5958   5.086   2.840   5.992 -0.5575 -0.1426  1.0990
 1687SOL     OW 5959   2.894   6.036   6.905  0.0716  0.1872  0.3491
 1687SOL    HW1 5960   2.985   6.044   6.864  0.2571  1.8387  1.0131
 1687SOL    HW2 5961   2.845   6.123   6.896 -0.7659 -0.1293  1.5468
 1688SOL     OW 5962   3.957   1.338   0.233  0.2727 -0.3334 -0.7733
 1688SOL    HW1 5963   4.045   1.383   0.222  1.0324 -1.2509  1.0602
 1688SOL    HW2 5964   3.971   1.241   0.253 -0.9024  0.0052  2.4369
 1689SOL     OW 5965   0.821   2.353   4.190  0.7245 -0.1650 -0.1501
 1689SOL    HW1 5966   0.809   2.285   4.262  1.0120 -1.2734 -1.1198
 1689SOL    HW2 5967   0.746   2.347   4.125  0.9247  0.2315 -0.4233
 1690SOL     OW 5968   6.849   1.291   5.010 -0.5046  0.2021  0.0001
 1690SOL    HW1 5969   6.761   1.337   5.008 -0.0413  1.1222  0.4147
 1690SOL    HW2 5970   6.918   1.350   4.968  0.3190  0.3831  1.5694
 1691SOL     OW 5971   2.753   1.715   4.831 -0.1927  0.0597 -0.2783
 1691SOL    HW1 5972   2.699   1.766   4.765  0.5119  0.8426 -0.2701
 1691SOL    HW2 5973   2.847   1.750   4.832 -0.6315  1.5108  2.5596
 1692SOL     OW 5974   6.840   6.429   4.603  0.1165  0.1448  0.1340
 1692SOL    HW1 5975   6.866   6.384   4.518  1.4315  0.5068  0.3189
 1692SOL    HW2 5976   6.745   6.459   4.597 -1.1494 -3.4310  0.3634
 1693SOL     OW 5977   1.129   1.140   2.284 -0.0344 -0.2508 -0.5949
 1693SOL    HW1 5978   1.211   1.157   2.339  0.0845  2.0670 -1.3381
 1693SOL    HW2 5979   1.050   1.185   2.327 -1.1662 -3.1147  0.5266
 1694SOL     OW 5980   5.978   5.207   0.757  0.1266  0.2452  0.6401
 1694SOL    HW1 5981   5.987   5.189   0.659  1.8025  2.7985  0.2228
 1694SOL    HW2 5982   5.909   5.146   0.796  0.1183 -1.5161 -1.8978
 1695SOL     OW 5983   3.330   6.931   1.176  0.8867  0.3787 -0.3795
 1695SOL    HW1 5984   3.314   6.943   1.274  0.2076  1.4291 -0.6039
 1695SOL    HW2 5985   3.282   6.849   1.145 -1.4678  1.6839 -0.3915
 1696SOL     OW 5986   1.976   2.060   4.750  0.6110 -0.0204  0.1565
 1696SOL    HW1 5987   1.909   2.122   4.710  0.2839  0.1716  0.9859
 1696SOL    HW2 5988   2.069   2.090   4.726  0.4531  0.7042  0.4337
 1697SOL     OW 5989   4.164   4.041   5.650 -0.0914  0.0206 -0.5031
 1697SOL    HW1 5990   4.258   4.012   5.634  1.0082  1.9491  1.8220
 1697SOL    HW2 5991   4.104   3.961   5.649  1.9043 -1.5819  0.1580
 1698SOL     OW 5992   5.057   0.853   0.144 -0.0503  0.0101 -0.6804
 1698SOL    HW1 5993   5.147   0.837   0.184  0.3415 -2.7310 -2.3845
 1698SOL    HW2 5994   5.057   0.941   0.096  1.6159  0.1981 -0.3928
 1699SOL     OW 5995   1.423   6.417   3.922 -0.0992  0.0529 -0.1641
 1699SOL    HW1 5996   1.461   6.509   3.922  0.3799 -0.1286 -1.0240
 1699SOL    HW2 5997   1.395   6.393   3.828 -0.5141 -0.5579  0.1087
 1700SOL     OW 5998   1.869   5.735   1.274  0.4021 -0.3866  0.0373
 1700SOL    HW1 5999   1.770   5.737   1.256  0.2806  1.1473  0.6964
 1700SOL    HW2 6000   1.890   5.658   1.334  0.0234 -2.2701 -2.1208
 1701SOL     OW 6001   2.418   6.401   1.881  0.5044 -0.0205 -0.0360
 1701SOL    HW1 6002   2.451   6.353   1.800  0.0463 -1.2771  0.5003
 1701SOL    HW2 6003   2.465   6.367   1.962  1.4838  1.7357  0.1793
 1702SOL     OW 6004   6.275   0.715   5.867 -0.0010  0.2216 -0.4156
 1702SOL    HW1 6005   6.185   0.740   5.832  0.1162  0.6722 -0.4070
 1702SOL    HW2 6006   6.344   0.737   5.797  0.2309  1.0783  0.0647
 1703SOL     OW 6007   2.430   6.441   1.005  0.3438  0.5868  0.1941
 1703SOL    HW1 6008   2.468   6.369   1.063 -2.6693 -0.1500  1.4731
 1703SOL    HW2 6009   2.464   6.430   0.911 -0.0613 -2.6418  0.2949
 1704SOL     OW 6010   6.362   0.613   6.180  0.4552 -0.2410  0.1415
 1704SOL    HW1 6011   6.363   0.513   6.179  3.2794 -0.2793  0.6985
 1704SOL    HW2 6012   6.356   0.647   6.086  0.4349 -0.9389 -0.1127
 1705SOL     OW 6013   5.561   0.774   4.304  0.0365  0.0266  0.2463
 1705SOL    HW1 6014   5.536   0.729   4.219  1.3188 -2.8784  1.2801
 1705SOL    HW2 6015   5.661   0.775   4.313 -0.0432 -1.9411  2.6789
 1706SOL     OW 6016   5.930   0.357   6.885  0.3029  0.4581  0.2548
 1706SOL    HW1 6017   5.861   0.303   6.932  0.6092 -1.8348 -1.7055
 1706SOL    HW2 6018   5.889   0.442   6.852 -1.2044 -0.1608  0.4336
 1707SOL     OW 6019   2.290   6.679   6.938 -0.1751  0.6305 -0.4049
 1707SOL    HW1 6020   2.219   6.665   6.868  0.2899  0.3262 -0.8243
 1707SOL    HW2 6021   2.306   6.593   6.987  0.4261  0.5030 -0.8160
 1708SOL     OW 6022   0.609   0.818   2.029 -0.2243  0.1694 -0.0097
 1708SOL    HW1 6023   0.626   0.727   2.067  1.1063  0.5866  0.4604
 1708SOL    HW2 6024   0.667   0.832   1.948 -0.9069  0.3541 -0.4685
 1709SOL     OW 6025   2.909   3.152   6.511  0.1045 -0.4416 -0.1634
 1709SOL    HW1 6026   2.994   3.131   6.463  0.5304 -0.2915  0.5154
 1709SOL    HW2 6027   2.902   3.096   6.593  0.4785  0.8533  0.8001
 1710SOL     OW 6028   0.294   5.773   6.598  0.4512  0.0614 -0.4082
 1710SOL    HW1 6029   0.391   5.779   6.575  0.0419 -1.7464 -2.9415
 1710SOL    HW2 6030   0.239   5.807   6.521 -0.9611 -0.0924  0.4923
 1711SOL     OW 6031   5.617   3.496   6.838  0.0135 -0.1497 -0.3665
 1711SOL    HW1 6032   5.525   3.480   6.875 -0.2701 -1.5930 -1.5930
 1711SOL    HW2 6033   5.636   3.428   6.766  0.8180  2.0247 -2.3309
 1712SOL     OW 6034   2.841   6.641   2.917 -0.3972 -0.6634 -0.2836
 1712SOL    HW1 6035   2.830   6.637   3.016  2.5038  0.8076  0.2313
 1712SOL    HW2 6036   2.894   6.562   2.886 -0.0969 -0.4074 -0.4315
 1713SOL     OW 6037   5.675   5.030   4.581 -0.1197  0.0316 -0.3943
 1713SOL    HW1 6038   5.651   5.094   4.507 -2.1951  0.3921  0.5005
 1713SOL    HW2 6039   5.701   5.082   4.662  2.0279 -0.3638 -0.7703
 1714SOL     OW 6040   0.622   0.998   2.257  0.0653  0.1124 -0.1075
 1714SOL    HW1 6041   0.601   1.078   2.201 -0.6351 -0.1434 -0.2299
 1714SOL    HW2 6042   0.599   0.915   2.206  0.5487 -0.1601  0.1123
 1715SOL     OW 6043   4.316   3.219   6.842  0.1910 -0.1810 -0.0248
 1715SOL    HW1 6044   4.246   3.273   6.795  1.4319  1.1233 -0.4339
 1715SOL    HW2 6045   4.278   3.184   6.928 -1.1376 -0.0237 -0.5189
 1716SOL     OW 6046   2.572   5.623   0.478 -0.6718 -0.4595 -0.5871
 1716SOL    HW1 6047   2.510   5.555   0.439  0.9866 -1.4719 -1.5701
 1716SOL    HW2 6048   2.637   5.654   0.408  0.4710 -0.0673  0.5992
 1717SOL     OW 6049   4.617   4.626   5.111  0.0451  0.0024  0.2756
 1717SOL    HW1 6050   4.528   4.669   5.092 -1.0040 -2.3792 -0.4761
 1717SOL    HW2 6051   4.677   4.636   5.032 -1.0361 -1.8488 -0.8458
 1718SOL     OW 6052   5.601   2.127   4.540 -0.7097  0.1574  0.0361
 1718SOL    HW1 6053   5.609   2.133   4.440 -0.7184  1.7206  0.1031
 1718SOL    HW2 6054   5.520   2.073   4.563 -1.9661  1.5569 -0.8641
 1719SOL     OW 6055   3.283   5.927   7.020 -0.1518  0.0126  0.0595
 1719SOL    HW1 6056   3.318   5.866   6.948 -0.6363 -0.0596 -0.1250
 1719SOL    HW2 6057   3.276   6.020   6.984  3.6041  0.9130  1.2700
 1720SOL     OW 6058   6.341   1.578   3.302  0.0066 -0.2773 -0.5083
 1720SOL    HW1 6059   6.340   1.525   3.217 -1.6300 -0.5519 -0.3396
 1720SOL    HW2 6060   6.252   1.621   3.316  0.1630 -0.4473  1.2159
 1721SOL     OW 6061   4.737   2.716   3.765 -0.4668  0.2651  0.2591
 1721SOL    HW1 6062   4.698   2.753   3.681 -1.2093  0.3843  0.6423
 1721SOL    HW2 6063   4.809   2.778   3.799  0.1369 -0.0088 -0.5128
 1722SOL     OW 6064   1.167   3.079   2.080  0.0544  0.1530 -0.0457
 1722SOL    HW1 6065   1.098   3.075   2.152 -2.1458  0.6977 -2.0052
 1722SOL    HW2 6066   1.246   3.129   2.113 -1.6585  2.0697  1.4153
 1723SOL     OW 6067   1.059   5.180   6.074  0.1370 -0.1687 -0.1511
 1723SOL    HW1 6068   1.078   5.179   6.172  1.0604 -1.4541 -0.3191
 1723SOL    HW2 6069   0.964   5.208   6.059 -0.3528 -0.9851  1.1856
 1724SOL     OW 6070   7.008   6.058   1.002  0.0111  0.1534 -0.3191
 1724SOL    HW1 6071   7.040   5.966   1.027  2.1652  0.6423 -1.0478
 1724SOL    HW2 6072   7.080   6.105   0.952 -1.4552  1.8862 -0.8771
 1725SOL     OW 6073   2.989   5.203   7.006 -0.7936 -0.6631 -0.6600
 1725SOL    HW1 6074   3.013   5.297   7.029  0.1546 -0.8120 -0.9655
 1725SOL    HW2 6075   3.014   5.143   7.083 -0.3908 -0.7948 -0.8912
 1726SOL     OW 6076   3.542   0.325   2.835  0.2676  0.5187  0.5406
 1726SOL    HW1 6077   3.631   0.289   2.863  0.3094  0.1240 -0.0699
 1726SOL    HW2 6078   3.556   0.401   2.771  0.1785  1.5791  1.7387
 1727SOL     OW 6079   3.214   3.261   2.614  0.5946 -0.3569  0.2784
 1727SOL    HW1 6080   3.166   3.243   2.527  0.0390  0.9573  0.2935
 1727SOL    HW2 6081   3.177   3.200   2.685  0.4353 -0.8312 -0.2031
 1728SOL     OW 6082   5.652   2.592   2.940  0.5206 -0.3770 -0.7375
 1728SOL    HW1 6083   5.572   2.569   2.885  0.1240  1.5285 -1.0086
 1728SOL    HW2 6084   5.646   2.545   3.028 -0.7345 -0.5060 -0.8718
 1729SOL     OW 6085   4.850   5.668   5.206  1.6597  0.8849 -0.5620
 1729SOL    HW1 6086   4.871   5.662   5.109 -0.6162  0.5779 -1.0948
 1729SOL    HW2 6087   4.778   5.602   5.229 -1.0103  3.8449  0.3494
 1730SOL     OW 6088   2.863   4.780   3.581  0.0656  0.6354  0.1576
 1730SOL    HW1 6089   2.908   4.774   3.670 -1.4909  2.5671  1.1799
 1730SOL    HW2 6090   2.904   4.854   3.528 -0.3665  0.9009  0.1797
 1731SOL     OW 6091   3.739   1.223   0.599  0.2284  0.1920 -0.4533
 1731SOL    HW1 6092   3.738   1.289   0.674 -2.9749  1.3315 -1.3402
 1731SOL    HW2 6093   3.764   1.270   0.514  0.1461 -0.2544 -0.7287
 1732SOL     OW 6094   2.865   1.076   1.555  0.0454  0.0254 -0.1691
 1732SOL    HW1 6095   2.830   0.985   1.579 -0.6341 -0.1989 -1.8631
 1732SOL    HW2 6096   2.830   1.102   1.465 -1.8419  3.0379  1.2554
 1733SOL     OW 6097   5.840   5.433   4.635 -0.1755 -0.3758 -0.1039
 1733SOL    HW1 6098   5.917   5.370   4.631 -0.4852 -0.9222  1.7834
 1733SOL    HW2 6099   5.867   5.515   4.685 -0.1002  0.5679 -1.6199
 1734SOL     OW 6100   4.516   0.004   6.261 -0.3183  0.0848 -0.7872
 1734SOL    HW1 6101   4.418   0.009   6.242 -0.7718 -0.2341  1.2556
 1734SOL    HW2 6102   4.551   0.096   6.281 -0.3626  0.1099 -0.8244
 1735SOL     OW 6103   4.309   1.625   5.439 -0.4067  0.3821 -0.1765
 1735SOL    HW1 6104   4.324   1.665   5.529 -3.4325 -0.4119  0.7837
 1735SOL    HW2 6105   4.239   1.678   5.390 -1.6165 -1.4140 -0.4601
 1736SOL     OW 6106   6.115   3.644   3.595 -0.7043  0.2802 -0.0148
 1736SOL    HW1 6107   6.118   3.679   3.502 -0.9117 -0.5913 -0.3645
 1736SOL    HW2 6108   6.089   3.717   3.658  1.7748  1.5310 -0.2891
 1737SOL     OW 6109   6.801   4.379   2.239  0.0094 -0.0377 -0.0449
 1737SOL    HW1 6110   6.721   4.438   2.253 -1.6491 -1.8778 -1.2551
 1737SOL    HW2 6111   6.829   4.340   2.327  0.4589  1.6654  0.5986
 1738SOL     OW 6112   4.006   0.425   5.772 -0.0031 -0.8333 -0.1636
 1738SOL    HW1 6113   4.081   0.360   5.786  1.6175  0.9663  0.0563
 1738SOL    HW2 6114   4.029   0.511   5.817 -3.0318 -0.7254  1.3723
 1739SOL     OW 6115   3.341   5.349   5.125  0.0097  0.6071  0.1902
 1739SOL    HW1 6116   3.296   5.395   5.048 -0.0536 -0.4738 -0.4398
 1739SOL    HW2 6117   3.316   5.395   5.210  0.9945  2.5471 -0.5019
 1740SOL     OW 6118   6.885   5.559   2.308 -0.6898  0.0075  0.6020
 1740SOL    HW1 6119   6.865   5.656   2.315 -0.3238  0.2639 -1.3271
 1740SOL    HW2 6120   6.984   5.544   2.315 -0.4939  0.0833 -1.3070
 1741SOL     OW 6121   2.046   3.089   4.252 -0.2647  0.5931 -0.0322
 1741SOL    HW1 6122   2.026   3.098   4.155 -0.4635 -0.2975 -0.0808
 1741SOL    HW2 6123   2.046   3.180   4.295  2.9925  1.3876 -1.4277
 1742SOL     OW 6124   0.588   0.803   1.200 -0.1095  0.4157 -0.1067
 1742SOL    HW1 6125   0.546   0.729   1.252  0.0802  0.2052 -0.2527
 1742SOL    HW2 6126   0.522   0.837   1.132  1.2733 -2.8655 -3.4370
 1743SOL     OW 6127   1.730   6.916   4.455 -0.0282 -0.5439  0.1550
 1743SOL    HW1 6128   1.735   6.825   4.413  0.4760 -0.8239  0.8089
 1743SOL    HW2 6129   1.750   6.909   4.553 -1.8975 -0.0213  0.6315
 1744SOL     OW 6130   1.551   2.791   4.979 -0.1967  0.6497  0.1676
 1744SOL    HW1 6131   1.487   2.739   4.922  0.8733  0.1282 -0.5807
 1744SOL    HW2 6132   1.560   2.884   4.943  1.0369  0.1128 -1.0176
 1745SOL     OW 6133   5.780   1.931   5.005  0.2892 -0.0864  0.1857
 1745SOL    HW1 6134   5.765   1.953   4.908  0.4689 -0.3265  0.1030
 1745SOL    HW2 6135   5.722   1.990   5.061 -1.1186 -1.0940 -0.1283
 1746SOL     OW 6136   6.342   5.709   2.908  0.4155  0.1008  0.0227
 1746SOL    HW1 6137   6.245   5.706   2.883  0.0310  1.3675  1.2749
 1746SOL    HW2 6138   6.397   5.724   2.825 -0.5121  0.1436 -0.5991
 1747SOL     OW 6139   1.770   1.749   2.965 -0.1012  0.6738  0.2327
 1747SOL    HW1 6140   1.858   1.725   3.005  0.3343  1.5149 -0.2103
 1747SOL    HW2 6141   1.698   1.696   3.010  0.6589 -0.3013  0.3436
 1748SOL     OW 6142   6.088   4.770   0.041 -0.0400  0.0866 -0.2522
 1748SOL    HW1 6143   6.131   4.681   0.028  3.4832  1.3232  1.6932
 1748SOL    HW2 6144   6.000   4.758   0.087  0.5962 -2.3711  0.4724
 1749SOL     OW 6145   1.830   1.529   5.320  0.3061 -0.6707 -0.5946
 1749SOL    HW1 6146   1.772   1.449   5.332  1.3557 -1.2076  1.4200
 1749SOL    HW2 6147   1.899   1.510   5.250  2.3393 -2.7492  1.7449
 1750SOL     OW 6148   5.585   4.165   3.742 -0.5435  0.2348  0.0755
 1750SOL    HW1 6149   5.539   4.253   3.758 -1.5968 -0.2269 -0.3111
 1750SOL    HW2 6150   5.683   4.175   3.759 -0.5069  1.7251 -0.8324
 1751SOL     OW 6151   2.848   2.091   5.914  0.2527 -0.3377  0.5147
 1751SOL    HW1 6152   2.787   2.022   5.874  0.3702  0.0495 -0.3305
 1751SOL    HW2 6153   2.912   2.124   5.845  1.7609 -1.0868  1.5023
 1752SOL     OW 6154   0.219   3.004   5.381  0.2314 -0.3088  0.6708
 1752SOL    HW1 6155   0.258   3.057   5.457 -1.0511 -0.8674  1.7601
 1752SOL    HW2 6156   0.286   2.998   5.307  2.1863 -1.1020  2.3786
 1753SOL     OW 6157   2.094   4.662   0.575 -0.5776 -0.0516  0.3360
 1753SOL    HW1 6158   2.128   4.605   0.649 -0.7878 -1.0210 -0.3035
 1753SOL    HW2 6159   2.021   4.721   0.610  0.6010  0.8933  1.3321
 1754SOL     OW 6160   1.785   0.042   6.512 -0.2067 -0.7043  0.5822
 1754SOL    HW1 6161   1.695   0.075   6.541 -0.2196 -0.6197  0.4500
 1754SOL    HW2 6162   1.813  -0.034   6.570 -0.4896 -0.9166  0.4409
 1755SOL     OW 6163   6.116   5.956   0.456 -0.0851  0.3756 -0.0475
 1755SOL    HW1 6164   6.124   6.031   0.390 -0.7437  0.6756  0.2099
 1755SOL    HW2 6165   6.166   5.979   0.539  2.1101 -0.6667 -0.9925
 1756SOL     OW 6166   1.334   5.593   3.247 -0.0426 -0.1906  0.8499
 1756SOL    HW1 6167   1.399   5.653   3.199  0.1231 -0.3842  0.8325
 1756SOL    HW2 6168   1.280   5.543   3.180  0.1272 -0.3945  0.8650
 1757SOL     OW 6169   6.628   2.673   4.994  1.0741 -0.3881  0.3739
 1757SOL    HW1 6170   6.675   2.697   4.909  1.3832 -0.8373  0.4132
 1757SOL    HW2 6171   6.529   2.674   4.978  0.9386  2.8369  0.8891
 1758SOL     OW 6172   0.817   3.297   5.297  0.1475 -0.4267  0.0702
 1758SOL    HW1 6173   0.783   3.315   5.389 -0.8899  0.2221 -0.4280
 1758SOL    HW2 6174   0.740   3.281   5.235  0.6959  1.3007 -1.1340
 1759SOL     OW 6175   0.010   0.663   5.157  0.3365 -0.1266 -0.0290
 1759SOL    HW1 6176   0.090   0.649   5.215  0.7219  1.2130 -0.1970
 1759SOL    HW2 6177   0.012   0.755   5.119 -2.0622  0.4802  1.1269
 1760SOL     OW 6178   1.465   1.420   1.539 -0.0801 -0.3639  0.4270
 1760SOL    HW1 6179   1.393   1.388   1.477  0.0560  0.7084 -0.2982
 1760SOL    HW2 6180   1.483   1.349   1.607 -0.9910 -1.1271 -0.0957
 1761SOL     OW 6181   6.950   0.461   3.998  0.0737 -0.4506 -0.0211
 1761SOL    HW1 6182   6.933   0.560   3.992  3.5226  0.4357  1.9951
 1761SOL    HW2 6183   6.928   0.429   4.091  0.3512 -1.2405 -0.2179
 1762SOL     OW 6184   2.104   4.825   1.987 -0.0735  0.0783  0.9296
 1762SOL    HW1 6185   2.141   4.744   2.033 -1.6905  0.1372  2.4913
 1762SOL    HW2 6186   2.101   4.901   2.052 -1.8926  0.3405  0.6101
 1763SOL     OW 6187   0.814   0.441   6.192 -0.0477 -0.1154 -0.9659
 1763SOL    HW1 6188   0.836   0.345   6.172  0.2571 -0.2222 -0.1457
 1763SOL    HW2 6189   0.898   0.496   6.185  0.1086 -0.1852  0.1506
 1764SOL     OW 6190   3.193   0.433   6.395  0.2557  0.1857 -0.2833
 1764SOL    HW1 6191   3.168   0.475   6.308 -0.3933  1.3306  0.4190
 1764SOL    HW2 6192   3.114   0.432   6.456  0.6161 -0.8931  0.1925
 1765SOL     OW 6193   1.835   5.483   7.008 -0.0984  0.5556 -0.1995
 1765SOL    HW1 6194   1.921   5.484   6.956  1.3203  1.3454  2.0123
 1765SOL    HW2 6195   1.828   5.566   7.063 -0.9184 -0.7046  1.7323
 1766SOL     OW 6196   6.263   7.000   6.140 -0.0096  0.5164 -0.3381
 1766SOL    HW1 6197   6.174   6.984   6.183  0.3643 -0.2605  0.1724
 1766SOL    HW2 6198   6.261   7.086   6.089 -1.0700  0.4695 -0.3877
 1767SOL     OW 6199   5.112   2.993   0.190 -0.4641 -0.2993 -0.4478
 1767SOL    HW1 6200   5.067   2.927   0.130 -0.5789  1.0094 -1.8603
 1767SOL    HW2 6201   5.185   3.040   0.140  3.3661 -3.0195  2.0120
 1768SOL     OW 6202   0.303   4.460   2.533 -0.6560 -0.0424 -0.4343
 1768SOL    HW1 6203   0.353   4.408   2.602 -0.3153  0.3625 -0.3699
 1768SOL    HW2 6204   0.294   4.555   2.564 -2.9297 -0.4387  0.3627
 1769SOL     OW 6205   0.131   6.973   1.718 -0.6000 -0.2822  0.3351
 1769SOL    HW1 6206   0.155   7.056   1.669  0.1354 -0.1640  0.8782
 1769SOL    HW2 6207   0.169   6.976   1.811 -0.0248 -1.4818  0.1628
 1770SOL     OW 6208   3.291   6.443   4.578 -0.1651  0.4230 -0.3267
 1770SOL    HW1 6209   3.332   6.353   4.564 -0.0378  0.4634 -0.2095
 1770SOL    HW2 6210   3.204   6.448   4.529 -0.5515 -0.0361  0.3148
 1771SOL     OW 6211   2.057   3.195   0.084  0.3792 -0.4315  0.3612
 1771SOL    HW1 6212   1.987   3.186   0.013 -0.4337  1.3601  0.9038
 1771SOL    HW2 6213   2.014   3.203   0.173  1.0386  3.2598  0.4920
 1772SOL     OW 6214   6.641   0.555   2.401 -0.3813 -0.0705 -0.3654
 1772SOL    HW1 6215   6.574   0.606   2.347 -2.1757 -1.4675  0.4375
 1772SOL    HW2 6216   6.609   0.461   2.414  0.4319 -0.0614  2.2641
 1773SOL     OW 6217   0.105   5.150   2.797  0.0286 -0.7676 -0.0867
 1773SOL    HW1 6218   0.071   5.155   2.703 -0.7053 -0.3793  0.1847
 1773SOL    HW2 6219   0.195   5.192   2.803  0.5130 -1.6514 -0.7960
 1774SOL     OW 6220   6.290   6.661   3.425 -0.3071 -0.3363  0.4489
 1774SOL    HW1 6221   6.235   6.682   3.506 -1.2839  0.2543 -0.3276
 1774SOL    HW2 6222   6.262   6.721   3.350  0.4231 -1.0128 -0.3896
 1775SOL     OW 6223   0.321   3.074   3.437 -0.3808 -0.3219  0.5035
 1775SOL    HW1 6224   0.378   3.035   3.509  0.7506  0.6444  0.1587
 1775SOL    HW2 6225   0.266   3.149   3.474 -1.2640 -1.0820  0.7753
 1776SOL     OW 6226   4.968   0.233   1.236  0.5021  0.3305  0.3883
 1776SOL    HW1 6227   5.064   0.210   1.217  0.5927  1.2863 -0.3538
 1776SOL    HW2 6228   4.941   0.190   1.323  1.6889  0.3012  0.7698
 1777SOL     OW 6229   4.937   6.088   3.080 -0.2061 -0.0371 -0.0971
 1777SOL    HW1 6230   4.870   6.033   3.129 -0.6276 -1.0955 -1.7559
 1777SOL    HW2 6231   5.028   6.047   3.091 -0.5989 -1.5265 -1.7962
 1778SOL     OW 6232   1.666   5.604   4.190  0.3282  0.0890 -0.0081
 1778SOL    HW1 6233   1.697   5.526   4.135  0.8688  0.5737 -0.4013
 1778SOL    HW2 6234   1.606   5.662   4.134  0.8490  0.5641 -0.0795
 1779SOL     OW 6235   5.443   5.191   2.390  0.8124 -0.1694 -0.4881
 1779SOL    HW1 6236   5.357   5.219   2.348  0.7802 -0.3024 -0.5105
 1779SOL    HW2 6237   5.514   5.259   2.369 -0.0100  1.6321  2.1702
 1780SOL     OW 6238   5.274   7.010   2.396  0.0535 -0.1106  0.4298
 1780SOL    HW1 6239   5.290   7.031   2.299  0.5462 -0.2137  0.4864
 1780SOL    HW2 6240   5.225   7.085   2.439  0.0848  0.0630  0.1669
 1781SOL     OW 6241   3.343   0.135   4.329 -0.3408  0.2395  0.0683
 1781SOL    HW1 6242   3.386   0.193   4.398  0.2680 -0.3904  0.2274
 1781SOL    HW2 6243   3.355   0.176   4.238 -1.4147  1.2301  0.3435
 1782SOL     OW 6244   7.007   1.482   3.142  0.2850  0.0659 -0.4722
 1782SOL    HW1 6245   6.971   1.494   3.234 -0.6508  0.8973 -0.9289
 1782SOL    HW2 6246   6.945   1.423   3.090  1.1475 -0.9434 -0.3918
 1783SOL     OW 6247   1.144   6.019   1.406  0.5061  0.3087  0.0117
 1783SOL    HW1 6248   1.165   5.956   1.332 -1.0152  0.7240 -0.8239
 1783SOL    HW2 6249   1.062   6.072   1.382 -0.2165  0.2350  2.1067
 1784SOL     OW 6250   6.884   0.663   1.184 -0.0977 -0.0652 -0.1358
 1784SOL    HW1 6251   6.819   0.698   1.116 -0.0087 -0.5860 -0.4887
 1784SOL    HW2 6252   6.838   0.655   1.273 -0.5747 -0.6239 -0.4285
 1785SOL     OW 6253   6.571   3.654   6.074  0.1651 -0.1946  0.2436
 1785SOL    HW1 6254   6.478   3.657   6.038 -0.1345 -0.9621  0.9326
 1785SOL    HW2 6255   6.601   3.559   6.083  0.6559  0.0207  0.9474
 1786SOL     OW 6256   2.631   1.219   3.266  0.2748  0.2260 -0.6637
 1786SOL    HW1 6257   2.549   1.165   3.252 -0.2694  0.5604  0.9716
 1786SOL    HW2 6258   2.677   1.190   3.350  0.3991  1.7371 -0.1683
 1787SOL     OW 6259   5.099   4.923   1.116 -0.2117 -0.4371 -0.3544
 1787SOL    HW1 6260   5.055   4.856   1.175  0.0387 -1.3250 -1.1587
 1787SOL    HW2 6261   5.198   4.922   1.132 -0.1517 -0.6258 -0.7334
 1788SOL     OW 6262   3.207   3.058   6.876 -0.2548  0.0768  0.1281
 1788SOL    HW1 6263   3.160   3.038   6.962 -0.4547 -1.5557 -0.3282
 1788SOL    HW2 6264   3.275   2.986   6.857  0.3103  0.8084 -0.7136
 1789SOL     OW 6265   3.819   1.820   2.678 -0.0042  0.4081  0.0484
 1789SOL    HW1 6266   3.878   1.742   2.655 -1.5836 -0.5875 -0.8713
 1789SOL    HW2 6267   3.851   1.901   2.629  1.6957  0.3849  1.0511
 1790SOL     OW 6268   5.745   0.302   2.552  0.3357  0.0259  0.2295
 1790SOL    HW1 6269   5.774   0.395   2.572 -0.0605  0.3386 -0.6298
 1790SOL    HW2 6270   5.733   0.291   2.454  0.9291 -1.0948  0.2618
 1791SOL     OW 6271   0.059   3.435   2.286 -0.7241  0.2472 -0.6114
 1791SOL    HW1 6272   0.138   3.388   2.325 -1.8254 -0.5984  0.7286
 1791SOL    HW2 6273   0.065   3.435   2.186  0.6839 -0.2847 -0.5410
 1792SOL     OW 6274   0.358   5.988   1.254 -0.2226  0.1243  0.2515
 1792SOL    HW1 6275   0.351   6.068   1.194  0.3443 -0.2346 -0.3026
 1792SOL    HW2 6276   0.348   5.905   1.200  0.6728 -0.2127  0.5865
 1793SOL     OW 6277   2.586   0.239   4.223  0.4851  0.1200  1.2386
 1793SOL    HW1 6278   2.539   0.247   4.135 -0.8092 -1.9102  1.6685
 1793SOL    HW2 6279   2.542   0.298   4.290 -0.9729 -1.1001  1.4100
 1794SOL     OW 6280   4.794   0.836   3.132 -0.1512 -0.0172  0.6055
 1794SOL    HW1 6281   4.826   0.897   3.205  2.0282 -1.3144  0.8144
 1794SOL    HW2 6282   4.755   0.754   3.172 -0.4121 -0.0315  0.3196
 1795SOL     OW 6283   6.636   6.606   1.706 -0.0493 -0.2766  0.1582
 1795SOL    HW1 6284   6.728   6.613   1.668  0.1252 -0.4023  0.5521
 1795SOL    HW2 6285   6.634   6.648   1.796 -0.0015 -1.5839  0.7879
 1796SOL     OW 6286   3.413   3.857   3.383  0.1698  0.4598  0.2153
 1796SOL    HW1 6287   3.347   3.917   3.337  0.5336  1.6654  1.2080
 1796SOL    HW2 6288   3.405   3.764   3.347 -1.4125  0.7897 -0.3369
 1797SOL     OW 6289   3.441   0.184   5.354 -0.2414  0.0342  0.0114
 1797SOL    HW1 6290   3.432   0.088   5.378 -0.0337 -0.1104 -0.4711
 1797SOL    HW2 6291   3.528   0.219   5.388 -0.0158 -0.1298 -0.3881
 1798SOL     OW 6292   1.399   4.619   0.069 -0.5849 -0.7858 -0.6846
 1798SOL    HW1 6293   1.316   4.588   0.023 -0.7408 -0.7823 -0.4086
 1798SOL    HW2 6294   1.439   4.543   0.120 -2.5198  0.0574  2.3402
 1799SOL     OW 6295   6.270   5.533   3.269 -0.2759  0.0430  0.3603
 1799SOL    HW1 6296   6.338   5.519   3.197 -1.8598 -1.0550 -0.9943
 1799SOL    HW2 6297   6.302   5.605   3.331  1.6395  0.2562 -0.7884
 1800SOL     OW 6298   1.277   6.578   1.930  0.0003 -0.5030 -0.9521
 1800SOL    HW1 6299   1.203   6.531   1.978  0.1515 -1.5879 -1.7372
 1800SOL    HW2 6300   1.352   6.595   1.993  1.1188 -3.8859 -1.1668
 1801SOL     OW 6301   5.262   1.166   4.348 -0.0580 -1.2230  0.1736
 1801SOL    HW1 6302   5.213   1.141   4.431 -1.9811 -1.6769 -1.0281
 1801SOL    HW2 6303   5.237   1.259   4.321  0.5123 -1.0956  0.0669
 1802SOL     OW 6304   1.519   0.411   6.113  0.1592 -0.1572  0.0752
 1802SOL    HW1 6305   1.441   0.471   6.099 -2.6812 -2.6792  3.2744
 1802SOL    HW2 6306   1.508   0.328   6.059  0.8229 -0.3860  0.2795
 1803SOL     OW 6307   3.079   0.998   3.845 -0.1785 -0.4871 -0.6200
 1803SOL    HW1 6308   3.024   0.922   3.880 -0.9825  0.3197 -0.1174
 1803SOL    HW2 6309   3.023   1.080   3.838  0.8021  0.1949 -0.6901
 1804SOL     OW 6310   2.806   5.532   3.500 -0.0290 -0.0283  0.6569
 1804SOL    HW1 6311   2.728   5.576   3.455  1.8226  0.8086 -1.9495
 1804SOL    HW2 6312   2.780   5.440   3.530 -1.8742  0.0066 -0.6780
 1805SOL     OW 6313   5.969   6.212   2.820 -0.2175  0.1025 -0.1995
 1805SOL    HW1 6314   5.972   6.267   2.736  0.7395  1.4746  0.6790
 1805SOL    HW2 6315   5.875   6.183   2.838 -1.1082  2.8243  0.0798
 1806SOL     OW 6316   4.071   4.936   0.641  0.0824 -0.1521 -0.2794
 1806SOL    HW1 6317   4.045   4.964   0.548 -0.7141  0.9117  0.2418
 1806SOL    HW2 6318   4.105   5.015   0.691 -0.3704 -0.5152  0.6271
 1807SOL     OW 6319   0.108   0.477   3.256 -0.3905 -0.4442 -0.4469
 1807SOL    HW1 6320   0.111   0.413   3.333 -1.9911 -0.0569 -0.0156
 1807SOL    HW2 6321   0.134   0.568   3.288 -2.1698 -0.0424 -0.0558
 1808SOL     OW 6322   4.441   3.246   1.731 -0.0164  0.0393  0.7886
 1808SOL    HW1 6323   4.365   3.217   1.674  0.9126 -1.5382  0.3022
 1808SOL    HW2 6324   4.480   3.167   1.778  1.3839  0.7955  0.9449
 1809SOL     OW 6325   5.647   6.286   2.550 -0.4112 -0.3075  0.6550
 1809SOL    HW1 6326   5.581   6.325   2.615 -1.3933 -1.0875  0.1331
 1809SOL    HW2 6327   5.639   6.333   2.462  1.3274  1.1564  1.2052
 1810SOL     OW 6328   0.648   3.131   1.054 -0.1253  0.7747 -0.1304
 1810SOL    HW1 6329   0.569   3.191   1.069 -0.8360  0.1113 -1.0810
 1810SOL    HW2 6330   0.698   3.162   0.973  0.7211  1.3090  0.5816
 1811SOL     OW 6331   5.193   0.320   2.127  0.1921  0.4218  0.4497
 1811SOL    HW1 6332   5.111   0.376   2.126  0.0422  0.2529  1.5656
 1811SOL    HW2 6333   5.197   0.263   2.045 -1.3467 -0.3300  0.8729
 1812SOL     OW 6334   1.510   4.149   4.946 -0.2955  0.6147  0.4430
 1812SOL    HW1 6335   1.466   4.106   4.868  0.5217  0.6209 -0.0337
 1812SOL    HW2 6336   1.444   4.206   4.995 -1.2292 -0.6421  0.6982
 1813SOL     OW 6337   0.906   0.589   2.632 -0.1285 -0.2553  0.0737
 1813SOL    HW1 6338   0.946   0.503   2.664  0.2848  0.0542  0.4149
 1813SOL    HW2 6339   0.837   0.620   2.697 -0.7748 -0.6814 -0.4069
 1814SOL     OW 6340   2.788   1.000   6.303  0.3441 -0.6005 -0.0362
 1814SOL    HW1 6341   2.782   1.051   6.217 -0.2024  0.6743  0.7401
 1814SOL    HW2 6342   2.703   0.951   6.319  0.4604 -0.8706 -0.2259
 1815SOL     OW 6343   4.597   5.930   1.398 -0.5089 -0.0858 -0.3085
 1815SOL    HW1 6344   4.561   6.021   1.375 -0.0134  0.0426 -0.5962
 1815SOL    HW2 6345   4.687   5.919   1.356 -0.6893 -0.8240 -0.5130
 1816SOL     OW 6346   3.177   3.160   4.282  0.4963 -0.1247  0.1601
 1816SOL    HW1 6347   3.247   3.225   4.255  0.3192 -0.7261 -1.9440
 1816SOL    HW2 6348   3.134   3.190   4.367  1.1602  1.9064 -0.1759
 1817SOL     OW 6349   1.216   4.617   1.777  0.6174  0.2295 -0.3783
 1817SOL    HW1 6350   1.213   4.519   1.754  0.0798  0.2077 -0.2425
 1817SOL    HW2 6351   1.167   4.632   1.864  1.9711  0.4161  0.3728
 1818SOL     OW 6352   1.938   4.150   2.148 -0.4561 -0.2914  0.2280
 1818SOL    HW1 6353   1.986   4.081   2.202 -1.0882 -1.0282 -0.1189
 1818SOL    HW2 6354   1.950   4.131   2.051 -0.3534  0.2951  0.1222
 1819SOL     OW 6355   6.846   0.693   2.483  0.8182  0.3318  0.0734
 1819SOL    HW1 6356   6.765   0.637   2.462  0.2013  1.7758 -1.7480
 1819SOL    HW2 6357   6.927   0.635   2.483  0.1430 -0.6821 -1.2569
 1820SOL     OW 6358   5.250   4.623   3.182 -0.6091  0.1483 -0.5429
 1820SOL    HW1 6359   5.160   4.651   3.148 -0.8279 -1.0022 -0.9496
 1820SOL    HW2 6360   5.296   4.702   3.224 -1.6945  0.8022 -0.5554
 1821SOL     OW 6361   3.757   2.411   1.180  0.0639 -0.1070  0.2698
 1821SOL    HW1 6362   3.663   2.419   1.216 -0.2307 -1.2355 -0.1933
 1821SOL    HW2 6363   3.804   2.498   1.191 -1.1486  0.5830  0.2069
 1822SOL     OW 6364   0.038   1.995   2.268  0.8363 -0.3306 -0.2321
 1822SOL    HW1 6365  -0.057   1.984   2.296 -0.1012  0.2716 -2.8658
 1822SOL    HW2 6366   0.068   2.089   2.283  0.5181 -0.1454 -0.7494
 1823SOL     OW 6367   4.619   6.086   0.908  0.1671  0.5913  0.0543
 1823SOL    HW1 6368   4.709   6.090   0.864  1.1007  1.6953  1.9327
 1823SOL    HW2 6369   4.609   6.163   0.971 -1.5129 -0.3384  1.0060
 1824SOL     OW 6370   3.817   3.630   4.503 -0.0065 -0.2395  0.1845
 1824SOL    HW1 6371   3.897   3.686   4.481 -0.7107  0.5960 -0.3215
 1824SOL    HW2 6372   3.746   3.644   4.433  0.0939 -2.3997 -0.4072
 1825SOL     OW 6373   0.186   0.378   2.076 -0.3775  0.5603 -0.0993
 1825SOL    HW1 6374   0.277   0.416   2.095  0.5639 -0.8216 -1.6337
 1825SOL    HW2 6375   0.177   0.361   1.978 -1.5491 -1.1518  0.2639
 1826SOL     OW 6376   3.655   1.020   4.655  0.4537  0.0343 -0.9083
 1826SOL    HW1 6377   3.642   1.002   4.557 -1.0564  2.2720 -1.1914
 1826SOL    HW2 6378   3.593   0.962   4.707  0.2703 -0.1724 -1.3454
 1827SOL     OW 6379   2.927   1.220   4.716  0.2726  0.8482  0.2749
 1827SOL    HW1 6380   2.857   1.247   4.782 -0.8360  0.9057 -0.8776
 1827SOL    HW2 6381   2.926   1.120   4.706  0.9169  0.7741  0.8242
 1828SOL     OW 6382   6.962   2.811   2.416  0.0208 -0.3991 -0.1704
 1828SOL    HW1 6383   6.863   2.817   2.423 -0.0977 -1.1175 -0.9845
 1828SOL    HW2 6384   7.005   2.876   2.479 -0.9799  1.6512 -1.4951
 1829SOL     OW 6385   3.574   0.344   4.301 -0.0642 -0.4954 -0.2487
 1829SOL    HW1 6386   3.493   0.403   4.296 -0.7254 -1.2298  1.1001
 1829SOL    HW2 6387   3.626   0.351   4.216 -1.7847 -0.3496 -1.3381
 1830SOL     OW 6388   0.162   6.944   0.019  0.2968  0.0208  0.1959
 1830SOL    HW1 6389   0.079   6.987   0.054 -1.4086 -2.5719 -0.3661
 1830SOL    HW2 6390   0.172   6.965  -0.078 -1.4872 -2.0394 -0.5147
 1831SOL     OW 6391   6.704   0.335   1.186 -0.1647  0.4904  0.1886
 1831SOL    HW1 6392   6.751   0.307   1.103  0.8668  0.6876  0.6796
 1831SOL    HW2 6393   6.755   0.301   1.266 -0.9398  0.5961  0.7374
 1832SOL     OW 6394   2.109   6.417   1.872 -1.0616  0.4173 -0.7224
 1832SOL    HW1 6395   2.071   6.326   1.851 -0.8513  0.5883 -1.9291
 1832SOL    HW2 6396   2.209   6.412   1.869 -0.8659 -0.0485  2.5122
 1833SOL     OW 6397   5.677   0.775   5.265  0.5932 -0.1529 -0.3295
 1833SOL    HW1 6398   5.719   0.861   5.297 -2.4598  1.1368  0.5961
 1833SOL    HW2 6399   5.627   0.733   5.340 -2.5491  0.2548 -2.0173
 1834SOL     OW 6400   0.652   2.402   1.448  0.3137  0.2214  0.6543
 1834SOL    HW1 6401   0.555   2.392   1.426  0.3184  0.2996  0.5955
 1834SOL    HW2 6402   0.669   2.366   1.540  0.4124 -0.6652  0.2982
 1835SOL     OW 6403   6.175   4.022   3.445 -0.1264 -0.2620  0.4461
 1835SOL    HW1 6404   6.225   4.106   3.423  0.8077 -0.8418  0.3013
 1835SOL    HW2 6405   6.221   3.975   3.520 -0.5078 -0.7614  0.3694
 1836SOL     OW 6406   0.349   3.357   1.858  0.6871 -0.4936 -0.0482
 1836SOL    HW1 6407   0.350   3.416   1.778  1.9566  1.6435  1.4618
 1836SOL    HW2 6408   0.427   3.295   1.855  2.1105  1.2045  0.6314
 1837SOL     OW 6409   4.052   5.707   6.898  0.4101  0.2534  0.0257
 1837SOL    HW1 6410   4.007   5.786   6.939 -0.5356 -0.9684  1.4392
 1837SOL    HW2 6411   4.108   5.661   6.966 -1.6229 -2.1432  0.2103
 1838SOL     OW 6412   1.844   6.424   4.470  0.5160 -0.8634 -0.3727
 1838SOL    HW1 6413   1.907   6.493   4.434  0.8914 -0.5632  0.8202
 1838SOL    HW2 6414   1.896   6.346   4.505  0.1401 -1.3168 -0.8136
 1839SOL     OW 6415   5.310   5.562   4.681 -0.5511 -0.1279 -0.1375
 1839SOL    HW1 6416   5.249   5.620   4.735 -1.8719 -2.0197  0.4969
 1839SOL    HW2 6417   5.274   5.552   4.589 -0.5100 -0.2125 -0.1449
 1840SOL     OW 6418   1.862   1.417   0.602  0.1133 -0.4619 -0.3747
 1840SOL    HW1 6419   1.928   1.443   0.673  1.2043 -4.4102  0.3072
 1840SOL    HW2 6420   1.777   1.467   0.616  0.8260  0.1300  2.7040
 1841SOL     OW 6421   5.023   5.447   2.447  0.3864 -0.2849  0.1550
 1841SOL    HW1 6422   5.063   5.357   2.431  0.1523 -0.5084  0.7826
 1841SOL    HW2 6423   5.089   5.518   2.425  0.6373 -0.6172 -0.1605
 1842SOL     OW 6424   2.159   5.567   2.650  0.4226  0.3100  0.5319
 1842SOL    HW1 6425   2.117   5.484   2.615  0.3659  0.2076  0.8392
 1842SOL    HW2 6426   2.242   5.587   2.598  1.8166 -1.3007  1.9920
 1843SOL     OW 6427   4.730   4.874   4.170  0.4535 -0.6324  0.3180
 1843SOL    HW1 6428   4.817   4.862   4.217  0.6097 -1.0927 -0.0791
 1843SOL    HW2 6429   4.728   4.817   4.087  1.6757  2.8011 -2.3149
 1844SOL     OW 6430   0.317   2.543   5.657 -0.2997  0.0870  0.4584
 1844SOL    HW1 6431   0.269   2.597   5.587  0.1822  0.1551  0.1774
 1844SOL    HW2 6432   0.288   2.448   5.652 -0.4361  0.1362  0.3182
 1845SOL     OW 6433   0.659   2.206   0.963 -0.1399 -0.3621  0.3911
 1845SOL    HW1 6434   0.664   2.115   1.005 -1.7350 -0.6894 -0.0732
 1845SOL    HW2 6435   0.727   2.266   1.005 -0.2171 -1.2897  1.8929
 1846SOL     OW 6436   3.239   5.859   3.093  0.2045 -0.1877 -0.2550
 1846SOL    HW1 6437   3.277   5.780   3.141 -2.3986 -0.7931  1.0045
 1846SOL    HW2 6438   3.269   5.858   2.998  1.6893 -1.6630  0.1834
 1847SOL     OW 6439   0.654   2.966   5.314 -0.5255 -0.0047 -0.2436
 1847SOL    HW1 6440   0.651   3.004   5.406  0.0990 -1.3279  0.3429
 1847SOL    HW2 6441   0.739   2.996   5.269 -0.3533 -0.1599 -0.0244
 1848SOL     OW 6442   5.128   1.130   3.032  0.2368 -0.0737  0.0317
 1848SOL    HW1 6443   5.037   1.151   2.994 -0.1887 -1.2439  0.3583
 1848SOL    HW2 6444   5.132   1.161   3.126  0.4036  0.5548 -0.1798
 1849SOL     OW 6445   5.649   3.078   3.883 -0.6787 -0.3799  0.3570
 1849SOL    HW1 6446   5.687   3.115   3.798  0.4833  1.8745  1.7729
 1849SOL    HW2 6447   5.555   3.047   3.867 -1.0738  1.5199 -1.3933
 1850SOL     OW 6448   4.927   4.857   4.380  0.0963 -0.1087  0.2008
 1850SOL    HW1 6449   5.022   4.879   4.356 -0.5824  0.1055 -2.7557
 1850SOL    HW2 6450   4.887   4.933   4.431  1.4128 -0.1073  1.2811
 1851SOL     OW 6451   0.361   6.207   5.828 -0.5307  0.4424  0.4748
 1851SOL    HW1 6452   0.356   6.152   5.911  0.9568  1.5958  1.3694
 1851SOL    HW2 6453   0.450   6.251   5.822 -0.9455  1.1311 -1.2717
 1852SOL     OW 6454   6.558   1.000   4.172  0.1494 -0.0038 -0.0418
 1852SOL    HW1 6455   6.494   1.054   4.227  0.9141 -0.1298  0.9977
 1852SOL    HW2 6456   6.612   1.061   4.114  0.2909  0.2492  0.3560
 1853SOL     OW 6457   6.822   6.333   5.097 -0.1864 -0.3103  0.6437
 1853SOL    HW1 6458   6.854   6.381   5.015  1.9007  1.2370  2.2409
 1853SOL    HW2 6459   6.889   6.344   5.170 -1.5592 -2.3825  2.3352
 1854SOL     OW 6460   3.973   3.523   1.159  0.1659  0.3499  0.0528
 1854SOL    HW1 6461   3.922   3.567   1.086  1.7120 -0.4128 -1.5697
 1854SOL    HW2 6462   4.000   3.591   1.228 -0.6227  1.2304 -0.4959
 1855SOL     OW 6463   2.597   2.025   4.204 -0.2297 -0.0425 -0.0530
 1855SOL    HW1 6464   2.546   2.109   4.223 -0.5633 -0.4564  0.9733
 1855SOL    HW2 6465   2.694   2.046   4.194 -0.0925  0.3075  1.6641
 1856SOL     OW 6466   6.886   2.785   1.016  0.3308 -0.0446 -0.6025
 1856SOL    HW1 6467   6.796   2.798   0.974  0.2049 -0.1420 -0.3659
 1856SOL    HW2 6468   6.939   2.720   0.962 -0.7729 -2.2034  0.7648
 1857SOL     OW 6469   1.262   2.352   6.374  0.2869 -0.0844  0.2329
 1857SOL    HW1 6470   1.273   2.417   6.299  1.6978  0.1984  0.6648
 1857SOL    HW2 6471   1.171   2.365   6.415 -0.0511  0.5416 -0.6751
 1858SOL     OW 6472   3.741   6.263   3.628  0.2538  0.3548 -0.3620
 1858SOL    HW1 6473   3.693   6.329   3.685  2.2449  2.0148 -0.5071
 1858SOL    HW2 6474   3.824   6.232   3.675 -0.2712 -1.5632 -0.5927
 1859SOL     OW 6475   0.131   5.511   2.616 -0.0436 -0.2065 -0.4085
 1859SOL    HW1 6476   0.217   5.509   2.667 -0.1324  2.3064 -0.0097
 1859SOL    HW2 6477   0.146   5.559   2.529 -0.9322 -0.2026 -0.5668
 1860SOL     OW 6478   4.401   6.188   6.032 -0.0119 -0.4938  0.4336
 1860SOL    HW1 6479   4.437   6.127   5.962 -1.4337 -1.7358  0.7179
 1860SOL    HW2 6480   4.345   6.135   6.097 -0.7242  1.0004  1.0933
 1861SOL     OW 6481   3.211   3.478   5.574 -0.0246 -0.6376  0.1824
 1861SOL    HW1 6482   3.218   3.386   5.536  1.7036 -0.3701 -0.2478
 1861SOL    HW2 6483   3.206   3.545   5.500  0.8358 -0.2722  0.4428
 1862SOL     OW 6484   3.611   6.699   4.834 -0.1966 -0.1349 -0.2042
 1862SOL    HW1 6485   3.551   6.736   4.763 -0.5180 -0.6377 -0.1999
 1862SOL    HW2 6486   3.626   6.769   4.904 -0.8084 -0.0151 -0.1873
 1863SOL     OW 6487   2.289   4.267   4.889 -0.0041 -0.2521  0.4070
 1863SOL    HW1 6488   2.218   4.302   4.950 -2.0757 -0.9724 -1.4504
 1863SOL    HW2 6489   2.290   4.167   4.894 -0.5475 -0.3504 -1.0412
 1864SOL     OW 6490   6.274   0.155   0.040 -0.0908 -0.6492 -0.1302
 1864SOL    HW1 6491   6.333   0.086  -0.003  1.7064 -1.3069  3.0945
 1864SOL    HW2 6492   6.187   0.113   0.064  0.0139 -1.0811 -0.4872
 1865SOL     OW 6493   1.188   6.697   1.077  0.2235 -0.6696  0.5513
 1865SOL    HW1 6494   1.168   6.622   1.140 -0.8534 -3.1678 -2.4603
 1865SOL    HW2 6495   1.275   6.679   1.031  0.3202  0.3288  0.3298
 1866SOL     OW 6496   5.581   6.085   4.196  0.4531 -0.0531 -0.2838
 1866SOL    HW1 6497   5.589   6.132   4.284  1.8174  2.2994 -1.5541
 1866SOL    HW2 6498   5.536   5.996   4.209  2.0663 -0.5445  3.0166
 1867SOL     OW 6499   1.058   2.721   3.221 -1.0408  0.3951  0.3897
 1867SOL    HW1 6500   0.970   2.769   3.217 -0.3747  1.7241  0.8619
 1867SOL    HW2 6501   1.129   2.778   3.178 -0.7186 -1.4525 -1.6748
 1868SOL     OW 6502   2.101   5.387   5.776 -0.7490 -0.4831  0.3009
 1868SOL    HW1 6503   2.040   5.463   5.754 -0.0022 -0.7591 -3.1441
 1868SOL    HW2 6504   2.046   5.308   5.803 -1.6449  0.4131  1.2460
 1869SOL     OW 6505   4.360   3.422   1.002  0.2337 -0.0411 -0.0670
 1869SOL    HW1 6506   4.346   3.510   1.047 -1.0388  0.2571 -0.9967
 1869SOL    HW2 6507   4.427   3.369   1.053 -0.6161  0.5653  1.7462
 1870SOL     OW 6508   0.798   2.402   0.018 -0.1034 -0.0432 -0.6026
 1870SOL    HW1 6509   0.757   2.311   0.018  0.2311 -0.2048  0.7135
 1870SOL    HW2 6510   0.837   2.421   0.108  0.3698  1.1608 -1.0499
 1871SOL     OW 6511   1.609   1.876   1.688 -0.4749  0.1173 -0.6331
 1871SOL    HW1 6512   1.676   1.878   1.614 -1.9050 -0.4655 -2.0212
 1871SOL    HW2 6513   1.579   1.782   1.704 -0.3370  0.2651  0.5585
 1872SOL     OW 6514   4.878   1.668   4.728 -0.3864  0.1705  0.3731
 1872SOL    HW1 6515   4.838   1.695   4.640 -0.2593  0.5382  0.4243
 1872SOL    HW2 6516   4.879   1.569   4.735 -3.1339  0.1448  1.2254
 1873SOL     OW 6517   6.814   4.433   0.356 -0.1745 -0.8406 -0.2684
 1873SOL    HW1 6518   6.903   4.477   0.368 -0.5747  0.1786 -0.9256
 1873SOL    HW2 6519   6.773   4.463   0.270 -2.5245  1.1148  1.4106
 1874SOL     OW 6520   5.789   5.743   5.852  0.1539 -0.1783  0.0032
 1874SOL    HW1 6521   5.723   5.811   5.821  0.1216 -0.1603  0.1117
 1874SOL    HW2 6522   5.853   5.723   5.779 -0.4287 -0.7601 -0.3637
 1875SOL     OW 6523   1.448   5.628   6.137 -0.3739 -0.2648 -0.3520
 1875SOL    HW1 6524   1.390   5.652   6.060 -1.2614  3.8096  1.3335
 1875SOL    HW2 6525   1.401   5.563   6.196 -1.6591  0.1195 -0.9224
 1876SOL     OW 6526   0.313   6.056   1.597 -0.1391 -1.0128 -0.2241
 1876SOL    HW1 6527   0.405   6.093   1.607 -0.3529 -0.4571 -0.2638
 1876SOL    HW2 6528   0.299   5.984   1.664 -0.9049  1.3603  2.3931
 1877SOL     OW 6529   3.178   0.623   0.836  0.3828  0.5040 -0.4109
 1877SOL    HW1 6530   3.221   0.678   0.908 -1.4908 -0.0423  1.2104
 1877SOL    HW2 6531   3.090   0.588   0.868  0.2565 -1.2121 -2.3687
 1878SOL     OW 6532   0.577   0.219   5.135 -0.1255 -0.9188  0.1519
 1878SOL    HW1 6533   0.617   0.294   5.187  0.3749  1.2904 -3.1293
 1878SOL    HW2 6534   0.633   0.201   5.054 -1.7945 -2.9553 -0.6442
 1879SOL     OW 6535   0.036   5.548   1.088 -0.4365 -0.1327 -0.0076
 1879SOL    HW1 6536   0.082   5.551   1.000  0.5168  1.0409  0.5092
 1879SOL    HW2 6537  -0.046   5.605   1.085 -0.7603 -0.6099 -0.3201
 1880SOL     OW 6538   0.215   0.903   2.785  0.0734 -0.4050 -0.4089
 1880SOL    HW1 6539   0.294   0.844   2.768 -0.4839 -2.1395  2.4937
 1880SOL    HW2 6540   0.146   0.888   2.714 -0.1389 -3.4811  0.3408
 1881SOL     OW 6541   1.496   4.479   1.022  0.0536 -0.2316  0.0533
 1881SOL    HW1 6542   1.579   4.431   0.994 -0.9651 -1.8903 -0.2586
 1881SOL    HW2 6543   1.445   4.507   0.941  0.2105  0.6400  0.2454
 1882SOL     OW 6544   5.920   4.328   5.347 -0.2645  0.0035 -0.6734
 1882SOL    HW1 6545   5.953   4.250   5.400 -1.9190 -0.0847  0.3122
 1882SOL    HW2 6546   5.822   4.315   5.327 -0.5506  1.7703 -0.5934
 1883SOL     OW 6547   4.601   1.587   4.949  0.1927  0.0059 -0.0550
 1883SOL    HW1 6548   4.612   1.654   5.022  0.1887 -1.0138  0.9188
 1883SOL    HW2 6549   4.686   1.536   4.937  0.1111 -0.0126 -0.5952
 1884SOL     OW 6550   1.495   6.659   3.880 -0.4317 -0.5234 -0.3063
 1884SOL    HW1 6551   1.575   6.698   3.834 -0.7193  0.4176 -0.0504
 1884SOL    HW2 6552   1.413   6.709   3.851 -0.7374 -0.5399  0.5051
 1885SOL     OW 6553   4.120   1.900   1.793  0.0026 -0.0564 -0.5951
 1885SOL    HW1 6554   4.173   1.969   1.743 -1.2724  0.4963 -1.2347
 1885SOL    HW2 6555   4.050   1.946   1.849  0.0055 -0.7744  0.0025
 1886SOL     OW 6556   2.756   3.208   5.596 -0.3347  0.6965 -0.5392
 1886SOL    HW1 6557   2.684   3.140   5.615  0.5876 -0.5131 -1.2313
 1886SOL    HW2 6558   2.829   3.199   5.663  0.6962 -0.3549 -1.7390
 1887SOL     OW 6559   6.049   6.952   3.987 -0.0213 -0.0431 -0.3311
 1887SOL    HW1 6560   5.985   6.896   3.934 -1.4130  2.2729 -1.2357
 1887SOL    HW2 6561   6.075   7.033   3.935 -0.7062  1.8604  2.0545
 1888SOL     OW 6562   4.129   0.356   0.858 -1.0209  0.1438 -0.1137
 1888SOL    HW1 6563   4.128   0.390   0.952 -2.2313  0.7396 -0.3229
 1888SOL    HW2 6564   4.190   0.413   0.803 -0.1155 -0.3593  0.3535
 1889SOL     OW 6565   5.469   6.531   3.714  0.2108 -0.3409 -0.5421
 1889SOL    HW1 6566   5.466   6.480   3.628 -2.9079 -1.8218  0.2969
 1889SOL    HW2 6567   5.509   6.622   3.698  2.2101 -1.5307 -2.9080
 1890SOL     OW 6568   3.231   6.220   6.981  0.0303 -0.1897  0.4673
 1890SOL    HW1 6569   3.192   6.176   6.900 -1.8504  1.0985  0.6102
 1890SOL    HW2 6570   3.307   6.280   6.952  0.7728 -1.3473 -0.0495
 1891SOL     OW 6571   4.087   0.173   0.596  0.0136  0.2375  1.0378
 1891SOL    HW1 6572   4.104   0.153   0.500  1.3145  2.0269  0.8548
 1891SOL    HW2 6573   4.172   0.164   0.648  0.0425  2.3300  1.4257
 1892SOL     OW 6574   6.680   2.988   2.693  0.0619  0.3002 -0.4518
 1892SOL    HW1 6575   6.627   2.954   2.771  0.0938 -0.3827 -0.7203
 1892SOL    HW2 6576   6.738   2.915   2.658  1.2728  1.0751 -0.1046
 1893SOL     OW 6577   2.901   0.546   4.447 -0.6815 -0.0602  0.2356
 1893SOL    HW1 6578   2.938   0.618   4.506 -0.7493  1.5642 -1.6159
 1893SOL    HW2 6579   2.966   0.471   4.442  0.1788  0.6175  0.8444
 1894SOL     OW 6580   4.833   5.768   2.446 -0.3649  0.1432 -0.3550
 1894SOL    HW1 6581   4.865   5.726   2.531  0.4539 -0.1830 -0.8120
 1894SOL    HW2 6582   4.893   5.741   2.371  0.3970  2.4018 -0.6285
 1895SOL     OW 6583   5.248   3.535   0.351 -0.5558 -0.5804  0.0877
 1895SOL    HW1 6584   5.297   3.508   0.268  0.7608 -2.3093  1.3571
 1895SOL    HW2 6585   5.298   3.609   0.397 -0.0517 -1.1712  0.4968
 1896SOL     OW 6586   0.826   1.610   0.692 -0.9886  0.3770 -0.2935
 1896SOL    HW1 6587   0.836   1.570   0.784  0.7600 -0.2363 -0.7046
 1896SOL    HW2 6588   0.755   1.560   0.642 -2.8805  1.5257  1.0948
 1897SOL     OW 6589   6.985   4.159   0.117  0.4887  0.0958 -0.2975
 1897SOL    HW1 6590   6.934   4.234   0.073  0.3324  0.9981  1.3358
 1897SOL    HW2 6591   6.989   4.081   0.055 -2.9772 -0.0878 -0.5078
 1898SOL     OW 6592   4.459   6.410   3.619  0.2557 -0.5395 -0.8084
 1898SOL    HW1 6593   4.476   6.399   3.521  2.4483 -2.9701 -0.3024
 1898SOL    HW2 6594   4.547   6.421   3.667 -0.5993 -1.1529  1.0155
 1899SOL     OW 6595   1.210   5.862   6.180 -0.7757  0.2763 -0.6795
 1899SOL    HW1 6596   1.300   5.882   6.218 -1.1786 -0.9829  1.0776
 1899SOL    HW2 6597   1.218   5.796   6.106 -0.3857 -1.6568  1.0032
 1900SOL     OW 6598   3.369   1.793   0.363 -0.2099  0.1589  0.3295
 1900SOL    HW1 6599   3.342   1.799   0.267  1.0411 -0.1533 -0.0576
 1900SOL    HW2 6600   3.305   1.735   0.412 -2.3041  2.2587  0.2562
 1901SOL     OW 6601   4.830   1.191   0.256 -0.3416  0.3788 -0.4800
 1901SOL    HW1 6602   4.900   1.182   0.186 -0.3787 -0.5012 -0.4217
 1901SOL    HW2 6603   4.858   1.259   0.323  0.4664  0.0357 -0.4566
 1902SOL     OW 6604   4.053   2.914   6.268  0.1413  0.2299 -0.4423
 1902SOL    HW1 6605   3.990   2.865   6.208  1.5752 -2.2749 -0.0692
 1902SOL    HW2 6606   4.005   2.940   6.352 -1.0298  0.7485 -1.2531
 1903SOL     OW 6607   1.399   6.512   2.668  0.3138 -0.0365 -0.0302
 1903SOL    HW1 6608   1.415   6.427   2.618 -1.1043 -0.1578 -0.3346
 1903SOL    HW2 6609   1.317   6.557   2.632 -0.4379  0.1496  1.8144
 1904SOL     OW 6610   4.737   6.929   4.400 -0.3793 -0.7406  0.3660
 1904SOL    HW1 6611   4.650   6.912   4.354 -0.1074 -1.5600  0.1404
 1904SOL    HW2 6612   4.767   7.023   4.382 -1.0630 -0.5507  0.1965
 1905SOL     OW 6613   5.129   1.354   4.563 -0.0181  0.1019  0.3398
 1905SOL    HW1 6614   5.053   1.385   4.620  0.5464  0.1294  1.0870
 1905SOL    HW2 6615   5.106   1.368   4.466 -1.3635 -0.8002  0.4940
 1906SOL     OW 6616   3.804   5.220   3.245 -0.0132  0.6500 -0.3223
 1906SOL    HW1 6617   3.867   5.232   3.169  0.0079  2.0242 -0.1143
 1906SOL    HW2 6618   3.840   5.268   3.326 -0.4981  0.0114  0.2873
 1907SOL     OW 6619   0.541   6.456   4.973  0.4512 -0.1289  0.0760
 1907SOL    HW1 6620   0.445   6.484   4.963  0.2679  0.9658  3.5821
 1907SOL    HW2 6621   0.600   6.521   4.924 -0.4616  0.9264  0.3479
 1908SOL     OW 6622   4.372   4.717   6.842 -0.0697  0.0824 -0.5397
 1908SOL    HW1 6623   4.348   4.645   6.907  1.2383  0.0400 -0.0692
 1908SOL    HW2 6624   4.467   4.744   6.856 -0.2648  1.2671 -1.3200
 1909SOL     OW 6625   0.382   4.955   1.050  0.4381  0.0278 -0.1216
 1909SOL    HW1 6626   0.285   4.935   1.058  0.2307  0.8450 -0.5355
 1909SOL    HW2 6627   0.434   4.886   1.100 -0.4225  0.4057  1.3487
 1910SOL     OW 6628   4.072   2.288   0.406 -0.3661  0.3609  0.5695
 1910SOL    HW1 6629   3.983   2.243   0.406  0.7778 -2.0778  0.9251
 1910SOL    HW2 6630   4.109   2.290   0.313 -0.3885  0.5610  0.5629
 1911SOL     OW 6631   5.282   2.688   3.747  0.3846 -0.1956  0.5378
 1911SOL    HW1 6632   5.296   2.652   3.839  0.1568  0.0474  0.6706
 1911SOL    HW2 6633   5.305   2.786   3.746  0.7987 -0.2931  0.2331
 1912SOL     OW 6634   5.502   0.082   4.475 -0.3333  0.2340  0.4632
 1912SOL    HW1 6635   5.485   0.178   4.498  0.0586  1.0810 -2.4227
 1912SOL    HW2 6636   5.598   0.070   4.451 -0.6219 -0.6270 -0.2995
 1913SOL     OW 6637   0.279   0.680   3.023  0.1074 -0.1978 -0.5218
 1913SOL    HW1 6638   0.250   0.617   2.951  0.7387  0.8418 -1.7259
 1913SOL    HW2 6639   0.206   0.745   3.042 -0.1243 -0.5801 -0.0834
 1914SOL     OW 6640   6.674   1.273   1.628 -0.2287  0.7614  0.2590
 1914SOL    HW1 6641   6.668   1.190   1.572 -0.8473  0.8328  0.2119
 1914SOL    HW2 6642   6.747   1.331   1.594  2.8096 -1.4044  2.4903
 1915SOL     OW 6643   5.078   1.055   2.689  0.1798  0.4867  0.3988
 1915SOL    HW1 6644   5.077   1.140   2.636  1.0164  1.2472  1.5698
 1915SOL    HW2 6645   5.168   1.042   2.729  0.2373 -1.2737 -0.2238
 1916SOL     OW 6646   5.747   4.530   5.511  0.1679  0.6952  0.0031
 1916SOL    HW1 6647   5.781   4.570   5.427  0.6577  1.6211  0.6266
 1916SOL    HW2 6648   5.663   4.478   5.492 -0.4553  1.9713 -0.8361
 1917SOL     OW 6649   5.326   3.438   5.876 -0.3170 -0.0023 -0.8556
 1917SOL    HW1 6650   5.396   3.414   5.943 -1.8360  0.4080  0.9969
 1917SOL    HW2 6651   5.361   3.508   5.814  0.7372  0.6480  0.4109
 1918SOL     OW 6652   0.701   2.415   5.186  0.3245  0.4352 -0.2660
 1918SOL    HW1 6653   0.621   2.473   5.203  0.7816  1.0954 -0.3694
 1918SOL    HW2 6654   0.671   2.319   5.181 -0.6631  0.7798 -1.6470
 1919SOL     OW 6655   0.230   5.848   3.029  0.7364  0.3589  0.6802
 1919SOL    HW1 6656   0.176   5.776   2.984 -0.5649  2.1609 -0.7849
 1919SOL    HW2 6657   0.187   5.872   3.116  0.0839  0.6682  0.2774
 1920SOL     OW 6658   0.575   5.829   5.224  0.3919 -0.4322  0.5126
 1920SOL    HW1 6659   0.551   5.773   5.303 -0.3832 -0.2307  0.4279
 1920SOL    HW2 6660   0.643   5.782   5.168 -0.7373 -1.6040  0.0754
 1921SOL     OW 6661   3.475   1.925   3.531 -0.8324  0.0226  0.6591
 1921SOL    HW1 6662   3.437   1.833   3.533 -0.1585 -0.3420 -1.1675
 1921SOL    HW2 6663   3.403   1.991   3.510 -1.1005 -0.2227  0.8047
 1922SOL     OW 6664   6.925   0.256   6.819 -0.0282 -0.2400  0.3691
 1922SOL    HW1 6665   6.860   0.253   6.895 -1.1798  1.0480 -0.5023
 1922SOL    HW2 6666   7.006   0.307   6.846 -0.0675 -0.4981  0.9867
 1923SOL     OW 6667   0.383   0.233   1.413 -0.5902 -0.1585  0.2354
 1923SOL    HW1 6668   0.358   0.317   1.364 -1.3258  0.5895  1.8248
 1923SOL    HW2 6669   0.409   0.162   1.347 -1.2696  0.8899 -1.2056
 1924SOL     OW 6670   3.089   3.242   2.359 -0.3668  0.6188 -0.2942
 1924SOL    HW1 6671   3.154   3.316   2.341  1.3209 -1.0142 -1.2527
 1924SOL    HW2 6672   2.997   3.281   2.373  0.7242  2.9824  0.9011
 1925SOL     OW 6673   4.039   3.834   2.664  0.0103  0.3495 -0.1046
 1925SOL    HW1 6674   4.063   3.926   2.696  1.2489  0.3639 -0.9914
 1925SOL    HW2 6675   3.943   3.833   2.636 -0.5901  0.8129  1.8100
 1926SOL     OW 6676   4.669   2.397   0.492  0.0675  0.3885  0.5149
 1926SOL    HW1 6677   4.658   2.329   0.565  0.8680  0.0256  0.3175
 1926SOL    HW2 6678   4.597   2.465   0.497 -1.9650 -1.5675 -0.4722
 1927SOL     OW 6679   4.851   2.435   1.742 -0.0411 -0.1083  1.0228
 1927SOL    HW1 6680   4.755   2.460   1.753 -0.1384  0.0538 -0.0443
 1927SOL    HW2 6681   4.883   2.388   1.824 -1.1881 -0.6420  1.1877
 1928SOL     OW 6682   6.075   0.258   4.806  0.8320 -0.2874 -0.0030
 1928SOL    HW1 6683   6.134   0.204   4.865  0.3821 -0.8863 -0.0855
 1928SOL    HW2 6684   6.014   0.197   4.755 -0.5954  0.3514  0.8833
 1929SOL     OW 6685   6.629   4.559   6.894  0.5545  0.5333  0.2990
 1929SOL    HW1 6686   6.577   4.643   6.915  1.6514  1.0777  0.9302
 1929SOL    HW2 6687   6.586   4.512   6.817 -0.9771  0.8643  0.9029
 1930SOL     OW 6688   1.960   4.507   0.394 -0.4494 -0.6687  0.0777
 1930SOL    HW1 6689   1.967   4.574   0.468  0.1718 -0.9897  0.3156
 1930SOL    HW2 6690   1.958   4.415   0.432 -2.0251 -0.7756 -0.2061
 1931SOL     OW 6691   1.848   6.522   6.638 -0.0459  0.7311 -0.3366
 1931SOL    HW1 6692   1.777   6.578   6.680 -1.1556  0.2093 -1.4212
 1931SOL    HW2 6693   1.856   6.435   6.688 -0.3874  0.6764 -0.3726
 1932SOL     OW 6694   0.837   5.127   0.554 -0.2982  0.1861  0.2633
 1932SOL    HW1 6695   0.777   5.069   0.610 -0.4577 -0.0671 -0.1653
 1932SOL    HW2 6696   0.878   5.072   0.482 -2.1189  1.0407 -1.4936
 1933SOL     OW 6697   1.093   3.462   1.567 -0.0593 -0.1236 -0.2889
 1933SOL    HW1 6698   1.059   3.370   1.549 -0.4408 -0.1826  0.6488
 1933SOL    HW2 6699   1.170   3.457   1.631 -0.8517  0.2710  0.7213
 1934SOL     OW 6700   5.125   6.372   2.006 -0.1091 -0.4296  0.1864
 1934SOL    HW1 6701   5.068   6.313   2.063 -1.3899  0.9852  0.4268
 1934SOL    HW2 6702   5.192   6.419   2.063 -2.6161  2.4577  1.0075
 1935SOL     OW 6703   2.382   2.476   5.942  0.2886  0.2793 -0.5778
 1935SOL    HW1 6704   2.460   2.428   5.902  0.1296  0.0048 -0.5591
 1935SOL    HW2 6705   2.407   2.571   5.959  0.4846  0.2990 -0.9613
 1936SOL     OW 6706   6.051   2.359   5.949  0.3761  0.0487 -0.5103
 1936SOL    HW1 6707   6.004   2.439   5.986  1.0623  0.8988 -1.4148
 1936SOL    HW2 6708   6.023   2.344   5.854 -0.9560 -1.7789  0.1101
 1937SOL     OW 6709   2.391   6.799   3.760  0.7586  0.1655  0.2339
 1937SOL    HW1 6710   2.323   6.785   3.687 -0.0064  3.4108  0.1608
 1937SOL    HW2 6711   2.482   6.777   3.725  0.2036 -0.1274 -1.0912
 1938SOL     OW 6712   2.993   5.272   1.585  0.2444  0.5724  0.2575
 1938SOL    HW1 6713   3.015   5.323   1.668  0.2690  1.8472 -0.5067
 1938SOL    HW2 6714   3.070   5.213   1.560  0.4800  0.6578  0.7910
 1939SOL     OW 6715   6.692   5.787   3.323 -0.0950 -0.0875 -0.0678
 1939SOL    HW1 6716   6.713   5.714   3.258  0.6029 -3.0521  3.1596
 1939SOL    HW2 6717   6.757   5.783   3.399 -3.3333  0.2131  2.9821
 1940SOL     OW 6718   6.038   2.691   2.691 -0.5453 -0.7100 -0.1238
 1940SOL    HW1 6719   5.953   2.640   2.680 -2.1727  0.9333  3.1019
 1940SOL    HW2 6720   6.028   2.782   2.650 -0.8220 -0.1359  1.1482
 1941SOL     OW 6721   5.169   1.247   1.215 -0.1776  0.3102  0.0591
 1941SOL    HW1 6722   5.264   1.216   1.221 -0.7296 -1.4411  0.4456
 1941SOL    HW2 6723   5.114   1.200   1.285 -1.7191 -0.2880 -1.4878
 1942SOL     OW 6724   3.761   6.742   6.734  0.7261  0.2890  0.3775
 1942SOL    HW1 6725   3.690   6.792   6.684 -0.7118 -0.6003  1.4750
 1942SOL    HW2 6726   3.846   6.743   6.680 -0.6672 -0.4578 -2.0005
 1943SOL     OW 6727   6.163   4.150   2.510 -0.1674  0.1379 -0.2012
 1943SOL    HW1 6728   6.181   4.056   2.479 -0.4994  0.4258 -1.3057
 1943SOL    HW2 6729   6.249   4.201   2.514  0.2090 -0.5617  1.6883
 1944SOL     OW 6730   6.811   4.130   0.416 -0.1838  0.2381  0.5136
 1944SOL    HW1 6731   6.807   4.222   0.376 -0.6746 -0.6421 -1.6393
 1944SOL    HW2 6732   6.718   4.100   0.438  0.0328  0.4744  1.8431
 1945SOL     OW 6733   2.531   0.139   0.314  0.3218  0.2393 -0.0087
 1945SOL    HW1 6734   2.572   0.110   0.228  0.0129 -0.2958  0.0210
 1945SOL    HW2 6735   2.603   0.169   0.377  0.5148  1.0691 -0.6046
 1946SOL     OW 6736   6.726   1.716   6.052  0.0297 -0.8439  0.2871
 1946SOL    HW1 6737   6.680   1.735   5.965  2.3195  0.7055 -0.6719
 1946SOL    HW2 6738   6.685   1.770   6.125 -0.0929  0.0290 -0.4188
 1947SOL     OW 6739   0.805   5.321   0.353 -0.5394 -0.1530  0.9852
 1947SOL    HW1 6740   0.863   5.293   0.276  0.3561  2.3089  0.6896
 1947SOL    HW2 6741   0.820   5.260   0.430 -0.1234 -1.5964 -0.1825
 1948SOL     OW 6742   6.693   2.182   3.332  0.1184  0.2355 -0.7443
 1948SOL    HW1 6743   6.780   2.231   3.332  0.6573 -0.6697  0.3493
 1948SOL    HW2 6744   6.634   2.219   3.261  0.9563  1.6400 -0.7521
 1949SOL     OW 6745   6.596   5.164   4.538 -0.2539 -0.3377  0.3110
 1949SOL    HW1 6746   6.692   5.190   4.538 -0.6073  1.0579  0.5641
 1949SOL    HW2 6747   6.583   5.083   4.595  0.9007 -1.1338 -0.5281
 1950SOL     OW 6748   6.499   2.489   4.231  0.1943  0.5410 -0.1529
 1950SOL    HW1 6749   6.560   2.552   4.183 -0.0524  1.5051  0.7532
 1950SOL    HW2 6750   6.418   2.539   4.262 -0.7559 -0.5733 -0.7730
 1951SOL     OW 6751   5.935   4.722   5.149 -0.4499 -0.3814  0.2656
 1951SOL    HW1 6752   5.922   4.687   5.056 -2.0442 -0.0647  0.3463
 1951SOL    HW2 6753   5.993   4.658   5.201  1.2945 -0.0829 -1.1935
 1952SOL     OW 6754   5.053   5.130   2.731  0.4632 -0.4758  0.1849
 1952SOL    HW1 6755   5.101   5.206   2.776  0.2559 -0.3882  0.2598
 1952SOL    HW2 6756   5.085   5.044   2.770  0.8646 -0.4408 -0.0594
 1953SOL     OW 6757   0.524   4.162   3.614  0.0589  0.5192  0.2384
 1953SOL    HW1 6758   0.510   4.252   3.571  1.9484  1.5721  1.6929
 1953SOL    HW2 6759   0.603   4.117   3.571  0.8058  0.7748  1.3048
 1954SOL     OW 6760   2.213   0.860   2.998  0.1855 -0.1640  0.5408
 1954SOL    HW1 6761   2.116   0.839   3.007 -0.2232  1.8066  1.2286
 1954SOL    HW2 6762   2.226   0.959   3.003  2.3776 -0.4527  1.9746
 1955SOL     OW 6763   4.743   0.371   6.873 -0.2084 -0.2880 -0.2411
 1955SOL    HW1 6764   4.721   0.458   6.829  0.0096  0.1581  0.5128
 1955SOL    HW2 6765   4.794   0.388   6.958 -0.8516 -1.1127  0.3331
 1956SOL     OW 6766   1.941   1.732   4.220  0.1013  0.4875 -0.5467
 1956SOL    HW1 6767   1.875   1.808   4.221 -1.6218 -0.9253 -1.5151
 1956SOL    HW2 6768   2.032   1.768   4.200 -0.4114  2.4504  0.3358
 1957SOL     OW 6769   5.290   1.026   0.213  0.6804 -0.4789  0.0655
 1957SOL    HW1 6770   5.354   0.959   0.176 -0.3530 -1.1769 -0.5037
 1957SOL    HW2 6771   5.234   1.064   0.139  0.3288  0.0175  0.5729
 1958SOL     OW 6772   2.769   0.420   3.257 -0.5619 -0.0794 -0.6269
 1958SOL    HW1 6773   2.711   0.398   3.179  0.1181 -0.8033 -0.9412
 1958SOL    HW2 6774   2.860   0.445   3.225 -0.2555 -0.4528 -0.0657
 1959SOL     OW 6775   4.100   6.294   2.060 -0.2308  0.5387 -0.8283
 1959SOL    HW1 6776   4.199   6.289   2.048 -0.3429 -2.6737 -1.1518
 1959SOL    HW2 6777   4.077   6.289   2.157 -0.1127 -0.9302 -0.8648
 1960SOL     OW 6778   6.976   3.055   3.496 -0.1413 -0.2575 -0.0711
 1960SOL    HW1 6779   6.936   3.089   3.411 -0.9967 -1.7192 -0.2905
 1960SOL    HW2 6780   6.922   2.978   3.529  0.3364  0.1223  1.6712
 1961SOL     OW 6781   6.788   6.762   5.224  0.0202  0.0070  0.2241
 1961SOL    HW1 6782   6.715   6.694   5.225 -0.7537  0.8110 -0.3319
 1961SOL    HW2 6783   6.823   6.774   5.317  0.4075 -1.3761  0.2869
 1962SOL     OW 6784   0.394   3.781   6.550 -0.3171  0.3513 -0.5088
 1962SOL    HW1 6785   0.303   3.739   6.553 -1.0127  1.8058 -0.2135
 1962SOL    HW2 6786   0.389   3.867   6.498  0.8803  0.4866 -0.4248
 1963SOL     OW 6787   4.579   3.502   1.712 -0.5118  0.0859 -0.1058
 1963SOL    HW1 6788   4.563   3.411   1.750  1.3191  0.4754  1.8161
 1963SOL    HW2 6789   4.493   3.553   1.709 -1.8859 -2.1003 -2.6173
 1964SOL     OW 6790   2.105   3.707   3.196  0.2125  0.2296 -0.4861
 1964SOL    HW1 6791   2.083   3.787   3.141 -0.2468  0.2339 -0.3003
 1964SOL    HW2 6792   2.165   3.733   3.272  0.4172  0.3166 -0.6767
 1965SOL     OW 6793   6.006   2.061   0.101  0.0230  0.2483  0.3180
 1965SOL    HW1 6794   6.028   1.966   0.123 -0.4542 -0.0610 -0.5096
 1965SOL    HW2 6795   5.911   2.080   0.127 -0.1995  0.2002 -0.4300
 1966SOL     OW 6796   6.422   3.803   3.936 -0.6798  0.2573 -0.2920
 1966SOL    HW1 6797   6.437   3.704   3.942 -3.5058 -0.2441 -0.1233
 1966SOL    HW2 6798   6.479   3.849   4.005  0.6636 -1.2032 -0.3537
 1967SOL     OW 6799   3.157   3.698   6.545 -0.3123  0.3937 -0.1280
 1967SOL    HW1 6800   3.184   3.746   6.462 -1.7798 -0.5040 -1.1636
 1967SOL    HW2 6801   3.136   3.603   6.524 -1.9478  0.4596  1.0222
 1968SOL     OW 6802   0.668   2.447   2.852 -0.0587  0.0816 -0.1105
 1968SOL    HW1 6803   0.743   2.512   2.867 -0.3073  0.3717 -0.1115
 1968SOL    HW2 6804   0.607   2.483   2.781 -0.1935 -0.1606 -0.1190
 1969SOL     OW 6805   1.475   4.786   2.868  0.1838 -0.5446  0.1091
 1969SOL    HW1 6806   1.499   4.880   2.892  1.7938 -0.5905 -1.1860
 1969SOL    HW2 6807   1.451   4.736   2.952  2.9841  0.0145  1.3650
 1970SOL     OW 6808   5.804   4.478   5.926  0.2844 -0.1703  0.2702
 1970SOL    HW1 6809   5.713   4.519   5.916  0.4340  0.3746  1.0438
 1970SOL    HW2 6810   5.864   4.540   5.976  1.2954 -0.2468 -0.8060
 1971SOL     OW 6811   2.629   5.493   4.938 -1.0647 -0.1055  0.7986
 1971SOL    HW1 6812   2.550   5.519   4.883 -1.8149 -1.4846  1.1842
 1971SOL    HW2 6813   2.676   5.415   4.895  0.0658  0.6543  0.6066
 1972SOL     OW 6814   1.930   2.893   1.781 -0.2722 -0.8094 -0.0376
 1972SOL    HW1 6815   1.954   2.826   1.851 -0.2778 -0.0905  0.6592
 1972SOL    HW2 6816   2.010   2.950   1.760 -0.3539 -0.8201 -0.3963
 1973SOL     OW 6817   6.064   2.059   2.505  0.4143  0.0597 -0.1148
 1973SOL    HW1 6818   5.964   2.059   2.513  0.5112 -0.0975  1.4810
 1973SOL    HW2 6819   6.091   2.102   2.419 -0.9691  2.9003  0.7492
 1974SOL     OW 6820   4.597   1.387   6.437  0.1813 -0.6913  0.4261
 1974SOL    HW1 6821   4.502   1.384   6.468  0.2814  0.6949  0.9576
 1974SOL    HW2 6822   4.602   1.439   6.351  0.3027 -1.8943 -0.3117
 1975SOL     OW 6823   1.244   0.056   3.524  0.5868  0.3264  0.3794
 1975SOL    HW1 6824   1.308   0.102   3.462  0.5246 -0.5871 -0.3950
 1975SOL    HW2 6825   1.252  -0.043   3.511 -2.0188  0.2040 -0.8474
 1976SOL     OW 6826   0.096   5.263   5.958  0.1647 -0.2560 -0.3054
 1976SOL    HW1 6827   0.082   5.164   5.967 -1.2986 -0.0151  0.3087
 1976SOL    HW2 6828   0.052   5.295   5.874  1.6175 -0.2759 -1.1101
 1977SOL     OW 6829   3.368   4.806   0.627  0.5184  0.7561  0.1095
 1977SOL    HW1 6830   3.445   4.744   0.643 -0.4670 -0.9559 -1.3728
 1977SOL    HW2 6831   3.299   4.792   0.698  0.1803 -0.0982 -0.3667
 1978SOL     OW 6832   3.658   0.096   6.746 -0.3540 -0.2136  0.9669
 1978SOL    HW1 6833   3.620   0.181   6.782 -1.0891 -0.3698  0.5896
 1978SOL    HW2 6834   3.757   0.104   6.739 -0.5732  1.7656 -1.8974
 1979SOL     OW 6835   0.022   5.181   6.810  0.2731 -0.2884  0.2644
 1979SOL    HW1 6836   0.069   5.256   6.763  0.0943 -2.1233 -3.1442
 1979SOL    HW2 6837   0.089   5.122   6.854  0.6746  0.1431  0.2461
 1980SOL     OW 6838   1.658   5.540   1.161  0.1672 -0.3572 -0.0717
 1980SOL    HW1 6839   1.742   5.523   1.110 -0.9642 -2.5519 -1.3679
 1980SOL    HW2 6840   1.622   5.454   1.197 -0.9344  0.6863  1.4826
 1981SOL     OW 6841   1.958   3.873   4.601  0.6857  0.5912 -0.2437
 1981SOL    HW1 6842   2.029   3.895   4.668  0.1794  0.5082  0.3283
 1981SOL    HW2 6843   1.890   3.814   4.643 -0.4033  1.6993 -0.3878
 1982SOL     OW 6844   1.848   4.701   3.949 -0.3215 -0.0583 -0.0870
 1982SOL    HW1 6845   1.800   4.708   4.036  0.5666 -0.1697  0.4226
 1982SOL    HW2 6846   1.901   4.785   3.934 -1.3448  0.4458 -1.0684
 1983SOL     OW 6847   3.153   0.185   1.955  0.6989 -0.2324 -0.4983
 1983SOL    HW1 6848   3.217   0.186   2.031 -0.8268  0.6784  0.8289
 1983SOL    HW2 6849   3.199   0.219   1.872  1.2725  3.1097  1.0216
 1984SOL     OW 6850   3.660   5.604   2.539  0.3901  0.6261 -0.0867
 1984SOL    HW1 6851   3.608   5.557   2.610  0.6556 -1.1769 -1.0212
 1984SOL    HW2 6852   3.599   5.662   2.486 -1.1421 -2.5851 -2.1299
 1985SOL     OW 6853   6.781   0.278   2.243 -0.1446  0.0243 -0.4994
 1985SOL    HW1 6854   6.696   0.291   2.295  1.0462 -0.7810  1.7999
 1985SOL    HW2 6855   6.761   0.227   2.160 -1.8259 -0.9375  0.4230
 1986SOL     OW 6856   0.049   0.246   4.597 -0.1172 -0.0179 -0.3502
 1986SOL    HW1 6857   0.049   0.318   4.527  1.5401 -0.3469 -0.7163
 1986SOL    HW2 6858   0.093   0.280   4.680 -1.4419  0.1339  0.3166
 1987SOL     OW 6859   3.095   7.002   2.666  0.5056 -0.1226 -0.0858
 1987SOL    HW1 6860   3.149   7.055   2.732 -1.5783 -0.9239  2.4469
 1987SOL    HW2 6861   3.030   6.944   2.716 -0.5269 -1.5506 -2.8896
 1988SOL     OW 6862   1.883   6.417   1.305  0.3581 -0.1270 -0.4102
 1988SOL    HW1 6863   1.968   6.416   1.356  0.1766  0.7191 -0.0818
 1988SOL    HW2 6864   1.887   6.487   1.233 -0.7209  1.2234  0.7886
 1989SOL     OW 6865   4.834   5.442   2.674  0.3314 -0.2068  0.1600
 1989SOL    HW1 6866   4.898   5.455   2.598  1.4711 -2.5053  0.6447
 1989SOL    HW2 6867   4.776   5.523   2.682  1.3516  0.8380 -2.0159
 1990SOL     OW 6868   0.595   1.007   0.520  0.0523  0.1766  0.4021
 1990SOL    HW1 6869   0.559   1.002   0.427  2.9136 -2.3409 -0.7266
 1990SOL    HW2 6870   0.593   0.916   0.562 -0.5858  1.1385  2.6238
 1991SOL     OW 6871   4.451   0.864   0.152  0.3844  0.1167 -0.2756
 1991SOL    HW1 6872   4.462   0.774   0.194  0.5629 -0.0596 -0.6906
 1991SOL    HW2 6873   4.515   0.929   0.194 -0.0551  0.1579  0.3272
 1992SOL     OW 6874   2.123   3.146   1.697 -0.2174 -0.3382  0.1326
 1992SOL    HW1 6875   2.218   3.127   1.674 -0.5208 -0.4493 -1.1233
 1992SOL    HW2 6876   2.103   3.243   1.680 -0.6309 -0.5735 -0.8437
 1993SOL     OW 6877   0.335   5.019   2.100  0.2104 -0.9786 -0.5773
 1993SOL    HW1 6878   0.434   5.005   2.112 -0.0581 -0.6148  3.1676
 1993SOL    HW2 6879   0.300   4.950   2.037  2.6491 -1.8656 -1.0969
 1994SOL     OW 6880   4.784   1.745   2.502  0.1540  0.4630  0.5065
 1994SOL    HW1 6881   4.883   1.759   2.509  0.2924 -0.8279  1.3812
 1994SOL    HW2 6882   4.761   1.725   2.407  1.0482 -1.2675  0.6158
 1995SOL     OW 6883   1.542   3.845   6.756  0.3330 -0.2707  1.0756
 1995SOL    HW1 6884   1.493   3.907   6.695  0.4916 -0.5246  0.6842
 1995SOL    HW2 6885   1.617   3.801   6.705  0.1104 -0.9183  1.3003
 1996SOL     OW 6886   6.701   3.768   2.134  0.3275  0.2691  0.0928
 1996SOL    HW1 6887   6.705   3.670   2.113 -1.0030 -0.0091  1.0622
 1996SOL    HW2 6888   6.766   3.789   2.207  0.2496 -0.0011  0.2431
 1997SOL     OW 6889   4.322   6.728   0.313  0.0037 -0.3638  0.2928
 1997SOL    HW1 6890   4.354   6.649   0.366  1.4337 -0.0013  0.0213
 1997SOL    HW2 6891   4.254   6.698   0.246 -1.8899 -0.8254  2.3196
 1998SOL     OW 6892   6.189   0.693   0.185 -0.2501  0.4992  0.0150
 1998SOL    HW1 6893   6.103   0.646   0.203 -0.5286  0.3645 -1.5708
 1998SOL    HW2 6894   6.176   0.761   0.113  0.5319  1.8822  1.1084
 1999SOL     OW 6895   0.114   3.152   4.823 -0.4083  0.1243  0.3318
 1999SOL    HW1 6896   0.093   3.185   4.915  0.7942  1.3672  0.1963
 1999SOL    HW2 6897   0.140   3.229   4.765  0.6870 -0.8498 -0.5247
 2000SOL     OW 6898   7.018   4.141   3.922 -0.0347  0.3806 -0.2094
 2000SOL    HW1 6899   6.947   4.137   3.992  1.2842  1.5320  1.2964
 2000SOL    HW2 6900   6.979   4.120   3.833 -1.7685 -1.2734  0.8609
 2001SOL     OW 6901   4.886   3.740   2.304 -0.0245  0.0067  0.0378
 2001SOL    HW1 6902   4.868   3.805   2.378 -2.7843 -1.9746  1.3090
 2001SOL    HW2 6903   4.856   3.779   2.217 -2.6372  0.2172  0.9211
 2002SOL     OW 6904   0.777   5.086   1.470 -0.6955  0.3833  0.7072
 2002SOL    HW1 6905   0.778   5.077   1.371  1.9169 -0.3116  0.7251
 2002SOL    HW2 6906   0.733   5.005   1.510 -0.0491 -0.2770  0.1325
 2003SOL     OW 6907   1.914   6.358   5.202 -0.3484 -0.5988  0.4462
 2003SOL    HW1 6908   2.014   6.355   5.206 -0.3016 -1.9023 -0.8510
 2003SOL    HW2 6909   1.885   6.353   5.107 -1.6431  2.1025  0.6163
 2004SOL     OW 6910   5.962   0.074   4.236  0.4961 -0.2224 -0.1580
 2004SOL    HW1 6911   6.001   0.166   4.237 -1.9664  0.8797  0.2053
 2004SOL    HW2 6912   5.991   0.027   4.153  1.2010  1.1506 -0.7245
 2005SOL     OW 6913   1.948   5.573   3.166 -0.0684 -0.1246 -0.0847
 2005SOL    HW1 6914   1.981   5.520   3.088 -0.1130 -0.5128  0.1574
 2005SOL    HW2 6915   2.018   5.638   3.196 -0.7785  1.4993 -1.7411
 2006SOL     OW 6916   5.431   3.811   3.073  0.2256  0.0638 -0.2754
 2006SOL    HW1 6917   5.342   3.834   3.112  1.0502  3.0680  0.0857
 2006SOL    HW2 6918   5.473   3.893   3.034  1.9837 -1.6760 -2.3259
 2007SOL     OW 6919   1.877   3.044   4.726  0.2657 -0.0765 -0.3912
 2007SOL    HW1 6920   1.901   3.133   4.765  0.5614 -0.2805 -0.1039
 2007SOL    HW2 6921   1.869   3.052   4.626 -2.7873  0.9957 -0.1792
 2008SOL     OW 6922   2.221   4.604   2.120 -0.1875 -0.1508  0.2705
 2008SOL    HW1 6923   2.295   4.576   2.058  0.0099  1.2307 -0.1509
 2008SOL    HW2 6924   2.197   4.527   2.180  2.9500 -0.0997  1.7946
 2009SOL     OW 6925   4.778   2.397   6.698 -0.4209  0.4630  0.0598
 2009SOL    HW1 6926   4.755   2.302   6.721  0.0663  0.2195 -0.4396
 2009SOL    HW2 6927   4.756   2.414   6.602  3.9488 -0.6466 -1.3674
 2010SOL     OW 6928   2.537   5.034   6.585  0.2566 -0.8605 -0.5566
 2010SOL    HW1 6929   2.566   5.108   6.525 -2.0322 -0.7513 -1.6325
 2010SOL    HW2 6930   2.605   5.021   6.657  1.3883  1.3427 -1.1339
 2011SOL     OW 6931   3.652   5.689   1.391 -0.0619 -0.4808  0.0377
 2011SOL    HW1 6932   3.568   5.699   1.337 -0.1109 -0.8908  0.0329
 2011SOL    HW2 6933   3.727   5.738   1.347 -0.5559  0.8597  0.6328
 2012SOL     OW 6934   6.403   3.810   5.617 -0.0980  0.0712 -0.1663
 2012SOL    HW1 6935   6.374   3.719   5.645 -0.1935  0.3325  0.6129
 2012SOL    HW2 6936   6.339   3.846   5.547 -0.5456 -0.1199  0.1404
 2013SOL     OW 6937   6.002   6.883   4.729  0.0657  0.0230  0.1832
 2013SOL    HW1 6938   5.918   6.914   4.684  0.4113  1.4681  0.4598
 2013SOL    HW2 6939   5.982   6.860   4.824 -0.0145  0.4187  0.2644
 2014SOL     OW 6940   5.687   1.630   5.514  0.2760 -0.2304  0.0912
 2014SOL    HW1 6941   5.600   1.638   5.562 -1.1950 -0.0578 -2.4029
 2014SOL    HW2 6942   5.733   1.719   5.513 -2.0440  1.1215 -2.7905
 2015SOL     OW 6943   5.105   4.356   5.264 -0.6313  0.3251  0.7652
 2015SOL    HW1 6944   5.050   4.439   5.271 -1.6489 -0.3113  0.5788
 2015SOL    HW2 6945   5.140   4.331   5.354 -0.8793  0.5884  0.9356
 2016SOL     OW 6946   6.975   2.808   2.092 -0.6261  0.3258  0.5688
 2016SOL    HW1 6947   6.893   2.756   2.113 -1.6158  1.5342 -0.1465
 2016SOL    HW2 6948   7.031   2.817   2.175 -1.3741 -0.2309  1.1466
 2017SOL     OW 6949   3.321   2.408   0.486  0.3085 -0.7146 -0.4404
 2017SOL    HW1 6950   3.288   2.444   0.398  1.2293  0.9912 -0.1350
 2017SOL    HW2 6951   3.410   2.365   0.473  1.0474  0.6660 -0.1810
 2018SOL     OW 6952   4.748   1.205   5.138 -0.0674 -0.3110  0.6778
 2018SOL    HW1 6953   4.686   1.223   5.215 -1.2647  0.1004 -0.3379
 2018SOL    HW2 6954   4.745   1.107   5.116 -1.3466 -0.1203 -0.1296
 2019SOL     OW 6955   0.179   2.325   2.635  0.5245 -0.3653 -0.4209
 2019SOL    HW1 6956   0.149   2.410   2.593 -1.1055  0.2222  1.7709
 2019SOL    HW2 6957   0.233   2.344   2.717 -0.3237 -1.4177  0.4100
 2020SOL     OW 6958   4.546   6.953   5.106 -0.3830  0.9198  1.0409
 2020SOL    HW1 6959   4.612   6.917   5.171  1.8245 -1.8148 -2.3227
 2020SOL    HW2 6960   4.461   6.900   5.111  0.9437 -1.5043 -0.2980
 2021SOL     OW 6961   2.139   1.107   2.196 -0.5344  0.3182  0.0088
 2021SOL    HW1 6962   2.056   1.128   2.248 -0.7244 -1.9326  0.7012
 2021SOL    HW2 6963   2.140   1.010   2.171  1.4124  0.5114 -0.8945
 2022SOL     OW 6964   0.968   6.379   3.080  0.3196  0.2723 -0.1733
 2022SOL    HW1 6965   1.018   6.372   3.166 -0.8277  1.1964  0.6190
 2022SOL    HW2 6966   0.877   6.339   3.091 -0.3412  1.6081 -0.5110
 2023SOL     OW 6967   1.131   0.853   4.197 -0.0830 -0.3627 -0.2583
 2023SOL    HW1 6968   1.048   0.797   4.199 -0.5995  0.3918  0.0657
 2023SOL    HW2 6969   1.106   0.948   4.180  0.5124  0.2180  1.7789
 2024SOL     OW 6970   3.715   5.713   1.633 -0.6074  0.2497 -0.4536
 2024SOL    HW1 6971   3.655   5.775   1.682 -1.7749 -0.9726 -0.2947
 2024SOL    HW2 6972   3.694   5.715   1.535 -1.4509 -0.7215 -0.3109
 2025SOL     OW 6973   6.205   5.281   4.381 -0.2342 -0.0943  0.2883
 2025SOL    HW1 6974   6.255   5.235   4.455  0.1031 -1.2446 -0.6231
 2025SOL    HW2 6975   6.222   5.234   4.295 -1.9207  0.2161 -0.2602
 2026SOL     OW 6976   2.760   5.283   4.812 -0.1435 -0.0187  0.2055
 2026SOL    HW1 6977   2.822   5.268   4.889 -0.8618 -1.0624  0.6057
 2026SOL    HW2 6978   2.811   5.315   4.733  0.8966 -0.8557  0.5256
 2027SOL     OW 6979   5.692   2.222   3.387  0.3676  0.0298 -0.0035
 2027SOL    HW1 6980   5.751   2.230   3.467 -0.0007  0.1380  0.2534
 2027SOL    HW2 6981   5.707   2.132   3.344 -0.9276 -0.8734  1.3586
 2028SOL     OW 6982   1.512   5.903   6.130 -0.8455 -0.7059  0.0218
 2028SOL    HW1 6983   1.587   5.930   6.191 -0.0808  0.2182 -1.2738
 2028SOL    HW2 6984   1.501   5.804   6.133 -0.3661 -0.7430  1.1264
 2029SOL     OW 6985   6.666   3.514   4.850  0.2567 -0.8991 -0.3345
 2029SOL    HW1 6986   6.670   3.506   4.950 -1.4311 -3.0114 -0.3774
 2029SOL    HW2 6987   6.723   3.591   4.821  1.2843 -0.6058  2.1873
 2030SOL     OW 6988   3.209   3.009   3.483  0.2349 -0.0964  0.3137
 2030SOL    HW1 6989   3.116   3.034   3.457  0.6174 -0.5306 -1.5902
 2030SOL    HW2 6990   3.273   3.037   3.412  1.4369 -0.7751  1.0829
 2031SOL     OW 6991   2.613   4.697   3.894 -0.2533 -0.6840 -0.9018
 2031SOL    HW1 6992   2.558   4.614   3.903 -1.5340  0.2448  0.3615
 2031SOL    HW2 6993   2.584   4.749   3.814 -4.5166  1.9697  1.9538
 2032SOL     OW 6994   5.330   6.877   1.850 -0.6620  0.4245  0.3163
 2032SOL    HW1 6995   5.249   6.850   1.798  0.5853  0.5847 -1.8134
 2032SOL    HW2 6996   5.390   6.798   1.863  0.5528  1.0068 -1.3962
 2033SOL     OW 6997   3.534   6.145   2.966 -0.0751 -0.3320 -0.1332
 2033SOL    HW1 6998   3.436   6.163   2.956 -0.0853  0.5147  1.3174
 2033SOL    HW2 6999   3.548   6.073   3.034  0.2878 -1.3107 -1.1989
 2034SOL     OW 7000   5.702   6.071   5.324 -0.6671 -0.2129 -0.3206
 2034SOL    HW1 7001   5.647   6.106   5.248  0.4773 -1.9946 -2.0554
 2034SOL    HW2 7002   5.791   6.116   5.324 -0.5241 -0.4956 -0.2602
 2035SOL     OW 7003   4.185   2.609   0.249 -0.6368 -0.0949  0.6405
 2035SOL    HW1 7004   4.265   2.586   0.193 -0.3435 -2.8553  2.0363
 2035SOL    HW2 7005   4.102   2.576   0.204 -0.5822 -0.7246  0.9983
 2036SOL     OW 7006   3.259   4.943   3.491 -0.2021 -0.1505  1.2620
 2036SOL    HW1 7007   3.357   4.931   3.477 -0.3818 -1.2559  0.8972
 2036SOL    HW2 7008   3.242   5.033   3.533  0.8631  0.5004  0.3473
 2037SOL     OW 7009   0.645   5.172   6.717 -0.8206  0.2419  0.2667
 2037SOL    HW1 7010   0.555   5.140   6.748  0.4799 -0.6711  3.4885
 2037SOL    HW2 7011   0.696   5.210   6.795  1.5382  0.9049 -1.4904
 2038SOL     OW 7012   2.089   3.815   5.073 -0.4861 -0.1410 -0.4616
 2038SOL    HW1 7013   2.135   3.728   5.094 -0.4788  0.0341  0.2562
 2038SOL    HW2 7014   2.157   3.886   5.057 -0.4985 -0.0202  0.0125
 2039SOL     OW 7015   0.245   4.774   3.172 -0.3936 -0.0766  0.0014
 2039SOL    HW1 7016   0.147   4.756   3.176 -0.6112  0.9754 -0.3388
 2039SOL    HW2 7017   0.283   4.736   3.088 -0.1230 -2.1486  0.9883
 2040SOL     OW 7018   2.763   1.088   6.031 -0.1707  0.8252 -0.2245
 2040SOL    HW1 7019   2.754   1.008   5.972  0.3135  0.5501  0.0647
 2040SOL    HW2 7020   2.673   1.125   6.051 -0.4494  0.0041  0.0993
 2041SOL     OW 7021   3.539   2.273   0.852  0.6417  0.1262  0.0636
 2041SOL    HW1 7022   3.613   2.215   0.888 -0.0766 -1.4302 -0.8507
 2041SOL    HW2 7023   3.458   2.217   0.836 -0.2677  1.5183 -0.3785
 2042SOL     OW 7024   3.782   6.120   2.464  0.2769  0.1293  0.0384
 2042SOL    HW1 7025   3.785   6.054   2.389 -0.0608 -0.3129  0.4038
 2042SOL    HW2 7026   3.761   6.211   2.427  2.6163  0.4367 -0.7020
 2043SOL     OW 7027   6.450   1.608   2.377 -0.4339  0.1237  0.7670
 2043SOL    HW1 7028   6.469   1.655   2.291 -1.3988  2.0524  1.5468
 2043SOL    HW2 7029   6.518   1.634   2.446 -1.5593  1.2978  1.4958
 2044SOL     OW 7030   1.831   6.898   5.169 -0.0350  0.6492 -0.6502
 2044SOL    HW1 7031   1.899   6.917   5.239  1.4114  0.6714 -2.0194
 2044SOL    HW2 7032   1.793   6.806   5.183  2.2315 -0.4652 -1.3697
 2045SOL     OW 7033   5.590   4.357   4.972 -0.2749  0.0782  0.3453
 2045SOL    HW1 7034   5.560   4.424   4.904 -0.8757 -0.2117  0.3194
 2045SOL    HW2 7035   5.542   4.271   4.958 -3.1833  1.0098  3.2817
 2046SOL     OW 7036   1.497   2.579   2.897  0.1939  0.1489  0.7930
 2046SOL    HW1 7037   1.490   2.584   2.996 -0.0496  0.8097  0.7536
 2046SOL    HW2 7038   1.423   2.633   2.856  0.6826  0.4383  0.2655
 2047SOL     OW 7039   4.187   1.949   2.615  0.2034 -0.2328  0.4915
 2047SOL    HW1 7040   4.214   1.915   2.705 -0.0868  0.9437  1.0339
 2047SOL    HW2 7041   4.142   2.038   2.624 -0.4897 -0.4252 -0.7492
 2048SOL     OW 7042   6.070   6.109   1.970  0.3240 -0.0033  0.0641
 2048SOL    HW1 7043   6.017   6.041   1.919  1.7541 -0.5698 -0.7232
 2048SOL    HW2 7044   6.161   6.072   1.991  2.6689  2.8154 -3.7301
 2049SOL     OW 7045   5.952   0.706   1.397 -0.1504 -0.7497  0.8779
 2049SOL    HW1 7046   5.904   0.790   1.422  1.4596 -0.2906  2.6422
 2049SOL    HW2 7047   6.007   0.675   1.475  2.8894 -0.8925 -1.1536
 2050SOL     OW 7048   0.190   1.062   2.079  0.1324  0.6166 -0.7525
 2050SOL    HW1 7049   0.258   0.993   2.054 -1.7087 -0.8872 -1.9159
 2050SOL    HW2 7050   0.098   1.026   2.061 -1.0194  2.4299  1.0817
 2051SOL     OW 7051   6.365   0.676   3.103  0.1836  0.1642 -0.4403
 2051SOL    HW1 7052   6.463   0.699   3.106  0.1224  0.3661  0.3582
 2051SOL    HW2 7053   6.353   0.589   3.056  0.6988  0.3771 -0.9783
 2052SOL     OW 7054   2.015   3.194   5.020  0.4168 -0.7842 -0.4374
 2052SOL    HW1 7055   1.932   3.187   5.076 -0.0721 -1.7169 -1.2424
 2052SOL    HW2 7056   2.090   3.146   5.066  1.2853  2.1622  1.5425
 2053SOL     OW 7057   0.194   6.037   4.620 -0.3690  0.1795  0.6785
 2053SOL    HW1 7058   0.168   6.127   4.587  1.3419  0.4673  0.0239
 2053SOL    HW2 7059   0.293   6.025   4.612 -0.5000 -1.6005  1.1583
 2054SOL     OW 7060   4.348   3.724   1.087 -0.0819 -0.3881 -0.2479
 2054SOL    HW1 7061   4.293   3.791   1.138 -0.5878 -0.8536 -0.1662
 2054SOL    HW2 7062   4.354   3.753   0.992  0.8599  0.4809  0.0605
 2055SOL     OW 7063   2.478   2.032   2.837  0.2821  0.1524  0.3840
 2055SOL    HW1 7064   2.574   2.046   2.813  0.7934  0.7057  2.5239
 2055SOL    HW2 7065   2.430   2.120   2.835 -0.1962 -0.1108 -0.6006
 2056SOL     OW 7066   3.097   6.827   2.445  0.9072  0.0287  0.0912
 2056SOL    HW1 7067   3.111   6.876   2.531  1.2948  0.2077 -0.0747
 2056SOL    HW2 7068   3.000   6.801   2.437 -0.2577  4.1156 -1.5570
 2057SOL     OW 7069   2.314   0.420   4.011  0.6014 -0.4072 -0.5163
 2057SOL    HW1 7070   2.282   0.380   3.925 -1.8338  1.9234 -0.8302
 2057SOL    HW2 7071   2.376   0.496   3.991  0.0659  0.1089 -0.2353
 2058SOL     OW 7072   3.935   4.997   1.073  0.3364  0.5746 -0.1006
 2058SOL    HW1 7073   3.899   5.087   1.099  1.3825  1.4826 -1.5873
 2058SOL    HW2 7074   4.011   4.973   1.133 -1.7737 -0.7724  2.2353
 2059SOL     OW 7075   3.091   2.892   1.253 -0.8216  0.0140  0.0332
 2059SOL    HW1 7076   3.052   2.976   1.214 -1.9882 -1.8206 -3.1414
 2059SOL    HW2 7077   3.039   2.865   1.333 -1.5177  1.3840  0.0795
 2060SOL     OW 7078   2.114   3.505   6.027 -0.0755 -0.4735 -0.0661
 2060SOL    HW1 7079   2.192   3.447   6.052  0.4202  0.3528  0.3465
 2060SOL    HW2 7080   2.092   3.566   6.103 -0.3133  0.1762 -0.6525
 2061SOL     OW 7081   1.080   0.544   1.496 -0.3277  0.4460 -0.5643
 2061SOL    HW1 7082   1.063   0.643   1.500  1.6259  0.7797  2.1768
 2061SOL    HW2 7083   1.175   0.527   1.469  0.0056 -0.5187  1.0304
 2062SOL     OW 7084   1.283   6.420   1.680 -0.3247 -0.0207  0.1991
 2062SOL    HW1 7085   1.281   6.456   1.773  2.0351  3.0182 -0.7613
 2062SOL    HW2 7086   1.221   6.474   1.622 -0.6565 -0.9152 -0.2952
 2063SOL     OW 7087   0.907   0.866   0.226 -0.5808 -0.6321  0.4624
 2063SOL    HW1 7088   0.980   0.924   0.262 -1.7074 -0.1280  2.0463
 2063SOL    HW2 7089   0.908   0.778   0.275 -0.0907 -1.2238 -0.5867
 2064SOL     OW 7090   1.450   3.494   2.332 -0.1734 -0.2146  0.4057
 2064SOL    HW1 7091   1.434   3.414   2.390  1.8374 -1.4521 -0.6356
 2064SOL    HW2 7092   1.362   3.531   2.301 -1.1646 -2.1348  0.7629
 2065SOL     OW 7093   2.887   4.817   3.860  0.4922  0.1953  0.0962
 2065SOL    HW1 7094   2.925   4.827   3.952 -0.8339 -0.7628  0.7867
 2065SOL    HW2 7095   2.817   4.746   3.861 -0.1210  0.7370 -1.4943
 2066SOL     OW 7096   2.905   0.786   3.943  0.2362  0.4815  0.6708
 2066SOL    HW1 7097   2.876   0.736   3.861  1.5572  0.3551  0.2664
 2066SOL    HW2 7098   2.824   0.818   3.992 -0.5901 -0.0403 -0.3079
 2067SOL     OW 7099   5.941   1.589   4.022  0.0707 -0.0970 -0.0661
 2067SOL    HW1 7100   5.917   1.568   4.117  0.8966 -0.6941  0.0179
 2067SOL    HW2 7101   5.857   1.607   3.970 -0.4376 -0.4344  0.6187
 2068SOL     OW 7102   1.332   5.689   2.179  0.1048 -0.0001  0.3016
 2068SOL    HW1 7103   1.286   5.613   2.133 -0.6296  0.0092  0.9964
 2068SOL    HW2 7104   1.414   5.655   2.224  0.3082 -0.1891 -0.1939
 2069SOL     OW 7105   7.000   5.060   1.137 -0.4782  0.3319 -0.2268
 2069SOL    HW1 7106   6.981   5.147   1.092 -3.9452  0.1034  0.5542
 2069SOL    HW2 7107   6.949   5.055   1.223  0.3121 -2.1416  0.1803
 2070SOL     OW 7108   3.932   7.019   4.796  0.3806  0.0192 -0.0646
 2070SOL    HW1 7109   3.899   7.079   4.868  0.4348 -0.7480  0.6131
 2070SOL    HW2 7110   3.959   6.931   4.835  0.3692 -0.4280 -1.0237
 2071SOL     OW 7111   3.996   5.427   1.885 -0.1303  0.1224 -0.4953
 2071SOL    HW1 7112   3.963   5.348   1.936 -0.2378 -0.4240 -1.4061
 2071SOL    HW2 7113   4.051   5.396   1.807 -0.8434  0.9094 -1.3332
 2072SOL     OW 7114   2.637   0.500   5.555 -0.3131  0.5574 -0.0317
 2072SOL    HW1 7115   2.640   0.431   5.627 -1.0090  0.1905 -0.3404
 2072SOL    HW2 7116   2.548   0.496   5.509 -0.5456  1.9898  0.2540
 2073SOL     OW 7117   3.307   5.261   5.558  0.1852  0.1067  0.0926
 2073SOL    HW1 7118   3.314   5.348   5.508  0.2969  0.4233  0.6487
 2073SOL    HW2 7119   3.259   5.194   5.501  0.3592  0.4432 -0.4595
 2074SOL     OW 7120   6.693   0.458   0.414 -0.4410 -1.2403  0.2267
 2074SOL    HW1 7121   6.662   0.542   0.459  1.0664 -0.7290  0.3814
 2074SOL    HW2 7122   6.625   0.386   0.427 -0.6292 -0.7566  2.2733
 2075SOL     OW 7123   0.151   5.358   6.666  0.0118  0.4129 -1.1008
 2075SOL    HW1 7124   0.086   5.433   6.652  0.1013  0.8702  0.6999
 2075SOL    HW2 7125   0.148   5.297   6.587  0.0416  2.3651 -2.7179
 2076SOL     OW 7126   0.717   3.487   0.032 -0.2051 -0.0182 -0.3465
 2076SOL    HW1 7127   0.719   3.582   0.003  1.2808  0.1917  0.3492
 2076SOL    HW2 7128   0.738   3.428  -0.047  2.5149  0.4755 -0.0913
 2077SOL     OW 7129   5.043   4.875   6.158 -0.1199 -0.8305  0.2367
 2077SOL    HW1 7130   5.068   4.801   6.095  2.2579 -0.4035  0.5969
 2077SOL    HW2 7131   5.099   4.869   6.241  0.2793  1.4607  0.2023
 2078SOL     OW 7132   3.486   3.752   0.808 -0.2774  0.2523  0.1198
 2078SOL    HW1 7133   3.407   3.753   0.869  0.3830  0.6100  0.9942
 2078SOL    HW2 7134   3.533   3.840   0.813  0.8395 -0.3480  0.5217
 2079SOL     OW 7135   0.085   1.164   6.158 -0.2964 -0.1329  0.7860
 2079SOL    HW1 7136   0.030   1.122   6.231 -0.5304  1.2923  1.4558
 2079SOL    HW2 7137   0.033   1.163   6.073 -1.9351  2.2777  1.6674
 2080SOL     OW 7138   0.277   3.719   6.852 -0.1469 -0.4526  0.1304
 2080SOL    HW1 7139   0.289   3.711   6.753  0.0015 -3.7180  0.3081
 2080SOL    HW2 7140   0.192   3.673   6.879  0.2949 -0.4421  1.6232
 2081SOL     OW 7141   6.730   5.962   6.814  0.0930 -1.1101 -0.2405
 2081SOL    HW1 7142   6.693   5.870   6.825 -0.4130 -0.8700  0.0893
 2081SOL    HW2 7143   6.761   5.996   6.902  1.0307 -1.2708 -0.4974
 2082SOL     OW 7144   5.315   5.284   4.104  0.8042  1.0404 -0.0922
 2082SOL    HW1 7145   5.281   5.197   4.140  1.1189  1.4157  1.1300
 2082SOL    HW2 7146   5.237   5.344   4.086  0.7112  1.5455  1.7955
 2083SOL     OW 7147   5.229   5.978   3.009  0.2694  0.4784 -0.3338
 2083SOL    HW1 7148   5.316   5.956   3.052 -0.5950 -4.1166 -0.4613
 2083SOL    HW2 7149   5.237   5.965   2.910 -0.8178 -1.6335 -0.2094
 2084SOL     OW 7150   6.614   1.800   5.767  0.0723  0.5051 -0.1381
 2084SOL    HW1 7151   6.635   1.892   5.799  1.2479  0.8613 -1.7700
 2084SOL    HW2 7152   6.521   1.797   5.730  0.8908  1.7681 -2.4396
 2085SOL     OW 7153   4.986   1.275   1.014 -0.1119  0.6767  0.0222
 2085SOL    HW1 7154   4.900   1.322   1.035 -1.7638 -1.7946 -0.7076
 2085SOL    HW2 7155   5.048   1.282   1.092 -1.1293  2.1796  0.7356
 2086SOL     OW 7156   1.127   1.533   2.311  0.0085  0.4391 -0.6092
 2086SOL    HW1 7157   1.193   1.508   2.240  0.6040 -0.3783  0.2031
 2086SOL    HW2 7158   1.176   1.554   2.396 -0.7603  0.1024 -0.0671
 2087SOL     OW 7159   1.509   2.932   0.996  0.0198 -0.5596 -0.1089
 2087SOL    HW1 7160   1.527   2.995   1.072  1.3133  0.2523 -1.0552
 2087SOL    HW2 7161   1.441   2.864   1.025  0.6255 -0.4039  1.8384
 2088SOL     OW 7162   2.744   5.164   0.465  0.1224 -0.4578 -0.2883
 2088SOL    HW1 7163   2.827   5.109   0.452 -1.2142 -2.3782 -1.1532
 2088SOL    HW2 7164   2.673   5.107   0.507 -0.8133  1.1122  0.3316
 2089SOL     OW 7165   3.383   6.828   6.097 -0.9921 -0.7720  0.0611
 2089SOL    HW1 7166   3.371   6.873   6.185 -0.5814  0.9972 -0.7204
 2089SOL    HW2 7167   3.297   6.786   6.068 -2.7679  3.0611 -0.9523
 2090SOL     OW 7168   2.046   5.896   0.651 -0.4843 -0.1111  0.8046
 2090SOL    HW1 7169   2.017   5.974   0.706 -2.1940 -1.2799  1.6547
 2090SOL    HW2 7170   2.106   5.928   0.577 -0.2577  1.8298  1.7657
 2091SOL     OW 7171   6.204   2.899   5.264  0.1435 -0.2882 -0.4682
 2091SOL    HW1 7172   6.195   2.995   5.234  2.6454 -0.0141 -0.6078
 2091SOL    HW2 7173   6.196   2.895   5.363  1.2211  0.2821 -0.3413
 2092SOL     OW 7174   3.136   1.660   2.734  0.4287 -0.4780 -0.0381
 2092SOL    HW1 7175   3.217   1.654   2.793  0.4077 -2.9326 -0.1490
 2092SOL    HW2 7176   3.061   1.704   2.784  1.4373  0.7018  0.4909
 2093SOL     OW 7177   3.738   5.065   1.592  0.1829 -0.1405 -0.2864
 2093SOL    HW1 7178   3.705   5.098   1.503  1.1946 -1.4830 -1.2035
 2093SOL    HW2 7179   3.715   4.969   1.602 -0.7339  0.2078  1.3501
 2094SOL     OW 7180   0.865   5.427   5.433 -0.5887 -0.3937  0.1354
 2094SOL    HW1 7181   0.914   5.340   5.437  0.7425  0.2951 -0.6746
 2094SOL    HW2 7182   0.775   5.416   5.476  0.0370 -1.8313  1.1691
 2095SOL     OW 7183   1.800   3.581   4.537  0.0723  0.1269  0.2032
 2095SOL    HW1 7184   1.750   3.506   4.580  1.8568  0.0046  2.2755
 2095SOL    HW2 7185   1.838   3.641   4.608  1.2489  1.2780 -1.3127
 2096SOL     OW 7186   2.118   0.979   3.655  0.0221 -0.1011 -0.3629
 2096SOL    HW1 7187   2.148   0.900   3.707 -1.1687 -1.1733 -1.2493
 2096SOL    HW2 7188   2.170   0.985   3.570  0.0008 -0.0062 -0.3699
 2097SOL     OW 7189   5.841   1.543   4.285  0.2479  0.1943  0.6312
 2097SOL    HW1 7190   5.764   1.495   4.244 -0.4732  3.0569 -1.6908
 2097SOL    HW2 7191   5.807   1.613   4.347  0.7941  2.1405 -1.1430
 2098SOL     OW 7192   0.244   0.224   5.765 -0.4419 -0.7716 -0.7293
 2098SOL    HW1 7193   0.148   0.236   5.744 -0.3167 -0.2878 -1.0293
 2098SOL    HW2 7194   0.254   0.193   5.860 -0.8270  0.4420 -0.2773
 2099SOL     OW 7195   6.713   0.899   1.443 -0.6242 -0.0786  0.0707
 2099SOL    HW1 7196   6.681   0.990   1.415  0.3511 -0.0724 -1.1462
 2099SOL    HW2 7197   6.811   0.891   1.422 -0.1065 -0.5691  2.3857
 2100SOL     OW 7198   3.018   4.038   4.972  0.0357 -0.2301 -0.1554
 2100SOL    HW1 7199   2.985   3.951   4.938 -0.1790 -0.5084  0.7325
 2100SOL    HW2 7200   2.968   4.063   5.055 -0.6968  1.3003 -1.0275
 2101SOL     OW 7201   3.628   4.108   1.383 -0.2568 -0.3670  0.0389
 2101SOL    HW1 7202   3.596   4.084   1.474 -0.4153  0.6211  0.2521
 2101SOL    HW2 7203   3.560   4.080   1.315  0.1654 -1.7386  0.1308
 2102SOL     OW 7204   1.068   1.721   5.055 -0.3812 -0.0128 -0.4675
 2102SOL    HW1 7205   0.984   1.774   5.041 -0.3973  0.0822 -0.0425
 2102SOL    HW2 7206   1.147   1.781   5.045 -0.3719 -0.0635 -0.6931
 2103SOL     OW 7207   1.236   3.020   2.472  0.5209  0.2179 -0.2122
 2103SOL    HW1 7208   1.181   2.941   2.445  0.7335 -0.0220  0.0479
 2103SOL    HW2 7209   1.244   3.023   2.572  0.3649  0.6732 -0.2095
 2104SOL     OW 7210   2.468   0.328   1.796 -0.0499 -0.6396  0.7438
 2104SOL    HW1 7211   2.517   0.261   1.853  0.6345 -2.6945 -2.0392
 2104SOL    HW2 7212   2.430   0.282   1.716  0.8519  2.3788 -1.6137
 2105SOL     OW 7213   1.267   2.076   5.848  0.3273 -0.1262  0.2040
 2105SOL    HW1 7214   1.360   2.042   5.861  0.2498 -0.2789  0.3603
 2105SOL    HW2 7215   1.232   2.047   5.760  0.2964 -0.3683  0.2966
 2106SOL     OW 7216   0.208   3.272   5.896 -0.4627  0.0462  0.0851
 2106SOL    HW1 7217   0.154   3.189   5.880 -1.0810  0.4901 -0.1883
 2106SOL    HW2 7218   0.206   3.329   5.814 -1.6038  1.1930  0.8615
 2107SOL     OW 7219   1.134   0.656   4.916 -0.2805  0.2548 -0.5780
 2107SOL    HW1 7220   1.170   0.626   4.827  0.3308 -0.3446 -0.1415
 2107SOL    HW2 7221   1.178   0.603   4.989  0.2181  1.6661  0.1702
 2108SOL     OW 7222   3.374   4.550   6.225  0.0367 -0.1757  0.0274
 2108SOL    HW1 7223   3.377   4.600   6.138  1.9358 -1.9427 -1.0146
 2108SOL    HW2 7224   3.456   4.569   6.278  0.9387 -2.2556 -0.5102
 2109SOL     OW 7225   3.505   4.825   0.973  0.2070  0.6850 -0.1305
 2109SOL    HW1 7226   3.457   4.909   0.949 -1.6012  0.4972  2.4704
 2109SOL    HW2 7227   3.564   4.841   1.053  1.3571 -0.1032 -0.7828
 2110SOL     OW 7228   3.641   4.918   4.156 -0.0305  0.5151  0.7595
 2110SOL    HW1 7229   3.736   4.929   4.127 -0.1874 -0.1331 -0.0690
 2110SOL    HW2 7230   3.627   4.961   4.245  1.2956 -0.2946  1.3765
 2111SOL     OW 7231   4.835   0.038   2.673  0.0308 -0.0248  0.4448
 2111SOL    HW1 7232   4.931   0.059   2.657  0.4043 -0.6234  1.7962
 2111SOL    HW2 7233   4.793   0.003   2.589  1.4006 -1.2694  0.2481
 2112SOL     OW 7234   3.571   0.951   4.408  0.1159 -0.4005 -0.1253
 2112SOL    HW1 7235   3.570   1.019   4.334  0.8123 -1.1770 -0.8725
 2112SOL    HW2 7236   3.493   0.890   4.398  0.7354 -1.1004 -0.8099
 2113SOL     OW 7237   5.900   2.013   6.518  0.0274  0.0896 -0.2689
 2113SOL    HW1 7238   5.872   2.024   6.613  0.7038  0.4832 -0.1150
 2113SOL    HW2 7239   5.946   2.095   6.486 -0.0384 -0.1047 -0.8899
 2114SOL     OW 7240   1.946   4.078   5.813 -0.2208 -0.4308  0.2394
 2114SOL    HW1 7241   1.891   4.075   5.729 -1.4021 -0.1347  0.9758
 2114SOL    HW2 7242   1.973   3.986   5.839 -1.0755 -0.6687  0.3095
 2115SOL     OW 7243   6.807   6.014   5.531  0.4603  0.0450 -0.3409
 2115SOL    HW1 7244   6.782   5.917   5.537 -0.1286  0.2337  0.5048
 2115SOL    HW2 7245   6.784   6.060   5.617 -1.7866  1.5180 -1.6305
 2116SOL     OW 7246   2.047   6.885   5.371  0.0445 -0.1546  0.7901
 2116SOL    HW1 7247   2.032   6.792   5.404 -0.8791 -0.8074 -1.2912
 2116SOL    HW2 7248   2.064   6.946   5.448  1.2565 -2.1283  2.1672
 2117SOL     OW 7249   6.665   6.424   1.404  0.7294  0.1091  0.0939
 2117SOL    HW1 7250   6.675   6.441   1.306  0.0908  2.3526  0.3681
 2117SOL    HW2 7251   6.698   6.503   1.455  0.5154 -0.7925  1.6894
 2118SOL     OW 7252   3.648   2.417   0.610  0.4509  0.5540 -0.2512
 2118SOL    HW1 7253   3.622   2.394   0.704 -0.2269  2.1993  0.0080
 2118SOL    HW2 7254   3.736   2.464   0.611 -1.4901  4.6635  0.2315
 2119SOL     OW 7255   2.145   1.576   4.742 -0.1246 -0.3905 -0.8784
 2119SOL    HW1 7256   2.203   1.657   4.755 -1.0248 -0.0077  1.0642
 2119SOL    HW2 7257   2.127   1.564   4.644  1.6674  0.5616 -1.3759
 2120SOL     OW 7258   5.866   0.590   2.639 -0.3502  0.3454  0.4020
 2120SOL    HW1 7259   5.931   0.666   2.626 -1.7170  1.5565  0.3964
 2120SOL    HW2 7260   5.775   0.618   2.608 -0.7583 -1.5707 -0.2521
 2121SOL     OW 7261   0.121   2.505   5.420 -0.1942  0.0208 -0.3289
 2121SOL    HW1 7262   0.152   2.419   5.379 -1.1179  0.4689 -2.0760
 2121SOL    HW2 7263   0.034   2.491   5.466 -0.8024  0.1917 -1.4049
 2122SOL     OW 7264   2.461   3.450   1.483  0.2661  0.0640 -0.2503
 2122SOL    HW1 7265   2.407   3.369   1.458 -0.5135 -0.1406  1.8436
 2122SOL    HW2 7266   2.481   3.504   1.401 -1.1211 -1.0776 -1.3954
 2123SOL     OW 7267   6.169   3.004   5.548  0.0406  0.2590 -0.1833
 2123SOL    HW1 7268   6.074   2.986   5.572  0.2479 -0.7825 -0.0679
 2123SOL    HW2 7269   6.206   3.074   5.610 -0.4317  0.1197  0.2676
 2124SOL     OW 7270   5.949   4.973   2.827  0.1085  0.6141 -0.2309
 2124SOL    HW1 7271   5.909   5.009   2.911  0.9549  0.0499  0.4334
 2124SOL    HW2 7272   6.039   4.935   2.847 -0.0580 -0.3528 -1.2274
 2125SOL     OW 7273   5.939   6.944   5.816 -0.6192  0.2269 -0.3798
 2125SOL    HW1 7274   5.954   6.993   5.730 -0.6564  0.4918 -0.2377
 2125SOL    HW2 7275   6.023   6.899   5.845 -0.4989  0.4734 -0.3465
 2126SOL     OW 7276   5.650   4.286   0.813 -0.1943 -0.0200  0.3699
 2126SOL    HW1 7277   5.628   4.206   0.757  1.1872 -0.1585 -0.0136
 2126SOL    HW2 7278   5.720   4.341   0.767 -1.6609  1.8456  0.2659
 2127SOL     OW 7279   1.107   5.590   3.869  0.7238  0.3801 -0.4925
 2127SOL    HW1 7280   1.055   5.674   3.885 -1.3922 -0.7277 -1.0617
 2127SOL    HW2 7281   1.171   5.604   3.794 -1.7607  0.7244 -2.6916
 2128SOL     OW 7282   3.961   4.069   6.208  0.9432  0.2659 -0.0804
 2128SOL    HW1 7283   3.987   3.975   6.228 -0.3252 -0.6827 -2.5304
 2128SOL    HW2 7284   3.924   4.075   6.115 -2.1133  2.5446  1.1067
 2129SOL     OW 7285   5.553   1.603   0.099  0.4368  0.1264  0.2473
 2129SOL    HW1 7286   5.486   1.528   0.097  1.3768 -0.7207 -0.0704
 2129SOL    HW2 7287   5.555   1.643   0.191 -0.3314  0.0034  0.3233
 2130SOL     OW 7288   3.293   5.529   3.400 -0.0308  0.2243 -0.4732
 2130SOL    HW1 7289   3.293   5.460   3.473 -0.2786  1.5100  0.7684
 2130SOL    HW2 7290   3.213   5.588   3.409  0.0195  0.5169 -1.7003
 2131SOL     OW 7291   5.215   3.983   0.149 -0.0636  0.4177  0.1153
 2131SOL    HW1 7292   5.292   4.027   0.105 -1.3643  0.7372 -1.9743
 2131SOL    HW2 7293   5.207   3.889   0.116 -0.1994  0.1816  0.8019
 2132SOL     OW 7294   6.721   6.999   1.546 -0.1382  0.1243  0.4752
 2132SOL    HW1 7295   6.712   7.099   1.553 -1.1257 -0.0057  1.4768
 2132SOL    HW2 7296   6.807   6.971   1.587  0.9259  0.6799 -1.2710
 2133SOL     OW 7297   6.972   2.139   2.679  0.1282 -0.8360 -0.4659
 2133SOL    HW1 7298   7.052   2.189   2.647  0.2816 -0.5171  0.3631
 2133SOL    HW2 7299   7.000   2.073   2.749 -0.5376  0.7378  1.3998
 2134SOL     OW 7300   2.308   3.454   1.081  0.8367 -0.2892 -0.2593
 2134SOL    HW1 7301   2.310   3.354   1.079  0.0013 -0.3371 -2.9172
 2134SOL    HW2 7302   2.379   3.490   1.020  1.1261  0.7687  0.6587
 2135SOL     OW 7303   0.618   0.021   4.679  0.4540 -0.2679  0.5916
 2135SOL    HW1 7304   0.707   0.024   4.635 -0.0802  1.4786 -0.4643
 2135SOL    HW2 7305   0.604  -0.069   4.721  1.9730 -1.1636 -0.7319
 2136SOL     OW 7306   3.609   4.636   6.309  0.2879 -0.1992 -0.1545
 2136SOL    HW1 7307   3.618   4.697   6.388  0.7247 -0.3488 -0.0863
 2136SOL    HW2 7308   3.675   4.663   6.238  0.2652 -0.3975 -0.2520
 2137SOL     OW 7309   0.395   4.924   2.785  0.5152  0.5181 -0.0642
 2137SOL    HW1 7310   0.393   5.018   2.751 -0.6859  0.8102  0.7600
 2137SOL    HW2 7311   0.313   4.906   2.840  0.2584 -1.2939 -0.9566
 2138SOL     OW 7312   6.926   6.859   0.095 -0.1678 -0.2371  0.3808
 2138SOL    HW1 7313   6.989   6.781   0.090 -0.0103 -0.0695 -0.4044
 2138SOL    HW2 7314   6.833   6.827   0.078  0.1488  0.0449 -2.4257
 2139SOL     OW 7315   3.737   6.249   4.936  0.4733  0.5596  0.3227
 2139SOL    HW1 7316   3.666   6.309   4.974  0.1230 -0.1199  0.7671
 2139SOL    HW2 7317   3.826   6.275   4.974  0.6817  2.2417 -1.2149
 2140SOL     OW 7318   6.881   0.176   2.696 -0.1726 -0.2222 -0.1417
 2140SOL    HW1 7319   6.977   0.156   2.715  0.3499  2.3102  0.2356
 2140SOL    HW2 7320   6.830   0.176   2.782 -1.0126 -3.3965 -0.4969
 2141SOL     OW 7321   2.254   1.399   1.681  0.5026  0.3352  0.4031
 2141SOL    HW1 7322   2.223   1.316   1.635  1.3030  1.3546 -2.1252
 2141SOL    HW2 7323   2.354   1.403   1.681  0.5803  0.1591  2.7562
 2142SOL     OW 7324   4.412   3.184   6.232  0.1280 -0.0299  0.0555
 2142SOL    HW1 7325   4.322   3.178   6.188  0.5708 -0.2691 -0.8267
 2142SOL    HW2 7326   4.429   3.100   6.284 -0.1448  0.0146  0.2255
 2143SOL     OW 7327   0.660   2.238   5.751  0.5355 -0.3480  0.4165
 2143SOL    HW1 7328   0.752   2.266   5.723 -0.4998 -0.1930 -3.2729
 2143SOL    HW2 7329   0.604   2.318   5.769  0.4586 -0.3663  0.2611
 2144SOL     OW 7330   3.307   5.591   5.775 -0.1591 -0.4229  0.0585
 2144SOL    HW1 7331   3.296   5.520   5.844  1.6115 -1.0413 -0.2456
 2144SOL    HW2 7332   3.219   5.610   5.731 -0.7282 -2.1703  0.3934
 2145SOL     OW 7333   6.907   2.161   1.673 -0.3664 -0.4579  0.3456
 2145SOL    HW1 7334   6.974   2.231   1.648 -1.6431  0.7390  0.2007
 2145SOL    HW2 7335   6.854   2.135   1.592 -1.2502 -0.1130  0.8066
 2146SOL     OW 7336   3.378   5.091   4.465 -0.2669 -1.0140  0.8235
 2146SOL    HW1 7337   3.388   5.125   4.559 -3.2219 -0.3738  1.0005
 2146SOL    HW2 7338   3.347   4.996   4.468  2.1527 -1.9014  0.3725
 2147SOL     OW 7339   5.221   3.102   2.451 -0.4085 -0.2182  0.2660
 2147SOL    HW1 7340   5.143   3.073   2.507  0.1557  0.7302  1.5926
 2147SOL    HW2 7341   5.197   3.186   2.402 -0.6054 -0.5842 -0.2876
 2148SOL     OW 7342   6.249   2.143   3.180 -0.3590 -0.3470 -0.2108
 2148SOL    HW1 7343   6.349   2.142   3.174 -0.3762 -0.3498 -0.4973
 2148SOL    HW2 7344   6.215   2.232   3.149 -0.4564 -0.3988 -0.2516
 2149SOL     OW 7345   5.533   6.519   0.899 -0.4164  0.3506 -0.4293
 2149SOL    HW1 7346   5.617   6.500   0.849 -0.7990 -2.6529 -0.0832
 2149SOL    HW2 7347   5.454   6.493   0.844 -0.8564 -2.9349  1.4905
 2150SOL     OW 7348   3.554   0.149   5.064  0.5228  0.0483 -0.3383
 2150SOL    HW1 7349   3.490   0.133   4.989  0.2403 -1.0689  0.1131
 2150SOL    HW2 7350   3.504   0.173   5.147  0.5687 -1.7076  0.2497
 2151SOL     OW 7351   6.123   6.058   4.667  0.0069 -0.3325  0.2810
 2151SOL    HW1 7352   6.218   6.063   4.635 -0.6167  0.0159 -1.6286
 2151SOL    HW2 7353   6.085   6.150   4.673 -0.7941 -0.5803 -0.8446
 2152SOL     OW 7354   1.252   4.213   0.671  0.1410  0.3777 -0.0983
 2152SOL    HW1 7355   1.161   4.225   0.632 -0.0122  1.4738  0.5597
 2152SOL    HW2 7356   1.262   4.119   0.705 -1.2621  0.6263  1.1009
 2153SOL     OW 7357   3.371   0.224   6.294 -0.2639  0.2062  0.5712
 2153SOL    HW1 7358   3.461   0.245   6.334 -0.0799  2.4724 -0.8417
 2153SOL    HW2 7359   3.313   0.305   6.300 -1.3060 -0.4095 -0.8528
 2154SOL     OW 7360   3.076   3.569   0.770  0.6712  0.5983  0.0196
 2154SOL    HW1 7361   3.000   3.552   0.831  0.6646  0.7312  0.0479
 2154SOL    HW2 7362   3.153   3.511   0.795  0.5245  0.3455 -0.1105
 2155SOL     OW 7363   5.193   6.541   3.630 -0.2188  0.2256  0.3832
 2155SOL    HW1 7364   5.167   6.445   3.635  0.9068 -0.1008  0.1226
 2155SOL    HW2 7365   5.282   6.554   3.673  0.0112  1.0080 -0.3053
 2156SOL     OW 7366   4.454   6.744   5.681  0.0612 -1.0277 -0.7754
 2156SOL    HW1 7367   4.529   6.706   5.735 -0.1933  0.2892  0.5645
 2156SOL    HW2 7368   4.372   6.688   5.694  0.1268 -0.9900 -0.1649
 2157SOL     OW 7369   4.776   6.595   5.126  0.7229  0.2043 -0.0937
 2157SOL    HW1 7370   4.808   6.502   5.108  0.4611  0.1166 -0.1087
 2157SOL    HW2 7371   4.714   6.624   5.053  1.4011  0.6774 -0.4847
 2158SOL     OW 7372   6.244   4.124   3.184  0.0313  0.4886  0.5887
 2158SOL    HW1 7373   6.205   4.204   3.230 -2.8337 -0.6107  0.2577
 2158SOL    HW2 7374   6.172   4.073   3.138  2.4634  1.0960 -4.7539
 2159SOL     OW 7375   6.261   3.906   5.390 -0.3296  0.4896  0.4567
 2159SOL    HW1 7376   6.303   3.947   5.309 -0.6075  0.8730  0.5069
 2159SOL    HW2 7377   6.163   3.926   5.392 -0.1188  1.5351  1.5222
 2160SOL     OW 7378   3.439   1.751   1.604  0.3561 -0.5446  0.1792
 2160SOL    HW1 7379   3.461   1.848   1.605 -0.4985 -0.3424  0.2635
 2160SOL    HW2 7380   3.384   1.729   1.684 -0.5587 -0.8255 -0.5141
 2161SOL     OW 7381   3.659   1.269   4.481 -0.1038 -0.6253 -0.1858
 2161SOL    HW1 7382   3.632   1.207   4.555  0.6570  0.5370  1.1121
 2161SOL    HW2 7383   3.679   1.359   4.519  0.0691  0.0747 -1.8645
 2162SOL     OW 7384   3.854   0.398   3.166  0.2608 -0.5553 -0.3677
 2162SOL    HW1 7385   3.808   0.311   3.179 -0.8043  0.1296  0.6141
 2162SOL    HW2 7386   3.812   0.468   3.225  2.1951  0.2343  0.1732
 2163SOL     OW 7387   3.839   5.347   4.584  0.2527 -0.0362 -0.5619
 2163SOL    HW1 7388   3.765   5.322   4.646 -0.5956  1.3059 -0.9771
 2163SOL    HW2 7389   3.927   5.319   4.623 -0.4413 -1.5129  0.0155
 2164SOL     OW 7390   2.224   0.269   1.946 -0.1188 -0.3332  0.2703
 2164SOL    HW1 7391   2.173   0.221   1.875  0.8500 -2.1183  0.7188
 2164SOL    HW2 7392   2.313   0.298   1.910  0.2019 -0.8686  0.6155
 2165SOL     OW 7393   2.028   6.528   6.182  0.3040 -0.5471  0.1935
 2165SOL    HW1 7394   2.123   6.554   6.165 -0.1948  1.5163  0.3583
 2165SOL    HW2 7395   1.998   6.567   6.270 -0.9474 -0.4233 -0.2758
 2166SOL     OW 7396   6.251   0.280   4.362  0.3718  0.2912  0.5669
 2166SOL    HW1 7397   6.172   0.325   4.404  0.7242  0.3864  1.1497
 2166SOL    HW2 7398   6.277   0.201   4.418 -0.8466 -1.2589 -0.9672
 2167SOL     OW 7399   1.301   4.316   3.012  0.1925  0.0199  0.3131
 2167SOL    HW1 7400   1.264   4.346   2.925 -0.8183 -1.1086  0.3224
 2167SOL    HW2 7401   1.240   4.344   3.086  0.7706  0.5154  0.6058
 2168SOL     OW 7402   4.442   0.620   3.366  0.0928 -1.1511 -0.2986
 2168SOL    HW1 7403   4.376   0.692   3.386  1.3975 -0.1885  0.6665
 2168SOL    HW2 7404   4.467   0.623   3.270  0.2934 -0.1799 -0.2221
 2169SOL     OW 7405   5.679   4.394   6.920 -0.0274 -0.8639 -0.6033
 2169SOL    HW1 7406   5.622   4.477   6.920 -1.0092 -1.4100  2.4205
 2169SOL    HW2 7407   5.681   4.356   6.828  1.1309  2.8683 -2.3492
 2170SOL     OW 7408   0.988   1.419   4.101 -0.1333  0.6389  0.3243
 2170SOL    HW1 7409   0.926   1.344   4.125 -0.2934  1.2792  2.0360
 2170SOL    HW2 7410   1.060   1.384   4.042 -0.4071 -0.7958  0.7898
 2171SOL     OW 7411   2.658   6.613   4.292  0.1846 -0.7149 -0.0162
 2171SOL    HW1 7412   2.678   6.706   4.260 -0.6559 -1.1375 -1.8827
 2171SOL    HW2 7413   2.579   6.615   4.354  1.0522 -0.0333  1.0975
 2172SOL     OW 7414   1.412   6.053   3.956  0.1449  0.0138 -0.7433
 2172SOL    HW1 7415   1.503   6.046   3.914  1.1250 -0.1729  1.3100
 2172SOL    HW2 7416   1.397   6.148   3.986  0.4444 -0.3189  0.5218
 2173SOL     OW 7417   1.827   5.871   0.473  0.0942  0.1553 -0.0555
 2173SOL    HW1 7418   1.882   5.869   0.389  1.0392  1.4193  0.4996
 2173SOL    HW2 7419   1.888   5.878   0.552 -0.8221 -0.0769  0.6901
 2174SOL     OW 7420   5.206   6.825   6.305 -0.0516 -0.9512  0.4778
 2174SOL    HW1 7421   5.164   6.821   6.396 -0.5098  0.7278  0.3767
 2174SOL    HW2 7422   5.172   6.750   6.249 -0.2390 -1.6445  1.4937
 2175SOL     OW 7423   1.068   4.932   4.288  0.0098 -0.1720 -0.3211
 2175SOL    HW1 7424   1.108   5.018   4.257  0.7827 -0.5205 -0.3008
 2175SOL    HW2 7425   1.016   4.891   4.213  1.4299 -0.7516 -1.0256
 2176SOL     OW 7426   0.871   5.152   5.788  0.1589 -0.5326  0.4807
 2176SOL    HW1 7427   0.873   5.252   5.791  2.4408 -0.5484  1.3176
 2176SOL    HW2 7428   0.859   5.122   5.693  0.3641  0.5190  0.1076
 2177SOL     OW 7429   0.681   2.201   2.121  0.8817 -0.0156 -0.1563
 2177SOL    HW1 7430   0.596   2.253   2.131 -0.0743 -1.4004 -0.7744
 2177SOL    HW2 7431   0.740   2.247   2.053 -0.6246 -0.5323 -1.8817
 2178SOL     OW 7432   3.248   3.352   3.233  0.3235  0.2101  0.0677
 2178SOL    HW1 7433   3.347   3.365   3.241  0.3235 -0.3112  1.0476
 2178SOL    HW2 7434   3.204   3.441   3.222  0.9614  0.3852 -1.2468
 2179SOL     OW 7435   1.379   4.711   6.624  0.5826 -0.5527  0.0686
 2179SOL    HW1 7436   1.473   4.744   6.633  0.6131 -1.0226  2.1205
 2179SOL    HW2 7437   1.321   4.784   6.586  1.3259  0.6042  1.0743
 2180SOL     OW 7438   0.292   3.691   4.785 -0.1950 -0.0633 -0.2269
 2180SOL    HW1 7439   0.226   3.685   4.860 -0.3973  1.3076 -0.2706
 2180SOL    HW2 7440   0.319   3.599   4.757  2.2823 -0.7233  3.5922
 2181SOL     OW 7441   1.712   2.569   6.779 -0.1858  0.4510  0.3097
 2181SOL    HW1 7442   1.737   2.658   6.741 -1.6790  1.3226  1.2954
 2181SOL    HW2 7443   1.618   2.547   6.755  0.2437 -1.0342 -0.1691
 2182SOL     OW 7444   5.809   3.624   4.378 -0.3815 -0.1658  0.1198
 2182SOL    HW1 7445   5.901   3.596   4.407 -0.8505 -0.1442  1.7567
 2182SOL    HW2 7446   5.811   3.721   4.352 -0.1366  0.1393  1.2136
 2183SOL     OW 7447   4.879   0.753   1.297  0.1795 -0.5970 -0.6315
 2183SOL    HW1 7448   4.808   0.698   1.340 -0.0250  0.5281  0.5435
 2183SOL    HW2 7449   4.855   0.850   1.303  0.4393 -0.3560 -2.8077
 2184SOL     OW 7450   5.123   2.219   4.601 -0.6062  0.7421 -0.0336
 2184SOL    HW1 7451   5.120   2.203   4.503  1.5878 -1.1147  0.1221
 2184SOL    HW2 7452   5.091   2.138   4.649  1.2231  0.4584  0.7743
 2185SOL     OW 7453   0.578   4.203   1.149  0.0114 -0.1916  0.0411
 2185SOL    HW1 7454   0.600   4.173   1.056 -1.3160 -1.2738  0.0361
 2185SOL    HW2 7455   0.661   4.211   1.203  0.8770  1.0362 -1.3844
 2186SOL     OW 7456   6.187   0.200   5.997  0.7421  0.1835 -0.3845
 2186SOL    HW1 7457   6.100   0.168   6.036  1.6359 -0.3072  1.3197
 2186SOL    HW2 7458   6.171   0.286   5.948 -0.4310  1.0779  1.4370
 2187SOL     OW 7459   0.239   3.203   4.444  0.0688  0.2856 -0.4967
 2187SOL    HW1 7460   0.192   3.251   4.370 -0.6048 -0.1621 -0.3705
 2187SOL    HW2 7461   0.327   3.248   4.463  0.1783  0.4966 -1.4547
 2188SOL     OW 7462   1.297   4.011   0.294  0.6095  0.0736  0.6864
 2188SOL    HW1 7463   1.292   3.925   0.346  2.1333  1.0304  2.5255
 2188SOL    HW2 7464   1.367   4.003   0.223 -0.6730 -0.8370 -0.5500
 2189SOL     OW 7465   1.087   6.956   5.833  0.3923  0.0122 -0.5239
 2189SOL    HW1 7466   1.059   7.025   5.899  1.4600  0.6889 -0.7729
 2189SOL    HW2 7467   1.038   6.971   5.746  0.6731  0.4946 -0.5984
 2190SOL     OW 7468   0.120   2.619   6.308 -0.1259 -0.4158  0.3617
 2190SOL    HW1 7469   0.051   2.562   6.263 -2.1441  0.9739  1.5495
 2190SOL    HW2 7470   0.078   2.669   6.383  2.4172 -0.1598  1.7252
 2191SOL     OW 7471   2.375   5.931   1.530 -0.1984  0.8265 -0.6403
 2191SOL    HW1 7472   2.305   5.894   1.591 -1.2040  1.2712 -1.4954
 2191SOL    HW2 7473   2.465   5.918   1.571 -0.8470  1.1793  0.9873
 2192SOL     OW 7474   2.221   3.335   6.927  0.3886  0.2696 -0.8108
 2192SOL    HW1 7475   2.173   3.384   6.854 -0.7484  0.2433 -0.1205
 2192SOL    HW2 7476   2.155   3.279   6.977  0.9401  1.0734  0.8755
 2193SOL     OW 7477   2.701   6.586   6.481  0.0999 -0.7556 -0.2721
 2193SOL    HW1 7478   2.649   6.511   6.521 -1.7325  0.6959  0.2391
 2193SOL    HW2 7479   2.716   6.657   6.551  2.1379 -0.7829 -0.6277
 2194SOL     OW 7480   2.145   3.646   4.042  0.3058 -0.1700  0.3387
 2194SOL    HW1 7481   2.149   3.710   4.119 -0.6909  0.4997 -0.1347
 2194SOL    HW2 7482   2.169   3.694   3.958 -2.2533  0.1309 -0.2982
 2195SOL     OW 7483   3.436   0.985   2.856 -0.2743  0.4911  0.4865
 2195SOL    HW1 7484   3.485   0.918   2.912  0.4055  0.2184 -0.3940
 2195SOL    HW2 7485   3.431   0.952   2.762 -1.4976  0.8798  0.4012
 2196SOL     OW 7486   4.412   5.935   4.460  0.6584  0.2120 -0.0032
 2196SOL    HW1 7487   4.367   5.867   4.519  0.3543  1.2188  0.9633
 2196SOL    HW2 7488   4.366   5.939   4.372  0.9746 -1.1623 -0.2461
 2197SOL     OW 7489   6.659   1.591   4.220  0.2736 -0.0110 -0.4063
 2197SOL    HW1 7490   6.573   1.594   4.271  0.6654  1.0637  0.2191
 2197SOL    HW2 7491   6.649   1.530   4.140 -0.3449 -1.7294  0.9189
 2198SOL     OW 7492   5.874   1.694   4.654  0.1554 -0.5165 -0.5086
 2198SOL    HW1 7493   5.902   1.667   4.746 -1.8955  0.1292  0.3596
 2198SOL    HW2 7494   5.815   1.623   4.615 -0.3678 -0.0242 -0.6264
 2199SOL     OW 7495   2.932   3.423   3.315 -0.3308 -1.1237 -0.1665
 2199SOL    HW1 7496   2.942   3.436   3.414  1.8140 -2.4226 -0.1515
 2199SOL    HW2 7497   2.837   3.401   3.293 -0.7802 -1.0985  1.6378
 2200SOL     OW 7498   4.898   2.875   4.929  0.3159 -0.2726  0.4070
 2200SOL    HW1 7499   4.989   2.912   4.944  0.2757  0.7339 -1.5907
 2200SOL    HW2 7500   4.839   2.945   4.889 -0.5543 -1.7058 -0.9391
 2201SOL     OW 7501   2.319   4.338   5.394 -0.1900 -0.0919  0.0243
 2201SOL    HW1 7502   2.382   4.261   5.385 -1.1677 -0.7195 -2.0005
 2201SOL    HW2 7503   2.242   4.311   5.452  0.7162  0.2698  1.4602
 2202SOL     OW 7504   1.262   4.545   2.247 -0.4481  0.3192 -0.2220
 2202SOL    HW1 7505   1.214   4.589   2.170 -1.2098 -1.5510 -0.8641
 2202SOL    HW2 7506   1.328   4.610   2.285 -1.8161  2.1797 -0.8160
 2203SOL     OW 7507   4.944   3.471   4.780  0.4474 -0.1179  0.3985
 2203SOL    HW1 7508   4.921   3.560   4.818 -0.3438  1.1604 -2.7452
 2203SOL    HW2 7509   4.915   3.399   4.844 -2.2279  1.7557  1.4968
 2204SOL     OW 7510   1.485   3.729   2.855  0.0747 -0.1533  0.1675
 2204SOL    HW1 7511   1.524   3.821   2.850 -0.8175  0.4375  2.5525
 2204SOL    HW2 7512   1.457   3.700   2.764 -0.6336  2.4178 -0.5217
 2205SOL     OW 7513   2.128   0.595   1.360 -0.2576 -0.2280 -0.2277
 2205SOL    HW1 7514   2.048   0.630   1.310  0.9194  1.0659 -1.3015
 2205SOL    HW2 7515   2.201   0.664   1.358  0.8758 -1.3536  0.7704
 2206SOL     OW 7516   3.511   3.730   2.482  0.1388 -0.2282  0.0480
 2206SOL    HW1 7517   3.500   3.661   2.410 -1.3060  0.8657 -0.8565
 2206SOL    HW2 7518   3.453   3.707   2.560  0.9937 -0.9235  0.4975
 2207SOL     OW 7519   5.291   0.402   6.649  0.2569 -0.1291 -0.2830
 2207SOL    HW1 7520   5.232   0.479   6.674 -0.0812 -0.4853  0.0225
 2207SOL    HW2 7521   5.234   0.323   6.627  0.6493 -0.7266  0.8367
 2208SOL     OW 7522   5.948   3.662   2.142 -0.2623 -0.0254 -0.1875
 2208SOL    HW1 7523   5.919   3.568   2.127  1.4469 -0.9857  1.9588
 2208SOL    HW2 7524   5.875   3.713   2.188 -1.5121  0.0090 -2.0901
 2209SOL     OW 7525   3.097   6.499   4.794  0.3137  0.3473 -0.1970
 2209SOL    HW1 7526   3.143   6.436   4.731 -1.2469 -2.0400  0.9538
 2209SOL    HW2 7527   3.072   6.582   4.744 -1.0022 -1.5067 -2.8384
 2210SOL     OW 7528   0.508   3.995   4.677 -0.9846  0.4068  0.1341
 2210SOL    HW1 7529   0.416   3.955   4.675 -1.8038  2.2220 -0.3586
 2210SOL    HW2 7530   0.501   4.094   4.690  0.8673  0.6790 -0.7005
 2211SOL     OW 7531   1.161   1.404   1.699  0.3894 -0.4713  0.2949
 2211SOL    HW1 7532   1.108   1.384   1.781  1.2881  2.1655  1.6228
 2211SOL    HW2 7533   1.256   1.377   1.712  0.2167 -1.6327 -0.6093
 2212SOL     OW 7534   2.858   2.081   2.987  0.1666  0.4802  0.0450
 2212SOL    HW1 7535   2.808   2.004   3.026 -1.1681  0.6836 -1.1762
 2212SOL    HW2 7536   2.943   2.049   2.946 -0.1343 -0.2728 -0.0040
 2213SOL     OW 7537   4.661   1.052   0.050  0.1573 -0.4207  0.0728
 2213SOL    HW1 7538   4.680   0.954   0.039 -0.8635 -0.5374 -0.7541
 2213SOL    HW2 7539   4.679   1.079   0.145  2.1985 -1.0000 -0.1045
 2214SOL     OW 7540   5.580   3.042   6.875  0.2234  0.0386 -0.8282
 2214SOL    HW1 7541   5.559   3.087   6.788  2.0260  1.2321 -0.6940
 2214SOL    HW2 7542   5.495   3.011   6.918 -0.8341  0.9093 -2.2183
 2215SOL     OW 7543   6.963   2.983   6.653 -0.2644 -0.0031 -0.1274
 2215SOL    HW1 7544   7.008   2.953   6.737  0.3189  2.1996  0.4131
 2215SOL    HW2 7545   6.992   3.076   6.632 -1.9331  0.2021 -1.7094
 2216SOL     OW 7546   0.043   2.749   4.795 -0.5464 -0.4047  0.0427
 2216SOL    HW1 7547  -0.026   2.821   4.791 -1.4682 -1.2605  0.1569
 2216SOL    HW2 7548   0.118   2.771   4.732  0.7912  2.2365  2.3033
 2217SOL     OW 7549   4.466   5.737   2.681 -0.5686 -0.5400 -0.1924
 2217SOL    HW1 7550   4.499   5.767   2.592 -0.7179  1.1172  0.2626
 2217SOL    HW2 7551   4.388   5.675   2.670 -0.7418 -0.1560 -1.2156
 2218SOL     OW 7552   2.822   6.277   2.234  0.1777 -0.3505 -0.4667
 2218SOL    HW1 7553   2.842   6.194   2.182 -0.4563  0.4693 -2.1293
 2218SOL    HW2 7554   2.908   6.321   2.261  0.5139 -1.2960  0.0293
 2219SOL     OW 7555   1.997   0.359   1.690  0.1739 -0.5030  0.5474
 2219SOL    HW1 7556   1.992   0.262   1.717  0.6789 -1.1649 -1.5704
 2219SOL    HW2 7557   2.090   0.380   1.659  0.5179  1.1427  2.5078
 2220SOL     OW 7558   5.885   0.883   0.890 -0.3788 -0.1934  0.0844
 2220SOL    HW1 7559   5.937   0.804   0.922  0.5603 -0.0027 -0.9296
 2220SOL    HW2 7560   5.897   0.893   0.791 -0.7036  1.0581  0.1604
 2221SOL     OW 7561   0.514   2.317   0.568  0.2202  0.2448  0.3601
 2221SOL    HW1 7562   0.538   2.222   0.585 -1.2188 -0.2013 -0.0064
 2221SOL    HW2 7563   0.492   2.362   0.655  1.3179  0.3822  0.5816
 2222SOL     OW 7564   5.564   1.064   4.532 -0.0640 -0.1251  0.5067
 2222SOL    HW1 7565   5.587   1.101   4.442  0.9875 -1.2363  0.2931
 2222SOL    HW2 7566   5.648   1.050   4.584 -0.5021 -1.3222  0.9183
 2223SOL     OW 7567   0.864   0.294   1.709 -0.3380  0.4315 -0.2725
 2223SOL    HW1 7568   0.861   0.212   1.767  0.2976 -1.4932 -2.7856
 2223SOL    HW2 7569   0.785   0.294   1.648  0.3107  1.0324 -1.1319
 2224SOL     OW 7570   0.564   6.691   2.091 -0.6335  0.2523  0.3151
 2224SOL    HW1 7571   0.597   6.597   2.099 -0.3638  0.3945  0.8823
 2224SOL    HW2 7572   0.637   6.749   2.055 -1.4059 -0.1164 -2.0281
 2225SOL     OW 7573   0.677   1.453   4.438 -0.7327 -0.4480 -0.5783
 2225SOL    HW1 7574   0.739   1.378   4.463  0.6561  1.0169  0.6887
 2225SOL    HW2 7575   0.593   1.447   4.492 -0.4238 -0.8314 -0.1351
 2226SOL     OW 7576   1.012   6.324   6.953 -0.1715 -0.4097 -0.1720
 2226SOL    HW1 7577   0.940   6.323   6.884  0.3032  0.2431 -0.6913
 2226SOL    HW2 7578   0.981   6.276   7.035 -0.7171 -1.2605 -0.8609
 2227SOL     OW 7579   0.338   1.568   6.495  0.1822  0.2218  0.6792
 2227SOL    HW1 7580   0.275   1.578   6.572 -1.0497  0.1752 -0.2946
 2227SOL    HW2 7581   0.393   1.651   6.487 -0.1981  0.5266  1.1469
 2228SOL     OW 7582   5.998   0.554   4.267  0.2579  0.7157  0.3470
 2228SOL    HW1 7583   6.092   0.584   4.254  0.5382  0.1520  1.0374
 2228SOL    HW2 7584   5.994   0.485   4.339 -0.8814  1.8523  1.4330
 2229SOL     OW 7585   0.400   0.950   5.166  0.4709 -0.1115  0.0638
 2229SOL    HW1 7586   0.349   0.927   5.249  0.6453 -0.9051 -0.0374
 2229SOL    HW2 7587   0.471   0.881   5.151  0.8567  0.3796 -0.3992
 2230SOL     OW 7588   4.737   5.342   6.318 -0.0229  0.0700 -0.3267
 2230SOL    HW1 7589   4.717   5.440   6.320 -0.7894 -0.0875  1.3102
 2230SOL    HW2 7590   4.815   5.323   6.378 -1.1354 -0.5420  0.9858
 2231SOL     OW 7591   3.284   2.675   6.148 -0.5650  0.1497 -0.8531
 2231SOL    HW1 7592   3.363   2.712   6.098 -0.4469 -1.8312 -2.2563
 2231SOL    HW2 7593   3.200   2.715   6.110 -0.3216  1.6960  0.1421
 2232SOL     OW 7594   4.407   6.621   6.760 -0.0051 -0.4078  0.8884
 2232SOL    HW1 7595   4.416   6.669   6.673 -0.9611 -0.3843  0.7967
 2232SOL    HW2 7596   4.456   6.534   6.755 -0.5030 -0.6514  0.1444
 2233SOL     OW 7597   3.437   0.929   3.548  0.0044 -0.2457  0.5313
 2233SOL    HW1 7598   3.368   0.877   3.598 -1.1259  0.8381  0.1674
 2233SOL    HW2 7599   3.410   1.025   3.545  1.3514  0.1433  0.0266
 2234SOL     OW 7600   5.409   4.915   4.893 -0.5011  0.2040  0.6619
 2234SOL    HW1 7601   5.408   4.870   4.982 -2.2064 -0.3057  0.4322
 2234SOL    HW2 7602   5.355   5.000   4.898  0.0498  0.5835  0.3038
 2235SOL     OW 7603   5.760   0.451   6.643 -0.1323  0.9430 -0.3196
 2235SOL    HW1 7604   5.685   0.465   6.579  0.1129  1.6665 -0.4632
 2235SOL    HW2 7605   5.774   0.534   6.697 -0.5157  0.2494  0.8764
 2236SOL     OW 7606   5.476   3.033   3.550 -0.3066 -0.2067 -0.1719
 2236SOL    HW1 7607   5.476   3.132   3.537 -1.7641 -0.2414 -0.7369
 2236SOL    HW2 7608   5.555   2.993   3.503  0.2906  0.6774  0.0565
 2237SOL     OW 7609   4.187   1.167   3.301  0.1038  0.1744  0.0223
 2237SOL    HW1 7610   4.268   1.220   3.275  0.7364 -0.8474 -0.1685
 2237SOL    HW2 7611   4.114   1.229   3.330  1.3037  1.0792  1.2335
 2238SOL     OW 7612   3.879   5.889   6.997  0.3762  0.4688 -0.3310
 2238SOL    HW1 7613   3.857   5.904   6.900  1.1008 -1.6072 -0.8599
 2238SOL    HW2 7614   3.812   5.827   7.037  0.9487  0.1159  0.0855
 2239SOL     OW 7615   6.803   2.430   1.854 -0.5151  0.5147 -0.0956
 2239SOL    HW1 7616   6.812   2.340   1.897 -0.8871  0.2006 -0.6664
 2239SOL    HW2 7617   6.710   2.442   1.822 -0.7651  1.5640  0.9576
 2240SOL     OW 7618   5.355   5.643   1.606  0.1159 -0.5136  0.5843
 2240SOL    HW1 7619   5.291   5.718   1.619  0.5437 -0.2526  1.2356
 2240SOL    HW2 7620   5.397   5.619   1.694  2.3775  0.6411 -0.1031
 2241SOL     OW 7621   6.352   1.459   6.639 -0.3078 -0.1553  0.0620
 2241SOL    HW1 7622   6.402   1.461   6.726 -1.0502  0.6044  0.4872
 2241SOL    HW2 7623   6.389   1.529   6.578 -1.4209  1.0549  0.7244
 2242SOL     OW 7624   0.908   6.145   1.357 -0.3436 -0.5478 -0.1620
 2242SOL    HW1 7625   0.826   6.092   1.332 -0.5968  0.3167 -1.2388
 2242SOL    HW2 7626   0.886   6.205   1.434 -1.1167  0.5886 -1.2303
 2243SOL     OW 7627   1.240   3.231   0.984 -0.2337  0.0624 -0.7786
 2243SOL    HW1 7628   1.144   3.203   0.991 -0.0624 -0.4247 -0.3074
 2243SOL    HW2 7629   1.270   3.222   0.889 -0.3370 -0.8868 -0.7303
 2244SOL     OW 7630   6.070   1.272   2.065  0.2626  0.2368  0.1455
 2244SOL    HW1 7631   6.083   1.178   2.034  3.1369 -0.5054  3.0960
 2244SOL    HW2 7632   6.129   1.333   2.011  2.9162 -0.6148  1.8789
 2245SOL     OW 7633   3.998   3.091   6.485  0.0219 -0.1919  0.1919
 2245SOL    HW1 7634   3.903   3.122   6.482 -0.0759 -0.5097 -0.1178
 2245SOL    HW2 7635   4.058   3.168   6.466 -0.1723  0.0210  0.4321
 2246SOL     OW 7636   2.139   6.169   1.718  0.1622  0.0965  0.1017
 2246SOL    HW1 7637   2.124   6.072   1.697 -0.4236 -0.3448  2.2208
 2246SOL    HW2 7638   2.231   6.180   1.758  0.6714  0.6303 -1.1854
 2247SOL     OW 7639   5.218   2.509   1.969 -0.0364 -0.3756 -0.1502
 2247SOL    HW1 7640   5.279   2.447   1.920 -1.7674 -2.0339 -0.2988
 2247SOL    HW2 7641   5.136   2.526   1.915 -1.0134 -0.5173  1.2301
 2248SOL     OW 7642   6.549   1.255   0.573  0.2429  0.5926  0.2627
 2248SOL    HW1 7643   6.468   1.303   0.538 -0.3222 -1.8245 -2.0936
 2248SOL    HW2 7644   6.546   1.252   0.673 -2.5097  0.7130  0.2496
 2249SOL     OW 7645   4.644   1.539   5.348 -0.0959  0.2592 -0.2592
 2249SOL    HW1 7646   4.672   1.463   5.406 -0.2778 -0.4190 -1.0444
 2249SOL    HW2 7647   4.558   1.517   5.302  0.5012  0.3888 -1.4878
 2250SOL     OW 7648   5.590   2.137   4.267 -0.3163  0.3218 -0.3955
 2250SOL    HW1 7649   5.642   2.069   4.216 -0.4253  0.8175 -1.1922
 2250SOL    HW2 7650   5.517   2.173   4.209 -1.7190 -0.5267  0.7677
 2251SOL     OW 7651   3.931   4.993   2.270 -0.6655  0.0792  0.0357
 2251SOL    HW1 7652   3.847   5.046   2.257 -0.6547 -0.1512 -1.1243
 2251SOL    HW2 7653   3.926   4.944   2.357 -0.5450  2.1628  1.2770
 2252SOL     OW 7654   0.466   0.831   2.672 -0.3551  0.0028  0.3766
 2252SOL    HW1 7655   0.552   0.872   2.701 -0.1831  0.4133 -0.6673
 2252SOL    HW2 7656   0.443   0.863   2.580 -0.7487 -1.4362 -0.0493
 2253SOL     OW 7657   1.407   4.475   5.553  0.4414 -0.8987 -0.4930
 2253SOL    HW1 7658   1.406   4.378   5.576 -1.0937 -1.2018 -1.6605
 2253SOL    HW2 7659   1.331   4.521   5.599  1.1417 -0.2409  0.0307
 2254SOL     OW 7660   3.205   4.068   3.954 -0.3757  0.3360  0.1068
 2254SOL    HW1 7661   3.132   4.008   3.924  0.6774 -0.3830 -1.1401
 2254SOL    HW2 7662   3.271   4.081   3.880  1.7595 -0.5642  1.7244
 2255SOL     OW 7663   6.351   5.176   3.328  0.2489 -0.2294 -0.1674
 2255SOL    HW1 7664   6.313   5.265   3.353  1.2799 -0.2716  1.7058
 2255SOL    HW2 7665   6.280   5.106   3.337  0.2476 -0.0435  1.5073
 2256SOL     OW 7666   6.872   5.586   1.867  0.9819 -0.0918 -0.1393
 2256SOL    HW1 7667   6.799   5.585   1.935 -0.0726 -1.2380 -1.2353
 2256SOL    HW2 7668   6.943   5.650   1.895 -0.1473  0.5952  1.2647
 2257SOL     OW 7669   4.701   2.558   1.138 -0.7926  0.7792 -1.1041
 2257SOL    HW1 7670   4.786   2.526   1.097 -1.7396 -2.3237 -0.8970
 2257SOL    HW2 7671   4.722   2.614   1.218  1.0924 -0.5704 -0.5804
 2258SOL     OW 7672   3.489   2.991   1.577 -0.2782  0.1881  0.5259
 2258SOL    HW1 7673   3.569   3.020   1.524 -0.3238  0.9059  0.8386
 2258SOL    HW2 7674   3.514   2.982   1.673 -0.5190  0.2027  0.5901
 2259SOL     OW 7675   6.461   4.647   6.292 -0.5464 -0.0931  0.3387
 2259SOL    HW1 7676   6.363   4.667   6.303 -1.0001 -2.1707  0.4166
 2259SOL    HW2 7677   6.493   4.596   6.371  1.0224  1.8625  1.0375
 2260SOL     OW 7678   6.851   2.479   6.711 -0.0365 -0.2001 -0.0080
 2260SOL    HW1 7679   6.933   2.467   6.655 -0.0049 -0.8488  0.1712
 2260SOL    HW2 7680   6.866   2.439   6.802 -0.4792 -0.1389  0.0968
 2261SOL     OW 7681   2.019   1.493   5.798  0.5898 -0.1025 -0.4572
 2261SOL    HW1 7682   1.931   1.478   5.753  0.0874  0.6594  0.2386
 2261SOL    HW2 7683   2.057   1.581   5.770 -0.2359  0.8813  1.3574
 2262SOL     OW 7684   3.870   2.618   1.296 -0.5271  0.0038 -0.2656
 2262SOL    HW1 7685   3.796   2.684   1.309 -0.5554  0.0574 -0.6908
 2262SOL    HW2 7686   3.881   2.564   1.379 -0.9417  0.0997 -0.1445
 2263SOL     OW 7687   0.690   4.375   6.438  0.5949  0.5993  0.1511
 2263SOL    HW1 7688   0.597   4.358   6.471 -0.1092 -1.5775 -2.6733
 2263SOL    HW2 7689   0.755   4.343   6.506 -0.6988  0.3861  1.3458
 2264SOL     OW 7690   5.794   1.273   6.630 -0.1675  0.5328  0.0133
 2264SOL    HW1 7691   5.884   1.311   6.650  0.0027  0.2241 -0.1480
 2264SOL    HW2 7692   5.765   1.300   6.538 -0.5774  1.2588  0.3494
 2265SOL     OW 7693   6.785   5.593   1.613 -0.0048  0.2582  0.2970
 2265SOL    HW1 7694   6.813   5.590   1.709 -1.0315  0.9011  0.6375
 2265SOL    HW2 7695   6.703   5.537   1.601 -1.8475  2.7093  0.5464
 2266SOL     OW 7696   6.884   0.928   1.079  0.2777 -0.5192  0.1958
 2266SOL    HW1 7697   6.909   0.847   1.132  0.8786 -0.3012  0.2523
 2266SOL    HW2 7698   6.884   1.008   1.138 -2.1918 -0.7212  0.5951
 2267SOL     OW 7699   2.196   3.949   4.746  0.5109  0.2531 -0.1986
 2267SOL    HW1 7700   2.224   3.977   4.838  1.3063 -0.5693 -0.1824
 2267SOL    HW2 7701   2.215   4.023   4.681 -1.0334  1.2655  0.4295
 2268SOL     OW 7702   0.961   4.488   4.547 -0.0438  0.2515  0.2638
 2268SOL    HW1 7703   1.032   4.545   4.589  1.1776 -0.4155 -0.8176
 2268SOL    HW2 7704   0.909   4.542   4.481  0.8882  0.2251 -0.5143
 2269SOL     OW 7705   6.478   0.877   5.551 -0.5362 -0.7888 -0.1148
 2269SOL    HW1 7706   6.532   0.913   5.475 -1.1722 -0.0569 -0.2299
 2269SOL    HW2 7707   6.448   0.784   5.528 -0.5354 -0.6591 -0.6600
 2270SOL     OW 7708   2.326   4.304   1.032 -0.3589 -0.1034 -0.0308
 2270SOL    HW1 7709   2.407   4.291   0.976  1.2395  1.0812  1.8824
 2270SOL    HW2 7710   2.284   4.392   1.010 -0.2851 -0.0677 -0.0298
 2271SOL     OW 7711   1.716   2.512   6.397  0.4264  0.3528  0.3889
 2271SOL    HW1 7712   1.718   2.603   6.438 -2.9897  0.2771  1.0174
 2271SOL    HW2 7713   1.738   2.444   6.466 -0.7311  0.5182  0.9468
 2272SOL     OW 7714   3.066   6.332   3.196  0.4049  0.5783 -0.0863
 2272SOL    HW1 7715   3.000   6.285   3.138  0.9430 -2.3554  1.4678
 2272SOL    HW2 7716   3.022   6.360   3.282  0.9489 -0.6681  0.6216
 2273SOL     OW 7717   0.029   0.612   0.896 -0.4187  0.6984  0.1449
 2273SOL    HW1 7718   0.098   0.549   0.861  0.6590  1.8974 -0.0013
 2273SOL    HW2 7719  -0.043   0.624   0.827 -0.6933 -0.4194  0.2201
 2274SOL     OW 7720   1.190   6.807   3.393 -0.2596 -0.2972  0.2541
 2274SOL    HW1 7721   1.152   6.845   3.309  0.3465  0.2866  0.2334
 2274SOL    HW2 7722   1.254   6.734   3.371 -1.9379 -1.8756  0.3163
 2275SOL     OW 7723   5.175   2.950   1.715  0.4255 -0.6975  0.4726
 2275SOL    HW1 7724   5.135   2.859   1.714  0.5727 -0.7726  1.1003
 2275SOL    HW2 7725   5.227   2.963   1.800  1.4625 -0.4902 -0.1725
 2276SOL     OW 7726   4.775   4.057   5.263  0.0617 -0.1150  0.4060
 2276SOL    HW1 7727   4.823   4.055   5.351 -1.4496 -1.1256  1.2477
 2276SOL    HW2 7728   4.681   4.087   5.278 -0.1372 -0.0276 -0.9341
 2277SOL     OW 7729   0.864   6.101   4.801  0.8382  0.4588  0.2937
 2277SOL    HW1 7730   0.916   6.072   4.882  0.3123  1.5662  1.0461
 2277SOL    HW2 7731   0.770   6.067   4.808  0.7849  0.5757  0.1535
 2278SOL     OW 7732   7.019   3.291   1.723 -0.2463 -0.1120 -0.2276
 2278SOL    HW1 7733   6.951   3.238   1.672  0.3594 -1.9804  0.8162
 2278SOL    HW2 7734   6.995   3.290   1.820  1.2542 -0.8577  0.1667
 2279SOL     OW 7735   1.500   0.913   0.766  0.0188  0.1306  0.2841
 2279SOL    HW1 7736   1.509   0.850   0.688 -0.5437 -0.2899  0.5523
 2279SOL    HW2 7737   1.493   0.861   0.851  2.8648  0.6153  0.9002
 2280SOL     OW 7738   0.706   5.877   6.155 -0.4100 -0.1537  0.2068
 2280SOL    HW1 7739   0.726   5.813   6.080  0.1633  0.0564  0.1797
 2280SOL    HW2 7740   0.766   5.957   6.148  0.1781 -0.4721  1.3232
 2281SOL     OW 7741   3.213   6.123   3.230  0.0831  0.6519 -0.1526
 2281SOL    HW1 7742   3.138   6.186   3.211  1.4351  1.9231 -1.5233
 2281SOL    HW2 7743   3.192   6.033   3.191 -0.3933  1.2301 -1.2672
 2282SOL     OW 7744   1.823   5.859   2.454 -0.3779  0.4187 -0.5256
 2282SOL    HW1 7745   1.778   5.817   2.533 -0.9541  1.1520 -0.4532
 2282SOL    HW2 7746   1.864   5.946   2.482  1.0456 -0.1995 -0.6046
 2283SOL     OW 7747   3.178   6.677   6.048  0.9868  0.1370 -0.4167
 2283SOL    HW1 7748   3.222   6.596   6.088 -0.3138 -1.1644 -1.5043
 2283SOL    HW2 7749   3.133   6.651   5.962 -0.5600  1.7239 -0.1385
 2284SOL     OW 7750   5.332   3.545   1.070 -0.3984 -0.0081  0.1754
 2284SOL    HW1 7751   5.269   3.623   1.067  0.6329  0.8409 -0.1933
 2284SOL    HW2 7752   5.390   3.545   0.988  1.5559  0.5309  1.4665
 2285SOL     OW 7753   2.377   4.593   4.137  0.0186  0.0361  0.4575
 2285SOL    HW1 7754   2.400   4.553   4.048  0.8820 -0.2474  0.8044
 2285SOL    HW2 7755   2.410   4.687   4.141 -1.8183  0.7664 -0.2740
 2286SOL     OW 7756   5.528   1.813   4.793  0.1594 -0.3710 -0.1502
 2286SOL    HW1 7757   5.598   1.883   4.781  2.0952 -2.2234 -0.2279
 2286SOL    HW2 7758   5.501   1.809   4.889  0.7817 -0.1802  0.0374
 2287SOL     OW 7759   3.234   2.075   3.032 -0.2849  0.2884 -0.0209
 2287SOL    HW1 7760   3.305   2.090   3.102 -2.4419  2.1796  1.9139
 2287SOL    HW2 7761   3.207   1.978   3.034  0.9713 -0.0785  0.4555
 2288SOL     OW 7762   6.733   2.490   4.040 -0.1542  0.1703 -0.3229
 2288SOL    HW1 7763   6.806   2.450   4.096 -0.2236 -0.2308 -0.5161
 2288SOL    HW2 7764   6.664   2.420   4.019 -0.1499  0.3221 -0.8726
 2289SOL     OW 7765   0.744   3.687   6.462  0.1609 -0.2081 -0.2745
 2289SOL    HW1 7766   0.809   3.762   6.457  0.6524 -0.5788  0.3806
 2289SOL    HW2 7767   0.700   3.686   6.552  0.1237 -0.6738 -0.2916
 2290SOL     OW 7768   4.502   1.781   6.724  0.4885  0.2122  0.1030
 2290SOL    HW1 7769   4.443   1.859   6.700  1.7367  0.6721 -1.6490
 2290SOL    HW2 7770   4.570   1.811   6.790  0.6862  0.4978 -0.2257
 2291SOL     OW 7771   6.983   1.879   4.049  0.2970  0.5272 -0.5226
 2291SOL    HW1 7772   6.994   1.923   3.960  0.5225 -0.4226 -0.9822
 2291SOL    HW2 7773   7.061   1.902   4.108 -0.5195  2.2496 -0.0738
 2292SOL     OW 7774   3.833   0.317   2.169 -0.3257  0.1665 -0.0684
 2292SOL    HW1 7775   3.867   0.262   2.094  0.3808  0.5059 -0.0108
 2292SOL    HW2 7776   3.741   0.351   2.148 -0.6773 -0.8297 -0.1943
 2293SOL     OW 7777   4.246   5.062   4.215  0.2052 -0.0449  0.0406
 2293SOL    HW1 7778   4.325   5.007   4.245  0.1970 -0.3196 -0.4315
 2293SOL    HW2 7779   4.249   5.072   4.116 -1.1680 -1.3342 -0.1575
 2294SOL     OW 7780   3.292   5.925   0.500  0.0603  0.3699  0.3631
 2294SOL    HW1 7781   3.225   5.859   0.534 -0.2887  0.9697  0.8740
 2294SOL    HW2 7782   3.266   5.953   0.407  0.6109 -0.7273 -0.1381
 2295SOL     OW 7783   2.720   3.648   0.098 -0.1931 -0.0263  0.2013
 2295SOL    HW1 7784   2.673   3.620   0.015 -0.5983 -1.0020  0.7327
 2295SOL    HW2 7785   2.672   3.725   0.140 -0.4401 -0.0377 -0.0628
 2296SOL     OW 7786   3.536   0.923   5.744  0.1003  0.3103  0.0601
 2296SOL    HW1 7787   3.448   0.925   5.792  0.6583 -0.9459  1.2266
 2296SOL    HW2 7788   3.587   1.006   5.765 -1.0593  1.3668 -1.1772
 2297SOL     OW 7789   4.460   3.848   1.438  0.0914  0.0631 -0.1486
 2297SOL    HW1 7790   4.391   3.834   1.508  0.8587  3.5769  1.5502
 2297SOL    HW2 7791   4.547   3.810   1.469 -0.6059 -2.9080 -1.5697
 2298SOL     OW 7792   2.137   1.307   2.674  0.0433 -0.4024 -0.1453
 2298SOL    HW1 7793   2.156   1.336   2.768  0.9102  0.3563 -0.5442
 2298SOL    HW2 7794   2.222   1.302   2.622 -0.5972  1.1331 -1.4372
 2299SOL     OW 7795   6.143   0.019   5.499  0.0450  0.3846 -0.5059
 2299SOL    HW1 7796   6.179   0.105   5.536 -2.3559  1.3588 -0.2614
 2299SOL    HW2 7797   6.191  -0.058   5.542  2.9203  1.5163 -1.4237
 2300SOL     OW 7798   1.110   4.318   4.382  0.0478 -0.5644  0.0362
 2300SOL    HW1 7799   1.082   4.224   4.404 -0.2796  0.0903  2.7159
 2300SOL    HW2 7800   1.065   4.382   4.444  1.4163  1.2540 -0.7459
 2301SOL     OW 7801   5.803   4.059   6.594 -0.7095 -0.0712 -0.2518
 2301SOL    HW1 7802   5.825   3.991   6.525 -0.3342 -0.8088  0.5720
 2301SOL    HW2 7803   5.823   4.023   6.685  0.3912  1.4755  0.1684
 2302SOL     OW 7804   1.917   4.278   5.177 -0.5624 -0.5556  0.0883
 2302SOL    HW1 7805   1.866   4.213   5.121 -2.6538 -0.1752  1.4220
 2302SOL    HW2 7806   2.015   4.257   5.173 -0.8296 -1.6611 -2.1520
 2303SOL     OW 7807   1.359   5.603   3.750 -0.1263 -0.0091  0.7376
 2303SOL    HW1 7808   1.437   5.550   3.783  0.5536 -0.1976 -1.0741
 2303SOL    HW2 7809   1.368   5.698   3.779 -0.0867 -0.3545  1.9128
 2304SOL     OW 7810   5.588   3.976   4.806 -0.2925 -0.4007  0.0510
 2304SOL    HW1 7811   5.652   3.912   4.849 -0.7964  1.2579  3.6066
 2304SOL    HW2 7812   5.619   3.995   4.713  2.3456 -2.3595  0.3904
 2305SOL     OW 7813   2.628   0.071   1.153 -0.0508  0.0348 -0.4199
 2305SOL    HW1 7814   2.609   0.152   1.098 -1.4799  0.5162  0.7277
 2305SOL    HW2 7815   2.727   0.059   1.161  0.1825  1.1748 -1.3032
 2306SOL     OW 7816   4.037   1.543   0.791  0.2921  0.5139 -0.1563
 2306SOL    HW1 7817   4.127   1.539   0.836 -0.3081 -1.9731  0.9772
 2306SOL    HW2 7818   4.039   1.485   0.709 -0.6980 -0.9433  0.8008
 2307SOL     OW 7819   1.847   1.069   3.171 -0.0513 -0.2225 -0.6202
 2307SOL    HW1 7820   1.817   1.126   3.248  0.7900  0.2629 -0.6356
 2307SOL    HW2 7821   1.877   0.980   3.206  1.1818  0.3117 -0.2506
 2308SOL     OW 7822   1.347   1.755   0.125 -0.3576 -0.0956  0.2459
 2308SOL    HW1 7823   1.310   1.847   0.112 -0.5308 -0.3981 -1.6234
 2308SOL    HW2 7824   1.382   1.720   0.039 -1.3586 -2.2481  0.6438
 2309SOL     OW 7825   2.353   4.142   0.660 -0.0985  0.5930  0.3349
 2309SOL    HW1 7826   2.266   4.182   0.630 -0.0417 -0.3480 -1.2127
 2309SOL    HW2 7827   2.345   4.042   0.660  0.7171  0.5142  1.0914
 2310SOL     OW 7828   0.615   5.718   4.914 -0.3256  0.3592  0.2593
 2310SOL    HW1 7829   0.618   5.661   4.996 -0.7595  0.8900  0.6471
 2310SOL    HW2 7830   0.708   5.747   4.890 -0.1310 -0.2726  0.2162
 2311SOL     OW 7831   5.009   0.297   4.092  0.1703  0.0464  0.0977
 2311SOL    HW1 7832   4.972   0.337   4.176 -0.3273 -1.7199  0.7612
 2311SOL    HW2 7833   4.934   0.260   4.037  0.6382 -0.1893 -0.3878
 2312SOL     OW 7834   2.607   3.123   6.909 -0.0593 -0.5454  0.3836
 2312SOL    HW1 7835   2.558   3.176   6.979 -0.8521  0.6652 -1.0270
 2312SOL    HW2 7836   2.703   3.151   6.907  0.3994 -1.8465  2.1375
 2313SOL     OW 7837   6.740   1.660   1.612  0.2740 -0.7411 -0.0315
 2313SOL    HW1 7838   6.813   1.610   1.566 -0.3268 -3.4106  1.7285
 2313SOL    HW2 7839   6.780   1.727   1.675  1.1966 -1.4442  0.1513
 2314SOL     OW 7840   1.755   5.496   3.677  0.1578  0.4099 -0.5101
 2314SOL    HW1 7841   1.780   5.400   3.687 -0.4356  0.4327  1.6613
 2314SOL    HW2 7842   1.773   5.545   3.762  0.7847  2.3318 -1.6809
 2315SOL     OW 7843   6.966   3.882   5.597  0.0955  0.4749 -0.0632
 2315SOL    HW1 7844   6.994   3.791   5.629  0.3425 -0.0817 -1.7571
 2315SOL    HW2 7845   6.876   3.875   5.553  0.0443  1.0813 -0.0566
 2316SOL     OW 7846   0.608   3.226   5.131  0.3998  0.0884 -0.3797
 2316SOL    HW1 7847   0.556   3.144   5.105 -0.1656  0.2966  0.0810
 2316SOL    HW2 7848   0.608   3.291   5.055  0.7973 -0.3090 -0.7249
 2317SOL     OW 7849   5.286   0.499   2.368 -0.1560  0.5706 -0.8340
 2317SOL    HW1 7850   5.329   0.451   2.444 -2.0773  1.0236  0.6184
 2317SOL    HW2 7851   5.318   0.461   2.281  2.4759  0.3625  0.1408
 2318SOL     OW 7852   5.325   6.869   3.156 -0.1295  0.1512 -0.2735
 2318SOL    HW1 7853   5.230   6.869   3.126  0.0182  0.5828 -0.7458
 2318SOL    HW2 7854   5.380   6.815   3.092 -0.1557 -0.6075  0.3315
 2319SOL     OW 7855   3.237   4.895   3.789 -0.1282 -0.2362 -0.1680
 2319SOL    HW1 7856   3.271   4.805   3.763  0.1530  0.0184 -0.6963
 2319SOL    HW2 7857   3.228   4.952   3.707  0.7911  0.5897  0.2811
 2320SOL     OW 7858   5.221   3.286   5.613  0.4308  0.0579  0.6357
 2320SOL    HW1 7859   5.239   3.352   5.686 -0.6100 -0.0907  1.0392
 2320SOL    HW2 7860   5.247   3.326   5.525 -0.4108  1.1091  0.8444
 2321SOL     OW 7861   0.224   4.757   5.993  0.4961 -0.5785  0.3499
 2321SOL    HW1 7862   0.139   4.706   5.978  0.4408 -0.5513  0.5667
 2321SOL    HW2 7863   0.274   4.717   6.070  0.2943 -0.1108  0.7323
 2322SOL     OW 7864   5.607   6.964   2.038  0.5385  0.1413  0.3151
 2322SOL    HW1 7865   5.638   6.965   1.943  2.1055  1.6573  0.8073
 2322SOL    HW2 7866   5.597   6.869   2.068 -0.2839 -0.3618 -1.4324
 2323SOL     OW 7867   1.294   0.868   4.802 -0.1929 -0.2501  0.0568
 2323SOL    HW1 7868   1.392   0.846   4.803  0.2240  1.2309 -1.8558
 2323SOL    HW2 7869   1.251   0.833   4.885  1.9311 -1.0554  0.8814
 2324SOL     OW 7870   6.915   1.997   3.062  0.5896  0.4033  0.0881
 2324SOL    HW1 7871   6.844   1.950   3.114 -0.2941  0.9376 -0.5888
 2324SOL    HW2 7872   6.925   2.091   3.096  0.5053  0.5314 -0.2344
 2325SOL     OW 7873   2.872   2.117   6.810 -0.9494 -0.2421  0.8337
 2325SOL    HW1 7874   2.875   2.216   6.794  3.4427 -0.1513  0.9301
 2325SOL    HW2 7875   2.890   2.070   6.723  0.8002 -0.6957  1.3982
 2326SOL     OW 7876   4.297   6.042   6.246 -0.5034  0.1289 -0.1936
 2326SOL    HW1 7877   4.386   6.066   6.285 -0.7290  0.5742  0.0594
 2326SOL    HW2 7878   4.272   5.949   6.274 -0.6345  0.4227  0.6800
 2327SOL     OW 7879   5.177   5.547   2.239 -0.2601  0.2525 -0.3673
 2327SOL    HW1 7880   5.141   5.481   2.173  2.0215 -2.5867  1.0520
 2327SOL    HW2 7881   5.274   5.564   2.220  0.6668 -1.1869  2.5320
 2328SOL     OW 7882   6.822   5.818   4.581  0.6703  0.2279 -0.3350
 2328SOL    HW1 7883   6.899   5.755   4.592 -0.0238 -0.6727 -0.4940
 2328SOL    HW2 7884   6.818   5.880   4.660  0.4756 -0.9291  0.5949
 2329SOL     OW 7885   6.875   0.251   1.408  0.4178  0.6861  0.5831
 2329SOL    HW1 7886   6.945   0.306   1.453  2.2660  0.1130 -1.4546
 2329SOL    HW2 7887   6.908   0.158   1.395 -1.7812 -0.3711  1.8979
 2330SOL     OW 7888   2.521   1.997   1.567  0.7124  0.4476 -0.0840
 2330SOL    HW1 7889   2.459   1.920   1.583  0.5004  0.9528  1.6848
 2330SOL    HW2 7890   2.598   1.966   1.511 -0.7957 -0.3329 -1.8054
 2331SOL     OW 7891   5.672   0.609   6.067  0.1690  0.5068  0.3522
 2331SOL    HW1 7892   5.643   0.613   6.163 -1.1974  1.0057 -0.0616
 2331SOL    HW2 7893   5.613   0.668   6.012  1.2177  0.5745 -0.7380
 2332SOL     OW 7894   0.638   6.262   3.908 -0.5376 -0.2096  1.1898
 2332SOL    HW1 7895   0.552   6.272   3.958 -0.1679 -0.0941  1.8104
 2332SOL    HW2 7896   0.672   6.353   3.881 -0.7174 -0.2686  0.7530
 2333SOL     OW 7897   4.550   5.907   0.664  0.1423 -0.2882 -0.2408
 2333SOL    HW1 7898   4.599   5.861   0.737  0.9125 -1.8363 -1.6716
 2333SOL    HW2 7899   4.462   5.862   0.649  0.4478 -0.6684 -0.9509
 2334SOL     OW 7900   2.354   0.739   2.640  0.3960 -0.3948  0.9425
 2334SOL    HW1 7901   2.416   0.709   2.713  1.9934 -0.2905 -0.3238
 2334SOL    HW2 7902   2.359   0.838   2.631  0.1355 -0.3995  0.7360
 2335SOL     OW 7903   3.890   1.367   6.513  0.0730  0.1434 -0.1181
 2335SOL    HW1 7904   3.840   1.440   6.559 -1.3045 -0.1847 -1.0274
 2335SOL    HW2 7905   3.833   1.328   6.440  1.0080 -1.4169 -0.0685
 2336SOL     OW 7906   1.778   2.599   1.834 -0.3134  0.4840 -0.5425
 2336SOL    HW1 7907   1.760   2.595   1.736 -1.2551  2.0270 -0.4673
 2336SOL    HW2 7908   1.806   2.509   1.866  0.0769 -0.0362 -2.2246
 2337SOL     OW 7909   6.968   5.678   3.467 -0.6628 -0.6168 -0.0289
 2337SOL    HW1 7910   6.970   5.778   3.463 -2.6644 -0.5471 -0.1657
 2337SOL    HW2 7911   7.010   5.647   3.552 -1.6478  0.4570  0.8837
 2338SOL     OW 7912   2.422   2.912   1.261  0.0289 -0.5271  0.0687
 2338SOL    HW1 7913   2.468   2.921   1.172 -1.2994  0.2621 -0.5779
 2338SOL    HW2 7914   2.327   2.883   1.245 -0.3616  0.0981  1.2078
 2339SOL     OW 7915   4.381   1.468   1.278 -0.6283 -0.1560  0.2736
 2339SOL    HW1 7916   4.429   1.436   1.197  0.0135 -0.8793  0.9162
 2339SOL    HW2 7917   4.446   1.518   1.337 -0.9557 -0.0960  0.5859
 2340SOL     OW 7918   2.963   1.429   3.149  0.2491  0.0930  0.1231
 2340SOL    HW1 7919   2.941   1.522   3.177  1.0605  1.0076 -2.0246
 2340SOL    HW2 7920   3.063   1.418   3.146  0.2593  0.2077 -2.5155
 2341SOL     OW 7921   2.902   1.618   5.990 -0.3439 -0.5908 -0.1847
 2341SOL    HW1 7922   2.846   1.698   6.011  0.9506  0.0725  0.8010
 2341SOL    HW2 7923   2.964   1.639   5.915  0.3029 -0.5217  0.3649
 2342SOL     OW 7924   4.143   3.684   1.385 -0.4194 -0.2307  0.3553
 2342SOL    HW1 7925   4.197   3.768   1.382  0.0881 -0.5712 -0.8173
 2342SOL    HW2 7926   4.204   3.605   1.384 -0.9084 -0.6137  0.2510
 2343SOL     OW 7927   6.453   5.149   5.581 -0.1388 -0.3413  0.2462
 2343SOL    HW1 7928   6.438   5.155   5.679 -1.5482  0.2605  0.0188
 2343SOL    HW2 7929   6.366   5.129   5.535  0.0453  1.5295 -1.0379
 2344SOL     OW 7930   5.005   5.761   3.899  0.0610 -0.3449  0.3421
 2344SOL    HW1 7931   4.941   5.688   3.922 -1.0490 -0.0119 -1.4665
 2344SOL    HW2 7932   5.084   5.724   3.851 -0.6371 -0.3887 -0.8324
 2345SOL     OW 7933   0.234   3.690   3.113 -0.4142 -0.7023 -0.4278
 2345SOL    HW1 7934   0.187   3.667   3.198 -0.8684 -1.1081 -0.7850
 2345SOL    HW2 7935   0.226   3.788   3.096  3.0965  0.2519  2.0670
 2346SOL     OW 7936   4.560   4.602   1.786 -0.3615  0.0705  0.3632
 2346SOL    HW1 7937   4.624   4.533   1.820  0.2403  0.1545 -0.5567
 2346SOL    HW2 7938   4.479   4.557   1.749 -0.6393 -0.0597  1.1122
 2347SOL     OW 7939   2.920   3.503   3.575  0.7866 -0.0527  0.1752
 2347SOL    HW1 7940   2.832   3.502   3.623 -0.8180 -1.1012 -2.5395
 2347SOL    HW2 7941   2.947   3.598   3.557 -3.0673  0.5620 -4.1861
 2348SOL     OW 7942   1.412   6.706   1.292  0.7716 -0.1939 -0.2924
 2348SOL    HW1 7943   1.488   6.647   1.266  0.0841 -1.9854  1.5198
 2348SOL    HW2 7944   1.372   6.674   1.378  0.3067  2.9089  0.7941
 2349SOL     OW 7945   5.311   2.678   4.042 -1.1159 -0.1625  0.5294
 2349SOL    HW1 7946   5.407   2.649   4.047 -0.8362  0.6645  0.2502
 2349SOL    HW2 7947   5.283   2.716   4.130 -1.2728 -0.6509  0.6914
 2350SOL     OW 7948   4.138   4.788   4.577 -0.1942  0.1155 -0.1991
 2350SOL    HW1 7949   4.043   4.759   4.563 -0.5776  0.8986  0.6949
 2350SOL    HW2 7950   4.141   4.862   4.644  0.7821  1.8738 -2.0519
 2351SOL     OW 7951   1.286   2.066   3.399 -0.1871  0.1221 -0.4547
 2351SOL    HW1 7952   1.292   2.160   3.435  2.0830 -0.4586  0.9083
 2351SOL    HW2 7953   1.306   2.066   3.301  0.7094  0.9920 -0.2886
 2352SOL     OW 7954   4.736   2.942   0.663 -0.3675  0.3446 -0.1226
 2352SOL    HW1 7955   4.801   2.976   0.732 -1.4901 -1.5214  2.0270
 2352SOL    HW2 7956   4.646   2.982   0.679 -0.5747  0.1276 -0.7210
 2353SOL     OW 7957   6.406   4.132   0.125 -0.5427 -0.1501  0.0033
 2353SOL    HW1 7958   6.345   4.054   0.114 -0.4603 -0.1196 -0.7424
 2353SOL    HW2 7959   6.413   4.182   0.038  1.1498 -0.6160 -0.1710
 2354SOL     OW 7960   5.229   4.257   0.807 -0.5056  0.2880 -0.3044
 2354SOL    HW1 7961   5.144   4.299   0.773 -0.5843  0.8405  0.5323
 2354SOL    HW2 7962   5.306   4.319   0.789 -0.3124 -0.0979 -0.8297
 2355SOL     OW 7963   0.717   3.875   1.552 -0.3122 -0.2577  0.3486
 2355SOL    HW1 7964   0.669   3.843   1.634 -1.3462  0.8041  0.1775
 2355SOL    HW2 7965   0.774   3.801   1.516  0.6204 -0.5714  2.3518
 2356SOL     OW 7966   6.394   5.723   3.438 -0.0931 -0.0754 -0.0560
 2356SOL    HW1 7967   6.352   5.783   3.369  1.7083  0.5465 -0.6663
 2356SOL    HW2 7968   6.490   5.710   3.416  0.0252 -1.5792  1.2201
 2357SOL     OW 7969   0.205   2.224   0.804  0.3751 -0.5063 -0.0067
 2357SOL    HW1 7970   0.182   2.272   0.889  0.5524 -0.0884 -0.1913
 2357SOL    HW2 7971   0.303   2.233   0.786  0.3540 -0.6760 -0.2054
 2358SOL     OW 7972   6.694   3.781   5.865 -0.3950 -0.3114 -0.7639
 2358SOL    HW1 7973   6.655   3.750   5.778 -0.5733 -1.0652 -0.4266
 2358SOL    HW2 7974   6.637   3.749   5.940  0.0585 -0.1373 -0.3386
 2359SOL     OW 7975   4.881   0.077   5.205  0.4071  0.3687  0.3055
 2359SOL    HW1 7976   4.835   0.063   5.118  0.4315 -0.6192  0.4402
 2359SOL    HW2 7977   4.974   0.039   5.201 -0.6110 -2.6369  1.6926
 2360SOL     OW 7978   5.438   6.461   0.517  0.2969  0.3574  0.6691
 2360SOL    HW1 7979   5.417   6.555   0.490  0.8970  0.3327  0.1101
 2360SOL    HW2 7980   5.533   6.440   0.496 -0.1232 -0.7303 -0.2241
 2361SOL     OW 7981   1.194   3.566   2.244 -0.0935 -0.6240 -0.4441
 2361SOL    HW1 7982   1.133   3.645   2.247 -0.8438 -1.2025 -0.1701
 2361SOL    HW2 7983   1.158   3.494   2.303  1.7632 -0.3387  1.1609
 2362SOL     OW 7984   5.136   6.617   0.019  0.1926  0.2156  0.2702
 2362SOL    HW1 7985   5.057   6.620  -0.042  0.3931  0.8625  0.0378
 2362SOL    HW2 7986   5.130   6.691   0.086  0.8609  0.5945 -0.0759
 2363SOL     OW 7987   6.403   1.762   3.712  0.4387  0.0582  0.4019
 2363SOL    HW1 7988   6.422   1.805   3.624 -1.0856 -0.0659 -0.0138
 2363SOL    HW2 7989   6.453   1.810   3.784  2.2817 -0.2875 -0.5928
 2364SOL     OW 7990   3.667   3.303   5.350  0.0241 -0.2032 -0.5677
 2364SOL    HW1 7991   3.625   3.260   5.270 -2.6506 -3.0029  2.0657
 2364SOL    HW2 7992   3.612   3.383   5.376  1.1333  0.9627 -1.6146
 2365SOL     OW 7993   5.826   4.756   2.701  0.2111  0.3604  0.3357
 2365SOL    HW1 7994   5.868   4.820   2.765  2.9963  0.2662 -1.2557
 2365SOL    HW2 7995   5.782   4.807   2.627 -0.6838  0.4258  0.8942
 2366SOL     OW 7996   0.264   3.946   5.593  0.4345  0.3125  0.0851
 2366SOL    HW1 7997   0.183   3.896   5.563  0.0161  0.0386  1.5585
 2366SOL    HW2 7998   0.301   3.903   5.675  1.4007  1.1113  0.0875
 2367SOL     OW 7999   5.659   2.464   0.595  0.4547 -0.5589  0.3123
 2367SOL    HW1 8000   5.597   2.499   0.525  0.6749 -1.4427 -0.3508
 2367SOL    HW2 8001   5.612   2.460   0.683 -1.0750 -2.9351 -0.5256
 2368SOL     OW 8002   5.333   5.599   3.966  0.5708  0.0231 -0.1631
 2368SOL    HW1 8003   5.399   5.532   4.001  0.1736  0.2674  1.1239
 2368SOL    HW2 8004   5.241   5.558   3.965  0.9191 -1.0068 -3.8390
 2369SOL     OW 8005   1.910   3.787   6.719 -0.2444  0.0392  0.6662
 2369SOL    HW1 8006   1.978   3.780   6.792 -0.1372 -2.7661  0.4093
 2369SOL    HW2 8007   1.922   3.873   6.671  3.3061 -0.4067  0.4787
 2370SOL     OW 8008   0.915   3.775   2.082 -0.5103 -0.1452 -0.6022
 2370SOL    HW1 8009   0.818   3.801   2.074  0.1984  2.4244 -1.6777
 2370SOL    HW2 8010   0.958   3.828   2.155  0.5751  0.3792 -1.5940
 2371SOL     OW 8011   6.645   2.817   0.886 -0.3295  0.2385 -0.5075
 2371SOL    HW1 8012   6.628   2.776   0.796  1.3619 -1.7101 -0.0181
 2371SOL    HW2 8013   6.575   2.785   0.950 -0.6122  0.3410 -0.7609
 2372SOL     OW 8014   3.951   1.455   2.985 -0.5140 -0.0347  0.4273
 2372SOL    HW1 8015   4.016   1.451   3.061 -0.9379  0.0359  0.8037
 2372SOL    HW2 8016   3.963   1.375   2.926 -1.6870 -1.3175  1.8448
 2373SOL     OW 8017   3.712   1.395   0.339 -0.7553 -0.3557  0.8135
 2373SOL    HW1 8018   3.806   1.378   0.312 -0.5272  3.7703 -2.0536
 2373SOL    HW2 8019   3.650   1.340   0.283 -0.0868 -1.0434  0.7429
 2374SOL     OW 8020   5.593   2.047   0.631  0.6957 -0.0268  0.0906
 2374SOL    HW1 8021   5.559   2.075   0.721  0.6635 -0.4867  0.2286
 2374SOL    HW2 8022   5.650   1.965   0.642  0.1614 -0.4714 -0.3779
 2375SOL     OW 8023   2.088   4.528   4.113  0.1316 -0.5897  0.2059
 2375SOL    HW1 8024   2.108   4.438   4.152 -1.5044 -0.1635  2.1959
 2375SOL    HW2 8025   2.171   4.583   4.113  0.3988 -0.8816  2.4835
 2376SOL     OW 8026   2.837   6.836   0.127 -0.1020  0.5211  0.2119
 2376SOL    HW1 8027   2.768   6.907   0.113 -2.5857 -1.7085  0.4217
 2376SOL    HW2 8028   2.857   6.828   0.224  3.5458  3.7285 -0.0137
 2377SOL     OW 8029   7.025   3.445   5.133  0.3405  0.1869 -0.3750
 2377SOL    HW1 8030   7.099   3.438   5.200 -0.5206 -1.1409  0.4862
 2377SOL    HW2 8031   6.981   3.356   5.122 -0.2871  0.6422 -1.8653
 2378SOL     OW 8032   0.165   4.563   5.399  0.0640 -0.0996  0.0619
 2378SOL    HW1 8033   0.193   4.622   5.475  0.6611  0.5935 -0.6891
 2378SOL    HW2 8034   0.096   4.497   5.432  0.4253  0.0859  1.2343
 2379SOL     OW 8035   5.937   2.004   6.821  0.8085  0.3113 -0.4153
 2379SOL    HW1 8036   5.990   2.015   6.905  1.8656  1.3698 -1.1821
 2379SOL    HW2 8037   5.933   1.908   6.796  1.1755  0.0761  0.4044
 2380SOL     OW 8038   2.271   2.955   4.327 -0.2457 -0.7216  0.7316
 2380SOL    HW1 8039   2.283   2.968   4.425 -0.2039  1.4487  0.4861
 2380SOL    HW2 8040   2.182   2.991   4.299  0.6421  0.7606 -0.3377
 2381SOL     OW 8041   1.982   4.529   6.235  0.0493 -0.2726 -0.2674
 2381SOL    HW1 8042   1.993   4.589   6.156 -0.9723  0.0732 -0.1704
 2381SOL    HW2 8043   1.921   4.453   6.211 -0.3653 -0.0994  0.2083
 2382SOL     OW 8044   6.957   6.807   6.384  0.4560  0.1210 -0.1247
 2382SOL    HW1 8045   6.947   6.799   6.285  1.6803  0.4854 -0.2935
 2382SOL    HW2 8046   7.002   6.725   6.420  0.3327  0.1454  0.0910
 2383SOL     OW 8047   3.596   5.489   4.111  0.5130 -0.2268 -0.0264
 2383SOL    HW1 8048   3.521   5.495   4.044 -1.4008  2.8897  2.1652
 2383SOL    HW2 8049   3.599   5.396   4.148 -1.2924 -0.8419 -1.2619
 2384SOL     OW 8050   0.183   3.205   0.138  0.1350 -0.0867  0.5953
 2384SOL    HW1 8051   0.252   3.162   0.080  0.4615  1.6870 -0.4063
 2384SOL    HW2 8052   0.096   3.156   0.130  0.2647 -0.0603 -1.1778
 2385SOL     OW 8053   1.334   1.027   0.067 -0.5929 -0.1089 -0.0781
 2385SOL    HW1 8054   1.378   1.110   0.100 -0.7867 -0.2233  0.4789
 2385SOL    HW2 8055   1.284   1.046  -0.017 -0.0230  0.1672 -0.3584
 2386SOL     OW 8056   1.080   4.623   6.693  0.1987 -0.0610 -1.3294
 2386SOL    HW1 8057   1.100   4.679   6.773 -0.3718  2.0679 -2.6069
 2386SOL    HW2 8058   1.165   4.587   6.655  0.3990 -2.2449  0.9312
 2387SOL     OW 8059   3.351   5.939   3.433 -0.1090  0.2943  0.0204
 2387SOL    HW1 8060   3.329   5.998   3.511  0.7119  0.4055  0.1823
 2387SOL    HW2 8061   3.267   5.902   3.394 -0.5174 -0.0653  1.1934
 2388SOL     OW 8062   3.898   3.788   5.363  0.4258 -0.0790  0.3423
 2388SOL    HW1 8063   3.873   3.709   5.306  0.0495  0.8546 -0.8176
 2388SOL    HW2 8064   3.820   3.813   5.421 -0.2516  0.7873 -0.8930
 2389SOL     OW 8065   0.192   3.187   1.569  0.8370 -0.1621  0.3812
 2389SOL    HW1 8066   0.138   3.217   1.647 -0.1861 -1.4835  0.2084
 2389SOL    HW2 8067   0.171   3.244   1.490  1.4474  0.8095  0.8958
 2390SOL     OW 8068   0.482   1.789   0.654  0.0469 -0.5853 -0.1257
 2390SOL    HW1 8069   0.500   1.691   0.659 -1.5619 -1.2329 -3.8557
 2390SOL    HW2 8070   0.540   1.830   0.583 -1.3435  0.5244 -0.6783
 2391SOL     OW 8071   4.533   5.519   4.740  0.4655 -0.1800  0.5945
 2391SOL    HW1 8072   4.513   5.455   4.814 -1.9033 -0.6005 -0.3114
 2391SOL    HW2 8073   4.584   5.471   4.668  1.6571 -0.1045  1.3628
 2392SOL     OW 8074   2.048   0.798   2.651  0.0042 -0.1282 -0.1276
 2392SOL    HW1 8075   2.032   0.891   2.685 -0.5885 -0.5205  0.6839
 2392SOL    HW2 8076   2.147   0.781   2.648  0.1910  0.9875 -1.5755
 2393SOL     OW 8077   3.006   0.578   0.245 -0.5797 -0.8389 -0.3159
 2393SOL    HW1 8078   3.079   0.510   0.248  0.7854  0.5147 -1.1867
 2393SOL    HW2 8079   2.987   0.611   0.338  2.1555  0.9936 -0.2858
 2394SOL     OW 8080   1.097   5.340   2.670 -0.2741  0.0247 -0.2095
 2394SOL    HW1 8081   1.051   5.421   2.634  0.4531  0.2845 -0.5678
 2394SOL    HW2 8082   1.038   5.260   2.657 -0.8038  0.4149 -0.2652
 2395SOL     OW 8083   2.272   2.777   6.130 -0.3922  0.4375  0.1983
 2395SOL    HW1 8084   2.202   2.706   6.141  1.9169 -2.3146 -1.4826
 2395SOL    HW2 8085   2.265   2.815   6.037  0.5235 -0.0921 -0.0925
 2396SOL     OW 8086   4.497   6.265   1.741 -0.0325  0.0940  0.0690
 2396SOL    HW1 8087   4.576   6.219   1.699 -0.8742 -1.8336  0.5071
 2396SOL    HW2 8088   4.456   6.206   1.810 -3.2691  0.0218 -1.7350
 2397SOL     OW 8089   3.617   5.275   5.130  0.2998  0.0954  0.6280
 2397SOL    HW1 8090   3.519   5.289   5.135  0.3290 -0.0204  2.0961
 2397SOL    HW2 8091   3.664   5.361   5.152  0.5669  0.5856 -1.6418
 2398SOL     OW 8092   3.646   6.483   4.610 -0.2482  0.1276 -0.3655
 2398SOL    HW1 8093   3.733   6.533   4.614  0.7738 -1.5087 -0.9782
 2398SOL    HW2 8094   3.627   6.442   4.699 -0.3271  0.3672 -0.2710
 2399SOL     OW 8095   1.701   4.475   4.925 -0.4604  0.2095  0.0463
 2399SOL    HW1 8096   1.619   4.417   4.926 -0.9272  0.8537  0.9152
 2399SOL    HW2 8097   1.727   4.497   5.019  0.3984  0.4532 -0.2427
 2400SOL     OW 8098   0.833   2.137   5.030  0.1391 -0.1691  0.5254
 2400SOL    HW1 8099   0.843   2.226   4.985 -2.5579 -1.0710 -2.2227
 2400SOL    HW2 8100   0.752   2.138   5.088  0.7887 -0.4962  1.4496
 2401SOL     OW 8101   3.029   0.155   5.204 -0.2501  0.6313 -0.7915
 2401SOL    HW1 8102   2.941   0.138   5.247 -0.2532 -0.9128 -1.3633
 2401SOL    HW2 8103   3.103   0.139   5.270 -0.3272  0.0308 -0.8479
 2402SOL     OW 8104   1.089   0.486   3.319  0.0778  0.0153  0.2305
 2402SOL    HW1 8105   1.038   0.457   3.238  0.8936  0.0236 -0.2909
 2402SOL    HW2 8106   1.184   0.503   3.295  0.0293  1.3721  0.9120
 2403SOL     OW 8107   1.690   5.472   4.444  0.1106 -0.0032  0.8280
 2403SOL    HW1 8108   1.699   5.527   4.361  0.1906 -2.4752 -0.9087
 2403SOL    HW2 8109   1.602   5.493   4.487 -0.3001  0.7768 -0.3184
 2404SOL     OW 8110   5.735   6.949   4.220  0.3496  0.0676  0.0328
 2404SOL    HW1 8111   5.820   6.995   4.193  0.7925  0.3045  1.7475
 2404SOL    HW2 8112   5.679   6.932   4.138  0.6709  2.6186 -0.8004
 2405SOL     OW 8113   4.167   3.206   5.229 -0.3230  0.0741 -0.1851
 2405SOL    HW1 8114   4.140   3.114   5.257  0.3420 -0.4705 -1.2776
 2405SOL    HW2 8115   4.159   3.214   5.130  0.7936  0.7918 -0.2370
 2406SOL     OW 8116   4.800   1.950   5.252 -0.1006 -0.5618 -0.3282
 2406SOL    HW1 8117   4.760   2.040   5.267  1.4751  0.0041  0.7646
 2406SOL    HW2 8118   4.849   1.921   5.334 -2.1846 -3.3249  0.1046
 2407SOL     OW 8119   5.953   2.595   6.067  0.5918  0.6463 -0.4380
 2407SOL    HW1 8120   5.963   2.622   6.163 -1.1119  0.4281 -0.1682
 2407SOL    HW2 8121   5.923   2.674   6.014 -1.2688  0.1165 -0.2360
 2408SOL     OW 8122   1.905   2.564   0.932 -0.3861 -0.6858 -0.0135
 2408SOL    HW1 8123   1.954   2.510   1.001 -1.6617 -3.6539 -1.2386
 2408SOL    HW2 8124   1.968   2.589   0.859 -0.3145 -3.4337 -0.9980
 2409SOL     OW 8125   1.945   4.977   4.446 -0.1354  0.0623 -0.3935
 2409SOL    HW1 8126   1.960   5.005   4.351  0.6924  0.4574 -0.1596
 2409SOL    HW2 8127   2.027   4.933   4.481 -1.0224 -1.6696 -0.3839
 2410SOL     OW 8128   4.919   4.930   4.783 -0.1446  0.4258  0.6903
 2410SOL    HW1 8129   4.901   4.947   4.880 -0.2290  0.6541  0.6354
 2410SOL    HW2 8130   4.834   4.944   4.730  0.4649  2.9433  0.2355
 2411SOL     OW 8131   0.885   6.321   6.658  0.1344 -0.3527 -0.0331
 2411SOL    HW1 8132   0.887   6.275   6.569 -1.0429 -0.9918  0.2551
 2411SOL    HW2 8133   0.796   6.307   6.701  1.2449 -1.5592  2.0284
 2412SOL     OW 8134   6.473   3.517   4.647 -0.4802 -0.3842  0.2761
 2412SOL    HW1 8135   6.384   3.505   4.691 -0.4786 -0.4811  0.2539
 2412SOL    HW2 8136   6.545   3.517   4.716 -0.3309 -2.0992  0.1629
 2413SOL     OW 8137   6.837   4.962   5.820 -0.0796 -0.3907 -0.0852
 2413SOL    HW1 8138   6.815   5.052   5.785 -0.8834 -0.7555 -0.5302
 2413SOL    HW2 8139   6.925   4.966   5.868  1.6451 -0.0895 -3.0324
 2414SOL     OW 8140   3.430   3.305   1.323  0.2220  0.4338 -0.1462
 2414SOL    HW1 8141   3.333   3.305   1.299  0.5963  0.4581 -1.7874
 2414SOL    HW2 8142   3.470   3.217   1.299  0.4226  0.0640  1.4340
 2415SOL     OW 8143   3.388   4.990   4.052 -0.5516  0.1473 -0.1157
 2415SOL    HW1 8144   3.385   5.014   3.955 -1.9991 -1.1299 -0.4137
 2415SOL    HW2 8145   3.475   4.944   4.072 -1.1591 -1.6311 -1.3527
 2416SOL     OW 8146   6.974   5.591   0.636 -0.1815  0.1255 -0.4444
 2416SOL    HW1 8147   7.062   5.628   0.605 -0.4813  0.2499 -1.1668
 2416SOL    HW2 8148   6.904   5.663   0.631 -1.2026 -0.9212 -3.6511
 2417SOL     OW 8149   2.230   6.683   0.336 -0.1664 -0.0746  0.2633
 2417SOL    HW1 8150   2.297   6.754   0.315  1.2963 -1.5737 -0.3535
 2417SOL    HW2 8151   2.274   6.593   0.332 -2.0521 -1.0666  0.6031
 2418SOL     OW 8152   3.548   1.528   0.730 -0.2068  0.2409  0.6210
 2418SOL    HW1 8153   3.562   1.557   0.635 -0.2456  0.0284  0.5512
 2418SOL    HW2 8154   3.629   1.479   0.761 -0.0551  0.6051  0.8083
 2419SOL     OW 8155   3.059   0.652   4.911 -0.2148 -0.3934 -0.2949
 2419SOL    HW1 8156   3.147   0.696   4.892  0.5325 -1.6928  0.0288
 2419SOL    HW2 8157   3.062   0.557   4.878 -1.6755 -0.3151 -0.7149
 2420SOL     OW 8158   4.166   1.085   1.756 -0.0182 -0.3296  0.0018
 2420SOL    HW1 8159   4.210   1.174   1.745 -0.7326  0.0068 -0.1336
 2420SOL    HW2 8160   4.219   1.030   1.821  1.6949 -0.6540 -1.5722
 2421SOL     OW 8161   2.817   0.294   5.025 -0.6794 -0.2746 -0.1399
 2421SOL    HW1 8162   2.765   0.358   5.081 -1.0018  1.5430 -2.3794
 2421SOL    HW2 8163   2.890   0.253   5.079 -0.9061  1.4562  1.5456
 2422SOL     OW 8164   5.881   4.684   4.891  0.2265 -0.1852  0.1524
 2422SOL    HW1 8165   5.862   4.661   4.795 -1.0909 -1.5977  0.7057
 2422SOL    HW2 8166   5.818   4.755   4.921  0.8118  0.4431 -0.0899
 2423SOL     OW 8167   5.166   1.561   0.362  0.1880  0.8220  0.6508
 2423SOL    HW1 8168   5.213   1.649   0.358 -0.2781  1.0603  0.3836
 2423SOL    HW2 8169   5.150   1.536   0.458  0.1824  1.0992  0.7233
 2424SOL     OW 8170   3.273   2.469   0.223 -0.0625  0.5935  0.4180
 2424SOL    HW1 8171   3.231   2.419   0.147  0.5143 -1.7072  1.5160
 2424SOL    HW2 8172   3.372   2.454   0.222 -0.1675 -0.5892  2.3182
 2425SOL     OW 8173   6.797   0.498   2.845 -1.0411  0.4576 -0.3794
 2425SOL    HW1 8174   6.882   0.537   2.811 -0.0760 -1.8012 -0.7926
 2425SOL    HW2 8175   6.818   0.419   2.904 -2.8151  1.3429  1.5693
 2426SOL     OW 8176   4.366   4.947   5.650 -0.5484 -0.2108  0.3608
 2426SOL    HW1 8177   4.340   4.993   5.735 -1.4015 -2.1766  1.2285
 2426SOL    HW2 8178   4.285   4.931   5.594 -0.5962 -2.1591  0.8964
 2427SOL     OW 8179   4.744   1.581   0.574  0.1296 -0.0463 -0.6780
 2427SOL    HW1 8180   4.782   1.491   0.596  2.4820  0.9339 -0.4893
 2427SOL    HW2 8181   4.753   1.597   0.476 -1.5720 -0.5258 -0.9499
 2428SOL     OW 8182   1.937   2.145   1.106 -0.1423 -0.5068  0.0821
 2428SOL    HW1 8183   1.906   2.052   1.085  1.3546 -1.1659  0.6157
 2428SOL    HW2 8184   1.860   2.201   1.135 -1.3822 -1.0642 -1.9238
 2429SOL     OW 8185   1.541   4.263   4.179  0.1608 -0.4139  0.3265
 2429SOL    HW1 8186   1.557   4.230   4.272  1.5544  1.4146  0.8110
 2429SOL    HW2 8187   1.523   4.362   4.182 -0.0894 -0.3838 -1.3206
 2430SOL     OW 8188   1.608   3.677   5.935 -0.0707 -0.0739 -0.0020
 2430SOL    HW1 8189   1.564   3.733   6.005  0.2028 -0.8037  0.7673
 2430SOL    HW2 8190   1.688   3.631   5.973 -0.1365 -0.7833 -0.6773
 2431SOL     OW 8191   1.218   4.010   4.553  1.0210  0.0520 -0.0804
 2431SOL    HW1 8192   1.154   3.961   4.612  0.7436  0.2242 -0.2336
 2431SOL    HW2 8193   1.217   4.107   4.578  0.0458  0.3347 -1.1014
 2432SOL     OW 8194   4.346   5.716   4.601  0.2887 -0.0106  0.0302
 2432SOL    HW1 8195   4.393   5.643   4.650 -1.5787 -1.1310  0.2460
 2432SOL    HW2 8196   4.274   5.676   4.544 -0.0841  1.5975 -0.6683
 2433SOL     OW 8197   0.125   5.888   5.615 -0.3643  0.0638  0.0662
 2433SOL    HW1 8198   0.142   5.870   5.518 -3.2181  1.3043 -0.7792
 2433SOL    HW2 8199   0.151   5.982   5.637 -2.3192  0.7436 -0.3072
 2434SOL     OW 8200   6.712   2.375   2.386 -0.5083 -0.0339  0.1308
 2434SOL    HW1 8201   6.646   2.372   2.311  1.3194 -2.5891 -1.5334
 2434SOL    HW2 8202   6.718   2.285   2.429  2.4258 -0.1706 -0.3502
 2435SOL     OW 8203   0.625   3.045   6.278  0.5920 -0.0258  0.2853
 2435SOL    HW1 8204   0.601   2.948   6.271 -2.2381  0.6939 -1.6944
 2435SOL    HW2 8205   0.703   3.064   6.218 -0.6694 -0.6085 -1.6165
 2436SOL     OW 8206   4.429   5.757   5.585  0.1071 -0.3259 -0.3366
 2436SOL    HW1 8207   4.357   5.689   5.596  0.7663 -0.8273  1.1218
 2436SOL    HW2 8208   4.518   5.713   5.593  0.5710  0.4846 -0.8884
 2437SOL     OW 8209   6.475   1.704   1.630 -0.2525 -0.2473  0.5732
 2437SOL    HW1 8210   6.466   1.703   1.729  0.2360  2.2408  0.7222
 2437SOL    HW2 8211   6.569   1.683   1.605 -0.7154 -2.4718  0.4746
 2438SOL     OW 8212   6.110   5.650   6.548 -0.0230  0.0502 -0.1196
 2438SOL    HW1 8213   6.060   5.687   6.626 -0.8834 -1.2451 -0.0271
 2438SOL    HW2 8214   6.208   5.645   6.570 -0.0552  1.0353  0.3185
 2439SOL     OW 8215   1.644   6.197   1.030  0.1092 -0.0223 -0.0211
 2439SOL    HW1 8216   1.560   6.144   1.025  0.3813 -0.3657 -1.8168
 2439SOL    HW2 8217   1.682   6.191   1.122 -0.5916 -1.8318  0.1947
 2440SOL     OW 8218   2.238   1.143   3.117  0.2952 -0.1469  0.2450
 2440SOL    HW1 8219   2.320   1.093   3.147 -0.1029 -0.7149  0.3842
 2440SOL    HW2 8220   2.195   1.186   3.197 -0.6434 -1.4818  0.4862
 2441SOL     OW 8221   6.428   4.967   1.888  0.2266 -0.1976 -0.0639
 2441SOL    HW1 8222   6.488   5.045   1.910  1.6748 -1.2780 -0.0321
 2441SOL    HW2 8223   6.479   4.902   1.831 -2.2684  0.9165 -4.0142
 2442SOL     OW 8224   0.783   6.458   0.463 -0.6057  0.0331  0.3893
 2442SOL    HW1 8225   0.761   6.555   0.456 -0.5535  0.1778  1.9315
 2442SOL    HW2 8226   0.870   6.447   0.512 -0.9156 -0.8186  0.7581
 2443SOL     OW 8227   2.678   0.460   4.569 -0.1089  0.1813  0.3625
 2443SOL    HW1 8228   2.701   0.485   4.663 -0.1599  1.6377 -0.0003
 2443SOL    HW2 8229   2.738   0.507   4.506 -0.0791 -0.7888 -0.3582
 2444SOL     OW 8230   2.867   0.848   4.915  0.4014 -0.3299 -0.1736
 2444SOL    HW1 8231   2.820   0.859   4.828 -0.3319  0.4380  0.3029
 2444SOL    HW2 8232   2.929   0.770   4.910 -0.3179 -0.8602 -1.0807
 2445SOL     OW 8233   4.537   0.322   4.782 -0.3274 -0.2010 -0.3922
 2445SOL    HW1 8234   4.596   0.398   4.807 -0.4442  0.2267 -1.3751
 2445SOL    HW2 8235   4.574   0.237   4.821 -1.3927  0.6029  2.6157
 2446SOL     OW 8236   3.343   1.050   2.387  0.4731 -0.2796  0.0116
 2446SOL    HW1 8237   3.355   1.139   2.343 -1.3815  0.4758  0.9309
 2446SOL    HW2 8238   3.285   0.992   2.330  2.2115 -1.1979 -0.9051
 2447SOL     OW 8239   5.789   3.804   3.771  0.0847 -0.2569 -0.0079
 2447SOL    HW1 8240   5.705   3.758   3.743  0.7853 -1.5406 -0.0795
 2447SOL    HW2 8241   5.840   3.745   3.834 -0.1215  1.4188  1.8462
 2448SOL     OW 8242   4.808   4.159   3.151  0.2424 -0.0836  0.0326
 2448SOL    HW1 8243   4.887   4.202   3.108  0.5768 -1.9650 -1.3729
 2448SOL    HW2 8244   4.797   4.193   3.244 -0.0748  3.6462 -1.2089
 2449SOL     OW 8245   1.341   1.390   4.225  0.2464 -0.0674  0.1516
 2449SOL    HW1 8246   1.334   1.311   4.164  1.1080 -1.4764  1.7853
 2449SOL    HW2 8247   1.261   1.392   4.286 -1.2528  2.0435 -1.6996
 2450SOL     OW 8248   0.426   2.908   0.376 -0.7600  0.1691 -0.0932
 2450SOL    HW1 8249   0.511   2.927   0.328 -0.9665  1.1775 -0.0894
 2450SOL    HW2 8250   0.365   2.856   0.317  0.4941 -2.0871  0.5078
 2451SOL     OW 8251   3.138   1.232   6.616 -0.1746 -0.1325  0.0979
 2451SOL    HW1 8252   3.089   1.244   6.702 -1.4683  1.5401 -0.8101
 2451SOL    HW2 8253   3.236   1.244   6.631 -0.1291 -2.0523  1.6883
 2452SOL     OW 8254   2.515   2.512   0.485 -0.2798 -0.0894 -0.0033
 2452SOL    HW1 8255   2.596   2.559   0.450 -0.8706  0.8246 -0.1541
 2452SOL    HW2 8256   2.453   2.491   0.409  0.7044 -2.6386 -0.2107
 2453SOL     OW 8257   0.984   4.908   0.725 -0.4732 -0.1636 -0.3107
 2453SOL    HW1 8258   1.001   4.981   0.791 -0.0396  1.3590 -2.0104
 2453SOL    HW2 8259   0.886   4.900   0.709 -0.4991  0.4101 -0.4758
 2454SOL     OW 8260   0.314   1.368   3.477  0.0605 -0.2135 -0.7688
 2454SOL    HW1 8261   0.233   1.425   3.476  0.4655  0.4064  0.0923
 2454SOL    HW2 8262   0.396   1.426   3.485  0.5289 -0.8664 -0.7296
 2455SOL     OW 8263   2.036   5.338   1.054 -0.2280  0.0742  0.2615
 2455SOL    HW1 8264   2.092   5.266   1.014 -1.2719 -0.2556 -0.6576
 2455SOL    HW2 8265   2.005   5.310   1.145  1.8884  0.6933  1.2498
 2456SOL     OW 8266   6.642   5.439   2.407  0.0893  0.4471 -0.0012
 2456SOL    HW1 8267   6.570   5.502   2.379  0.4499  1.3235  0.9981
 2456SOL    HW2 8268   6.731   5.481   2.391  0.3337  0.2021  0.7055
 2457SOL     OW 8269   2.446   4.737   2.278 -0.2756 -0.2717 -0.1140
 2457SOL    HW1 8270   2.403   4.675   2.212 -0.7753 -1.8794  1.6395
 2457SOL    HW2 8271   2.542   4.709   2.290  0.1904  0.8304 -1.0684
 2458SOL     OW 8272   6.880   4.072   6.532 -0.0414  0.5282 -0.2102
 2458SOL    HW1 8273   6.885   4.065   6.632 -0.0914  0.6539 -0.1993
 2458SOL    HW2 8274   6.787   4.099   6.505 -0.4019 -0.7840 -0.3569
 2459SOL     OW 8275   3.912   3.190   3.809  0.6569  0.7012 -0.3240
 2459SOL    HW1 8276   3.898   3.157   3.903  2.1444  1.9703  0.3889
 2459SOL    HW2 8277   3.912   3.112   3.746 -1.0724 -0.1142  0.6033
 2460SOL     OW 8278   1.755   0.977   6.387 -0.4409 -0.4706 -0.1616
 2460SOL    HW1 8279   1.769   1.061   6.439 -0.5217  0.2303 -1.2337
 2460SOL    HW2 8280   1.660   0.974   6.355 -0.7100 -1.4607  0.6910
 2461SOL     OW 8281   6.598   6.615   5.637 -0.5241 -0.4020 -0.2805
 2461SOL    HW1 8282   6.518   6.556   5.653 -0.0867 -1.0279 -0.3906
 2461SOL    HW2 8283   6.674   6.560   5.602  0.1037  0.1144  0.2455
 2462SOL     OW 8284   5.955   6.757   2.055 -0.5151 -0.3355 -0.1032
 2462SOL    HW1 8285   5.868   6.713   2.076 -1.5870  0.7278 -2.0432
 2462SOL    HW2 8286   5.957   6.782   1.958  0.4194  2.9475  0.6502
 2463SOL     OW 8287   4.082   3.154   5.897  0.5001  0.0693 -0.0631
 2463SOL    HW1 8288   4.024   3.079   5.865  0.4073 -0.3481  1.0636
 2463SOL    HW2 8289   4.160   3.165   5.834 -0.6113  0.4552 -1.4290
 2464SOL     OW 8290   3.948   4.943   4.331 -0.4468 -0.0092  0.7674
 2464SOL    HW1 8291   4.027   4.914   4.276 -1.4891 -0.2288 -0.6918
 2464SOL    HW2 8292   3.950   5.042   4.341 -0.6417  0.1268 -0.3751
 2465SOL     OW 8293   0.404   2.524   1.065  0.4760 -0.0063 -0.5806
 2465SOL    HW1 8294   0.353   2.586   1.125  1.8176 -1.7185  2.5058
 2465SOL    HW2 8295   0.489   2.568   1.037  2.1581 -0.7695  2.8340
 2466SOL     OW 8296   2.912   1.678   4.341 -0.1575 -0.0195 -0.0162
 2466SOL    HW1 8297   2.876   1.724   4.422 -1.0631 -1.3889  0.4001
 2466SOL    HW2 8298   3.011   1.665   4.352 -0.0243  1.0888  0.2045
 2467SOL     OW 8299   3.512   6.049   0.313  0.7922 -0.0634  0.3971
 2467SOL    HW1 8300   3.594   6.087   0.269  0.1238 -0.4898 -1.2655
 2467SOL    HW2 8301   3.435   6.111   0.300  0.2409 -0.8807 -0.3313
 2468SOL     OW 8302   5.729   3.843   2.235 -0.4393 -0.2570 -0.6778
 2468SOL    HW1 8303   5.766   3.913   2.296  0.5609 -0.8022 -0.6250
 2468SOL    HW2 8304   5.664   3.884   2.171  0.3126  0.7601 -0.8063
 2469SOL     OW 8305   2.898   5.369   6.671 -0.2777  0.1299 -0.0218
 2469SOL    HW1 8306   2.953   5.443   6.633  1.1853 -0.0209  1.6772
 2469SOL    HW2 8307   2.905   5.289   6.611  1.0753  0.2419 -0.0590
 2470SOL     OW 8308   1.118   6.859   3.099  0.4167 -0.2686  0.2160
 2470SOL    HW1 8309   1.045   6.920   3.130 -0.0524 -1.3049  1.1920
 2470SOL    HW2 8310   1.079   6.775   3.061  1.0896 -0.5885  0.2046
 2471SOL     OW 8311   1.890   2.655   6.287  0.0697 -0.1189 -0.1588
 2471SOL    HW1 8312   1.988   2.639   6.277  0.0980 -0.0387 -0.0148
 2471SOL    HW2 8313   1.845   2.572   6.319  0.4070  0.4365  1.8529
 2472SOL     OW 8314   3.737   0.913   6.467  0.2876  0.8733  0.5343
 2472SOL    HW1 8315   3.694   1.003   6.475  1.8701  1.5592  2.0441
 2472SOL    HW2 8316   3.837   0.924   6.465  0.4911 -0.7489 -1.3403
 2473SOL     OW 8317   3.124   2.331   0.039  0.0384 -0.0775 -0.1686
 2473SOL    HW1 8318   3.028   2.360   0.046 -0.1095 -0.7497  0.9325
 2473SOL    HW2 8319   3.127   2.234   0.016  0.5086  0.5163 -2.9197
 2474SOL     OW 8320   3.718   6.918   4.369  0.1225  0.1180  0.4228
 2474SOL    HW1 8321   3.818   6.921   4.370  0.1659 -0.6458  2.6218
 2474SOL    HW2 8322   3.682   6.989   4.430 -0.7195  0.6664 -0.6705
 2475SOL     OW 8323   5.045   3.904   1.295 -0.1958 -0.1489 -0.1961
 2475SOL    HW1 8324   4.995   3.950   1.221 -1.9169 -0.1812  0.8888
 2475SOL    HW2 8325   5.089   3.973   1.352 -1.8448  0.1662  0.7780
 2476SOL     OW 8326   5.449   2.228   6.482 -0.4384  0.4173 -0.4894
 2476SOL    HW1 8327   5.526   2.243   6.544 -0.3674 -1.8480  0.0739
 2476SOL    HW2 8328   5.471   2.266   6.392  1.6237 -0.6313 -0.5083
 2477SOL     OW 8329   5.101   0.176   2.760 -0.0445 -0.2378 -0.1982
 2477SOL    HW1 8330   5.078   0.254   2.703  1.0613 -0.8459 -1.5314
 2477SOL    HW2 8331   5.119   0.207   2.853  1.0669  1.2191 -0.8461
 2478SOL     OW 8332   2.770   1.121   1.296 -0.2620 -0.1557 -0.3874
 2478SOL    HW1 8333   2.721   1.035   1.282 -2.4418  1.3033 -2.4088
 2478SOL    HW2 8334   2.857   1.117   1.247  0.3325 -1.6535  0.6944
 2479SOL     OW 8335   4.659   0.625   2.858 -0.2790  0.2416 -0.0866
 2479SOL    HW1 8336   4.743   0.629   2.803  0.4432  1.6604  1.0195
 2479SOL    HW2 8337   4.602   0.549   2.827  0.7884  0.0596 -1.7531
 2480SOL     OW 8338   4.791   5.050   5.030 -0.0394  0.7497  0.1191
 2480SOL    HW1 8339   4.691   5.041   5.033 -0.1257  1.6925  3.3143
 2480SOL    HW2 8340   4.815   5.147   5.030  0.8800  0.5262  0.6057
 2481SOL     OW 8341   4.402   6.118   2.007  0.5231  0.0983  0.2160
 2481SOL    HW1 8342   4.427   6.039   2.062 -0.9407 -0.3075  0.3636
 2481SOL    HW2 8343   4.334   6.090   1.939 -0.8886  1.4197  1.0078
 2482SOL     OW 8344   2.856   1.169   0.006 -0.0814 -0.6602 -0.8331
 2482SOL    HW1 8345   2.905   1.148  -0.079  2.6588 -1.2499  0.7832
 2482SOL    HW2 8346   2.850   1.268   0.016 -0.4148 -0.5846 -1.7128
 2483SOL     OW 8347   2.177   2.511   6.198 -0.1530 -0.0934 -0.0307
 2483SOL    HW1 8348   2.135   2.442   6.257 -1.5004  0.0336 -0.8069
 2483SOL    HW2 8349   2.251   2.469   6.145  0.4850 -0.4120  1.0828
 2484SOL     OW 8350   4.961   3.554   4.287 -0.2050  0.0412 -0.3310
 2484SOL    HW1 8351   4.891   3.620   4.314  0.3374  0.6170 -0.3153
 2484SOL    HW2 8352   4.991   3.503   4.368 -1.0823 -0.6818 -0.4503
 2485SOL     OW 8353   5.247   0.540   5.130 -0.9855  0.8713 -0.0121
 2485SOL    HW1 8354   5.329   0.586   5.165 -0.7292  0.3406  0.0913
 2485SOL    HW2 8355   5.257   0.523   5.032 -0.7050  0.2492  0.1215
 2486SOL     OW 8356   5.897   5.992   6.001  0.2397  0.2336  0.0224
 2486SOL    HW1 8357   5.931   5.900   5.981  0.2091  0.3063 -0.3858
 2486SOL    HW2 8358   5.830   5.988   6.075 -0.7792 -0.2682 -0.8939
 2487SOL     OW 8359   0.955   4.100   4.395 -0.2391  0.5079 -0.2831
 2487SOL    HW1 8360   0.884   4.039   4.432 -0.6282  2.2767  2.0948
 2487SOL    HW2 8361   0.912   4.170   4.337  0.2020 -1.2631 -2.9622
 2488SOL     OW 8362   1.428   4.018   6.542 -0.0803 -0.2006 -0.3447
 2488SOL    HW1 8363   1.486   4.086   6.495  1.7439 -1.0383  0.5885
 2488SOL    HW2 8364   1.332   4.036   6.521  0.2415  3.1778  0.5090
 2489SOL     OW 8365   5.102   5.146   3.769  0.3471 -0.0530  0.3925
 2489SOL    HW1 8366   5.084   5.120   3.864  0.5777  0.7015  0.6463
 2489SOL    HW2 8367   5.030   5.207   3.737  0.3969 -0.1209  0.1494
 2490SOL     OW 8368   4.822   0.644   0.216  0.4401 -0.5645  0.0458
 2490SOL    HW1 8369   4.892   0.706   0.250 -0.6352  0.0202  1.3001
 2490SOL    HW2 8370   4.779   0.684   0.134  2.8035 -1.8205 -1.9455
 2491SOL     OW 8371   4.414   0.467   4.203 -0.0923 -0.4751 -0.4186
 2491SOL    HW1 8372   4.423   0.562   4.175 -2.8721  0.6496  1.9258
 2491SOL    HW2 8373   4.480   0.447   4.276  1.6037 -0.9396 -2.0019
 2492SOL     OW 8374   2.985   1.735   0.559  0.1224  0.1739 -0.2154
 2492SOL    HW1 8375   3.014   1.803   0.626 -0.2014  1.4840 -1.3530
 2492SOL    HW2 8376   3.063   1.707   0.504  0.6280 -1.7620  1.3911
 2493SOL     OW 8377   0.481   6.543   2.791  0.2220  0.3834  0.0060
 2493SOL    HW1 8378   0.390   6.579   2.775  0.0880  0.4184  0.7950
 2493SOL    HW2 8379   0.530   6.604   2.854  0.8033  0.3853 -0.4389
 2494SOL     OW 8380   0.309   3.387   5.066  0.0700  0.2381 -0.2939
 2494SOL    HW1 8381   0.301   3.486   5.073  0.7708  0.2673  0.2101
 2494SOL    HW2 8382   0.322   3.348   5.157 -1.2950 -0.4293 -0.3683
 2495SOL     OW 8383   5.848   3.762   3.164 -0.5493  0.0838 -0.1354
 2495SOL    HW1 8384   5.810   3.706   3.091 -0.0512  1.0282 -1.1375
 2495SOL    HW2 8385   5.788   3.756   3.244 -1.1139 -0.9427 -0.6121
 2496SOL     OW 8386   3.501   1.757   5.392  0.5849  0.2466  0.5577
 2496SOL    HW1 8387   3.562   1.693   5.438  0.4887  0.1022  0.4840
 2496SOL    HW2 8388   3.537   1.778   5.301  1.0025  0.8677  0.8630
 2497SOL     OW 8389   6.715   3.787   0.198 -0.3375 -0.1732  0.0993
 2497SOL    HW1 8390   6.759   3.714   0.146 -1.2514 -1.0286  0.5025
 2497SOL    HW2 8391   6.758   3.794   0.289 -0.3622 -0.3256  0.1229
 2498SOL     OW 8392   3.397   5.466   1.806 -0.2335  0.2953 -0.2914
 2498SOL    HW1 8393   3.430   5.425   1.721  1.3899  2.4743 -0.8057
 2498SOL    HW2 8394   3.449   5.430   1.883  2.6066  2.5769 -0.9402
 2499SOL     OW 8395   0.068   1.174   1.519 -0.1667  0.9618 -0.2568
 2499SOL    HW1 8396   0.067   1.164   1.619 -2.1888  0.3371 -0.2979
 2499SOL    HW2 8397   0.143   1.120   1.481 -0.7144 -0.5953  0.7833
 2500SOL     OW 8398   4.716   6.535   6.580 -0.3449  0.6612  0.0439
 2500SOL    HW1 8399   4.814   6.538   6.564 -0.3253  1.8005  0.3500
 2500SOL    HW2 8400   4.673   6.477   6.510  0.3359  1.5691 -1.1539
 2501SOL     OW 8401   0.401   0.433   4.950  0.1548  0.1337 -0.1581
 2501SOL    HW1 8402   0.374   0.376   4.872  0.0075  0.9171 -0.6873
 2501SOL    HW2 8403   0.427   0.374   5.026 -0.9149 -0.6551 -0.3738
 2502SOL     OW 8404   5.942   0.548   6.103  0.3342 -0.3491 -0.3258
 2502SOL    HW1 8405   5.971   0.588   6.190  0.0358  1.6435 -1.0922
 2502SOL    HW2 8406   5.849   0.579   6.081  0.8382  0.1693 -1.8877
 2503SOL     OW 8407   1.825   2.328   2.999 -0.0449  0.1336  0.1293
 2503SOL    HW1 8408   1.766   2.249   2.982  1.6558 -1.5326  1.5899
 2503SOL    HW2 8409   1.862   2.361   2.912  0.0702 -1.3529 -0.4133
 2504SOL     OW 8410   1.182   6.776   0.270  0.0853  0.4861  0.0903
 2504SOL    HW1 8411   1.104   6.718   0.292 -0.9784  1.3945 -1.1616
 2504SOL    HW2 8412   1.172   6.813   0.178  1.8551  0.8787  0.0141
 2505SOL     OW 8413   5.913   0.295   3.991 -0.3696 -0.2583  0.1460
 2505SOL    HW1 8414   6.000   0.250   3.974 -0.1672  0.4414 -0.7595
 2505SOL    HW2 8415   5.915   0.388   3.952 -0.9342  0.3760  1.5486
 2506SOL     OW 8416   1.335   0.610   3.223 -0.5342 -0.4098 -0.7476
 2506SOL    HW1 8417   1.254   0.667   3.233  0.8855  1.6783 -0.4571
 2506SOL    HW2 8418   1.404   0.637   3.290  2.1661  1.1775 -3.8710
 2507SOL     OW 8419   2.033   1.675   0.944  0.5644 -0.3319 -0.5078
 2507SOL    HW1 8420   2.070   1.626   0.865  3.0044 -0.8091  0.8394
 2507SOL    HW2 8421   2.079   1.763   0.954  1.3068 -0.8732  1.1395
 2508SOL     OW 8422   4.331   5.714   6.081  0.0947 -0.5009 -0.1272
 2508SOL    HW1 8423   4.291   5.712   6.173  1.1922 -0.5315  0.3759
 2508SOL    HW2 8424   4.299   5.635   6.029 -0.7096 -0.3625  0.1497
 2509SOL     OW 8425   2.408   6.589   4.818  0.5005  0.0237  0.1177
 2509SOL    HW1 8426   2.317   6.568   4.783  1.0966 -0.1322 -1.4359
 2509SOL    HW2 8427   2.417   6.687   4.831  0.5924  0.2171 -1.2423
 2510SOL     OW 8428   4.040   0.988   3.577  0.1902 -0.1211  0.0024
 2510SOL    HW1 8429   4.121   1.005   3.632 -1.1460  1.6693  1.5214
 2510SOL    HW2 8430   3.987   1.072   3.568 -0.7119 -0.8602 -2.3115
 2511SOL     OW 8431   4.976   3.375   2.838 -0.4693 -0.4302  0.3488
 2511SOL    HW1 8432   4.954   3.406   2.745  0.9864  2.3470  0.8368
 2511SOL    HW2 8433   4.942   3.281   2.851 -1.5162 -0.5589 -2.6434
 2512SOL     OW 8434   6.462   5.264   2.108 -0.3458 -0.2969  0.7750
 2512SOL    HW1 8435   6.443   5.195   2.178  1.0391 -0.4203  1.0657
 2512SOL    HW2 8436   6.544   5.237   2.056 -0.2599  0.7211  0.3552
 2513SOL     OW 8437   1.003   2.385   4.507 -0.4914 -0.2045  0.4379
 2513SOL    HW1 8438   1.018   2.411   4.602 -1.2825 -1.1064  0.8254
 2513SOL    HW2 8439   0.979   2.467   4.454 -0.5385  0.2319  1.1139
 2514SOL     OW 8440   6.533   2.435   2.177  0.2167  0.8207 -0.0463
 2514SOL    HW1 8441   6.455   2.497   2.176 -0.6724 -0.2303  1.1126
 2514SOL    HW2 8442   6.506   2.347   2.138  0.5727  0.1929  1.0647
 2515SOL     OW 8443   6.136   4.691   1.801 -0.1003 -0.3257 -0.5287
 2515SOL    HW1 8444   6.168   4.750   1.875  0.1608 -1.0671 -0.0347
 2515SOL    HW2 8445   6.063   4.736   1.751  2.2006  1.8215 -2.2155
 2516SOL     OW 8446   2.398   2.131   4.450  0.6838 -0.5972  0.4839
 2516SOL    HW1 8447   2.386   2.217   4.401 -1.5571 -0.6571  0.8118
 2516SOL    HW2 8448   2.486   2.131   4.497  1.1686  1.0740 -0.3548
 2517SOL     OW 8449   4.357   6.347   2.105  0.2687 -0.4829  0.0194
 2517SOL    HW1 8450   4.424   6.377   2.036  0.5764 -0.6337  0.2470
 2517SOL    HW2 8451   4.359   6.247   2.111  1.1144 -0.4208  1.0968
 2518SOL     OW 8452   2.110   2.422   4.838  0.7171  0.1594 -0.0526
 2518SOL    HW1 8453   2.187   2.380   4.886  0.2649 -0.2319  0.3432
 2518SOL    HW2 8454   2.125   2.521   4.829  1.1509  0.1188  0.2275
 2519SOL     OW 8455   0.586   2.661   4.168 -0.4046  0.2584  0.1798
 2519SOL    HW1 8456   0.504   2.625   4.122 -1.7271 -0.7002  3.0328
 2519SOL    HW2 8457   0.624   2.591   4.229  0.8028  1.6435  1.0950
 2520SOL     OW 8458   5.841   3.662   1.346  0.2083 -0.3405 -0.5170
 2520SOL    HW1 8459   5.903   3.604   1.399  1.8922  1.5700 -0.3090
 2520SOL    HW2 8460   5.889   3.698   1.266 -1.3629 -0.6349 -1.6428
 2521SOL     OW 8461   6.914   1.755   5.506  0.0521  0.4420 -0.2183
 2521SOL    HW1 8462   6.880   1.830   5.563  2.1569  1.2471  0.0739
 2521SOL    HW2 8463   6.838   1.694   5.482 -2.3700  4.0118 -2.6941
 2522SOL     OW 8464   5.901   0.244   6.080  0.2750  0.6380  0.1733
 2522SOL    HW1 8465   5.846   0.301   6.019 -0.1251 -0.9523 -1.0356
 2522SOL    HW2 8466   5.918   0.292   6.165 -1.7794  1.7358  0.0184
 2523SOL     OW 8467   6.559   6.993   1.825 -0.9330  0.6624 -0.1429
 2523SOL    HW1 8468   6.567   7.033   1.734 -1.0658  1.0125 -0.0026
 2523SOL    HW2 8469   6.602   6.903   1.826  2.6255  2.1995  0.4172
 2524SOL     OW 8470   2.971   3.169   0.567 -0.2361  0.1858 -0.2100
 2524SOL    HW1 8471   2.912   3.099   0.606  0.2660  1.7698  3.9877
 2524SOL    HW2 8472   3.066   3.148   0.590  0.1070  1.2837 -0.5726
 2525SOL     OW 8473   0.897   6.947   6.666 -0.8119  0.3609  0.2581
 2525SOL    HW1 8474   0.874   6.974   6.573 -0.2487  1.0004  0.2992
 2525SOL    HW2 8475   0.905   7.028   6.723 -0.6144  0.0050  0.7435
 2526SOL     OW 8476   3.865   1.146   5.090  0.2870 -0.1909 -0.1521
 2526SOL    HW1 8477   3.780   1.095   5.081 -1.6608  2.9252 -1.1155
 2526SOL    HW2 8478   3.942   1.090   5.059 -1.3076 -3.1887  0.9528
 2527SOL     OW 8479   4.071   4.542   0.055 -1.1678 -0.3951  0.0618
 2527SOL    HW1 8480   4.002   4.553   0.127  0.6605  0.8222  1.7244
 2527SOL    HW2 8481   4.097   4.632   0.020  1.8607 -0.4392  1.8184
 2528SOL     OW 8482   0.113   1.316   6.546  0.0386 -0.3339  0.9439
 2528SOL    HW1 8483   0.168   1.395   6.519 -1.1918  0.6491  1.2327
 2528SOL    HW2 8484   0.173   1.238   6.562  1.2445  0.4099  0.2363
 2529SOL     OW 8485   0.169   6.550   2.848 -0.1380 -0.0632  0.0128
 2529SOL    HW1 8486   0.171   6.507   2.758 -1.5104  1.6551 -0.9195
 2529SOL    HW2 8487   0.180   6.649   2.837  1.5148  0.0212  1.9270
 2530SOL     OW 8488   0.631   5.039   4.474  0.3795  0.0030 -0.3704
 2530SOL    HW1 8489   0.720   5.085   4.474 -0.5775  2.1093 -2.8761
 2530SOL    HW2 8490   0.563   5.100   4.435 -1.7756 -2.3306 -0.4842
 2531SOL     OW 8491   1.469   2.689   3.156  0.4453  0.4448  0.5939
 2531SOL    HW1 8492   1.384   2.667   3.203  0.1538 -0.5922 -0.3719
 2531SOL    HW2 8493   1.515   2.764   3.203 -0.7595  0.6972  1.4013
 2532SOL     OW 8494   6.259   6.802   6.735 -0.3625 -0.4328 -0.6263
 2532SOL    HW1 8495   6.256   6.854   6.649  1.1371  1.1301  0.2008
 2532SOL    HW2 8496   6.339   6.741   6.733 -0.3810 -0.4643 -0.3596
 2533SOL     OW 8497   4.708   5.715   4.797  0.5120 -0.8379 -0.0060
 2533SOL    HW1 8498   4.755   5.652   4.859 -0.0436 -1.0614  0.1949
 2533SOL    HW2 8499   4.637   5.666   4.747  0.8408 -0.6183 -0.6936
 2534SOL     OW 8500   0.409   0.912   0.059  0.7300  0.8352 -0.0545
 2534SOL    HW1 8501   0.502   0.921   0.094  0.7918  0.2397 -0.0500
 2534SOL    HW2 8502   0.373   0.822   0.083  0.2873  0.9206 -0.3768
 2535SOL     OW 8503   1.728   5.986   1.585  0.4755  0.3036  0.4574
 2535SOL    HW1 8504   1.667   5.950   1.656  0.6857  1.1379  1.0848
 2535SOL    HW2 8505   1.774   6.068   1.619  2.3033 -0.5406  0.1750
 2536SOL     OW 8506   0.553   1.610   3.628 -0.6116 -0.2360 -0.0835
 2536SOL    HW1 8507   0.479   1.660   3.583  0.7754  2.2676  0.1833
 2536SOL    HW2 8508   0.611   1.675   3.677  2.8853 -1.7497 -1.8513
 2537SOL     OW 8509   3.804   4.891   5.129  0.3481 -0.0974  0.1963
 2537SOL    HW1 8510   3.865   4.871   5.052  0.3340  0.3268  0.0725
 2537SOL    HW2 8511   3.723   4.938   5.096  0.5810  0.5488  0.5292
 2538SOL     OW 8512   0.927   3.100   0.790 -0.1221  0.1102  0.0106
 2538SOL    HW1 8513   0.837   3.080   0.750  0.9137 -0.7548 -2.0288
 2538SOL    HW2 8514   0.960   3.187   0.755 -0.6599  1.0471  1.7352
 2539SOL     OW 8515   6.161   3.414   2.994 -0.1991 -0.5422 -0.0089
 2539SOL    HW1 8516   6.179   3.513   2.995  0.7995 -0.6782 -1.6003
 2539SOL    HW2 8517   6.105   3.390   3.073  0.4482  1.1255  1.0112
 2540SOL     OW 8518   5.989   2.925   2.548 -0.1127 -0.0500  0.0440
 2540SOL    HW1 8519   6.048   2.991   2.594  0.5405 -1.6893  1.6791
 2540SOL    HW2 8520   5.908   2.972   2.513  1.1386  1.8834 -0.4113
 2541SOL     OW 8521   1.789   0.263   5.351 -0.1246 -0.5688 -0.0692
 2541SOL    HW1 8522   1.840   0.251   5.265  1.2897  0.3092  0.6063
 2541SOL    HW2 8523   1.699   0.301   5.331  1.0778  1.9993 -1.0622
 2542SOL     OW 8524   0.367   4.370   1.089 -0.0401 -0.1621  0.2452
 2542SOL    HW1 8525   0.285   4.351   1.143 -0.2191 -0.9836 -0.3004
 2542SOL    HW2 8526   0.438   4.303   1.111 -0.5694 -1.3688 -1.4676
 2543SOL     OW 8527   1.184   2.573   1.220  0.1841  0.6490 -0.1993
 2543SOL    HW1 8528   1.271   2.571   1.171 -0.1728  0.6822 -0.8433
 2543SOL    HW2 8529   1.157   2.480   1.244  1.3308  0.7585  1.7103
 2544SOL     OW 8530   0.150   5.359   6.222  0.1030  0.3672  0.3704
 2544SOL    HW1 8531   0.143   5.291   6.149  0.7112  1.1554 -0.4299
 2544SOL    HW2 8532   0.122   5.448   6.188 -0.4592  0.5871  1.3530
 2545SOL     OW 8533   2.462   1.112   5.791 -0.1720 -0.3251 -0.2138
 2545SOL    HW1 8534   2.469   1.115   5.691  0.7902 -2.2809 -0.2604
 2545SOL    HW2 8535   2.414   1.028   5.818 -1.9354  0.9967  0.9491
 2546SOL     OW 8536   2.460   1.149   6.082 -0.0194  0.0672 -0.2297
 2546SOL    HW1 8537   2.431   1.092   6.005 -0.5189 -0.4880  0.3617
 2546SOL    HW2 8538   2.381   1.201   6.115 -0.0831 -0.5588  0.6302
 2547SOL     OW 8539   3.448   3.706   4.772  0.2472  0.3326 -0.0079
 2547SOL    HW1 8540   3.521   3.641   4.794 -0.9222 -0.9088  0.3200
 2547SOL    HW2 8541   3.483   3.776   4.710  1.0782 -1.6972 -1.9325
 2548SOL     OW 8542   2.417   6.920   7.021  0.7562 -0.2119  0.7127
 2548SOL    HW1 8543   2.347   6.861   6.981  0.9744 -0.2111  0.3170
 2548SOL    HW2 8544   2.425   6.901   7.119  0.6420 -0.6538  0.6401
 2549SOL     OW 8545   6.973   4.621   0.657 -0.8558 -0.6133  0.0246
 2549SOL    HW1 8546   7.008   4.628   0.563 -1.5442  0.5761 -0.1669
 2549SOL    HW2 8547   6.909   4.545   0.663 -1.3895 -0.2353 -0.6766
 2550SOL     OW 8548   0.618   6.412   6.708 -0.2383 -0.4206  0.1611
 2550SOL    HW1 8549   0.525   6.425   6.744  0.9847  0.1112  3.4192
 2550SOL    HW2 8550   0.658   6.501   6.685 -0.7041 -0.6974 -2.0031
 2551SOL     OW 8551   1.516   1.777   0.366  0.7788  0.0760  0.0500
 2551SOL    HW1 8552   1.460   1.773   0.283 -0.3846  1.7903  0.6989
 2551SOL    HW2 8553   1.609   1.748   0.344  0.7164  1.2570 -2.0714
 2552SOL     OW 8554   4.000   5.165   0.866 -0.5075 -0.5739  0.5384
 2552SOL    HW1 8555   4.022   5.262   0.876  1.1450 -0.8891  0.2566
 2552SOL    HW2 8556   4.040   5.113   0.942 -0.3387 -1.1895  0.0372
 2553SOL     OW 8557   0.785   3.596   0.417 -0.3397 -0.2102  0.4836
 2553SOL    HW1 8558   0.747   3.583   0.325 -0.2690 -2.6007  0.7168
 2553SOL    HW2 8559   0.745   3.527   0.479  1.3883 -0.1985  1.6730
 2554SOL     OW 8560   4.881   3.094   2.939 -0.3305 -0.4817 -0.1703
 2554SOL    HW1 8561   4.917   3.119   3.029  0.4256 -0.1866 -0.5490
 2554SOL    HW2 8562   4.821   3.014   2.948 -0.1913 -0.5085  0.5801
 2555SOL     OW 8563   2.829   6.809   3.462 -0.5232 -0.2216 -0.7525
 2555SOL    HW1 8564   2.879   6.896   3.457 -2.2853  0.8126 -1.6087
 2555SOL    HW2 8565   2.848   6.755   3.380  2.3176 -1.7450  0.7653
 2556SOL     OW 8566   2.313   5.220   5.019  0.3872 -0.5135  0.7146
 2556SOL    HW1 8567   2.327   5.275   5.102 -0.0032 -0.6809  0.8959
 2556SOL    HW2 8568   2.396   5.221   4.963  0.7041 -0.5211  1.1800
 2557SOL     OW 8569   5.169   3.252   6.195  0.1367  0.0404 -0.3139
 2557SOL    HW1 8570   5.126   3.163   6.180  0.4847 -0.4044  1.1343
 2557SOL    HW2 8571   5.106   3.312   6.243  0.5552 -0.0770  0.3952
 2558SOL     OW 8572   5.891   2.264   2.075  0.1116 -0.4844  0.0904
 2558SOL    HW1 8573   5.816   2.275   2.140 -0.3429 -2.2137 -0.1024
 2558SOL    HW2 8574   5.944   2.182   2.098 -0.5646 -1.6313 -2.1783
 2559SOL     OW 8575   2.597   3.378   6.103  0.7908  0.1009  0.1520
 2559SOL    HW1 8576   2.663   3.419   6.166  0.3506 -0.1042  0.7586
 2559SOL    HW2 8577   2.641   3.364   6.014  1.1149  1.3486  0.0945
 2560SOL     OW 8578   3.079   5.357   3.508  0.1276 -0.4070 -0.2747
 2560SOL    HW1 8579   3.030   5.442   3.525  1.3472  0.5062 -1.1384
 2560SOL    HW2 8580   3.051   5.319   3.420  2.2507  1.1204 -1.6807
 2561SOL     OW 8581   3.037   6.929   6.047 -0.1465  0.2729  0.1621
 2561SOL    HW1 8582   2.941   6.900   6.052  0.3897 -1.8114 -0.4027
 2561SOL    HW2 8583   3.096   6.848   6.055  1.5035  1.1785 -2.0220
 2562SOL     OW 8584   4.307   2.255   2.130  0.4361  0.0741  0.1222
 2562SOL    HW1 8585   4.345   2.166   2.104  0.4932  0.0092  0.4182
 2562SOL    HW2 8586   4.229   2.241   2.191 -0.4065  0.1920 -0.8986
 2563SOL     OW 8587   1.827   1.326   7.016 -0.3219  0.0305  0.0260
 2563SOL    HW1 8588   1.779   1.242   6.988  1.3466 -0.6942 -0.8346
 2563SOL    HW2 8589   1.782   1.365   7.096 -1.7872 -1.0834 -0.2064
 2564SOL     OW 8590   4.533   5.308   1.738 -0.2704 -0.2947 -0.1170
 2564SOL    HW1 8591   4.502   5.271   1.651  2.9148  0.8501 -1.9168
 2564SOL    HW2 8592   4.540   5.234   1.805  0.7883 -1.9937 -1.9875
 2565SOL     OW 8593   3.056   2.152   1.215  0.2518  0.7120  0.1732
 2565SOL    HW1 8594   3.102   2.237   1.242  1.9565 -0.6647  1.8746
 2565SOL    HW2 8595   2.994   2.123   1.288  2.9509 -1.6874  1.7118
 2566SOL     OW 8596   5.239   5.010   0.341  0.7235 -0.7033  0.2591
 2566SOL    HW1 8597   5.247   5.029   0.243  1.1742 -0.8966  0.2571
 2566SOL    HW2 8598   5.271   5.090   0.393 -1.4964  0.2555  0.2710
 2567SOL     OW 8599   6.301   1.029   2.164  0.1028  0.3373 -0.2730
 2567SOL    HW1 8600   6.398   1.008   2.167  0.0655 -0.2656 -1.9701
 2567SOL    HW2 8601   6.276   1.085   2.242  1.5401 -0.5834  0.8941
 2568SOL     OW 8602   4.237   6.252   3.898  0.1518 -0.2670  0.4297
 2568SOL    HW1 8603   4.295   6.256   3.979  0.2057  0.0561  0.3759
 2568SOL    HW2 8604   4.172   6.176   3.907 -0.1268  0.0291  0.9665
 2569SOL     OW 8605   4.288   0.343   0.332  0.0190 -0.0998 -0.3896
 2569SOL    HW1 8606   4.189   0.350   0.318 -0.3163 -0.0240  1.7041
 2569SOL    HW2 8607   4.312   0.249   0.357  0.7053 -0.4346 -2.1267
 2570SOL     OW 8608   1.171   7.013   2.788 -0.6038  0.5866  0.1654
 2570SOL    HW1 8609   1.255   7.063   2.807 -1.3187  1.3823  1.3537
 2570SOL    HW2 8610   1.093   7.061   2.828 -1.8351  0.5999 -2.0735
 2571SOL     OW 8611   1.199   0.149   4.473 -0.6150 -1.0341  0.1622
 2571SOL    HW1 8612   1.208   0.178   4.569  3.1475  1.8377 -0.8040
 2571SOL    HW2 8613   1.288   0.114   4.441 -1.2042 -0.1306 -2.7426
 2572SOL     OW 8614   0.116   1.802   3.489 -0.3169  0.2714  0.2334
 2572SOL    HW1 8615   0.103   1.840   3.580  2.5051 -0.5161  1.0853
 2572SOL    HW2 8616   0.116   1.876   3.422  2.3706  1.6208  1.5254
 2573SOL     OW 8617   0.747   3.988   0.625 -0.0019  0.0057  0.2271
 2573SOL    HW1 8618   0.764   3.976   0.528  3.3462 -1.2961  0.8398
 2573SOL    HW2 8619   0.690   3.913   0.659 -0.5578  0.0626 -0.5529
 2574SOL     OW 8620   5.607   5.704   4.338  0.3570  0.4051  0.1769
 2574SOL    HW1 8621   5.560   5.702   4.426  1.5470  1.2812  0.8498
 2574SOL    HW2 8622   5.653   5.617   4.323  0.3683  0.3480  0.5361
 2575SOL     OW 8623   3.617   4.601   5.549  0.1667  0.0325  0.2244
 2575SOL    HW1 8624   3.640   4.661   5.472  1.6520 -1.9435 -0.9548
 2575SOL    HW2 8625   3.696   4.593   5.610  0.1658 -1.1056  0.0935
 2576SOL     OW 8626   4.992   3.227   0.237  0.4867  0.1208  0.3193
 2576SOL    HW1 8627   5.022   3.298   0.173 -2.4660  0.9717 -0.2716
 2576SOL    HW2 8628   5.035   3.140   0.214  3.1263  1.3694  0.1966
 2577SOL     OW 8629   1.849   2.251   4.610 -0.3909 -0.5454 -0.4734
 2577SOL    HW1 8630   1.907   2.227   4.532 -0.3805  0.2583 -0.7173
 2577SOL    HW2 8631   1.761   2.285   4.576  0.1854  1.3332 -0.1936
 2578SOL     OW 8632   3.377   1.676   3.532  0.1320  0.4849 -0.1829
 2578SOL    HW1 8633   3.303   1.619   3.569  1.5262 -2.0394 -1.0544
 2578SOL    HW2 8634   3.465   1.638   3.560  1.1805  2.9802  0.1896
 2579SOL     OW 8635   4.505   1.550   3.858 -0.5743 -0.0500  0.0719
 2579SOL    HW1 8636   4.482   1.607   3.936 -3.0554 -0.7296 -0.0784
 2579SOL    HW2 8637   4.445   1.571   3.781  1.3235  0.0907 -1.4639
 2580SOL     OW 8638   0.920   4.624   2.233  0.4469 -0.4176 -0.1407
 2580SOL    HW1 8639   0.970   4.610   2.319  3.1906 -1.3182 -1.7595
 2580SOL    HW2 8640   0.822   4.635   2.253  1.3287  4.0456  3.4882
 2581SOL     OW 8641   4.419   6.475   4.097 -0.0126 -0.1075 -0.7029
 2581SOL    HW1 8642   4.383   6.386   4.125  0.5848 -0.2416 -0.3613
 2581SOL    HW2 8643   4.464   6.519   4.174 -1.0641  0.8890 -0.6250
 2582SOL     OW 8644   3.687   4.382   1.669  0.2580  0.0472  0.0149
 2582SOL    HW1 8645   3.640   4.463   1.705 -0.0197 -0.0067 -0.2232
 2582SOL    HW2 8646   3.658   4.366   1.575  2.0591  1.0478 -0.7662
 2583SOL     OW 8647   0.232   0.961   1.447 -0.2643  0.2415  0.2325
 2583SOL    HW1 8648   0.208   0.947   1.543 -0.1695  0.6599  0.3178
 2583SOL    HW2 8649   0.330   0.946   1.435 -0.7114 -3.0404 -0.3998
 2584SOL     OW 8650   3.930   5.184   2.009 -0.5246 -0.0560  0.6011
 2584SOL    HW1 8651   3.839   5.143   2.002 -0.1123 -0.7173 -1.7457
 2584SOL    HW2 8652   3.998   5.112   2.026 -0.1183 -0.0065 -0.7069
 2585SOL     OW 8653   2.152   0.842   4.710  0.0234  0.4719 -0.5422
 2585SOL    HW1 8654   2.128   0.932   4.746  1.1938  1.1668 -1.4422
 2585SOL    HW2 8655   2.170   0.780   4.787  1.1253  1.5441  0.0968
 2586SOL     OW 8656   1.075   4.449   5.805 -0.4406  0.3302 -0.2525
 2586SOL    HW1 8657   1.090   4.398   5.890  0.2393  0.3317 -0.3661
 2586SOL    HW2 8658   1.054   4.385   5.731 -1.7751  0.3723  0.0501
 2587SOL     OW 8659   0.896   4.154   5.860 -0.1257 -0.6859  0.1378
 2587SOL    HW1 8660   0.934   4.190   5.946  0.0483 -1.5788  0.4416
 2587SOL    HW2 8661   0.796   4.155   5.865 -0.1160 -0.8077  0.3852
 2588SOL     OW 8662   0.576   5.633   1.658  0.4195 -0.1020  0.0849
 2588SOL    HW1 8663   0.616   5.697   1.723 -1.5073  0.2538  0.9995
 2588SOL    HW2 8664   0.502   5.678   1.608  0.9866 -0.7715 -1.4073
 2589SOL     OW 8665   1.481   5.296   0.924  0.2201 -0.0637  0.6599
 2589SOL    HW1 8666   1.568   5.250   0.943 -0.3745 -1.5466 -0.0655
 2589SOL    HW2 8667   1.462   5.361   0.997  2.5939  1.3290  0.1490
 2590SOL     OW 8668   3.418   6.421   2.197 -0.1225  0.2541  0.0821
 2590SOL    HW1 8669   3.483   6.419   2.122 -0.1811  0.3082  0.0293
 2590SOL    HW2 8670   3.438   6.499   2.256 -1.2775  1.3746 -0.9618
 2591SOL     OW 8671   6.898   2.866   5.667 -0.0081 -0.2538  0.3678
 2591SOL    HW1 8672   6.802   2.852   5.689  0.2950 -0.2771  1.7667
 2591SOL    HW2 8673   6.953   2.794   5.710  0.8071  0.8045  1.1673
 2592SOL     OW 8674   4.588   0.471   5.641 -0.1167 -0.4115 -0.4701
 2592SOL    HW1 8675   4.550   0.514   5.724  0.6890  0.3668 -0.4908
 2592SOL    HW2 8676   4.597   0.373   5.655  2.3570 -0.0115  1.3326
 2593SOL     OW 8677   4.290   0.795   5.354  0.3361 -0.0467 -0.4781
 2593SOL    HW1 8678   4.341   0.735   5.415 -0.9713  0.4012  1.1368
 2593SOL    HW2 8679   4.238   0.740   5.288 -0.2762 -0.6769  0.5100
 2594SOL     OW 8680   2.288   4.227   3.906 -0.0997 -0.0199 -0.3361
 2594SOL    HW1 8681   2.348   4.156   3.943  0.7119  0.4361 -0.7416
 2594SOL    HW2 8682   2.244   4.276   3.980  0.1084 -0.2978 -0.0258
 2595SOL     OW 8683   2.882   5.253   6.403 -0.5502 -0.7817  0.4167
 2595SOL    HW1 8684   2.982   5.255   6.416 -0.3083  0.8116 -1.1754
 2595SOL    HW2 8685   2.857   5.172   6.351  0.1529 -0.4154 -0.5338
 2596SOL     OW 8686   2.520   1.785   2.513  0.3535  0.2669  0.0317
 2596SOL    HW1 8687   2.456   1.860   2.532 -0.1826 -0.3512  0.6839
 2596SOL    HW2 8688   2.580   1.812   2.438  0.5704  1.5977  0.6529
 2597SOL     OW 8689   2.970   3.098   1.156 -0.0580 -0.4438 -0.4382
 2597SOL    HW1 8690   2.907   3.128   1.228  1.7290 -1.2333  1.5569
 2597SOL    HW2 8691   2.994   3.176   1.098 -1.0117  0.3803  0.2429
 2598SOL     OW 8692   2.016   6.451   4.126 -0.1254  0.1489  0.2963
 2598SOL    HW1 8693   2.041   6.358   4.153  1.1427  0.5985  0.7613
 2598SOL    HW2 8694   2.081   6.515   4.167 -1.3659  1.2993  0.5205
 2599SOL     OW 8695   5.423   3.577   2.915  0.4014  0.2725  0.1881
 2599SOL    HW1 8696   5.403   3.660   2.967  1.6425  0.7701 -0.0983
 2599SOL    HW2 8697   5.363   3.574   2.834  0.9950  1.3961 -0.3146
 2600SOL     OW 8698   2.197   6.956   0.680 -0.1724  0.0010  0.4777
 2600SOL    HW1 8699   2.291   6.990   0.676 -0.1940 -0.0547 -0.7696
 2600SOL    HW2 8700   2.198   6.858   0.699  0.0110  0.0323  0.6361
 2601SOL     OW 8701   2.215   3.024   2.746  0.4449 -0.1439  0.1247
 2601SOL    HW1 8702   2.212   2.992   2.841 -0.6033 -1.2934 -0.2727
 2601SOL    HW2 8703   2.201   3.123   2.744 -1.9746 -0.4139  1.0309
 2602SOL     OW 8704   5.836   3.830   0.714 -1.0075  0.5063 -0.4386
 2602SOL    HW1 8705   5.931   3.836   0.682 -1.2807  1.9595 -1.0205
 2602SOL    HW2 8706   5.834   3.835   0.814 -0.1296 -4.1893  0.0655
 2603SOL     OW 8707   0.693   0.395   2.018 -0.0647  0.2199  0.4615
 2603SOL    HW1 8708   0.632   0.339   1.962 -1.8345  1.6658  0.8729
 2603SOL    HW2 8709   0.779   0.345   2.032 -0.3499 -1.0462 -1.7615
 2604SOL     OW 8710   1.467   6.762   6.354  0.0293  0.4460 -0.3656
 2604SOL    HW1 8711   1.459   6.836   6.421 -2.5019  0.2198 -0.3054
 2604SOL    HW2 8712   1.468   6.674   6.402  1.8771  0.3458 -0.5019
 2605SOL     OW 8713   4.350   6.994   0.243 -0.0712  0.4449 -0.4882
 2605SOL    HW1 8714   4.352   7.042   0.331  2.5545  0.8906 -0.7016
 2605SOL    HW2 8715   4.344   6.896   0.260 -0.5746  0.5777  0.1465
 2606SOL     OW 8716   0.647   6.100   3.669 -0.4093 -0.2972 -0.5737
 2606SOL    HW1 8717   0.689   6.011   3.683 -2.1560 -1.0920 -0.2454
 2606SOL    HW2 8718   0.655   6.155   3.752  0.8257 -0.0523 -0.8350
 2607SOL     OW 8719   6.451   1.634   5.434 -0.3455  0.0501  0.1505
 2607SOL    HW1 8720   6.368   1.646   5.489 -0.2293 -1.8772  0.7927
 2607SOL    HW2 8721   6.427   1.639   5.337 -0.8380  1.6595  0.3254
 2608SOL     OW 8722   1.287   2.632   4.547  0.0010 -0.7617 -0.2649
 2608SOL    HW1 8723   1.205   2.639   4.603 -0.4020 -1.8443 -0.7017
 2608SOL    HW2 8724   1.280   2.695   4.469 -0.1842 -0.4969 -0.0372
 2609SOL     OW 8725   5.080   1.035   1.372 -0.2928  0.0154  0.3330
 2609SOL    HW1 8726   5.039   0.988   1.294 -1.8739  2.3846 -0.3669
 2609SOL    HW2 8727   5.027   1.014   1.455 -0.5781  0.0208  0.1540
 2610SOL     OW 8728   0.120   3.293   4.213  0.2683 -0.2074 -0.0038
 2610SOL    HW1 8729   0.173   3.271   4.132  1.7343  2.6571  0.0408
 2610SOL    HW2 8730   0.103   3.391   4.216 -1.0034 -0.4162  2.4428
 2611SOL     OW 8731   4.260   1.348   4.519 -0.4438 -0.3048  0.6695
 2611SOL    HW1 8732   4.250   1.282   4.444  2.0036  0.0803 -0.0653
 2611SOL    HW2 8733   4.334   1.318   4.579  0.7296  1.7219  0.3172
 2612SOL     OW 8734   1.119   4.289   4.072  0.4872  0.3253 -0.1784
 2612SOL    HW1 8735   1.157   4.321   4.159  3.0513  0.7149 -1.3426
 2612SOL    HW2 8736   1.117   4.189   4.070  1.0916  0.3062  0.0797
 2613SOL     OW 8737   6.722   2.944   6.487  0.3820  0.3813 -0.2985
 2613SOL    HW1 8738   6.741   2.849   6.512  0.8075  0.9046  1.4518
 2613SOL    HW2 8739   6.787   3.005   6.532 -1.0416  1.6572  0.1175
 2614SOL     OW 8740   3.436   4.998   6.150 -0.7015 -0.2107 -0.1403
 2614SOL    HW1 8741   3.347   4.994   6.106 -2.3188 -1.2640  2.9831
 2614SOL    HW2 8742   3.471   4.906   6.164  1.6908  0.1781 -2.5659
 2615SOL     OW 8743   4.243   6.966   6.179 -0.5411  0.2340 -0.7287
 2615SOL    HW1 8744   4.179   6.938   6.250  1.0183 -1.0798  0.2326
 2615SOL    HW2 8745   4.259   6.889   6.116  1.4006 -0.1101  0.0964
 2616SOL     OW 8746   0.273   6.979   6.251  0.5655 -0.1875  0.2661
 2616SOL    HW1 8747   0.351   6.956   6.193  2.5507 -0.0818  2.7261
 2616SOL    HW2 8748   0.273   6.921   6.332 -0.1059  1.8184  1.7912
 2617SOL     OW 8749   4.597   4.427   6.700  0.1630 -0.3914  0.6401
 2617SOL    HW1 8750   4.593   4.344   6.644  2.3806  0.8913 -1.6154
 2617SOL    HW2 8751   4.565   4.504   6.646  1.1251  0.7109  1.6020
 2618SOL     OW 8752   0.751   4.815   1.822  0.0615 -0.0984 -0.1905
 2618SOL    HW1 8753   0.734   4.769   1.909  1.7283  2.5001  1.6771
 2618SOL    HW2 8754   0.846   4.800   1.794  0.3834  1.3684  0.0099
 2619SOL     OW 8755   5.087   3.585   6.390 -0.6952 -0.3478 -0.6677
 2619SOL    HW1 8756   5.036   3.664   6.423 -0.3558  0.1585 -1.3497
 2619SOL    HW2 8757   5.185   3.600   6.402 -0.6346 -0.7108 -0.6992
 2620SOL     OW 8758   3.987   0.954   5.927 -0.0957 -0.0006  0.4734
 2620SOL    HW1 8759   3.944   1.004   6.002  0.3400 -0.1341  0.8100
 2620SOL    HW2 8760   3.917   0.901   5.879 -0.9645  2.3815 -1.1122
 2621SOL     OW 8761   3.014   2.141   2.294  0.3989 -0.2671 -0.3027
 2621SOL    HW1 8762   3.000   2.202   2.216  0.8688  0.4328  0.1502
 2621SOL    HW2 8763   3.067   2.188   2.364  1.3439 -1.4100 -0.2148
 2622SOL     OW 8764   1.327   2.258   2.405 -0.1243 -0.1767  0.1478
 2622SOL    HW1 8765   1.364   2.346   2.373  0.0395 -0.6387 -1.0065
 2622SOL    HW2 8766   1.400   2.190   2.407 -0.5725 -0.7073 -0.6540
 2623SOL     OW 8767   4.114   2.004   0.145  0.0161  0.3314  0.1120
 2623SOL    HW1 8768   4.148   1.957   0.226  0.6091 -1.1383 -0.9545
 2623SOL    HW2 8769   4.014   2.009   0.149  0.0994  1.6854  1.6485
 2624SOL     OW 8770   6.260   3.300   1.558  0.0432  0.3723 -0.5658
 2624SOL    HW1 8771   6.335   3.256   1.606 -1.1342 -0.6465  0.4203
 2624SOL    HW2 8772   6.215   3.366   1.619  0.8221  1.8237 -1.5212
 2625SOL     OW 8773   2.667   1.093   5.174 -0.2357 -0.0265  0.3749
 2625SOL    HW1 8774   2.720   1.166   5.131  1.1553 -0.4970  1.2192
 2625SOL    HW2 8775   2.678   1.098   5.273  0.0130 -1.4511  0.4430
 2626SOL     OW 8776   4.871   2.087   0.105  0.6250  0.0724 -0.2897
 2626SOL    HW1 8777   4.883   2.017   0.175  0.8332  0.4656  0.0764
 2626SOL    HW2 8778   4.822   2.165   0.144  2.2922  1.0455 -0.0646
 2627SOL     OW 8779   1.065   5.124   1.492  0.0902  0.4801 -0.5309
 2627SOL    HW1 8780   1.121   5.058   1.442  1.0784 -0.9861  2.2414
 2627SOL    HW2 8781   0.969   5.097   1.486  0.4558 -1.2045  0.3901
 2628SOL     OW 8782   3.195   6.777   3.355 -0.5969 -0.7314  0.1503
 2628SOL    HW1 8783   3.274   6.792   3.296  0.0891 -0.3043  1.1702
 2628SOL    HW2 8784   3.208   6.693   3.407 -0.1262  0.0821  1.3907
 2629SOL     OW 8785   4.227   0.338   2.953 -0.0176 -0.3610 -0.0014
 2629SOL    HW1 8786   4.212   0.404   3.027  2.4578  1.2753 -0.8614
 2629SOL    HW2 8787   4.165   0.359   2.877  0.3096  0.6083 -0.0143
 2630SOL     OW 8788   4.695   4.376   1.821  0.6885  0.3171  0.0819
 2630SOL    HW1 8789   4.713   4.281   1.795  0.9379  0.3785  0.0312
 2630SOL    HW2 8790   4.637   4.378   1.902 -2.0809  0.0819 -1.7491
 2631SOL     OW 8791   2.246   1.196   0.801 -0.5166  0.3684  0.1497
 2631SOL    HW1 8792   2.283   1.269   0.857  0.3572  0.0683 -0.0169
 2631SOL    HW2 8793   2.161   1.226   0.758 -0.4310  1.0997  0.4875
 2632SOL     OW 8794   5.604   2.081   2.289 -0.3945  0.2791  0.1370
 2632SOL    HW1 8795   5.627   2.157   2.228 -0.1370  0.0932  0.0008
 2632SOL    HW2 8796   5.531   2.109   2.351  1.1533  1.3546  1.5412
 2633SOL     OW 8797   1.775   1.805   2.704 -0.3332 -0.5153 -0.3397
 2633SOL    HW1 8798   1.814   1.896   2.697  0.0092 -0.7695 -2.1636
 2633SOL    HW2 8799   1.774   1.776   2.800  3.0519 -0.1046 -0.0635
 2634SOL     OW 8800   2.040   6.294   3.865 -0.1073 -0.3449  0.4771
 2634SOL    HW1 8801   1.990   6.350   3.932  0.4565 -0.9211  1.3988
 2634SOL    HW2 8802   2.118   6.346   3.830 -0.8102  0.2218 -0.2847
 2635SOL     OW 8803   6.200   4.386   4.916  1.0022 -0.6492 -0.0577
 2635SOL    HW1 8804   6.138   4.421   4.985 -1.6288 -1.7066 -1.7103
 2635SOL    HW2 8805   6.241   4.462   4.865  0.6329  0.0707  0.7136
 2636SOL     OW 8806   0.465   4.653   0.736  0.1466  0.1893  0.6477
 2636SOL    HW1 8807   0.446   4.731   0.678  1.4625  0.0927  0.0742
 2636SOL    HW2 8808   0.397   4.650   0.810  0.5006  2.2791  1.1136
 2637SOL     OW 8809   0.701   3.915   4.996 -0.0778  0.1155  0.0917
 2637SOL    HW1 8810   0.614   3.870   4.978 -0.8311 -0.9284  4.8107
 2637SOL    HW2 8811   0.776   3.853   4.974 -0.8423 -1.0755  0.7303
 2638SOL     OW 8812   3.743   6.750   1.977  0.5103 -0.1214  0.2983
 2638SOL    HW1 8813   3.668   6.788   2.032 -1.0453  0.5706 -2.1475
 2638SOL    HW2 8814   3.801   6.692   2.035 -1.0303  0.5077  2.6052
 2639SOL     OW 8815   0.887   3.061   5.175 -0.0766  0.0544  0.3926
 2639SOL    HW1 8816   0.899   3.154   5.209  0.7135  0.4348 -0.8693
 2639SOL    HW2 8817   0.975   3.024   5.147 -0.7292 -0.0781 -1.6206
 2640SOL     OW 8818   1.849   2.534   7.004  0.1529 -0.1617 -0.2134
 2640SOL    HW1 8819   1.824   2.512   6.910 -3.3375  1.1501  0.2627
 2640SOL    HW2 8820   1.819   2.627   7.025 -0.6555 -0.9849  2.6520
 2641SOL     OW 8821   3.817   5.594   4.424 -0.0749 -0.3172 -0.3127
 2641SOL    HW1 8822   3.831   5.525   4.496  3.2475  1.1540  0.6452
 2641SOL    HW2 8823   3.859   5.562   4.339 -0.0064 -0.1752 -0.3320
 2642SOL     OW 8824   0.862   6.403   5.063  0.2123 -0.3757 -0.4926
 2642SOL    HW1 8825   0.823   6.459   5.136  0.9165 -0.6857  0.1306
 2642SOL    HW2 8826   0.847   6.306   5.084  1.9338 -0.5377  0.1463
 2643SOL     OW 8827   2.331   6.209   5.912 -0.5007  0.1029 -0.3674
 2643SOL    HW1 8828   2.246   6.156   5.923  0.2508 -0.7375  2.4316
 2643SOL    HW2 8829   2.309   6.306   5.907 -1.6676 -0.1344 -0.2462
 2644SOL     OW 8830   6.776   6.853   4.476  0.3297  0.2440 -0.2165
 2644SOL    HW1 8831   6.771   6.856   4.376 -0.2677  2.1408 -0.1730
 2644SOL    HW2 8832   6.841   6.921   4.508  0.2148 -0.0692  0.7014
 2645SOL     OW 8833   1.187   3.915   2.618 -0.0809 -0.6070  0.1242
 2645SOL    HW1 8834   1.242   3.886   2.539 -0.1461 -0.8651  0.1727
 2645SOL    HW2 8835   1.242   3.976   2.676  0.9081 -2.4617  1.2580
 2646SOL     OW 8836   0.459   3.062   3.155 -0.3615 -0.2116  0.5910
 2646SOL    HW1 8837   0.418   3.090   3.243 -1.5307 -0.1593  0.0525
 2646SOL    HW2 8838   0.395   3.083   3.081  1.1797  1.0317 -0.4429
 2647SOL     OW 8839   5.438   3.086   1.793  0.8893  0.6497 -1.1416
 2647SOL    HW1 8840   5.358   3.115   1.846  0.3539  1.7642 -2.5170
 2647SOL    HW2 8841   5.515   3.072   1.856 -0.4039 -0.6720  0.2427
 2648SOL     OW 8842   4.689   5.843   7.018 -0.0503 -0.4121  0.0021
 2648SOL    HW1 8843   4.662   5.777   7.089  0.7421  0.0072  0.7051
 2648SOL    HW2 8844   4.623   5.839   6.943  0.2723 -2.4033 -0.2459
 2649SOL     OW 8845   1.173   6.787   2.277 -0.1265  0.4252 -0.1755
 2649SOL    HW1 8846   1.240   6.715   2.260  1.5854  2.2722 -1.8300
 2649SOL    HW2 8847   1.203   6.843   2.355  0.7572  1.7655 -1.4458
 2650SOL     OW 8848   5.335   4.985   1.273 -0.6248  0.2555 -0.6502
 2650SOL    HW1 8849   5.282   5.067   1.294 -0.8374 -0.1818  0.5778
 2650SOL    HW2 8850   5.417   4.982   1.329  0.4116  0.5962 -2.0769
 2651SOL     OW 8851   3.348   4.941   5.211 -0.1084  0.4449  0.0455
 2651SOL    HW1 8852   3.276   4.950   5.142  0.0997  2.2020  0.0125
 2651SOL    HW2 8853   3.437   4.955   5.169  0.1265  0.0680  0.4094
 2652SOL     OW 8854   3.446   3.477   2.864 -0.8992 -0.1067  0.0142
 2652SOL    HW1 8855   3.403   3.391   2.889 -1.2496 -0.5079 -1.8483
 2652SOL    HW2 8856   3.521   3.460   2.800 -0.5645  0.9259  0.1096
 2653SOL     OW 8857   2.386   0.424   0.171 -0.2140  0.1177 -0.4603
 2653SOL    HW1 8858   2.434   0.397   0.088  1.4417 -0.1690  0.5315
 2653SOL    HW2 8859   2.392   0.523   0.183 -2.3948  0.4764 -1.7789
 2654SOL     OW 8860   1.944   1.508   6.051 -0.1449 -0.4749 -0.1119
 2654SOL    HW1 8861   1.984   1.502   5.959  0.5467  0.0218  0.1495
 2654SOL    HW2 8862   1.915   1.602   6.069  3.4156  0.4373  1.6547
 2655SOL     OW 8863   3.252   3.112   1.747  0.2870 -0.6684  0.1168
 2655SOL    HW1 8864   3.340   3.079   1.712 -0.1445 -1.0400 -0.6518
 2655SOL    HW2 8865   3.194   3.034   1.771 -0.9152 -0.5859 -2.1437
 2656SOL     OW 8866   5.642   1.469   3.235 -0.9693  0.1390  0.0686
 2656SOL    HW1 8867   5.726   1.458   3.288 -0.6693 -1.8536 -0.7543
 2656SOL    HW2 8868   5.578   1.395   3.257 -1.5841  0.3341 -0.9868
 2657SOL     OW 8869   6.498   2.964   4.525 -0.3822  0.5528 -0.1838
 2657SOL    HW1 8870   6.538   2.917   4.604  1.1069 -0.0408 -1.2451
 2657SOL    HW2 8871   6.456   2.897   4.464  0.0896  0.7995 -0.7877
 2658SOL     OW 8872   3.488   5.183   6.833 -0.0758 -0.5365  0.1586
 2658SOL    HW1 8873   3.409   5.189   6.773  0.4153  0.6553 -0.4117
 2658SOL    HW2 8874   3.570   5.163   6.779  0.5681  1.6977  0.2199
 2659SOL     OW 8875   1.538   0.919   2.918  0.3006 -0.0524  0.4692
 2659SOL    HW1 8876   1.570   0.963   2.834  1.3267 -0.5788  0.5616
 2659SOL    HW2 8877   1.551   0.981   2.995  1.5744 -0.4180  0.5715
 2660SOL     OW 8878   3.386   0.086   0.556  0.0425  0.0810 -0.1217
 2660SOL    HW1 8879   3.289   0.089   0.582  0.0302  1.6365 -0.3018
 2660SOL    HW2 8880   3.406   0.160   0.492  0.9992 -1.2119 -1.3771
 2661SOL     OW 8881   4.432   2.600   5.249  0.1647 -0.2281  0.1540
 2661SOL    HW1 8882   4.457   2.640   5.161  0.1464  1.3469  0.8352
 2661SOL    HW2 8883   4.333   2.588   5.253  0.1425 -0.0857  0.0494
 2662SOL     OW 8884   1.919   6.666   6.374 -0.6160 -0.1346  0.5187
 2662SOL    HW1 8885   1.926   6.765   6.391 -1.5993  0.3053 -1.3523
 2662SOL    HW2 8886   1.863   6.624   6.445 -0.9587  0.8106  0.8207
 2663SOL     OW 8887   0.004   5.236   2.554  0.2246  0.4429  0.6618
 2663SOL    HW1 8888   0.048   5.326   2.548  3.1091 -0.9175  0.0239
 2663SOL    HW2 8889  -0.081   5.237   2.501  0.9931  2.3420 -0.6262
 2664SOL     OW 8890   5.707   4.868   4.995 -0.1705  0.4640  0.0067
 2664SOL    HW1 8891   5.701   4.914   5.084 -3.7454  1.2480 -0.4862
 2664SOL    HW2 8892   5.634   4.903   4.935  0.7530 -1.6245 -2.4889
 2665SOL     OW 8893   1.753   2.371   1.177  0.2953 -0.2087  0.1865
 2665SOL    HW1 8894   1.791   2.394   1.266  1.2721  0.6437 -0.4308
 2665SOL    HW2 8895   1.724   2.455   1.131 -1.5124 -0.7516  0.2525
 2666SOL     OW 8896   2.107   3.366   2.542 -0.3848  0.1608 -0.5398
 2666SOL    HW1 8897   2.106   3.426   2.461 -1.0627  0.2171 -0.4973
 2666SOL    HW2 8898   2.102   3.271   2.512  0.5548  0.1157 -0.6019
 2667SOL     OW 8899   2.314   1.089   1.862  0.0244  0.2634 -0.4139
 2667SOL    HW1 8900   2.355   1.168   1.907 -0.0308  1.5697 -2.5096
 2667SOL    HW2 8901   2.363   1.006   1.888  1.7043  1.3146 -0.0752
 2668SOL     OW 8902   1.186   2.220   5.089  0.2496  0.2780 -0.2798
 2668SOL    HW1 8903   1.126   2.239   5.166 -1.8024 -1.3763 -1.3701
 2668SOL    HW2 8904   1.211   2.123   5.090  1.6442  0.6110 -0.7494
 2669SOL     OW 8905   2.639   0.002   5.133  0.0658  0.8122  0.5242
 2669SOL    HW1 8906   2.709  -0.065   5.109 -0.4812 -0.3966  2.0890
 2669SOL    HW2 8907   2.671   0.058   5.210 -1.0230 -0.4833  1.9961
 2670SOL     OW 8908   2.007   5.404   5.395  0.2035 -0.0251 -0.2986
 2670SOL    HW1 8909   1.948   5.337   5.349 -4.8051  1.8351  2.6200
 2670SOL    HW2 8910   2.052   5.360   5.473 -0.7736 -0.6686 -0.0746
 2671SOL     OW 8911   2.810   2.184   1.379 -0.1212  0.0066 -0.2050
 2671SOL    HW1 8912   2.767   2.255   1.436 -0.7407  1.2951 -2.1920
 2671SOL    HW2 8913   2.753   2.101   1.383  0.3403 -0.2837  1.7336
 2672SOL     OW 8914   4.239   5.886   5.719 -0.4227  0.3853 -0.0458
 2672SOL    HW1 8915   4.251   5.974   5.763  1.4028 -0.1015  0.5010
 2672SOL    HW2 8916   4.327   5.850   5.691 -1.0784 -1.4365  0.0728
 2673SOL     OW 8917   0.429   6.192   3.518  0.0205  0.2169 -0.9189
 2673SOL    HW1 8918   0.342   6.209   3.565  0.0712  0.5316 -0.9390
 2673SOL    HW2 8919   0.498   6.165   3.585 -0.1296 -0.1854 -0.9214
 2674SOL     OW 8920   6.911   3.825   2.936 -0.6987 -0.6833 -0.6229
 2674SOL    HW1 8921   6.951   3.848   3.025  1.0777  0.1575 -1.5829
 2674SOL    HW2 8922   6.845   3.751   2.947 -1.7813  0.5325  1.6271
 2675SOL     OW 8923   5.344   4.230   0.389  0.5327  0.1131 -0.5469
 2675SOL    HW1 8924   5.356   4.187   0.300 -0.7452 -2.6957  0.5433
 2675SOL    HW2 8925   5.297   4.168   0.451  1.1630  2.0538  2.0709
 2676SOL     OW 8926   4.760   0.436   0.380  0.2393 -0.7427  0.0970
 2676SOL    HW1 8927   4.767   0.519   0.324 -2.0294 -0.6941 -0.2156
 2676SOL    HW2 8928   4.846   0.386   0.377  1.5252  1.3464 -0.0928
 2677SOL     OW 8929   5.629   5.029   0.597 -0.1306  0.3901  0.0967
 2677SOL    HW1 8930   5.540   4.983   0.588 -1.5996  2.5451  2.2164
 2677SOL    HW2 8931   5.688   4.975   0.656 -0.1576 -0.8373 -0.9524
 2678SOL     OW 8932   2.470   5.704   1.242  0.2154  0.0699 -0.5767
 2678SOL    HW1 8933   2.382   5.686   1.287  1.3430 -0.8667  1.3821
 2678SOL    HW2 8934   2.486   5.803   1.239 -1.1126  0.2801 -1.4250
 2679SOL     OW 8935   5.072   3.600   5.096  0.0965 -0.0011  0.4684
 2679SOL    HW1 8936   5.077   3.676   5.161 -1.0980 -0.7051  1.4217
 2679SOL    HW2 8937   4.991   3.609   5.039  0.0396 -0.4771  0.4705
 2680SOL     OW 8938   1.391   1.317   5.575  0.6606  0.1031 -0.3808
 2680SOL    HW1 8939   1.292   1.321   5.562  0.3993  1.2369  1.4638
 2680SOL    HW2 8940   1.432   1.256   5.507 -1.3855 -0.9995 -0.7020
 2681SOL     OW 8941   3.585   5.049   4.690  0.2886 -0.3616  0.1201
 2681SOL    HW1 8942   3.525   5.008   4.759  1.0272 -0.0021  0.9979
 2681SOL    HW2 8943   3.627   5.131   4.728  1.7361 -0.8862 -0.2924
 2682SOL     OW 8944   0.910   1.570   1.464 -1.0309  0.3188 -0.9946
 2682SOL    HW1 8945   0.984   1.608   1.518 -0.8942 -1.7103  0.3637
 2682SOL    HW2 8946   0.939   1.483   1.424 -1.4575  1.2911 -3.6383
 2683SOL     OW 8947   4.322   5.075   0.700  0.4872  0.7123 -0.3029
 2683SOL    HW1 8948   4.381   5.014   0.647  1.1050 -0.0985  1.2710
 2683SOL    HW2 8949   4.375   5.152   0.734  0.5330  0.2597  0.6732
 2684SOL     OW 8950   4.462   6.886   2.622 -0.2509  0.1586 -0.3912
 2684SOL    HW1 8951   4.438   6.983   2.622 -0.7904  0.0374  0.7143
 2684SOL    HW2 8952   4.537   6.870   2.558 -1.0949  1.0591 -1.6535
 2685SOL     OW 8953   4.479   6.865   3.682 -0.1832  0.0306  0.0510
 2685SOL    HW1 8954   4.474   6.790   3.747  1.0930 -1.0836 -1.0665
 2685SOL    HW2 8955   4.575   6.892   3.670 -0.5770  1.4997  0.0414
 2686SOL     OW 8956   6.946   2.381   4.163 -0.2854  0.1669 -0.6656
 2686SOL    HW1 8957   6.930   2.283   4.155  0.4991  0.1024 -1.7018
 2686SOL    HW2 8958   7.004   2.411   4.087 -1.2531  1.6012 -0.8697
 2687SOL     OW 8959   2.306   2.545   3.547 -0.0735 -0.0261 -0.1222
 2687SOL    HW1 8960   2.390   2.591   3.579 -0.7760  0.3337  1.2966
 2687SOL    HW2 8961   2.229   2.609   3.553 -0.6808 -0.7374 -0.1787
 2688SOL     OW 8962   5.207   5.341   2.825 -0.1889 -0.0595 -0.2632
 2688SOL    HW1 8963   5.168   5.415   2.880 -0.2741 -0.9480  0.9055
 2688SOL    HW2 8964   5.255   5.277   2.884 -0.8154 -1.3794 -1.1374
 2689SOL     OW 8965   2.124   6.962   1.458  0.2123 -0.2219  1.1718
 2689SOL    HW1 8966   2.192   7.002   1.397 -0.4179 -0.3587  0.3718
 2689SOL    HW2 8967   2.042   7.019   1.458  0.5423  0.3062  2.6420
 2690SOL     OW 8968   0.444   2.889   1.817  0.2149 -0.0636 -0.2311
 2690SOL    HW1 8969   0.504   2.828   1.764 -0.7328 -1.3671  0.1320
 2690SOL    HW2 8970   0.442   2.859   1.912 -0.4467  0.4091 -0.0924
 2691SOL     OW 8971   1.104   5.543   1.071 -0.1810 -0.0197  0.3677
 2691SOL    HW1 8972   1.128   5.508   0.981  1.5482 -1.2603  1.2430
 2691SOL    HW2 8973   1.017   5.592   1.067 -0.7429 -1.1228 -1.6934
 2692SOL     OW 8974   6.772   3.520   2.672  0.0027  0.3346  0.0815
 2692SOL    HW1 8975   6.772   3.519   2.572 -2.6050  0.9735 -0.0059
 2692SOL    HW2 8976   6.779   3.427   2.707  0.8136  0.0976 -0.6768
 2693SOL     OW 8977   5.795   6.990   6.472 -0.0971  0.3681  0.6574
 2693SOL    HW1 8978   5.806   6.936   6.389  0.4042  1.2287  0.1554
 2693SOL    HW2 8979   5.856   6.955   6.543 -0.5272 -0.3674  0.6829
 2694SOL     OW 8980   0.683   4.746   0.918  0.5699  1.0359  0.0839
 2694SOL    HW1 8981   0.692   4.835   0.872 -0.4855  0.8583 -0.4894
 2694SOL    HW2 8982   0.617   4.690   0.869 -1.5792  1.2926  2.4880
 2695SOL     OW 8983   6.432   2.763   4.736 -0.6787  0.3547 -0.9213
 2695SOL    HW1 8984   6.356   2.717   4.690  0.7205 -0.7266 -2.2588
 2695SOL    HW2 8985   6.397   2.837   4.793 -2.7335 -0.2530 -1.3313
 2696SOL     OW 8986   2.109   0.343   1.245 -0.2557 -0.7798  0.0977
 2696SOL    HW1 8987   2.115   0.432   1.290  0.2188 -0.8111  0.1031
 2696SOL    HW2 8988   2.015   0.308   1.252 -1.0360  0.7534 -1.8916
 2697SOL     OW 8989   4.754   3.269   0.675  0.0919 -0.1187 -0.2197
 2697SOL    HW1 8990   4.686   3.341   0.683  1.0572  0.8926 -0.8249
 2697SOL    HW2 8991   4.740   3.218   0.590 -0.0481 -0.0595 -0.2315
 2698SOL     OW 8992   0.349   1.175   4.506  0.3513 -0.0131  0.4899
 2698SOL    HW1 8993   0.280   1.160   4.576 -0.7425 -0.1649 -0.5773
 2698SOL    HW2 8994   0.412   1.098   4.505 -1.2798 -1.4152 -0.5078
 2699SOL     OW 8995   2.064   2.387   6.427 -0.0986  0.2562 -0.4395
 2699SOL    HW1 8996   2.001   2.405   6.503  0.9658  2.1697  0.0559
 2699SOL    HW2 8997   2.154   2.364   6.464  0.1448  0.0797 -1.1357
 2700SOL     OW 8998   5.764   4.613   0.804 -0.3740 -0.2645  0.2789
 2700SOL    HW1 8999   5.809   4.697   0.775 -0.3814 -0.0644  0.8295
 2700SOL    HW2 9000   5.710   4.632   0.886 -0.7256 -0.7082  0.1515
 2701SOL     OW 9001   5.254   2.494   0.714 -0.5728 -0.1221 -0.3209
 2701SOL    HW1 9002   5.212   2.574   0.756  0.8724  1.1215 -1.1912
 2701SOL    HW2 9003   5.228   2.488   0.618 -0.2024 -0.3818 -0.4070
 2702SOL     OW 9004   1.038   3.532   0.779 -0.0711 -0.0463 -0.1277
 2702SOL    HW1 9005   0.956   3.503   0.829  0.1242  0.7498  0.6667
 2702SOL    HW2 9006   1.024   3.624   0.744 -0.1196 -0.5070 -1.3831
 2703SOL     OW 9007   2.204   2.394   2.120  0.5406  0.4682 -0.3752
 2703SOL    HW1 9008   2.147   2.449   2.059 -1.5145 -1.0837  0.0342
 2703SOL    HW2 9009   2.275   2.348   2.067  0.4395  1.1886 -1.1582
 2704SOL     OW 9010   3.312   0.768   1.054  0.0375 -0.2297 -0.0845
 2704SOL    HW1 9011   3.254   0.729   1.125  0.0163 -1.6682 -0.8591
 2704SOL    HW2 9012   3.407   0.740   1.069  0.2311  0.4805  0.0572
 2705SOL     OW 9013   3.556   5.173   0.704  0.3281  0.0674  0.1110
 2705SOL    HW1 9014   3.490   5.155   0.631 -1.0572  1.8341  0.8320
 2705SOL    HW2 9015   3.627   5.104   0.703 -1.6196 -2.0384 -0.6118
 2706SOL     OW 9016   3.394   6.251   5.838 -0.2315 -0.8749  0.1371
 2706SOL    HW1 9017   3.462   6.178   5.838 -0.0227 -0.6946  0.9126
 2706SOL    HW2 9018   3.432   6.333   5.797 -0.0150 -0.8120  0.4568
 2707SOL     OW 9019   4.533   1.124   6.662 -0.5038 -0.6862  0.5463
 2707SOL    HW1 9020   4.477   1.189   6.610  0.4144 -1.5881 -1.6846
 2707SOL    HW2 9021   4.509   1.031   6.635  0.9224 -1.1410  0.7600
 2708SOL     OW 9022   2.723   0.800   6.604  0.2182 -0.0570 -1.1515
 2708SOL    HW1 9023   2.802   0.860   6.591 -0.5830  0.9930 -1.3467
 2708SOL    HW2 9024   2.643   0.856   6.626  0.4004 -1.2742  3.7815
 2709SOL     OW 9025   2.225   6.127   5.391  0.5412 -0.0004  0.4027
 2709SOL    HW1 9026   2.312   6.123   5.441  0.4161  1.3031  0.7760
 2709SOL    HW2 9027   2.152   6.092   5.449  0.5512  0.5953  0.7914
 2710SOL     OW 9028   3.558   6.105   1.316 -0.1336 -0.4054  0.3335
 2710SOL    HW1 9029   3.529   6.074   1.407 -0.1207 -2.0604 -0.1889
 2710SOL    HW2 9030   3.493   6.072   1.248  0.6409 -0.4429 -0.4024
 2711SOL     OW 9031   6.380   3.506   2.642 -0.2706  0.1644  0.5815
 2711SOL    HW1 9032   6.298   3.564   2.642 -0.9489 -0.7717  0.8392
 2711SOL    HW2 9033   6.354   3.411   2.624  0.7635 -0.1537  0.6921
 2712SOL     OW 9034   6.596   3.145   4.010  0.0063  0.1419  0.2480
 2712SOL    HW1 9035   6.601   3.072   3.943 -0.4608 -0.1940  0.5704
 2712SOL    HW2 9036   6.500   3.167   4.028  0.1302  0.3754  0.6456
 2713SOL     OW 9037   6.880   5.820   3.018 -0.6493 -0.8628  0.0843
 2713SOL    HW1 9038   6.960   5.781   2.972  0.0776 -0.5498  1.0477
 2713SOL    HW2 9039   6.851   5.757   3.091 -1.5627 -1.1840 -0.5462
 2714SOL     OW 9040   5.972   6.904   3.346  0.0928  0.9294 -0.2084
 2714SOL    HW1 9041   5.928   6.969   3.285 -3.2616 -0.3834  0.6305
 2714SOL    HW2 9042   6.016   6.833   3.293 -0.3212  1.3235 -1.0927
 2715SOL     OW 9043   2.553   6.277   2.359 -0.4608  0.1447 -0.2794
 2715SOL    HW1 9044   2.508   6.367   2.366  0.0552  0.4055 -0.2599
 2715SOL    HW2 9045   2.648   6.290   2.329 -0.2422 -0.3576  0.1925
 2716SOL     OW 9046   5.221   2.556   6.092 -0.0761  0.1980 -0.1212
 2716SOL    HW1 9047   5.219   2.655   6.103 -1.9664  0.1602  0.1884
 2716SOL    HW2 9048   5.193   2.532   5.998  0.4254 -0.0508 -0.2125
 2717SOL     OW 9049   5.524   5.403   4.011  0.0029  0.2852  0.2956
 2717SOL    HW1 9050   5.562   5.366   3.926  0.5012  0.0502  0.6198
 2717SOL    HW2 9051   5.444   5.349   4.037  0.0945  0.0986  0.1938
 2718SOL     OW 9052   6.431   3.367   4.993  0.7412 -0.5997 -0.4640
 2718SOL    HW1 9053   6.488   3.298   5.037  1.5898 -0.7844 -1.7954
 2718SOL    HW2 9054   6.484   3.415   4.923  0.5866  2.3138  1.2332
 2719SOL     OW 9055   4.675   1.299   5.484  0.4568 -0.1256  0.5439
 2719SOL    HW1 9056   4.717   1.216   5.521 -0.1923 -1.6798 -1.9044
 2719SOL    HW2 9057   4.581   1.307   5.518  0.3023 -0.8004  0.3046
 2720SOL     OW 9058   2.678   1.076   4.013  0.1883 -0.3212  0.4592
 2720SOL    HW1 9059   2.586   1.053   3.981  0.4701  0.6448 -1.1898
 2720SOL    HW2 9060   2.707   1.011   4.083 -1.0533 -1.7268 -0.2848
 2721SOL     OW 9061   1.918   0.602   6.498  0.6500  0.0153 -0.0227
 2721SOL    HW1 9062   1.828   0.561   6.517  1.3071 -1.8787 -0.7258
 2721SOL    HW2 9063   1.914   0.700   6.516 -1.4565 -0.0729  0.3064
 2722SOL     OW 9064   3.928   1.603   5.027 -0.1043  0.2021 -0.1227
 2722SOL    HW1 9065   3.874   1.657   5.092 -2.4105 -2.9571  0.8728
 2722SOL    HW2 9066   3.905   1.630   4.934 -1.9740  0.2842  0.3230
 2723SOL     OW 9067   1.676   2.031   6.420 -0.2674 -0.5083 -0.3881
 2723SOL    HW1 9068   1.600   1.970   6.442  2.3536 -3.8710  0.1961
 2723SOL    HW2 9069   1.713   2.006   6.331 -1.2597  2.7807 -1.8623
 2724SOL     OW 9070   3.028   5.460   0.063 -0.3423 -0.0433  0.0777
 2724SOL    HW1 9071   3.128   5.465   0.057 -0.4752  1.1159 -2.2276
 2724SOL    HW2 9072   3.000   5.469   0.159  1.7228  0.0080  0.7309
 2725SOL     OW 9073   6.135   4.711   2.643  0.1755 -0.0296  0.4071
 2725SOL    HW1 9074   6.138   4.737   2.546  1.0907 -0.4963  0.3083
 2725SOL    HW2 9075   6.054   4.654   2.659  0.3772 -0.5056 -0.2202
 2726SOL     OW 9076   2.003   6.790   2.360 -0.3774  0.3611 -0.4856
 2726SOL    HW1 9077   1.927   6.839   2.403 -0.7152  0.4029 -1.1160
 2726SOL    HW2 9078   2.022   6.706   2.411 -0.7383  0.4367 -0.2227
 2727SOL     OW 9079   1.751   4.685   6.034 -0.0977  0.5412  0.2345
 2727SOL    HW1 9080   1.847   4.682   6.062  0.0638 -1.0251 -0.3445
 2727SOL    HW2 9081   1.729   4.601   5.984 -1.1348  1.9039 -1.7301
 2728SOL     OW 9082   4.574   0.096   5.932 -0.1337 -0.0507 -0.0501
 2728SOL    HW1 9083   4.643   0.027   5.952 -1.0286 -0.4807  1.7201
 2728SOL    HW2 9084   4.553   0.095   5.834  0.5978 -1.5769 -0.2140
 2729SOL     OW 9085   0.930   2.521   3.931 -0.0596 -0.4071 -0.1981
 2729SOL    HW1 9086   0.929   2.421   3.934 -1.6896 -0.3975  0.2320
 2729SOL    HW2 9087   0.851   2.554   3.880  0.4957  0.6794 -0.3858
 2730SOL     OW 9088   3.793   1.421   0.781 -0.5406 -0.5687 -0.2736
 2730SOL    HW1 9089   3.870   1.484   0.770 -0.3417 -0.8612 -0.5830
 2730SOL    HW2 9090   3.788   1.391   0.877 -0.7902  0.1054 -0.0708
 2731SOL     OW 9091   3.133   5.214   1.143  0.0785 -0.5489  0.2105
 2731SOL    HW1 9092   3.081   5.199   1.058 -0.8868  4.1071 -0.3131
 2731SOL    HW2 9093   3.184   5.299   1.135 -0.2437  0.2180  4.3918
 2732SOL     OW 9094   2.574   4.371   5.939 -0.3798 -0.5382  0.4079
 2732SOL    HW1 9095   2.663   4.387   5.982 -0.3285 -1.0507  0.4954
 2732SOL    HW2 9096   2.564   4.431   5.860  1.2122 -2.3857 -1.2935
 2733SOL     OW 9097   4.957   3.770   3.042 -0.4277 -0.0622  0.2464
 2733SOL    HW1 9098   5.027   3.734   2.980  0.6962  0.3121  1.2703
 2733SOL    HW2 9099   4.931   3.699   3.107  0.4691  0.3839  1.1183
 2734SOL     OW 9100   0.372   2.458   3.733 -0.2236  0.0597  0.3105
 2734SOL    HW1 9101   0.442   2.442   3.664 -1.2364  1.9209 -1.2305
 2734SOL    HW2 9102   0.311   2.378   3.737  0.3440 -0.4202 -0.3448
 2735SOL     OW 9103   6.193   5.703   6.110 -0.4469  0.1495 -0.4402
 2735SOL    HW1 9104   6.185   5.616   6.159 -2.2621 -0.0570 -1.0130
 2735SOL    HW2 9105   6.269   5.699   6.046  2.3641  0.6232  2.6319
 2736SOL     OW 9106   6.555   1.666   0.435 -0.3463  0.5852 -0.3670
 2736SOL    HW1 9107   6.578   1.761   0.416 -2.6983  1.7535  1.9656
 2736SOL    HW2 9108   6.455   1.655   0.440 -0.1336 -1.2777  2.3354
 2737SOL     OW 9109   5.233   2.294   3.820 -0.4140 -0.6443  0.4933
 2737SOL    HW1 9110   5.182   2.347   3.752  0.0837 -0.7138  0.0688
 2737SOL    HW2 9111   5.216   2.333   3.911 -1.3631 -0.7717  0.3817
 2738SOL     OW 9112   6.728   7.002   6.125  0.0115  0.0125 -0.0265
 2738SOL    HW1 9113   6.776   6.915   6.135 -0.1779  0.0904  2.0628
 2738SOL    HW2 9114   6.633   6.991   6.154 -0.4234  0.5894 -1.1636
 2739SOL     OW 9115   3.114   3.405   2.927  0.4258 -0.2462  0.5522
 2739SOL    HW1 9116   3.114   3.457   3.013 -0.6000  0.2183  0.2926
 2739SOL    HW2 9117   3.159   3.317   2.941  0.5561 -0.0443  1.4819
 2740SOL     OW 9118   4.492   4.079   0.563 -0.2004 -0.1566  0.1453
 2740SOL    HW1 9119   4.449   4.026   0.636  0.3769 -0.6574  0.1230
 2740SOL    HW2 9120   4.560   4.141   0.603 -1.1012  0.8175  0.2082
 2741SOL     OW 9121   1.747   3.925   2.757  0.2849 -0.0405  0.3818
 2741SOL    HW1 9122   1.759   4.008   2.812 -0.2887  0.6863 -0.5422
 2741SOL    HW2 9123   1.749   3.950   2.660 -0.9559 -0.9557  0.1046
 2742SOL     OW 9124   5.514   4.907   0.933 -0.1408  0.0975 -0.3502
 2742SOL    HW1 9125   5.436   4.861   0.890 -1.2064  1.2220  0.3058
 2742SOL    HW2 9126   5.578   4.839   0.968 -1.8815 -0.9331  0.9981
 2743SOL     OW 9127   3.886   1.577   1.911  0.1314  0.0817 -0.9147
 2743SOL    HW1 9128   3.835   1.493   1.891 -1.1200  0.6010 -0.0367
 2743SOL    HW2 9129   3.826   1.656   1.899  0.3831  0.6542  1.1694
 2744SOL     OW 9130   1.407   0.781   0.211 -0.4358 -0.2166 -0.0161
 2744SOL    HW1 9131   1.353   0.852   0.165  1.7252  1.0998 -0.6849
 2744SOL    HW2 9132   1.387   0.692   0.169 -1.4766  0.3437 -0.7650
 2745SOL     OW 9133   6.276   3.220   5.691  0.0452  0.4426  0.2182
 2745SOL    HW1 9134   6.360   3.166   5.695  0.1020  0.5992  1.6300
 2745SOL    HW2 9135   6.282   3.286   5.616  0.1330 -1.2114 -1.3056
 2746SOL     OW 9136   2.269   2.997   4.596 -0.3377  0.0513 -0.7546
 2746SOL    HW1 9137   2.352   3.049   4.575 -1.1730  0.8861 -2.0685
 2746SOL    HW2 9138   2.241   3.016   4.690  1.0566 -0.4079 -0.2210
 2747SOL     OW 9139   0.781   6.997   0.396 -0.2255  0.1561  0.0486
 2747SOL    HW1 9140   0.833   7.071   0.438  0.6370 -0.7733  0.6521
 2747SOL    HW2 9141   0.714   7.036   0.333  0.3720  1.4363  0.1632
 2748SOL     OW 9142   5.103   6.648   6.140 -0.5688 -0.1172 -0.3266
 2748SOL    HW1 9143   5.067   6.555   6.148 -0.7618 -0.0452 -0.3627
 2748SOL    HW2 9144   5.038   6.705   6.090  0.4526 -0.4756 -2.1550
 2749SOL     OW 9145   5.439   1.951   5.384  0.5569  0.0950 -0.0239
 2749SOL    HW1 9146   5.491   1.971   5.301  1.0837  0.8335  0.4694
 2749SOL    HW2 9147   5.348   1.991   5.377  0.2063 -0.7919 -0.6937
 2750SOL     OW 9148   4.626   1.367   1.676  0.5651 -0.1940 -0.5334
 2750SOL    HW1 9149   4.660   1.409   1.760 -0.1185  1.4217 -1.0218
 2750SOL    HW2 9150   4.538   1.408   1.652  0.1152 -1.5771 -1.3408
 2751SOL     OW 9151   0.759   6.615   4.838 -0.3061  0.1235  0.3769
 2751SOL    HW1 9152   0.808   6.627   4.925  1.0106 -0.8225 -0.1923
 2751SOL    HW2 9153   0.781   6.525   4.800 -0.4281  0.7336 -1.2069
 2752SOL     OW 9154   1.345   6.861   3.738  0.3557 -0.6028 -0.5974
 2752SOL    HW1 9155   1.248   6.873   3.760  0.3104 -0.9865 -0.5745
 2752SOL    HW2 9156   1.394   6.946   3.756  0.3943 -1.0039  1.3196
 2753SOL     OW 9157   5.042   1.241   5.629  0.1599  0.4800  0.0213
 2753SOL    HW1 9158   5.100   1.299   5.572  0.1925 -0.8132 -1.3372
 2753SOL    HW2 9159   5.099   1.188   5.692  0.6881 -1.4873 -1.9451
 2754SOL     OW 9160   1.229   2.884   6.127 -0.3864 -0.3790  0.0231
 2754SOL    HW1 9161   1.325   2.875   6.100 -0.1254 -0.2419  0.8602
 2754SOL    HW2 9162   1.174   2.910   6.048  0.3918  0.2948 -0.3135
 2755SOL     OW 9163   3.161   0.664   5.861 -0.3367  0.4001 -0.0432
 2755SOL    HW1 9164   3.181   0.641   5.765  1.2834  1.2297  0.0673
 2755SOL    HW2 9165   3.079   0.615   5.889 -0.1471 -0.8600 -1.4800
 2756SOL     OW 9166   5.920   5.045   5.895 -0.2117  0.1628 -0.8182
 2756SOL    HW1 9167   5.863   5.126   5.878  1.2401  1.8728  1.7876
 2756SOL    HW2 9168   6.007   5.074   5.935  0.7441 -2.6718 -0.6659
 2757SOL     OW 9169   4.727   5.904   5.318 -0.0618 -0.3230  0.5349
 2757SOL    HW1 9170   4.743   5.828   5.255  1.0537  1.7830 -1.9283
 2757SOL    HW2 9171   4.787   5.895   5.398 -0.5509 -2.4023  0.7038
 2758SOL     OW 9172   0.126   3.730   0.904 -0.2455  0.2620  0.3673
 2758SOL    HW1 9173   0.066   3.657   0.936 -0.1862 -0.2759 -0.7152
 2758SOL    HW2 9174   0.200   3.744   0.970  0.2507 -1.2792  0.1674
 2759SOL     OW 9175   3.869   1.742   0.912  0.2048 -0.0181  0.0130
 2759SOL    HW1 9176   3.878   1.752   1.011  0.8596 -1.1973  0.0845
 2759SOL    HW2 9177   3.912   1.657   0.883 -1.6698 -0.6568 -1.0492
 2760SOL     OW 9178   0.204   4.874   6.477 -0.2872  0.7106 -0.5682
 2760SOL    HW1 9179   0.277   4.940   6.459  0.2169  0.1822 -0.4808
 2760SOL    HW2 9180   0.129   4.889   6.413  0.0337  1.0543 -0.8661
 2761SOL     OW 9181   3.127   1.668   1.157 -0.0315 -0.3629 -0.0887
 2761SOL    HW1 9182   3.096   1.576   1.133  1.0459 -0.2378 -2.2083
 2761SOL    HW2 9183   3.201   1.662   1.224 -0.0715 -1.0358 -0.0995
 2762SOL     OW 9184   0.014   1.689   4.945 -0.3620  0.8416 -0.4488
 2762SOL    HW1 9185  -0.058   1.683   5.014 -0.6395  0.6843 -0.7503
 2762SOL    HW2 9186   0.102   1.665   4.987 -0.3521  1.8417  0.1153
 2763SOL     OW 9187   3.379   1.791   4.670 -0.1502  0.4803  0.5147
 2763SOL    HW1 9188   3.330   1.704   4.681  1.3548 -0.2667  1.5964
 2763SOL    HW2 9189   3.456   1.794   4.733 -1.7786  3.8346  2.6117
 2764SOL     OW 9190   4.006   1.606   4.159  0.4930  0.1479 -0.5823
 2764SOL    HW1 9191   4.052   1.526   4.121  0.5912  0.1820 -0.5334
 2764SOL    HW2 9192   4.057   1.641   4.237 -0.2785 -0.5870  0.2698
 2765SOL     OW 9193   0.128   3.472   1.997  0.3603 -0.0228  0.3128
 2765SOL    HW1 9194   0.202   3.421   1.954 -0.2434  0.2831 -1.1199
 2765SOL    HW2 9195   0.159   3.564   2.021  0.7573 -0.2639  0.7326
 2766SOL     OW 9196   3.746   5.877   1.193  0.5588 -0.9713 -0.7430
 2766SOL    HW1 9197   3.716   5.953   1.249 -2.1222 -2.0436 -0.5505
 2766SOL    HW2 9198   3.812   5.909   1.125  0.1596  1.3270 -0.1283
 2767SOL     OW 9199   0.952   0.637   2.971 -0.1404  0.7244  0.1443
 2767SOL    HW1 9200   0.892   0.609   3.046  1.1997 -0.5284  0.8200
 2767SOL    HW2 9201   1.012   0.560   2.947  0.1175  1.4275 -1.5586
 2768SOL     OW 9202   5.960   2.894   3.551  0.1735  0.1126 -0.6422
 2768SOL    HW1 9203   6.048   2.931   3.523  0.4129  0.5628  0.6207
 2768SOL    HW2 9204   5.971   2.799   3.579 -0.2419 -0.6388 -2.8719
 2769SOL     OW 9205   6.342   4.311   4.233  0.3880 -0.2595 -0.6268
 2769SOL    HW1 9206   6.247   4.329   4.258  0.8318  0.2448  0.7557
 2769SOL    HW2 9207   6.383   4.395   4.198  0.6372 -0.1860 -0.1648
 2770SOL     OW 9208   0.954   5.548   4.399 -0.1520  0.4438  0.0616
 2770SOL    HW1 9209   1.012   5.629   4.392 -0.7252  0.9512  0.9363
 2770SOL    HW2 9210   0.976   5.498   4.483 -0.2559  0.0503 -0.1409
 2771SOL     OW 9211   5.349   2.035   4.609 -0.1027 -0.3600 -0.3435
 2771SOL    HW1 9212   5.280   2.104   4.630 -0.0663 -0.5400  0.4056
 2771SOL    HW2 9213   5.305   1.954   4.570 -0.1943 -0.0860 -0.8121
 2772SOL     OW 9214   0.387   1.842   4.165 -0.3942  0.0260  0.4935
 2772SOL    HW1 9215   0.288   1.841   4.176 -0.4845 -1.3304 -0.2908
 2772SOL    HW2 9216   0.428   1.771   4.221 -0.1328 -1.2738 -1.2790
 2773SOL     OW 9217   0.584   1.135   5.003 -0.0236  0.2230 -0.2368
 2773SOL    HW1 9218   0.572   1.078   4.922 -0.5960  0.3909 -0.2772
 2773SOL    HW2 9219   0.506   1.124   5.064  0.4044  0.0991  0.2972
 2774SOL     OW 9220   4.186   2.318   3.902 -0.3938  0.1406  0.4185
 2774SOL    HW1 9221   4.221   2.347   3.813 -0.3933  1.0158  0.6871
 2774SOL    HW2 9222   4.262   2.317   3.968 -0.4600 -0.1401  0.4895
 2775SOL     OW 9223   4.698   3.632   0.046  0.4841 -0.5370 -0.3425
 2775SOL    HW1 9224   4.787   3.665   0.078  0.3577  0.2082 -0.7407
 2775SOL    HW2 9225   4.709   3.542   0.004  1.5194  0.5668 -2.6364
 2776SOL     OW 9226   6.355   0.442   2.998 -0.0076 -0.6883  0.2968
 2776SOL    HW1 9227   6.268   0.419   2.954 -0.8697 -1.6409  2.3755
 2776SOL    HW2 9228   6.430   0.408   2.941 -1.0361 -1.4980 -0.6350
 2777SOL     OW 9229   6.759   6.849   3.941 -0.4863 -0.2433 -0.8530
 2777SOL    HW1 9230   6.675   6.879   3.894 -1.4273  0.1568  0.9996
 2777SOL    HW2 9231   6.822   6.811   3.874 -1.1205  1.6773 -2.6753
 2778SOL     OW 9232   1.443   2.725   3.938  0.1511  0.3230 -0.2010
 2778SOL    HW1 9233   1.420   2.815   3.973 -0.1218 -0.4482  1.7518
 2778SOL    HW2 9234   1.358   2.676   3.915  0.2985  0.5654 -1.2880
 2779SOL     OW 9235   1.337   5.409   1.144 -0.1107 -0.0345 -0.2333
 2779SOL    HW1 9236   1.330   5.501   1.182 -0.5501 -0.6087  1.1402
 2779SOL    HW2 9237   1.245   5.369   1.136  0.1289 -0.6354 -0.0686
 2780SOL     OW 9238   0.753   3.683   2.853 -0.0589 -0.2610 -0.5833
 2780SOL    HW1 9239   0.661   3.659   2.822 -0.2078  0.7812 -0.9894
 2780SOL    HW2 9240   0.747   3.735   2.938  0.0725  0.6667 -1.1227
 2781SOL     OW 9241   0.751   6.836   2.296  0.6111  0.2094  0.1947
 2781SOL    HW1 9242   0.652   6.819   2.289  0.3535  1.0183  1.4658
 2781SOL    HW2 9243   0.791   6.843   2.205 -0.2259 -1.6362 -0.3580
 2782SOL     OW 9244   1.336   5.058   5.543  0.1547  0.1219 -0.1890
 2782SOL    HW1 9245   1.293   4.973   5.512 -0.0632  0.3712 -0.5901
 2782SOL    HW2 9246   1.270   5.112   5.595 -0.4488  1.0732 -1.8474
 2783SOL     OW 9247   1.108   4.063   0.004 -0.2921 -0.6589 -0.4979
 2783SOL    HW1 9248   1.133   4.093   0.096  1.2967 -0.5437 -0.9380
 2783SOL    HW2 9249   1.054   4.134  -0.041  1.5874  0.6786 -0.7530
 2784SOL     OW 9250   4.660   0.567   6.421 -0.0793 -0.1844  0.1050
 2784SOL    HW1 9251   4.578   0.611   6.384 -0.5077  0.0223  1.2627
 2784SOL    HW2 9252   4.655   0.565   6.521  2.1468  1.4401  0.3274
 2785SOL     OW 9253   2.545   0.666   2.828  0.2164  0.8162  0.2085
 2785SOL    HW1 9254   2.639   0.691   2.850  0.2535 -0.4960  1.6983
 2785SOL    HW2 9255   2.495   0.648   2.913 -1.2196  0.9018 -0.5922
 2786SOL     OW 9256   2.904   1.614   2.357 -0.4259  0.1457  0.2472
 2786SOL    HW1 9257   2.940   1.704   2.380 -2.5316  1.0977  0.0890
 2786SOL    HW2 9258   2.854   1.620   2.270 -0.2855 -1.2735  0.0531
 2787SOL     OW 9259   0.326   4.141   4.963 -0.4937  0.3046 -0.1546
 2787SOL    HW1 9260   0.362   4.053   4.994 -0.8529  0.3428  0.3771
 2787SOL    HW2 9261   0.388   4.179   4.894  1.0352  0.8216  1.4265
 2788SOL     OW 9262   2.638   6.565   1.288 -0.1383  0.0482 -0.1738
 2788SOL    HW1 9263   2.580   6.614   1.354  0.7331 -0.4679  1.0007
 2788SOL    HW2 9264   2.616   6.597   1.196 -0.8935  1.3101  0.4037
 2789SOL     OW 9265   0.852   3.347   6.013  0.5682  0.1116 -0.6440
 2789SOL    HW1 9266   0.914   3.422   6.038  0.4955  0.4930 -1.5645
 2789SOL    HW2 9267   0.757   3.379   6.021  0.4071 -0.6947  1.5023
 2790SOL     OW 9268   4.564   0.132   3.867 -0.3526  0.2361 -0.1127
 2790SOL    HW1 9269   4.546   0.152   3.771 -1.7329  2.2922  0.4978
 2790SOL    HW2 9270   4.553   0.034   3.883 -0.1398 -0.1369 -2.0166
 2791SOL     OW 9271   1.615   5.375   6.712  0.3157  0.3087 -0.5540
 2791SOL    HW1 9272   1.635   5.363   6.810  0.1466 -0.4132 -0.5981
 2791SOL    HW2 9273   1.529   5.424   6.701  0.9543  1.4931 -0.3507
 2792SOL     OW 9274   2.083   3.557   2.283  0.3744  0.0378 -0.2196
 2792SOL    HW1 9275   2.144   3.558   2.204 -0.9834  0.5084 -1.3011
 2792SOL    HW2 9276   2.096   3.640   2.337 -0.8622  1.2670 -1.7201
 2793SOL     OW 9277   3.789   6.662   3.326 -0.2609 -0.0073 -0.3946
 2793SOL    HW1 9278   3.882   6.697   3.330 -0.0422 -0.0560 -3.0488
 2793SOL    HW2 9279   3.791   6.563   3.310 -0.8324 -0.3710  1.5095
 2794SOL     OW 9280   5.416   5.888   5.760 -0.2105  0.2543  0.0471
 2794SOL    HW1 9281   5.320   5.867   5.740  0.3323 -0.7001 -1.6706
 2794SOL    HW2 9282   5.428   5.988   5.761 -1.3861  0.4255  1.3001
 2795SOL     OW 9283   2.590   3.569   6.889  0.1016 -0.6715 -0.9406
 2795SOL    HW1 9284   2.625   3.507   6.818  0.4214 -0.0444 -1.3395
 2795SOL    HW2 9285   2.557   3.653   6.846  1.2847  0.1692 -0.2578
 2796SOL     OW 9286   3.768   6.537   0.894  0.0910 -0.0947 -0.3746
 2796SOL    HW1 9287   3.785   6.463   0.828 -0.6931  0.3788 -1.1313
 2796SOL    HW2 9288   3.832   6.612   0.877  0.1017 -0.1091 -0.3968
 2797SOL     OW 9289   5.410   2.191   3.361  0.0719 -0.1440 -0.1215
 2797SOL    HW1 9290   5.510   2.191   3.365  0.0822 -1.9071  0.5236
 2797SOL    HW2 9291   5.381   2.199   3.265  0.7785  1.5250 -0.2277
 2798SOL     OW 9292   0.209   1.359   0.056  0.4045 -0.4246  0.1262
 2798SOL    HW1 9293   0.231   1.346  -0.041 -0.2132 -0.2942 -0.0392
 2798SOL    HW2 9294   0.209   1.270   0.102  0.6270 -0.4964 -0.0089
 2799SOL     OW 9295   6.261   2.284   0.632 -0.3232 -0.2452  0.2012
 2799SOL    HW1 9296   6.322   2.207   0.650 -1.9532 -2.0218 -1.4271
 2799SOL    HW2 9297   6.287   2.326   0.545 -2.3440 -2.1399 -1.4320
 2800SOL     OW 9298   2.512   1.838   1.246 -0.3175  0.4656  0.5559
 2800SOL    HW1 9299   2.445   1.904   1.214 -0.4330 -1.0940 -2.9209
 2800SOL    HW2 9300   2.469   1.774   1.309 -1.0647  1.6233  1.2621
 2801SOL     OW 9301   0.975   0.282   3.488 -0.5457  0.8830 -0.1370
 2801SOL    HW1 9302   1.058   0.231   3.508 -1.6745 -0.8377  0.3556
 2801SOL    HW2 9303   0.990   0.341   3.408  0.2110 -1.8695 -2.1578
 2802SOL     OW 9304   2.896   4.691   1.312 -0.5316 -0.1022 -0.3484
 2802SOL    HW1 9305   2.828   4.619   1.325  0.4084 -1.1767 -1.1569
 2802SOL    HW2 9306   2.987   4.651   1.304  0.0507  1.1945 -0.6289
 2803SOL     OW 9307   5.763   3.592   2.951 -0.2871 -0.5869  0.5304
 2803SOL    HW1 9308   5.664   3.605   2.945 -0.4916 -0.9731  2.4740
 2803SOL    HW2 9309   5.804   3.608   2.861 -2.0709 -0.1824 -0.2574
 2804SOL     OW 9310   4.096   2.309   1.443 -0.4461 -0.5095  0.0650
 2804SOL    HW1 9311   4.045   2.259   1.372 -2.2396  0.7062  0.4368
 2804SOL    HW2 9312   4.032   2.352   1.506  1.0902  0.4386  1.0378
 2805SOL     OW 9313   3.318   3.898   5.179  0.2927  0.5575  0.2005
 2805SOL    HW1 9314   3.310   3.832   5.104  2.9864 -0.3172  0.5592
 2805SOL    HW2 9315   3.276   3.984   5.152 -1.8500 -0.7513 -0.9280
 2806SOL     OW 9316   6.857   2.111   4.185  0.0617 -0.5847 -0.0423
 2806SOL    HW1 9317   6.893   2.020   4.204 -2.2198 -1.9868 -1.8416
 2806SOL    HW2 9318   6.829   2.154   4.271  3.1445 -0.5796  1.0804
 2807SOL     OW 9319   5.691   3.963   6.300 -0.0682  0.1502 -0.0686
 2807SOL    HW1 9320   5.732   3.871   6.302 -3.1674 -1.3497  0.2127
 2807SOL    HW2 9321   5.648   3.978   6.211 -1.8505  0.1825  0.7600
 2808SOL     OW 9322   2.995   0.363   5.816  0.4329  0.4323  0.0383
 2808SOL    HW1 9323   3.009   0.342   5.719  0.0690 -0.6748  0.2110
 2808SOL    HW2 9324   2.940   0.446   5.824  1.8010  1.4414 -0.6716
 2809SOL     OW 9325   3.327   6.266   0.322 -0.0147  0.2824  0.5823
 2809SOL    HW1 9326   3.376   6.332   0.264 -1.2301  1.0838  0.4390
 2809SOL    HW2 9327   3.236   6.250   0.285  0.2225 -1.4309  0.6783
 2810SOL     OW 9328   4.065   5.403   5.425 -0.1672  0.0471 -0.0060
 2810SOL    HW1 9329   4.127   5.436   5.495 -0.2508 -1.6196  0.9072
 2810SOL    HW2 9330   3.971   5.407   5.459 -0.2500 -0.3464 -0.1768
 2811SOL     OW 9331   0.065   2.771   0.147  0.2393 -0.3398  0.2380
 2811SOL    HW1 9332  -0.012   2.823   0.111  0.5415 -0.2974 -0.3507
 2811SOL    HW2 9333   0.066   2.779   0.247  0.9769  1.8043  0.1092
 2812SOL     OW 9334   1.457   5.027   0.147  0.4464  0.1943 -0.0489
 2812SOL    HW1 9335   1.554   5.007   0.134  0.4651 -0.1843  0.6002
 2812SOL    HW2 9336   1.418   5.060   0.062  1.2723  0.8967 -0.1659
 2813SOL     OW 9337   5.664   4.034   4.528 -0.2750  0.3867  0.4013
 2813SOL    HW1 9338   5.664   3.942   4.489  0.5041  0.6402 -0.2147
 2813SOL    HW2 9339   5.606   4.094   4.473  2.3912  1.2431 -1.6503
 2814SOL     OW 9340   2.044   6.663   4.812 -0.4222 -0.4696  0.0971
 2814SOL    HW1 9341   2.087   6.624   4.731 -1.1113  1.8214 -1.4807
 2814SOL    HW2 9342   2.010   6.590   4.871  3.2184 -2.3479  0.1824
 2815SOL     OW 9343   0.155   2.210   6.849  0.3177  0.2887  0.2922
 2815SOL    HW1 9344   0.080   2.233   6.911  1.2172  1.9535  0.8200
 2815SOL    HW2 9345   0.136   2.247   6.758  0.9356  1.6394  0.6872
 2816SOL     OW 9346   0.262   2.922   4.868  0.3723 -0.9223  0.1853
 2816SOL    HW1 9347   0.196   2.995   4.850 -0.3712 -1.4104  0.8950
 2816SOL    HW2 9348   0.214   2.836   4.883  1.3072 -1.9331 -2.2254
 2817SOL     OW 9349   5.571   4.042   5.637 -0.0404 -0.0010  0.0070
 2817SOL    HW1 9350   5.627   4.121   5.661 -0.5286 -0.2721  2.2515
 2817SOL    HW2 9351   5.582   4.022   5.540  1.1707  1.9509 -0.3191
 2818SOL     OW 9352   0.812   1.976   1.676  0.3011  0.0990 -0.0658
 2818SOL    HW1 9353   0.800   1.929   1.588 -1.2690 -1.4611  0.9255
 2818SOL    HW2 9354   0.725   1.980   1.724  1.8148 -3.3112  3.4442
 2819SOL     OW 9355   4.277   5.922   4.199 -0.1628 -0.1382 -0.2441
 2819SOL    HW1 9356   4.356   5.861   4.192 -0.4527 -0.3642 -2.2554
 2819SOL    HW2 9357   4.195   5.867   4.219 -0.1867 -0.2432 -0.6095
 2820SOL     OW 9358   0.814   5.206   3.080  0.2261  0.3510 -0.0651
 2820SOL    HW1 9359   0.842   5.272   3.149  1.0925  1.7606 -1.6980
 2820SOL    HW2 9360   0.887   5.195   3.012 -0.3823 -1.3938 -0.4968
 2821SOL     OW 9361   4.590   6.136   2.313  0.1754  0.3955 -0.2459
 2821SOL    HW1 9362   4.557   6.049   2.277  1.0363 -0.1727  0.3016
 2821SOL    HW2 9363   4.523   6.173   2.377 -0.3601  0.3281 -0.7528
 2822SOL     OW 9364   1.315   2.310   3.053 -0.5271  0.0569  0.0498
 2822SOL    HW1 9365   1.354   2.379   3.114  0.9097 -0.1688 -0.5837
 2822SOL    HW2 9366   1.216   2.305   3.067 -0.2672  0.1262  2.2427
 2823SOL     OW 9367   5.990   3.540   5.970  0.1780  0.5913  0.2351
 2823SOL    HW1 9368   5.988   3.636   5.942 -0.7253  0.6367  0.4134
 2823SOL    HW2 9369   6.084   3.510   5.981  0.4621  2.0011  2.0682
 2824SOL     OW 9370   6.776   1.978   1.444  0.4731 -0.3520 -0.1941
 2824SOL    HW1 9371   6.773   2.050   1.376  0.8212 -0.5678 -0.4419
 2824SOL    HW2 9372   6.857   1.921   1.429  1.1764  0.2554  1.0755
 2825SOL     OW 9373   6.844   2.763   0.351  0.1765  0.1559 -0.2277
 2825SOL    HW1 9374   6.796   2.713   0.422  0.8476  0.3635  0.3832
 2825SOL    HW2 9375   6.816   2.859   0.352  1.1827  0.4612  0.6787
 2826SOL     OW 9376   0.801   3.886   1.093 -0.3081  0.6631 -0.0657
 2826SOL    HW1 9377   0.739   3.954   1.055 -0.3826 -0.0132 -1.1773
 2826SOL    HW2 9378   0.754   3.799   1.103  0.3291  0.2513 -0.5367
 2827SOL     OW 9379   5.916   5.622   2.176  0.2694  0.1432  0.3964
 2827SOL    HW1 9380   5.851   5.686   2.217 -0.8869 -1.3029  0.9089
 2827SOL    HW2 9381   5.910   5.534   2.223  0.8161 -0.7711 -1.1765
 2828SOL     OW 9382   1.423   3.436   4.805  0.3514 -1.0385  0.4470
 2828SOL    HW1 9383   1.376   3.405   4.888 -1.9161  1.9151  0.4705
 2828SOL    HW2 9384   1.453   3.531   4.818  0.6926 -0.7836 -1.8283
 2829SOL     OW 9385   1.378   0.645   5.925 -0.1995 -0.4872  0.1821
 2829SOL    HW1 9386   1.349   0.627   6.018 -1.9787 -0.2294 -0.2941
 2829SOL    HW2 9387   1.330   0.584   5.862 -1.3286  1.3489 -0.8308
 2830SOL     OW 9388   6.952   6.784   5.012  0.4554 -0.3820 -0.5588
 2830SOL    HW1 9389   6.879   6.771   5.080 -1.1507  0.7025 -1.9899
 2830SOL    HW2 9390   7.015   6.707   5.016 -0.5270 -1.1641  1.0217
 2831SOL     OW 9391   0.594   1.453   0.602 -0.2315 -0.4300  0.3815
 2831SOL    HW1 9392   0.507   1.449   0.553 -0.1629 -2.0508  0.3510
 2831SOL    HW2 9393   0.662   1.399   0.552 -0.1976 -2.2636  2.3146
 2832SOL     OW 9394   6.809   1.522   0.397 -0.3291 -0.2537 -0.1245
 2832SOL    HW1 9395   6.797   1.620   0.384  0.4516 -0.3136 -1.4243
 2832SOL    HW2 9396   6.777   1.497   0.488 -2.6581  0.8249 -0.5691
 2833SOL     OW 9397   1.796   5.246   3.484  0.4018 -0.6145  0.5647
 2833SOL    HW1 9398   1.727   5.303   3.440  0.4964  0.7199  2.0616
 2833SOL    HW2 9399   1.752   5.182   3.547  0.2085 -2.9655 -1.7686
 2834SOL     OW 9400   4.133   1.851   6.113  0.1737 -0.3628  0.1980
 2834SOL    HW1 9401   4.108   1.842   6.210 -3.0813 -0.1033 -0.5023
 2834SOL    HW2 9402   4.088   1.931   6.075  1.6996 -0.2546 -1.5119
 2835SOL     OW 9403   2.113   4.615   2.512  0.1819 -0.7538 -0.1687
 2835SOL    HW1 9404   2.153   4.703   2.488  0.8219 -0.7225  0.9803
 2835SOL    HW2 9405   2.048   4.588   2.441 -0.9365  1.2006  0.0385
 2836SOL     OW 9406   3.356   0.549   1.986 -0.1008  0.0246  0.3442
 2836SOL    HW1 9407   3.310   0.511   1.906  1.1420  1.0673 -0.9277
 2836SOL    HW2 9408   3.355   0.649   1.981 -0.8801  0.1405  2.1731
 2837SOL     OW 9409   2.274   1.965   0.137  0.4525  0.7044  0.5342
 2837SOL    HW1 9410   2.275   2.060   0.107  1.9878  0.5336 -0.0102
 2837SOL    HW2 9411   2.367   1.928   0.137  0.1638 -0.1925  2.7037
 2838SOL     OW 9412   5.241   1.108   5.798 -0.2063 -0.2927 -0.0898
 2838SOL    HW1 9413   5.257   1.073   5.890 -1.4411  0.1573  0.3091
 2838SOL    HW2 9414   5.323   1.156   5.766 -0.4918  1.5163  1.6895
 2839SOL     OW 9415   3.850   1.062   0.084  0.6258 -0.0656 -0.5701
 2839SOL    HW1 9416   3.843   1.049  -0.015 -0.2506  1.2400 -0.6931
 2839SOL    HW2 9417   3.918   1.132   0.104 -0.6945  1.1844 -0.3735
 2840SOL     OW 9418   0.903   2.458   1.350  0.3098  0.9355  0.7980
 2840SOL    HW1 9419   0.820   2.436   1.401 -0.0194  1.7607  0.6473
 2840SOL    HW2 9420   0.932   2.551   1.373 -1.2353  2.3511 -2.2508
 2841SOL     OW 9421   3.507   7.002   3.388  0.0182  0.0473 -0.0934
 2841SOL    HW1 9422   3.478   6.991   3.293  1.1434  2.7559 -0.8495
 2841SOL    HW2 9423   3.605   6.988   3.395  0.2344  1.4905  0.2785
 2842SOL     OW 9424   3.032   0.030   2.322 -0.0566  0.2297  0.3927
 2842SOL    HW1 9425   2.948   0.074   2.355 -1.2113 -1.3626 -0.2645
 2842SOL    HW2 9426   3.050  -0.052   2.378  1.2423  0.7124  0.7045
 2843SOL     OW 9427   0.392   0.719   4.304  0.6251 -0.2458 -0.4643
 2843SOL    HW1 9428   0.301   0.747   4.275  0.2400  1.1051  1.7624
 2843SOL    HW2 9429   0.394   0.620   4.319 -0.2944 -0.3671 -1.0562
 2844SOL     OW 9430   6.555   4.326   3.899 -1.3584  0.1490 -0.3344
 2844SOL    HW1 9431   6.495   4.403   3.876 -0.3710  1.4534  1.2829
 2844SOL    HW2 9432   6.648   4.345   3.867 -1.3093 -0.8694 -0.8491
 2845SOL     OW 9433   1.628   4.028   5.315 -0.2177  0.4757  0.2970
 2845SOL    HW1 9434   1.668   3.944   5.352 -0.4303 -0.3538 -1.2652
 2845SOL    HW2 9435   1.546   4.005   5.262  1.2996  1.2389 -2.6246
 2846SOL     OW 9436   6.116   3.159   2.664 -0.6784 -0.1386  0.4670
 2846SOL    HW1 9437   6.174   3.149   2.745  0.1586 -2.1521 -0.2995
 2846SOL    HW2 9438   6.077   3.251   2.662  2.0406  1.1510  1.3353
 2847SOL     OW 9439   4.319   6.769   4.226  0.1303 -0.0993  0.6334
 2847SOL    HW1 9440   4.220   6.777   4.231 -0.1411 -1.8142 -0.7728
 2847SOL    HW2 9441   4.348   6.683   4.269  0.5215 -1.4486 -2.0733
 2848SOL     OW 9442   2.823   5.071   2.652  0.0652  0.0661 -0.1143
 2848SOL    HW1 9443   2.912   5.104   2.684  0.7294 -0.6802 -1.1510
 2848SOL    HW2 9444   2.760   5.148   2.642  0.4982  0.5680  0.8697
 2849SOL     OW 9445   4.246   0.321   5.824  0.3797 -0.0825 -0.4253
 2849SOL    HW1 9446   4.215   0.235   5.864 -1.7728 -0.1952 -2.1587
 2849SOL    HW2 9447   4.298   0.302   5.740 -1.3084  0.2680 -1.6026
 2850SOL     OW 9448   6.861   5.029   3.921  0.1765 -0.8413  0.7719
 2850SOL    HW1 9449   6.878   4.934   3.897  0.1989 -0.4720 -0.7576
 2850SOL    HW2 9450   6.948   5.075   3.939  0.0630 -1.6728  4.0001
 2851SOL     OW 9451   5.131   3.537   2.981  0.2510 -0.1180 -0.2794
 2851SOL    HW1 9452   5.080   3.464   2.936 -0.4601 -0.3308  0.8459
 2851SOL    HW2 9453   5.182   3.589   2.912 -0.6661 -0.5432 -1.3085
 2852SOL     OW 9454   5.894   1.258   4.540 -0.0227 -0.3485  0.0213
 2852SOL    HW1 9455   5.991   1.281   4.550 -0.2401  0.3041  0.7206
 2852SOL    HW2 9456   5.878   1.223   4.448  0.9235 -0.7091 -0.0232
 2853SOL     OW 9457   2.013   4.281   2.997  0.7589  0.2001  0.6752
 2853SOL    HW1 9458   2.095   4.228   2.972  1.2717  1.0309  0.5561
 2853SOL    HW2 9459   2.033   4.335   3.079  0.4359  0.6522  0.4567
 2854SOL     OW 9460   3.567   1.974   1.938 -0.3743 -0.6306  0.1406
 2854SOL    HW1 9461   3.485   1.958   1.992 -0.2282 -2.8098 -0.1668
 2854SOL    HW2 9462   3.605   2.064   1.959 -3.3062  0.8234 -0.3935
 2855SOL     OW 9463   5.144   1.444   0.610  0.0320 -0.3275  0.2929
 2855SOL    HW1 9464   5.174   1.511   0.678 -0.1645  0.4179 -0.3361
 2855SOL    HW2 9465   5.139   1.353   0.652  0.6462 -0.0106  1.0664
 2856SOL     OW 9466   6.628   2.029   5.904 -0.3019  0.3522 -0.5400
 2856SOL    HW1 9467   6.641   2.036   6.003 -4.5567  2.2178  0.1171
 2856SOL    HW2 9468   6.643   2.119   5.863 -0.7449  0.1213 -1.2245
 2857SOL     OW 9469   5.649   1.026   3.582  0.3762 -0.8209 -0.2960
 2857SOL    HW1 9470   5.616   0.952   3.640 -1.2353 -0.3534 -0.5728
 2857SOL    HW2 9471   5.698   1.093   3.637 -1.8785  0.0674  0.7345
 2858SOL     OW 9472   0.225   3.413   1.034 -0.1515  0.2210  0.3550
 2858SOL    HW1 9473   0.207   3.491   0.974 -0.1924  0.8540  1.1808
 2858SOL    HW2 9474   0.142   3.358   1.042 -0.8369  1.3675  1.5880
 2859SOL     OW 9475   1.317   5.325   4.321 -0.1378 -0.1111 -0.4446
 2859SOL    HW1 9476   1.218   5.331   4.303 -0.4099  0.1768  0.9985
 2859SOL    HW2 9477   1.336   5.240   4.370  0.0919  0.5361  0.6120
 2860SOL     OW 9478   5.140   0.632   6.682  0.4611 -0.0045 -0.6630
 2860SOL    HW1 9479   5.146   0.665   6.776  1.6261  0.3737 -0.8548
 2860SOL    HW2 9480   5.083   0.694   6.628  0.1561  0.0234 -0.3104
 2861SOL     OW 9481   1.045   0.086   1.550  0.4834  0.2762  0.1190
 2861SOL    HW1 9482   1.135   0.093   1.592  1.2966  2.3801 -1.7513
 2861SOL    HW2 9483   0.999   0.175   1.557 -0.3178 -0.0028 -1.2452
 2862SOL     OW 9484   6.478   4.065   5.810  0.3134 -0.1605  0.0051
 2862SOL    HW1 9485   6.448   3.994   5.748  2.3445  0.1354 -1.4015
 2862SOL    HW2 9486   6.541   4.127   5.763  2.2635 -0.1300  2.4012
 2863SOL     OW 9487   5.074   0.942   5.344 -0.0608 -0.2736  0.2498
 2863SOL    HW1 9488   5.069   1.041   5.332 -0.1334 -0.3969 -0.8929
 2863SOL    HW2 9489   5.085   0.920   5.441 -0.5171  0.8291  0.5653
 2864SOL     OW 9490   1.639   0.979   1.729 -1.0235  0.4917  0.2388
 2864SOL    HW1 9491   1.734   0.987   1.699 -0.8754 -0.0866  0.5267
 2864SOL    HW2 9492   1.589   0.918   1.667 -0.9671  0.0730  0.5931
 2865SOL     OW 9493   4.277   6.162   2.681 -0.6972 -0.6348 -0.2016
 2865SOL    HW1 9494   4.186   6.120   2.674 -0.5999 -0.6881 -1.2791
 2865SOL    HW2 9495   4.345   6.091   2.697 -0.6782 -0.7575 -0.8135
 2866SOL     OW 9496   0.803   2.905   2.243  0.0204  0.1811 -0.2933
 2866SOL    HW1 9497   0.837   2.934   2.333  2.4940  1.1223 -1.4296
 2866SOL    HW2 9498   0.804   2.806   2.237  0.2233  0.1238  0.5737
 2867SOL     OW 9499   1.681   1.372   5.102  0.6745  0.0030 -0.5023
 2867SOL    HW1 9500   1.688   1.372   5.003  0.0657  1.0460 -0.5522
 2867SOL    HW2 9501   1.586   1.388   5.129  0.8316 -0.2917  0.2539
 2868SOL     OW 9502   6.658   6.061   3.427 -0.0013  0.3893  0.1346
 2868SOL    HW1 9503   6.657   5.979   3.371 -1.7551  2.1763 -2.6860
 2868SOL    HW2 9504   6.586   6.056   3.496 -1.2532  0.2363 -1.1459
 2869SOL     OW 9505   1.916   0.113   5.850  0.0375  0.3574  0.6468
 2869SOL    HW1 9506   2.010   0.082   5.839 -0.2779 -0.2239 -0.6855
 2869SOL    HW2 9507   1.855   0.034   5.856 -0.4492  0.7190  0.6093
 2870SOL     OW 9508   5.220   1.564   1.161 -0.1709 -0.8438 -0.3294
 2870SOL    HW1 9509   5.193   1.468   1.156  1.4366 -1.4266  1.0909
 2870SOL    HW2 9510   5.305   1.572   1.214  0.2278  1.2775 -1.1903
 2871SOL     OW 9511   3.251   0.589   5.149  0.3360 -0.1269 -0.2514
 2871SOL    HW1 9512   3.163   0.595   5.102 -0.2104 -1.9692  0.4604
 2871SOL    HW2 9513   3.283   0.494   5.147  3.2853  0.7576 -2.1857
 2872SOL     OW 9514   6.561   4.927   4.211 -0.4502  0.3030 -0.5938
 2872SOL    HW1 9515   6.645   4.873   4.217 -0.3202  0.4191 -1.2709
 2872SOL    HW2 9516   6.486   4.879   4.258  0.1796  0.5886  0.7617
 2873SOL     OW 9517   2.034   0.613   0.272  0.0929  0.2918  0.4904
 2873SOL    HW1 9518   2.079   0.672   0.205 -0.1354  0.4702  0.4946
 2873SOL    HW2 9519   2.025   0.521   0.234  1.6553 -0.1008  0.9885
 2874SOL     OW 9520   3.742   4.210   6.013 -0.0302 -0.7452 -0.8286
 2874SOL    HW1 9521   3.721   4.268   6.092  1.0575 -2.6041  0.9398
 2874SOL    HW2 9522   3.817   4.250   5.961  1.8725 -1.2496  1.3344
 2875SOL     OW 9523   1.318   1.683   6.580  0.1951 -0.5030 -0.4080
 2875SOL    HW1 9524   1.347   1.756   6.517  1.2855 -0.4788  0.0997
 2875SOL    HW2 9525   1.273   1.724   6.659  1.9354 -0.2503  0.4919
 2876SOL     OW 9526   4.134   6.479   3.316  0.2025 -0.0748 -0.2088
 2876SOL    HW1 9527   4.075   6.485   3.396 -0.9270  1.8371 -1.1058
 2876SOL    HW2 9528   4.153   6.571   3.282  2.8734 -0.6834 -0.6010
 2877SOL     OW 9529   4.995   2.552   5.126  0.0182 -0.2175  0.0191
 2877SOL    HW1 9530   5.075   2.537   5.068  0.2513 -0.6975  0.4504
 2877SOL    HW2 9531   4.954   2.464   5.149 -1.1288  0.0694 -0.8637
 2878SOL     OW 9532   2.956   3.755   2.954 -0.0361  0.2842 -0.0209
 2878SOL    HW1 9533   2.967   3.803   2.867 -1.5788  1.2277  0.2693
 2878SOL    HW2 9534   2.916   3.664   2.938  0.7866 -0.0243 -0.3766
 2879SOL     OW 9535   1.827   2.082   5.413  0.1762 -0.4292 -0.3296
 2879SOL    HW1 9536   1.920   2.071   5.448 -0.3702 -1.5483  0.8793
 2879SOL    HW2 9537   1.798   2.177   5.426  0.6115 -0.4244  0.7403
 2880SOL     OW 9538   5.512   4.587   4.834  0.1853  0.1350  0.1138
 2880SOL    HW1 9539   5.503   4.658   4.764 -0.4423  0.1664  0.2153
 2880SOL    HW2 9540   5.513   4.628   4.925  3.8943  0.3538  0.0983
 2881SOL     OW 9541   2.228   1.349   1.361  0.0874 -0.7516  0.1354
 2881SOL    HW1 9542   2.286   1.374   1.283 -2.1898 -1.6221 -1.9737
 2881SOL    HW2 9543   2.179   1.431   1.393 -1.3439 -0.8887 -1.5216
 2882SOL     OW 9544   6.192   5.772   0.933  0.1288  0.4857  0.1795
 2882SOL    HW1 9545   6.122   5.757   0.864 -0.4979  1.4175  0.5927
 2882SOL    HW2 9546   6.276   5.725   0.907 -0.8982 -1.4185  0.1022
 2883SOL     OW 9547   2.577   0.197   3.938  0.0978 -0.2311 -0.5683
 2883SOL    HW1 9548   2.539   0.214   3.847 -1.2811  0.4129  0.0881
 2883SOL    HW2 9549   2.648   0.127   3.932 -0.1509 -0.3926 -2.0944
 2884SOL     OW 9550   1.618   6.710   3.277 -1.2410  0.6026  0.8737
 2884SOL    HW1 9551   1.532   6.659   3.279 -0.4414 -0.9196 -0.6352
 2884SOL    HW2 9552   1.677   6.679   3.351 -0.9911 -0.2742  0.3206
 2885SOL     OW 9553   6.350   3.386   3.315  0.5754  0.3604 -0.6340
 2885SOL    HW1 9554   6.338   3.383   3.414  2.8774  1.1231 -0.2745
 2885SOL    HW2 9555   6.314   3.302   3.274 -0.6118  0.1329  0.7806
 2886SOL     OW 9556   4.777   2.619   4.949 -0.2783  0.2103 -0.3359
 2886SOL    HW1 9557   4.841   2.591   5.020 -1.6874 -1.1056  0.4699
 2886SOL    HW2 9558   4.793   2.715   4.926  2.3977 -0.2285 -0.6658
 2887SOL     OW 9559   4.507   1.288   4.655  0.1254 -0.1092  0.2934
 2887SOL    HW1 9560   4.572   1.329   4.591 -0.0862  0.2283  0.2944
 2887SOL    HW2 9561   4.511   1.188   4.646  1.4100 -0.1519  1.0496
 2888SOL     OW 9562   6.007   2.790   3.262  0.1860  0.0850 -0.8112
 2888SOL    HW1 9563   5.973   2.805   3.355  0.2249 -1.0806 -0.5949
 2888SOL    HW2 9564   5.961   2.711   3.222  0.2987  0.4762 -1.7228
 2889SOL     OW 9565   5.985   1.829   4.272  0.2086  0.5829 -0.1519
 2889SOL    HW1 9566   6.037   1.851   4.355  1.5318  1.4930 -1.1605
 2889SOL    HW2 9567   6.048   1.826   4.194 -0.8958 -0.9143 -1.0364
 2890SOL     OW 9568   4.965   2.333   3.212  0.6532 -0.3712 -0.2084
 2890SOL    HW1 9569   4.882   2.284   3.187 -0.7735  0.8264  1.7740
 2890SOL    HW2 9570   4.993   2.306   3.304 -0.5333  2.7140  1.2274
 2891SOL     OW 9571   5.452   6.729   2.162 -0.4548  0.0386 -0.1562
 2891SOL    HW1 9572   5.358   6.705   2.136 -1.0233  1.7207  0.2212
 2891SOL    HW2 9573   5.450   6.781   2.247  0.6865  1.3165 -0.8831
 2892SOL     OW 9574   1.713   5.252   0.259 -0.0116 -0.5795 -0.4304
 2892SOL    HW1 9575   1.701   5.182   0.329 -0.7972  2.2984  2.5523
 2892SOL    HW2 9576   1.809   5.255   0.231  0.0230 -2.8139 -0.6835
 2893SOL     OW 9577   0.080   3.999   0.312 -0.0578 -0.1374 -0.2665
 2893SOL    HW1 9578   0.128   4.044   0.237  1.3459  0.0106  0.6779
 2893SOL    HW2 9579  -0.019   4.011   0.301  0.2219  2.5915 -0.4151
 2894SOL     OW 9580   5.492   1.759   0.861  0.3048 -0.2452 -0.1651
 2894SOL    HW1 9581   5.410   1.783   0.913  1.3682 -0.2165  1.6111
 2894SOL    HW2 9582   5.569   1.746   0.925  1.5312 -0.9159 -1.7081
 2895SOL     OW 9583   1.996   1.414   6.798  0.4451 -0.0177  0.2511
 2895SOL    HW1 9584   1.932   1.399   6.873 -0.6215  2.9497  0.0495
 2895SOL    HW2 9585   2.019   1.511   6.792  0.5803 -0.1431 -3.2030
 2896SOL     OW 9586   1.961   6.597   2.883 -0.4601 -0.2755  0.4581
 2896SOL    HW1 9587   2.045   6.610   2.830 -0.1800 -2.0379  0.4068
 2896SOL    HW2 9588   1.943   6.679   2.938  1.3412  0.1019  0.5397
 2897SOL     OW 9589   5.473   1.631   0.401 -0.1505 -0.1935 -0.4850
 2897SOL    HW1 9590   5.561   1.666   0.433 -1.0077  0.0309  1.8003
 2897SOL    HW2 9591   5.412   1.707   0.378 -0.8253 -0.2212  1.1042
 2898SOL     OW 9592   4.461   5.454   2.802 -0.0031  0.2976 -0.0191
 2898SOL    HW1 9593   4.378   5.471   2.747 -1.3949 -0.0481  1.8662
 2898SOL    HW2 9594   4.497   5.363   2.780 -0.5399  0.1628 -0.3618
 2899SOL     OW 9595   5.375   0.149   4.878  0.3020  0.5326  0.2862
 2899SOL    HW1 9596   5.306   0.128   4.809 -0.9503  3.3831  0.5365
 2899SOL    HW2 9597   5.458   0.181   4.832  0.1996  0.4987  0.0741
 2900SOL     OW 9598   5.577   2.699   4.940  0.4197 -0.5807  0.5269
 2900SOL    HW1 9599   5.561   2.781   4.886 -2.7638 -1.1257  0.4450
 2900SOL    HW2 9600   5.618   2.724   5.028 -0.2163  1.0685  0.3858
 2901SOL     OW 9601   2.125   4.851   0.109 -0.0452 -0.5442  0.6062
 2901SOL    HW1 9602   2.188   4.803   0.170  0.6031 -0.0022  0.3668
 2901SOL    HW2 9603   2.160   4.942   0.088 -1.3729  0.1524  1.2414
 2902SOL     OW 9604   3.421   6.797   1.859  0.0875 -0.1411 -0.1809
 2902SOL    HW1 9605   3.336   6.833   1.822 -0.4855 -1.9554 -0.7588
 2902SOL    HW2 9606   3.499   6.831   1.806 -0.3482  0.7610 -0.2554
 2903SOL     OW 9607   1.737   6.568   6.993 -0.3674 -0.5483  0.3283
 2903SOL    HW1 9608   1.745   6.499   7.065 -0.2476  0.5241  1.3702
 2903SOL    HW2 9609   1.814   6.631   6.998 -0.4694 -0.3281 -0.6170
 2904SOL     OW 9610   5.570   5.845   5.063 -0.0861  0.3706  0.5854
 2904SOL    HW1 9611   5.665   5.877   5.060  0.3241 -0.7643  0.8381
 2904SOL    HW2 9612   5.508   5.923   5.054  0.8675  1.0574 -0.3124
 2905SOL     OW 9613   0.260   2.279   5.711 -0.2515 -0.0611  0.2513
 2905SOL    HW1 9614   0.191   2.250   5.645  0.4927  0.3408 -0.7248
 2905SOL    HW2 9615   0.317   2.200   5.736 -0.1520 -0.0825 -0.0464
 2906SOL     OW 9616   5.926   5.654   3.335 -0.1733  0.4203 -0.1253
 2906SOL    HW1 9617   6.011   5.700   3.310 -0.2076  1.0851  0.9224
 2906SOL    HW2 9618   5.901   5.589   3.264  1.1385  0.3141 -0.5093
 2907SOL     OW 9619   6.506   0.796   3.939  0.0010 -0.0733 -0.1887
 2907SOL    HW1 9620   6.602   0.814   3.918  0.5909 -1.4722  1.0938
 2907SOL    HW2 9621   6.450   0.875   3.913  1.4879  0.7747 -0.9237
 2908SOL     OW 9622   2.868   6.271   4.512  0.3359  0.1808 -0.1817
 2908SOL    HW1 9623   2.855   6.260   4.610 -0.6468  3.1014  0.1109
 2908SOL    HW2 9624   2.946   6.332   4.495  0.9217 -0.8210 -1.2765
 2909SOL     OW 9625   2.637   6.433   2.110  0.1538  0.8982 -0.2811
 2909SOL    HW1 9626   2.699   6.390   2.176 -1.2612 -1.5179 -0.4028
 2909SOL    HW2 9627   2.560   6.475   2.159  0.3140  1.2091 -0.2917
 2910SOL     OW 9628   6.325   5.783   0.157  0.0208 -0.4265  0.3670
 2910SOL    HW1 9629   6.283   5.692   0.165  2.4787 -1.7586 -0.6593
 2910SOL    HW2 9630   6.314   5.816   0.063 -1.1738  0.5635  0.8216
 2911SOL     OW 9631   4.353   1.530   6.319 -0.6314 -0.3370  0.1495
 2911SOL    HW1 9632   4.377   1.615   6.271 -0.5165 -0.1550  0.5202
 2911SOL    HW2 9633   4.370   1.542   6.417 -1.9732 -0.3113  0.3896
 2912SOL     OW 9634   5.142   4.646   6.003  0.3992  0.3919 -0.3318
 2912SOL    HW1 9635   5.157   4.691   5.915 -1.5016  2.1038  0.1516
 2912SOL    HW2 9636   5.178   4.552   5.999  0.1419  0.3371 -2.9841
 2913SOL     OW 9637   6.510   6.233   3.240 -1.0508 -0.0594  0.0907
 2913SOL    HW1 9638   6.476   6.214   3.148 -0.4108  1.6182 -0.5415
 2913SOL    HW2 9639   6.544   6.149   3.281  0.9143 -0.4625 -2.1557
 2914SOL     OW 9640   5.280   3.781   3.612 -0.2027 -0.0014  0.2816
 2914SOL    HW1 9641   5.264   3.750   3.518 -1.5036  1.3234  0.0470
 2914SOL    HW2 9642   5.352   3.851   3.612  1.3644 -1.5276  0.5845
 2915SOL     OW 9643   1.346   5.399   5.780 -0.5166  0.3132 -0.0314
 2915SOL    HW1 9644   1.364   5.369   5.874  0.5299  1.2222  0.0734
 2915SOL    HW2 9645   1.248   5.421   5.771 -1.3919 -3.0846 -0.1528
 2916SOL     OW 9646   3.159   4.931   5.722 -0.6252  0.0291  0.4416
 2916SOL    HW1 9647   3.074   4.892   5.758 -1.9545  0.7002 -1.8099
 2916SOL    HW2 9648   3.150   4.947   5.624  1.1270  2.6532  0.6032
 2917SOL     OW 9649   3.207   6.326   6.658  0.6434 -0.4714  0.3270
 2917SOL    HW1 9650   3.146   6.363   6.588  3.4812 -0.2296 -2.1867
 2917SOL    HW2 9651   3.257   6.400   6.702 -0.0299 -0.7464  1.6020
 2918SOL     OW 9652   5.847   3.601   5.650 -0.0772 -0.0942  0.8132
 2918SOL    HW1 9653   5.774   3.603   5.718 -0.2328 -0.9967  0.6810
 2918SOL    HW2 9654   5.856   3.509   5.613  0.0480  0.3632 -0.3480
 2919SOL     OW 9655   1.725   4.264   0.977  0.6068 -0.7824 -0.2743
 2919SOL    HW1 9656   1.752   4.260   0.881 -3.0823 -1.9033 -1.4400
 2919SOL    HW2 9657   1.692   4.174   1.006 -1.2361  0.2408  1.0197
 2920SOL     OW 9658   0.697   3.450   0.942 -0.3829 -0.5676 -0.4737
 2920SOL    HW1 9659   0.671   3.546   0.953 -1.0924 -0.8734  0.7290
 2920SOL    HW2 9660   0.719   3.410   1.031 -0.9053 -1.7418 -0.8438
 2921SOL     OW 9661   4.407   0.158   4.138  0.5028 -0.2566 -0.2756
 2921SOL    HW1 9662   4.387   0.253   4.161  0.4790 -0.1523 -0.7069
 2921SOL    HW2 9663   4.441   0.154   4.044 -1.4181 -0.9018 -0.9890
 2922SOL     OW 9664   5.464   6.078   3.338 -0.2303 -0.4915  0.0252
 2922SOL    HW1 9665   5.520   6.038   3.411 -1.9670  0.2873  1.8778
 2922SOL    HW2 9666   5.417   6.159   3.372  0.3183  1.0359 -2.5624
 2923SOL     OW 9667   2.386   5.360   2.807  0.3736  0.1978  0.1340
 2923SOL    HW1 9668   2.365   5.399   2.717 -1.9913 -0.3777  0.3679
 2923SOL    HW2 9669   2.312   5.299   2.835  1.9840 -1.1742  1.6454
 2924SOL     OW 9670   3.369   2.868   5.574 -0.2843  0.2884  0.1581
 2924SOL    HW1 9671   3.415   2.797   5.627 -0.6577 -0.3954 -0.4319
 2924SOL    HW2 9672   3.271   2.863   5.590 -0.3168  0.6672  0.0955
 2925SOL     OW 9673   1.904   2.839   0.557 -0.5980  0.1235 -0.3335
 2925SOL    HW1 9674   1.910   2.740   0.568 -1.9811  0.0666  0.0993
 2925SOL    HW2 9675   1.936   2.884   0.641 -0.5198  0.0335 -0.3147
 2926SOL     OW 9676   1.591   2.555   5.701 -0.2029 -0.6984  0.0116
 2926SOL    HW1 9677   1.535   2.568   5.783  0.3430 -0.5578  0.3701
 2926SOL    HW2 9678   1.662   2.625   5.698 -0.5597 -0.3652 -0.8834
 2927SOL     OW 9679   0.605   4.411   4.516 -0.2118 -0.6709 -0.4723
 2927SOL    HW1 9680   0.651   4.451   4.437  0.3039 -1.1242 -0.4064
 2927SOL    HW2 9681   0.640   4.453   4.600  0.0789 -1.0050 -0.4234
 2928SOL     OW 9682   2.185   4.240   0.319 -0.0053  0.2973  0.2353
 2928SOL    HW1 9683   2.258   4.175   0.338 -0.9920 -1.0219 -0.3172
 2928SOL    HW2 9684   2.213   4.302   0.246  0.8695  0.3848  0.6311
 2929SOL     OW 9685   2.238   7.016   6.121 -0.8211  0.3274 -0.1713
 2929SOL    HW1 9686   2.160   6.953   6.121 -0.4591 -0.1231 -0.6988
 2929SOL    HW2 9687   2.218   7.093   6.181 -1.5027 -0.0005  0.0310
 2930SOL     OW 9688   1.516   6.494   6.159  0.3109 -0.0527  0.5148
 2930SOL    HW1 9689   1.568   6.579   6.144 -3.6571  2.6499  0.4208
 2930SOL    HW2 9690   1.498   6.484   6.257  0.6081 -0.7127  0.5028
 2931SOL     OW 9691   2.391   0.617   6.449 -0.0875 -0.2137 -0.0239
 2931SOL    HW1 9692   2.327   0.546   6.481 -1.3763  1.5382  1.4668
 2931SOL    HW2 9693   2.340   0.687   6.399  0.9471  0.4065 -0.2353
 2932SOL     OW 9694   2.728   1.871   0.583 -0.5257  0.5948  0.2475
 2932SOL    HW1 9695   2.771   1.929   0.652 -1.8007  1.7623  0.1092
 2932SOL    HW2 9696   2.798   1.818   0.535  0.7642  2.4489 -0.0014
 2933SOL     OW 9697   6.409   4.161   2.039 -0.4807 -0.8730  0.1292
 2933SOL    HW1 9698   6.460   4.230   1.986 -2.3044  0.6614  0.2469
 2933SOL    HW2 9699   6.431   4.171   2.136 -0.9921 -0.1896  0.1848
 2934SOL     OW 9700   3.914   6.190   2.890  0.1574 -0.5858 -0.6181
 2934SOL    HW1 9701   3.996   6.178   2.946  0.6019 -0.3715 -1.2208
 2934SOL    HW2 9702   3.885   6.286   2.894 -1.6226 -1.1103  1.7272
 2935SOL     OW 9703   2.485   6.398   6.290  0.4489  0.0122 -0.1066
 2935SOL    HW1 9704   2.581   6.386   6.315  0.6359  1.1847 -0.1853
 2935SOL    HW2 9705   2.433   6.425   6.371  0.5998  1.4557 -0.4702
 2936SOL     OW 9706   5.801   6.646   4.018  0.8213  0.4694  0.0300
 2936SOL    HW1 9707   5.848   6.676   3.935  0.1376 -1.6066 -1.1872
 2936SOL    HW2 9708   5.869   6.621   4.088  1.5267 -0.5622 -0.9787
 2937SOL     OW 9709   1.273   5.703   5.947 -0.3762 -0.0308  0.1115
 2937SOL    HW1 9710   1.280   5.721   5.849  0.8808 -0.6702  0.0594
 2937SOL    HW2 9711   1.226   5.616   5.962 -0.7920  0.1897  0.0880
 2938SOL     OW 9712   2.126   1.174   0.401 -0.2287  0.0164 -0.1465
 2938SOL    HW1 9713   2.126   1.250   0.466  0.0664  0.4884 -0.6840
 2938SOL    HW2 9714   2.035   1.132   0.399 -0.0503 -0.4551  1.0708
 2939SOL     OW 9715   2.501   6.080   5.077  0.1106  0.4374 -0.1190
 2939SOL    HW1 9716   2.491   6.054   5.173 -0.1708  0.5365 -0.1220
 2939SOL    HW2 9717   2.532   6.175   5.070  4.5117 -0.7370  0.0035
 2940SOL     OW 9718   1.236   4.676   1.502  0.2872 -0.3014  0.0620
 2940SOL    HW1 9719   1.152   4.634   1.468 -0.0538  0.7423 -0.4070
 2940SOL    HW2 9720   1.248   4.653   1.598  0.0668 -1.3916 -0.1499
 2941SOL     OW 9721   1.585   3.062   1.217  0.1917  0.6846 -0.0094
 2941SOL    HW1 9722   1.627   2.997   1.281 -0.3631 -0.6059 -0.9162
 2941SOL    HW2 9723   1.551   3.141   1.268  0.8813  0.2815  1.1277
 2942SOL     OW 9724   1.395   2.013   0.670 -0.1617  0.2187 -0.1997
 2942SOL    HW1 9725   1.442   2.010   0.582  1.4633  3.4152  0.3914
 2942SOL    HW2 9726   1.340   2.097   0.674 -2.6980 -1.3777  0.7549
 2943SOL     OW 9727   1.746   5.902   6.315 -0.1907  0.1177 -0.6244
 2943SOL    HW1 9728   1.824   5.850   6.351 -1.4083 -1.2546  0.1365
 2943SOL    HW2 9729   1.755   5.998   6.342  2.2349  0.4397 -2.2686
 2944SOL     OW 9730   2.283   4.909   0.667 -0.2438  0.3254  0.8390
 2944SOL    HW1 9731   2.236   4.944   0.586  0.4072  0.2197  0.3996
 2944SOL    HW2 9732   2.220   4.904   0.744 -1.3492 -1.2835 -0.1188
 2945SOL     OW 9733   0.542   5.293   3.359  0.4182  0.0083  0.0908
 2945SOL    HW1 9734   0.497   5.212   3.396  0.2994  0.9967  2.3023
 2945SOL    HW2 9735   0.598   5.336   3.430  1.7060  1.0264 -1.4616
 2946SOL     OW 9736   5.084   4.501   4.400  0.4077  0.5156 -0.2009
 2946SOL    HW1 9737   5.109   4.559   4.323  0.9817  1.7414  0.8585
 2946SOL    HW2 9738   5.138   4.528   4.480 -1.2550  0.3505  1.0348
 2947SOL     OW 9739   0.724   4.204   1.721 -1.2015  0.0075 -1.1393
 2947SOL    HW1 9740   0.683   4.279   1.773  0.9357  0.9299 -0.6561
 2947SOL    HW2 9741   0.751   4.131   1.784 -1.1401 -0.1106 -1.3033
 2948SOL     OW 9742   0.308   5.369   0.401 -0.1983 -0.2177  0.1721
 2948SOL    HW1 9743   0.258   5.340   0.319 -0.9582 -0.5612  0.7507
 2948SOL    HW2 9744   0.405   5.379   0.379 -0.4497  0.0631 -0.8644
 2949SOL     OW 9745   6.135   6.233   3.840 -0.1252 -0.0035 -0.0046
 2949SOL    HW1 9746   6.174   6.141   3.840  0.3645  0.1986  0.5979
 2949SOL    HW2 9747   6.120   6.263   3.745 -1.6760 -1.2676 -0.2007
 2950SOL     OW 9748   6.758   0.248   0.032 -0.2769 -0.4572  0.0315
 2950SOL    HW1 9749   6.711   0.174   0.080  1.6575 -2.5803 -1.1598
 2950SOL    HW2 9750   6.783   0.320   0.098 -1.2479 -1.3564  1.4290
 2951SOL     OW 9751   5.241   3.145   1.989 -0.2949  0.1610 -1.0002
 2951SOL    HW1 9752   5.270   3.218   2.050 -2.5531  0.6968 -0.4530
 2951SOL    HW2 9753   5.184   3.080   2.040  2.5167 -2.6679 -1.2049
 2952SOL     OW 9754   4.904   1.622   0.283  0.0795 -0.1287 -0.6166
 2952SOL    HW1 9755   4.868   1.550   0.223 -1.3126 -1.4533  1.6588
 2952SOL    HW2 9756   4.987   1.589   0.329  2.2823  1.5751 -3.0663
 2953SOL     OW 9757   5.079   6.362   4.353  0.2515 -0.3937 -0.2666
 2953SOL    HW1 9758   5.157   6.306   4.325 -0.3830 -1.8508  0.7535
 2953SOL    HW2 9759   5.013   6.305   4.402 -1.5352  0.7680 -1.2246
 2954SOL     OW 9760   5.332   4.846   2.652 -0.0003  0.4490  0.0504
 2954SOL    HW1 9761   5.337   4.755   2.612  2.7155 -0.7449  2.6902
 2954SOL    HW2 9762   5.269   4.845   2.730  3.2128 -0.5976  2.8632
 2955SOL     OW 9763   2.477   5.881   0.436 -0.1657  0.5183 -0.2752
 2955SOL    HW1 9764   2.488   5.788   0.471 -1.0172 -0.2664 -2.0189
 2955SOL    HW2 9765   2.550   5.939   0.474  0.0915 -0.7153  1.2138
 2956SOL     OW 9766   2.554   2.311   0.670  0.1891 -0.4135  0.1390
 2956SOL    HW1 9767   2.502   2.229   0.649 -0.2849 -0.3286  0.9287
 2956SOL    HW2 9768   2.554   2.372   0.590 -0.2735 -0.7527 -0.1260
 2957SOL     OW 9769   2.043   4.019   0.075 -0.1456  0.6157  0.0373
 2957SOL    HW1 9770   2.140   3.996   0.089  0.0222  0.5322 -1.1558
 2957SOL    HW2 9771   2.034   4.118   0.064 -0.3167  0.7134  0.9937
 2958SOL     OW 9772   0.405   0.833   3.229  0.0105 -1.0687 -0.1843
 2958SOL    HW1 9773   0.342   0.910   3.220 -1.2308 -1.9380  0.7078
 2958SOL    HW2 9774   0.396   0.773   3.149  0.2149 -0.8365 -0.3830
 2959SOL     OW 9775   1.971   3.882   3.010  0.2699 -0.4055 -0.0879
 2959SOL    HW1 9776   1.945   3.805   2.953  2.1576 -0.9945 -0.2191
 2959SOL    HW2 9777   1.909   3.959   2.993 -1.6607 -1.8518  0.0694
 2960SOL     OW 9778   1.842   3.888   4.967  0.2969 -0.2751  0.3343
 2960SOL    HW1 9779   1.796   3.971   5.000  0.4178 -0.4092  0.8515
 2960SOL    HW2 9780   1.898   3.850   5.041 -1.0474 -1.7474  0.6185
 2961SOL     OW 9781   3.123   2.114   1.994  0.2629 -0.6901 -0.1429
 2961SOL    HW1 9782   3.049   2.175   2.023  0.6466 -0.7621  1.0673
 2961SOL    HW2 9783   3.088   2.021   1.987 -0.0940 -0.4982 -1.0318
 2962SOL     OW 9784   2.802   6.312   6.610 -0.0882  0.0268 -0.2251
 2962SOL    HW1 9785   2.876   6.361   6.566  1.2580 -0.0973  1.7467
 2962SOL    HW2 9786   2.734   6.377   6.645 -0.3190  0.2144 -1.0113
 2963SOL     OW 9787   5.918   5.677   6.078  0.7756  0.0614 -1.1106
 2963SOL    HW1 9788   6.016   5.695   6.087  0.6478  0.5645 -0.7038
 2963SOL    HW2 9789   5.886   5.710   5.989  0.9437  0.0283 -1.1836
 2964SOL     OW 9790   1.590   5.887   5.857 -0.2032  0.0802  0.0840
 2964SOL    HW1 9791   1.522   5.851   5.792 -0.9515  0.4407  0.6597
 2964SOL    HW2 9792   1.551   5.888   5.949  0.5189  0.4897  0.3910
 2965SOL     OW 9793   2.255   1.521   5.140  0.0969  0.4890 -0.2635
 2965SOL    HW1 9794   2.163   1.544   5.108 -0.0144 -0.2702 -0.5282
 2965SOL    HW2 9795   2.309   1.485   5.063  0.1313 -0.4634  0.1956
 2966SOL     OW 9796   4.552   4.928   0.661 -0.0669 -0.6187 -0.1541
 2966SOL    HW1 9797   4.620   4.986   0.706 -0.2337 -0.4889 -0.0683
 2966SOL    HW2 9798   4.599   4.855   0.611  0.1487 -0.3397 -0.3624
 2967SOL     OW 9799   6.613   5.160   6.565  0.0060  0.3034  0.6619
 2967SOL    HW1 9800   6.695   5.169   6.508  0.4445  0.4131  1.3027
 2967SOL    HW2 9801   6.578   5.067   6.559 -0.2175  0.4283 -0.1391
 2968SOL     OW 9802   1.800   1.094   2.069 -0.1782 -0.1462 -0.2302
 2968SOL    HW1 9803   1.710   1.123   2.037 -0.3919 -0.9270 -0.3506
 2968SOL    HW2 9804   1.837   1.163   2.132 -0.7752  0.2596 -0.3136
 2969SOL     OW 9805   3.195   5.154   3.644 -0.3179  0.1587 -0.0797
 2969SOL    HW1 9806   3.109   5.111   3.668  0.8100 -1.4057  1.3246
 2969SOL    HW2 9807   3.181   5.253   3.633 -2.5297 -0.2354 -1.3175
 2970SOL     OW 9808   5.432   5.569   5.127 -0.3318  0.4328 -0.0578
 2970SOL    HW1 9809   5.478   5.655   5.105 -1.8613  1.7482  1.5315
 2970SOL    HW2 9810   5.353   5.588   5.186  0.2408 -2.2220  1.7558
 2971SOL     OW 9811   2.421   1.398   5.913 -0.3236  0.1221  0.2597
 2971SOL    HW1 9812   2.426   1.303   5.884 -0.3262  0.0500  0.4940
 2971SOL    HW2 9813   2.470   1.409   6.000 -1.3797  0.0894  0.8713
 2972SOL     OW 9814   3.502   0.921   1.284 -0.2416  0.5110 -0.0515
 2972SOL    HW1 9815   3.459   1.004   1.247  0.3848  0.5175 -0.7684
 2972SOL    HW2 9816   3.494   0.847   1.218 -0.5829  0.0552  0.4899
 2973SOL     OW 9817   2.582   6.123   0.718  0.3739  0.1730  0.1651
 2973SOL    HW1 9818   2.677   6.136   0.747  0.9974  0.4378 -1.8352
 2973SOL    HW2 9819   2.549   6.035   0.750  1.7050 -0.4518 -0.1115
 2974SOL     OW 9820   2.453   0.011   5.368 -0.0973  0.4985 -0.3345
 2974SOL    HW1 9821   2.540   0.055   5.390 -0.6793  1.2468  0.5466
 2974SOL    HW2 9822   2.459  -0.031   5.277  1.5200 -0.4195  0.1610
 2975SOL     OW 9823   4.380   1.276   0.855 -0.2070 -0.6724  0.3763
 2975SOL    HW1 9824   4.393   1.280   0.756  0.8989 -0.1802  0.5344
 2975SOL    HW2 9825   4.311   1.207   0.876 -0.5268 -0.7188 -0.7359
 2976SOL     OW 9826   2.356   1.312   2.539  1.1056  0.4761 -0.8305
 2976SOL    HW1 9827   2.338   1.347   2.447  3.0947  1.8788 -0.7732
 2976SOL    HW2 9828   2.455   1.315   2.556  0.8958 -1.0237  0.8782
 2977SOL     OW 9829   6.775   0.831   5.298 -0.2294 -0.1014  0.0871
 2977SOL    HW1 9830   6.833   0.788   5.230  1.3055  1.2204  0.4973
 2977SOL    HW2 9831   6.693   0.868   5.254 -0.2088 -0.9609 -0.6981
 2978SOL     OW 9832   6.989   0.350   0.803 -0.0024 -0.0164  0.1710
 2978SOL    HW1 9833   6.925   0.316   0.872  1.8447 -2.2137  0.9012
 2978SOL    HW2 9834   7.072   0.296   0.805  0.6470  0.6874 -2.9447
 2979SOL     OW 9835   2.893   1.436   1.978  0.0818  0.3504  0.0053
 2979SOL    HW1 9836   2.877   1.337   1.980  1.9942 -0.0006  0.5512
 2979SOL    HW2 9837   2.822   1.483   2.030 -0.9252 -0.7214 -0.3737
 2980SOL     OW 9838   3.806   6.958   3.369  0.0185  0.1344 -0.0192
 2980SOL    HW1 9839   3.884   6.956   3.431 -0.6045 -1.6139  0.7919
 2980SOL    HW2 9840   3.830   6.913   3.283  0.7730  2.2488 -0.9912
 2981SOL     OW 9841   2.190   3.464   5.757  0.0171  0.5322 -0.0682
 2981SOL    HW1 9842   2.280   3.507   5.761  0.0828  0.3434  0.4978
 2981SOL    HW2 9843   2.149   3.462   5.848  0.1450 -0.8717 -0.0092
 2982SOL     OW 9844   5.943   5.004   1.562 -0.5330 -0.1388 -0.4085
 2982SOL    HW1 9845   5.850   5.028   1.534  0.2448  2.2193 -1.2076
 2982SOL    HW2 9846   6.002   5.085   1.556  1.2957 -1.2327  1.3715
 2983SOL     OW 9847   3.993   2.685   6.884 -0.8511  0.1913 -0.1271
 2983SOL    HW1 9848   4.056   2.607   6.879 -1.2409 -0.2394  1.1254
 2983SOL    HW2 9849   4.036   2.765   6.844  1.0201  0.2091  1.7449
 2984SOL     OW 9850   0.798   2.253   0.516  0.4077 -0.8957 -0.3640
 2984SOL    HW1 9851   0.874   2.313   0.543 -2.3113  1.8596  2.0944
 2984SOL    HW2 9852   0.752   2.291   0.436 -1.0075  0.1442  0.8839
 2985SOL     OW 9853   6.521   4.411   3.414  0.0928 -0.8087  0.0336
 2985SOL    HW1 9854   6.592   4.351   3.451  0.9270 -0.1420 -0.4543
 2985SOL    HW2 9855   6.444   4.355   3.381  1.0959 -1.6692 -0.9435
 2986SOL     OW 9856   1.394   6.932   4.950  0.3684  0.6141  0.0301
 2986SOL    HW1 9857   1.489   6.900   4.951  0.1831 -0.1963  3.1949
 2986SOL    HW2 9858   1.357   6.925   4.857  2.8055 -0.7840 -0.9243
 2987SOL     OW 9859   1.351   5.591   4.455 -0.4673  0.0128  0.6158
 2987SOL    HW1 9860   1.336   5.523   4.383 -1.0816  0.0236  0.7263
 2987SOL    HW2 9861   1.286   5.666   4.444 -0.0848  0.3665  0.7572
 2988SOL     OW 9862   0.187   2.249   2.383 -0.1347 -0.2922  0.0107
 2988SOL    HW1 9863   0.184   2.271   2.480  0.6046  0.5341 -0.1386
 2988SOL    HW2 9864   0.121   2.305   2.334 -2.1212 -2.2746  0.2825
 2989SOL     OW 9865   3.224   2.520   6.919 -0.0885  0.6143  0.2021
 2989SOL    HW1 9866   3.285   2.568   6.981  0.3133  1.2844 -0.6940
 2989SOL    HW2 9867   3.184   2.441   6.966 -1.1777  2.0816  1.8931
 2990SOL     OW 9868   6.265   5.189   0.778  0.0145 -0.5028  0.7238
 2990SOL    HW1 9869   6.273   5.093   0.748  1.2796  0.2204 -1.4484
 2990SOL    HW2 9870   6.168   5.213   0.785 -0.3471 -1.3460 -0.8917
 2991SOL     OW 9871   0.662   1.914   0.508 -0.4697 -0.7043  0.9056
 2991SOL    HW1 9872   0.666   1.976   0.587 -0.5861  2.2086 -1.2080
 2991SOL    HW2 9873   0.746   1.860   0.504  1.0769  1.5326  1.2265
 2992SOL     OW 9874   1.493   1.396   6.203 -0.1805  0.5738  0.2616
 2992SOL    HW1 9875   1.399   1.408   6.169 -0.3867 -1.0082  0.2101
 2992SOL    HW2 9876   1.536   1.486   6.212 -2.3745  1.5565  2.2829
 2993SOL     OW 9877   4.227   6.911   6.605  0.0580  0.5820 -0.4728
 2993SOL    HW1 9878   4.298   6.853   6.567  0.3146  0.6439 -0.0956
 2993SOL    HW2 9879   4.225   6.900   6.704  0.7849  1.9444 -0.2765
 2994SOL     OW 9880   6.022   5.210   4.739  0.2364  0.2704  0.2954
 2994SOL    HW1 9881   5.975   5.171   4.818  1.0880  0.5786  0.9681
 2994SOL    HW2 9882   6.068   5.136   4.688  1.6634  0.3211  1.4466
 2995SOL     OW 9883   6.868   1.123   1.272 -0.2309  0.7849  0.1852
 2995SOL    HW1 9884   6.921   1.126   1.357 -0.4805  1.3463  0.3240
 2995SOL    HW2 9885   6.778   1.162   1.287 -0.6084  0.0393 -0.1131
 2996SOL     OW 9886   1.545   3.092   6.014 -0.2265  0.4489 -0.5645
 2996SOL    HW1 9887   1.578   3.112   5.922  0.3845 -1.9361 -0.9338
 2996SOL    HW2 9888   1.512   2.998   6.018  0.3186  0.2889  1.8027
 2997SOL     OW 9889   3.968   3.112   2.871  0.7357 -0.1685  0.2918
 2997SOL    HW1 9890   3.996   3.133   2.777  1.3239  2.6186  1.0123
 2997SOL    HW2 9891   3.885   3.056   2.869 -0.1851  1.1233 -1.9397
 2998SOL     OW 9892   2.844   0.691   6.195  0.0727  0.1541  0.4889
 2998SOL    HW1 9893   2.837   0.790   6.178 -0.7560  0.3502  1.8376
 2998SOL    HW2 9894   2.940   0.666   6.206  0.5073  0.3682 -2.1650
 2999SOL     OW 9895   0.559   3.794   6.244  0.8107  0.2911  0.0237
 2999SOL    HW1 9896   0.643   3.752   6.277  0.4794 -0.2523  0.1966
 2999SOL    HW2 9897   0.484   3.771   6.307  0.7166  1.5808  0.4145
 3000SOL     OW 9898   3.385   2.953   4.142 -0.0911 -0.8103  0.5742
 3000SOL    HW1 9899   3.312   3.000   4.192 -0.6176 -1.4897  0.4655
 3000SOL    HW2 9900   3.443   2.903   4.206 -0.2534 -0.9875  0.5831
 3001SOL     OW 9901   1.352   4.623   5.911 -0.3219  0.1878  0.5977
 3001SOL    HW1 9902   1.419   4.553   5.937 -0.3455 -0.0265  0.1022
 3001SOL    HW2 9903   1.282   4.631   5.982 -0.5298 -0.5652  0.4837
 3002SOL     OW 9904   3.279   4.873   2.777  0.4423  0.1376  0.1099
 3002SOL    HW1 9905   3.282   4.968   2.807 -0.4699  0.6859 -1.4551
 3002SOL    HW2 9906   3.196   4.829   2.813  0.5534  0.0959  0.3209
 3003SOL     OW 9907   5.505   3.362   3.126 -0.5499 -0.0174  0.9026
 3003SOL    HW1 9908   5.498   3.421   3.046 -0.5231 -2.7820 -1.2897
 3003SOL    HW2 9909   5.465   3.409   3.205 -2.6223  2.0236 -1.1777
 3004SOL     OW 9910   6.966   2.968   1.407 -0.0940 -0.2575  0.0929
 3004SOL    HW1 9911   7.002   2.909   1.479  1.4640 -2.4412 -2.2846
 3004SOL    HW2 9912   6.886   2.926   1.366  0.8320 -0.6231 -1.4113
 3005SOL     OW 9913   6.456   5.384   6.511  0.8783  0.0737  0.8682
 3005SOL    HW1 9914   6.375   5.355   6.459  1.9269  1.6878 -1.9152
 3005SOL    HW2 9915   6.523   5.310   6.511  0.6906 -0.1092  0.2280
 3006SOL     OW 9916   5.316   4.398   5.101 -0.3760  0.0057  0.2185
 3006SOL    HW1 9917   5.330   4.341   5.019  1.8496 -0.8646  1.1244
 3006SOL    HW2 9918   5.223   4.386   5.134 -0.5301 -1.6730 -0.7168
 3007SOL     OW 9919   2.049   1.807   3.845  0.5980 -0.2398  0.0111
 3007SOL    HW1 9920   2.075   1.887   3.899 -0.5103  0.6315 -0.7068
 3007SOL    HW2 9921   2.126   1.779   3.787  2.3344 -2.0752  2.9704
 3008SOL     OW 9922   1.221   3.175   5.511 -0.3330 -0.1687 -0.3978
 3008SOL    HW1 9923   1.222   3.263   5.465 -1.3151 -0.9752 -2.0462
 3008SOL    HW2 9924   1.193   3.188   5.607 -2.6735  1.1007 -1.1735
 3009SOL     OW 9925   3.462   4.012   3.061 -0.0293 -0.7082 -0.2092
 3009SOL    HW1 9926   3.473   3.921   3.021  0.4494 -1.9671  2.5562
 3009SOL    HW2 9927   3.548   4.039   3.106 -0.2985  0.9443 -0.6227
 3010SOL     OW 9928   5.190   0.775   5.598 -0.4722  0.8211  0.1895
 3010SOL    HW1 9929   5.137   0.809   5.677 -0.0366  1.4919  0.2003
 3010SOL    HW2 9930   5.285   0.803   5.608 -0.1452 -0.2402  0.0843
 3011SOL     OW 9931   2.587   0.864   3.639  0.5930 -0.1766  0.0706
 3011SOL    HW1 9932   2.617   0.815   3.721  1.1669 -0.1791 -0.1359
 3011SOL    HW2 9933   2.658   0.857   3.568 -0.2150 -0.8165 -0.6943
 3012SOL     OW 9934   5.724   1.621   3.818  0.5626  0.4527 -0.3462
 3012SOL    HW1 9935   5.665   1.543   3.796  0.3195  0.5960 -0.2134
 3012SOL    HW2 9936   5.728   1.683   3.739  1.5293 -0.1692 -0.7973
 3013SOL     OW 9937   4.571   0.323   3.326 -0.2640 -0.5414  0.0963
 3013SOL    HW1 9938   4.516   0.372   3.394 -2.4855 -1.4556 -0.9293
 3013SOL    HW2 9939   4.523   0.323   3.238  2.1360 -0.1056 -1.3004
 3014SOL     OW 9940   2.844   6.005   0.447 -0.1003 -0.0549 -0.8347
 3014SOL    HW1 9941   2.807   6.023   0.357 -0.3114 -0.7298 -0.8904
 3014SOL    HW2 9942   2.921   6.067   0.465  0.3753 -0.3614 -1.7474
 3015SOL     OW 9943   4.949   6.851   0.698 -0.4258  1.1789 -0.5093
 3015SOL    HW1 9944   4.926   6.948   0.684  1.2342  1.7194  0.3142
 3015SOL    HW2 9945   4.889   6.813   0.768 -0.6802  1.7848 -0.3903
 3016SOL     OW 9946   0.907   4.876   5.401  0.0527 -0.1865 -0.4320
 3016SOL    HW1 9947   0.923   4.777   5.410 -0.7112 -0.3263 -0.5243
 3016SOL    HW2 9948   0.955   4.910   5.320  0.8301 -0.3609 -0.0478
 3017SOL     OW 9949   3.582   6.808   3.969 -0.2245 -0.1507 -0.9245
 3017SOL    HW1 9950   3.553   6.712   3.973 -0.2641 -0.1436 -1.0184
 3017SOL    HW2 9951   3.532   6.861   4.037  0.4749 -0.3713 -0.2310
 3018SOL     OW 9952   5.894   1.021   5.345 -0.2667 -0.2268  0.2602
 3018SOL    HW1 9953   5.990   1.007   5.323 -0.3892 -0.2096 -0.2859
 3018SOL    HW2 9954   5.857   1.096   5.290  0.5109  2.7602  3.4044
 3019SOL     OW 9955   3.101   2.602   1.450  0.3174  0.1107 -0.0334
 3019SOL    HW1 9956   3.190   2.646   1.445  0.4344 -0.0956  0.1934
 3019SOL    HW2 9957   3.030   2.666   1.420  0.6957 -0.2387 -1.7577
 3020SOL     OW 9958   3.052   1.895   0.756  0.4181  0.2286  0.2766
 3020SOL    HW1 9959   3.008   1.983   0.736 -0.7895 -0.4961 -0.4208
 3020SOL    HW2 9960   3.024   1.863   0.846  2.3410  1.4008  1.3544
 3021SOL     OW 9961   2.164   3.308   3.654  0.4145 -1.0991  0.8182
 3021SOL    HW1 9962   2.175   3.236   3.723 -0.6190 -0.6923  1.4209
 3021SOL    HW2 9963   2.188   3.271   3.564 -0.2177 -2.2497  1.1029
 3022SOL     OW 9964   5.677   6.314   4.836 -0.8071 -0.1556  0.0066
 3022SOL    HW1 9965   5.757   6.275   4.881 -0.5406  0.4155  0.0272
 3022SOL    HW2 9966   5.594   6.269   4.871 -0.6180  0.3627  1.1610
 3023SOL     OW 9967   0.994   2.441   2.247 -0.1825  0.3932  0.2232
 3023SOL    HW1 9968   0.903   2.467   2.279 -0.8422 -1.1627 -0.2813
 3023SOL    HW2 9969   1.011   2.484   2.158 -0.5992  0.3573  0.1233
 3024SOL     OW 9970   2.570   2.202   5.993  0.2641 -0.0581  0.0946
 3024SOL    HW1 9971   2.670   2.211   5.992  0.3540  0.5137  3.2638
 3024SOL    HW2 9972   2.541   2.160   6.079 -2.2984  0.3841 -0.4637
 3025SOL     OW 9973   4.236   4.733   2.435 -0.0295 -0.0448  0.0225
 3025SOL    HW1 9974   4.239   4.833   2.434  0.6500 -0.0589 -1.2204
 3025SOL    HW2 9975   4.313   4.697   2.487  0.4781  0.0675 -0.6476
 3026SOL     OW 9976   2.266   6.437   3.826 -0.2886 -0.5971 -0.1932
 3026SOL    HW1 9977   2.332   6.427   3.751 -1.2087 -2.9661 -0.7829
 3026SOL    HW2 9978   2.242   6.533   3.836  2.3363  0.2192 -0.7196
 3027SOL     OW 9979   1.044   5.890   0.540  0.6681  0.0805  0.4372
 3027SOL    HW1 9980   1.052   5.833   0.458 -2.6019 -0.6545  0.4629
 3027SOL    HW2 9981   1.041   5.831   0.621 -1.3811  0.2822  0.5721
 3028SOL     OW 9982   1.088   2.076   1.431  0.6006  0.0042 -0.1900
 3028SOL    HW1 9983   1.131   1.986   1.436 -0.0197 -0.3658 -1.2791
 3028SOL    HW2 9984   1.061   2.095   1.337  0.3641  1.1662  0.0985
 3029SOL     OW 9985   2.281   4.671   0.356  0.4324 -0.9469  0.3109
 3029SOL    HW1 9986   2.212   4.674   0.428  0.1209 -0.3081 -0.0118
 3029SOL    HW2 9987   2.305   4.575   0.337 -0.3687 -1.1787  0.4260
 3030SOL     OW 9988   2.170   0.509   6.615  0.0320 -0.2445  0.5688
 3030SOL    HW1 9989   2.172   0.414   6.647 -3.3371 -0.5587  0.1261
 3030SOL    HW2 9990   2.090   0.524   6.557 -0.0201  3.0959  1.2972
 3031SOL     OW 9991   5.158   5.455   1.025 -0.2745  0.2721  0.0500
 3031SOL    HW1 9992   5.123   5.456   1.119  1.4408  0.5558  0.7156
 3031SOL    HW2 9993   5.142   5.364   0.985 -0.7619  0.0557  0.7050
 3032SOL     OW 9994   1.808   4.988   6.693  0.6723  0.0962 -0.1772
 3032SOL    HW1 9995   1.898   4.953   6.719  0.8473  0.6544 -0.0361
 3032SOL    HW2 9996   1.819   5.068   6.635  0.2833 -0.7641 -1.4918
 3033SOL     OW 9997   6.269   3.547   0.286  0.1392  0.0311 -0.3740
 3033SOL    HW1 9998   6.327   3.624   0.313 -0.4624  0.6382 -0.7668
 3033SOL    HW2 9999   6.234   3.563   0.194 -0.6923 -0.3046 -0.1223
 3034SOL     OW10000   0.339   1.994   2.436  0.3781 -0.2713  0.1781
 3034SOL    HW110001   0.406   2.046   2.489  0.1126  0.4515 -0.1837
 3034SOL    HW210002   0.270   2.056   2.398 -1.0450 -1.0865  1.3137
 3035SOL     OW10003   2.243   5.045   3.938 -0.3679 -0.0355  0.2384
 3035SOL    HW110004   2.338   5.015   3.934  0.0921  1.1521  1.4292
 3035SOL    HW210005   2.211   5.068   3.846  0.1853 -1.2983 -0.2925
 3036SOL     OW10006   0.786   5.621   2.259 -0.4739  0.7902  0.6168
 3036SOL    HW110007   0.742   5.560   2.326  2.5433 -2.8367 -0.4095
 3036SOL    HW210008   0.864   5.666   2.302 -0.8928  1.6340  0.5228
 3037SOL     OW10009   5.829   6.891   2.497 -0.0412  0.0832  0.4585
 3037SOL    HW110010   5.761   6.955   2.533 -0.6275  0.5800 -1.4495
 3037SOL    HW210011   5.785   6.804   2.475 -0.8720  1.3398 -3.6255
 3038SOL     OW10012   6.511   5.979   2.600  0.1083  0.1892 -0.0656
 3038SOL    HW110013   6.560   6.049   2.652  0.4010 -0.2247  0.2307
 3038SOL    HW210014   6.535   5.889   2.636  1.4363 -0.2179 -1.8401
 3039SOL     OW10015   5.526   1.798   5.892 -0.5781 -0.6675  0.0802
 3039SOL    HW110016   5.562   1.801   5.985 -0.0792 -0.2180 -0.1237
 3039SOL    HW210017   5.554   1.880   5.843 -0.3063 -1.1947 -0.6622
 3040SOL     OW10018   1.246   3.331   5.014 -0.3865  0.4455 -0.4053
 3040SOL    HW110019   1.211   3.362   5.103 -0.8168  2.2042 -1.1569
 3040SOL    HW210020   1.170   3.312   4.953 -0.1019  1.6451 -1.1718
 3041SOL     OW10021   4.943   4.811   5.084  0.9087  0.1828  0.2693
 3041SOL    HW110022   4.896   4.899   5.085  0.5074  0.1831 -3.5718
 3041SOL    HW210023   5.040   4.825   5.065  1.3461 -0.1548  2.0554
 3042SOL     OW10024   0.916   6.281   0.938 -0.5005  0.0911  0.5874
 3042SOL    HW110025   0.933   6.380   0.929 -1.8067  0.3941  1.2224
 3042SOL    HW210026   0.936   6.236   0.851  0.8665  0.7883  0.5196
 3043SOL     OW10027   0.187   3.352   0.377  0.2547 -0.2807 -0.2482
 3043SOL    HW110028   0.257   3.301   0.426  1.0884  1.1627  0.1230
 3043SOL    HW210029   0.172   3.310   0.287  0.4489 -1.5237  0.2825
 3044SOL     OW10030   0.601   4.397   5.754 -0.3582 -0.5406  0.5421
 3044SOL    HW110031   0.634   4.312   5.793  2.6567  0.5959  0.7277
 3044SOL    HW210032   0.651   4.474   5.793 -2.4236  1.2952 -0.1905
 3045SOL     OW10033   3.025   5.924   6.283  0.5423  1.2951 -0.2104
 3045SOL    HW110034   2.932   5.886   6.287  0.8333  0.5932  0.1263
 3045SOL    HW210035   3.045   5.955   6.190  2.1600 -4.3600 -2.1765
 3046SOL     OW10036   1.753   6.294   1.650 -0.4966 -0.2263 -0.0895
 3046SOL    HW110037   1.668   6.307   1.599 -0.4464 -1.4293 -0.5133
 3046SOL    HW210038   1.828   6.342   1.602 -0.7408 -0.0330 -0.2807
 3047SOL     OW10039   5.337   0.435   1.351  0.5295 -0.2122  0.5669
 3047SOL    HW110040   5.420   0.450   1.404  0.8954  1.9790 -0.5110
 3047SOL    HW210041   5.276   0.514   1.360 -1.1383 -1.4648  0.7585
 3048SOL     OW10042   6.831   1.754   4.771 -0.4376 -0.1095  0.1076
 3048SOL    HW110043   6.829   1.735   4.673 -0.5059 -0.6260  0.2057
 3048SOL    HW210044   6.925   1.752   4.804 -0.3419  0.8582 -0.0957
 3049SOL     OW10045   4.164   2.471   6.882 -0.1853  0.2019  1.2560
 3049SOL    HW110046   4.175   2.374   6.861 -1.5567  0.2009  0.4959
 3049SOL    HW210047   4.203   2.526   6.808  0.5241  0.2566  1.6518
 3050SOL     OW10048   0.488   0.462   5.821  0.0595 -0.2967 -0.6863
 3050SOL    HW110049   0.510   0.415   5.907 -2.0412  0.2209  0.2007
 3050SOL    HW210050   0.496   0.397   5.745  0.6948 -1.1126  0.0568
 3051SOL     OW10051   1.456   1.260   1.116 -0.3421  0.1140  0.3768
 3051SOL    HW110052   1.454   1.359   1.104 -1.0745 -0.0227 -0.7728
 3051SOL    HW210053   1.544   1.224   1.085 -0.3370  0.3321  0.1391
 3052SOL     OW10054   1.007   0.666   3.504 -0.2050 -0.1207  0.2143
 3052SOL    HW110055   1.090   0.706   3.544 -1.0618  1.8136  0.1575
 3052SOL    HW210056   1.031   0.618   3.420  0.7256  1.4384 -0.4552
 3053SOL     OW10057   1.719   2.603   3.434  0.2393 -0.4812  0.3669
 3053SOL    HW110058   1.768   2.531   3.482  2.4746  0.1303 -0.8868
 3053SOL    HW210059   1.748   2.692   3.468 -0.1148 -0.1020 -0.3031
 3054SOL     OW10060   5.450   6.364   2.728 -0.0917  0.7186 -0.4383
 3054SOL    HW110061   5.427   6.276   2.687  1.4827 -0.5359  1.2393
 3054SOL    HW210062   5.366   6.413   2.751 -1.0488 -1.3394  0.6443
 3055SOL     OW10063   2.627   3.841   0.946  0.2015  0.2651  0.3016
 3055SOL    HW110064   2.661   3.892   1.026 -1.7316  1.5507  0.3627
 3055SOL    HW210065   2.675   3.871   0.864  0.2595  0.9715  0.5893
 3056SOL     OW10066   2.854   0.217   4.237 -0.3160  0.1226  0.2994
 3056SOL    HW110067   2.889   0.206   4.144  0.8788  0.7224  0.6575
 3056SOL    HW210068   2.761   0.255   4.233 -0.0387  0.7315 -0.6386
 3057SOL     OW10069   3.138   3.096   6.381  0.0518  0.2307 -0.1016
 3057SOL    HW110070   3.229   3.065   6.409 -0.0500  0.1153  0.1011
 3057SOL    HW210071   3.133   3.099   6.281  0.5556  1.0539 -0.1080
 3058SOL     OW10072   5.640   1.610   2.946 -0.0145  0.8821 -0.7686
 3058SOL    HW110073   5.689   1.648   2.868  0.5854  2.1974  0.2161
 3058SOL    HW210074   5.684   1.524   2.973  0.7658  1.2297 -0.8930
 3059SOL     OW10075   1.116   0.481   1.985  0.1163 -0.6010 -0.2320
 3059SOL    HW110076   1.102   0.446   1.892  1.5770  0.2922 -0.8399
 3059SOL    HW210077   1.028   0.511   2.023 -0.3441  0.3074 -1.8856
 3060SOL     OW10078   4.484   2.537   4.446 -0.0293  0.4076 -0.3934
 3060SOL    HW110079   4.493   2.589   4.531  1.0963  0.2956 -0.4177
 3060SOL    HW210080   4.447   2.447   4.465 -0.2859  0.5749 -0.0982
 3061SOL     OW10081   1.734   6.144   0.403 -0.7474 -0.3868 -0.0877
 3061SOL    HW110082   1.756   6.049   0.426  1.7390 -0.4566 -2.3138
 3061SOL    HW210083   1.758   6.203   0.479 -0.4259 -1.3310  0.5661
 3062SOL     OW10084   3.870   5.803   5.256 -0.2623 -0.0291  0.0083
 3062SOL    HW110085   3.903   5.830   5.165 -0.1216 -0.9400 -0.2252
 3062SOL    HW210086   3.771   5.791   5.252 -0.2765  0.0890  0.0131
 3063SOL     OW10087   3.538   5.051   0.028  0.0314 -0.3812 -0.0074
 3063SOL    HW110088   3.613   4.991   0.001  3.2470  2.3505  2.0576
 3063SOL    HW210089   3.508   5.104  -0.051  0.0433 -1.6776 -0.9146
 3064SOL     OW10090   3.144   0.009   4.473  0.1216  0.3943  0.0408
 3064SOL    HW110091   3.210   0.024   4.400  0.7390 -0.7517  0.3444
 3064SOL    HW210092   3.052   0.011   4.436  0.4471 -0.7907 -0.8938
 3065SOL     OW10093   0.597   1.577   4.183  0.0753 -0.1326  0.3011
 3065SOL    HW110094   0.658   1.566   4.105  0.2577  1.4973  0.1662
 3065SOL    HW210095   0.643   1.544   4.266  0.8254  0.3078  0.0731
 3066SOL     OW10096   3.046   6.062   0.774 -0.7807 -0.5062 -0.2756
 3066SOL    HW110097   3.035   5.963   0.776  1.1815 -0.8930 -2.9950
 3066SOL    HW210098   3.065   6.092   0.680  2.0279  2.0050  0.9273
 3067SOL     OW10099   6.683   6.283   6.216  0.1559 -0.2404 -0.7712
 3067SOL    HW110100   6.738   6.286   6.300 -0.6456 -2.5356 -0.0980
 3067SOL    HW210101   6.632   6.368   6.207  0.3818  0.1191  0.9974
 3068SOL     OW10102   6.342   3.147   3.658  0.0132  0.8468 -0.3404
 3068SOL    HW110103   6.437   3.128   3.679 -0.0766  0.1512 -0.5628
 3068SOL    HW210104   6.314   3.231   3.705  0.5676  0.7442  0.1820
 3069SOL     OW10105   3.602   4.663   0.684  0.1039  0.8757 -0.0021
 3069SOL    HW110106   3.590   4.628   0.777  0.3755 -1.7583 -0.8950
 3069SOL    HW210107   3.676   4.731   0.684 -0.0363  1.0939  1.7088
 3070SOL     OW10108   6.406   2.497   1.397  0.3871 -0.0972 -0.0905
 3070SOL    HW110109   6.343   2.568   1.367 -0.8628 -1.3166 -0.4534
 3070SOL    HW210110   6.381   2.466   1.489  2.0190  1.1421  0.8109
 3071SOL     OW10111   4.395   3.332   0.733  0.1574 -0.5108 -0.0003
 3071SOL    HW110112   4.431   3.242   0.758  0.7674 -0.2823 -0.0410
 3071SOL    HW210113   4.346   3.371   0.811 -0.0709 -0.8630  0.0300
 3072SOL     OW10114   5.214   0.669   1.355 -0.0293  0.5818 -0.4664
 3072SOL    HW110115   5.166   0.675   1.268 -0.8373 -0.2330 -0.0917
 3072SOL    HW210116   5.270   0.751   1.368  0.6118  0.4273 -2.0365
 3073SOL     OW10117   0.813   2.840   6.969  0.2886  0.4978  0.1465
 3073SOL    HW110118   0.811   2.872   6.874 -0.3916 -1.7103 -0.6392
 3073SOL    HW210119   0.840   2.916   7.029 -0.1016  2.1745 -1.6891
 3074SOL     OW10120   1.565   1.412   0.407  0.1901  0.0093 -0.5170
 3074SOL    HW110121   1.585   1.318   0.433  2.1617  0.4935 -0.1049
 3074SOL    HW210122   1.574   1.471   0.487  0.8571  0.7964 -1.1571
 3075SOL     OW10123   3.272   5.505   2.468 -0.0826  0.1174 -0.3363
 3075SOL    HW110124   3.326   5.441   2.413  0.3916  0.2123  0.0114
 3075SOL    HW210125   3.332   5.574   2.508 -0.6199  0.9117 -0.8735
 3076SOL     OW10126   5.867   0.837   3.761 -0.5109 -0.2877 -0.3094
 3076SOL    HW110127   5.894   0.896   3.685  3.2701 -1.7802 -0.3460
 3076SOL    HW210128   5.832   0.750   3.725 -0.8090 -0.1759 -0.2950
 3077SOL     OW10129   1.460   3.503   6.673  1.2343 -0.0200  0.6981
 3077SOL    HW110130   1.557   3.529   6.678  1.5248 -0.8322 -0.3793
 3077SOL    HW210131   1.441   3.432   6.740  1.8466 -1.1730 -0.3070
 3078SOL     OW10132   4.084   6.994   6.860 -0.3819  0.1505 -0.3823
 3078SOL    HW110133   4.112   7.082   6.899 -1.5315  0.4304 -0.1448
 3078SOL    HW210134   4.106   6.920   6.923 -2.8742  0.6611  1.2417
 3079SOL     OW10135   0.817   5.566   1.085 -0.1634 -0.2056 -0.5387
 3079SOL    HW110136   0.729   5.594   1.123 -0.2167  1.1252 -1.5607
 3079SOL    HW210137   0.818   5.467   1.073  0.1058 -0.8430  3.4490
 3080SOL     OW10138   2.566   4.420   1.092  0.8070  0.1681 -0.0897
 3080SOL    HW110139   2.472   4.388   1.104  1.4749 -1.9359  0.0590
 3080SOL    HW210140   2.615   4.414   1.180  1.2946  0.4500 -0.3381
 3081SOL     OW10141   0.993   2.315   4.796 -0.0091 -0.2599  0.0575
 3081SOL    HW110142   0.986   2.216   4.812 -0.0659 -0.4610 -1.1250
 3081SOL    HW210143   1.089   2.342   4.794 -0.0008 -0.1518  1.0698
 3082SOL     OW10144   3.008   4.081   0.204 -0.0109 -0.4013  0.2583
 3082SOL    HW110145   2.985   4.148   0.274  1.5129 -1.3471  1.7251
 3082SOL    HW210146   3.070   4.122   0.137 -0.7065  0.2153 -0.0284
 3083SOL     OW10147   6.860   0.565   7.022 -0.3229  0.4979 -0.0345
 3083SOL    HW110148   6.761   0.564   7.008 -0.6065  1.4286  1.5942
 3083SOL    HW210149   6.882   0.524   7.111  0.7425  0.5320 -0.2597
 3084SOL     OW10150   3.700   2.171   3.844 -0.3998 -0.1686  0.1525
 3084SOL    HW110151   3.787   2.154   3.890 -0.5524 -0.2778  0.4024
 3084SOL    HW210152   3.713   2.163   3.745  0.1675  1.1385  0.1032
 3085SOL     OW10153   3.743   3.534   4.750  0.6958  1.2802  0.1380
 3085SOL    HW110154   3.777   3.577   4.834  0.7341  2.1835 -0.3306
 3085SOL    HW210155   3.769   3.589   4.671 -1.8803  2.0567 -0.2684
 3086SOL     OW10156   2.559   0.729   4.402 -0.2566  0.1880  0.2019
 3086SOL    HW110157   2.517   0.753   4.490 -1.1336  1.0261 -0.4173
 3086SOL    HW210158   2.502   0.660   4.356  0.8185 -1.1301  0.7771
 3087SOL     OW10159   3.582   4.918   0.489  0.2340  0.1369 -0.0408
 3087SOL    HW110160   3.502   4.889   0.541 -0.5409  1.8731 -0.1899
 3087SOL    HW210161   3.593   4.859   0.409 -2.1013  0.9977 -1.1022
 3088SOL     OW10162   4.916   2.561   0.484 -0.2984 -0.2232 -0.2212
 3088SOL    HW110163   4.877   2.614   0.559 -0.6500 -0.2927 -0.3551
 3088SOL    HW210164   4.844   2.511   0.436 -0.2125  0.5677 -1.2049
 3089SOL     OW10165   2.350   5.476   2.143  0.2433  0.6116 -0.0706
 3089SOL    HW110166   2.345   5.448   2.047 -0.1974  0.2802  0.0478
 3089SOL    HW210167   2.434   5.529   2.157  0.8886 -0.2908 -0.3885
 3090SOL     OW10168   4.235   0.834   2.371  0.3797 -0.0496 -0.3692
 3090SOL    HW110169   4.331   0.810   2.378  0.2660 -0.4420 -0.1175
 3090SOL    HW210170   4.198   0.848   2.463  0.0235 -0.6005 -0.4246
 3091SOL     OW10171   6.280   2.493   6.043  0.3710  0.1336  0.4746
 3091SOL    HW110172   6.201   2.447   6.001  0.1230  0.2589  0.8011
 3091SOL    HW210173   6.269   2.592   6.035  0.7086  0.1423  0.1317
 3092SOL     OW10174   5.823   6.807   0.174  0.1309  0.1756 -0.9598
 3092SOL    HW110175   5.862   6.740   0.112  0.8274 -1.3329  1.0096
 3092SOL    HW210176   5.745   6.766   0.223  1.1452  0.4118  0.9593
 3093SOL     OW10177   4.682   5.422   5.253  0.4245 -0.4970 -0.3186
 3093SOL    HW110178   4.704   5.355   5.323  0.5546 -1.2772 -1.0915
 3093SOL    HW210179   4.585   5.417   5.230  0.0640  0.7286  0.7835
 3094SOL     OW10180   1.822   3.923   6.142  0.2592 -0.0871 -0.1388
 3094SOL    HW110181   1.744   3.863   6.161  0.2279  0.6638  2.2991
 3094SOL    HW210182   1.794   3.994   6.077 -0.2960 -1.4013 -1.3939
 3095SOL     OW10183   1.570   5.840   0.768 -0.1848  0.4763  0.0929
 3095SOL    HW110184   1.567   5.875   0.861 -1.3623  0.9704 -0.1171
 3095SOL    HW210185   1.648   5.778   0.758  0.0226  0.5147  1.3639
 3096SOL     OW10186   1.915   2.019   5.871  0.2913  0.0156  0.3545
 3096SOL    HW110187   1.975   2.075   5.813 -0.0967 -0.5535 -0.6376
 3096SOL    HW210188   1.832   1.997   5.820 -0.6284  0.5088  1.5871
 3097SOL     OW10189   6.488   2.001   2.969  0.3051 -0.1973  0.0969
 3097SOL    HW110190   6.393   1.973   2.978 -0.4705  2.2635  0.2530
 3097SOL    HW210191   6.548   1.922   2.984 -1.6294 -1.4394  1.7764
 3098SOL     OW10192   6.578   5.081   3.455  0.3887 -0.0112 -0.5404
 3098SOL    HW110193   6.658   5.136   3.476  0.8198 -0.1607 -1.7271
 3098SOL    HW210194   6.506   5.139   3.416  0.4720 -0.1215 -0.8595
 3099SOL     OW10195   1.397   5.434   0.687 -0.4503 -0.3285  0.8788
 3099SOL    HW110196   1.408   5.387   0.775  0.3500  1.6659  1.9123
 3099SOL    HW210197   1.450   5.387   0.617  0.9011 -0.5653  2.0202
 3100SOL     OW10198   5.181   5.200   2.223 -0.1666 -0.1797 -0.0818
 3100SOL    HW110199   5.143   5.273   2.167  0.0602 -0.3231 -0.4279
 3100SOL    HW210200   5.119   5.179   2.298  0.6053  1.6688  1.1570
 3101SOL     OW10201   6.384   3.676   3.295 -0.4369 -0.1188 -0.1007
 3101SOL    HW110202   6.350   3.582   3.297 -1.6122  0.3022  0.2449
 3101SOL    HW210203   6.322   3.733   3.241  1.9028 -0.1339 -3.0944
 3102SOL     OW10204   1.839   2.388   3.578  0.1324  0.0902  0.3468
 3102SOL    HW110205   1.903   2.332   3.630 -0.5855 -0.4302  0.6895
 3102SOL    HW210206   1.748   2.383   3.620  0.1220  1.8441  0.6385
 3103SOL     OW10207   3.986   1.619   2.626  0.0995 -0.3611 -0.5728
 3103SOL    HW110208   4.068   1.617   2.683 -1.5448 -0.6969  1.9667
 3103SOL    HW210209   3.958   1.525   2.605  0.1694 -0.2597 -1.1176
 3104SOL     OW10210   6.125   6.855   4.399 -0.0644  0.1016 -0.7461
 3104SOL    HW110211   6.033   6.890   4.415 -0.4004 -0.7919 -0.6199
 3104SOL    HW210212   6.186   6.887   4.472  0.5792  3.5000 -2.6153
 3105SOL     OW10213   6.575   3.919   5.050 -0.0009  0.3065 -0.8038
 3105SOL    HW110214   6.504   3.978   5.088  0.7118  0.3975  0.4365
 3105SOL    HW210215   6.541   3.875   4.967 -0.6374  2.2422 -1.6220
 3106SOL     OW10216   6.415   5.850   4.116 -0.0337  0.1898 -0.4135
 3106SOL    HW110217   6.323   5.889   4.109  0.6876  1.7860 -1.8140
 3106SOL    HW210218   6.481   5.923   4.129  1.0625 -0.9478  0.7320
 3107SOL     OW10219   3.331   0.761   0.067  0.2978 -0.1903  0.1483
 3107SOL    HW110220   3.306   0.734   0.159  1.1422  1.0336  0.7629
 3107SOL    HW210221   3.258   0.816   0.027 -0.0636 -0.7135  0.0842
 3108SOL     OW10222   0.293   3.050   2.930 -0.3287  0.5147  0.3301
 3108SOL    HW110223   0.198   3.082   2.919 -1.0798 -1.4979  0.6198
 3108SOL    HW210224   0.351   3.094   2.861 -1.3440  2.1508  0.4459
 3109SOL     OW10225   6.312   5.358   2.495  0.2467 -0.6555 -0.5773
 3109SOL    HW110226   6.284   5.383   2.402  0.4249 -0.7654 -0.6592
 3109SOL    HW210227   6.235   5.314   2.542 -0.8856  2.0734  0.3564
 3110SOL     OW10228   1.000   6.056   5.558  0.7270  0.2283 -0.7248
 3110SOL    HW110229   1.047   6.062   5.470  1.5086  0.7146 -0.2852
 3110SOL    HW210230   1.065   6.031   5.629  0.2927  0.7395 -0.1324
 3111SOL     OW10231   0.757   0.937   5.366  0.0824 -0.4688 -0.5618
 3111SOL    HW110232   0.772   0.989   5.282 -1.6716 -0.7747 -1.1036
 3111SOL    HW210233   0.797   0.986   5.443  0.6930  0.3966 -1.4065
 3112SOL     OW10234   0.738   3.409   6.382  0.4510  0.0528  0.1374
 3112SOL    HW110235   0.659   3.412   6.321  1.1873 -0.0040 -0.8447
 3112SOL    HW210236   0.765   3.503   6.406  1.4512  0.2036 -1.3875
 3113SOL     OW10237   0.486   0.742   4.005  0.6776 -0.1944 -0.1200
 3113SOL    HW110238   0.394   0.713   3.977  0.8344 -1.3127  0.4760
 3113SOL    HW210239   0.499   0.721   4.102  1.9517 -1.0714 -0.4623
 3114SOL     OW10240   1.266   6.012   4.600  0.0013 -0.1287  0.3884
 3114SOL    HW110241   1.326   5.933   4.609  0.3918 -0.1190 -1.6991
 3114SOL    HW210242   1.173   5.987   4.629  0.7584 -0.3651  2.8665
 3115SOL     OW10243   1.712   4.607   4.692  0.3959 -0.6419 -0.1153
 3115SOL    HW110244   1.746   4.538   4.628  2.9771 -0.1826  0.6173
 3115SOL    HW210245   1.690   4.563   4.779  1.8201 -0.6414  0.2774
 3116SOL     OW10246   2.275   5.590   4.927 -0.3634  0.2990  0.4321
 3116SOL    HW110247   2.185   5.551   4.947 -0.2996 -0.2041 -0.2539
 3116SOL    HW210248   2.315   5.544   4.848  0.3682  0.7295  0.5428
 3117SOL     OW10249   1.007   1.450   3.033  0.7977 -0.1730  0.5392
 3117SOL    HW110250   1.041   1.413   3.119  1.5578 -1.4607 -0.2841
 3117SOL    HW210251   1.056   1.534   3.011  1.0995 -0.2287  0.9950
 3118SOL     OW10252   0.741   2.203   2.783  0.2543  0.3307 -0.1419
 3118SOL    HW110253   0.726   2.297   2.814  0.3645  0.1836  0.3666
 3118SOL    HW210254   0.782   2.204   2.692 -0.7357  0.7596 -0.5968
 3119SOL     OW10255   3.695   5.870   3.672 -0.2006  0.0839 -0.2188
 3119SOL    HW110256   3.701   5.962   3.712 -0.6847 -1.0270  2.6325
 3119SOL    HW210257   3.786   5.840   3.644  0.2723  0.7290  0.5614
 3120SOL     OW10258   4.598   4.472   4.462  0.4564  0.4282 -0.6528
 3120SOL    HW110259   4.552   4.450   4.548  0.6799  0.7884 -0.4401
 3120SOL    HW210260   4.650   4.392   4.430  3.1437  1.2522  1.3008
 3121SOL     OW10261   5.709   1.087   4.023 -0.5731  0.2871  0.2902
 3121SOL    HW110262   5.766   1.006   4.034  1.0059  1.3905  0.4520
 3121SOL    HW210263   5.612   1.060   4.025 -0.0831 -1.5551  0.4889
 3122SOL     OW10264   0.885   5.780   4.902  0.1440  0.2943 -0.4909
 3122SOL    HW110265   0.974   5.800   4.861  0.3628 -1.0369 -0.7238
 3122SOL    HW210266   0.887   5.802   4.999  0.8447 -0.0367 -0.4252
 3123SOL     OW10267   0.731   1.567   2.965  0.4426  0.1521  0.1381
 3123SOL    HW110268   0.712   1.665   2.967  1.0968  0.2829  0.5205
 3123SOL    HW210269   0.830   1.553   2.968  0.5779 -0.4402 -3.4253
 3124SOL     OW10270   6.347   0.958   3.121  0.1251 -0.7460 -0.0279
 3124SOL    HW110271   6.441   0.975   3.089  0.5938 -1.7486  0.7497
 3124SOL    HW210272   6.320   0.865   3.095 -1.0527 -0.1137 -1.1423
 3125SOL     OW10273   6.676   6.719   2.281  0.8558 -0.1148  0.4244
 3125SOL    HW110274   6.734   6.790   2.321  1.7111 -0.2535 -0.5376
 3125SOL    HW210275   6.612   6.761   2.217  0.7191 -0.1100  0.5626
 3126SOL     OW10276   0.523   6.046   5.607  0.3758  0.3857  0.2393
 3126SOL    HW110277   0.576   6.033   5.523  2.0701  1.6294  1.0638
 3126SOL    HW210278   0.461   5.969   5.619  1.4149 -0.7345 -1.1851
 3127SOL     OW10279   1.276   2.373   4.875  0.0586  0.1814 -0.1133
 3127SOL    HW110280   1.260   2.325   4.961 -1.7987  0.6884 -0.1341
 3127SOL    HW210281   1.320   2.311   4.810  0.3608 -0.5754  0.7835
 3128SOL     OW10282   4.015   3.390   4.368  0.0562 -0.2374  0.2348
 3128SOL    HW110283   4.055   3.475   4.401  1.3722 -0.3133 -1.0732
 3128SOL    HW210284   4.006   3.325   4.444 -0.0875  0.7126  1.0534
 3129SOL     OW10285   4.391   5.429   6.838 -0.2794 -0.0658 -0.0100
 3129SOL    HW110286   4.312   5.417   6.898 -0.9875  3.7990  0.1277
 3129SOL    HW210287   4.403   5.347   6.782 -2.5599 -1.9159  1.9729
 3130SOL     OW10288   0.307   0.908   5.454  0.6868 -0.3372  0.7813
 3130SOL    HW110289   0.224   0.898   5.509  0.8767  0.7876  1.3067
 3130SOL    HW210290   0.358   0.987   5.486  1.3124 -0.2512 -0.3814
 3131SOL     OW10291   4.966   3.513   3.885 -0.9410 -0.4957 -0.0955
 3131SOL    HW110292   4.927   3.605   3.891 -0.6163 -0.3653  0.0633
 3131SOL    HW210293   5.024   3.507   3.803  0.4306 -0.0115  0.8103
 3132SOL     OW10294   1.978   2.378   5.263  0.1627  0.6753 -0.2504
 3132SOL    HW110295   1.950   2.348   5.172  0.4478  1.7053 -0.6897
 3132SOL    HW210296   1.904   2.360   5.328 -0.4825  0.9419 -0.8991
 3133SOL     OW10297   0.469   6.990   5.811  0.2201 -0.5186  0.2664
 3133SOL    HW110298   0.372   6.996   5.783  0.1319  0.6822  0.7905
 3133SOL    HW210299   0.527   7.001   5.730 -0.0536  2.0594  0.3382
 3134SOL     OW10300   0.135   2.669   4.366 -0.7178 -0.1153 -0.1579
 3134SOL    HW110301   0.052   2.714   4.331 -0.5141  0.2031 -0.2404
 3134SOL    HW210302   0.164   2.714   4.450 -0.2046  0.2670 -0.5288
 3135SOL     OW10303   4.854   2.163   5.455  0.1144 -0.1284 -0.3998
 3135SOL    HW110304   4.926   2.201   5.513  1.2427  0.6584 -2.2022
 3135SOL    HW210305   4.774   2.139   5.511  0.2993  2.5875  1.1945
 3136SOL     OW10306   3.959   3.678   5.867  0.4666  0.0504  0.3001
 3136SOL    HW110307   3.959   3.719   5.776 -0.0866 -0.8628 -0.1149
 3136SOL    HW210308   3.902   3.596   5.868  1.5495 -0.7294  1.1122
 3137SOL     OW10309   5.263   5.534   0.602  0.6031 -0.5506  0.0753
 3137SOL    HW110310   5.349   5.507   0.558  1.1376 -0.5635  1.0949
 3137SOL    HW210311   5.251   5.633   0.593  2.0604 -0.1115  2.1259
 3138SOL     OW10312   3.440   3.302   5.942  0.4953  0.0327  0.5117
 3138SOL    HW110313   3.495   3.367   5.995  1.0203 -0.3712  0.4683
 3138SOL    HW210314   3.472   3.301   5.847 -0.0649  0.3259  0.3113
 3139SOL     OW10315   6.109   2.536   5.644  0.5046  0.0574  0.0469
 3139SOL    HW110316   6.125   2.450   5.596  2.2471 -0.3347  1.2527
 3139SOL    HW210317   6.035   2.587   5.599  1.4580 -0.6862 -2.4733
 3140SOL     OW10318   3.050   5.970   1.167 -0.3015 -0.6847  0.0108
 3140SOL    HW110319   2.962   5.929   1.146 -0.7113  0.2172 -0.0457
 3140SOL    HW210320   3.116   5.944   1.096 -0.7863 -0.5092 -0.5111
 3141SOL     OW10321   6.858   2.359   1.047  0.4680  0.2311  0.0689
 3141SOL    HW110322   6.789   2.427   1.071 -0.3989 -0.5857 -0.0348
 3141SOL    HW210323   6.938   2.404   1.009  0.1797  1.2350  0.6164
 3142SOL     OW10324   2.156   0.192   5.007  0.1041  0.8581 -0.0838
 3142SOL    HW110325   2.193   0.273   4.960 -0.0651  0.2476 -1.2903
 3142SOL    HW210326   2.232   0.132   5.034  0.1749  1.0483  0.1567
 3143SOL     OW10327   0.092   1.714   0.130 -0.1080 -0.6045  0.0889
 3143SOL    HW110328   0.158   1.688   0.199  1.3039  0.2598 -0.8863
 3143SOL    HW210329   0.102   1.655   0.050 -2.1734 -2.0359  0.7959
 3144SOL     OW10330   6.630   5.591   0.451 -0.2568 -0.2742  0.1387
 3144SOL    HW110331   6.553   5.558   0.506 -1.1025  1.7042  0.1984
 3144SOL    HW210332   6.597   5.622   0.362  0.7628 -1.0852 -0.5605
 3145SOL     OW10333   2.615   5.175   2.455  0.2158 -0.0155 -0.3406
 3145SOL    HW110334   2.573   5.264   2.475 -0.1851 -0.3318  0.2468
 3145SOL    HW210335   2.557   5.125   2.391  0.0403 -0.1779 -0.0537
 3146SOL     OW10336   1.837   1.572   6.311 -0.0159  0.2161  0.3757
 3146SOL    HW110337   1.890   1.497   6.270 -0.7055 -0.2862  0.3783
 3146SOL    HW210338   1.772   1.607   6.243  0.4695  0.9792  0.3005
 3147SOL     OW10339   5.924   4.976   6.333 -0.2315 -0.1099 -0.1140
 3147SOL    HW110340   5.924   4.883   6.295 -0.3654 -0.4067  0.5897
 3147SOL    HW210341   5.895   4.972   6.429 -0.9052  0.7484 -0.2750
 3148SOL     OW10342   6.263   6.375   1.372 -0.0872  0.5364 -0.3900
 3148SOL    HW110343   6.235   6.279   1.368  1.9091 -0.0849 -0.4912
 3148SOL    HW210344   6.249   6.418   1.282 -1.7616  0.6133 -0.1240
 3149SOL     OW10345   1.799   4.599   1.570 -0.0173 -0.6918 -0.4517
 3149SOL    HW110346   1.744   4.682   1.569 -1.3542 -1.5190 -2.3542
 3149SOL    HW210347   1.783   4.550   1.656 -1.0961 -0.1583 -0.3276
 3150SOL     OW10348   2.449   1.578   4.215 -0.0913  0.0030  0.0536
 3150SOL    HW110349   2.438   1.594   4.314  2.4513  2.0815  0.1179
 3150SOL    HW210350   2.385   1.637   4.166  1.1321  1.7624  0.4808
 3151SOL     OW10351   4.655   6.595   0.219  0.3077  0.2910 -0.1762
 3151SOL    HW110352   4.744   6.565   0.255  0.7816  1.7269 -0.1249
 3151SOL    HW210353   4.613   6.519   0.169  0.4405 -1.2177  1.8286
 3152SOL     OW10354   1.466   5.969   0.068  0.0646  0.6432 -0.4425
 3152SOL    HW110355   1.547   6.025   0.085 -0.3315  0.7213  1.2968
 3152SOL    HW210356   1.435   5.928   0.153 -1.7589  0.6311 -1.0700
 3153SOL     OW10357   0.742   0.135   3.058 -0.0321 -0.0072  0.8847
 3153SOL    HW110358   0.702   0.193   3.128  0.5747 -0.0795  1.2982
 3153SOL    HW210359   0.772   0.048   3.099 -1.3517 -0.8184  0.1935
 3154SOL     OW10360   3.818   0.383   2.532 -0.7398  0.0266 -0.8416
 3154SOL    HW110361   3.776   0.301   2.493  0.4262 -1.6348  1.1504
 3154SOL    HW210362   3.916   0.384   2.510 -0.9082  1.4116 -1.6217
 3155SOL     OW10363   1.648   3.391   1.341 -0.4280  0.2812 -0.8420
 3155SOL    HW110364   1.733   3.444   1.349 -0.3008  0.2422 -1.8545
 3155SOL    HW210365   1.601   3.415   1.256  0.5350 -2.4904 -2.2741
 3156SOL     OW10366   0.546   3.484   5.667 -0.1944 -0.0485  0.0639
 3156SOL    HW110367   0.551   3.583   5.656 -0.8875  0.1859  1.5822
 3156SOL    HW210368   0.561   3.461   5.764 -0.6181 -1.3740 -0.1727
 3157SOL     OW10369   6.505   0.742   1.516  0.3997  0.1282 -0.0715
 3157SOL    HW110370   6.588   0.796   1.500 -0.2927  1.3374  0.2931
 3157SOL    HW210371   6.429   0.803   1.536 -0.9448 -0.8968 -1.8587
 3158SOL     OW10372   0.737   0.228   2.511 -0.4233 -0.0832  0.1011
 3158SOL    HW110373   0.727   0.132   2.538 -1.8087  0.2047  0.7461
 3158SOL    HW210374   0.652   0.259   2.468  0.4456  0.5293 -1.2184
 3159SOL     OW10375   1.572   2.313   3.623  0.2718 -0.0694 -0.3713
 3159SOL    HW110376   1.583   2.257   3.541 -1.1906  0.7030 -1.1169
 3159SOL    HW210377   1.509   2.388   3.605  0.2853  0.3977  1.3339
 3160SOL     OW10378   6.256   1.909   5.092  0.4651 -0.7639  0.1723
 3160SOL    HW110379   6.261   1.811   5.110 -1.1810 -0.9030  0.0583
 3160SOL    HW210380   6.163   1.941   5.110  1.2600  1.0194  1.3488
 3161SOL     OW10381   4.001   1.797   2.094  0.4901  0.3061 -0.0726
 3161SOL    HW110382   3.970   1.740   2.019 -0.4529  0.0509  0.4944
 3161SOL    HW210383   3.963   1.764   2.180  0.7726  1.1637  0.4018
 3162SOL     OW10384   5.489   3.708   3.809  0.6475 -0.1668 -0.1193
 3162SOL    HW110385   5.514   3.611   3.816  4.0781  0.4183 -1.9585
 3162SOL    HW210386   5.411   3.718   3.748  1.0599 -1.7217 -0.9576
 3163SOL     OW10387   0.433   0.534   6.982 -0.3495 -0.0527  0.3077
 3163SOL    HW110388   0.486   0.617   6.964 -1.4903  0.5349 -0.4165
 3163SOL    HW210389   0.394   0.500   6.897 -2.0357  0.1620  0.9603
 3164SOL     OW10390   2.996   0.167   4.013 -0.1392  0.3265 -0.4467
 3164SOL    HW110391   3.007   0.262   4.044 -2.3501  0.3053  0.5595
 3164SOL    HW210392   2.949   0.166   3.925 -1.5084  0.1422  0.2724
 3165SOL     OW10393   6.173   4.602   1.446 -0.0516  0.0981 -0.2692
 3165SOL    HW110394   6.145   4.630   1.538  2.3343 -0.2570  0.6378
 3165SOL    HW210395   6.095   4.608   1.385 -0.8470  4.3856  0.8166
 3166SOL     OW10396   1.516   5.553   5.616 -0.3985  0.1041 -0.3553
 3166SOL    HW110397   1.481   5.471   5.661  0.1753 -0.2955 -0.6345
 3166SOL    HW210398   1.613   5.565   5.637 -0.8657  1.6754  1.0980
 3167SOL     OW10399   3.219   5.428   0.485 -0.0260 -0.6606 -0.1000
 3167SOL    HW110400   3.310   5.389   0.475 -0.9429 -2.8193 -0.7451
 3167SOL    HW210401   3.170   5.421   0.398 -1.2145 -0.6799  0.5508
 3168SOL     OW10402   2.166   6.021   0.406  0.3826  0.5428  0.0167
 3168SOL    HW110403   2.244   6.081   0.425  0.7321  1.2423 -3.0161
 3168SOL    HW210404   2.137   6.033   0.311 -2.0620 -1.3135  0.4107
 3169SOL     OW10405   7.006   0.003   3.979  0.4143 -0.7693 -0.0787
 3169SOL    HW110406   6.940  -0.072   3.982 -0.3414 -0.1951 -1.4636
 3169SOL    HW210407   7.014   0.044   4.070 -1.6474 -0.4547  0.0206
 3170SOL     OW10408   6.992   2.317   3.899  0.5008 -0.2565 -0.5573
 3170SOL    HW110409   6.937   2.377   3.841  0.6720 -0.1551 -0.6148
 3170SOL    HW210410   7.087   2.320   3.869  0.8725  0.9682  0.6727
 3171SOL     OW10411   2.826   0.460   5.337 -0.3040 -0.1224 -0.3751
 3171SOL    HW110412   2.788   0.503   5.256 -0.0191  1.7572  0.4215
 3171SOL    HW210413   2.789   0.504   5.419 -0.0798 -1.5091  0.5161
 3172SOL     OW10414   4.141   0.668   5.151  0.4260 -0.3187  0.8121
 3172SOL    HW110415   4.166   0.668   5.054  1.1598  1.6866  0.9563
 3172SOL    HW210416   4.042   0.680   5.159  0.2657 -1.1663  0.3326
 3173SOL     OW10417   0.993   2.099   5.538  0.2932  0.7384 -0.3568
 3173SOL    HW110418   1.089   2.114   5.513  0.5220  0.8348  0.5471
 3173SOL    HW210419   0.969   2.157   5.615  0.3106 -1.1879  1.1958
 3174SOL     OW10420   5.103   3.807   2.121 -0.2774  0.1122 -0.2321
 3174SOL    HW110421   5.094   3.859   2.205 -1.2425 -0.2489 -0.1062
 3174SOL    HW210422   5.114   3.710   2.142 -0.8505 -0.0228 -0.5178
 3175SOL     OW10423   3.216   0.542   1.745 -0.3024 -0.1027  0.2270
 3175SOL    HW110424   3.117   0.528   1.751 -0.5139  1.4895  0.8313
 3175SOL    HW210425   3.235   0.635   1.716  1.0307 -0.2160  0.6666
 3176SOL     OW10426   1.136   4.200   1.014  0.0958 -0.3932  0.0086
 3176SOL    HW110427   1.045   4.219   1.051  0.8909 -0.1480  1.9284
 3176SOL    HW210428   1.135   4.111   0.968 -1.5405  0.4017 -1.6230
 3177SOL     OW10429   3.176   1.309   0.471 -0.5238  0.1819  0.0204
 3177SOL    HW110430   3.253   1.257   0.434 -1.1189 -0.0066 -0.9870
 3177SOL    HW210431   3.104   1.316   0.402 -2.4113 -1.6340  1.6399
 3178SOL     OW10432   5.490   3.050   4.983  0.2903  0.1893 -0.2301
 3178SOL    HW110433   5.562   3.020   5.046  0.4963  1.0034 -0.0665
 3178SOL    HW210434   5.414   3.087   5.036  0.9480  1.9505 -0.4738
 3179SOL     OW10435   0.260   0.791   6.091 -0.0171 -0.2060  0.1132
 3179SOL    HW110436   0.338   0.848   6.067  0.6544 -1.5371 -1.0073
 3179SOL    HW210437   0.181   0.817   6.035  0.3676 -0.5339 -0.5984
 3180SOL     OW10438   0.764   5.001   3.901 -0.5349 -0.3036 -0.5623
 3180SOL    HW110439   0.818   5.040   3.826 -0.0365 -1.7323 -0.9871
 3180SOL    HW210440   0.680   4.962   3.865  0.4741 -2.4990 -0.6958
 3181SOL     OW10441   2.316   2.522   1.812  0.3775 -0.0327 -0.1931
 3181SOL    HW110442   2.236   2.520   1.871  0.5603 -1.4827  0.0452
 3181SOL    HW210443   2.397   2.542   1.868  0.1802  1.7260 -0.4788
 3182SOL     OW10444   0.196   6.522   6.194  0.4291  0.3604  0.2095
 3182SOL    HW110445   0.167   6.563   6.281  1.1787 -0.1069  0.6828
 3182SOL    HW210446   0.292   6.497   6.199  0.5609  0.6193 -0.8744
 3183SOL     OW10447   3.480   6.555   2.427 -0.2558  0.1967 -0.0883
 3183SOL    HW110448   3.564   6.574   2.479  1.3714 -2.4759 -1.5322
 3183SOL    HW210449   3.412   6.513   2.487  0.3885  0.0461  0.5482
 3184SOL     OW10450   6.679   0.642   2.052  0.0921 -0.2741  0.3705
 3184SOL    HW110451   6.594   0.629   2.002  1.3119  0.7906 -2.2025
 3184SOL    HW210452   6.671   0.604   2.144 -3.1447 -0.1024  0.2546
 3185SOL     OW10453   5.919   4.006   5.890  0.0409  0.6939  0.4061
 3185SOL    HW110454   5.869   4.085   5.925 -1.0942 -0.2578  1.0232
 3185SOL    HW210455   5.911   3.930   5.955  0.2373 -0.2501 -0.6356
 3186SOL     OW10456   5.998   2.431   6.406  0.2601  0.2868  0.0466
 3186SOL    HW110457   5.904   2.460   6.390 -0.2410 -0.2306  1.8229
 3186SOL    HW210458   6.024   2.362   6.338 -1.1747 -0.6569  0.4131
 3187SOL     OW10459   7.024   1.468   3.964 -0.5058  0.5961 -0.5161
 3187SOL    HW110460   7.031   1.488   4.062 -0.4539 -2.5750  0.2375
 3187SOL    HW210461   7.113   1.443   3.928 -1.0398 -1.4433 -0.5237
 3188SOL     OW10462   4.652   2.759   3.492  0.0720 -0.0466  0.3141
 3188SOL    HW110463   4.714   2.837   3.487 -1.1177  0.9513  0.6436
 3188SOL    HW210464   4.600   2.752   3.407  0.4064 -0.7086  0.1507
 3189SOL     OW10465   6.895   5.117   3.117  0.0249  0.3181 -0.0968
 3189SOL    HW110466   6.867   5.082   3.206  0.0545 -0.7529 -0.4881
 3189SOL    HW210467   6.848   5.066   3.045 -0.2705  1.4042 -0.6970
 3190SOL     OW10468   3.825   2.077   4.730  0.1663  0.8100  0.2265
 3190SOL    HW110469   3.753   2.087   4.662 -0.3346 -2.3295  0.1231
 3190SOL    HW210470   3.784   2.061   4.820  0.6563 -1.2075  0.1312
 3191SOL     OW10471   1.369   6.597   3.335  0.2068 -0.3132  0.1671
 3191SOL    HW110472   1.344   6.500   3.338  1.7284 -0.7078  0.6723
 3191SOL    HW210473   1.402   6.625   3.425 -0.3431  0.7286  0.0600
 3192SOL     OW10474   5.320   3.423   0.687 -0.0415 -0.2015  0.3335
 3192SOL    HW110475   5.330   3.444   0.590 -1.5255 -0.0199  0.1896
 3192SOL    HW210476   5.281   3.503   0.734  0.1134 -0.4946  0.9637
 3193SOL     OW10477   0.524   2.975   5.864  0.1543  0.0307  0.2859
 3193SOL    HW110478   0.589   2.916   5.911  1.3081  0.2127 -1.0257
 3193SOL    HW210479   0.441   2.923   5.843 -1.2406  0.4122  4.0677
 3194SOL     OW10480   2.198   3.049   4.853 -0.0913 -0.8043  0.1786
 3194SOL    HW110481   2.111   3.016   4.888  0.2290 -0.3864  1.4462
 3194SOL    HW210482   2.271   3.028   4.919  0.3973  0.8231  0.2129
 3195SOL     OW10483   1.095   5.893   1.869  0.3511  0.1470 -0.4856
 3195SOL    HW110484   1.167   5.834   1.832 -0.6380 -0.3892 -1.6383
 3195SOL    HW210485   1.105   5.899   1.968  1.4727 -0.5912 -0.5249
 3196SOL     OW10486   5.784   1.070   2.781  0.5034 -1.0981  0.4310
 3196SOL    HW110487   5.734   1.096   2.863  1.5076 -2.4127  1.4989
 3196SOL    HW210488   5.730   1.005   2.727 -0.1287 -0.2808  0.0567
 3197SOL     OW10489   3.827   0.900   4.914  0.3135 -0.1525  0.5742
 3197SOL    HW110490   3.848   0.841   4.836  1.5361 -1.3439  1.7520
 3197SOL    HW210491   3.910   0.950   4.942 -0.3875  1.1548  0.4193
 3198SOL     OW10492   3.806   2.943   3.320 -0.1878  0.7270  0.1874
 3198SOL    HW110493   3.771   2.983   3.235 -1.7613 -1.4736 -0.2656
 3198SOL    HW210494   3.758   2.983   3.398  0.4223  1.8766  0.0074
 3199SOL     OW10495   1.327   0.023   3.082  0.6292  0.2995 -0.6885
 3199SOL    HW110496   1.289  -0.067   3.104  2.2441 -0.0082  1.1564
 3199SOL    HW210497   1.380   0.017   2.997  0.3610 -0.3826 -0.8177
 3200SOL     OW10498   3.362   2.825   1.982 -0.6802  0.1209 -1.0009
 3200SOL    HW110499   3.459   2.816   2.002 -0.2438  2.0426 -1.9946
 3200SOL    HW210500   3.312   2.850   2.065 -0.1344  0.3365 -0.7355
 3201SOL     OW10501   2.405   2.379   3.922 -0.4799  0.6415 -0.1545
 3201SOL    HW110502   2.386   2.477   3.927  1.7505  1.1572 -0.8117
 3201SOL    HW210503   2.357   2.340   3.843  0.9856  1.8673 -1.7299
 3202SOL     OW10504   0.227   5.713   2.417 -0.0550 -0.1756  0.5377
 3202SOL    HW110505   0.201   5.786   2.355 -0.0870 -1.3270 -0.8529
 3202SOL    HW210506   0.325   5.695   2.409 -0.0753 -0.3913  0.7460
 3203SOL     OW10507   6.285   0.738   3.645 -0.7097  0.1003 -0.4016
 3203SOL    HW110508   6.358   0.697   3.591 -1.2733 -1.0181 -0.3320
 3203SOL    HW210509   6.266   0.681   3.725 -0.4528  1.2969  0.5560
 3204SOL     OW10510   2.005   6.263   6.292 -0.3158  0.0709 -0.7793
 3204SOL    HW110511   2.026   6.352   6.250  2.8321 -0.7396 -1.2013
 3204SOL    HW210512   1.939   6.214   6.236 -2.1635  2.1058 -0.5071
 3205SOL     OW10513   5.918   5.051   5.328  0.5343 -0.1079  0.4165
 3205SOL    HW110514   5.832   5.085   5.288  1.4729  1.3898 -0.4269
 3205SOL    HW210515   5.930   4.955   5.304  1.1286  0.7303 -3.2380
 3206SOL     OW10516   4.152   1.442   6.166 -0.0021  0.0332 -0.5111
 3206SOL    HW110517   4.236   1.457   6.218  0.9952 -1.1059 -1.7328
 3206SOL    HW210518   4.171   1.384   6.088 -1.9533 -0.2717 -0.8128
 3207SOL     OW10519   2.986   5.553   4.421 -0.7122 -0.0396  0.1661
 3207SOL    HW110520   3.018   5.624   4.359 -0.0238 -0.6136 -0.1555
 3207SOL    HW210521   2.895   5.577   4.456 -1.3262  0.0741 -1.4222
 3208SOL     OW10522   5.364   3.138   6.004  0.4110  0.0788 -0.3444
 3208SOL    HW110523   5.274   3.183   6.005  0.1938 -0.3459  0.6180
 3208SOL    HW210524   5.434   3.203   6.034 -0.0154 -0.3962  1.8426
 3209SOL     OW10525   2.968   3.390   4.882  0.3308  0.2380 -0.3404
 3209SOL    HW110526   2.953   3.442   4.965  0.0446 -1.0076  0.4168
 3209SOL    HW210527   3.009   3.301   4.904 -1.0880 -0.7275 -1.3279
 3210SOL     OW10528   1.436   0.882   5.764 -0.2622  0.1455  0.2877
 3210SOL    HW110529   1.528   0.886   5.803  1.2644 -0.1762 -2.9512
 3210SOL    HW210530   1.403   0.787   5.765  0.0559  0.0340  0.1568
 3211SOL     OW10531   1.440   3.033   4.456 -0.4673 -0.2856 -0.4950
 3211SOL    HW110532   1.405   3.102   4.519  1.7035 -0.0327  0.5043
 3211SOL    HW210533   1.364   2.977   4.423 -1.9296  0.9187  0.6804
 3212SOL     OW10534   0.218   0.971   1.717  0.0819 -0.5142 -0.8672
 3212SOL    HW110535   0.253   0.918   1.794 -0.3572  1.9731  1.1929
 3212SOL    HW210536   0.144   1.031   1.749  2.3905  3.4384 -2.2156
 3213SOL     OW10537   6.994   5.171   0.742 -1.1468  0.5035 -0.6192
 3213SOL    HW110538   7.041   5.088   0.712 -0.7587  0.6203 -0.3376
 3213SOL    HW210539   6.941   5.209   0.665 -0.2701  0.7222 -1.1268
 3214SOL     OW10540   5.379   3.335   3.983  0.3453 -0.4960  0.1526
 3214SOL    HW110541   5.280   3.354   3.984 -0.1409 -2.6943 -0.9575
 3214SOL    HW210542   5.407   3.301   4.072  0.0153 -0.3050  0.3340
 3215SOL     OW10543   2.369   5.469   0.840  0.1946 -0.0122 -0.1181
 3215SOL    HW110544   2.447   5.531   0.828 -0.2992  0.2650 -2.2382
 3215SOL    HW210545   2.305   5.480   0.763 -0.6857 -2.0391  0.2642
 3216SOL     OW10546   1.849   2.796   4.042 -0.1764 -0.5751 -0.1946
 3216SOL    HW110547   1.926   2.828   3.987 -0.9297 -0.6477 -1.3404
 3216SOL    HW210548   1.801   2.724   3.992  0.1345 -1.8947  1.3407
 3217SOL     OW10549   5.939   1.155   0.981 -0.1763  0.0817 -0.1585
 3217SOL    HW110550   5.946   1.150   1.081  0.9666  0.3795 -0.2122
 3217SOL    HW210551   5.937   1.063   0.943  0.1017 -0.0301  0.0966
 3218SOL     OW10552   2.479   0.563   1.908  0.1530  0.0262  0.0669
 3218SOL    HW110553   2.505   0.565   2.005 -4.0606 -0.0332  1.4075
 3218SOL    HW210554   2.490   0.470   1.873  1.6181  0.0214  0.4472
 3219SOL     OW10555   1.674   2.039   0.994 -0.0281  0.4979  0.0888
 3219SOL    HW110556   1.642   1.952   0.957  1.1227  0.1193 -0.0432
 3219SOL    HW210557   1.611   2.070   1.065  0.3167 -1.1702  1.1789
 3220SOL     OW10558   1.181   5.613   1.544  0.4038 -0.4219 -0.1994
 3220SOL    HW110559   1.085   5.617   1.572  0.0810 -0.9725 -1.1747
 3220SOL    HW210560   1.206   5.518   1.523  1.5552 -0.4938  1.3224
 3221SOL     OW10561   1.085   4.010   2.192  0.4025 -0.0681  0.4677
 3221SOL    HW110562   1.089   4.110   2.197  1.2330 -0.1006  0.6936
 3221SOL    HW210563   1.172   3.975   2.157  0.5541 -0.7620  1.4713
 3222SOL     OW10564   5.450   2.013   1.191 -0.0116 -0.0363 -0.3083
 3222SOL    HW110565   5.531   1.994   1.137  1.0071  1.9579  0.4153
 3222SOL    HW210566   5.470   1.999   1.288 -0.4976  0.5093 -0.1190
 3223SOL     OW10567   5.541   4.597   3.499  0.3111  0.7581  0.0342
 3223SOL    HW110568   5.576   4.540   3.425  4.5786 -0.7162  2.7787
 3223SOL    HW210569   5.589   4.686   3.498 -1.4964  1.7764 -0.3863
 3224SOL     OW10570   7.017   6.169   3.220  0.4554 -0.0495  0.2319
 3224SOL    HW110571   7.005   6.220   3.135 -1.0300  0.3939  0.6750
 3224SOL    HW210572   7.038   6.073   3.199 -2.1164 -0.4949 -0.7417
 3225SOL     OW10573   1.790   1.981   4.219 -0.0315 -0.0273 -0.4189
 3225SOL    HW110574   1.811   2.057   4.157  0.8697 -0.2304 -0.3777
 3225SOL    HW210575   1.691   1.974   4.231 -0.1760  0.4653 -1.2633
 3226SOL     OW10576   3.149   0.313   2.611  0.1082 -0.6536  0.1579
 3226SOL    HW110577   3.233   0.343   2.567  0.0891 -1.5127 -0.4897
 3226SOL    HW210578   3.109   0.238   2.559 -1.6344  0.4334 -0.1654
 3227SOL     OW10579   0.335   1.157   1.112 -0.5147 -0.3066  0.3275
 3227SOL    HW110580   0.254   1.158   1.054 -0.6362 -1.5550  0.4354
 3227SOL    HW210581   0.319   1.212   1.194  0.1926  2.7304 -1.4400
 3228SOL     OW10582   1.848   1.346   3.643 -0.0426  0.4773 -0.0824
 3228SOL    HW110583   1.926   1.408   3.644 -0.7701  1.4597 -0.9558
 3228SOL    HW210584   1.788   1.365   3.720 -0.4288  1.1025 -0.5283
 3229SOL     OW10585   3.251   3.933   6.406 -0.4605  0.2593  0.3834
 3229SOL    HW110586   3.306   4.015   6.424 -2.7332  2.2394 -1.1674
 3229SOL    HW210587   3.209   3.940   6.316 -1.8775 -1.9816  0.7950
 3230SOL     OW10588   1.230   2.316   1.345  0.1078 -0.2615  0.2607
 3230SOL    HW110589   1.238   2.372   1.427  1.5829 -0.0061 -0.0275
 3230SOL    HW210590   1.188   2.228   1.368  1.4118 -0.5989  1.5108
 3231SOL     OW10591   2.880   6.743   4.699  0.2374  0.1574  0.0723
 3231SOL    HW110592   2.936   6.760   4.618 -0.1466  1.5408  0.0768
 3231SOL    HW210593   2.805   6.681   4.675 -0.2797  1.1078 -0.8223
 3232SOL     OW10594   3.048   4.603   0.337 -0.0947  0.6845 -0.0192
 3232SOL    HW110595   3.009   4.566   0.253  0.3531 -2.0791  0.8808
 3232SOL    HW210596   3.148   4.600   0.332 -0.0630  0.3117  0.6592
 3233SOL     OW10597   1.321   1.788   5.561  0.7102 -1.0666 -0.2682
 3233SOL    HW110598   1.346   1.837   5.477 -0.0035 -3.0447 -1.7118
 3233SOL    HW210599   1.239   1.828   5.600  1.9281  0.8932  0.4606
 3234SOL     OW10600   0.166   3.897   0.034  0.1723 -0.9273  0.2363
 3234SOL    HW110601   0.149   3.835   0.110  0.7430 -0.7321  0.5257
 3234SOL    HW210602   0.264   3.898   0.012 -0.1480 -2.0295 -1.3945
 3235SOL     OW10603   1.533   5.896   1.033 -0.0113 -0.4278 -0.0745
 3235SOL    HW110604   1.528   5.833   1.110  0.0452  0.0524  0.3304
 3235SOL    HW210605   1.457   5.961   1.038  0.5139  0.1918  0.1149
 3236SOL     OW10606   4.889   1.909   0.308 -0.1636  0.4528  0.3105
 3236SOL    HW110607   4.884   1.946   0.400 -0.4704  0.5752  0.2447
 3236SOL    HW210608   4.894   1.809   0.312 -0.5751  0.4398  0.4427
 3237SOL     OW10609   0.436   2.800   2.071  0.7520  0.1288  0.3791
 3237SOL    HW110610   0.363   2.732   2.062 -1.5199  2.5712 -0.8713
 3237SOL    HW210611   0.459   2.812   2.168  1.3443 -2.4431  0.6238
 3238SOL     OW10612   1.414   4.883   5.839  0.9039  0.5989  0.4389
 3238SOL    HW110613   1.382   4.793   5.870 -0.3992  0.4261 -1.2401
 3238SOL    HW210614   1.338   4.947   5.838  1.0830  0.8407 -1.3464
 3239SOL     OW10615   5.429   6.044   0.246  0.2148  0.5738  0.0508
 3239SOL    HW110616   5.437   6.136   0.207 -0.4178 -0.6009 -3.2216
 3239SOL    HW210617   5.334   6.014   0.241  0.6353 -0.7525 -0.2891
 3240SOL     OW10618   6.336   5.025   3.892  0.1976 -0.1408 -0.2042
 3240SOL    HW110619   6.354   5.045   3.795  0.4003 -1.2633 -0.4113
 3240SOL    HW210620   6.419   4.989   3.934 -0.2881 -1.0502  0.0025
 3241SOL     OW10621   0.396   5.240   2.413 -0.0915 -0.2542 -0.2375
 3241SOL    HW110622   0.369   5.320   2.360  0.5725  0.0826 -0.0745
 3241SOL    HW210623   0.490   5.214   2.390 -0.9927 -2.3581 -1.9531
 3242SOL     OW10624   3.223   0.811   3.664 -0.0480 -0.2175  0.4916
 3242SOL    HW110625   3.193   0.717   3.683 -3.5750  0.4281 -1.1723
 3242SOL    HW210626   3.187   0.873   3.733  2.6502  0.0023  1.8484
 3243SOL     OW10627   4.275   5.618   3.517  0.0832  0.0616 -0.7305
 3243SOL    HW110628   4.359   5.571   3.543  0.6105  0.4519 -1.6481
 3243SOL    HW210629   4.286   5.716   3.534  0.0865  0.2004 -1.4948
 3244SOL     OW10630   6.213   2.553   4.102 -0.6080  0.3677  0.5988
 3244SOL    HW110631   6.124   2.595   4.083 -0.8311 -0.1533  0.4705
 3244SOL    HW210632   6.211   2.514   4.195 -1.4520 -1.9743 -0.3253
 3245SOL     OW10633   6.120   6.302   3.562 -0.0933  0.2191  0.1640
 3245SOL    HW110634   6.104   6.206   3.537  0.9032  0.3620 -1.0917
 3245SOL    HW210635   6.210   6.330   3.531  0.1975  1.1855  1.7394
 3246SOL     OW10636   6.292   5.818   2.367  0.1553 -0.3753  0.1746
 3246SOL    HW110637   6.226   5.805   2.293 -1.5827 -3.1784  2.0224
 3246SOL    HW210638   6.262   5.892   2.426  0.0319  0.0129 -0.3679
 3247SOL     OW10639   3.622   0.393   6.841  0.0010 -0.3284 -0.0648
 3247SOL    HW110640   3.592   0.453   6.915  0.5007 -0.5373  0.3086
 3247SOL    HW210641   3.564   0.409   6.760  0.0059  0.5258  0.0859
 3248SOL     OW10642   6.826   0.992   3.105 -0.2585  0.3182 -0.4256
 3248SOL    HW110643   6.792   1.086   3.093  1.2635  0.9481 -0.0596
 3248SOL    HW210644   6.802   0.959   3.196 -1.3632  0.0813 -0.7820
 3249SOL     OW10645   3.722   3.797   3.256 -0.4399  0.1155  0.1323
 3249SOL    HW110646   3.770   3.731   3.200  1.4528  1.5394 -0.0104
 3249SOL    HW210647   3.628   3.766   3.272 -0.4901 -1.1861 -2.2871
 3250SOL     OW10648   5.194   1.269   6.613  0.3796  0.3115  0.7119
 3250SOL    HW110649   5.193   1.314   6.703  2.3192  2.2323 -0.1305
 3250SOL    HW210650   5.247   1.185   6.618 -1.0898 -0.5912  1.7412
 3251SOL     OW10651   5.309   1.710   0.635 -0.1198 -0.0149 -0.2366
 3251SOL    HW110652   5.226   1.767   0.636 -1.3130 -1.6626  0.3861
 3251SOL    HW210653   5.367   1.735   0.712 -1.2312 -0.4310  0.7689
 3252SOL     OW10654   0.165   6.907   4.450 -0.8028  0.3495 -0.1096
 3252SOL    HW110655   0.245   6.925   4.508 -1.0416  1.6260 -0.1469
 3252SOL    HW210656   0.191   6.847   4.375  0.0501  0.4925  0.0649
 3253SOL     OW10657   5.422   2.549   0.017 -0.5319  0.5629  0.7256
 3253SOL    HW110658   5.414   2.647   0.032 -0.6446  0.8349 -0.9106
 3253SOL    HW210659   5.518   2.521   0.024  0.2181  1.6416 -3.0653
 3254SOL     OW10660   0.857   1.289   6.646 -0.1068  0.1436  0.6032
 3254SOL    HW110661   0.947   1.325   6.669  0.5280 -1.4683  0.8073
 3254SOL    HW210662   0.786   1.354   6.673  0.8824  0.5359  2.3554
 3255SOL     OW10663   1.909   3.240   0.969 -0.7341 -0.2080  0.0754
 3255SOL    HW110664   1.975   3.176   1.006 -0.4879 -0.9053 -1.4876
 3255SOL    HW210665   1.947   3.333   0.973 -1.4119  0.0273  3.0714
 3256SOL     OW10666   5.863   5.978   3.153  0.0368 -0.1034  0.2914
 3256SOL    HW110667   5.820   5.892   3.181 -0.0809 -0.0800  0.1838
 3256SOL    HW210668   5.948   5.990   3.203  0.9161 -1.1193 -0.8641
 3257SOL     OW10669   0.788   0.743   4.514  0.2542  0.5244 -0.0772
 3257SOL    HW110670   0.737   0.659   4.532  2.4074 -0.4164  2.1417
 3257SOL    HW210671   0.835   0.735   4.426  1.7400 -1.3526  0.8240
 3258SOL     OW10672   5.458   0.783   1.923 -0.0259 -0.0408  0.9179
 3258SOL    HW110673   5.413   0.736   1.999  0.2533 -1.1700  0.3995
 3258SOL    HW210674   5.392   0.797   1.849 -0.1347  0.5023  1.1092
 3259SOL     OW10675   1.752   4.782   4.480  0.2386 -0.2142  0.1446
 3259SOL    HW110676   1.726   4.731   4.562  0.5897 -1.0081 -0.2354
 3259SOL    HW210677   1.852   4.792   4.477  0.1498  1.0597  0.5392
 3260SOL     OW10678   4.521   6.339   0.399 -0.5826  0.0167  0.2399
 3260SOL    HW110679   4.442   6.354   0.340  0.5619  1.9387 -0.9081
 3260SOL    HW210680   4.605   6.347   0.346  0.4242 -1.6675  1.4895
 3261SOL     OW10681   6.157   1.754   4.013 -0.0010 -0.1729 -0.0714
 3261SOL    HW110682   6.229   1.695   4.048 -1.4137 -0.5954  2.3464
 3261SOL    HW210683   6.072   1.702   4.005 -0.5379  0.7985 -0.8900
 3262SOL     OW10684   5.591   6.801   0.961 -0.0901 -0.3745  0.0943
 3262SOL    HW110685   5.573   6.827   0.866 -0.7372  1.0196  0.5693
 3262SOL    HW210686   5.589   6.702   0.969 -4.4811 -0.5615 -0.5757
 3263SOL     OW10687   6.256   1.562   6.363 -0.0069 -0.1654  0.6418
 3263SOL    HW110688   6.312   1.487   6.328  2.1720  0.5681  2.3303
 3263SOL    HW210689   6.314   1.642   6.378 -1.8518  1.1665  1.0234
 3264SOL     OW10690   3.622   6.027   5.623 -0.7938  0.0194  0.3444
 3264SOL    HW110691   3.620   6.008   5.722 -1.3577  0.8239  0.4937
 3264SOL    HW210692   3.700   5.979   5.582 -1.0044 -0.9629  1.0455
 3265SOL     OW10693   2.105   2.485   6.791 -0.1833  0.1439  0.8908
 3265SOL    HW110694   2.119   2.574   6.749 -1.6410  0.5220  1.1569
 3265SOL    HW210695   2.027   2.439   6.748  0.7847 -1.1920  0.4861
 3266SOL     OW10696   5.598   1.175   3.050 -0.4323  0.3906 -0.3213
 3266SOL    HW110697   5.511   1.169   2.999 -0.9706 -0.0668  0.6176
 3266SOL    HW210698   5.580   1.204   3.144  0.2250 -1.2771  0.3602
 3267SOL     OW10699   1.886   5.552   0.983 -0.4364  0.6227 -0.0371
 3267SOL    HW110700   1.899   5.455   1.002 -0.0598  0.5906 -0.4307
 3267SOL    HW210701   1.975   5.597   0.973 -0.5218  0.3887 -2.8143
 3268SOL     OW10702   6.522   0.443   0.852 -0.6026  0.1498  0.0459
 3268SOL    HW110703   6.595   0.507   0.876 -0.2795 -0.4927  0.8532
 3268SOL    HW210704   6.499   0.388   0.933  0.2195 -1.8232 -0.9894
 3269SOL     OW10705   3.403   1.522   2.951  0.3272 -0.6399 -0.4549
 3269SOL    HW110706   3.456   1.596   2.990 -0.9938  1.6109 -2.6069
 3269SOL    HW210707   3.333   1.492   3.017  0.5803  0.3452  0.2777
 3270SOL     OW10708   1.062   4.630   2.829 -0.3459 -0.0137 -0.1410
 3270SOL    HW110709   1.082   4.532   2.826 -0.3863 -0.0133 -2.8533
 3270SOL    HW210710   0.963   4.643   2.835 -0.3640 -0.1409 -0.1576
 3271SOL     OW10711   5.188   6.610   4.909 -0.1110  0.3033  0.0206
 3271SOL    HW110712   5.176   6.678   4.981 -0.2368 -1.0280  1.3144
 3271SOL    HW210713   5.183   6.518   4.949 -0.7745 -0.4929 -1.7848
 3272SOL     OW10714   2.730   6.240   6.899  0.1769 -0.3771  0.2847
 3272SOL    HW110715   2.693   6.283   6.981 -0.6022  0.6905 -0.5929
 3272SOL    HW210716   2.664   6.249   6.824  2.0040  1.2260 -1.2228
 3273SOL     OW10717   6.263   5.992   3.821 -0.3946  0.2261  0.8042
 3273SOL    HW110718   6.356   6.026   3.809 -0.7471  0.3622 -2.2565
 3273SOL    HW210719   6.254   5.903   3.777 -2.5707  1.8926 -2.5340
 3274SOL     OW10720   5.139   2.519   4.847  0.0106  0.3591 -0.5440
 3274SOL    HW110721   5.189   2.435   4.828  2.5274  1.8232 -0.8418
 3274SOL    HW210722   5.068   2.532   4.778  0.1646 -1.0599 -0.9948
 3275SOL     OW10723   6.200   1.118   6.576  0.1215  0.7908  0.6723
 3275SOL    HW110724   6.280   1.124   6.637  0.5664  0.5910  0.1179
 3275SOL    HW210725   6.159   1.027   6.584 -0.6764  1.2252  1.7188
 3276SOL     OW10726   3.002   6.169   5.759  0.2927  0.5490  0.1517
 3276SOL    HW110727   3.049   6.083   5.740 -1.7178 -0.7351  0.6823
 3276SOL    HW210728   2.936   6.187   5.687  0.6643  1.6659  0.0701
 3277SOL     OW10729   4.255   1.275   3.686 -0.2870 -0.3901 -0.1117
 3277SOL    HW110730   4.241   1.261   3.784  1.9770 -2.8831 -0.0227
 3277SOL    HW210731   4.278   1.371   3.669 -0.5100  0.0511  1.8254
 3278SOL     OW10732   0.651   2.993   4.575  0.0175  0.5078  0.1351
 3278SOL    HW110733   0.578   2.929   4.599 -1.1554  1.2934 -1.2029
 3278SOL    HW210734   0.739   2.953   4.600 -0.9029  0.1191  3.0851
 3279SOL     OW10735   2.776   0.582   3.771  0.1758 -0.3211  0.5597
 3279SOL    HW110736   2.715   0.531   3.832 -0.1786 -0.3650  0.1734
 3279SOL    HW210737   2.803   0.523   3.695 -1.8448  0.6280 -1.0013
 3280SOL     OW10738   0.226   0.566   4.578  0.1427  0.6510 -0.1088
 3280SOL    HW110739   0.279   0.549   4.661  0.4175 -0.6612 -0.5234
 3280SOL    HW210740   0.272   0.523   4.500  0.1301  2.2321 -1.0348
 3281SOL     OW10741   5.828   2.973   2.955 -0.1189  0.1771  0.4110
 3281SOL    HW110742   5.736   2.969   2.994 -0.5085  1.1899 -0.3743
 3281SOL    HW210743   5.831   2.917   2.872  0.2123 -0.5023  0.8653
 3282SOL     OW10744   6.070   2.357   3.009  0.1859  0.2580 -0.4269
 3282SOL    HW110745   6.074   2.435   2.947  0.8156 -0.5213 -1.3902
 3282SOL    HW210746   6.037   2.276   2.960  0.9429 -0.4373  0.1711
 3283SOL     OW10747   4.363   1.158   2.575  0.3563  0.2631  0.0561
 3283SOL    HW110748   4.388   1.202   2.489 -1.0753  0.8176 -0.1002
 3283SOL    HW210749   4.267   1.131   2.573 -0.2869  2.0033  2.1279
 3284SOL     OW10750   3.655   2.640   1.772  0.3152 -0.1103  0.0390
 3284SOL    HW110751   3.560   2.661   1.749  0.4362  0.0785 -0.2998
 3284SOL    HW210752   3.664   2.542   1.792  0.1968 -0.2778 -0.7048
 3285SOL     OW10753   6.772   3.659   6.286 -0.1548 -0.3259 -0.3110
 3285SOL    HW110754   6.721   3.657   6.200  0.6626  0.4548 -0.8378
 3285SOL    HW210755   6.717   3.620   6.359 -1.9371  1.4447 -0.6271
 3286SOL     OW10756   6.146   3.507   4.127  0.8322  0.3217  0.5859
 3286SOL    HW110757   6.084   3.577   4.089 -0.1421  0.0157  1.5634
 3286SOL    HW210758   6.114   3.417   4.100 -0.5267  0.0168  2.8972
 3287SOL     OW10759   3.556   2.435   1.360  0.3328 -0.3928  0.6599
 3287SOL    HW110760   3.511   2.515   1.398 -1.0122 -1.8602  2.3454
 3287SOL    HW210761   3.580   2.372   1.435  1.5089 -1.5008 -0.5893
 3288SOL     OW10762   0.830   0.373   5.818  0.3279 -0.4614  1.1952
 3288SOL    HW110763   0.808   0.470   5.824 -1.9337 -0.8300  0.1172
 3288SOL    HW210764   0.759   0.320   5.865  0.5651 -1.6419  0.2778
 3289SOL     OW10765   0.101   0.879   5.614 -0.3832  0.2235  0.1140
 3289SOL    HW110766   0.101   0.779   5.610 -0.1839  0.1853  1.0195
 3289SOL    HW210767   0.064   0.909   5.702 -2.3161  0.9913 -0.8797
 3290SOL     OW10768   4.300   1.368   0.562 -0.2477 -0.0613 -0.2846
 3290SOL    HW110769   4.327   1.462   0.580 -0.8740  0.1958 -0.6774
 3290SOL    HW210770   4.341   1.338   0.476 -0.2835 -0.0518 -0.3049
 3291SOL     OW10771   0.987   6.892   3.580  0.1330  0.2493 -0.0449
 3291SOL    HW110772   1.033   6.941   3.655  0.3296 -0.5317  0.3521
 3291SOL    HW210773   1.056   6.848   3.522 -0.0756 -0.2163  0.0600
 3292SOL     OW10774   5.427   4.440   0.778 -0.1257 -0.7081 -0.2132
 3292SOL    HW110775   5.431   4.485   0.689  0.9473 -1.7039 -0.7076
 3292SOL    HW210776   5.502   4.373   0.784  0.1170 -0.3052  1.6303
 3293SOL     OW10777   4.506   6.964   4.254  0.0734  0.0255  0.6436
 3293SOL    HW110778   4.466   7.043   4.207  1.4185  0.9147  0.9625
 3293SOL    HW210779   4.452   6.882   4.233  0.3716  0.4531 -2.1172
 3294SOL     OW10780   5.078   1.787   6.473 -0.1037 -0.6399  0.3858
 3294SOL    HW110781   5.149   1.856   6.484  2.0156 -2.5661 -0.2142
 3294SOL    HW210782   5.040   1.791   6.381  1.5355 -1.5429 -0.3699
 3295SOL     OW10783   1.073   4.950   3.076 -0.1149  0.6673 -0.0568
 3295SOL    HW110784   1.085   4.877   3.143 -0.8074  0.5883 -0.0134
 3295SOL    HW210785   0.976   4.958   3.051  0.3972 -1.2094 -3.1768
 3296SOL     OW10786   5.675   2.841   5.826  0.8065 -0.0113 -0.0607
 3296SOL    HW110787   5.626   2.787   5.894  0.3878  0.2976 -0.1128
 3296SOL    HW210788   5.771   2.814   5.825  0.5915 -0.8083 -0.1414
 3297SOL     OW10789   0.213   3.145   3.939  0.4385 -0.2757  0.0788
 3297SOL    HW110790   0.202   3.085   3.860  0.0673 -0.7482  0.4827
 3297SOL    HW210791   0.305   3.135   3.976  0.8572  0.4953 -0.7318
 3298SOL     OW10792   4.073   1.445   3.439  0.0091 -0.5523 -0.0550
 3298SOL    HW110793   4.059   1.523   3.500 -2.7308 -0.2796 -0.9058
 3298SOL    HW210794   4.013   1.370   3.466  2.8135 -2.6150  0.9471
 3299SOL     OW10795   3.826   6.356   0.681  0.5615  0.1170  0.2671
 3299SOL    HW110796   3.750   6.336   0.619  0.1317  1.8937  0.1527
 3299SOL    HW210797   3.880   6.273   0.696 -0.2862 -0.7375 -1.1605
 3300SOL     OW10798   5.851   2.731   1.548  0.4110 -0.4428 -0.2384
 3300SOL    HW110799   5.909   2.677   1.487 -0.0505  0.8849 -1.9347
 3300SOL    HW210800   5.762   2.745   1.506  0.5982  1.8489 -0.0142
 3301SOL     OW10801   0.707   1.171   5.825  0.2550  0.4400 -0.1593
 3301SOL    HW110802   0.665   1.089   5.787  0.2597  1.4537 -2.4990
 3301SOL    HW210803   0.636   1.226   5.870 -0.3242  0.5470 -1.1667
 3302SOL     OW10804   4.301   2.109   1.790 -0.1035 -0.7930 -0.2061
 3302SOL    HW110805   4.292   2.198   1.833 -1.1938 -1.0981  0.2555
 3302SOL    HW210806   4.377   2.059   1.831  0.4851 -0.0897 -0.4453
 3303SOL     OW10807   6.045   1.236   6.328 -0.2193 -0.3416 -0.2157
 3303SOL    HW110808   6.028   1.163   6.260  0.7711 -0.6275 -0.1737
 3303SOL    HW210809   6.087   1.196   6.409 -2.2717 -0.1567  0.9981
 3304SOL     OW10810   0.717   0.214   5.592  0.2142  0.3125  0.0532
 3304SOL    HW110811   0.671   0.286   5.539  1.0731  0.4758 -0.4993
 3304SOL    HW210812   0.775   0.257   5.661  0.2049  0.1289  0.1740
 3305SOL     OW10813   4.365   4.567   4.044 -0.0133  0.5791  0.1735
 3305SOL    HW110814   4.425   4.592   4.120 -1.0548  0.3692  1.1000
 3305SOL    HW210815   4.277   4.614   4.054 -1.0735 -1.3802  0.5151
 3306SOL     OW10816   0.383   2.964   1.173  0.5064 -0.5918  0.2471
 3306SOL    HW110817   0.377   3.049   1.121 -0.7472 -0.8088  0.0053
 3306SOL    HW210818   0.399   2.985   1.270  3.5789 -0.2014 -0.2599
 3307SOL     OW10819   3.677   6.331   6.414  0.4582 -0.6514  0.3150
 3307SOL    HW110820   3.698   6.247   6.366 -0.9185 -2.5012  2.7113
 3307SOL    HW210821   3.725   6.408   6.371  0.4285 -2.3213 -2.9846
 3308SOL     OW10822   4.447   0.090   5.388  0.3727 -0.1225 -0.1891
 3308SOL    HW110823   4.415   0.167   5.444  0.7650 -1.0734  1.3932
 3308SOL    HW210824   4.368   0.034   5.361  0.2678 -0.1104  0.0918
 3309SOL     OW10825   6.121   0.010   3.552  0.3260 -0.3242  0.2125
 3309SOL    HW110826   6.064  -0.070   3.568 -1.6626  0.5949 -1.7586
 3309SOL    HW210827   6.217  -0.014   3.568 -0.2511 -2.9270  0.1914
 3310SOL     OW10828   0.445   4.308   2.704  0.1205  0.0112  0.3696
 3310SOL    HW110829   0.529   4.282   2.657 -0.4664  0.1853 -0.7998
 3310SOL    HW210830   0.452   4.282   2.801  1.3685 -0.2897  0.2145
 3311SOL     OW10831   0.692   0.825   3.288 -0.1651  0.0179  0.0976
 3311SOL    HW110832   0.592   0.834   3.287 -0.3220 -1.3973  0.0045
 3311SOL    HW210833   0.718   0.740   3.242  1.2363  1.4011 -1.8356
 3312SOL     OW10834   5.589   2.427   5.014 -0.0314  0.2196 -0.1482
 3312SOL    HW110835   5.596   2.523   4.987  0.1048 -0.1191 -1.3584
 3312SOL    HW210836   5.662   2.374   4.971 -1.2273 -0.7558 -1.0594
 3313SOL     OW10837   2.803   1.828   5.352  0.4132 -0.1732  0.6652
 3313SOL    HW110838   2.827   1.892   5.278  0.4827  0.8105  1.5188
 3313SOL    HW210839   2.708   1.843   5.380  0.2482 -0.8462  0.4963
 3314SOL     OW10840   6.870   3.180   3.286 -0.3841  0.2966  0.1318
 3314SOL    HW110841   6.771   3.195   3.285 -0.6846 -1.4862  0.4486
 3314SOL    HW210842   6.916   3.264   3.255 -1.8721  1.8305  1.8198
 3315SOL     OW10843   5.877   1.316   2.687  0.0168 -0.5898 -0.4872
 3315SOL    HW110844   5.854   1.224   2.718 -0.0836 -0.8894 -1.4075
 3315SOL    HW210845   5.795   1.361   2.652  0.4793 -1.0801 -2.3185
 3316SOL     OW10846   0.975   0.315   2.647 -0.0966 -0.4416  0.1475
 3316SOL    HW110847   0.883   0.292   2.614 -0.1644 -0.3510  0.2745
 3316SOL    HW210848   1.033   0.338   2.569 -0.2637 -0.2060  0.0931
 3317SOL     OW10849   1.877   1.072   0.430 -0.1441  0.2330 -0.2231
 3317SOL    HW110850   1.804   1.081   0.362 -1.8826 -0.1546  1.5115
 3317SOL    HW210851   1.846   1.011   0.503  1.8927  0.1732  0.6335
 3318SOL     OW10852   0.049   1.449   6.215 -0.2869  0.1088 -0.0631
 3318SOL    HW110853  -0.015   1.437   6.291  0.5427 -0.4631  0.5601
 3318SOL    HW210854   0.086   1.360   6.188  0.1277  0.4147 -0.5185
 3319SOL     OW10855   5.980   2.582   5.025  0.1543  0.0220 -0.0574
 3319SOL    HW110856   5.998   2.484   5.034 -1.1269 -0.2149  0.0557
 3319SOL    HW210857   5.936   2.601   4.938 -1.8562  0.1303  0.9262
 3320SOL     OW10858   6.462   5.305   1.340 -0.4159  0.4211 -0.0636
 3320SOL    HW110859   6.499   5.351   1.259  0.2600 -0.3333 -0.1913
 3320SOL    HW210860   6.462   5.206   1.325 -1.8990  0.3594  0.1900
 3321SOL     OW10861   0.428   5.737   5.658  0.2014 -0.3694  0.2383
 3321SOL    HW110862   0.332   5.746   5.633 -0.1219  0.0783  1.5399
 3321SOL    HW210863   0.435   5.704   5.752  1.3250 -0.7176  0.0451
 3322SOL     OW10864   6.934   6.737   3.631  0.0725 -0.3155  0.6890
 3322SOL    HW110865   6.907   6.642   3.614  1.1283 -0.3443 -0.9943
 3322SOL    HW210866   6.860   6.799   3.603  0.5469 -0.5267 -1.1702
 3323SOL     OW10867   3.420   5.134   6.385  0.0757 -0.2726 -0.7309
 3323SOL    HW110868   3.433   5.085   6.298 -0.4013 -0.5451 -0.6472
 3323SOL    HW210869   3.499   5.118   6.444  0.0583 -0.6986 -0.8222
 3324SOL     OW10870   1.051   3.219   1.455  0.4265  0.3469 -0.1185
 3324SOL    HW110871   1.011   3.220   1.363  0.3155  0.9114 -0.0696
 3324SOL    HW210872   1.032   3.131   1.498 -1.2344  0.7757  0.1022
 3325SOL     OW10873   4.066   0.694   0.278  1.0964 -0.0125  0.0560
 3325SOL    HW110874   3.985   0.744   0.308  1.4619  0.5484  0.1362
 3325SOL    HW210875   4.126   0.679   0.356  1.7916  0.9583 -0.2691
 3326SOL     OW10876   2.033   0.615   3.521 -0.1058 -0.3552  0.2661
 3326SOL    HW110877   2.065   0.564   3.601  1.7447  0.9790  0.4522
 3326SOL    HW210878   2.086   0.587   3.440 -0.6661 -0.3634 -0.1031
 3327SOL     OW10879   5.579   0.194   3.056 -0.2611  0.7445 -0.1743
 3327SOL    HW110880   5.541   0.209   3.147 -2.0545 -0.3345 -0.7002
 3327SOL    HW210881   5.640   0.115   3.057  0.3992  1.2499  0.2489
 3328SOL     OW10882   0.212   4.383   6.755  0.4884  0.7055  0.1497
 3328SOL    HW110883   0.205   4.295   6.801 -0.6778  0.6214 -0.1568
 3328SOL    HW210884   0.279   4.377   6.681 -0.7870 -0.4418 -0.9726
 3329SOL     OW10885   0.675   3.419   4.057 -0.4529 -0.0558 -0.2783
 3329SOL    HW110886   0.585   3.422   4.100 -0.4271 -3.1280  0.2004
 3329SOL    HW210887   0.745   3.446   4.123 -0.7283 -1.2568  0.5176
 3330SOL     OW10888   6.410   0.446   1.555 -0.0482  0.6980  0.5192
 3330SOL    HW110889   6.317   0.425   1.586  0.5424  0.7134  2.4241
 3330SOL    HW210890   6.410   0.533   1.507 -0.9969  0.7586  0.6063
 3331SOL     OW10891   0.217   4.000   3.965 -0.0484 -0.2838 -0.1081
 3331SOL    HW110892   0.139   4.062   3.963 -1.2259 -1.6866  0.1669
 3331SOL    HW210893   0.190   3.912   3.926  1.0188 -1.1951  1.1143
 3332SOL     OW10894   4.179   5.855   1.282  0.1036  0.6225  0.0017
 3332SOL    HW110895   4.131   5.941   1.300  0.8473  1.0528 -0.0298
 3332SOL    HW210896   4.176   5.835   1.184 -0.1809  0.5443  0.0260
 3333SOL     OW10897   3.943   4.234   1.176  0.5434 -0.0568  0.2953
 3333SOL    HW110898   3.933   4.153   1.233 -1.9685 -1.3394 -1.7645
 3333SOL    HW210899   4.021   4.222   1.114  0.9608 -0.2995  0.8603
 3334SOL     OW10900   0.833   1.871   4.332  0.3983  0.4929 -0.1144
 3334SOL    HW110901   0.761   1.939   4.319 -1.7790 -1.7073 -0.3654
 3334SOL    HW210902   0.846   1.819   4.248  0.8524 -0.4728  0.5323
 3335SOL     OW10903   4.568   2.886   1.649 -0.0835 -0.0301 -0.2606
 3335SOL    HW110904   4.586   2.949   1.573 -0.7575  1.2068  0.5670
 3335SOL    HW210905   4.588   2.932   1.735  0.2895 -1.2838  0.3374
 3336SOL     OW10906   1.683   2.552   0.608 -0.0270 -0.3752 -0.1717
 3336SOL    HW110907   1.775   2.527   0.578  0.3270  0.8754 -0.1615
 3336SOL    HW210908   1.617   2.491   0.564  0.7519 -0.8795 -0.6765
 3337SOL     OW10909   1.174   4.938   6.250 -0.2787 -0.1196 -0.1175
 3337SOL    HW110910   1.230   5.009   6.208 -0.6984  0.1331 -0.2507
 3337SOL    HW210911   1.172   4.951   6.349  1.1097 -0.9984  0.0511
 3338SOL     OW10912   1.244   6.947   6.963 -0.7123 -0.0060 -0.0006
 3338SOL    HW110913   1.151   6.968   6.995 -1.1630 -2.0843  0.1939
 3338SOL    HW210914   1.297   7.032   6.960 -1.9624  0.9502  1.9685
 3339SOL     OW10915   4.776   3.370   6.952 -0.0044 -0.2308  0.0796
 3339SOL    HW110916   4.791   3.275   6.979 -1.0702 -0.0863  1.2489
 3339SOL    HW210917   4.795   3.380   6.854  2.0336 -1.1960  0.3234
 3340SOL     OW10918   5.936   6.855   6.678  0.0839 -0.1191  0.0326
 3340SOL    HW110919   5.857   6.797   6.699  0.3268 -0.2938  0.4766
 3340SOL    HW210920   6.019   6.798   6.675  0.5400  0.4089  1.8567
 3341SOL     OW10921   4.853   0.674   0.852 -0.0738 -0.2749  0.0766
 3341SOL    HW110922   4.876   0.686   0.755  0.6275 -1.9383  0.0088
 3341SOL    HW210923   4.756   0.697   0.866  0.0677  0.9845 -0.7953
 3342SOL     OW10924   0.919   3.522   5.146  0.6166  0.1605 -0.1773
 3342SOL    HW110925   0.856   3.456   5.187  0.7797 -0.0221 -0.2206
 3342SOL    HW210926   1.011   3.504   5.180  0.7958 -0.1537 -0.8251
 3343SOL     OW10927   5.700   4.666   3.090  0.0749  0.3440  0.3993
 3343SOL    HW110928   5.702   4.760   3.123 -1.8287  0.3873  0.4669
 3343SOL    HW210929   5.639   4.611   3.147 -2.0322  0.0370 -1.9664
 3344SOL     OW10930   2.292   4.909   6.759  0.2308  0.0357 -0.1400
 3344SOL    HW110931   2.298   4.973   6.682  0.7543 -0.2037 -0.3076
 3344SOL    HW210932   2.227   4.837   6.737 -0.5807  0.6534  0.1659
 3345SOL     OW10933   3.332   3.640   3.272  0.5360 -0.4137 -0.0830
 3345SOL    HW110934   3.240   3.633   3.232  0.1084 -2.4075  1.0887
 3345SOL    HW210935   3.400   3.610   3.205  0.2508  0.1621 -0.6415
 3346SOL     OW10936   0.662   0.369   6.430  0.1555  1.1107 -0.1258
 3346SOL    HW110937   0.733   0.365   6.360 -0.0515 -0.0011 -0.3012
 3346SOL    HW210938   0.575   0.393   6.387  0.1126  0.8487 -0.1902
 3347SOL     OW10939   0.622   6.484   2.579 -0.3533 -0.1755  0.1476
 3347SOL    HW110940   0.573   6.514   2.661  1.0032 -0.2069  1.0023
 3347SOL    HW210941   0.600   6.546   2.504 -0.7127  0.5802  0.8456
 3348SOL     OW10942   3.894   5.431   5.626  0.0196  0.1446 -0.9161
 3348SOL    HW110943   3.797   5.412   5.642 -0.2883  1.5656 -0.9274
 3348SOL    HW210944   3.915   5.525   5.654  0.9578  0.4977 -2.6172
 3349SOL     OW10945   2.791   1.333   6.442  0.2549  0.1699 -0.5938
 3349SOL    HW110946   2.878   1.298   6.407  0.6041  0.8852 -0.4710
 3349SOL    HW210947   2.722   1.332   6.370  0.7887  1.0228 -1.1348
 3350SOL     OW10948   2.402   5.786   3.023  0.1635  0.2945 -0.0111
 3350SOL    HW110949   2.432   5.690   3.025 -1.6476 -0.3017  1.3754
 3350SOL    HW210950   2.420   5.824   2.933  1.5986 -1.1257 -0.3692
 3351SOL     OW10951   4.764   0.345   0.878  0.5995  0.6108 -0.5518
 3351SOL    HW110952   4.851   0.386   0.906  0.0282  1.9368 -0.6204
 3351SOL    HW210953   4.719   0.304   0.958  1.1577  0.1548 -0.4676
 3352SOL     OW10954   0.759   2.079   2.355  0.2198 -0.2212 -0.2211
 3352SOL    HW110955   0.827   2.008   2.338  0.3457 -0.2782  0.5209
 3352SOL    HW210956   0.743   2.130   2.270  0.5105 -0.7944 -0.6264
 3353SOL     OW10957   5.436   5.785   5.497 -0.0704 -0.4956  0.1584
 3353SOL    HW110958   5.431   5.842   5.579 -0.4203  0.7495 -0.6981
 3353SOL    HW210959   5.519   5.807   5.446 -0.9074  0.3198 -0.9123
 3354SOL     OW10960   1.298   5.859   1.625 -0.4414  0.1939 -0.1834
 3354SOL    HW110961   1.231   5.927   1.595 -0.5186 -0.2045 -0.9387
 3354SOL    HW210962   1.270   5.768   1.593 -0.9838 -0.4083  1.8226
 3355SOL     OW10963   5.997   3.902   2.788  0.0761  0.4797  0.5168
 3355SOL    HW110964   5.933   3.919   2.713  1.0974  1.6349 -0.1352
 3355SOL    HW210965   6.029   3.807   2.784 -0.7216  0.2176  0.1726
 3356SOL     OW10966   4.604   3.498   0.668  0.2021 -0.7086 -0.4329
 3356SOL    HW110967   4.516   3.453   0.676 -0.0010 -0.8193 -2.5917
 3356SOL    HW210968   4.591   3.591   0.632  0.7552  0.5024  2.2700
 3357SOL     OW10969   6.274   1.014   2.686  0.3953 -0.1409 -0.2417
 3357SOL    HW110970   6.200   0.976   2.742  0.4661  1.5148  1.0604
 3357SOL    HW210971   6.362   0.997   2.732  0.5724  0.1694 -0.4648
 3358SOL     OW10972   4.257   1.821   6.953 -0.0216 -0.1262 -0.4252
 3358SOL    HW110973   4.306   1.735   6.935  1.4566  0.5639  0.1118
 3358SOL    HW210974   4.308   1.874   7.021 -1.1411  0.9902 -0.4250
 3359SOL     OW10975   5.426   6.366   1.091 -0.1344  0.0450 -0.0753
 3359SOL    HW110976   5.508   6.420   1.072  0.7720 -1.3834 -0.3717
 3359SOL    HW210977   5.364   6.373   1.013  0.8737 -0.9175 -0.9981
 3360SOL     OW10978   2.546   4.533   6.400 -0.8454  0.2114 -0.0111
 3360SOL    HW110979   2.602   4.564   6.323 -2.5947 -1.7706 -2.2671
 3360SOL    HW210980   2.501   4.611   6.443 -0.1975  1.3322 -1.2948
 3361SOL     OW10981   1.390   3.251   2.111  0.3846  0.0306 -0.1713
 3361SOL    HW110982   1.408   3.339   2.156 -1.5050  1.5584 -2.1818
 3361SOL    HW210983   1.476   3.201   2.102  1.1536  0.5091  3.1608
 3362SOL     OW10984   3.848   2.063   0.174  0.4354 -0.3460 -0.7177
 3362SOL    HW110985   3.787   1.986   0.156 -0.8475  0.7218 -1.0667
 3362SOL    HW210986   3.804   2.128   0.235  0.8867  0.8275 -1.5904
 3363SOL     OW10987   0.888   0.363   1.039  0.3031  0.0264 -0.4960
 3363SOL    HW110988   0.949   0.318   1.104  2.5088  2.3874 -0.7601
 3363SOL    HW210989   0.934   0.372   0.950 -1.2971 -0.0311 -1.3718
 3364SOL     OW10990   6.206   6.651   6.150  0.3197 -0.2253 -0.3451
 3364SOL    HW110991   6.154   6.565   6.156  0.9686 -0.6044  0.0557
 3364SOL    HW210992   6.303   6.630   6.155  0.4940  0.5177 -0.6047
 3365SOL     OW10993   0.188   0.323   3.683  0.4243  0.0189  0.1423
 3365SOL    HW110994   0.106   0.282   3.723  0.1274 -1.3340 -1.7355
 3365SOL    HW210995   0.268   0.271   3.713  0.5175  0.7266  1.1706
 3366SOL     OW10996   0.443   5.650   5.919  0.1824  0.2978 -0.3416
 3366SOL    HW110997   0.439   5.704   6.003 -3.1171  0.8331 -0.6983
 3366SOL    HW210998   0.407   5.558   5.936 -3.1108  1.1941 -1.5048
 3367SOL     OW10999   2.954   2.905   6.054  0.2801 -0.6712 -0.1293
 3367SOL    HW111000   2.987   2.811   6.047 -0.0446 -0.7439 -0.7695
 3367SOL    HW211001   2.937   2.942   5.963  0.2985 -0.0263  0.1200
 3368SOL     OW11002   5.444   4.137   0.080 -0.1557  0.3501 -0.1181
 3368SOL    HW111003   5.423   4.206   0.011  0.0477  0.2161 -0.3193
 3368SOL    HW211004   5.518   4.079   0.046  1.3555  1.5252  1.0170
 3369SOL     OW11005   2.182   5.152   2.860 -0.2861 -0.5957  0.3407
 3369SOL    HW111006   2.133   5.161   2.947  0.4104 -1.9065  0.9099
 3369SOL    HW211007   2.135   5.085   2.802 -0.0818 -0.6443  0.2275
 3370SOL     OW11008   0.926   0.981   2.136 -0.2114  0.1640 -0.5864
 3370SOL    HW111009   0.842   0.974   2.189 -0.3297 -3.3830 -0.9757
 3370SOL    HW211010   1.001   1.010   2.195 -0.9865 -0.3752  0.6874
 3371SOL     OW11011   4.670   1.152   5.900  0.4390 -0.1767 -0.0314
 3371SOL    HW111012   4.666   1.055   5.927  0.2272 -0.2520 -0.3334
 3371SOL    HW211013   4.688   1.207   5.981  1.4795 -0.5434 -0.0010
 3372SOL     OW11014   4.808   6.240   4.043 -0.3528  0.2282  0.2833
 3372SOL    HW111015   4.737   6.243   3.972  0.0861 -0.1006 -0.1763
 3372SOL    HW211016   4.874   6.168   4.022 -0.9090 -0.7317  1.7037
 3373SOL     OW11017   3.217   6.925   1.733 -0.1368 -0.1091  0.2019
 3373SOL    HW111018   3.130   6.914   1.684  0.3836  0.6383 -0.9334
 3373SOL    HW211019   3.206   6.993   1.805 -0.8079 -0.9164  0.8748
 3374SOL     OW11020   3.909   1.361   5.413  0.3902 -0.3383 -0.1021
 3374SOL    HW111021   3.933   1.406   5.327  0.6389  0.8043  0.5531
 3374SOL    HW211022   3.942   1.266   5.411  0.6384 -0.2384 -1.1509
 3375SOL     OW11023   3.507   5.830   0.144 -0.7076 -0.6580  0.1939
 3375SOL    HW111024   3.514   5.912   0.201 -1.1332 -0.9676  0.7057
 3375SOL    HW211025   3.421   5.830   0.094 -0.6440 -0.7241  0.0819
 3376SOL     OW11026   4.698   3.674   1.509 -0.1762  0.1123 -0.6231
 3376SOL    HW111027   4.688   3.632   1.599  1.1471 -1.7845 -1.2739
 3376SOL    HW211028   4.795   3.673   1.483 -0.6132 -0.1866 -2.3912
 3377SOL     OW11029   6.672   1.055   4.572 -0.0549  0.0399 -0.4804
 3377SOL    HW111030   6.691   1.147   4.538  1.3774 -0.6074 -1.5234
 3377SOL    HW211031   6.757   1.013   4.604 -0.8191 -0.6496  0.7165
 3378SOL     OW11032   0.561   2.113   2.538  0.4961 -0.0075  0.6439
 3378SOL    HW111033   0.618   2.082   2.462 -0.4020 -0.4719  0.1487
 3378SOL    HW211034   0.581   2.059   2.620  0.0440 -0.8610  0.1958
 3379SOL     OW11035   5.323   6.290   3.027 -0.6526 -0.1109  0.0828
 3379SOL    HW111036   5.282   6.206   2.991  0.1917  0.6985 -3.1595
 3379SOL    HW211037   5.410   6.306   2.980  0.4224  1.3587  2.4043
 3380SOL     OW11038   1.574   5.516   3.927  0.0966 -0.6216  0.1157
 3380SOL    HW111039   1.496   5.511   3.989 -0.7393 -2.3834 -0.9891
 3380SOL    HW211040   1.616   5.426   3.920 -0.4415 -0.7462 -2.5454
 3381SOL     OW11041   0.085   5.636   6.212  0.1510 -0.4950 -1.1336
 3381SOL    HW111042   0.115   5.715   6.157  1.3518  0.0125  0.2066
 3381SOL    HW211043  -0.001   5.659   6.258  1.3230  0.7292  0.5799
 3382SOL     OW11044   6.597   0.612   5.088  0.0194 -0.1180 -0.5000
 3382SOL    HW111045   6.616   0.684   5.021  1.0277  2.1242  2.0271
 3382SOL    HW211046   6.677   0.597   5.145 -1.4046 -0.4181  1.5349
 3383SOL     OW11047   4.787   6.893   2.014 -0.2770  0.3613 -0.0369
 3383SOL    HW111048   4.878   6.924   2.041  0.0991 -1.2354  0.6799
 3383SOL    HW211049   4.787   6.793   2.007 -2.6041  0.0598  2.5424
 3384SOL     OW11050   5.384   1.510   2.985  0.0491  0.1908  0.1583
 3384SOL    HW111051   5.351   1.474   3.072  0.6508  0.1943  0.3940
 3384SOL    HW211052   5.481   1.534   2.994  0.1145  0.1844 -0.5167
 3385SOL     OW11053   6.778   5.797   2.243 -0.7958 -0.7426  0.9010
 3385SOL    HW111054   6.684   5.797   2.210 -0.5570 -2.4199  0.1607
 3385SOL    HW211055   6.834   5.854   2.183 -0.9774 -1.2771  0.2093
 3386SOL     OW11056   2.016   4.710   6.045  0.5367  0.1565 -0.1397
 3386SOL    HW111057   2.084   4.673   5.982  0.5575  1.0922 -0.6960
 3386SOL    HW211058   2.000   4.806   6.023 -0.1083  0.2596  0.7343
 3387SOL     OW11059   5.842   3.161   0.768 -0.5677 -0.4476  0.1333
 3387SOL    HW111060   5.914   3.105   0.809 -0.5068 -0.9771 -0.6784
 3387SOL    HW211061   5.761   3.160   0.827  0.9292  2.4215  2.5510
 3388SOL     OW11062   0.026   0.468   5.427  0.3664  0.6235  0.4646
 3388SOL    HW111063  -0.041   0.539   5.451  0.4976  0.7591  0.4267
 3388SOL    HW211064   0.113   0.510   5.403 -0.2371  0.6311 -2.0043
 3389SOL     OW11065   2.649   4.714   2.762  0.2129  0.3500  0.0898
 3389SOL    HW111066   2.704   4.720   2.845  0.7530 -1.1916 -0.1191
 3389SOL    HW211067   2.577   4.645   2.774  1.3009 -1.0838 -1.2393
 3390SOL     OW11068   1.307   0.686   3.999  0.3867  0.0178  0.3672
 3390SOL    HW111069   1.220   0.706   4.044  0.4649 -0.2317  0.6313
 3390SOL    HW211070   1.348   0.605   4.040  0.2320 -0.4931 -0.4709
 3391SOL     OW11071   1.988   6.704   3.395 -0.7054  0.0683  0.3858
 3391SOL    HW111072   1.913   6.702   3.461 -0.7831 -1.5480  0.2766
 3391SOL    HW211073   1.969   6.773   3.325 -1.9144 -0.0863  0.5464
 3392SOL     OW11074   1.170   5.125   4.852  0.1337  0.8535  0.3506
 3392SOL    HW111075   1.142   5.209   4.899  0.4504  1.2347 -0.1387
 3392SOL    HW211076   1.089   5.077   4.819 -0.2526 -0.3215  2.7710
 3393SOL     OW11077   0.884   6.822   4.197  0.0359 -0.7957 -0.4744
 3393SOL    HW111078   0.861   6.871   4.113  0.8771 -0.6189 -0.6152
 3393SOL    HW211079   0.899   6.888   4.271 -0.1467 -0.9153 -0.3323
 3394SOL     OW11080   5.101   4.274   5.528  0.4437 -0.9887  0.1339
 3394SOL    HW111081   5.070   4.192   5.578  1.6941  0.0107  2.7416
 3394SOL    HW211082   5.056   4.354   5.567  0.1236 -0.2834 -1.6173
 3395SOL     OW11083   4.620   1.160   3.138  0.0404 -0.5986  0.1020
 3395SOL    HW111084   4.603   1.095   3.212  0.3856 -1.9730 -0.9777
 3395SOL    HW211085   4.620   1.112   3.050  3.4219  0.2315 -0.5336
 3396SOL     OW11086   2.306   6.668   0.770 -0.1156  0.1159  0.2843
 3396SOL    HW111087   2.292   6.683   0.868 -1.4661 -0.3261  0.1776
 3396SOL    HW211088   2.217   6.658   0.725  0.4868  0.3133 -0.9942
 3397SOL     OW11089   2.790   0.151   5.320  0.3560 -0.1541  0.1454
 3397SOL    HW111090   2.825   0.244   5.323  0.6471 -0.2532 -0.1598
 3397SOL    HW211091   2.747   0.129   5.408 -0.9309  0.7306 -0.2319
 3398SOL     OW11092   3.064   4.697   6.242  0.6209 -0.1692 -0.3347
 3398SOL    HW111093   3.105   4.734   6.325 -0.7084  1.8483 -0.4950
 3398SOL    HW211094   2.995   4.629   6.266  0.4566  0.1833  0.2092
 3399SOL     OW11095   5.081   4.658   4.863 -0.4072  0.4602 -0.4734
 3399SOL    HW111096   5.028   4.739   4.837 -0.6697  0.6201  0.5270
 3399SOL    HW211097   5.021   4.593   4.910  0.3439  0.8282  1.0640
 3400SOL     OW11098   6.145   0.966   5.912 -0.4193 -0.3394  0.0714
 3400SOL    HW111099   6.103   0.907   5.843  0.1236 -0.6683  0.0142
 3400SOL    HW211100   6.240   0.987   5.885 -0.4454  0.1435  0.3453
 3401SOL     OW11101   2.414   2.054   5.160 -0.3359  0.1798  0.4181
 3401SOL    HW111102   2.421   1.986   5.233 -0.7847  0.1980  0.4838
 3401SOL    HW211103   2.505   2.080   5.129 -0.1619 -1.7229 -0.7909
 3402SOL     OW11104   2.932   6.640   6.327 -0.6576  0.2990 -0.2211
 3402SOL    HW111105   2.936   6.617   6.230 -0.1867 -2.8623  0.4424
 3402SOL    HW211106   2.854   6.594   6.369  0.0443  0.3532  1.1836
 3403SOL     OW11107   5.315   0.098   5.558  0.1314 -0.0525 -0.2291
 3403SOL    HW111108   5.301   0.076   5.654  1.8769  3.3821  0.9722
 3403SOL    HW211109   5.236   0.149   5.523 -1.0897 -2.3939 -1.1340
 3404SOL     OW11110   5.403   6.925   4.703 -0.3946  0.4533  0.0202
 3404SOL    HW111111   5.440   7.016   4.683 -1.0075  1.3058  2.4077
 3404SOL    HW211112   5.321   6.909   4.648  0.8906  0.4277 -1.9634
 3405SOL     OW11113   4.833   4.156   1.393  0.3588 -0.4280 -0.3494
 3405SOL    HW111114   4.743   4.122   1.421  0.0852  0.9173  0.4997
 3405SOL    HW211115   4.901   4.129   1.462  0.0993  0.8705  0.4531
 3406SOL     OW11116   6.835   6.274   3.678  0.8240  0.7789  0.6525
 3406SOL    HW111117   6.852   6.303   3.583 -1.1658 -0.4280 -0.1315
 3406SOL    HW211118   6.774   6.339   3.722 -0.2899  0.0585  0.2362
 3407SOL     OW11119   2.493   3.631   1.283  0.0427 -0.1399 -0.2140
 3407SOL    HW111120   2.453   3.590   1.202  1.4463  0.7253 -1.3942
 3407SOL    HW211121   2.473   3.729   1.285 -0.4720 -0.2535  0.8077
 3408SOL     OW11122   2.319   1.583   2.806  0.1480 -0.2626  0.1167
 3408SOL    HW111123   2.293   1.496   2.847 -1.8689 -0.5875 -1.6759
 3408SOL    HW211124   2.237   1.631   2.775  1.3731  1.2089 -1.0020
 3409SOL     OW11125   0.139   5.269   5.364  0.2002  0.3368 -0.0813
 3409SOL    HW111126   0.139   5.183   5.313 -1.0008  0.0693  0.3225
 3409SOL    HW211127   0.082   5.258   5.446 -1.5072  2.0520 -0.9749
 3410SOL     OW11128   4.314   3.450   6.527 -0.2406  0.5249  0.0783
 3410SOL    HW111129   4.273   3.402   6.450 -0.8898  0.7791  0.2662
 3410SOL    HW211130   4.252   3.449   6.605  1.1801 -1.4900  1.3069
 3411SOL     OW11131   1.728   0.763   6.738 -0.2604  0.0132 -0.3548
 3411SOL    HW111132   1.780   0.716   6.810  0.1170 -0.9213 -1.2045
 3411SOL    HW211133   1.696   0.696   6.671  1.8191  1.0760 -2.5804
 3412SOL     OW11134   2.907   2.799   1.433  0.7126  0.2340 -0.3139
 3412SOL    HW111135   2.814   2.765   1.417  0.5742  1.0814 -1.4107
 3412SOL    HW211136   2.912   2.842   1.523  0.9119 -2.6764  1.2002
 3413SOL     OW11137   3.550   1.199   1.424  0.0870 -0.0351 -0.4269
 3413SOL    HW111138   3.559   1.105   1.389 -0.0304 -0.5241  0.8084
 3413SOL    HW211139   3.472   1.243   1.380  0.3926 -0.3605 -1.3324
 3414SOL     OW11140   1.478   2.515   6.238  0.4110  0.5961  0.1311
 3414SOL    HW111141   1.411   2.581   6.272 -0.5637 -0.0697 -0.4330
 3414SOL    HW211142   1.545   2.496   6.310 -1.2242 -0.2953  1.5049
 3415SOL     OW11143   4.966   6.182   2.098  0.1900  0.0980  0.5201
 3415SOL    HW111144   4.880   6.193   2.147  0.8205 -1.2446  2.0172
 3415SOL    HW211145   5.001   6.089   2.112  1.2543  0.2061 -1.1207
 3416SOL     OW11146   1.145   5.217   5.695  0.0778 -1.2922 -0.2444
 3416SOL    HW111147   1.191   5.283   5.754  2.1260 -0.5096 -2.5476
 3416SOL    HW211148   1.141   5.128   5.741  3.4260 -1.2414  0.3646
 3417SOL     OW11149   1.855   0.203   1.198  0.1769  0.0430  0.2959
 3417SOL    HW111150   1.838   0.127   1.261  1.1857  1.1246  1.9190
 3417SOL    HW211151   1.772   0.221   1.145 -1.7321  0.9905  3.3852
 3418SOL     OW11152   5.525   5.987   0.504  0.3251 -0.1307 -0.0939
 3418SOL    HW111153   5.488   6.010   0.414  1.3016  2.5921  0.1077
 3418SOL    HW211154   5.618   5.953   0.493  0.5739  0.5459 -0.0958
 3419SOL     OW11155   4.403   0.184   0.079 -0.0519  0.2963  1.0897
 3419SOL    HW111156   4.480   0.178   0.015 -0.7456 -0.8537  0.3209
 3419SOL    HW211157   4.398   0.099   0.132 -2.5089 -0.9353 -0.9409
 3420SOL     OW11158   6.446   0.451   5.248 -0.6805  0.3952 -0.2465
 3420SOL    HW111159   6.496   0.524   5.201  0.1064  0.0612  0.0649
 3420SOL    HW211160   6.422   0.380   5.182  1.2836 -0.5469 -0.0168
 3421SOL     OW11161   2.248   5.747   5.153  0.5920 -0.5982 -0.2152
 3421SOL    HW111162   2.286   5.689   5.080  1.7007 -0.6779  0.3974
 3421SOL    HW211163   2.170   5.701   5.194 -0.9291  0.0469 -2.2306
 3422SOL     OW11164   5.209   3.306   2.731 -0.4736  0.6187 -0.4140
 3422SOL    HW111165   5.192   3.211   2.702  1.6999  0.0002  0.1648
 3422SOL    HW211166   5.132   3.339   2.785 -0.5920 -1.4277  0.7733
 3423SOL     OW11167   1.758   1.469   4.603  0.3093 -0.2638  0.1002
 3423SOL    HW111168   1.734   1.488   4.698  1.0730 -0.5074  0.3492
 3423SOL    HW211169   1.762   1.555   4.552  4.1456  0.4796  1.2993
 3424SOL     OW11170   1.355   0.269   3.362  0.1498  0.5834  0.1259
 3424SOL    HW111171   1.421   0.278   3.287 -0.5435  0.0786 -0.5651
 3424SOL    HW211172   1.395   0.303   3.447  0.8483  1.4398 -0.5324
 3425SOL     OW11173   3.795   4.666   1.142  0.6266  0.3207 -0.5726
 3425SOL    HW111174   3.714   4.706   1.185 -0.1710 -0.0316 -1.7044
 3425SOL    HW211175   3.825   4.724   1.066  0.4469 -0.3736 -1.1855
 3426SOL     OW11176   3.076   0.148   6.927  0.3163  0.3700  0.1998
 3426SOL    HW111177   3.163   0.199   6.927  1.1291 -0.9640  1.0275
 3426SOL    HW211178   3.041   0.142   6.833  2.0680 -0.5937 -0.4370
 3427SOL     OW11179   2.748   3.984   0.702  0.2389 -0.7115 -0.3212
 3427SOL    HW111180   2.837   4.029   0.692  1.5340 -2.9511  0.3556
 3427SOL    HW211181   2.702   3.982   0.613  1.4670 -0.6511 -0.9825
 3428SOL     OW11182   5.093   3.853   1.695  0.4329 -0.1049  0.3559
 3428SOL    HW111183   5.049   3.777   1.646  0.7994 -0.4992  0.6308
 3428SOL    HW211184   5.185   3.825   1.724  1.8654  1.4726 -2.2599
 3429SOL     OW11185   6.529   0.205   1.947  0.1719 -0.0228  0.1499
 3429SOL    HW111186   6.610   0.260   1.927  1.3822 -1.5523  0.6193
 3429SOL    HW211187   6.534   0.120   1.895 -0.7655 -0.4539  0.7516
 3430SOL     OW11188   3.095   2.650   0.248 -0.1117  0.1622 -1.0289
 3430SOL    HW111189   3.012   2.596   0.261  1.4467 -1.8072  1.9647
 3430SOL    HW211190   3.175   2.591   0.253  1.6030  2.3109 -1.2030
 3431SOL     OW11191   5.063   5.684   4.226  0.7819  0.4416 -0.0503
 3431SOL    HW111192   5.123   5.757   4.195  1.4475 -0.0099  0.1404
 3431SOL    HW211193   4.976   5.722   4.258 -0.0030  0.9255 -2.5310
 3432SOL     OW11194   5.594   4.839   2.153  0.1752 -0.0661 -0.1971
 3432SOL    HW111195   5.607   4.915   2.089 -0.8853  0.6371  0.3990
 3432SOL    HW211196   5.502   4.802   2.141 -0.5261  0.9325  1.8176
 3433SOL     OW11197   4.349   5.137   2.070  0.2974 -0.1399  0.3093
 3433SOL    HW111198   4.428   5.110   2.015 -1.6623 -1.1519 -2.2090
 3433SOL    HW211199   4.309   5.221   2.032 -0.6054 -0.3654  0.7373
 3434SOL     OW11200   6.143   6.127   6.848 -0.3066  0.1798 -0.2767
 3434SOL    HW111201   6.092   6.058   6.899 -0.1052  0.2765  0.0626
 3434SOL    HW211202   6.238   6.130   6.881  0.3103 -0.9402 -1.8143
 3435SOL     OW11203   5.662   5.372   3.515 -0.1147 -0.2850  0.0276
 3435SOL    HW111204   5.564   5.364   3.496 -0.1401 -1.6671  0.6100
 3435SOL    HW211205   5.682   5.333   3.605  0.6744  1.9007  0.8756
 3436SOL     OW11206   0.725   6.731   0.497  0.6190 -0.4726 -0.3445
 3436SOL    HW111207   0.807   6.772   0.538 -0.9703  1.0961  1.4545
 3436SOL    HW211208   0.674   6.800   0.448  0.0490 -1.2933 -0.9371
 3437SOL     OW11209   1.781   2.306   0.463 -0.1680 -0.0493 -0.0818
 3437SOL    HW111210   1.786   2.262   0.553 -0.3059 -1.8553 -0.9043
 3437SOL    HW211211   1.845   2.383   0.459 -0.9540  0.7603  1.9034
 3438SOL     OW11212   4.356   1.805   0.943 -0.3125  0.2925  0.0368
 3438SOL    HW111213   4.389   1.847   0.859  1.4426 -0.0025  0.5174
 3438SOL    HW211214   4.296   1.869   0.991 -1.0750  0.5822 -1.2631
 3439SOL     OW11215   1.843   3.443   1.682 -0.0395  0.0796  0.2054
 3439SOL    HW111216   1.940   3.436   1.705 -0.1621 -0.9799  0.4818
 3439SOL    HW211217   1.814   3.358   1.638 -1.2399 -0.2985  1.6901
 3440SOL     OW11218   4.680   1.970   0.905  0.5275 -0.2316  0.1357
 3440SOL    HW111219   4.617   2.043   0.932 -0.5663 -0.5832 -1.3394
 3440SOL    HW211220   4.765   2.010   0.871 -0.2607  0.4174 -1.1553
 3441SOL     OW11221   2.223   1.284   3.552 -0.4563 -0.2159 -1.2706
 3441SOL    HW111222   2.166   1.278   3.635  0.8759 -1.7594 -0.4273
 3441SOL    HW211223   2.304   1.340   3.571  0.6991 -1.9271 -0.9817
 3442SOL     OW11224   6.531   1.980   5.062 -0.0451 -0.2936  0.1229
 3442SOL    HW111225   6.440   1.942   5.079  0.1426 -1.0340 -0.4347
 3442SOL    HW211226   6.524   2.053   4.993 -0.0957 -1.0722 -0.7197
 3443SOL     OW11227   2.916   2.975   0.009  0.0230  0.1507 -0.2600
 3443SOL    HW111228   2.947   2.886  -0.026 -1.6949 -0.4968 -0.2431
 3443SOL    HW211229   2.902   3.038  -0.067 -1.3528 -0.4787 -0.5551
 3444SOL     OW11230   1.481   3.273   1.521  0.1803  0.3493 -0.2361
 3444SOL    HW111231   1.415   3.235   1.455 -0.3383 -1.0366  1.0205
 3444SOL    HW211232   1.559   3.310   1.471  0.1763 -1.3657 -1.6343
 3445SOL     OW11233   4.402   6.299   2.965  0.1285 -0.1020 -0.6904
 3445SOL    HW111234   4.340   6.287   2.888 -0.5707  2.6933 -0.6410
 3445SOL    HW211235   4.489   6.253   2.946 -0.8039 -1.3413 -2.1353
 3446SOL     OW11236   2.962   6.467   5.455  0.0915  0.3256 -0.5184
 3446SOL    HW111237   3.026   6.462   5.532 -0.5071  0.0967 -0.0303
 3446SOL    HW211238   2.907   6.384   5.451 -1.5911  1.3455  0.3362
 3447SOL     OW11239   5.595   3.413   5.003 -0.5823 -0.1978 -0.0077
 3447SOL    HW111240   5.582   3.340   5.070 -2.8495  0.1761  0.0419
 3447SOL    HW211241   5.523   3.407   4.934 -0.1170  1.3142 -0.6546
 3448SOL     OW11242   5.124   1.248   0.804 -0.4421  0.1677 -0.1352
 3448SOL    HW111243   5.215   1.289   0.818  0.1015 -0.5072 -1.5554
 3448SOL    HW211244   5.066   1.271   0.882  1.4747 -0.8943  1.7331
 3449SOL     OW11245   6.804   1.823   4.234  0.1698 -0.1412  0.2154
 3449SOL    HW111246   6.867   1.839   4.158 -1.2532  1.6531 -0.6616
 3449SOL    HW211247   6.757   1.736   4.219  0.0022  0.1273 -0.9060
 3450SOL     OW11248   1.504   0.543   2.763 -1.0058 -0.4137  0.0551
 3450SOL    HW111249   1.561   0.565   2.842 -0.2156 -1.2695 -0.2456
 3450SOL    HW211250   1.498   0.622   2.703  0.2916 -0.4291 -0.1394
 3451SOL     OW11251   2.664   0.978   2.471 -0.3466  0.2238 -0.3068
 3451SOL    HW111252   2.635   1.060   2.520 -1.5013  1.4824 -2.8509
 3451SOL    HW211253   2.593   0.952   2.405  0.7897 -1.7661 -0.8465
 3452SOL     OW11254   6.747   0.455   6.730  0.3140  0.1218  0.2594
 3452SOL    HW111255   6.665   0.435   6.784 -1.1470  0.5687 -1.7103
 3452SOL    HW211256   6.822   0.394   6.760 -0.1915  0.7754  3.1726
 3453SOL     OW11257   3.795   0.508   6.455  0.1533  0.2272 -0.1214
 3453SOL    HW111258   3.869   0.500   6.522  1.5331 -0.3127 -1.6300
 3453SOL    HW211259   3.795   0.601   6.416 -0.1985  0.3303  0.1174
 3454SOL     OW11260   4.476   2.132   0.975  0.1611  0.0335 -0.3733
 3454SOL    HW111261   4.495   2.218   1.024  0.8961 -0.1598 -0.3174
 3454SOL    HW211262   4.377   2.115   0.976 -0.0687  1.2354 -0.9838
 3455SOL     OW11263   0.214   3.622   4.441  0.5064  0.4303 -0.1849
 3455SOL    HW111264   0.313   3.616   4.434  0.6667  3.1493 -1.3899
 3455SOL    HW211265   0.189   3.696   4.503 -0.7550  0.4100 -0.6357
 3456SOL     OW11266   3.517   4.968   3.473 -0.0375  0.4110 -0.2958
 3456SOL    HW111267   3.522   5.068   3.470 -0.2036  0.5034  1.4763
 3456SOL    HW211268   3.608   4.929   3.458 -0.0069  0.8134 -1.1868
 3457SOL     OW11269   0.529   1.683   0.329  0.3013  0.4363  0.6843
 3457SOL    HW111270   0.596   1.615   0.298  0.7316  1.6691 -1.2957
 3457SOL    HW211271   0.577   1.765   0.360 -0.2598  0.4760  1.4732
 3458SOL     OW11272   0.962   0.746   5.309  0.0721 -0.3186 -0.1364
 3458SOL    HW111273   1.050   0.770   5.350 -0.3499 -0.2854  0.7788
 3458SOL    HW211274   0.905   0.828   5.302 -0.8470 -0.7623  1.6907
 3459SOL     OW11275   4.038   6.551   4.912 -0.0289 -0.1645 -0.4186
 3459SOL    HW111276   4.116   6.613   4.898 -1.7284  2.6511  1.6877
 3459SOL    HW211277   4.015   6.547   5.009 -2.0024 -1.6112 -0.8791
 3460SOL     OW11278   3.465   6.495   5.744 -0.3370 -0.5686  0.2486
 3460SOL    HW111279   3.402   6.552   5.693 -1.4377 -0.8935  1.1928
 3460SOL    HW211280   3.539   6.551   5.781 -0.5496 -0.0300 -0.1388
 3461SOL     OW11281   1.188   4.905   6.542  0.5711 -0.6731 -0.4182
 3461SOL    HW111282   1.241   4.968   6.600 -1.1624 -0.2589  0.7949
 3461SOL    HW211283   1.117   4.862   6.596  0.4784 -2.2243 -1.7083
 3462SOL     OW11284   0.128   6.441   4.251 -0.4161 -0.3250 -0.1531
 3462SOL    HW111285   0.164   6.516   4.195 -1.2735  0.0253 -0.2524
 3462SOL    HW211286   0.104   6.475   4.341 -1.4143 -0.3276 -0.4096
 3463SOL     OW11287   3.631   4.395   1.427  0.7625 -0.1727 -0.0260
 3463SOL    HW111288   3.648   4.299   1.404  1.2162 -0.4613  1.4467
 3463SOL    HW211289   3.575   4.436   1.355 -0.5157 -1.8851 -0.0829
 3464SOL     OW11290   6.573   0.703   0.501  0.0007  0.2202  0.2337
 3464SOL    HW111291   6.667   0.702   0.537 -0.4128  2.0974  1.4737
 3464SOL    HW211292   6.537   0.796   0.504 -0.1352  0.6234 -5.0393
 3465SOL     OW11293   2.874   2.525   0.377 -0.1499  0.1797  0.6676
 3465SOL    HW111294   2.858   2.429   0.401 -1.3246  0.5439  1.4366
 3465SOL    HW211295   2.802   2.558   0.317 -0.0826  0.7421  0.8827
 3466SOL     OW11296   6.727   3.869   5.343  0.2452  0.0899  0.3934
 3466SOL    HW111297   6.770   3.877   5.254 -0.8727  0.1844 -0.1652
 3466SOL    HW211298   6.665   3.790   5.343 -0.2884  0.4973  0.8491
 3467SOL     OW11299   1.522   5.036   2.542  0.1177 -0.6232 -0.6710
 3467SOL    HW111300   1.447   5.068   2.599  0.8613  0.2495 -0.1556
 3467SOL    HW211301   1.583   5.112   2.522  1.0604 -1.3866 -0.7706
 3468SOL     OW11302   3.244   0.920   3.325 -0.2906  0.4319 -0.1443
 3468SOL    HW111303   3.269   0.829   3.357 -1.9952 -0.1523 -0.4268
 3468SOL    HW211304   3.161   0.951   3.371 -1.8629  0.2732 -2.6833
 3469SOL     OW11305   0.808   2.513   2.502  0.2983  0.4285  0.2166
 3469SOL    HW111306   0.806   2.607   2.536 -0.2103  0.0142  1.3831
 3469SOL    HW211307   0.880   2.462   2.550  1.2212  0.4457 -1.0870
 3470SOL     OW11308   0.546   2.381   2.555  0.1314 -0.5238  0.7174
 3470SOL    HW111309   0.632   2.416   2.518 -1.7622  3.0682 -0.8056
 3470SOL    HW211310   0.546   2.281   2.554  3.6969 -0.6166 -0.4707
 3471SOL     OW11311   4.268   5.345   6.244 -0.1388  0.2604  0.1474
 3471SOL    HW111312   4.262   5.383   6.336 -1.0405  0.3608  0.0626
 3471SOL    HW211313   4.362   5.347   6.213  0.1797  0.2169  1.0706
 3472SOL     OW11314   0.251   5.155   4.771 -0.5210 -0.5506 -0.6853
 3472SOL    HW111315   0.279   5.248   4.796  2.4791 -0.9115 -2.1304
 3472SOL    HW211316   0.268   5.093   4.847  0.0815 -0.3150 -0.6236
 3473SOL     OW11317   2.739   2.469   6.226  0.7999  0.1097 -0.0383
 3473SOL    HW111318   2.726   2.567   6.213 -0.0666 -0.1537 -1.3284
 3473SOL    HW211319   2.836   2.447   6.223  1.0021  0.9254  0.3214
 3474SOL     OW11320   1.485   0.936   3.875  0.1693  0.4830 -0.2104
 3474SOL    HW111321   1.412   0.870   3.858 -0.8492  0.8752  2.1656
 3474SOL    HW211322   1.481   1.010   3.808 -1.6000  0.4554 -0.1625
 3475SOL     OW11323   6.765   1.506   2.768 -0.2925  1.1588  0.8374
 3475SOL    HW111324   6.742   1.479   2.674  0.2035 -1.7546  1.4522
 3475SOL    HW211325   6.740   1.601   2.782 -0.9530  1.5162 -2.0542
 3476SOL     OW11326   5.866   0.861   4.050  0.3976 -0.2085 -0.4601
 3476SOL    HW111327   5.818   0.789   4.099  0.0496  1.1003  1.2005
 3476SOL    HW211328   5.888   0.830   3.958 -1.6485 -1.6482 -0.5195
 3477SOL     OW11329   2.253   4.377   2.659 -0.1704  0.0651  0.2508
 3477SOL    HW111330   2.154   4.395   2.662 -0.3062 -0.7427  1.1515
 3477SOL    HW211331   2.290   4.405   2.571 -1.6971 -2.1161 -1.1737
 3478SOL     OW11332   6.627   4.057   6.054  0.0455  0.0551  0.0042
 3478SOL    HW111333   6.545   4.064   5.997 -1.1744  0.2340  1.6716
 3478SOL    HW211334   6.610   3.990   6.127  0.8736  1.0463  1.1523
 3479SOL     OW11335   2.063   5.086   1.701  0.7543 -0.3587 -0.8177
 3479SOL    HW111336   2.105   5.155   1.642  0.7465  2.1591  1.8468
 3479SOL    HW211337   2.119   5.003   1.701  3.6277  1.4105 -0.4937
 3480SOL     OW11338   4.045   6.575   5.198  0.4306 -0.4707 -0.1260
 3480SOL    HW111339   4.112   6.513   5.238 -0.2451 -1.1945 -0.0955
 3480SOL    HW211340   4.041   6.659   5.252  1.7561 -0.1545 -0.4916
 3481SOL     OW11341   2.336   5.400   5.939 -0.3408 -0.4093  0.5640
 3481SOL    HW111342   2.256   5.397   5.878 -2.0990  0.8976  2.6286
 3481SOL    HW211343   2.319   5.467   6.012  2.8786  0.2370  0.8530
 3482SOL     OW11344   3.543   5.356   1.173 -0.0882 -0.1385 -0.1782
 3482SOL    HW111345   3.469   5.296   1.144 -0.4100 -0.9935  2.1961
 3482SOL    HW211346   3.519   5.398   1.261  2.3942 -0.7665  0.8618
 3483SOL     OW11347   4.775   4.869   5.808 -0.3517 -0.0887  0.1700
 3483SOL    HW111348   4.679   4.846   5.822 -0.3346 -1.0118 -1.0217
 3483SOL    HW211349   4.831   4.816   5.871 -0.5968  0.1663  0.6066
 3484SOL     OW11350   1.688   0.697   6.085  0.7842  0.3951 -0.0344
 3484SOL    HW111351   1.619   0.694   6.158  0.0804  0.4189 -0.6929
 3484SOL    HW211352   1.706   0.604   6.053 -0.8446  0.5669 -1.6090
 3485SOL     OW11353   0.283   2.447   5.021 -0.0866  0.2291  0.3216
 3485SOL    HW111354   0.193   2.460   5.063 -0.1491  0.2968  0.1684
 3485SOL    HW211355   0.336   2.531   5.027 -0.5926  0.6633 -0.9083
 3486SOL     OW11356   4.714   1.363   2.263 -0.5707 -0.0414 -0.0557
 3486SOL    HW111357   4.618   1.386   2.245 -0.7119 -0.6789 -0.1357
 3486SOL    HW211358   4.719   1.282   2.322 -0.1053  1.1873  1.6920
 3487SOL     OW11359   6.117   5.387   1.971  0.2257  0.2515 -0.0178
 3487SOL    HW111360   6.049   5.428   1.910 -0.3307 -2.0747 -1.0853
 3487SOL    HW211361   6.193   5.352   1.917 -0.1848 -1.6884  0.5696
 3488SOL     OW11362   5.712   4.666   6.430 -0.0151 -0.1986 -0.0454
 3488SOL    HW111363   5.701   4.671   6.529 -1.8202 -2.2097 -0.0701
 3488SOL    HW211364   5.623   4.679   6.386  0.7882  0.8578 -1.4410
 3489SOL     OW11365   5.612   5.282   6.525 -0.0905  0.4098  0.0596
 3489SOL    HW111366   5.566   5.371   6.536 -0.2139  0.4454 -0.7096
 3489SOL    HW211367   5.655   5.278   6.435  0.5512 -0.0279  0.3835
 3490SOL     OW11368   3.180   0.154   4.714  0.2585  0.1487 -0.0580
 3490SOL    HW111369   3.262   0.195   4.674  0.9395 -1.2322 -0.1101
 3490SOL    HW211370   3.128   0.107   4.643  0.4639 -0.6708  0.3235
 3491SOL     OW11371   0.805   6.927   3.949 -0.6873 -0.0106  0.1181
 3491SOL    HW111372   0.783   6.893   3.858 -0.1864  0.9831 -0.3864
 3491SOL    HW211373   0.789   7.026   3.953 -2.0526 -0.2470  1.5319
 3492SOL     OW11374   6.574   0.930   2.137  0.1765  0.1264 -0.0087
 3492SOL    HW111375   6.613   0.858   2.080 -1.1525  0.5732 -1.5391
 3492SOL    HW211376   6.627   0.938   2.222  2.0692 -0.6972 -1.0660
 3493SOL     OW11377   4.002   4.645   6.571  0.3337 -0.5771 -0.2996
 3493SOL    HW111378   3.967   4.641   6.477  0.3161  2.7810 -0.5651
 3493SOL    HW211379   3.959   4.573   6.625 -1.9893 -0.7390 -2.1510
 3494SOL     OW11380   2.209   6.785   3.567 -0.3130  0.3540  0.6754
 3494SOL    HW111381   2.140   6.716   3.545  0.4853 -1.3176  3.0186
 3494SOL    HW211382   2.174   6.876   3.542 -2.6453 -0.5724  0.2759
 3495SOL     OW11383   1.727   3.296   5.054 -0.4342 -0.3398 -0.1497
 3495SOL    HW111384   1.770   3.272   4.967 -0.0756 -0.0664 -0.0490
 3495SOL    HW211385   1.645   3.240   5.067  0.6713 -1.9226  0.3284
 3496SOL     OW11386   3.438   2.144   4.327  0.4583  0.2259  0.2990
 3496SOL    HW111387   3.486   2.159   4.241  1.2740  1.7506  0.9859
 3496SOL    HW211388   3.387   2.226   4.352 -2.2043 -1.1792 -0.1625
 3497SOL     OW11389   3.951   6.873   5.866 -0.2069  0.1929 -0.3998
 3497SOL    HW111390   4.025   6.850   5.802 -0.1269 -1.1227  0.1287
 3497SOL    HW211391   3.878   6.920   5.816  0.3797  0.2698 -1.2118
 3498SOL     OW11392   1.423   2.276   0.175  0.1026  0.7107 -0.3758
 3498SOL    HW111393   1.503   2.335   0.163  0.7949  0.0440  0.8352
 3498SOL    HW211394   1.342   2.334   0.188  0.3303  1.3905 -1.8291
 3499SOL     OW11395   5.068   1.925   0.878  0.3202 -0.1170 -0.2129
 3499SOL    HW111396   5.081   1.909   0.976 -0.1954 -1.3252 -0.3215
 3499SOL    HW211397   5.014   2.008   0.865  1.3185  0.6654  0.4783
 3500SOL     OW11398   3.895   4.024   1.355 -0.1235  0.2014 -0.1256
 3500SOL    HW111399   3.911   3.928   1.331  0.6973  0.5192 -0.9163
 3500SOL    HW211400   3.797   4.043   1.356 -0.2513 -0.3294 -1.2869
 3501SOL     OW11401   0.389   5.445   2.240 -0.4929 -0.7115 -0.2648
 3501SOL    HW111402   0.366   5.406   2.150 -0.2745  0.7696 -1.0011
 3501SOL    HW211403   0.467   5.507   2.229  0.2751 -1.3744  1.1801
 3502SOL     OW11404   4.696   4.761   3.897  0.1722 -0.4376  0.4225
 3502SOL    HW111405   4.759   4.817   3.843 -0.9231 -0.7757 -1.2748
 3502SOL    HW211406   4.737   4.671   3.912  0.5887 -0.2582  0.3864
 3503SOL     OW11407   2.253   6.032   6.828 -0.0135  0.0083  0.3611
 3503SOL    HW111408   2.284   5.972   6.901  1.9012  0.0574 -0.3702
 3503SOL    HW211409   2.290   6.001   6.741  0.9200  2.1361 -0.0620
 3504SOL     OW11410   3.363   3.556   0.490  0.1610  0.4378 -0.1726
 3504SOL    HW111411   3.402   3.553   0.398 -0.2481  1.5890 -0.3954
 3504SOL    HW211412   3.269   3.523   0.487  0.8329 -1.6663  0.2446
 3505SOL     OW11413   2.064   0.148   3.216  0.2370  0.4218  0.2968
 3505SOL    HW111414   2.092   0.178   3.125 -0.9735 -3.9806 -1.7976
 3505SOL    HW211415   1.988   0.204   3.248 -0.1138  1.3510 -1.9780
 3506SOL     OW11416   3.956   6.780   5.370 -0.3964 -0.2658  0.4935
 3506SOL    HW111417   3.905   6.717   5.429  0.8262 -0.1351  1.7553
 3506SOL    HW211418   3.893   6.846   5.329 -1.5279 -1.5451  0.1343
 3507SOL     OW11419   5.257   4.175   1.924  0.3137  0.6697  0.3572
 3507SOL    HW111420   5.186   4.203   1.990  0.4215  1.6068  0.0987
 3507SOL    HW211421   5.277   4.078   1.936 -2.3680 -0.1279 -0.8390
 3508SOL     OW11422   0.278   0.374   4.100 -0.7300 -0.2373 -1.0172
 3508SOL    HW111423   0.211   0.301   4.086  0.7451 -1.9071  0.2910
 3508SOL    HW211424   0.364   0.350   4.057 -0.5133  1.2629 -1.4878
 3509SOL     OW11425   0.767   4.441   1.368  0.1075  0.4800  0.4555
 3509SOL    HW111426   0.769   4.473   1.274 -1.1748 -1.9131 -0.4686
 3509SOL    HW211427   0.772   4.341   1.370 -3.6576  0.1302  2.6156
 3510SOL     OW11428   6.537   7.008   3.881 -0.4785 -0.0715 -0.0187
 3510SOL    HW111429   6.573   7.088   3.928 -0.6390  0.9015 -1.4895
 3510SOL    HW211430   6.475   6.959   3.942  0.6937  0.1146  1.3857
 3511SOL     OW11431   3.245   4.907   0.413 -0.0349  0.4338  0.3078
 3511SOL    HW111432   3.285   4.854   0.488 -0.0074  0.8067  0.5582
 3511SOL    HW211433   3.283   4.876   0.326 -0.2805 -0.1964  0.4204
 3512SOL     OW11434   6.094   3.019   5.862 -0.0975  0.4405 -0.4002
 3512SOL    HW111435   6.022   3.069   5.813 -1.2648  0.3469  1.1357
 3512SOL    HW211436   6.183   3.044   5.824 -0.8821  1.0016 -1.9820
 3513SOL     OW11437   4.811   4.887   2.371 -0.3464 -0.1621  0.2717
 3513SOL    HW111438   4.871   4.837   2.433  0.2748 -1.6328 -1.4238
 3513SOL    HW211439   4.718   4.849   2.377 -0.4567  0.1660  0.7668
 3514SOL     OW11440   0.429   2.198   6.514  0.0185 -0.0572  0.1791
 3514SOL    HW111441   0.351   2.229   6.459  0.1624 -0.5299 -0.3031
 3514SOL    HW211442   0.409   2.109   6.554 -0.1672  0.3804  1.0858
 3515SOL     OW11443   3.395   6.662   2.800  0.0147 -0.5010 -0.0596
 3515SOL    HW111444   3.400   6.762   2.805 -1.1950 -0.4386  0.2338
 3515SOL    HW211445   3.336   6.628   2.874 -0.7814 -1.3095 -1.0355
 3516SOL     OW11446   6.658   3.404   5.995  0.1582  0.0188 -0.1958
 3516SOL    HW111447   6.579   3.407   5.934  1.3410 -3.6912 -2.2129
 3516SOL    HW211448   6.735   3.452   5.953  0.1203  0.1341 -0.1350
 3517SOL     OW11449   6.806   0.114   5.674  0.2050  0.6590  0.3725
 3517SOL    HW111450   6.791   0.058   5.756  0.1326  1.8110  1.1695
 3517SOL    HW211451   6.732   0.098   5.609 -1.0552  1.4820  1.5439
 3518SOL     OW11452   0.853   5.492   4.831 -0.1577  0.1194 -0.3131
 3518SOL    HW111453   0.758   5.463   4.818 -0.9423  1.8892  0.9751
 3518SOL    HW211454   0.854   5.587   4.862  2.0947  0.3593 -0.9493
 3519SOL     OW11455   5.310   5.829   0.618  0.7732 -0.3024 -0.2244
 3519SOL    HW111456   5.357   5.827   0.706 -0.8233 -0.3413  0.6722
 3519SOL    HW211457   5.358   5.891   0.556  0.8282  1.3324  1.3562
 3520SOL     OW11458   0.244   0.637   5.615  0.4467 -0.3321  0.2061
 3520SOL    HW111459   0.293   0.580   5.549 -0.0472  0.1908 -0.6414
 3520SOL    HW211460   0.309   0.682   5.676  0.9539 -0.4395 -0.2487
 3521SOL     OW11461   6.178   0.853   6.557 -0.4122 -0.2545  0.0019
 3521SOL    HW111462   6.211   0.856   6.463 -1.0628 -0.6593 -0.2473
 3521SOL    HW211463   6.242   0.801   6.613  0.5675  0.9529  0.0445
 3522SOL     OW11464   2.591   2.404   5.606  0.0685 -0.2931 -0.5359
 3522SOL    HW111465   2.564   2.378   5.513 -0.2052 -2.6147  0.1405
 3522SOL    HW211466   2.571   2.329   5.669 -0.3189  1.4467  1.5302
 3523SOL     OW11467   5.889   1.071   6.834 -0.1953 -0.3147 -0.2569
 3523SOL    HW111468   5.945   1.130   6.892 -0.6473 -1.5012  1.4671
 3523SOL    HW211469   5.818   1.125   6.789 -1.0674  0.4111  1.8689
 3524SOL     OW11470   6.901   1.774   0.320 -0.1535 -0.2846  0.1693
 3524SOL    HW111471   6.974   1.763   0.253  0.6576  2.9719  0.3344
 3524SOL    HW211472   6.923   1.850   0.381 -2.9903 -0.1665  1.2053
 3525SOL     OW11473   6.181   4.952   3.614  0.2659  0.2637  0.3762
 3525SOL    HW111474   6.166   4.940   3.516  2.4476  0.0441  0.0092
 3525SOL    HW211475   6.249   5.024   3.629  1.4522 -1.0447  1.5925
 3526SOL     OW11476   2.703   1.721   6.682  0.1378 -0.2445 -0.2029
 3526SOL    HW111477   2.649   1.734   6.600  1.4549 -0.0451 -1.0779
 3526SOL    HW211478   2.780   1.661   6.662  1.1314  0.7228  0.5587
 3527SOL     OW11479   1.464   3.984   0.766  0.1757  0.5758 -0.5747
 3527SOL    HW111480   1.545   3.958   0.820 -0.8808 -2.4934 -0.2793
 3527SOL    HW211481   1.481   3.963   0.670 -0.5249 -0.9886 -0.3920
 3528SOL     OW11482   0.984   5.129   2.012  0.0718 -0.0703 -0.7723
 3528SOL    HW111483   0.904   5.184   1.988  0.9364  0.5515 -2.3745
 3528SOL    HW211484   1.038   5.112   1.930  1.1387 -1.2202  0.1383
 3529SOL     OW11485   5.788   0.021   3.802  0.3740 -0.4366  0.1069
 3529SOL    HW111486   5.825   0.046   3.892 -0.0431  0.0455  0.1460
 3529SOL    HW211487   5.698  -0.020   3.813 -0.1575  0.6110 -0.1555
 3530SOL     OW11488   0.295   2.374   4.356  0.4595 -0.2278  0.3464
 3530SOL    HW111489   0.388   2.399   4.331 -0.0444 -0.0053 -1.4157
 3530SOL    HW211490   0.249   2.454   4.395  0.0729  0.6082 -1.6720
 3531SOL     OW11491   0.332   1.595   0.125 -0.1095 -0.2997  0.3314
 3531SOL    HW111492   0.385   1.617   0.207  0.2291  1.2881 -0.2901
 3531SOL    HW211493   0.293   1.503   0.135  0.8735 -0.5970  1.7658
 3532SOL     OW11494   6.185   6.770   2.858 -0.9881 -0.1131  0.0700
 3532SOL    HW111495   6.270   6.814   2.827 -0.9529  0.3973  0.8757
 3532SOL    HW211496   6.166   6.691   2.800 -1.6651  1.5932 -2.1665
 3533SOL     OW11497   6.516   6.651   3.716  0.2236 -1.1981  0.2218
 3533SOL    HW111498   6.603   6.696   3.696  0.1307 -1.6306 -1.2642
 3533SOL    HW211499   6.442   6.719   3.712  0.1233 -1.3689 -1.7013
 3534SOL     OW11500   1.251   0.047   0.786  0.6237 -0.3138  0.0812
 3534SOL    HW111501   1.245   0.127   0.726  1.7812 -0.1837  0.1300
 3534SOL    HW211502   1.324   0.060   0.853 -1.8830  0.4175  2.8931
 3535SOL     OW11503   4.288   0.879   4.173 -0.0208  0.3094 -0.2235
 3535SOL    HW111504   4.258   0.921   4.258 -0.9443 -0.2666 -0.2517
 3535SOL    HW211505   4.265   0.938   4.096 -0.9402 -0.0377 -0.2273
 3536SOL     OW11506   6.016   2.572   5.322  0.4419 -0.3131 -0.5076
 3536SOL    HW111507   5.989   2.607   5.232  0.8476  0.1658 -0.4464
 3536SOL    HW211508   6.104   2.526   5.314  0.7980  0.3064 -0.2394
 3537SOL     OW11509   6.337   5.980   6.375 -0.3061  0.3505  0.0047
 3537SOL    HW111510   6.293   5.995   6.463  0.5393  0.3650  0.4291
 3537SOL    HW211511   6.413   5.915   6.386  1.5942  2.4309 -0.1505
 3538SOL     OW11512   3.286   2.800   6.777 -0.5037 -0.3609  0.4698
 3538SOL    HW111513   3.262   2.860   6.701 -0.8326 -1.5255 -0.3719
 3538SOL    HW211514   3.247   2.709   6.762 -0.1924 -0.7429  1.8145
 3539SOL     OW11515   5.343   3.290   6.367 -0.3842  0.5225 -0.1856
 3539SOL    HW111516   5.278   3.264   6.294 -0.3559  0.3376 -0.1471
 3539SOL    HW211517   5.430   3.316   6.325 -0.8290  1.8719 -0.3065
 3540SOL     OW11518   1.338   3.421   1.737  0.3661 -0.2756 -0.2294
 3540SOL    HW111519   1.372   3.331   1.761 -0.1629 -0.7175 -1.0831
 3540SOL    HW211520   1.388   3.456   1.657  0.8979  0.4013  0.3849
 3541SOL     OW11521   2.050   5.647   2.182  0.5355 -0.5072  0.0627
 3541SOL    HW111522   2.095   5.736   2.178  0.9429 -0.7555 -3.0763
 3541SOL    HW211523   2.115   5.578   2.214  0.1295  0.2502  2.8276
 3542SOL     OW11524   5.020   2.618   1.828 -0.0071  0.1595 -0.5924
 3542SOL    HW111525   4.975   2.540   1.785  0.0460  0.2210 -0.7604
 3542SOL    HW211526   4.952   2.676   1.873  0.0372 -0.4197  0.2362
 3543SOL     OW11527   3.889   5.693   3.594  0.0574 -0.0827 -0.1805
 3543SOL    HW111528   3.796   5.661   3.577 -0.8388  1.0490  2.1947
 3543SOL    HW211529   3.954   5.621   3.569 -1.5776 -1.7828  0.2374
 3544SOL     OW11530   2.850   3.719   5.154  0.0219  0.4305 -0.2920
 3544SOL    HW111531   2.788   3.668   5.213  0.7942  1.2498  1.2775
 3544SOL    HW211532   2.833   3.817   5.165 -0.1224  0.5986 -1.7940
 3545SOL     OW11533   3.860   0.964   2.127 -0.8240  0.4794 -0.3782
 3545SOL    HW111534   3.779   0.974   2.184 -1.3501  2.8150 -1.4215
 3545SOL    HW211535   3.940   0.996   2.178 -0.7989 -0.3200  0.0941
 3546SOL     OW11536   0.238   1.574   1.185  0.0338 -0.3443  0.6904
 3546SOL    HW111537   0.263   1.483   1.218  0.6189 -0.9721 -1.3454
 3546SOL    HW211538   0.319   1.621   1.150 -0.3071  0.8848  1.4768
 3547SOL     OW11539   1.451   6.458   5.273 -0.0155 -0.2072 -0.4494
 3547SOL    HW111540   1.366   6.407   5.280  0.3273 -0.6922  0.3844
 3547SOL    HW211541   1.451   6.513   5.189 -0.3506 -1.6706 -1.4548
 3548SOL     OW11542   0.526   5.552   3.279  0.1421 -0.1180  0.1380
 3548SOL    HW111543   0.545   5.597   3.366  0.2637 -0.0655  0.0850
 3548SOL    HW211544   0.535   5.453   3.291  0.9873 -0.0654 -0.0111
 3549SOL     OW11545   1.752   6.264   6.064 -0.1702 -0.4499 -0.2158
 3549SOL    HW111546   1.767   6.313   5.978 -0.2325  0.7018  0.4052
 3549SOL    HW211547   1.654   6.261   6.084 -0.0044  1.8876  1.2388
 3550SOL     OW11548   6.361   5.074   2.908 -0.4429 -0.4792 -0.3411
 3550SOL    HW111549   6.337   5.168   2.936  1.2228 -0.0047 -0.4262
 3550SOL    HW211550   6.380   5.020   2.990  1.5822  0.1263 -0.3451
 3551SOL     OW11551   1.081   3.529   6.120  0.4931  0.0492 -0.1588
 3551SOL    HW111552   1.178   3.548   6.105  0.5189  1.2064  1.2680
 3551SOL    HW211553   1.071   3.457   6.188  0.3343 -0.9757 -1.2331
 3552SOL     OW11554   3.920   3.592   0.840  0.6572 -0.2686 -0.6022
 3552SOL    HW111555   4.019   3.598   0.847  0.7457 -1.7853 -0.3301
 3552SOL    HW211556   3.895   3.538   0.760  0.0837 -0.6549 -0.1736
 3553SOL     OW11557   4.861   4.092   1.929  0.0939  0.6747  0.4526
 3553SOL    HW111558   4.771   4.049   1.942  0.8608 -0.6464  1.6722
 3553SOL    HW211559   4.911   4.043   1.858  0.4593  0.3724  0.9111
 3554SOL     OW11560   2.185   3.400   5.474 -0.2069  0.5901 -0.6687
 3554SOL    HW111561   2.193   3.460   5.554  0.0781 -1.2436  0.7487
 3554SOL    HW211562   2.096   3.354   5.476  0.3207 -0.4611 -0.6561
 3555SOL     OW11563   5.869   0.288   0.742  0.4247  0.1966  0.3716
 3555SOL    HW111564   5.928   0.352   0.693 -1.0472 -0.2220 -2.1782
 3555SOL    HW211565   5.784   0.335   0.768 -0.2230 -0.4165 -0.5785
 3556SOL     OW11566   0.826   3.412   2.839  0.2602 -0.1141 -0.0510
 3556SOL    HW111567   0.793   3.414   2.745 -1.4075 -1.9815  0.4219
 3556SOL    HW211568   0.815   3.503   2.880 -1.4261  0.0925 -0.8793
 3557SOL     OW11569   4.165   1.006   2.100  0.6545  0.6761 -0.0963
 3557SOL    HW111570   4.218   0.937   2.051 -0.1080 -0.2427  0.3345
 3557SOL    HW211571   4.170   0.990   2.198  0.7515  1.4487  0.0320
 3558SOL     OW11572   5.432   2.723   3.124  0.1442  0.0367  0.5045
 3558SOL    HW111573   5.361   2.707   3.193 -0.1331  1.6815  0.6397
 3558SOL    HW211574   5.428   2.651   3.055 -1.2222 -0.2766  0.8834
 3559SOL     OW11575   3.457   1.415   5.390  0.2364  0.0975  0.1002
 3559SOL    HW111576   3.538   1.470   5.407  0.9431  0.2100 -2.9927
 3559SOL    HW211577   3.400   1.412   5.472  3.0182  0.5352  2.1637
 3560SOL     OW11578   6.033   6.374   4.754  0.6744 -0.3225 -0.0586
 3560SOL    HW111579   5.946   6.411   4.721  0.4707 -0.4554  0.3270
 3560SOL    HW211580   6.108   6.417   4.704  0.5306  1.6299  1.2862
 3561SOL     OW11581   2.915   6.763   1.984 -0.2458 -0.2727  0.0112
 3561SOL    HW111582   2.976   6.842   1.998  0.4772 -0.2554 -2.7020
 3561SOL    HW211583   2.965   6.679   2.002  0.0476 -0.2012 -0.4510
 3562SOL     OW11584   1.678   5.374   2.665 -0.0933  0.1289  0.3460
 3562SOL    HW111585   1.757   5.435   2.665  0.3275 -0.3903 -0.6077
 3562SOL    HW211586   1.679   5.318   2.582 -0.1484 -1.5876  1.4428
 3563SOL     OW11587   4.996   6.888   7.025 -0.6557  0.5017  0.6377
 3563SOL    HW111588   4.899   6.866   7.029 -1.1795  2.7028  3.6926
 3563SOL    HW211589   5.007   6.985   7.005  1.0200  0.0951 -0.6755
 3564SOL     OW11590   4.765   2.356   0.209  0.3012 -0.0950 -0.6901
 3564SOL    HW111591   4.747   2.382   0.304 -0.2069 -2.0958 -0.2056
 3564SOL    HW211592   4.817   2.429   0.165 -2.7806  2.7463 -0.0588
 3565SOL     OW11593   6.175   5.925   1.139  1.0926  0.5739  0.4183
 3565SOL    HW111594   6.179   5.863   1.060 -0.3192 -1.3523  1.7589
 3565SOL    HW211595   6.260   5.977   1.145  1.5241  0.2546 -1.9227
 3566SOL     OW11596   6.461   0.275   1.047 -0.0911 -0.0549  0.2097
 3566SOL    HW111597   6.550   0.294   1.086  0.2593 -0.3034 -0.4439
 3566SOL    HW211598   6.395   0.256   1.120  0.6105 -0.8069  0.6696
 3567SOL     OW11599   4.907   0.625   5.884 -0.2389  0.4821  0.7691
 3567SOL    HW111600   4.838   0.552   5.882 -1.3243  1.4841 -0.2855
 3567SOL    HW211601   4.869   0.707   5.842  1.7120  0.9950 -0.1018
 3568SOL     OW11602   6.500   3.358   0.329 -0.3001  0.0687 -0.7762
 3568SOL    HW111603   6.432   3.431   0.340  0.0617  0.2065  0.9620
 3568SOL    HW211604   6.581   3.380   0.383  0.8029 -0.5062 -2.1302
 3569SOL     OW11605   0.011   4.842   2.538  0.2961  0.7779  0.2775
 3569SOL    HW111606  -0.006   4.749   2.568 -0.1901 -0.2042 -2.7233
 3569SOL    HW211607   0.110   4.856   2.528  0.3097 -0.1605 -1.2214
 3570SOL     OW11608   1.475   1.116   4.936 -0.7925  0.2734 -0.1305
 3570SOL    HW111609   1.571   1.142   4.936 -0.2698 -1.5219 -0.4301
 3570SOL    HW211610   1.418   1.195   4.914  0.7859  0.7687 -2.7704
 3571SOL     OW11611   0.257   1.495   4.720  0.0559 -0.0502 -0.2430
 3571SOL    HW111612   0.270   1.402   4.686 -0.4093  0.1947 -1.1259
 3571SOL    HW211613   0.251   1.558   4.642 -5.2071  0.0631 -0.0693
 3572SOL     OW11614   6.422   1.366   3.075  0.7242  0.4272  0.0802
 3572SOL    HW111615   6.441   1.334   3.167 -0.4601 -1.7388 -0.3442
 3572SOL    HW211616   6.354   1.306   3.032 -0.6225  2.7933 -1.3465
 3573SOL     OW11617   5.843   4.206   3.793 -0.6450  0.0894 -0.2761
 3573SOL    HW111618   5.889   4.180   3.708 -0.8559 -1.2048 -0.0158
 3573SOL    HW211619   5.889   4.162   3.871 -0.9763  0.5653  0.1974
 3574SOL     OW11620   3.853   6.585   2.416  0.0367  0.5786  0.2969
 3574SOL    HW111621   3.912   6.567   2.494  1.5293  1.2155 -0.6580
 3574SOL    HW211622   3.813   6.676   2.425 -1.8337 -0.2915  1.5404
 3575SOL     OW11623   3.404   4.194   0.649 -0.4764 -0.0324  0.0711
 3575SOL    HW111624   3.467   4.255   0.697 -0.8330 -1.3180  2.3299
 3575SOL    HW211625   3.452   4.109   0.625 -1.3382 -1.2210  2.2319
 3576SOL     OW11626   1.384   5.882   5.147 -0.5728 -0.5752 -0.4584
 3576SOL    HW111627   1.469   5.832   5.162  0.2798  1.3072  1.7880
 3576SOL    HW211628   1.404   5.967   5.097 -1.3009 -0.5922 -0.7863
 3577SOL     OW11629   0.572   6.760   6.406 -0.2899  0.4717 -0.2299
 3577SOL    HW111630   0.565   6.854   6.373  0.3940  0.2509 -1.0130
 3577SOL    HW211631   0.619   6.704   6.338 -2.8117 -0.9946 -0.9161
 3578SOL     OW11632   4.944   4.564   6.260 -0.0630  0.1100 -0.1757
 3578SOL    HW111633   4.992   4.649   6.282  0.6737 -0.3885  0.1658
 3578SOL    HW211634   4.901   4.573   6.170  0.6027  0.5982 -0.4537
 3579SOL     OW11635   3.581   5.265   6.161  0.0761  0.5439 -0.9345
 3579SOL    HW111636   3.521   5.185   6.154  0.4120  0.1747  0.1567
 3579SOL    HW211637   3.664   5.240   6.211 -0.5185  1.9442  0.8877
 3580SOL     OW11638   5.598   5.651   3.556  0.2670  0.1443 -0.5966
 3580SOL    HW111639   5.502   5.632   3.537  0.3017  0.1205 -0.7516
 3580SOL    HW211640   5.652   5.568   3.542  0.2540  0.0551 -0.1159
 3581SOL     OW11641   5.221   1.637   4.795 -0.0795  0.2991  0.7502
 3581SOL    HW111642   5.228   1.717   4.854 -0.8709  0.7375  0.2746
 3581SOL    HW211643   5.245   1.663   4.701 -1.3492  0.2452  0.3938
 3582SOL     OW11644   5.763   0.466   5.347 -0.3718 -0.5966  0.1232
 3582SOL    HW111645   5.801   0.444   5.257 -1.4928 -1.3827 -0.1813
 3582SOL    HW211646   5.698   0.542   5.338 -0.1895 -0.4168  0.3319
 3583SOL     OW11647   6.981   4.765   3.186  0.4202  0.6613  0.2325
 3583SOL    HW111648   6.956   4.807   3.273  0.5038  2.3974 -0.5411
 3583SOL    HW211649   6.903   4.714   3.149  0.1763  0.4777  0.9927
 3584SOL     OW11650   6.540   6.348   5.393  0.0647  0.4760  0.2031
 3584SOL    HW111651   6.620   6.382   5.444  0.8461  0.0794 -0.7134
 3584SOL    HW211652   6.569   6.271   5.335 -0.8435  0.7756 -0.6596
 3585SOL     OW11653   1.598   4.022   4.595 -0.5613 -0.4833 -0.6239
 3585SOL    HW111654   1.501   4.003   4.608 -0.1154 -1.7509  1.2650
 3585SOL    HW211655   1.652   3.958   4.650  1.2877  1.8054  0.4057
 3586SOL     OW11656   1.446   0.763   3.533  0.5751 -0.1900 -0.2112
 3586SOL    HW111657   1.457   0.819   3.452  1.2120  0.0633  0.0502
 3586SOL    HW211658   1.535   0.735   3.568  0.5438  2.0638  2.0310
 3587SOL     OW11659   0.638   4.547   6.672 -0.3110 -0.4650 -0.0056
 3587SOL    HW111660   0.688   4.508   6.594  0.0863 -1.0767  0.5506
 3587SOL    HW211661   0.567   4.609   6.638 -1.4948 -2.2652 -0.9570
 3588SOL     OW11662   5.055   0.888   2.182  0.0734 -0.7678  0.5350
 3588SOL    HW111663   5.083   0.974   2.225 -0.5873 -0.1892 -0.1767
 3588SOL    HW211664   4.957   0.891   2.161  0.2820 -1.2195 -0.5737
 3589SOL     OW11665   0.160   6.236   1.400  0.2666 -0.7054  0.4050
 3589SOL    HW111666   0.213   6.158   1.433  1.7890  0.3757  0.6551
 3589SOL    HW211667   0.076   6.245   1.454 -0.1301 -2.3645  0.1185
 3590SOL     OW11668   1.710   2.915   1.585 -0.1854 -0.4509 -0.1170
 3590SOL    HW111669   1.766   2.881   1.660  1.3384  2.1489  0.0562
 3590SOL    HW211670   1.753   2.891   1.498  1.3838  1.5852  0.0155
 3591SOL     OW11671   2.159   5.174   0.095 -0.0862 -0.4327  0.3051
 3591SOL    HW111672   2.233   5.167   0.162  0.8379  0.3854 -0.5998
 3591SOL    HW211673   2.195   5.160   0.003 -1.1777 -0.6755 -0.1059
 3592SOL     OW11674   4.537   2.579   4.013  0.0135  0.1257 -0.0759
 3592SOL    HW111675   4.522   2.645   4.086 -1.6737 -0.7069  0.3823
 3592SOL    HW211676   4.540   2.626   3.925 -0.4595  0.8848  0.3063
 3593SOL     OW11677   6.141   0.169   5.231 -0.0155 -0.3148 -0.2083
 3593SOL    HW111678   6.139   0.120   5.319 -1.6582 -0.1690 -0.1446
 3593SOL    HW211679   6.132   0.267   5.247  2.5588  0.0339 -0.3894
 3594SOL     OW11680   4.725   2.683   6.353 -0.8175 -0.1614 -0.1498
 3594SOL    HW111681   4.636   2.729   6.358 -1.8061 -1.9522 -0.3926
 3594SOL    HW211682   4.766   2.699   6.263 -0.3663  1.5273  0.3155
 3595SOL     OW11683   2.994   2.913   5.283  0.0325 -0.2351  0.2962
 3595SOL    HW111684   3.093   2.898   5.277 -0.1648 -1.9180  0.7794
 3595SOL    HW211685   2.960   2.944   5.194  0.9363  0.0205  0.0273
 3596SOL     OW11686   6.898   4.064   6.172  0.0465 -0.2206 -0.3589
 3596SOL    HW111687   6.804   4.073   6.140 -0.9943 -0.2258  2.4233
 3596SOL    HW211688   6.926   4.148   6.217  1.3577 -0.2770 -1.0335
 3597SOL     OW11689   1.219   4.564   0.445 -0.2784  0.1735 -0.0630
 3597SOL    HW111690   1.164   4.483   0.466 -0.6274  0.2691 -0.5965
 3597SOL    HW211691   1.299   4.566   0.505 -1.3271  0.5312  1.3701
 3598SOL     OW11692   2.779   5.821   3.667 -0.6468 -0.2583 -0.3267
 3598SOL    HW111693   2.833   5.775   3.737 -0.2181  3.3597  1.9262
 3598SOL    HW211694   2.827   5.816   3.579  1.5102 -0.3367  0.7993
 3599SOL     OW11695   5.274   0.203   1.561  0.4374  0.8404 -0.6757
 3599SOL    HW111696   5.328   0.286   1.549 -0.0813  0.8759 -3.3030
 3599SOL    HW211697   5.321   0.126   1.519 -0.1559  0.2600 -0.2967
 3600SOL     OW11698   4.879   3.708   3.581  0.1262 -0.6744 -0.1082
 3600SOL    HW111699   4.831   3.791   3.552  2.6672  0.2450 -2.0367
 3600SOL    HW211700   4.904   3.716   3.677 -1.2380 -0.0529  0.2281
 3601SOL     OW11701   4.669   0.222   5.658  0.4999  0.3181  0.2364
 3601SOL    HW111702   4.627   0.133   5.646 -1.2754  1.2317 -0.7246
 3601SOL    HW211703   4.759   0.223   5.614 -0.4910 -0.2856 -1.9147
 3602SOL     OW11704   4.410   5.437   0.275 -0.4796  0.6543  0.3456
 3602SOL    HW111705   4.458   5.491   0.206 -0.7667  0.3153 -0.1265
 3602SOL    HW211706   4.475   5.408   0.345 -0.1807  0.9832  0.2102
 3603SOL     OW11707   6.876   0.943   0.436 -0.0315 -0.1535 -0.2344
 3603SOL    HW111708   6.961   0.941   0.384 -0.5461  1.2435 -1.1914
 3603SOL    HW211709   6.863   0.856   0.483  0.8294 -1.1773 -1.8317
 3604SOL     OW11710   3.577   1.794   2.277 -0.1798  0.5134 -0.0744
 3604SOL    HW111711   3.481   1.779   2.256 -0.0449  0.1378 -0.4342
 3604SOL    HW211712   3.610   1.874   2.225 -0.6841  1.5984  1.2176
 3605SOL     OW11713   0.148   2.885   0.821  0.2376 -0.3732 -0.6806
 3605SOL    HW111714   0.077   2.821   0.850  1.3147 -1.2802  0.0226
 3605SOL    HW211715   0.230   2.872   0.877  0.8020  0.9927 -1.1467
 3606SOL     OW11716   6.826   3.627   1.366  0.4211 -0.3813 -0.9684
 3606SOL    HW111717   6.768   3.650   1.288  0.1821  1.4869 -0.3023
 3606SOL    HW211718   6.908   3.684   1.365 -0.3583  0.8772  0.9875
 3607SOL     OW11719   0.384   3.880   0.451 -0.2541  0.6869 -0.1243
 3607SOL    HW111720   0.438   3.799   0.476 -1.5101  0.3001  1.4698
 3607SOL    HW211721   0.435   3.934   0.384  0.7644 -1.2268 -0.9790
 3608SOL     OW11722   6.980   4.948   6.356 -0.1504  0.1011 -0.3344
 3608SOL    HW111723   6.951   4.866   6.306 -0.2623 -0.2379  0.2820
 3608SOL    HW211724   6.900   5.006   6.373  0.0372  0.7263 -1.4381
 3609SOL     OW11725   1.546   6.299   3.444 -0.1982 -0.5405  0.4466
 3609SOL    HW111726   1.461   6.277   3.396 -0.8965  2.0890  0.2909
 3609SOL    HW211727   1.591   6.215   3.475 -3.2839 -1.9879  1.3218
 3610SOL     OW11728   6.747   2.708   6.630  0.2720  0.1917  0.2279
 3610SOL    HW111729   6.746   2.764   6.713 -2.3120 -0.9195  1.0322
 3610SOL    HW211730   6.784   2.618   6.651 -2.9697 -1.1019  1.0440
 3611SOL     OW11731   0.451   4.348   1.471  0.2681  0.1389  0.1704
 3611SOL    HW111732   0.468   4.425   1.532 -0.2661 -0.5870  1.2725
 3611SOL    HW211733   0.538   4.304   1.447  0.4389 -0.0936  1.1417
 3612SOL     OW11734   1.845   5.943   6.642  0.4407 -0.0257  0.6227
 3612SOL    HW111735   1.881   5.994   6.564  0.2725  0.2635  0.7330
 3612SOL    HW211736   1.796   6.005   6.703  0.7968 -0.1995  1.0957
 3613SOL     OW11737   5.945   4.510   3.170  0.7870 -0.5267 -0.1695
 3613SOL    HW111738   5.880   4.579   3.139  0.7575 -0.6278 -0.3316
 3613SOL    HW211739   6.007   4.486   3.096 -0.0846 -1.7008 -0.5553
 3614SOL     OW11740   3.702   6.365   2.349  0.2674 -0.2712  0.3339
 3614SOL    HW111741   3.743   6.448   2.388 -1.8261  1.0054 -0.0177
 3614SOL    HW211742   3.646   6.390   2.269 -0.1310 -2.0888 -0.0005
 3615SOL     OW11743   1.260   1.107   5.778  0.1664  0.0989 -0.0582
 3615SOL    HW111744   1.327   1.034   5.760 -1.3276 -2.3202  3.1236
 3615SOL    HW211745   1.177   1.067   5.817 -2.2466  3.2397 -1.5626
 3616SOL     OW11746   2.627   5.071   4.514 -0.0434  0.1273 -0.0509
 3616SOL    HW111747   2.577   4.985   4.517 -1.7625  1.0333 -0.9038
 3616SOL    HW211748   2.656   5.089   4.420 -0.1170  0.6893  0.0286
 3617SOL     OW11749   0.175   0.121   4.846  0.0579 -0.3362 -0.3855
 3617SOL    HW111750   0.078   0.097   4.856 -0.1436  0.5642 -0.0572
 3617SOL    HW211751   0.221   0.113   4.935 -0.1901  1.1490 -0.0838
 3618SOL     OW11752   6.075   3.027   0.791 -0.4678 -0.6311  0.4672
 3618SOL    HW111753   6.066   2.941   0.840 -0.3064 -1.4727 -0.9246
 3618SOL    HW211754   6.170   3.058   0.795 -0.7112  0.0290  1.8013
 3619SOL     OW11755   3.706   4.404   1.091 -0.7610  0.0323 -0.2739
 3619SOL    HW111756   3.764   4.324   1.109 -0.9808 -0.6028 -2.2017
 3619SOL    HW211757   3.754   4.487   1.120  1.2697 -0.4452 -2.0085
 3620SOL     OW11758   6.833   5.251   1.376  0.3021  0.2147 -0.0581
 3620SOL    HW111759   6.816   5.178   1.443 -0.5860 -0.5223 -1.0499
 3620SOL    HW211760   6.782   5.333   1.403 -1.0727 -0.4733 -0.4566
 3621SOL     OW11761   2.998   3.861   2.681  0.4178 -0.2538 -0.1801
 3621SOL    HW111762   2.971   3.853   2.585  0.7650  1.2258 -0.4235
 3621SOL    HW211763   3.084   3.911   2.687 -0.2398  0.7877  0.9654
 3622SOL     OW11764   5.938   5.363   6.128 -0.5139 -0.0452  0.6052
 3622SOL    HW111765   6.000   5.431   6.165 -1.1120  1.0307 -0.3151
 3622SOL    HW211766   5.876   5.406   6.062 -1.1803 -1.3964  0.3083
 3623SOL     OW11767   1.893   5.118   4.912 -0.4626  0.2716  0.3112
 3623SOL    HW111768   1.981   5.087   4.950 -0.0616  0.4331 -0.4682
 3623SOL    HW211769   1.823   5.049   4.928 -0.3555  0.4250  1.5365
 3624SOL     OW11770   6.400   4.363   5.113  0.6997  0.0710  0.0664
 3624SOL    HW111771   6.318   4.361   5.057  1.8862 -0.3833 -1.7597
 3624SOL    HW211772   6.429   4.457   5.128  1.3271  0.1865 -1.6420
 3625SOL     OW11773   2.084   4.781   6.633  0.4999  0.3530 -0.3073
 3625SOL    HW111774   2.059   4.792   6.729  1.5288 -1.2404  0.1882
 3625SOL    HW211775   2.013   4.730   6.585  0.3574  0.4490 -0.1965
 3626SOL     OW11776   5.270   0.592   6.307  0.2785 -0.4914  0.1056
 3626SOL    HW111777   5.273   0.562   6.402 -0.1856  1.0716  0.6366
 3626SOL    HW211778   5.300   0.687   6.301  0.8285 -0.7234 -1.3973
 3627SOL     OW11779   0.173   2.946   3.729  0.5010 -0.3188  0.1115
 3627SOL    HW111780   0.156   2.964   3.633  0.7584  1.2082  0.3386
 3627SOL    HW211781   0.255   2.888   3.738  1.4481  0.8702 -0.5465
 3628SOL     OW11782   1.872   6.020   6.053  0.0899  0.2784 -0.2220
 3628SOL    HW111783   1.827   6.109   6.055 -0.4008  0.0335  1.6586
 3628SOL    HW211784   1.808   5.949   6.083  1.8628  0.0834  3.7821
 3629SOL     OW11785   1.011   1.748   6.966 -0.3528  0.3773 -0.1257
 3629SOL    HW111786   0.914   1.759   6.988 -0.5097 -0.1444 -0.5403
 3629SOL    HW211787   1.041   1.655   6.989 -0.5894 -0.2993 -2.2528
 3630SOL     OW11788   4.869   4.566   2.648  0.3828  0.4030  0.4301
 3630SOL    HW111789   4.795   4.521   2.698 -1.2005  0.7988 -1.4412
 3630SOL    HW211790   4.859   4.548   2.550  1.2724  2.6078 -0.1261
 3631SOL     OW11791   5.344   4.230   5.649 -0.2033  0.7422  0.0172
 3631SOL    HW111792   5.289   4.245   5.567  0.5737  1.4492 -0.3879
 3631SOL    HW211793   5.404   4.151   5.634  0.4917  1.3330 -0.4107
 3632SOL     OW11794   3.685   1.164   6.631 -0.0763  0.0030  0.7910
 3632SOL    HW111795   3.768   1.215   6.608  0.4021 -1.9841 -2.6246
 3632SOL    HW211796   3.625   1.221   6.687  2.2092  2.6372  0.7861
 3633SOL     OW11797   4.101   6.831   5.608 -0.4616 -0.1063  0.3972
 3633SOL    HW111798   4.035   6.800   5.540 -1.1746  0.7701  0.6691
 3633SOL    HW211799   4.167   6.758   5.627 -0.1489 -0.3117 -1.3437
 3634SOL     OW11800   3.897   1.842   3.216  0.2937 -0.6964 -0.6847
 3634SOL    HW111801   3.871   1.792   3.134 -0.3186 -1.2350 -0.1830
 3634SOL    HW211802   3.974   1.903   3.196 -1.8248  1.6012 -2.4607
 3635SOL     OW11803   1.817   3.331   2.617  0.1131 -0.1855  0.5140
 3635SOL    HW111804   1.849   3.248   2.662 -0.4355  0.0409  1.3307
 3635SOL    HW211805   1.872   3.347   2.535  1.1475 -0.5738  1.1179
 3636SOL     OW11806   2.353   5.439   6.496 -0.1018 -0.0915 -0.4242
 3636SOL    HW111807   2.297   5.373   6.445 -1.3765  0.4415  0.2506
 3636SOL    HW211808   2.435   5.394   6.529 -1.8807 -1.9687  1.7628
 3637SOL     OW11809   5.625   3.487   1.265 -0.3804 -0.5392  0.0860
 3637SOL    HW111810   5.545   3.540   1.290 -0.8468 -1.1910  0.0108
 3637SOL    HW211811   5.707   3.544   1.271 -0.7560 -0.0780  0.8868
 3638SOL     OW11812   0.957   5.103   2.617 -0.6265 -0.1973  0.3424
 3638SOL    HW111813   0.868   5.087   2.658 -0.6502 -1.6495 -0.2190
 3638SOL    HW211814   0.994   5.016   2.583  0.8930  0.4166  0.3518
 3639SOL     OW11815   3.498   4.134   3.492  0.1564  0.2482  0.2377
 3639SOL    HW111816   3.494   4.058   3.427 -0.7393  1.1454 -0.8081
 3639SOL    HW211817   3.523   4.218   3.444  2.0274  0.4880  1.5339
 3640SOL     OW11818   4.723   2.781   4.523 -0.1168 -0.1217 -0.9456
 3640SOL    HW111819   4.688   2.729   4.601 -1.0090  1.1820 -0.4240
 3640SOL    HW211820   4.802   2.835   4.551  0.0984 -0.3158 -1.1762
 3641SOL     OW11821   6.646   3.055   6.210  0.2075 -0.3344 -0.3458
 3641SOL    HW111822   6.666   3.146   6.246  2.8999 -0.3220 -1.6402
 3641SOL    HW211823   6.609   2.998   6.282 -0.0494  1.3179  0.8928
 3642SOL     OW11824   6.749   1.669   3.481  0.3801 -0.6573 -0.0990
 3642SOL    HW111825   6.818   1.648   3.550 -0.4831 -0.6134  0.8104
 3642SOL    HW211826   6.731   1.767   3.481 -0.0174 -0.7255  0.0166
 3643SOL     OW11827   4.106   0.514   3.132  0.2231  0.3059  0.1575
 3643SOL    HW111828   4.124   0.523   3.230 -0.4954  0.7806  0.2538
 3643SOL    HW211829   4.020   0.464   3.119 -0.1797  1.0883 -0.2103
 3644SOL     OW11830   2.812   2.036   3.539  0.0164  0.0990 -0.4036
 3644SOL    HW111831   2.731   1.988   3.573  0.2834 -0.3904 -0.4490
 3644SOL    HW211832   2.894   1.999   3.582  0.1241  1.5547  0.7244
 3645SOL     OW11833   0.992   6.745   6.830 -0.3604 -0.3040  0.1185
 3645SOL    HW111834   0.934   6.781   6.903  0.9493  2.3833 -0.0653
 3645SOL    HW211835   0.981   6.801   6.748  0.8365 -1.1146 -0.6319
 3646SOL     OW11836   2.813   5.094   2.290  0.4673 -0.2925  0.0496
 3646SOL    HW111837   2.850   5.002   2.280 -0.0123 -0.3848 -0.9579
 3646SOL    HW211838   2.737   5.092   2.356  0.3241 -0.6557 -0.1222
 3647SOL     OW11839   5.494   3.965   3.573 -0.4936  0.2906 -0.1186
 3647SOL    HW111840   5.516   4.042   3.634 -0.7720 -0.6678  1.2189
 3647SOL    HW211841   5.577   3.911   3.557 -0.8143 -0.5408  0.9680
 3648SOL     OW11842   2.210   2.743   4.524 -0.9582  0.3792 -0.6765
 3648SOL    HW111843   2.121   2.757   4.480 -1.4730 -0.3499  0.0923
 3648SOL    HW211844   2.257   2.830   4.534 -1.0099  0.6212 -2.2622
 3649SOL     OW11845   3.066   5.731   5.019 -0.5715 -0.0628 -0.1327
 3649SOL    HW111846   3.068   5.798   4.944 -0.4028  0.2509  0.1504
 3649SOL    HW211847   2.972   5.716   5.048 -0.5945  0.1815 -0.0809
 3650SOL     OW11848   5.634   2.016   5.784 -1.0316  0.1836 -0.1748
 3650SOL    HW111849   5.674   2.075   5.854 -0.4097 -0.3415 -0.0827
 3650SOL    HW211850   5.650   2.055   5.693 -0.3730  0.0114 -0.1330
 3651SOL     OW11851   0.254   2.709   1.231  0.3883  0.3192  0.3480
 3651SOL    HW111852   0.278   2.797   1.189  1.4599  0.3336  0.9448
 3651SOL    HW211853   0.155   2.697   1.230  0.3410  0.5979 -1.6011
 3652SOL     OW11854   4.937   3.186   1.884  0.2526  0.3236  0.2491
 3652SOL    HW111855   4.867   3.120   1.911 -0.3158  0.7954 -0.0378
 3652SOL    HW211856   4.953   3.251   1.958  0.6729 -0.0075  0.4582
 3653SOL     OW11857   3.512   1.766   3.059 -0.2945  0.4994  0.1717
 3653SOL    HW111858   3.457   1.792   3.138  1.9044  2.1322  1.2611
 3653SOL    HW211859   3.604   1.741   3.088  0.0235 -0.8036 -1.7135
 3654SOL     OW11860   2.016   0.931   6.957 -0.1521  0.6460 -0.4916
 3654SOL    HW111861   2.049   0.992   6.885  0.3546  3.3096  1.8367
 3654SOL    HW211862   2.072   0.941   7.039  1.1256 -4.3914 -0.3759
 3655SOL     OW11863   1.747   0.399   2.739  0.4652  0.3184 -0.2459
 3655SOL    HW111864   1.656   0.441   2.739  0.7248  0.8831  0.1962
 3655SOL    HW211865   1.814   0.463   2.775  1.2564  0.3294 -1.6505
 3656SOL     OW11866   2.664   0.487   6.108  0.5690 -0.0825  0.6495
 3656SOL    HW111867   2.589   0.544   6.075  1.1352  0.2113 -0.1781
 3656SOL    HW211868   2.730   0.544   6.157  0.6324 -0.1978  0.6992
 3657SOL     OW11869   4.232   6.760   1.374  0.1584 -0.0852 -0.6533
 3657SOL    HW111870   4.257   6.754   1.470 -3.3810  1.0882  0.4786
 3657SOL    HW211871   4.170   6.685   1.351  1.2612 -0.5771 -2.1706
 3658SOL     OW11872   1.735   4.492   3.090  0.4776  0.3673  0.0261
 3658SOL    HW111873   1.723   4.447   3.002 -0.0319  0.9638 -0.2115
 3658SOL    HW211874   1.832   4.490   3.116  0.6414  0.2788 -0.5885
 3659SOL     OW11875   3.381   0.289   4.579 -0.2821 -0.3548 -0.3018
 3659SOL    HW111876   3.353   0.362   4.518 -0.6277 -0.8347 -0.7215
 3659SOL    HW211877   3.445   0.325   4.647  1.8064 -0.2066 -2.2087
 3660SOL     OW11878   2.724   4.098   6.638  0.0899  0.1310 -0.2809
 3660SOL    HW111879   2.664   4.155   6.582  2.0561  2.5486 -0.0986
 3660SOL    HW211880   2.718   4.003   6.607 -2.8669  0.4678 -0.9965
 3661SOL     OW11881   6.850   2.817   3.580 -0.2216  0.3773 -0.2781
 3661SOL    HW111882   6.836   2.746   3.649  0.1147  0.1233 -0.4715
 3661SOL    HW211883   6.764   2.833   3.531 -0.6756  1.0987  0.7021
 3662SOL     OW11884   0.815   2.528   3.532  0.1552  0.7562 -0.1683
 3662SOL    HW111885   0.914   2.508   3.529  0.2775  1.4367 -1.1834
 3662SOL    HW211886   0.801   2.627   3.532 -0.5374  0.6950 -1.8816
 3663SOL     OW11887   6.502   0.900   0.204  0.8430 -0.2916 -0.0717
 3663SOL    HW111888   6.580   0.930   0.260  2.0149 -1.2898 -1.0985
 3663SOL    HW211889   6.474   0.808   0.233 -1.1375  0.7298  1.4494
 3664SOL     OW11890   0.919   5.105   3.459 -0.4070  0.0928  0.6796
 3664SOL    HW111891   0.982   5.134   3.387 -1.8491  0.2921 -0.5557
 3664SOL    HW211892   0.834   5.072   3.418 -0.9328 -0.6338  2.2766
 3665SOL     OW11893   4.021   5.066   2.801  0.3838  0.4169  0.5362
 3665SOL    HW111894   4.020   5.115   2.714  0.5473 -3.0288 -1.6273
 3665SOL    HW211895   4.110   5.021   2.813  0.3906  0.8538  2.5878
 3666SOL     OW11896   2.595   5.756   2.544  0.1713 -0.3008  0.1353
 3666SOL    HW111897   2.665   5.787   2.480  0.3470 -1.2622 -0.1675
 3666SOL    HW211898   2.636   5.694   2.611 -0.8090 -3.3137 -1.8217
 3667SOL     OW11899   0.171   5.961   3.334 -0.2288  0.1404  0.5342
 3667SOL    HW111900   0.079   5.948   3.371  0.5645 -0.3780  2.4540
 3667SOL    HW211901   0.198   6.057   3.346  0.0269 -0.0257  1.3649
 3668SOL     OW11902   5.123   6.437   1.724  0.5317 -0.0813 -0.4734
 3668SOL    HW111903   5.098   6.416   1.818 -2.7147 -1.3085 -1.4899
 3668SOL    HW211904   5.155   6.353   1.679  0.5905  0.1623 -0.8855
 3669SOL     OW11905   2.966   3.485   3.903  0.3305 -0.2352  0.7177
 3669SOL    HW111906   2.979   3.403   3.959 -1.1045  0.0435  1.5157
 3669SOL    HW211907   2.928   3.558   3.960  0.4929  0.6140 -0.2425
 3670SOL     OW11908   0.537   6.468   4.236  0.2049 -0.7491  0.6085
 3670SOL    HW111909   0.610   6.535   4.245  1.2713 -1.7547 -0.1947
 3670SOL    HW211910   0.549   6.396   4.304  0.3977 -1.2898  0.0127
 3671SOL     OW11911   1.562   2.519   5.433 -0.0118 -0.8656  0.2804
 3671SOL    HW111912   1.577   2.531   5.532 -0.9957  1.1789  0.2191
 3671SOL    HW211913   1.531   2.605   5.393  1.0273 -1.4642 -1.9726
 3672SOL     OW11914   0.642   1.336   5.207  0.3993 -0.2089  0.3487
 3672SOL    HW111915   0.561   1.333   5.265  0.7351 -2.0049  0.8046
 3672SOL    HW211916   0.625   1.284   5.123  0.7888  0.1533  0.0420
 3673SOL     OW11917   4.000   4.682   0.633  0.3903 -0.1924  0.0433
 3673SOL    HW111918   4.030   4.778   0.637 -0.4695  0.1196 -0.5164
 3673SOL    HW211919   4.035   4.640   0.549  2.3304 -0.9561  1.1688
 3674SOL     OW11920   5.301   2.882   6.710 -0.5413 -0.0654 -0.3145
 3674SOL    HW111921   5.320   2.879   6.809  2.2002  1.4223 -0.7159
 3674SOL    HW211922   5.243   2.803   6.686  0.2159 -1.5158  2.1627
 3675SOL     OW11923   3.502   2.672   6.553 -0.3333  0.8331  1.3890
 3675SOL    HW111924   3.511   2.763   6.594  1.2310  0.8195  1.1148
 3675SOL    HW211925   3.423   2.625   6.594 -1.9730  2.7678  0.6258
 3676SOL     OW11926   1.543   4.617   3.789 -0.1393  0.1582  0.2941
 3676SOL    HW111927   1.634   4.583   3.812  0.4362  0.9093 -0.7857
 3676SOL    HW211928   1.489   4.544   3.749 -0.4401 -0.6096  2.0313
 3677SOL     OW11929   3.787   2.804   6.462  0.1371 -0.4734  0.5732
 3677SOL    HW111930   3.768   2.713   6.424 -0.7190  0.0366 -0.2635
 3677SOL    HW211931   3.744   2.874   6.405  1.2698  0.5106  0.8751
 3678SOL     OW11932   2.625   2.369   3.265  0.1327  0.2225 -0.2962
 3678SOL    HW111933   2.532   2.378   3.300  0.5231 -0.5318  1.0354
 3678SOL    HW211934   2.690   2.384   3.340  0.9940 -2.2309 -0.4570
 3679SOL     OW11935   0.883   3.325   3.429 -0.0852 -0.1486  0.1992
 3679SOL    HW111936   0.874   3.386   3.507 -1.6615  3.3452 -2.4343
 3679SOL    HW211937   0.975   3.333   3.391  0.2371 -0.7781  0.8172
 3680SOL     OW11938   2.505   4.124   5.355  0.3372 -0.0908  0.2237
 3680SOL    HW111939   2.458   4.069   5.286  1.0990 -0.5617  0.0678
 3680SOL    HW211940   2.557   4.197   5.309  1.8415 -1.1516  0.1800
 3681SOL     OW11941   1.407   4.187   5.581 -0.1364 -0.0813 -0.1450
 3681SOL    HW111942   1.333   4.197   5.515 -0.4360  1.1250  0.3393
 3681SOL    HW211943   1.466   4.111   5.554 -2.1034 -1.7649  0.0115
 3682SOL     OW11944   5.174   6.168   4.036  0.2229 -1.0234 -0.2939
 3682SOL    HW111945   5.265   6.209   4.026  0.0764 -0.9496 -1.4857
 3682SOL    HW211946   5.126   6.172   3.948 -1.8918  1.1090  0.8579
 3683SOL     OW11947   5.540   4.581   5.886  0.0360  0.5257  0.0362
 3683SOL    HW111948   5.516   4.677   5.890 -2.4566 -0.0625  1.7927
 3683SOL    HW211949   5.457   4.526   5.873  1.1836 -1.4481  0.6057
 3684SOL     OW11950   0.729   6.212   6.960 -0.3448  0.2470 -0.3556
 3684SOL    HW111951   0.715   6.267   7.043 -0.0346  1.9962 -1.4015
 3684SOL    HW211952   0.641   6.202   6.912 -0.3372  0.1035 -0.3402
 3685SOL     OW11953   5.231   3.728   3.342  0.1819 -0.5798  0.2605
 3685SOL    HW111954   5.227   3.806   3.281 -0.4846  0.5911  1.7375
 3685SOL    HW211955   5.144   3.680   3.341  0.4473 -1.0633 -0.3174
 3686SOL     OW11956   2.756   2.404   4.343  0.2452  0.0654  0.3420
 3686SOL    HW111957   2.711   2.443   4.262 -0.5308  1.1485  1.2671
 3686SOL    HW211958   2.706   2.324   4.374 -0.2793  0.4734  0.5684
 3687SOL     OW11959   2.374   4.255   6.785  1.3330  0.0358 -0.4499
 3687SOL    HW111960   2.315   4.174   6.785 -0.0167  0.9810  0.0178
 3687SOL    HW211961   2.318   4.338   6.790  2.7209  0.9647  1.0713
 3688SOL     OW11962   6.702   6.535   6.392  0.3291 -0.7382 -0.7691
 3688SOL    HW111963   6.630   6.535   6.322 -0.3249  1.0864 -0.1689
 3688SOL    HW211964   6.734   6.629   6.406  1.7064 -1.3129  0.1391
 3689SOL     OW11965   3.762   6.765   0.214 -0.2622 -0.0408 -0.2440
 3689SOL    HW111966   3.768   6.848   0.269 -1.7796 -0.0525 -0.0278
 3689SOL    HW211967   3.714   6.694   0.266 -0.0710 -0.6635 -0.8969
 3690SOL     OW11968   1.513   0.604   5.216  0.5924  0.5258  0.2840
 3690SOL    HW111969   1.527   0.695   5.254 -0.2317  1.2118 -0.9903
 3690SOL    HW211970   1.512   0.536   5.290  3.8000  1.1782  1.0506
 3691SOL     OW11971   4.114   3.434   5.691 -0.4898 -0.5835  0.2557
 3691SOL    HW111972   4.159   3.475   5.612 -1.4345 -0.9197 -0.4932
 3691SOL    HW211973   4.167   3.356   5.724 -0.6864 -1.2096 -0.8473
 3692SOL     OW11974   5.464   4.667   6.308 -0.0252 -0.2500 -0.1053
 3692SOL    HW111975   5.378   4.668   6.359  1.1532 -0.9795  2.0332
 3692SOL    HW211976   5.451   4.712   6.220 -2.4535  0.0853  0.3517
 3693SOL     OW11977   5.225   2.821   4.597  0.1828 -0.3199  0.1389
 3693SOL    HW111978   5.287   2.852   4.525  0.2983 -1.2856 -0.1835
 3693SOL    HW211979   5.245   2.872   4.682 -1.2941  2.3062 -0.9671
 3694SOL     OW11980   3.767   1.328   4.166 -0.2769 -0.4642 -0.4352
 3694SOL    HW111981   3.827   1.377   4.229 -1.0184 -0.3307  0.1964
 3694SOL    HW211982   3.700   1.391   4.128 -0.0296 -0.6115 -1.1229
 3695SOL     OW11983   2.264   4.316   4.177  0.3816  0.0740  0.8042
 3695SOL    HW111984   2.244   4.236   4.233 -0.1079 -0.0612  0.4401
 3695SOL    HW211985   2.277   4.396   4.237 -0.1313 -0.0687  1.1138
 3696SOL     OW11986   2.709   3.975   6.314 -0.0239 -0.3542  0.3452
 3696SOL    HW111987   2.745   4.002   6.224  0.2407 -0.5538  0.3885
 3696SOL    HW211988   2.617   4.011   6.325 -0.3364 -0.9121 -0.2967
 3697SOL     OW11989   5.078   5.385   2.036 -0.5512  0.1139 -0.3725
 3697SOL    HW111990   4.986   5.410   2.005 -0.7437 -1.3092 -1.0602
 3697SOL    HW211991   5.146   5.428   1.977 -0.7612  1.3054  0.2384
 3698SOL     OW11992   3.385   6.537   1.709  0.4177  0.5038  0.7859
 3698SOL    HW111993   3.478   6.504   1.722 -0.2779 -1.1591  1.7991
 3698SOL    HW211994   3.349   6.572   1.795  0.1535  1.3305  0.3547
 3699SOL     OW11995   2.705   0.077   3.437 -0.0395 -0.3159 -0.1230
 3699SOL    HW111996   2.724   0.143   3.365 -0.7168  2.2169  1.8640
 3699SOL    HW211997   2.646   0.005   3.402  1.3788 -0.3868 -2.5933
 3700SOL     OW11998   4.652   3.127   0.470 -0.1173 -0.0456 -0.0831
 3700SOL    HW111999   4.679   3.166   0.381 -1.3067 -1.4573 -1.1230
 3700SOL    HW212000   4.676   3.030   0.471 -2.4679 -0.6761  0.0558
 3701SOL     OW12001   0.079   2.120   5.538 -0.3440  0.6720 -0.1020
 3701SOL    HW112002  -0.007   2.116   5.589 -0.4821  1.8473 -0.2190
 3701SOL    HW212003   0.067   2.178   5.457 -0.3177 -1.6626 -1.8634
 3702SOL     OW12004   4.253   0.800   3.415 -0.2865 -0.3561 -0.2448
 3702SOL    HW112005   4.276   0.886   3.461  0.1679  0.0199 -1.1336
 3702SOL    HW212006   4.154   0.790   3.410 -0.3447  0.2532 -0.3646
 3703SOL     OW12007   0.504   2.315   4.575  0.4770 -0.2310  0.4604
 3703SOL    HW112008   0.454   2.312   4.488  0.0725 -0.0206  0.6829
 3703SOL    HW212009   0.446   2.357   4.645 -0.1688 -2.6856  1.4820
 3704SOL     OW12010   5.420   3.027   0.556  0.5879 -0.2903 -0.4881
 3704SOL    HW112011   5.336   2.973   0.554 -0.0608  0.6585  0.0863
 3704SOL    HW212012   5.485   2.986   0.620 -0.0915 -0.1215  0.3259
 3705SOL     OW12013   5.418   5.574   1.863 -0.2469  0.4841  0.2014
 3705SOL    HW112014   5.412   5.484   1.908  1.2935 -0.1145 -0.7043
 3705SOL    HW212015   5.415   5.646   1.932 -1.4536 -0.2473  0.9556
 3706SOL     OW12016   3.054   2.177   6.085 -0.1745  0.3006  0.8760
 3706SOL    HW112017   3.060   2.114   6.162  0.1188  1.1957  1.6089
 3706SOL    HW212018   2.966   2.164   6.038  0.1260 -1.0371  0.6482
 3707SOL     OW12019   2.283   6.381   0.350 -0.1877  0.5873  0.0503
 3707SOL    HW112020   2.285   6.379   0.450  0.3890  1.6248  0.0698
 3707SOL    HW212021   2.349   6.315   0.314 -0.0559  0.5457  0.3641
 3708SOL     OW12022   3.953   4.945   0.212  0.1306  0.0761  0.3265
 3708SOL    HW112023   3.928   4.858   0.256 -2.6107  0.0339 -1.0438
 3708SOL    HW212024   3.886   5.015   0.237  1.4324  1.4164  0.1966
 3709SOL     OW12025   0.247   3.378   5.639 -0.0014 -0.4102 -0.7169
 3709SOL    HW112026   0.297   3.295   5.617  1.1439  0.2105 -0.5451
 3709SOL    HW212027   0.310   3.456   5.638 -0.4342  0.0829  1.8255
 3710SOL     OW12028   1.278   5.364   3.407  0.2386 -0.1313  0.1390
 3710SOL    HW112029   1.191   5.322   3.381  0.8523 -0.3878 -1.6664
 3710SOL    HW212030   1.303   5.433   3.339  0.7676  0.9671  1.3996
 3711SOL     OW12031   3.366   3.468   0.841 -0.0119 -0.1456  0.0958
 3711SOL    HW112032   3.330   3.494   0.931  0.7685  0.0059  0.3752
 3711SOL    HW212033   3.389   3.371   0.841 -2.0016 -0.6612 -0.6341
 3712SOL     OW12034   4.727   4.222   3.892  0.3825 -0.0435 -0.1130
 3712SOL    HW112035   4.650   4.176   3.847  1.0119  1.1420 -2.5836
 3712SOL    HW212036   4.779   4.156   3.946 -2.1202 -0.9394  1.3693
 3713SOL     OW12037   6.067   4.932   5.046  0.0390 -0.1587 -0.6646
 3713SOL    HW112038   6.015   4.851   5.072 -1.4737  0.8923 -0.2848
 3713SOL    HW212039   6.006   5.011   5.043  1.5981  1.0991 -0.3540
 3714SOL     OW12040   4.572   1.025   1.112 -0.3993  0.7884  0.1232
 3714SOL    HW112041   4.541   0.975   1.192 -2.0989  0.7048 -0.5330
 3714SOL    HW212042   4.493   1.048   1.054  0.9805 -3.0883 -3.8619
 3715SOL     OW12043   5.445   3.388   2.551  0.0747  0.3815  0.4487
 3715SOL    HW112044   5.371   3.353   2.608 -2.2236 -0.2184 -2.6243
 3715SOL    HW212045   5.507   3.313   2.528 -1.1571 -0.2904 -0.8359
 3716SOL     OW12046   3.373   5.401   5.953 -0.1081  0.2865  0.1318
 3716SOL    HW112047   3.409   5.309   5.944 -1.0522 -0.0181 -0.7765
 3716SOL    HW212048   3.316   5.407   6.035  2.4089  0.9536  1.9586
 3717SOL     OW12049   3.513   0.555   7.019 -0.2888 -0.7514 -0.2413
 3717SOL    HW112050   3.446   0.629   7.016 -0.8213 -1.2356 -0.3461
 3717SOL    HW212051   3.526   0.526   7.114  2.1495  1.4718  0.2117
 3718SOL     OW12052   3.781   1.321   1.032  0.6005  0.2534 -0.1048
 3718SOL    HW112053   3.776   1.240   1.091 -1.1948 -1.5301 -2.5523
 3718SOL    HW212054   3.704   1.381   1.052 -1.1767 -1.3152 -1.8069
 3719SOL     OW12055   1.091   0.306   4.270  0.1231  0.1304  0.7674
 3719SOL    HW112056   1.142   0.253   4.337  0.2003 -0.4370  0.2674
 3719SOL    HW212057   1.066   0.394   4.309 -0.3232 -0.4150  1.7336
 3720SOL     OW12058   3.311   3.665   7.014 -0.0131  0.0395  0.0987
 3720SOL    HW112059   3.283   3.569   7.008 -0.1728  0.1404 -0.9252
 3720SOL    HW212060   3.327   3.701   6.922  0.5991  0.8384  0.5067
 3721SOL     OW12061   6.577   0.246   0.648  0.1254  0.5055  0.2323
 3721SOL    HW112062   6.534   0.301   0.719  0.8075  0.2102  0.8836
 3721SOL    HW212063   6.507   0.214   0.584 -0.1580  3.0338 -0.8252
 3722SOL     OW12064   3.019   1.108   6.122  0.3238 -0.0207 -0.7892
 3722SOL    HW112065   3.006   1.163   6.205  0.9088 -2.1782  0.8250
 3722SOL    HW212066   2.930   1.074   6.090 -0.0363  1.7278 -1.7768
 3723SOL     OW12067   6.959   4.334   6.264  0.1691 -0.2457 -0.3548
 3723SOL    HW112068   6.867   4.362   6.235 -0.1414 -1.2756 -0.4068
 3723SOL    HW212069   6.993   4.398   6.333 -0.6171  0.1077 -0.2820
 3724SOL     OW12070   6.376   4.246   5.366  0.1492  0.1991 -0.1186
 3724SOL    HW112071   6.344   4.310   5.296 -1.6077 -0.8275 -0.3124
 3724SOL    HW212072   6.334   4.269   5.453 -1.4535 -1.3345 -0.4312
 3725SOL     OW12073   0.386   3.214   0.481 -0.5327 -0.1433  0.4169
 3725SOL    HW112074   0.481   3.243   0.474 -0.6930  0.1061 -1.2868
 3725SOL    HW212075   0.378   3.118   0.456 -0.8683  0.1661 -0.7339
 3726SOL     OW12076   3.951   5.886   5.010 -0.4882  0.6135  0.3771
 3726SOL    HW112077   3.862   5.887   4.964 -0.6303 -0.9766  0.5570
 3726SOL    HW212078   4.021   5.919   4.948 -1.4957  4.5693  1.0514
 3727SOL     OW12079   4.241   4.797   5.212  0.3967 -0.0180  0.4143
 3727SOL    HW112080   4.214   4.706   5.244 -0.8072 -0.1757 -0.9465
 3727SOL    HW212081   4.160   4.856   5.206  0.7273  0.3379 -1.1628
 3728SOL     OW12082   5.609   6.662   4.269  0.6854  0.1951 -0.1522
 3728SOL    HW112083   5.558   6.596   4.214  0.9086  1.2249 -1.6602
 3728SOL    HW212084   5.705   6.662   4.241  0.8413  0.6163  0.3617
 3729SOL     OW12085   6.297   5.497   1.437  0.1301 -0.2385  0.2513
 3729SOL    HW112086   6.294   5.575   1.374 -2.5460  0.3348  0.9855
 3729SOL    HW212087   6.368   5.434   1.407  1.2957  1.6837 -1.2976
 3730SOL     OW12088   3.302   0.516   4.403  0.3156  0.4929 -0.6014
 3730SOL    HW112089   3.208   0.483   4.395  0.8027 -1.1347  0.0693
 3730SOL    HW212090   3.302   0.616   4.405 -1.3586  0.5306 -0.9437
 3731SOL     OW12091   5.420   1.452   5.219  0.1198  0.2772  0.3304
 3731SOL    HW112092   5.394   1.364   5.258  0.5786  0.0697  0.1769
 3731SOL    HW212093   5.398   1.525   5.283 -2.1468  0.2721 -0.3381
 3732SOL     OW12094   6.838   6.938   5.857  0.6791  0.2179 -0.0718
 3732SOL    HW112095   6.918   6.878   5.854 -0.8784 -1.9988 -0.2933
 3732SOL    HW212096   6.815   6.957   5.952 -0.2709 -1.7697  0.1657
 3733SOL     OW12097   5.435   1.776   6.381  0.0640  0.2832  0.0330
 3733SOL    HW112098   5.375   1.695   6.373 -0.1656  0.3565  0.8993
 3733SOL    HW212099   5.380   1.855   6.406  0.7214 -0.0066  2.6320
 3734SOL     OW12100   1.863   6.429   3.659 -0.5605 -0.2192  0.2132
 3734SOL    HW112101   1.884   6.332   3.670 -0.7601 -0.4511 -1.1990
 3734SOL    HW212102   1.948   6.482   3.655 -0.4010 -0.5034 -0.2560
 3735SOL     OW12103   5.995   4.584   4.163 -0.1910 -0.0007 -0.3084
 3735SOL    HW112104   5.896   4.593   4.177  0.1278  0.7261  1.8712
 3735SOL    HW212105   6.037   4.675   4.161  0.7199 -0.3364  1.5833
 3736SOL     OW12106   3.813   6.703   6.085 -0.1200 -0.1271  0.4670
 3736SOL    HW112107   3.747   6.751   6.142  0.3885 -0.1220  1.0670
 3736SOL    HW212108   3.859   6.768   6.024  0.0362  0.0307  0.7511
 3737SOL     OW12109   0.423   0.461   2.216 -0.1951  0.6664  0.0776
 3737SOL    HW112110   0.455   0.536   2.274 -0.1848 -0.2151  1.2532
 3737SOL    HW212111   0.480   0.381   2.231 -1.9990 -0.5066  1.1762
 3738SOL     OW12112   3.811   1.470   3.736  0.1154  0.3157  0.7384
 3738SOL    HW112113   3.796   1.372   3.746 -1.3529  0.5684  1.2900
 3738SOL    HW212114   3.805   1.514   3.825 -0.3332  1.0298  0.3649
 3739SOL     OW12115   1.879   5.195   5.233 -0.0870  0.5887  0.2647
 3739SOL    HW112116   1.845   5.154   5.148 -3.3926  0.8516  1.3340
 3739SOL    HW212117   1.861   5.133   5.309 -2.5728  2.6761  1.5054
 3740SOL     OW12118   6.669   3.371   0.933  0.2233  0.1756  0.0027
 3740SOL    HW112119   6.731   3.299   0.903 -0.4580 -0.2503 -0.4196
 3740SOL    HW212120   6.578   3.332   0.949 -0.0319  0.8561  0.2477
 3741SOL     OW12121   1.093   4.074   5.180  0.3595 -0.5644 -0.3374
 3741SOL    HW112122   1.054   4.144   5.121 -0.3159  0.3054  1.1038
 3741SOL    HW212123   1.042   3.989   5.170 -0.3991 -0.1265 -0.2636
 3742SOL     OW12124   2.010   1.507   0.374 -0.9038  0.3077  0.0467
 3742SOL    HW112125   2.103   1.515   0.408 -1.1687  1.0506  0.6202
 3742SOL    HW212126   1.955   1.456   0.439 -0.7918 -0.5803 -0.5304
 3743SOL     OW12127   0.493   3.919   1.083  0.4343  0.2733 -0.5973
 3743SOL    HW112128   0.484   3.961   0.992 -1.4305 -0.9524 -1.0252
 3743SOL    HW212129   0.481   3.990   1.153  2.1956  1.2893 -1.2633
 3744SOL     OW12130   6.962   6.238   0.601  0.3522  0.1743  0.0906
 3744SOL    HW112131   6.923   6.283   0.521 -0.9517  0.8615  1.0649
 3744SOL    HW212132   6.936   6.141   0.600 -1.8274  0.6913  0.9093
 3745SOL     OW12133   1.491   3.441   1.114  0.0713  0.1898  0.1041
 3745SOL    HW112134   1.428   3.367   1.137  0.7509 -0.0005  1.4690
 3745SOL    HW212135   1.529   3.426   1.023 -0.9261 -0.3248 -0.2447
 3746SOL     OW12136   3.647   2.904   2.560  0.5564 -0.3341 -0.4855
 3746SOL    HW112137   3.728   2.948   2.521 -0.1623 -0.7023 -2.4987
 3746SOL    HW212138   3.588   2.870   2.487 -1.5910  0.1716  0.8918
 3747SOL     OW12139   4.141   6.105   0.527  0.0500 -0.4834 -0.2676
 3747SOL    HW112140   4.187   6.119   0.439  0.0300 -0.2488 -0.2414
 3747SOL    HW212141   4.068   6.038   0.516 -0.3297 -0.0208 -0.5563
 3748SOL     OW12142   6.607   2.874   3.484  0.0872  0.0963  0.0415
 3748SOL    HW112143   6.547   2.798   3.456  1.9917 -0.6228 -2.5603
 3748SOL    HW212144   6.602   2.947   3.416  0.2835  1.1349  1.1168
 3749SOL     OW12145   6.389   2.895   0.512 -0.2027 -0.5032 -0.4242
 3749SOL    HW112146   6.312   2.835   0.490 -1.1691  0.1481  1.0103
 3749SOL    HW212147   6.389   2.974   0.451 -2.6810  1.1494  1.4848
 3750SOL     OW12148   2.686   1.867   3.111 -0.4413 -0.8384  0.0311
 3750SOL    HW112149   2.607   1.824   3.068 -0.9337  1.5432 -1.6488
 3750SOL    HW212150   2.657   1.948   3.163  0.9256  1.5497 -2.5855
 3751SOL     OW12151   1.705   0.162   3.978 -0.1753 -0.4930 -0.3253
 3751SOL    HW112152   1.667   0.108   3.902 -0.8117 -0.5573  0.0322
 3751SOL    HW212153   1.702   0.108   4.062  0.0456 -0.2344 -0.1520
 3752SOL     OW12154   5.464   2.131   0.390 -0.1427 -0.2102  0.1859
 3752SOL    HW112155   5.519   2.096   0.466 -0.5532  1.0828  1.1169
 3752SOL    HW212156   5.367   2.134   0.417 -0.2074  0.9103 -0.1182
 3753SOL     OW12157   1.899   6.786   2.082  0.1028  0.3523  0.3186
 3753SOL    HW112158   1.924   6.711   2.020  1.8232 -0.1758  1.5769
 3753SOL    HW212159   1.957   6.783   2.163 -1.7575  1.3174  1.7659
 3754SOL     OW12160   4.178   0.914   0.112  1.0283 -0.1949 -0.1173
 3754SOL    HW112161   4.277   0.915   0.096  0.8795  0.4754 -1.1181
 3754SOL    HW212162   4.152   0.828   0.156  2.3214  0.4502  2.0479
 3755SOL     OW12163   2.260   5.906   2.417  0.4603  0.3443  0.1466
 3755SOL    HW112164   2.348   5.953   2.415  0.2002  0.8596  0.6410
 3755SOL    HW212165   2.214   5.926   2.503 -0.0173 -0.1586  0.0124
 3756SOL     OW12166   3.957   1.218   5.750 -0.4306  0.2765 -0.3236
 3756SOL    HW112167   3.985   1.122   5.759  0.2198  0.4391 -0.5335
 3756SOL    HW212168   4.038   1.275   5.741 -0.6012  1.1956  2.7422
 3757SOL     OW12169   4.542   2.175   2.345 -0.5106 -0.2362  0.2246
 3757SOL    HW112170   4.586   2.192   2.433  0.3214  2.3708 -0.5783
 3757SOL    HW212171   4.555   2.080   2.318  0.8437 -0.6154  2.0441
 3758SOL     OW12172   0.725   4.059   6.603 -0.2057  0.3675  0.3260
 3758SOL    HW112173   0.796   4.019   6.660 -0.2330 -0.1942 -0.0247
 3758SOL    HW212174   0.745   4.041   6.507 -1.3121 -0.6366  0.2607
 3759SOL     OW12175   1.525   0.244   3.126  0.1093 -0.0952 -0.3308
 3759SOL    HW112176   1.596   0.253   3.056  1.0238 -0.0979  0.5720
 3759SOL    HW212177   1.437   0.272   3.088  0.3904 -1.0959 -1.7889
 3760SOL     OW12178   1.628   6.576   0.508 -0.4152 -0.0777 -0.2656
 3760SOL    HW112179   1.618   6.482   0.541  0.6304 -0.1096  0.0038
 3760SOL    HW212180   1.547   6.602   0.457 -2.1471 -0.0429  2.3129
 3761SOL     OW12181   5.552   2.611   4.614  0.5990 -0.2990  0.4760
 3761SOL    HW112182   5.489   2.675   4.658  1.2890  1.1242 -0.5399
 3761SOL    HW212183   5.559   2.528   4.670 -1.2898 -0.0370  1.1725
 3762SOL     OW12184   5.544   6.377   4.627 -0.7040 -0.2564 -0.2444
 3762SOL    HW112185   5.623   6.379   4.688 -0.4506 -1.6800 -0.4870
 3762SOL    HW212186   5.475   6.440   4.660  0.7671  1.4951 -0.3720
 3763SOL     OW12187   5.653   6.909   3.965 -0.0142  0.3160  0.4247
 3763SOL    HW112188   5.556   6.910   3.939 -0.1300  0.2230  0.8470
 3763SOL    HW212189   5.684   6.815   3.977  0.3427  0.3074 -0.4778
 3764SOL     OW12190   1.884   2.347   5.005  0.3501  0.3294  0.0848
 3764SOL    HW112191   1.944   2.322   4.929  0.2517  1.6419 -0.4480
 3764SOL    HW212192   1.793   2.366   4.970  0.1709  0.4410  0.6051
 3765SOL     OW12193   6.807   0.440   6.068 -0.1867 -0.6073 -0.1521
 3765SOL    HW112194   6.724   0.490   6.047 -0.9399 -2.2404 -1.2648
 3765SOL    HW212195   6.886   0.500   6.057 -1.1477  0.8577  0.5233
 3766SOL     OW12196   6.783   5.424   6.357  0.1973 -0.7061 -0.1531
 3766SOL    HW112197   6.818   5.510   6.321  0.8731 -0.7995  0.2677
 3766SOL    HW212198   6.826   5.405   6.445  0.6119 -1.8435 -0.5830
 3767SOL     OW12199   6.015   0.377   4.472  0.3727 -0.0692 -0.0426
 3767SOL    HW112200   6.019   0.410   4.566 -1.1882  0.1448 -0.0260
 3767SOL    HW212201   5.983   0.282   4.471  0.0001  0.0565 -0.3717
 3768SOL     OW12202   1.080   6.883   1.368  0.0505 -0.1728  0.9217
 3768SOL    HW112203   1.072   6.964   1.425 -1.4590 -1.1888  2.2524
 3768SOL    HW212204   1.035   6.899   1.280  1.0608  0.8962  0.5808
 3769SOL     OW12205   0.222   0.308   2.343 -0.2244 -0.2407  0.0477
 3769SOL    HW112206   0.260   0.381   2.285 -2.3118  1.7346  1.0306
 3769SOL    HW212207   0.156   0.255   2.290  0.1634 -0.4684 -0.2219
 3770SOL     OW12208   6.831   3.692   4.753  0.0838  0.3960  0.0174
 3770SOL    HW112209   6.846   3.659   4.660  3.6447  0.9503  0.2638
 3770SOL    HW212210   6.871   3.783   4.763  0.9053 -0.1580  2.3690
 3771SOL     OW12211   1.193   5.469   5.099  0.2287  0.4917  0.0509
 3771SOL    HW112212   1.124   5.409   5.060  0.0386  0.9317 -0.3032
 3771SOL    HW212213   1.261   5.415   5.147  0.9045 -0.1418 -1.5537
 3772SOL     OW12214   0.291   6.257   5.057 -0.0041 -0.6031 -0.0892
 3772SOL    HW112215   0.354   6.282   4.983 -0.6392 -1.5469 -0.9896
 3772SOL    HW212216   0.313   6.165   5.090 -0.1900 -0.4796  0.3844
 3773SOL     OW12217   5.059   6.345   3.805  0.5125  0.0279  0.9901
 3773SOL    HW112218   4.989   6.294   3.756  0.2173  1.6535 -0.4013
 3773SOL    HW212219   5.040   6.344   3.903 -1.2266  0.1137  0.6764
 3774SOL     OW12220   6.600   6.673   3.378  0.8240 -0.2735 -0.0585
 3774SOL    HW112221   6.634   6.624   3.298 -0.3768  0.9451 -1.3748
 3774SOL    HW212222   6.500   6.673   3.378  0.7990 -0.0721  1.3437
 3775SOL     OW12223   1.906   4.471   5.839 -0.0200  0.2234  0.0028
 3775SOL    HW112224   1.899   4.387   5.893  1.1543 -0.2112 -0.4829
 3775SOL    HW212225   1.848   4.463   5.757  2.0654 -1.2569 -1.4265
 3776SOL     OW12226   4.266   1.042   5.188  0.1888  0.0158 -0.1553
 3776SOL    HW112227   4.257   1.130   5.234  2.1677  1.0785 -1.6235
 3776SOL    HW212228   4.280   0.970   5.255 -2.2820  0.6277  1.1297
 3777SOL     OW12229   2.782   6.034   0.168 -0.0123 -0.0438 -0.2848
 3777SOL    HW112230   2.827   6.032   0.079 -0.4382  3.4649 -0.7369
 3777SOL    HW212231   2.684   6.019   0.156  0.0062 -0.1271 -0.3318
 3778SOL     OW12232   4.942   5.688   2.232 -0.7647 -0.2548  0.1234
 3778SOL    HW112233   4.875   5.614   2.227 -0.8235 -0.2163  0.3421
 3778SOL    HW212234   5.026   5.660   2.186 -1.1358 -0.0795 -0.6925
 3779SOL     OW12235   2.512   5.118   4.820 -0.1458 -0.4617  0.2312
 3779SOL    HW112236   2.586   5.175   4.785 -0.2842  0.6741  1.6596
 3779SOL    HW212237   2.545   5.025   4.837  0.6991 -0.2141 -0.0202
 3780SOL     OW12238   6.846   3.560   2.971  0.1296  1.0153  0.0517
 3780SOL    HW112239   6.834   3.538   2.874  1.2515  0.5228  0.0134
 3780SOL    HW212240   6.758   3.550   3.018 -0.4256  1.2768 -0.9145
 3781SOL     OW12241   2.151   0.136   6.332  0.9767 -0.2714 -0.5520
 3781SOL    HW112242   2.103   0.207   6.281 -1.3005  0.1191  1.9300
 3781SOL    HW212243   2.242   0.170   6.358  0.3742  1.3019 -0.3910
 3782SOL     OW12244   3.439   3.207   0.870 -0.0274  0.0663  0.3910
 3782SOL    HW112245   3.534   3.177   0.879 -0.0304  0.1419  0.6674
 3782SOL    HW212246   3.388   3.181   0.952 -0.3022 -0.1871  0.1421
 3783SOL     OW12247   5.513   1.225   6.703  0.0309 -0.2324  0.6800
 3783SOL    HW112248   5.493   1.323   6.700  0.9190 -0.0121  1.4429
 3783SOL    HW212249   5.611   1.211   6.689 -0.3223 -1.1485 -1.2248
 3784SOL     OW12250   2.609   5.421   1.638 -0.0088 -0.1837 -0.0290
 3784SOL    HW112251   2.660   5.495   1.594  0.8794 -1.2699 -0.8890
 3784SOL    HW212252   2.645   5.405   1.729 -0.8331  1.0459  0.5459
 3785SOL     OW12253   6.272   2.891   1.971  0.1044  0.6723  0.0678
 3785SOL    HW112254   6.189   2.923   1.925 -0.3107  1.1449  1.1137
 3785SOL    HW212255   6.257   2.891   2.070  1.7291  1.9161  0.3691
 3786SOL     OW12256   3.628   1.783   4.833  0.3521 -0.7443  0.6003
 3786SOL    HW112257   3.714   1.802   4.785 -0.5123  1.6050 -0.1831
 3786SOL    HW212258   3.622   1.686   4.854  2.7843 -1.1128 -0.1130
 3787SOL     OW12259   1.684   4.672   6.474 -0.1906  0.4333 -0.1962
 3787SOL    HW112260   1.663   4.716   6.562  1.5696  1.0987 -0.0852
 3787SOL    HW212261   1.780   4.646   6.472 -0.0910  0.8452 -2.1208
 3788SOL     OW12262   3.611   0.761   3.695 -0.1937  0.2144 -0.0728
 3788SOL    HW112263   3.548   0.811   3.636 -0.9433 -0.3589  0.2265
 3788SOL    HW212264   3.691   0.818   3.715  0.1364  0.3753 -1.7236
 3789SOL     OW12265   2.948   0.131   3.145  0.3033  0.0935 -0.1003
 3789SOL    HW112266   3.022   0.194   3.121 -0.7365  1.1362 -0.6710
 3789SOL    HW212267   2.883   0.125   3.069  1.0367 -2.7489 -0.6499
 3790SOL     OW12268   1.559   4.806   0.557 -0.6269 -0.0946 -0.0162
 3790SOL    HW112269   1.521   4.898   0.557  0.2820  0.3266 -1.8706
 3790SOL    HW212270   1.493   4.742   0.596 -3.2840  0.5995 -3.0012
 3791SOL     OW12271   0.212   1.649   5.119 -0.2548  0.3028  0.7997
 3791SOL    HW112272   0.299   1.699   5.115 -1.5410  2.6261 -0.3306
 3791SOL    HW212273   0.160   1.680   5.198 -0.0750 -1.1382  1.5162
 3792SOL     OW12274   0.573   5.573   2.687  0.4231 -0.1696  0.4191
 3792SOL    HW112275   0.605   5.576   2.782  1.5733 -0.4566  0.0636
 3792SOL    HW212276   0.604   5.654   2.639 -2.2784  1.2319  0.8824
 3793SOL     OW12277   5.069   6.719   1.814 -0.6389  0.7273 -0.6698
 3793SOL    HW112278   5.076   6.627   1.774 -0.5571  0.5156 -0.1756
 3793SOL    HW212279   5.062   6.786   1.741  0.2288  0.4055 -1.0671
 3794SOL     OW12280   5.514   3.085   1.514  0.0798  0.5795  0.3260
 3794SOL    HW112281   5.492   3.070   1.610 -1.8217 -0.6734 -0.2487
 3794SOL    HW212282   5.442   3.139   1.471  1.7301  2.5869 -0.0654
 3795SOL     OW12283   0.640   3.743   2.192  0.1260  0.4376  0.1369
 3795SOL    HW112284   0.677   3.727   2.283  1.7780 -1.0709 -0.7284
 3795SOL    HW212285   0.647   3.660   2.137  0.5232  1.6679 -1.8075
 3796SOL     OW12286   3.347   5.903   5.961 -0.0415  0.6453 -0.2284
 3796SOL    HW112287   3.290   5.922   5.881  0.0366 -2.2594 -1.0868
 3796SOL    HW212288   3.419   5.838   5.937  0.9842  0.9127  1.8530
 3797SOL     OW12289   1.047   1.325   1.441 -0.3040 -0.2092 -0.0622
 3797SOL    HW112290   1.145   1.316   1.422 -0.0019 -2.3648  2.0569
 3797SOL    HW212291   1.030   1.311   1.539 -2.8642 -0.9851 -0.5342
 3798SOL     OW12292   5.474   1.427   2.160 -0.4023  0.1435  0.0658
 3798SOL    HW112293   5.521   1.464   2.081 -0.0411 -1.2455 -0.3919
 3798SOL    HW212294   5.540   1.411   2.234 -0.4438 -0.1704  0.0369
 3799SOL     OW12295   0.537   0.260   1.803  0.7290  0.4313 -0.0321
 3799SOL    HW112296   0.518   0.165   1.827 -2.1805  0.5536 -1.4975
 3799SOL    HW212297   0.576   0.264   1.711  1.2080  0.6475  0.1759
 3800SOL     OW12298   2.740   3.127   1.678  0.1376 -0.6031 -0.4161
 3800SOL    HW112299   2.684   3.192   1.730  0.5928 -0.7311  0.2569
 3800SOL    HW212300   2.682   3.058   1.635 -0.4924  0.9758 -2.2496
 3801SOL     OW12301   2.766   3.988   0.405  0.4400  0.0549 -0.4869
 3801SOL    HW112302   2.855   3.980   0.451  1.4246 -0.6790 -2.4376
 3801SOL    HW212303   2.760   4.078   0.361  0.0578  0.2325 -0.0829
 3802SOL     OW12304   4.808   4.986   6.290  0.0470  0.2811 -0.2403
 3802SOL    HW112305   4.807   5.085   6.304  1.9133  0.1035  1.7107
 3802SOL    HW212306   4.887   4.960   6.234  0.7152 -0.2345  0.9040
 3803SOL     OW12307   5.561   5.195   3.780 -0.3101  0.1131  0.3306
 3803SOL    HW112308   5.637   5.156   3.727  0.2641  1.2532  0.2773
 3803SOL    HW212309   5.474   5.159   3.746 -0.0552  1.6134 -2.1514
 3804SOL     OW12310   4.610   0.464   0.687 -0.1226 -0.4916  0.0609
 3804SOL    HW112311   4.641   0.428   0.599 -0.4823  2.5311 -1.4388
 3804SOL    HW212312   4.667   0.428   0.761  0.2113 -3.0850 -1.3748
 3805SOL     OW12313   5.902   5.978   1.547 -0.5530  0.3693 -0.5720
 3805SOL    HW112314   5.933   5.897   1.497  1.4266  1.0948 -0.6023
 3805SOL    HW212315   5.880   6.051   1.483  0.5169  0.8033 -0.4598
 3806SOL     OW12316   4.213   6.470   1.555 -0.0116  0.1528 -0.3657
 3806SOL    HW112317   4.194   6.508   1.645 -1.0694 -0.7980 -0.1679
 3806SOL    HW212318   4.311   6.456   1.544  0.3319  2.1663 -0.1558
 3807SOL     OW12319   0.170   4.495   4.503  0.7273 -0.1388 -1.0405
 3807SOL    HW112320   0.218   4.517   4.418  0.5491  1.5625 -0.7351
 3807SOL    HW212321   0.215   4.417   4.547  1.8776  0.0504 -1.8311
 3808SOL     OW12322   3.220   1.830   6.555  0.4982  0.5227  0.3203
 3808SOL    HW112323   3.283   1.884   6.500  1.6526 -1.0825 -0.0258
 3808SOL    HW212324   3.244   1.733   6.547 -0.2692  0.0979  2.4311
 3809SOL     OW12325   0.695   2.992   2.752 -0.2825  0.1349  0.5260
 3809SOL    HW112326   0.607   3.025   2.721  0.1994 -1.4886 -3.0150
 3809SOL    HW212327   0.682   2.915   2.815 -1.3779  0.5037  0.7576
 3810SOL     OW12328   6.380   0.884   6.841  0.1936  0.9566 -0.4157
 3810SOL    HW112329   6.384   0.983   6.826  0.3459  1.1793  0.9708
 3810SOL    HW212330   6.466   0.854   6.881 -0.7761  0.7275  1.6246
 3811SOL     OW12331   1.169   4.368   1.373 -0.2534  1.1615  0.1140
 3811SOL    HW112332   1.257   4.345   1.330 -0.6852  1.3911 -0.9377
 3811SOL    HW212333   1.135   4.289   1.423  0.9494  1.3330  1.2498
 3812SOL     OW12334   5.054   4.534   0.067 -0.2370  0.4151  0.1497
 3812SOL    HW112335   5.110   4.496   0.140 -1.8165 -1.9865  0.1927
 3812SOL    HW212336   5.070   4.633   0.061  0.9054  0.4674  2.8281
 3813SOL     OW12337   5.363   4.011   5.184  0.1197 -0.4955  0.0452
 3813SOL    HW112338   5.427   4.000   5.260  0.7015 -3.5424 -0.7892
 3813SOL    HW212339   5.269   4.011   5.220  0.4254  0.5129  0.9254
 3814SOL     OW12340   0.901   2.859   4.518  0.1709  0.1473 -0.2148
 3814SOL    HW112341   0.819   2.825   4.472 -1.3704  1.6354  1.2929
 3814SOL    HW212342   0.946   2.928   4.462  1.0385 -1.4136 -1.5120
 3815SOL     OW12343   3.232   3.656   4.332 -0.4884  0.0885 -0.2790
 3815SOL    HW112344   3.149   3.698   4.367 -1.1320 -0.6908 -0.8433
 3815SOL    HW212345   3.259   3.702   4.247  0.4758  1.2745  0.6280
 3816SOL     OW12346   5.995   2.975   1.590 -0.1561 -0.2335 -0.2807
 3816SOL    HW112347   5.961   2.884   1.567 -0.3653 -1.0637  2.9031
 3816SOL    HW212348   6.089   2.984   1.557  0.0900 -1.8473 -0.1072
 3817SOL     OW12349   2.143   1.149   1.658  0.0265 -0.5751 -0.2672
 3817SOL    HW112350   2.209   1.109   1.594 -0.2519 -1.0606 -0.2531
 3817SOL    HW212351   2.167   1.122   1.751  0.2447 -0.1330 -0.1955
 3818SOL     OW12352   6.570   3.251   4.428  0.0363  0.1308 -0.2013
 3818SOL    HW112353   6.625   3.275   4.508  1.7824  0.0566 -1.3243
 3818SOL    HW212354   6.585   3.154   4.405  1.9443  0.8293 -2.3190
 3819SOL     OW12355   1.577   0.319   4.425 -0.5000  0.2426 -0.6309
 3819SOL    HW112356   1.501   0.381   4.404  0.2509  0.7802 -1.9164
 3819SOL    HW212357   1.652   0.371   4.465 -0.9990 -0.3904  1.2291
 3820SOL     OW12358   3.816   6.554   1.364 -0.2658  0.3934  0.1726
 3820SOL    HW112359   3.897   6.519   1.317  0.1771  0.4852  0.8647
 3820SOL    HW212360   3.748   6.481   1.373 -0.3606  0.3696 -0.5904
 3821SOL     OW12361   4.206   0.110   2.580 -0.1598  0.1222  0.0214
 3821SOL    HW112362   4.149   0.165   2.519 -0.4772 -0.9659 -0.6820
 3821SOL    HW212363   4.300   0.145   2.578  0.3031 -1.0460 -2.6329
 3822SOL     OW12364   3.249   4.026   3.229 -0.0229 -0.1716  0.2873
 3822SOL    HW112365   3.326   4.015   3.166 -0.2292 -0.2675  0.0530
 3822SOL    HW212366   3.221   4.121   3.231 -1.7487 -0.5662 -1.8155
 3823SOL     OW12367   3.888   4.016   4.729  0.0563 -0.1240  0.1535
 3823SOL    HW112368   3.950   4.092   4.745 -0.5879  0.5367 -0.4151
 3823SOL    HW212369   3.794   4.044   4.751 -0.2362 -0.6198 -0.4359
 3824SOL     OW12370   0.668   6.955   0.663 -0.6136  0.3232 -0.1748
 3824SOL    HW112371   0.691   6.965   0.566  0.4020  1.0996  0.1282
 3824SOL    HW212372   0.598   7.022   0.688 -1.4200 -0.3688 -0.5237
 3825SOL     OW12373   3.882   2.984   4.556 -0.1217 -0.2510  0.0955
 3825SOL    HW112374   3.887   2.891   4.592 -1.5301 -0.8462 -1.1311
 3825SOL    HW212375   3.818   3.038   4.610 -1.7489 -0.9595 -1.0465
 3826SOL     OW12376   3.625   2.795   2.025  0.7185 -0.6344  0.5516
 3826SOL    HW112377   3.664   2.730   1.959  0.4166 -2.1677  1.8177
 3826SOL    HW212378   3.693   2.865   2.047  1.1540 -0.6570 -0.6326
 3827SOL     OW12379   5.119   5.327   0.734 -0.0163  0.5166  0.3405
 3827SOL    HW112380   5.078   5.305   0.645 -0.6877  0.0712  0.7576
 3827SOL    HW212381   5.177   5.408   0.724  1.7199 -0.8156 -1.0063
 3828SOL     OW12382   1.805   5.523   0.626  0.9517 -0.3662 -0.5518
 3828SOL    HW112383   1.819   5.573   0.711  0.4412 -0.1125 -0.6100
 3828SOL    HW212384   1.844   5.575   0.550 -0.1392  0.2727 -0.6971
 3829SOL     OW12385   6.172   4.662   4.845  0.9202 -0.4339 -0.7851
 3829SOL    HW112386   6.190   4.760   4.837  2.8832 -0.8678 -2.7085
 3829SOL    HW212387   6.080   4.648   4.881  1.7573  2.0745  3.0831
 3830SOL     OW12388   4.004   3.895   4.008 -0.1799  0.5833  0.4417
 3830SOL    HW112389   3.935   3.822   4.003 -1.0448  1.4438 -0.8714
 3830SOL    HW212390   4.044   3.909   3.918  1.2116  0.6164  1.0337
 3831SOL     OW12391   3.711   1.880   6.503 -0.0557  0.7753 -0.5082
 3831SOL    HW112392   3.690   1.947   6.432  1.8083  0.6417 -1.2148
 3831SOL    HW212393   3.710   1.788   6.464  0.0555  0.6156 -0.1362
 3832SOL     OW12394   1.984   0.059   3.464 -0.2925 -0.2319  0.5556
 3832SOL    HW112395   1.967   0.042   3.367  0.5043 -1.9852  0.6855
 3832SOL    HW212396   1.933   0.141   3.493 -1.3001 -0.2273 -1.0900
 3833SOL     OW12397   6.728   1.309   6.955 -0.1315 -0.1395  0.6422
 3833SOL    HW112398   6.782   1.225   6.965 -1.0813 -0.8615 -0.1353
 3833SOL    HW212399   6.706   1.345   7.046  1.2792 -0.0590  0.9808
 3834SOL     OW12400   5.527   5.365   0.777 -0.0993 -0.0033 -0.1829
 3834SOL    HW112401   5.450   5.302   0.777  0.3427 -0.5878  1.4592
 3834SOL    HW212402   5.606   5.322   0.734 -0.6286  0.5840 -1.8359
 3835SOL     OW12403   2.720   5.246   7.012  0.9717 -0.3348 -0.0065
 3835SOL    HW112404   2.820   5.243   7.011  1.0900  1.4819  1.0016
 3835SOL    HW212405   2.689   5.264   7.106 -0.3090 -0.9423 -0.2983
 3836SOL     OW12406   4.511   4.722   2.698  0.0860 -0.3783  0.0098
 3836SOL    HW112407   4.597   4.767   2.678  0.1615  0.6433  2.2724
 3836SOL    HW212408   4.528   4.627   2.724  0.5009 -0.2627  0.1632
 3837SOL     OW12409   4.087   6.525   1.780 -0.0749  0.4303  0.7832
 3837SOL    HW112410   4.025   6.577   1.720  0.8420 -0.5297 -1.0960
 3837SOL    HW212411   4.041   6.442   1.810 -0.6826  1.1092  1.7795
 3838SOL     OW12412   6.606   3.676   3.113  0.0605 -0.0342  0.1747
 3838SOL    HW112413   6.548   3.711   3.187 -0.0522  0.1192  0.0137
 3838SOL    HW212414   6.572   3.710   3.025  0.3586  0.0082  0.0754
 3839SOL     OW12415   0.958   3.040   3.909  0.0347 -0.1964  0.1021
 3839SOL    HW112416   0.873   3.066   3.862 -0.1745  0.5582  0.8666
 3839SOL    HW212417   1.019   3.119   3.913 -1.0147  0.6392  3.3550
 3840SOL     OW12418   4.170   5.463   3.327 -0.4755 -0.2663  0.1752
 3840SOL    HW112419   4.112   5.396   3.374 -1.3385  0.4432  0.1475
 3840SOL    HW212420   4.228   5.510   3.393  0.1972 -1.0930  0.1842
 3841SOL     OW12421   5.572   6.051   6.470 -0.6165 -0.5830  0.4104
 3841SOL    HW112422   5.576   5.983   6.397 -0.4282 -0.0246 -0.1083
 3841SOL    HW212423   5.656   6.105   6.471 -1.1687  0.3196  0.1361
 3842SOL     OW12424   6.504   6.612   6.754 -0.2031  0.8457  0.6776
 3842SOL    HW112425   6.544   6.541   6.812 -0.0483 -0.4498 -0.9507
 3842SOL    HW212426   6.574   6.679   6.730  0.6155 -0.4312 -0.6855
 3843SOL     OW12427   4.964   3.594   0.704  0.2575  1.0729  0.1008
 3843SOL    HW112428   4.910   3.556   0.778 -0.6003  0.8205 -0.6434
 3843SOL    HW212429   5.003   3.520   0.649  1.8490  1.2327  0.9435
 3844SOL     OW12430   0.711   5.921   5.776 -0.2623 -0.0543 -0.0711
 3844SOL    HW112431   0.765   5.873   5.706 -0.1867  0.6571 -0.5116
 3844SOL    HW212432   0.617   5.930   5.744 -0.4717 -0.6537  0.3796
 3845SOL     OW12433   3.950   5.209   5.025  0.0784 -0.4565 -0.4313
 3845SOL    HW112434   3.892   5.274   5.075  0.2428 -0.3001 -0.4445
 3845SOL    HW212435   3.897   5.126   5.006 -0.7263  0.3626 -1.9892
 3846SOL     OW12436   0.067   5.572   4.517 -0.4790 -0.1671 -0.2205
 3846SOL    HW112437   0.074   5.594   4.419 -0.0915 -0.2207 -0.2070
 3846SOL    HW212438   0.137   5.505   4.541  0.3994  0.9173  0.3901
 3847SOL     OW12439   6.235   0.375   6.928  0.1232 -0.4983 -0.2482
 3847SOL    HW112440   6.141   0.395   6.900 -0.2720 -0.1195  1.2822
 3847SOL    HW212441   6.237   0.287   6.976  0.6350 -0.6938 -0.6147
 3848SOL     OW12442   2.976   1.871   1.028 -0.0960  0.4684  0.4577
 3848SOL    HW112443   3.037   1.809   1.078 -0.3651  0.7931  1.2074
 3848SOL    HW212444   2.882   1.836   1.034 -0.4518  1.5583  1.9459
 3849SOL     OW12445   1.463   6.588   5.039  0.5899 -0.0365  0.1865
 3849SOL    HW112446   1.502   6.679   5.039 -0.2468  0.3346  0.1266
 3849SOL    HW212447   1.422   6.569   4.949  1.7400 -0.9219 -0.1863
 3850SOL     OW12448   7.012   4.366   1.955  0.3947  0.2311  0.8155
 3850SOL    HW112449   6.929   4.380   1.900  0.3542 -2.2476  0.0797
 3850SOL    HW212450   7.032   4.448   2.007 -3.4312  0.4956  2.2338
 3851SOL     OW12451   5.743   6.596   0.687 -0.7565 -0.0360  0.5271
 3851SOL    HW112452   5.719   6.678   0.635 -2.4194 -0.9173 -0.1489
 3851SOL    HW212453   5.832   6.610   0.732 -0.4846  1.6970 -0.4732
 3852SOL     OW12454   1.143   1.352   3.881 -0.7135 -0.7309 -0.3550
 3852SOL    HW112455   1.217   1.404   3.838 -1.9259 -0.9671 -2.9754
 3852SOL    HW212456   1.161   1.254   3.870 -0.4664 -0.8238  0.8061
 3853SOL     OW12457   1.346   2.055   0.972  0.5181  0.0245 -0.1004
 3853SOL    HW112458   1.359   2.142   1.019  1.9994 -0.9144  1.3696
 3853SOL    HW212459   1.396   2.056   0.885  1.8686  0.1369  0.6450
 3854SOL     OW12460   1.971   4.537   6.509 -0.3913  0.2050  0.0647
 3854SOL    HW112461   2.044   4.490   6.558 -0.9849 -1.2616 -0.3715
 3854SOL    HW212462   1.984   4.526   6.410 -1.4068 -0.4656 -0.0162
 3855SOL     OW12463   6.463   0.389   5.948 -0.5149 -0.1575 -0.0897
 3855SOL    HW112464   6.430   0.298   5.924 -0.3167 -0.4708  0.7749
 3855SOL    HW212465   6.501   0.433   5.867 -1.1341 -0.6143 -0.6430
 3856SOL     OW12466   4.908   2.994   0.884 -0.1257 -0.4261 -0.2847
 3856SOL    HW112467   4.882   2.931   0.957  0.7374 -0.5859 -0.1057
 3856SOL    HW212468   5.006   2.985   0.865 -0.5424 -1.2643 -2.2979
 3857SOL     OW12469   5.301   0.402   3.535 -0.1049  0.2954  0.8755
 3857SOL    HW112470   5.258   0.340   3.601 -0.9388  1.8481  1.8528
 3857SOL    HW212471   5.264   0.494   3.547  1.4340  1.0935 -0.2151
 3858SOL     OW12472   2.594   1.474   4.787  0.5319 -0.2812 -0.3938
 3858SOL    HW112473   2.601   1.562   4.835  1.9407 -1.6429  2.1160
 3858SOL    HW212474   2.516   1.423   4.822 -0.5912  0.1074 -2.2074
 3859SOL     OW12475   5.291   5.560   5.354  0.0066 -0.2144  0.1634
 3859SOL    HW112476   5.371   5.501   5.343 -0.4001 -0.6439 -0.6147
 3859SOL    HW212477   5.310   5.630   5.422  0.0128 -2.1485  2.2891
 3860SOL     OW12478   1.771   3.577   6.251  0.0796  0.3858  0.0751
 3860SOL    HW112479   1.672   3.583   6.239  0.0986 -1.0787 -0.8960
 3860SOL    HW212480   1.816   3.573   6.162  0.7481 -2.5591  0.4537
 3861SOL     OW12481   5.568   6.778   3.652  0.7534  0.3982 -0.0386
 3861SOL    HW112482   5.657   6.812   3.621 -0.3662  2.7248 -0.9154
 3861SOL    HW212483   5.513   6.854   3.686 -0.7688 -1.0557  0.9280
 3862SOL     OW12484   2.330   2.524   2.379 -0.6721 -0.0682  0.2338
 3862SOL    HW112485   2.314   2.473   2.294  0.9857  0.2052 -0.2724
 3862SOL    HW212486   2.286   2.613   2.373 -0.2741  0.0908 -0.5003
 3863SOL     OW12487   0.770   4.619   2.887  0.0194 -0.8578 -0.0932
 3863SOL    HW112488   0.736   4.547   2.947 -0.4238 -0.2750  0.3738
 3863SOL    HW212489   0.754   4.593   2.791 -1.0365 -0.9596  0.0963
 3864SOL     OW12490   1.520   1.829   2.630  0.4949 -0.3459 -1.0165
 3864SOL    HW112491   1.614   1.816   2.662  0.5975  3.6545  0.9301
 3864SOL    HW212492   1.457   1.784   2.694  1.0152  0.7410  0.3270
 3865SOL     OW12493   4.080   4.419   1.339 -0.0061  0.3063  0.0475
 3865SOL    HW112494   4.022   4.425   1.421 -1.6444  1.2680 -1.1100
 3865SOL    HW212495   4.034   4.364   1.270  1.4888 -0.7337 -0.1620
 3866SOL     OW12496   0.970   1.997   5.257 -0.1724  0.3228 -0.0241
 3866SOL    HW112497   0.974   2.063   5.182 -1.1567  0.0480 -0.3475
 3866SOL    HW212498   0.976   2.045   5.345  2.6100  0.5153 -0.2351
 3867SOL     OW12499   3.942   1.390   4.377 -0.2160 -0.0834 -0.0073
 3867SOL    HW112500   3.892   1.435   4.452 -0.0722 -0.4587  0.3201
 3867SOL    HW212501   4.030   1.435   4.365  0.4543 -1.0316  1.1466
 3868SOL     OW12502   4.023   6.673   2.999  0.2227  0.2486 -0.2275
 3868SOL    HW112503   4.106   6.714   3.037  0.4594 -0.1939 -0.2635
 3868SOL    HW212504   4.047   6.593   2.944 -0.1002  0.8810 -1.3338
 3869SOL     OW12505   6.413   3.533   4.093  0.3964  0.0349 -0.2281
 3869SOL    HW112506   6.446   3.575   4.178  0.8544  1.3970 -1.0353
 3869SOL    HW212507   6.318   3.507   4.103 -0.0314  1.6462  0.2322
 3870SOL     OW12508   5.669   4.671   5.254  0.6836  0.5649  0.1059
 3870SOL    HW112509   5.590   4.714   5.210  0.7627  0.2006 -0.4122
 3870SOL    HW212510   5.753   4.698   5.205  0.5653 -1.6839 -1.4936
 3871SOL     OW12511   4.632   0.643   1.795 -0.0131  0.4795 -0.7337
 3871SOL    HW112512   4.626   0.548   1.826 -0.6671  0.5773 -0.5510
 3871SOL    HW212513   4.727   0.673   1.802  0.4509 -0.5808 -2.0819
 3872SOL     OW12514   5.698   2.469   6.023 -0.3170  0.1006 -0.3702
 3872SOL    HW112515   5.787   2.512   6.039  0.1686 -0.2357 -2.0161
 3872SOL    HW212516   5.646   2.523   5.957 -0.2404 -1.0758 -1.4309
 3873SOL     OW12517   5.590   5.617   0.679 -0.0430 -0.3243 -0.4805
 3873SOL    HW112518   5.530   5.543   0.709 -1.3074  0.0738 -1.8973
 3873SOL    HW212519   5.619   5.671   0.758 -1.5831 -0.5145  0.2361
 3874SOL     OW12520   3.973   3.493   6.195 -0.1225  0.1151  0.2273
 3874SOL    HW112521   3.975   3.438   6.112  0.7206 -0.7592  0.7989
 3874SOL    HW212522   4.014   3.582   6.177 -1.1195  0.4207 -0.6024
 3875SOL     OW12523   5.989   3.285   4.766 -0.3447 -0.0893 -0.0269
 3875SOL    HW112524   6.008   3.195   4.805  0.3018  0.0637  0.0320
 3875SOL    HW212525   5.913   3.278   4.701 -2.6643 -0.0411  2.5039
 3876SOL     OW12526   0.054   4.624   5.815 -0.2491  0.2056  0.1926
 3876SOL    HW112527   0.043   4.529   5.843  1.6318 -0.1787 -0.2470
 3876SOL    HW212528  -0.025   4.652   5.760 -1.3796 -0.7085  1.2879
 3877SOL     OW12529   2.177   7.012   6.882 -0.5073 -0.2985 -0.3085
 3877SOL    HW112530   2.264   7.036   6.925 -0.4895 -1.2856  0.2359
 3877SOL    HW212531   2.194   6.976   6.790 -0.4399  0.5595 -0.6405
 3878SOL     OW12532   2.339   4.593   6.116  0.0457  0.1584  0.0790
 3878SOL    HW112533   2.392   4.512   6.140 -1.0608 -0.4101  0.6569
 3878SOL    HW212534   2.295   4.579   6.027 -0.6306 -0.1300  0.4531
 3879SOL     OW12535   5.452   3.188   5.746 -0.3780  0.2134  0.2674
 3879SOL    HW112536   5.410   3.175   5.836 -1.0291 -0.2342 -0.0955
 3879SOL    HW212537   5.388   3.234   5.685 -0.6492 -1.1425 -0.5146
 3880SOL     OW12538   4.762   7.023   1.629  0.1363 -0.2483 -0.0767
 3880SOL    HW112539   4.837   7.069   1.676 -0.3185  0.2950  0.1247
 3880SOL    HW212540   4.677   7.074   1.642  0.2552  0.8170 -2.7707
 3881SOL     OW12541   2.584   6.357   3.856 -0.6869 -0.1328 -0.7186
 3881SOL    HW112542   2.499   6.377   3.904 -0.8060 -2.1397 -0.0030
 3881SOL    HW212543   2.595   6.258   3.848  0.3417  0.1021 -3.0612
 3882SOL     OW12544   5.600   2.227   2.940  0.4975  0.2028  0.1657
 3882SOL    HW112545   5.585   2.292   3.014  0.5044 -0.8760  1.1357
 3882SOL    HW212546   5.581   2.134   2.972 -0.8450 -0.1847 -1.5550
 3883SOL     OW12547   1.067   5.976   3.178 -0.3450  0.2285 -0.7969
 3883SOL    HW112548   0.981   6.019   3.204  1.1214  2.5948  0.5511
 3883SOL    HW212549   1.108   6.027   3.102  0.7547  0.3496 -0.1456
 3884SOL     OW12550   0.910   6.931   4.627  0.7885  0.2546 -0.7468
 3884SOL    HW112551   0.946   6.838   4.615 -0.8003 -1.2864  4.1282
 3884SOL    HW212552   0.971   6.983   4.686 -0.4093  0.8164  0.0283
 3885SOL     OW12553   2.599   0.557   6.612 -0.0473 -0.5920 -0.0092
 3885SOL    HW112554   2.657   0.639   6.611  0.2768 -0.7730  1.4248
 3885SOL    HW212555   2.530   0.564   6.540  0.8978  0.2513 -0.8728
 3886SOL     OW12556   1.241   6.310   4.097  0.3425  0.5060  0.3669
 3886SOL    HW112557   1.295   6.300   4.181 -0.9981  2.5507  1.5641
 3886SOL    HW212558   1.290   6.370   4.033 -0.3203  2.1541  1.3501
 3887SOL     OW12559   5.079   5.897   3.218  0.1792  0.3024  0.6946
 3887SOL    HW112560   5.077   5.949   3.303 -0.4769  0.2697  0.7048
 3887SOL    HW212561   5.163   5.919   3.167 -0.0625  1.3225  0.7204
 3888SOL     OW12562   6.383   4.642   2.073  0.2503  0.1709 -0.3889
 3888SOL    HW112563   6.313   4.714   2.070 -0.9121 -0.9016 -0.1350
 3888SOL    HW212564   6.425   4.633   1.983 -1.1868 -0.3069 -1.0488
 3889SOL     OW12565   4.882   6.117   6.669 -0.1288  0.3838  0.0989
 3889SOL    HW112566   4.878   6.175   6.588 -0.7834  0.4740  0.1920
 3889SOL    HW212567   4.906   6.024   6.642  4.7466  1.3187  0.2667
 3890SOL     OW12568   4.557   0.618   3.102  0.6490  0.3478  0.2061
 3890SOL    HW112569   4.627   0.572   3.156 -0.3946 -0.8591  0.5636
 3890SOL    HW212570   4.583   0.618   3.006 -0.5629 -3.5878 -0.2768
 3891SOL     OW12571   5.620   4.860   3.509 -0.1379  0.0101  0.0770
 3891SOL    HW112572   5.633   4.868   3.607  2.6466  0.3281 -0.2435
 3891SOL    HW212573   5.620   4.951   3.467  3.4046 -0.1754 -0.6188
 3892SOL     OW12574   4.803   0.586   5.488 -0.0426 -0.1452  0.0568
 3892SOL    HW112575   4.730   0.553   5.548  0.1543 -0.6456  0.0252
 3892SOL    HW212576   4.869   0.513   5.473  0.7028  0.4367  0.4388
 3893SOL     OW12577   4.563   0.987   3.353 -0.1071  0.0310 -0.4427
 3893SOL    HW112578   4.479   0.955   3.398  0.9562 -0.7909  1.0728
 3893SOL    HW212579   4.630   1.013   3.423  2.2813 -2.9743 -1.3888
 3894SOL     OW12580   4.124   3.426   6.717 -0.0343  0.0790 -0.1891
 3894SOL    HW112581   4.036   3.419   6.671 -0.5090 -1.3052  0.8458
 3894SOL    HW212582   4.116   3.485   6.797  0.5834  1.8057 -1.3470
 3895SOL     OW12583   1.032   6.483   4.185 -0.0253  0.3585 -0.9623
 3895SOL    HW112584   1.047   6.389   4.155 -0.4248  0.3553 -1.1469
 3895SOL    HW212585   1.062   6.547   4.114  0.3817  0.3759 -0.7790
 3896SOL     OW12586   6.658   6.360   5.849 -0.2616  0.0423  0.0437
 3896SOL    HW112587   6.747   6.329   5.884  0.2957  0.2360 -1.1277
 3896SOL    HW212588   6.590   6.288   5.862  0.7537 -1.3177 -1.6380
 3897SOL     OW12589   3.887   6.744   6.980  0.5544 -0.0350  0.1917
 3897SOL    HW112590   3.824   6.770   6.907 -0.0681 -3.0212 -0.4444
 3897SOL    HW212591   3.838   6.741   7.067 -0.1959 -2.0167 -0.2474
 3898SOL     OW12592   2.252   2.326   1.617  0.3081  0.1562  0.2712
 3898SOL    HW112593   2.248   2.354   1.521 -0.7769 -0.4955  0.1087
 3898SOL    HW212594   2.279   2.404   1.673 -1.2005  1.1764 -0.3390
 3899SOL     OW12595   0.319   1.131   3.700  0.4357  0.0213 -0.3575
 3899SOL    HW112596   0.363   1.220   3.709  1.7429 -0.6566  0.4549
 3899SOL    HW212597   0.233   1.131   3.751  1.2510  0.3304  1.0801
 3900SOL     OW12598   0.526   3.037   4.956  0.1742  0.3166 -0.1629
 3900SOL    HW112599   0.449   2.992   4.911  0.0456  0.5156 -0.1435
 3900SOL    HW212600   0.597   3.056   4.889  1.0503 -1.6186  0.1556
 3901SOL     OW12601   3.472   6.683   0.819  0.1416 -0.1876 -0.5893
 3901SOL    HW112602   3.566   6.652   0.831  0.3892  0.5578 -0.5215
 3901SOL    HW212603   3.422   6.618   0.762  0.6051 -0.7549 -0.3596
 3902SOL     OW12604   1.099   2.161   2.248  0.9731  0.0665 -0.1419
 3902SOL    HW112605   1.196   2.157   2.273  0.9016 -1.5260 -0.0324
 3902SOL    HW212606   1.066   2.255   2.259  2.1982  0.4023  0.9742
 3903SOL     OW12607   4.847   5.843   4.609 -0.2889 -0.4787  0.1402
 3903SOL    HW112608   4.921   5.776   4.612 -0.6461 -1.0287 -1.8288
 3903SOL    HW212609   4.791   5.834   4.692  0.2620 -1.9210  0.3941
 3904SOL     OW12610   5.723   2.135   0.109 -0.3681 -0.0042 -0.2967
 3904SOL    HW112611   5.687   2.102   0.022 -3.1122 -0.9648  1.0822
 3904SOL    HW212612   5.675   2.219   0.135  0.7629  0.5397  0.0807
 3905SOL     OW12613   0.105   6.358   4.587  0.3284  0.3883 -0.0750
 3905SOL    HW112614   0.162   6.408   4.652  0.0723  0.5796  0.0057
 3905SOL    HW212615   0.010   6.388   4.597  0.3264  0.6192 -0.7197
 3906SOL     OW12616   4.089   3.592   4.715  0.4379  0.7439  0.3165
 3906SOL    HW112617   4.178   3.559   4.747  1.3873  1.6450 -1.2707
 3906SOL    HW212618   4.095   3.616   4.618 -0.8589  3.0738  0.7340
 3907SOL     OW12619   0.264   6.804   5.708 -0.8545  0.1111  0.2608
 3907SOL    HW112620   0.316   6.724   5.737 -0.0412  0.5032 -0.0590
 3907SOL    HW212621   0.270   6.813   5.608  0.6833  1.6008  0.4264
 3908SOL     OW12622   4.531   6.385   6.450 -0.1710  0.7277  0.2194
 3908SOL    HW112623   4.486   6.450   6.389 -1.9392  1.3030  2.0190
 3908SOL    HW212624   4.467   6.312   6.475  0.1897  0.9757  2.0171
 3909SOL     OW12625   5.918   4.111   4.638 -0.5932 -0.0185  0.3637
 3909SOL    HW112626   5.903   4.201   4.676 -0.6241  0.2774 -0.3304
 3909SOL    HW212627   5.833   4.078   4.595 -0.4295 -0.1261  0.1175
 3910SOL     OW12628   5.942   4.240   1.307  0.2068 -0.3746 -0.1501
 3910SOL    HW112629   6.029   4.257   1.355  0.5292 -1.9207 -0.1153
 3910SOL    HW212630   5.889   4.172   1.358  0.0473 -1.2131 -1.3917
 3911SOL     OW12631   5.031   4.814   0.414 -0.1723  0.4314  0.2938
 3911SOL    HW112632   5.060   4.906   0.386 -0.9505  0.7711  0.5716
 3911SOL    HW212633   5.022   4.811   0.513  0.9360 -0.2794  0.3901
 3912SOL     OW12634   2.749   1.830   6.061  0.3046 -0.2408 -0.3642
 3912SOL    HW112635   2.795   1.919   6.060 -0.1128 -0.0126  0.1735
 3912SOL    HW212636   2.665   1.836   6.007  0.0547 -0.1837  0.0272
 3913SOL     OW12637   5.603   4.663   2.519 -0.2734  0.9044 -0.1070
 3913SOL    HW112638   5.520   4.667   2.464 -0.6950 -1.4782  0.2614
 3913SOL    HW212639   5.676   4.715   2.473 -1.1642  0.6626 -1.8819
 3914SOL     OW12640   2.949   1.697   2.941 -0.0103 -0.1958 -0.1515
 3914SOL    HW112641   2.879   1.705   3.012  1.1765  0.1499  1.0173
 3914SOL    HW212642   2.935   1.611   2.891 -0.6926 -0.5963  0.6902
 3915SOL     OW12643   6.671   6.749   1.938  0.0185  0.1237  0.2424
 3915SOL    HW112644   6.598   6.775   2.001 -1.2019 -0.2694 -0.9599
 3915SOL    HW212645   6.758   6.745   1.988 -0.7938  0.4074  1.7561
 3916SOL     OW12646   3.628   4.171   1.861 -0.5663 -0.1917 -0.4167
 3916SOL    HW112647   3.629   4.265   1.826 -0.3223 -0.4700 -1.1673
 3916SOL    HW212648   3.697   4.162   1.933 -0.1145  0.0297 -0.8153
 3917SOL     OW12649   5.160   6.786   0.288  0.5153 -0.9360 -0.2099
 3917SOL    HW112650   5.066   6.795   0.322  0.5481 -0.4278 -0.2564
 3917SOL    HW212651   5.188   6.870   0.242  0.1777 -1.8953 -2.2911
 3918SOL     OW12652   2.672   6.251   2.735 -0.0792  0.4926 -0.4257
 3918SOL    HW112653   2.611   6.193   2.789  1.8501 -1.4463 -0.1818
 3918SOL    HW212654   2.691   6.207   2.647  1.7272  0.5338 -0.0886
 3919SOL     OW12655   6.691   3.038   4.270  0.2342 -0.5260  0.1075
 3919SOL    HW112656   6.787   3.054   4.291  0.0066  0.1275  0.7083
 3919SOL    HW212657   6.666   3.087   4.187  0.1657  0.1959  0.5443
 3920SOL     OW12658   0.620   1.431   2.765  0.6237  0.6667  0.2805
 3920SOL    HW112659   0.674   1.478   2.835 -0.6609 -0.6573  2.2758
 3920SOL    HW212660   0.632   1.332   2.774  1.1408  0.4613 -2.0317
 3921SOL     OW12661   5.399   5.225   3.002  0.0213 -0.6717 -0.1573
 3921SOL    HW112662   5.467   5.189   2.938  0.4269 -2.6918  1.3080
 3921SOL    HW212663   5.445   5.283   3.069 -0.0242 -0.4705 -0.2989
 3922SOL     OW12664   0.467   3.795   4.968  0.0899  0.2383 -0.0812
 3922SOL    HW112665   0.407   3.758   4.897 -1.9861  1.6563  0.8055
 3922SOL    HW212666   0.442   3.753   5.056  1.7729 -0.5723  0.0398
 3923SOL     OW12667   0.692   2.762   0.882  0.4243 -0.3889 -0.0925
 3923SOL    HW112668   0.725   2.718   0.799  0.6727 -0.3171 -0.0343
 3923SOL    HW212669   0.718   2.707   0.962 -0.9654 -1.1400 -0.1468
 3924SOL     OW12670   3.321   7.020   5.663  0.1436  0.2902  0.1840
 3924SOL    HW112671   3.232   7.050   5.631 -1.3867 -1.0032  2.8720
 3924SOL    HW212672   3.362   7.091   5.720  1.6989  1.5539 -2.3322
 3925SOL     OW12673   5.829   1.916   0.660  0.3740  0.2500 -0.5673
 3925SOL    HW112674   5.851   1.991   0.723 -0.1854 -0.7616  0.8846
 3925SOL    HW212675   5.905   1.903   0.596  1.3474  0.7796  0.4400
 3926SOL     OW12676   1.763   3.686   1.184  0.3580  0.2634  0.4910
 3926SOL    HW112677   1.755   3.758   1.253  0.3825 -0.6876  1.5011
 3926SOL    HW212678   1.804   3.605   1.224  2.5975  0.4523 -1.2181
 3927SOL     OW12679   6.598   6.851   5.773  0.5100  0.2696  0.0327
 3927SOL    HW112680   6.685   6.876   5.814 -0.1172  1.0871  0.8774
 3927SOL    HW212681   6.610   6.766   5.720  1.4879 -0.4136  1.2927
 3928SOL     OW12682   2.068   0.133   2.732 -0.1291  0.0494  0.3436
 3928SOL    HW112683   2.044   0.037   2.744  0.5266 -0.2103 -0.3367
 3928SOL    HW212684   2.015   0.172   2.657 -0.3668  0.2094  0.5938
 3929SOL     OW12685   1.073   1.140   0.202 -0.3636  0.1481 -0.4000
 3929SOL    HW112686   1.083   1.121   0.300  1.4812  1.4742 -0.2693
 3929SOL    HW212687   1.149   1.098   0.153 -1.0356 -0.1277 -1.2187
 3930SOL     OW12688   0.595   2.347   4.916 -0.0538 -0.1886  0.1035
 3930SOL    HW112689   0.592   2.269   4.853 -1.8616 -1.2030  1.3521
 3930SOL    HW212690   0.502   2.375   4.938  0.5703  1.9719  0.1659
 3931SOL     OW12691   6.844   4.658   5.152 -0.1032 -0.1000  0.5174
 3931SOL    HW112692   6.924   4.705   5.116  0.5535  0.8372  2.9800
 3931SOL    HW212693   6.864   4.561   5.163  0.7851  0.1430  1.2186
 3932SOL     OW12694   1.305   0.373   3.048 -0.4533 -0.0155 -0.1125
 3932SOL    HW112695   1.264   0.303   3.107 -0.9710  0.2676 -0.1321
 3932SOL    HW212696   1.322   0.456   3.101 -0.2686  0.0048 -0.2006
 3933SOL     OW12697   0.618   2.763   6.271 -0.0421  0.2385 -0.0616
 3933SOL    HW112698   0.617   2.709   6.187  0.2185 -0.5020  0.4101
 3933SOL    HW212699   0.586   2.708   6.348 -1.3671  1.2384  0.1478
 3934SOL     OW12700   1.834   5.522   1.457  0.2583  0.0884  0.2966
 3934SOL    HW112701   1.905   5.531   1.527 -1.1568 -0.6005  1.8583
 3934SOL    HW212702   1.862   5.453   1.390  0.2428 -1.6053  1.9734
 3935SOL     OW12703   6.668   6.006   0.355 -0.0025  0.6433  0.0306
 3935SOL    HW112704   6.600   5.935   0.373  1.3134 -0.6297  0.2378
 3935SOL    HW212705   6.751   5.963   0.318  1.3717  1.8860  1.5425
 3936SOL     OW12706   2.731   6.376   0.536  1.2624 -0.5413 -0.2253
 3936SOL    HW112707   2.764   6.358   0.628 -2.7893  1.4818  1.9271
 3936SOL    HW212708   2.673   6.300   0.506  2.1056 -0.9296 -0.9281
 3937SOL     OW12709   0.032   4.557   0.352 -0.5119 -0.3090  0.4407
 3937SOL    HW112710   0.066   4.479   0.300  0.4865 -0.2039  0.9257
 3937SOL    HW212711   0.039   4.640   0.296 -2.6319 -0.6878 -0.5108
 3938SOL     OW12712   3.467   6.951   5.436 -0.5390 -0.1021  0.3463
 3938SOL    HW112713   3.454   6.858   5.403 -0.0278  0.1446 -0.5681
 3938SOL    HW212714   3.401   6.970   5.509 -0.9818 -1.0056  0.1884
 3939SOL     OW12715   6.227   3.043   1.174  0.2987 -0.1191  0.3437
 3939SOL    HW112716   6.185   2.954   1.192  0.6107  0.0886  2.2575
 3939SOL    HW212717   6.278   3.038   1.088 -2.5726 -0.7101 -1.4864
 3940SOL     OW12718   0.203   1.358   0.768  0.2817 -1.0462 -0.6866
 3940SOL    HW112719   0.248   1.415   0.699  0.3908  0.4577  0.5661
 3940SOL    HW212720   0.272   1.307   0.819  0.5395  0.4716  0.5481
 3941SOL     OW12721   2.216   3.586   5.270 -0.6167 -0.2998  0.2146
 3941SOL    HW112722   2.171   3.551   5.188 -1.8995 -1.2658  1.2879
 3941SOL    HW212723   2.204   3.522   5.345  1.1740  0.2156  1.0004
 3942SOL     OW12724   0.840   1.868   4.986 -0.9052 -0.0533  0.2622
 3942SOL    HW112725   0.782   1.857   4.905 -0.2625  0.2048 -0.2468
 3942SOL    HW212726   0.841   1.964   5.014 -0.0211  0.1128 -0.2857
 3943SOL     OW12727   0.332   6.750   5.433  0.4600 -0.2749  0.1147
 3943SOL    HW112728   0.410   6.813   5.433 -0.7396  1.3000 -0.4134
 3943SOL    HW212729   0.319   6.713   5.341  0.8943 -0.9549  0.3234
 3944SOL     OW12730   2.459   2.644   5.541 -0.1216 -0.2975  0.7241
 3944SOL    HW112731   2.529   2.595   5.594  0.1211 -1.3044 -0.4862
 3944SOL    HW212732   2.502   2.708   5.479 -0.3988  0.7057  1.5367
 3945SOL     OW12733   1.506   7.006   4.115 -0.4689  0.0065  0.6889
 3945SOL    HW112734   1.467   7.082   4.064  0.8138  0.1227 -0.1551
 3945SOL    HW212735   1.559   7.041   4.193 -1.0046 -0.0931  1.1031
 3946SOL     OW12736   0.494   5.776   2.350  0.3840  0.2812 -0.5331
 3946SOL    HW112737   0.552   5.739   2.277 -1.6723  0.2105 -2.2322
 3946SOL    HW212738   0.540   5.854   2.393  3.0368 -1.6468  0.3548
 3947SOL     OW12739   4.432   0.331   0.957  0.1350 -0.4309  0.0419
 3947SOL    HW112740   4.487   0.254   0.993  1.0751  0.6929  1.1187
 3947SOL    HW212741   4.482   0.416   0.972 -0.3449  0.3142 -2.2169
 3948SOL     OW12742   0.839   1.223   4.486  0.1154 -0.4399 -0.7659
 3948SOL    HW112743   0.779   1.149   4.515 -0.6931  0.1386 -0.9288
 3948SOL    HW212744   0.934   1.201   4.509 -0.2161 -1.1389 -0.0588
 3949SOL     OW12745   3.578   0.790   3.079  0.1470 -0.0519 -0.1037
 3949SOL    HW112746   3.496   0.734   3.093 -0.0035  0.2292  0.1629
 3949SOL    HW212747   3.658   0.731   3.067 -0.5011 -0.4431 -3.3442
 3950SOL     OW12748   2.265   4.987   3.159 -0.9868  0.3498  0.4822
 3950SOL    HW112749   2.286   5.082   3.140  0.0884 -0.0053 -0.1603
 3950SOL    HW212750   2.171   4.967   3.131 -0.5577  0.7133 -1.3156
 3951SOL     OW12751   1.648   1.862   5.234  0.2031 -0.6926 -0.1136
 3951SOL    HW112752   1.591   1.938   5.265  1.0867  0.7255 -1.7606
 3951SOL    HW212753   1.616   1.777   5.276 -2.4785  0.1599 -0.2180
 3952SOL     OW12754   0.833   5.376   3.298 -0.0463  0.3298 -1.0161
 3952SOL    HW112755   0.780   5.402   3.379  0.6559  0.3183 -0.5487
 3952SOL    HW212756   0.827   5.449   3.230  1.9624  1.8375  0.3085
 3953SOL     OW12757   6.786   2.032   2.275 -0.4991 -0.4646 -0.5521
 3953SOL    HW112758   6.753   1.939   2.259  0.9939 -1.1587  0.2057
 3953SOL    HW212759   6.734   2.073   2.349 -1.0364 -0.7585 -0.7576
 3954SOL     OW12760   4.851   5.393   5.617 -0.6335  0.3484 -0.3206
 3954SOL    HW112761   4.921   5.438   5.562 -0.2689 -0.4556 -0.5311
 3954SOL    HW212762   4.816   5.313   5.568  0.0535 -0.6768  0.7986
 3955SOL     OW12763   5.426   5.208   3.425 -0.1110  1.6938  0.5576
 3955SOL    HW112764   5.402   5.143   3.498  2.2579  0.5282  0.3863
 3955SOL    HW212765   5.355   5.206   3.355  0.6893 -2.2734 -0.4053
 3956SOL     OW12766   1.868   3.080   4.029 -0.6914  0.7072 -0.2402
 3956SOL    HW112767   1.833   3.005   4.086  1.4169  0.7147  1.1576
 3956SOL    HW212768   1.873   3.049   3.934 -1.0333 -0.4950  0.1150
 3957SOL     OW12769   5.781   3.219   4.095  0.5074  0.4719  0.1818
 3957SOL    HW112770   5.723   3.174   4.027 -0.3370 -0.3931  1.4342
 3957SOL    HW212771   5.824   3.150   4.153  0.6470  1.2163  0.9858
 3958SOL     OW12772   5.300   5.279   6.777  0.4999 -0.4033  0.0699
 3958SOL    HW112773   5.265   5.334   6.701  0.2614  2.6647  2.2110
 3958SOL    HW212774   5.368   5.332   6.828  0.7035 -2.3680  1.9776
 3959SOL     OW12775   1.323   6.049   2.708  0.3370 -0.1397 -0.6404
 3959SOL    HW112776   1.309   5.950   2.696  0.7975 -0.2470 -0.3254
 3959SOL    HW212777   1.312   6.072   2.805  3.1027 -0.3786 -0.1949
 3960SOL     OW12778   1.787   4.018   1.158  0.3334 -0.2681  0.0902
 3960SOL    HW112779   1.881   4.047   1.174 -0.2374  2.0480 -0.3326
 3960SOL    HW212780   1.746   3.991   1.246  0.4988  1.7488  0.8498
 3961SOL     OW12781   2.279   5.820   7.013  0.1249 -0.8508  0.1600
 3961SOL    HW112782   2.269   5.809   7.112 -0.4031 -1.5195  0.0434
 3961SOL    HW212783   2.294   5.730   6.971  0.5066 -0.5543 -0.3522
 3962SOL     OW12784   2.120   1.098   1.339 -0.4369  0.1275  0.4044
 3962SOL    HW112785   2.093   1.091   1.243 -1.3333  1.5908  0.5162
 3962SOL    HW212786   2.170   1.184   1.353  0.0649 -0.2765  1.1785
 3963SOL     OW12787   0.369   0.485   6.463 -0.2884  0.1535  0.4430
 3963SOL    HW112788   0.349   0.488   6.561 -0.2545  0.8528  0.4297
 3963SOL    HW212789   0.407   0.572   6.434  2.8122 -1.0415  0.4629
 3964SOL     OW12790   4.985   5.252   6.395 -0.0377  0.0929  0.1699
 3964SOL    HW112791   5.058   5.320   6.396  0.2074 -0.1705  0.5875
 3964SOL    HW212792   5.002   5.185   6.323  0.9209 -0.8019  1.1966
 3965SOL     OW12793   1.928   2.706   5.345  0.4501  1.0783  0.5306
 3965SOL    HW112794   1.933   2.690   5.246  1.8988  0.4624  0.6674
 3965SOL    HW212795   1.941   2.619   5.393 -1.0323  1.2490  1.2721
 3966SOL     OW12796   4.469   2.391   4.757 -0.2956  0.2228  0.3965
 3966SOL    HW112797   4.516   2.322   4.703 -0.1196  0.9595 -0.4248
 3966SOL    HW212798   4.385   2.353   4.795  1.8737 -1.7645  3.6253
 3967SOL     OW12799   3.291   2.840   6.382 -0.4765  0.2274 -0.6553
 3967SOL    HW112800   3.389   2.834   6.400 -0.4037  0.2054 -1.0351
 3967SOL    HW212801   3.271   2.794   6.295 -0.6302  1.3588 -1.2275
 3968SOL     OW12802   0.483   3.710   4.457 -0.0249  0.0492 -0.1055
 3968SOL    HW112803   0.561   3.754   4.414 -0.0337  1.4933  1.2574
 3968SOL    HW212804   0.499   3.703   4.556 -1.0436 -0.8950  0.0132
 3969SOL     OW12805   7.017   2.724   6.515 -0.0450  0.0232 -0.0421
 3969SOL    HW112806   7.015   2.824   6.525  0.9042  0.0062  0.3664
 3969SOL    HW212807   6.950   2.683   6.577  0.8930  0.3137  1.1956
 3970SOL     OW12808   4.751   5.398   6.717 -0.8555  0.4651  0.1839
 3970SOL    HW112809   4.775   5.304   6.692  0.0443 -0.0613  2.7841
 3970SOL    HW212810   4.724   5.401   6.813 -1.5831  2.7747 -0.0516
 3971SOL     OW12811   0.452   4.397   4.167 -0.9732 -0.1436  0.2949
 3971SOL    HW112812   0.425   4.339   4.244  0.6565 -1.1814  0.1244
 3971SOL    HW212813   0.511   4.345   4.105  0.1998  1.5638 -0.0768
 3972SOL     OW12814   5.917   3.659   4.014 -0.4074 -0.5857 -0.2366
 3972SOL    HW112815   5.885   3.730   4.077  0.0222  0.9358 -1.6625
 3972SOL    HW212816   5.845   3.590   4.003  0.2450 -2.0983  3.4680
 3973SOL     OW12817   4.550   6.957   3.188  0.3735 -0.2460 -0.1267
 3973SOL    HW112818   4.522   6.980   3.095  2.2126  1.5162 -0.2861
 3973SOL    HW212819   4.552   6.857   3.198 -1.3988 -0.4584 -1.4485
 3974SOL     OW12820   0.676   3.198   0.404 -0.1090 -0.5093 -0.7310
 3974SOL    HW112821   0.709   3.150   0.323 -0.1606  0.6781 -1.4811
 3974SOL    HW212822   0.668   3.296   0.384 -0.0203 -0.1749  0.7440
 3975SOL     OW12823   0.943   5.947   2.821  0.0469 -0.1887 -0.3776
 3975SOL    HW112824   0.943   5.944   2.721 -0.0040 -0.3323 -0.3746
 3975SOL    HW212825   0.878   5.879   2.856  1.7159 -1.7893 -0.2130
 3976SOL     OW12826   2.727   0.904   5.426 -0.0797  0.1276  0.3758
 3976SOL    HW112827   2.791   0.970   5.465  1.2331 -0.4344 -0.7593
 3976SOL    HW212828   2.765   0.865   5.342 -1.5924 -0.7839  0.0659
 3977SOL     OW12829   4.482   6.127   3.267  0.0977 -0.2281  0.7257
 3977SOL    HW112830   4.571   6.173   3.268  0.8541 -1.5879 -0.1217
 3977SOL    HW212831   4.441   6.131   3.358  0.5902  1.2248  0.8998
 3978SOL     OW12832   3.546   1.458   1.139 -0.1086  0.3881  0.0106
 3978SOL    HW112833   3.545   1.549   1.180 -0.6602  1.0296 -1.3469
 3978SOL    HW212834   3.452   1.428   1.124  0.0810  0.1956 -0.8170
 3979SOL     OW12835   3.094   4.528   5.383  0.5513  0.1542 -0.0350
 3979SOL    HW112836   3.087   4.447   5.441 -0.1381  1.0200  1.1273
 3979SOL    HW212837   3.044   4.513   5.298  0.1653 -0.5209  0.3052
 3980SOL     OW12838   3.038   3.087   0.232 -0.0181  0.8143  0.0730
 3980SOL    HW112839   3.007   3.041   0.149 -1.0880  0.6260  0.5553
 3980SOL    HW212840   3.059   3.018   0.301  0.5927  0.9799  0.0530
 3981SOL     OW12841   1.698   2.012   4.993  0.0734  0.3925  0.1099
 3981SOL    HW112842   1.612   1.965   4.972 -0.0619  1.0287 -0.8597
 3981SOL    HW212843   1.721   2.074   4.918  1.6409 -0.1189  0.1319
 3982SOL     OW12844   0.011   5.352   2.931 -0.3590 -0.3301  0.3199
 3982SOL    HW112845   0.057   5.349   3.019 -1.5485  1.1045  1.0353
 3982SOL    HW212846   0.027   5.266   2.882  2.6536 -0.0732  0.6703
 3983SOL     OW12847   3.925   0.055   3.786 -0.5082 -0.1613 -0.1935
 3983SOL    HW112848   3.978   0.043   3.702  1.3795 -0.6623  1.0077
 3983SOL    HW212849   3.915   0.153   3.805  0.0690 -0.0644 -0.3813
 3984SOL     OW12850   1.354   1.804   4.491 -0.3159 -0.5590  0.1362
 3984SOL    HW112851   1.410   1.722   4.490 -0.1974 -0.4907 -1.5484
 3984SOL    HW212852   1.272   1.789   4.436 -0.5608  0.2656  0.2657
 3985SOL     OW12853   1.297   1.648   4.193  0.1250 -0.8232  0.1850
 3985SOL    HW112854   1.320   1.551   4.186 -1.3485 -1.5041  3.1876
 3985SOL    HW212855   1.298   1.689   4.102  1.9322 -3.3404 -1.0470
 3986SOL     OW12856   3.916   1.896   3.812 -0.1446 -0.4085 -0.0098
 3986SOL    HW112857   3.903   1.909   3.714 -0.6356 -0.4086  0.0548
 3986SOL    HW212858   3.915   1.985   3.857  0.6623 -0.3580 -0.0687
 3987SOL     OW12859   2.698   6.119   1.411  0.5928  0.4212  0.5024
 3987SOL    HW112860   2.784   6.158   1.380  0.1923  0.5805 -0.4363
 3987SOL    HW212861   2.632   6.193   1.427 -0.3242  0.1732 -1.7498
 3988SOL     OW12862   6.564   6.830   4.668 -0.3484 -0.1939  0.2975
 3988SOL    HW112863   6.470   6.816   4.637  0.2964 -0.1707 -1.8322
 3988SOL    HW212864   6.617   6.872   4.595  1.8079 -1.9947  0.7398
 3989SOL     OW12865   3.081   6.013   2.057  0.3307 -0.4293  0.3081
 3989SOL    HW112866   3.148   6.071   2.104  0.1839  1.1666 -1.3418
 3989SOL    HW212867   3.005   6.069   2.025  0.9590 -1.1667 -2.8111
 3990SOL     OW12868   5.781   1.363   2.971  0.0826  0.0247  0.1971
 3990SOL    HW112869   5.787   1.370   2.871 -1.6343  2.1664  0.1746
 3990SOL    HW212870   5.728   1.282   2.995 -3.5732  1.8374 -0.9318
 3991SOL     OW12871   5.629   3.079   0.906 -0.4066 -0.2488 -0.0140
 3991SOL    HW112872   5.535   3.083   0.940 -1.0206 -0.0060 -1.6581
 3991SOL    HW212873   5.634   3.013   0.831  0.2646  1.1995 -1.2957
 3992SOL     OW12874   6.100   3.879   1.824 -0.6382  0.0774  0.2213
 3992SOL    HW112875   6.139   3.967   1.851  1.2460 -0.7495  0.3961
 3992SOL    HW212876   6.064   3.886   1.731 -1.8883  1.4030  0.7723
 3993SOL     OW12877   3.834   5.572   0.750 -0.1279 -0.7028 -0.4314
 3993SOL    HW112878   3.911   5.534   0.802 -0.1558  1.0930  1.0207
 3993SOL    HW212879   3.749   5.527   0.778  0.0415 -0.7315  0.0528
 3994SOL     OW12880   3.792   6.091   4.739  0.1768  0.0488 -0.5295
 3994SOL    HW112881   3.755   6.152   4.809  0.6137  1.5679 -1.5953
 3994SOL    HW212882   3.884   6.062   4.765  1.0072  1.9301 -1.2012
 3995SOL     OW12883   2.108   2.030   2.195 -0.4671  0.2680 -0.1288
 3995SOL    HW112884   2.033   2.068   2.141 -0.2238  1.5961  0.4342
 3995SOL    HW212885   2.076   1.948   2.244 -1.0178 -0.2430 -1.3117
 3996SOL     OW12886   2.566   0.267   0.981 -0.1757 -0.1295  0.4563
 3996SOL    HW112887   2.488   0.325   1.002  1.2772  1.6910  1.1441
 3996SOL    HW212888   2.605   0.294   0.893  0.7376  0.2341  0.9585
 3997SOL     OW12889   3.899   2.011   2.330  0.1810 -0.4040  0.0461
 3997SOL    HW112890   3.926   1.920   2.298  1.0824  0.2129 -0.9950
 3997SOL    HW212891   3.804   2.028   2.306 -0.3442 -1.4835  1.2253
 3998SOL     OW12892   4.088   0.549   2.512  0.7672 -0.1588  0.0921
 3998SOL    HW112893   4.182   0.514   2.518  0.4876 -0.8244  0.7565
 3998SOL    HW212894   4.082   0.637   2.558  0.9883 -0.2857  0.3667
 3999SOL     OW12895   1.166   2.648   3.891  0.3268 -0.0318  0.2387
 3999SOL    HW112896   1.096   2.579   3.910  1.8279 -1.6470  0.0575
 3999SOL    HW212897   1.128   2.716   3.828 -1.4164 -0.2303  0.9982
 4000SOL     OW12898   2.112   2.122   5.482 -0.7988 -0.1392 -0.2246
 4000SOL    HW112899   2.208   2.110   5.508 -0.2142  0.2933 -1.9849
 4000SOL    HW212900   2.074   2.202   5.528 -0.1482 -0.0121  0.0997
 4001SOL     OW12901   1.958   2.759   2.148  0.1428 -0.6004 -0.1956
 4001SOL    HW112902   1.959   2.715   2.238 -1.1850  0.1488  0.2170
 4001SOL    HW212903   2.006   2.847   2.154  1.5311 -1.2974 -0.6635
 4002SOL     OW12904   2.678   5.207   5.808  0.0376 -0.3997 -0.6539
 4002SOL    HW112905   2.684   5.300   5.845 -2.3820 -0.8033  1.0052
 4002SOL    HW212906   2.645   5.210   5.714  0.1736  0.4310 -0.6783
 4003SOL     OW12907   1.918   4.532   2.352 -0.6110  0.1260 -0.4693
 4003SOL    HW112908   1.930   4.603   2.282  0.3558  0.8253  0.3795
 4003SOL    HW212909   1.833   4.549   2.401  0.4984  1.8523  0.9698
 4004SOL     OW12910   5.806   4.299   0.109 -0.2071  0.4969  0.1025
 4004SOL    HW112911   5.759   4.363   0.170 -0.2656 -0.2044  0.7995
 4004SOL    HW212912   5.762   4.302   0.019 -0.5303  1.0632  0.2699
 4005SOL     OW12913   1.705   3.672   1.700 -0.1677 -0.0195 -0.6478
 4005SOL    HW112914   1.763   3.592   1.711  2.6494  1.3451 -3.9153
 4005SOL    HW212915   1.634   3.653   1.632 -1.5903 -0.6211  0.9192
 4006SOL     OW12916   5.310   1.309   4.997  0.1108  0.0686 -0.1371
 4006SOL    HW112917   5.372   1.375   5.040 -0.7400 -0.0377  1.3264
 4006SOL    HW212918   5.315   1.318   4.898  0.6324  1.7515  0.0128
 4007SOL     OW12919   3.944   1.751   4.809 -0.5560 -0.0498 -0.0279
 4007SOL    HW112920   3.961   1.715   4.717  2.5815  0.0175  0.4010
 4007SOL    HW212921   3.989   1.840   4.818 -0.4656 -0.2364  1.6713
 4008SOL     OW12922   0.970   5.588   6.926 -0.5957  0.0685 -0.1329
 4008SOL    HW112923   1.055   5.617   6.883  0.0816 -0.8096  0.5639
 4008SOL    HW212924   0.897   5.585   6.858  0.2314 -0.4002 -1.0248
 4009SOL     OW12925   5.898   3.325   6.695  0.4193  0.3786  0.2698
 4009SOL    HW112926   5.810   3.300   6.655  0.0482 -0.0946  1.3527
 4009SOL    HW212927   5.896   3.308   6.793  1.2270  1.7414  0.5478
 4010SOL     OW12928   0.949   0.556   0.306  0.6273 -0.1331  0.6325
 4010SOL    HW112929   0.936   0.464   0.342  0.2829 -0.2036  0.3355
 4010SOL    HW212930   1.004   0.551   0.222  0.5943 -0.0738  0.6068
 4011SOL     OW12931   4.679   5.899   0.393 -0.4160  0.4983 -0.1501
 4011SOL    HW112932   4.660   5.933   0.485 -1.0456  1.6495 -0.6841
 4011SOL    HW212933   4.694   5.800   0.396 -1.3433  0.3763  1.0458
 4012SOL     OW12934   0.777   1.016   1.228  1.0118 -0.1905  0.3617
 4012SOL    HW112935   0.709   0.943   1.223 -0.0415  0.7420  0.7513
 4012SOL    HW212936   0.798   1.048   1.136  0.5319 -0.1288  0.2737
 4013SOL     OW12937   3.756   3.269   4.252 -0.0304 -0.6999 -0.5694
 4013SOL    HW112938   3.844   3.291   4.294  0.8553 -2.9799 -1.0911
 4013SOL    HW212939   3.772   3.227   4.162 -1.6912 -0.7293 -0.8748
 4014SOL     OW12940   3.573   0.644   5.389  0.2246 -0.0843  0.5756
 4014SOL    HW112941   3.490   0.607   5.430 -0.5931 -0.7282 -1.5815
 4014SOL    HW212942   3.562   0.653   5.290  2.4016  0.6991  0.3339
 4015SOL     OW12943   2.779   0.832   3.451  0.1135  0.5829 -0.4637
 4015SOL    HW112944   2.697   0.801   3.403 -0.9672 -0.9024  2.0610
 4015SOL    HW212945   2.855   0.770   3.430 -0.4304 -0.2440 -0.0907
 4016SOL     OW12946   3.913   2.162   3.336  0.1318  0.3900  0.0480
 4016SOL    HW112947   3.932   2.075   3.292  1.2651  1.0512 -0.8439
 4016SOL    HW212948   3.997   2.217   3.339  0.0382  0.5190  2.7799
 4017SOL     OW12949   3.730   1.016   1.630 -0.0878 -0.6369  0.1877
 4017SOL    HW112950   3.644   0.995   1.678  0.3377  0.0760  1.2964
 4017SOL    HW212951   3.770   1.099   1.668  1.3282 -1.2027 -0.0206
 4018SOL     OW12952   6.681   1.678   2.525  0.1978  0.0299 -0.4818
 4018SOL    HW112953   6.735   1.611   2.474 -0.6065  0.2655 -1.6673
 4018SOL    HW212954   6.736   1.760   2.542  0.9721 -0.6456  0.4121
 4019SOL     OW12955   0.718   1.585   3.937  0.4120  0.6893 -0.0893
 4019SOL    HW112956   0.685   1.679   3.946 -0.7241  0.2568  0.4547
 4019SOL    HW212957   0.816   1.586   3.920  0.5485  1.9527  0.6289
 4020SOL     OW12958   2.561   1.566   2.681  0.0482 -0.1518  0.0718
 4020SOL    HW112959   2.565   1.648   2.623  1.1842 -0.1537  0.1311
 4020SOL    HW212960   2.469   1.558   2.721 -0.8486 -0.2907 -1.8999
 4021SOL     OW12961   5.350   6.337   0.744  0.1429 -0.1113 -0.3139
 4021SOL    HW112962   5.378   6.383   0.660 -0.8755  0.6149 -0.2809
 4021SOL    HW212963   5.380   6.242   0.741  0.1920 -0.0809 -1.4745
 4022SOL     OW12964   4.930   6.380   0.618  0.8673  1.0431  0.1795
 4022SOL    HW112965   4.942   6.282   0.630  1.8086  1.1951  0.5578
 4022SOL    HW212966   4.878   6.417   0.694  0.9742  0.9238  0.3104
 4023SOL     OW12967   2.208   3.176   6.311  0.1823  0.5231  0.0235
 4023SOL    HW112968   2.255   3.249   6.362  1.0642 -0.3823  0.5336
 4023SOL    HW212969   2.275   3.121   6.263 -0.5483  0.5029 -0.9957
 4024SOL     OW12970   0.670   4.107   0.911 -0.2408 -0.1998  0.2125
 4024SOL    HW112971   0.604   4.055   0.858 -1.0984  1.8996 -0.8751
 4024SOL    HW212972   0.753   4.122   0.857 -0.8194  1.2941 -0.3128
 4025SOL     OW12973   5.682   1.351   4.101 -0.2520  0.2935  0.6120
 4025SOL    HW112974   5.633   1.400   4.029  0.5379  1.4705  0.8608
 4025SOL    HW212975   5.693   1.255   4.074 -2.7972 -0.0636  0.6133
 4026SOL     OW12976   1.893   4.738   2.172  0.4280 -0.7297 -0.1662
 4026SOL    HW112977   1.968   4.724   2.107  0.0905 -0.8831 -0.5248
 4026SOL    HW212978   1.878   4.836   2.184 -0.9919 -0.6545 -2.0719
 4027SOL     OW12979   5.248   6.674   0.911  0.2455  0.1450  0.3443
 4027SOL    HW112980   5.197   6.749   0.953  1.5712  0.8286  0.7819
 4027SOL    HW212981   5.199   6.642   0.830  0.0014  1.9955 -0.2897
 4028SOL     OW12982   5.151   0.305   5.457 -0.0217 -0.6335  0.9716
 4028SOL    HW112983   5.151   0.357   5.372 -1.5354 -1.3216  0.5251
 4028SOL    HW212984   5.176   0.365   5.533 -1.8205  0.8019  0.4873
 4029SOL     OW12985   4.500   1.932   1.444 -0.2483  0.1212  0.4555
 4029SOL    HW112986   4.482   2.020   1.490 -1.0823  0.7457 -0.9934
 4029SOL    HW212987   4.414   1.897   1.405  0.0360 -1.4530  1.1648
 4030SOL     OW12988   6.587   6.317   0.985 -0.0855 -0.4182  0.0667
 4030SOL    HW112989   6.594   6.387   1.056 -0.3018 -1.7542  1.4611
 4030SOL    HW212990   6.635   6.348   0.903  0.4471  1.0378  0.8882
 4031SOL     OW12991   6.637   0.730   2.799 -0.3722  0.3597  0.7145
 4031SOL    HW112992   6.680   0.642   2.817 -0.1000  0.5460  0.9851
 4031SOL    HW212993   6.574   0.721   2.722  1.0156  0.3381 -0.4658
 4032SOL     OW12994   1.694   6.284   3.942  0.2660 -1.0317 -0.2785
 4032SOL    HW112995   1.767   6.345   3.912  0.5024 -1.1632  0.0147
 4032SOL    HW212996   1.605   6.324   3.919  0.4292 -0.8592 -0.6180
 4033SOL     OW12997   1.760   3.401   2.041 -0.2828 -0.1060  0.5479
 4033SOL    HW112998   1.769   3.473   1.971 -0.7946  0.5478  1.1337
 4033SOL    HW212999   1.755   3.312   1.996 -0.5616  0.2992 -0.2553
 4034SOL     OW13000   5.147   2.927   5.066  0.4796  0.7033 -0.4840
 4034SOL    HW113001   5.193   2.860   5.007  0.7432  1.5583 -1.2727
 4034SOL    HW213002   5.109   2.881   5.146  0.6243 -0.3931 -1.0325
 4035SOL     OW13003   6.440   0.067   4.165  0.2937  0.3009  0.0787
 4035SOL    HW113004   6.401   0.159   4.161 -2.2554 -0.6348  1.2590
 4035SOL    HW213005   6.466   0.046   4.259 -0.9751 -0.8401  0.1996
 4036SOL     OW13006   6.867   5.983   0.619  0.1926 -0.0863  0.0100
 4036SOL    HW113007   6.903   5.958   0.529  1.7213 -2.7222  1.2055
 4036SOL    HW213008   6.815   5.906   0.657  0.5201  0.5157  1.8099
 4037SOL     OW13009   4.782   5.194   3.032 -0.1228 -0.1670 -0.4844
 4037SOL    HW113010   4.854   5.175   3.098 -0.7573  1.1899  0.6524
 4037SOL    HW213011   4.819   5.188   2.939  1.1110 -0.7885  0.0276
 4038SOL     OW13012   5.808   2.677   2.427 -0.7138  0.1479  0.4604
 4038SOL    HW113013   5.855   2.738   2.491 -0.2604 -1.0621  1.3262
 4038SOL    HW213014   5.730   2.634   2.473 -0.8239 -0.1919 -0.0352
 4039SOL     OW13015   1.289   0.175   6.044  0.0144  0.3754 -0.5041
 4039SOL    HW113016   1.193   0.169   6.016 -0.5174  2.5555  0.5883
 4039SOL    HW213017   1.344   0.210   5.969 -0.1600 -0.2643 -0.9325
 4040SOL     OW13018   0.491   1.384   4.607 -0.5838  0.1239  0.4575
 4040SOL    HW113019   0.440   1.310   4.565  2.3383 -2.0526  0.4703
 4040SOL    HW213020   0.506   1.364   4.704  0.4332  0.5820  0.4132
 4041SOL     OW13021   1.843   0.834   5.082 -0.5557  0.3466 -0.2090
 4041SOL    HW113022   1.856   0.773   5.003  1.0942 -1.2961  1.2247
 4041SOL    HW213023   1.746   0.852   5.095 -0.8925  0.4211 -2.4046
 4042SOL     OW13024   0.158   2.394   1.020  0.1745 -0.4887 -0.3398
 4042SOL    HW113025   0.223   2.470   1.026 -1.0750  0.5143  1.1932
 4042SOL    HW213026   0.171   2.333   1.099  0.3347 -1.2046 -0.9068
 4043SOL     OW13027   4.147   4.791   6.983 -0.1776  0.0726  0.0778
 4043SOL    HW113028   4.215   4.798   6.909 -1.5279  0.1353 -1.2115
 4043SOL    HW213029   4.161   4.866   7.047 -0.3440  1.3841 -1.3440
 4044SOL     OW13030   0.725   2.581   2.098  0.1312  0.0522 -0.3538
 4044SOL    HW113031   0.814   2.592   2.055 -0.0052 -2.5750 -1.4786
 4044SOL    HW213032   0.663   2.652   2.064  1.4370  1.1227 -0.5523
 4045SOL     OW13033   2.077   6.638   5.788 -1.0389  0.5279 -0.6938
 4045SOL    HW113034   2.062   6.632   5.689 -0.3067  2.0614 -0.9264
 4045SOL    HW213035   2.090   6.733   5.814  0.7404 -0.0224  0.6052
 4046SOL     OW13036   4.451   5.757   6.852 -0.4010  0.1725  0.0038
 4046SOL    HW113037   4.385   5.824   6.885 -0.1446  0.5679 -0.2747
 4046SOL    HW213038   4.427   5.666   6.885 -0.9063  0.3642  0.1577
 4047SOL     OW13039   2.044   4.274   1.698  0.4370  0.1347 -0.1851
 4047SOL    HW113040   1.989   4.196   1.669  1.5380 -0.8119  0.1905
 4047SOL    HW213041   2.011   4.357   1.653 -1.3697 -0.3661  0.1351
 4048SOL     OW13042   4.884   2.138   0.917 -0.1088  0.8481 -0.3402
 4048SOL    HW113043   4.959   2.204   0.908  2.5529 -1.1710  3.9632
 4048SOL    HW213044   4.830   2.161   0.998  0.0100 -1.3829  0.4230
 4049SOL     OW13045   0.819   1.703   5.257  0.1072  0.1248  0.3182
 4049SOL    HW113046   0.897   1.666   5.308 -0.4279 -2.7647 -0.7315
 4049SOL    HW213047   0.852   1.772   5.192  1.8554 -1.1235 -0.2048
 4050SOL     OW13048   2.229   3.889   0.560 -0.1252 -0.1733 -0.2768
 4050SOL    HW113049   2.148   3.888   0.502  0.1588 -0.5399 -0.6784
 4050SOL    HW213050   2.209   3.842   0.646 -1.0964  1.9462  0.7093
 4051SOL     OW13051   2.583   5.631   0.761 -0.4271  0.4982  0.0183
 4051SOL    HW113052   2.559   5.727   0.775  1.6814  1.0902 -0.0142
 4051SOL    HW213053   2.612   5.617   0.666  0.7298  0.2037  0.3939
 4052SOL     OW13054   0.497   1.918   5.536 -0.1182  0.1756  0.3639
 4052SOL    HW113055   0.585   1.930   5.491  0.0247  1.3714  0.9248
 4052SOL    HW213056   0.426   1.900   5.467  0.5387 -0.7973 -0.0903
 4053SOL     OW13057   3.778   0.798   5.818  0.4097  0.0979 -0.2129
 4053SOL    HW113058   3.721   0.767   5.894  0.3240 -1.3640 -0.8293
 4053SOL    HW213059   3.719   0.836   5.746  0.3717  0.2876 -0.0801
 4054SOL     OW13060   5.730   2.139   1.777 -0.3880  0.4554  0.0562
 4054SOL    HW113061   5.749   2.231   1.812 -0.3473  0.5696 -0.2557
 4054SOL    HW213062   5.784   2.123   1.694 -0.6800  0.2956 -0.1073
 4055SOL     OW13063   1.859   3.728   2.618 -0.1201  0.6122  0.2600
 4055SOL    HW113064   1.805   3.664   2.564  0.2320 -1.7976  2.5655
 4055SOL    HW213065   1.802   3.768   2.690  0.1186  1.5035 -0.0322
 4056SOL     OW13066   2.081   5.625   3.539 -0.4050 -0.2732 -0.2229
 4056SOL    HW113067   2.119   5.670   3.620 -2.6629  2.2158 -0.4079
 4056SOL    HW213068   2.058   5.530   3.562 -0.0836  0.0711  1.7443
 4057SOL     OW13069   1.805   2.559   4.415  0.4671  0.7134  0.8078
 4057SOL    HW113070   1.713   2.557   4.454  0.6894 -0.4162  1.2863
 4057SOL    HW213071   1.873   2.556   4.488  0.8831 -0.3496  0.4011
 4058SOL     OW13072   4.043   1.917   0.425  0.2073 -0.2867 -0.1109
 4058SOL    HW113073   3.978   1.990   0.403 -0.0230 -0.4945 -0.1244
 4058SOL    HW213074   3.995   1.829   0.429  0.6072 -0.5457 -0.8028
 4059SOL     OW13075   3.179   1.628   6.092  0.1593 -0.5646 -1.1647
 4059SOL    HW113076   3.083   1.603   6.081  0.4044 -2.7795  0.9398
 4059SOL    HW213077   3.230   1.550   6.128  2.2857  1.2702  0.0407
 4060SOL     OW13078   4.692   5.420   3.450 -0.5498 -0.6880  0.2721
 4060SOL    HW113079   4.605   5.444   3.494 -3.1255 -2.9497 -3.0596
 4060SOL    HW213080   4.677   5.406   3.352  3.8291 -0.5109 -0.6158
 4061SOL     OW13081   4.160   0.935   4.447  0.5143 -0.0658  0.2693
 4061SOL    HW113082   4.092   1.008   4.458  1.2529  0.8101 -0.7186
 4061SOL    HW213083   4.125   0.850   4.485 -0.2950  0.8480  1.6284
 4062SOL     OW13084   2.403   2.072   6.750 -1.0612 -0.1994 -0.4326
 4062SOL    HW113085   2.316   2.076   6.799 -1.1741 -0.0795 -0.6406
 4062SOL    HW213086   2.478   2.082   6.815 -1.2420  2.2592 -0.4873
 4063SOL     OW13087   2.315   6.151   0.639 -0.0872  0.2501  0.1319
 4063SOL    HW113088   2.405   6.123   0.673  0.5723  1.3627 -0.6381
 4063SOL    HW213089   2.268   6.207   0.707 -0.6953 -1.2342  0.9867
 4064SOL     OW13090   3.104   4.726   1.790  0.0098  0.3696  0.0736
 4064SOL    HW113091   3.199   4.738   1.819  0.4427 -0.8565 -0.7727
 4064SOL    HW213092   3.070   4.637   1.820 -1.0819  1.0128  0.8502
 4065SOL     OW13093   2.602   0.911   1.264  0.6663  0.1465 -0.1441
 4065SOL    HW113094   2.540   0.929   1.187  0.4257  2.2110  0.4788
 4065SOL    HW213095   2.549   0.873   1.340  0.1679  1.6272  0.2830
 4066SOL     OW13096   1.587   1.691   4.014  0.6896 -0.0526  0.1378
 4066SOL    HW113097   1.672   1.714   3.966  0.9367  1.4641  1.2380
 4066SOL    HW213098   1.603   1.612   4.073  0.6396 -1.3232 -1.4844
 4067SOL     OW13099   2.674   2.302   2.102 -0.1996 -0.0499 -0.3877
 4067SOL    HW113100   2.771   2.300   2.080  0.0726 -0.4936  0.7781
 4067SOL    HW213101   2.662   2.331   2.197 -1.3605  2.6951 -1.2716
 4068SOL     OW13102   3.142   4.168   0.753 -0.3751 -0.2040  0.9584
 4068SOL    HW113103   3.230   4.152   0.707 -0.6684 -0.7264  0.5679
 4068SOL    HW213104   3.099   4.079   0.772 -0.4115  0.0138  1.9449
 4069SOL     OW13105   1.859   6.290   6.841 -0.2987  0.1266 -0.2850
 4069SOL    HW113106   1.765   6.303   6.875  0.2996 -0.0320  1.5428
 4069SOL    HW213107   1.895   6.204   6.876  0.4957  0.1321 -1.0718
 4070SOL     OW13108   2.777   6.834   6.174 -0.7175  0.1303  0.3017
 4070SOL    HW113109   2.809   6.740   6.165 -1.5417 -0.3629  2.0327
 4070SOL    HW213110   2.709   6.854   6.104  0.3229 -0.1486 -0.8166
 4071SOL     OW13111   0.536   0.672   2.394  0.4867  0.1616  0.7092
 4071SOL    HW113112   0.603   0.652   2.323  0.4318  0.3153  0.6138
 4071SOL    HW213113   0.555   0.616   2.474 -0.1377 -0.8674  0.1626
 4072SOL     OW13114   4.156   0.832   4.801  0.4075  0.3993 -0.4658
 4072SOL    HW113115   4.195   0.758   4.855  0.6293  1.1060  0.3689
 4072SOL    HW213116   4.154   0.806   4.705  1.1159 -0.4122 -0.2682
 4073SOL     OW13117   0.565   3.968   2.876 -0.2085  0.4434 -0.1895
 4073SOL    HW113118   0.602   3.947   2.786 -0.0720  0.6166 -0.1741
 4073SOL    HW213119   0.640   3.967   2.943  0.0046  2.1538 -0.3709
 4074SOL     OW13120   1.994   6.318   0.276 -0.2428  0.2718 -0.5450
 4074SOL    HW113121   1.906   6.295   0.234 -0.3517 -0.1835 -0.0855
 4074SOL    HW213122   1.978   6.374   0.358 -0.0822  0.5158 -0.6807
 4075SOL     OW13123   0.732   6.093   2.054 -0.2924  0.1729  0.4391
 4075SOL    HW113124   0.820   6.133   2.031 -0.6912  0.3532 -0.8569
 4075SOL    HW213125   0.693   6.140   2.133 -0.3349  1.7432 -0.4894
 4076SOL     OW13126   5.164   4.523   1.866  0.7807 -0.5093  0.7046
 4076SOL    HW113127   5.109   4.448   1.901 -0.7143  1.7503  3.6933
 4076SOL    HW213128   5.249   4.529   1.918  0.3427  0.5162  1.3399
 4077SOL     OW13129   3.074   6.147   0.521  0.1557  0.2680  0.7694
 4077SOL    HW113130   3.125   6.228   0.552  0.3196  0.0963  0.9515
 4077SOL    HW213131   3.137   6.082   0.480 -0.2608  1.1675 -1.4085
 4078SOL     OW13132   6.366   6.139   7.025 -0.4914 -0.0321  0.2276
 4078SOL    HW113133   6.403   6.178   7.109  2.5492 -0.3927 -0.8224
 4078SOL    HW213134   6.357   6.040   7.035 -0.4269 -0.0395  0.2096
 4079SOL     OW13135   5.500   2.885   4.468 -0.1057 -0.0259 -0.6547
 4079SOL    HW113136   5.571   2.953   4.485  0.0141  0.6639 -3.3886
 4079SOL    HW213137   5.541   2.794   4.461 -0.3130 -0.5906  3.4027
 4080SOL     OW13138   3.833   2.467   6.079  0.1093 -0.0374  0.1451
 4080SOL    HW113139   3.806   2.540   6.142  0.5331 -0.1938  0.5188
 4080SOL    HW213140   3.798   2.486   5.988 -1.3104 -0.2634  0.6162
 4081SOL     OW13141   5.022   3.421   4.513  0.0514  0.3751 -0.5344
 4081SOL    HW113142   4.973   3.462   4.590  1.4474  1.2624 -0.0602
 4081SOL    HW213143   4.993   3.326   4.501  0.7911 -0.2680  2.0311
 4082SOL     OW13144   4.305   0.476   6.579 -0.5228  0.0926  0.5414
 4082SOL    HW113145   4.332   0.477   6.482  0.8106  1.5159  0.8704
 4082SOL    HW213146   4.290   0.382   6.609 -3.0556 -0.2840 -1.5548
 4083SOL     OW13147   5.331   4.234   2.216  0.4744  0.7432  0.3522
 4083SOL    HW113148   5.255   4.250   2.153 -0.8555  0.0767  1.7408
 4083SOL    HW213149   5.417   4.258   2.171 -0.4967  0.9945 -1.4400
 4084SOL     OW13150   3.904   1.649   3.565  0.0259 -0.1494  0.0675
 4084SOL    HW113151   3.869   1.574   3.620  0.6797 -0.1314  0.5244
 4084SOL    HW213152   3.835   1.678   3.499 -0.6108 -0.4523  0.5959
 4085SOL     OW13153   1.411   3.866   1.745  0.4214 -0.2075 -0.4236
 4085SOL    HW113154   1.425   3.775   1.784  1.0603  0.2905  0.5484
 4085SOL    HW213155   1.369   3.858   1.655  1.8439 -1.5392 -1.0041
 4086SOL     OW13156   5.107   4.728   6.699  0.8991 -0.2911  0.8486
 4086SOL    HW113157   5.116   4.651   6.763  0.7244 -1.3260 -0.3476
 4086SOL    HW213158   5.063   4.805   6.746  0.4140 -1.1669  1.8687
 4087SOL     OW13159   3.588   1.501   3.588 -0.2424 -0.2108  0.0389
 4087SOL    HW113160   3.672   1.476   3.635 -0.5728  1.0098  1.3439
 4087SOL    HW213161   3.594   1.475   3.492  1.5703 -0.2537  0.1420
 4088SOL     OW13162   4.155   5.007   6.486 -0.3582 -0.5882  0.2451
 4088SOL    HW113163   4.088   4.975   6.419  0.2617  1.0185 -1.2318
 4088SOL    HW213164   4.241   4.957   6.473 -0.5156 -0.9158  0.4606
 4089SOL     OW13165   5.859   0.770   0.266  0.4892 -0.0324 -0.1207
 4089SOL    HW113166   5.876   0.704   0.192 -0.8870 -1.1154  0.4774
 4089SOL    HW213167   5.846   0.720   0.352 -1.2772  0.9419  0.2290
 4090SOL     OW13168   4.795   5.157   4.156  0.1610  0.4165  0.2917
 4090SOL    HW113169   4.832   5.240   4.197  0.6908  0.2924  0.0642
 4090SOL    HW213170   4.778   5.089   4.228 -0.3654  0.7498  0.4905
 4091SOL     OW13171   3.134   6.957   0.803  0.2919  0.1284  0.4362
 4091SOL    HW113172   3.147   7.014   0.722  1.1430 -0.2118  0.3182
 4091SOL    HW213173   3.144   7.012   0.885 -0.6006  0.4816  0.3149
 4092SOL     OW13174   6.182   2.457   3.562  0.2689  0.8969  0.6201
 4092SOL    HW113175   6.125   2.390   3.514  2.8718 -2.6406  2.0034
 4092SOL    HW213176   6.249   2.495   3.498  0.4271  0.1618  0.3384
 4093SOL     OW13177   4.797   4.021   3.624  0.5037 -0.0013 -0.1198
 4093SOL    HW113178   4.770   4.096   3.563  0.6792  0.3257  0.1989
 4093SOL    HW213179   4.895   4.025   3.640  0.2918  0.6626  1.1512
 4094SOL     OW13180   2.208   0.715   0.063  0.3906 -0.2298  0.0144
 4094SOL    HW113181   2.206   0.648  -0.010 -2.8936 -0.1113 -0.1296
 4094SOL    HW213182   2.249   0.800   0.029  0.0003 -0.5541 -1.3145
 4095SOL     OW13183   3.435   2.086   3.226  0.1597  0.4145 -0.5243
 4095SOL    HW113184   3.534   2.093   3.237  0.1169 -0.8578  0.9544
 4095SOL    HW213185   3.391   2.153   3.287  0.0918 -0.4160  0.3595
 4096SOL     OW13186   1.532   5.756   6.513  0.3692  0.1928  0.6080
 4096SOL    HW113187   1.581   5.748   6.600  0.5958 -1.0005  0.3918
 4096SOL    HW213188   1.596   5.780   6.440  0.8012 -1.8358  0.2365
 4097SOL     OW13189   4.530   2.669   0.221  0.2292 -0.4588 -0.2323
 4097SOL    HW113190   4.624   2.676   0.187  0.5106 -1.0579  0.4173
 4097SOL    HW213191   4.482   2.597   0.171  0.5141 -1.0464  0.3301
 4098SOL     OW13192   6.020   4.910   0.949 -0.4559  0.3586  0.7823
 4098SOL    HW113193   6.077   4.926   1.030 -0.8614 -1.0490  1.3803
 4098SOL    HW213194   6.025   4.814   0.923 -3.1643 -0.0382  1.3678
 4099SOL     OW13195   0.078   2.935   6.883  0.4652 -0.0974  0.1258
 4099SOL    HW113196   0.161   2.991   6.887  1.9624 -2.2069 -0.0801
 4099SOL    HW213197   0.102   2.840   6.864 -1.7884 -1.2426  2.3301
 4100SOL     OW13198   4.517   1.242   6.931 -0.1601 -0.3497 -0.0033
 4100SOL    HW113199   4.528   1.207   6.838 -0.9271  0.6936 -0.5111
 4100SOL    HW213200   4.578   1.193   6.993  1.4620 -0.0370 -1.3045
 4101SOL     OW13201   5.037   3.251   5.355  0.0809  0.4825  0.0315
 4101SOL    HW113202   5.030   3.157   5.386  0.4269  0.3799 -0.1876
 4101SOL    HW213203   5.128   3.266   5.314 -0.2811  0.6587 -0.7352
 4102SOL     OW13204   5.195   3.130   4.209 -0.4535  0.3835 -0.0555
 4102SOL    HW113205   5.111   3.141   4.263  0.0909 -0.3200  0.9663
 4102SOL    HW213206   5.210   3.212   4.154  0.0195  2.0126  2.3510
 4103SOL     OW13207   6.188   3.918   5.860  0.2026  0.1026  0.1175
 4103SOL    HW113208   6.177   3.850   5.788  0.9590  0.3130 -0.2051
 4103SOL    HW213209   6.102   3.967   5.874 -0.9435 -2.2066  1.6801
 4104SOL     OW13210   0.403   3.841   5.794 -0.1388  0.4251 -0.1629
 4104SOL    HW113211   0.376   3.880   5.882 -1.1724  1.4295 -0.9006
 4104SOL    HW213212   0.479   3.894   5.756 -0.0223  0.2941 -0.1167
 4105SOL     OW13213   6.698   3.768   4.382  0.3956 -0.5339  0.2226
 4105SOL    HW113214   6.754   3.697   4.339  0.5328  0.4115 -1.2311
 4105SOL    HW213215   6.757   3.837   4.424  0.2859 -0.4585  0.2529
 4106SOL     OW13216   3.724   0.184   3.274  0.2482  0.1604  0.2496
 4106SOL    HW113217   3.760   0.095   3.300 -0.2693 -0.1088  0.0515
 4106SOL    HW213218   3.697   0.234   3.356 -1.0336 -0.5388  0.2800
 4107SOL     OW13219   6.278   3.676   6.001  0.0528 -0.7567 -0.2267
 4107SOL    HW113220   6.301   3.597   5.944  0.3714 -0.1791 -0.9091
 4107SOL    HW213221   6.246   3.751   5.943 -1.7898 -0.8924  0.5157
 4108SOL     OW13222   0.083   2.378   3.367  0.3230  0.0745 -0.0630
 4108SOL    HW113223   0.181   2.358   3.376  0.3135  0.9178  3.4099
 4108SOL    HW213224   0.068   2.475   3.385 -1.0667  0.2519 -1.9562
 4109SOL     OW13225   6.789   4.371   6.765 -0.2377 -0.6643  0.2691
 4109SOL    HW113226   6.758   4.445   6.825  0.1706  0.7474 -1.1727
 4109SOL    HW213227   6.889   4.374   6.759 -0.1081 -2.1881  1.2024
 4110SOL     OW13228   0.114   2.207   4.262 -0.2143 -0.4889  0.5256
 4110SOL    HW113229   0.196   2.252   4.297  0.8160 -1.1692 -0.9312
 4110SOL    HW213230   0.056   2.274   4.217 -0.0874 -0.1308  0.8906
 4111SOL     OW13231   0.061   5.273   3.631  0.3426  0.0112  0.2648
 4111SOL    HW113232   0.088   5.181   3.661  0.5854  0.6776  2.2099
 4111SOL    HW213233   0.142   5.328   3.614  0.2538 -0.4990 -2.4340
 4112SOL     OW13234   3.185   6.682   1.177  0.4360  0.6458  0.0692
 4112SOL    HW113235   3.177   6.629   1.093 -0.1607 -0.5385  0.8438
 4112SOL    HW213236   3.098   6.679   1.227 -0.1808  3.7268 -0.6175
 4113SOL     OW13237   2.885   0.931   0.293  0.5166  0.9175 -0.1959
 4113SOL    HW113238   2.795   0.919   0.250  0.3988 -1.4046  0.5279
 4113SOL    HW213239   2.956   0.894   0.232  0.6964  0.5369  0.2383
 4114SOL     OW13240   4.245   5.871   2.942 -0.5683 -0.0155 -0.5182
 4114SOL    HW113241   4.187   5.869   2.861 -0.9288  0.0956 -0.2651
 4114SOL    HW213242   4.295   5.784   2.950 -3.1768 -1.5092  1.0522
 4115SOL     OW13243   1.921   0.684   6.932  0.6229 -0.1976 -0.4508
 4115SOL    HW113244   1.992   0.615   6.917  1.1739  0.1176  0.6049
 4115SOL    HW213245   1.963   0.771   6.957 -0.1478 -0.0574  0.4001
 4116SOL     OW13246   3.780   4.064   3.251 -1.1582 -0.1615  0.0695
 4116SOL    HW113247   3.836   4.100   3.326 -1.7413 -0.4476  0.6524
 4116SOL    HW213248   3.762   3.967   3.266  1.3432 -1.0741 -2.0556
 4117SOL     OW13249   6.446   5.590   6.313 -0.2356 -0.0385  0.6651
 4117SOL    HW113250   6.478   5.660   6.377  0.5331 -1.3086  1.7245
 4117SOL    HW213251   6.436   5.503   6.362  0.8024 -1.1565 -1.0286
 4118SOL     OW13252   1.347   2.908   5.713  1.3499  0.4968  0.0667
 4118SOL    HW113253   1.346   2.907   5.613 -2.4888 -2.1445 -0.0894
 4118SOL    HW213254   1.254   2.923   5.746  1.8095 -2.4475  3.1208
 4119SOL     OW13255   4.010   3.217   2.593  0.1204  0.1337 -0.0354
 4119SOL    HW113256   4.065   3.283   2.542 -1.1162  2.4006  1.4183
 4119SOL    HW213257   3.915   3.247   2.595 -0.8689 -2.5831 -0.6747
 4120SOL     OW13258   5.630   1.247   5.016  0.4342 -0.5951 -0.2192
 4120SOL    HW113259   5.631   1.284   4.923 -1.7073 -1.1314 -0.5222
 4120SOL    HW213260   5.539   1.209   5.035  0.2052  1.2078  2.7862
 4121SOL     OW13261   6.374   4.503   0.250 -0.0961 -0.2358 -0.3816
 4121SOL    HW113262   6.342   4.566   0.321 -1.7705 -0.2460 -1.1024
 4121SOL    HW213263   6.474   4.499   0.253 -0.0163  1.3921  0.5856
 4122SOL     OW13264   0.181   6.913   2.830 -0.0909  0.0996 -0.2062
 4122SOL    HW113265   0.232   6.911   2.916  1.4915 -0.7457 -1.1091
 4122SOL    HW213266   0.151   7.006   2.810  2.3629  0.9557 -0.2912
 4123SOL     OW13267   1.689   6.760   6.175 -0.0819  0.9279 -0.0186
 4123SOL    HW113268   1.613   6.765   6.240  1.2131 -1.5074  1.8651
 4123SOL    HW213269   1.761   6.823   6.203 -1.1274  2.8782 -1.5255
 4124SOL     OW13270   0.713   4.974   5.237  0.2356 -0.6724  0.1054
 4124SOL    HW113271   0.621   4.994   5.270  0.4709 -0.2336  0.5108
 4124SOL    HW213272   0.767   4.934   5.312  0.7645  0.2871  0.2597
 4125SOL     OW13273   2.099   6.075   5.911  0.0749  0.1978  0.6870
 4125SOL    HW113274   2.067   6.130   5.834  0.0644 -0.5816  0.1191
 4125SOL    HW213275   2.020   6.043   5.964 -0.1099 -1.3086 -0.4243
 4126SOL     OW13276   6.761   0.734   5.751 -0.1406  0.1968  0.3100
 4126SOL    HW113277   6.759   0.834   5.755 -0.5625  0.1634  3.3428
 4126SOL    HW213278   6.764   0.697   5.844  1.4565 -2.6189 -0.7268
 4127SOL     OW13279   1.068   3.097   6.235  0.0345 -0.2520  0.1078
 4127SOL    HW113280   0.989   3.050   6.194  0.3906  0.3476 -1.3184
 4127SOL    HW213281   1.044   3.192   6.255  0.0829 -0.3510  0.6438
 4128SOL     OW13282   5.519   6.063   4.670 -0.0403 -0.3438  0.0267
 4128SOL    HW113283   5.605   6.012   4.662  0.4185  0.1150  1.6447
 4128SOL    HW213284   5.534   6.157   4.639 -0.9627 -1.1325 -3.2571
 4129SOL     OW13285   1.551   4.384   0.195  0.1963  0.0288  0.4326
 4129SOL    HW113286   1.493   4.350   0.269  0.0261 -1.5106 -0.3748
 4129SOL    HW213287   1.646   4.363   0.216  0.2831  0.8120  0.8428
 4130SOL     OW13288   0.387   0.126   3.762 -0.4015  0.2868 -0.0526
 4130SOL    HW113289   0.453   0.108   3.688  0.1502 -0.6502  0.6418
 4130SOL    HW213290   0.336   0.043   3.782  1.1595 -0.2224  2.2408
 4131SOL     OW13291   1.886   3.663   5.352 -0.5128  0.0187  0.6889
 4131SOL    HW113292   1.960   3.674   5.419  0.6931 -0.8116 -0.4529
 4131SOL    HW213293   1.904   3.582   5.296  0.4558  2.5537 -3.0042
 4132SOL     OW13294   6.717   5.630   4.345 -0.3505  0.2484 -0.0155
 4132SOL    HW113295   6.755   5.698   4.282 -0.8381  0.6555  0.1174
 4132SOL    HW213296   6.630   5.664   4.381 -1.3253 -1.0780 -1.0533
 4133SOL     OW13297   0.100   4.227   3.447  0.2079  0.1986  0.8247
 4133SOL    HW113298   0.006   4.195   3.434  0.0325  0.9313  0.2089
 4133SOL    HW213299   0.104   4.326   3.434  1.2747  0.0294 -0.4796
 4134SOL     OW13300   3.722   0.779   1.946  0.0574  0.7382  0.0645
 4134SOL    HW113301   3.790   0.852   1.953 -0.3324  0.9759  2.0480
 4134SOL    HW213302   3.766   0.693   1.920  0.6803  1.4336 -1.2455
 4135SOL     OW13303   5.730   1.127   2.293 -0.1704 -0.2593 -0.2376
 4135SOL    HW113304   5.643   1.151   2.336 -0.5222 -1.0111 -0.5106
 4135SOL    HW213305   5.783   1.210   2.276 -1.5286  0.3873 -1.5535
 4136SOL     OW13306   4.975   4.166   5.038  0.2723 -0.2477 -0.2988
 4136SOL    HW113307   5.012   4.209   5.121  2.6665  0.6251 -1.6868
 4136SOL    HW213308   5.019   4.077   5.024 -2.0471 -1.6233  0.6723
 4137SOL     OW13309   2.072   3.783   4.370 -0.2225 -0.3623  0.0586
 4137SOL    HW113310   2.041   3.832   4.451 -1.3748 -1.7212  0.4704
 4137SOL    HW213311   2.143   3.717   4.396  0.8107  0.5378 -0.3809
 4138SOL     OW13312   0.334   3.884   5.279  0.0366  0.2493 -0.2657
 4138SOL    HW113313   0.291   3.815   5.337  0.7487 -0.6445 -0.7843
 4138SOL    HW213314   0.267   3.956   5.259 -0.4668  0.1535  0.9619
 4139SOL     OW13315   4.001   1.288   6.779  0.3236  0.1381  0.2009
 4139SOL    HW113316   4.043   1.222   6.717 -0.7906 -2.1507  1.7480
 4139SOL    HW213317   4.011   1.380   6.741  1.6122 -0.9071 -2.2365
 4140SOL     OW13318   0.370   1.053   2.989  0.5025 -0.6355 -0.5180
 4140SOL    HW113319   0.329   1.140   3.015  3.0627  1.1607 -2.1846
 4140SOL    HW213320   0.306   1.003   2.930 -0.6450  0.4920 -0.2816
 4141SOL     OW13321   0.057   0.842   3.043  0.4987 -0.3199  0.4151
 4141SOL    HW113322   0.011   0.920   3.085  0.6384 -0.6743  1.2580
 4141SOL    HW213323   0.026   0.832   2.949  0.8379  1.0340  0.1345
 4142SOL     OW13324   2.944   5.096   4.573  0.1779  0.6405 -0.1924
 4142SOL    HW113325   2.962   5.161   4.499  0.6152  1.0625  0.2745
 4142SOL    HW213326   2.855   5.053   4.559 -0.3435  1.7226 -0.2293
 4143SOL     OW13327   1.107   6.278   2.854  0.6233 -0.0368  0.3315
 4143SOL    HW113328   1.188   6.334   2.872  1.3916 -1.8181  3.0616
 4143SOL    HW213329   1.028   6.316   2.902  0.4303  0.2771 -0.2215
 4144SOL     OW13330   6.128   3.430   2.470 -0.4400 -0.4293  0.3585
 4144SOL    HW113331   6.142   3.504   2.403 -1.0739 -0.1306  0.5510
 4144SOL    HW213332   6.066   3.462   2.542 -0.1772 -0.9277  0.8062
 4145SOL     OW13333   0.312   3.082   6.860 -0.8007 -0.1070 -0.1067
 4145SOL    HW113334   0.351   3.174   6.855 -1.2196  0.1162  0.5840
 4145SOL    HW213335   0.382   3.017   6.890 -0.5111 -0.0140 -0.5697
 4146SOL     OW13336   6.430   2.497   2.806  0.2800  0.0869 -0.3773
 4146SOL    HW113337   6.504   2.502   2.739  0.6171 -1.4823 -0.1724
 4146SOL    HW213338   6.349   2.457   2.763  0.1755  0.0106 -0.1144
 4147SOL     OW13339   6.046   0.717   5.482 -0.4398  0.0451  0.0998
 4147SOL    HW113340   5.969   0.653   5.489 -0.0898 -0.2351  1.5770
 4147SOL    HW213341   6.052   0.749   5.387 -1.3943 -1.1341 -0.4065
 4148SOL     OW13342   4.573   4.140   6.630 -0.1555 -0.7234 -0.5073
 4148SOL    HW113343   4.650   4.132   6.567  0.1921  0.6644 -0.2974
 4148SOL    HW213344   4.488   4.123   6.580  0.2883 -3.2119 -0.5430
 4149SOL     OW13345   4.257   6.819   3.946  0.1153 -0.1641 -0.6045
 4149SOL    HW113346   4.289   6.818   4.041 -1.6990 -0.9617  0.0459
 4149SOL    HW213347   4.308   6.752   3.893  2.1591  1.2960 -0.6054
 4150SOL     OW13348   3.317   5.538   6.342  0.9446 -0.2024 -0.7357
 4150SOL    HW113349   3.390   5.589   6.296 -1.0130  2.6892 -0.8766
 4150SOL    HW213350   3.249   5.511   6.274  0.0573  0.4641 -0.1212
 4151SOL     OW13351   1.961   3.177   0.329 -0.5215 -0.1000 -0.1866
 4151SOL    HW113352   2.042   3.184   0.388 -0.3122 -0.1576 -0.4688
 4151SOL    HW213353   1.879   3.171   0.387 -0.2614 -0.8921  0.1182
 4152SOL     OW13354   6.749   2.203   5.459  0.0580 -0.1644 -0.3954
 4152SOL    HW113355   6.725   2.120   5.509  2.6258 -0.6498  0.1977
 4152SOL    HW213356   6.720   2.195   5.364  0.4466 -1.8713 -0.4077
 4153SOL     OW13357   3.080   4.974   0.708  0.2199  0.0563  0.1775
 4153SOL    HW113358   3.013   4.944   0.640  0.6015 -1.6051  0.4964
 4153SOL    HW213359   3.096   5.072   0.698 -0.7561  0.0967 -1.2149
 4154SOL     OW13360   3.117   5.689   0.606  0.6060 -0.1457 -0.3317
 4154SOL    HW113361   3.083   5.689   0.700  2.3165  0.9999  0.3265
 4154SOL    HW213362   3.174   5.609   0.591 -0.9605 -1.2090 -0.9503
 4155SOL     OW13363   6.960   2.552   3.083 -0.0455 -0.3738  0.0238
 4155SOL    HW113364   6.986   2.547   2.987  0.7862 -1.0448  0.2636
 4155SOL    HW213365   7.027   2.608   3.133 -0.7179  0.3413  0.1408
 4156SOL     OW13366   1.430   0.831   4.243 -0.1659  0.1261 -0.0481
 4156SOL    HW113367   1.501   0.763   4.227  2.2707  2.9596 -2.6100
 4156SOL    HW213368   1.347   0.806   4.192  0.1863 -1.4872  0.1303
 4157SOL     OW13369   1.518   5.743   3.115  0.2819 -0.0441 -0.1664
 4157SOL    HW113370   1.599   5.696   3.080  1.6202 -0.4382  3.1360
 4157SOL    HW213371   1.545   5.808   3.186 -2.2112  0.5506  0.3305
 4158SOL     OW13372   5.872   3.485   4.914  0.8539 -0.5655  0.0897
 4158SOL    HW113373   5.798   3.432   4.957  0.3103 -0.3309 -0.5423
 4158SOL    HW213374   5.930   3.422   4.862 -0.5969 -0.4267 -1.8229
 4159SOL     OW13375   1.821   4.329   4.065 -0.0389  0.0049 -0.4207
 4159SOL    HW113376   1.744   4.279   4.106 -0.1826 -0.6411 -1.4229
 4159SOL    HW213377   1.893   4.340   4.133  0.1681 -1.9574 -0.2582
 4160SOL     OW13378   3.361   1.409   4.933  0.1198 -0.2711  0.5354
 4160SOL    HW113379   3.293   1.360   4.878 -0.4240 -1.6835  2.3259
 4160SOL    HW213380   3.314   1.472   4.994  0.6357  0.5848  0.0613
 4161SOL     OW13381   6.788   2.716   1.471 -0.5157 -0.5350  0.5304
 4161SOL    HW113382   6.812   2.752   1.561  1.8105 -0.1768 -0.1811
 4161SOL    HW213383   6.792   2.616   1.472  0.2937 -0.5016  0.6211
 4162SOL     OW13384   5.132   4.050   6.741  0.1962  0.7696  0.4264
 4162SOL    HW113385   5.160   4.053   6.645 -3.4166  2.1149 -0.7483
 4162SOL    HW213386   5.146   4.140   6.783 -0.0326  0.7439  0.5603
 4163SOL     OW13387   6.184   5.996   5.375 -0.6606  0.0371 -0.4400
 4163SOL    HW113388   6.256   6.025   5.311 -0.1392  0.2919  0.2582
 4163SOL    HW213389   6.155   5.903   5.352  0.4030 -0.3509 -0.2913
 4164SOL     OW13390   0.800   5.422   5.821  0.3340 -0.7076 -0.4220
 4164SOL    HW113391   0.724   5.455   5.765  0.4453 -0.2341 -0.3038
 4164SOL    HW213392   0.774   5.422   5.917  0.2174 -1.3080 -0.4527
 4165SOL     OW13393   1.047   5.400   4.639 -0.8812  0.0542 -0.5026
 4165SOL    HW113394   0.988   5.444   4.706 -0.4258 -1.9255  1.3067
 4165SOL    HW213395   1.143   5.410   4.667 -0.4230  1.5315 -2.3598
 4166SOL     OW13396   3.187   6.769   6.716 -0.2107  0.0381  0.0573
 4166SOL    HW113397   3.156   6.816   6.633  1.5850 -0.4751 -0.9516
 4166SOL    HW213398   3.120   6.785   6.790 -1.6153  0.8903 -1.3248
 4167SOL     OW13399   5.155   6.953   3.659  0.4122 -0.5435  0.1241
 4167SOL    HW113400   5.088   6.879   3.647  0.0112 -0.4850  1.6937
 4167SOL    HW213401   5.132   7.029   3.597 -2.0888  0.1901  1.7750
 4168SOL     OW13402   0.264   3.603   2.435  0.4352  0.4864  0.1151
 4168SOL    HW113403   0.325   3.565   2.366  0.0269 -1.7969  0.9529
 4168SOL    HW213404   0.314   3.670   2.490  1.9815 -0.7665  0.2981
 4169SOL     OW13405   5.356   1.668   5.388  0.2918 -0.1215  0.3227
 4169SOL    HW113406   5.286   1.702   5.325 -1.9183  0.0063  2.7335
 4169SOL    HW213407   5.383   1.741   5.450  2.1848 -0.3526 -0.1571
 4170SOL     OW13408   5.254   5.664   0.200 -0.0926 -0.1968 -0.0820
 4170SOL    HW113409   5.234   5.761   0.208 -1.0865 -0.3456 -0.5336
 4170SOL    HW213410   5.188   5.612   0.255  0.6024 -0.6010  0.3806
 4171SOL     OW13411   4.742   6.736   6.182  0.8180  0.3375  0.0382
 4171SOL    HW113412   4.734   6.810   6.115  0.4235  0.3738  0.1255
 4171SOL    HW213413   4.720   6.771   6.273  0.2009  0.0100  0.0166
 4172SOL     OW13414   5.038   0.108   3.467 -0.2034  0.2307 -0.6649
 4172SOL    HW113415   4.938   0.100   3.467 -0.1270 -0.9395 -0.1679
 4172SOL    HW213416   5.065   0.183   3.407 -1.3088 -0.4989 -2.1476
 4173SOL     OW13417   6.974   6.366   2.247  0.0926  0.1971  0.6240
 4173SOL    HW113418   6.882   6.350   2.212 -0.3539  0.8193  1.4830
 4173SOL    HW213419   6.994   6.300   2.321  1.1534 -1.3294 -0.9403
 4174SOL     OW13420   3.821   6.816   0.871  0.0347  0.2723  0.2969
 4174SOL    HW113421   3.793   6.786   0.962 -3.3585 -0.4534 -0.8540
 4174SOL    HW213422   3.842   6.914   0.874 -4.4386  1.4387  1.1989
 4175SOL     OW13423   2.581   6.348   5.210  0.2722  0.7487 -0.0690
 4175SOL    HW113424   2.493   6.368   5.167 -0.1645 -0.7415  0.0540
 4175SOL    HW213425   2.566   6.296   5.294  1.2763  0.0118 -0.3225
 4176SOL     OW13426   3.832   6.387   3.215  0.2176 -0.0586  0.1319
 4176SOL    HW113427   3.891   6.309   3.194 -0.0319 -0.1556 -0.2141
 4176SOL    HW213428   3.775   6.364   3.294  0.7470  0.0930  0.5648
 4177SOL     OW13429   2.039   1.876   4.915  0.0274 -0.3296 -0.7366
 4177SOL    HW113430   2.001   1.948   4.857  1.2777  0.6715 -0.3517
 4177SOL    HW213431   2.048   1.909   5.009  0.4357 -1.0541 -0.5082
 4178SOL     OW13432   4.627   6.859   0.360 -0.2882  0.3020  0.0506
 4178SOL    HW113433   4.606   6.779   0.303 -1.4345  0.1855  0.6100
 4178SOL    HW213434   4.659   6.933   0.302  0.5802 -0.4805 -0.5050
 4179SOL     OW13435   1.401   6.114   1.417 -0.2498  0.1775  0.4009
 4179SOL    HW113436   1.461   6.034   1.426 -1.0550 -0.3145  1.7540
 4179SOL    HW213437   1.307   6.087   1.438 -0.7560  1.2157 -0.4259
 4180SOL     OW13438   3.248   4.366   0.913  0.4030  0.3918 -0.0357
 4180SOL    HW113439   3.219   4.289   0.857  0.1546 -1.6184  2.6967
 4180SOL    HW213440   3.169   4.405   0.961  0.9715  0.1568  1.1394
 4181SOL     OW13441   6.664   2.512   1.119  0.2262 -0.3364  0.1745
 4181SOL    HW113442   6.595   2.441   1.118 -1.3906  1.0024  3.3945
 4181SOL    HW213443   6.619   2.602   1.115  1.9147  0.5541  0.3192
 4182SOL     OW13444   5.468   0.963   5.886  0.0416 -0.0758 -0.0636
 4182SOL    HW113445   5.506   1.031   5.950  1.4669 -0.4817 -0.4340
 4182SOL    HW213446   5.450   0.878   5.936 -0.2626  0.0766  0.0900
 4183SOL     OW13447   1.057   2.856   3.723 -0.0182 -0.7073  0.2769
 4183SOL    HW113448   0.992   2.806   3.666  1.0228 -0.7594 -0.9170
 4183SOL    HW213449   1.009   2.925   3.776 -1.0658 -0.8259 -0.4845
 4184SOL     OW13450   4.123   3.569   6.942  0.0143  0.3108 -0.1361
 4184SOL    HW113451   4.124   3.513   7.024 -1.5475  0.7207  0.2106
 4184SOL    HW213452   4.109   3.665   6.967  1.0670  0.6463 -0.8014
 4185SOL     OW13453   0.557   2.654   1.293  0.4094 -0.3615  0.0997
 4185SOL    HW113454   0.597   2.607   1.372  1.7621  1.9835  0.9005
 4185SOL    HW213455   0.457   2.658   1.304  0.6177  0.5901  2.1394
 4186SOL     OW13456   2.523   1.826   3.946  0.0535  0.3815 -0.3600
 4186SOL    HW113457   2.537   1.893   4.019 -2.0168  0.0406  0.4192
 4186SOL    HW213458   2.571   1.741   3.968  2.7920  1.5438 -1.4017
 4187SOL     OW13459   4.791   5.220   5.398  0.0013 -0.4970  0.2177
 4187SOL    HW113460   4.876   5.212   5.345 -0.0140 -0.5541  0.2013
 4187SOL    HW213461   4.723   5.156   5.362  0.1729 -0.9301  0.6566
 4188SOL     OW13462   3.214   1.443   2.553 -0.2791 -0.3037 -0.4134
 4188SOL    HW113463   3.309   1.438   2.582  0.2282  1.6900 -1.5346
 4188SOL    HW213464   3.168   1.518   2.602 -0.2340  1.1005 -2.3825
 4189SOL     OW13465   1.939   1.698   3.172 -0.4063  0.4296  0.1746
 4189SOL    HW113466   1.956   1.795   3.159  0.2892  0.4119  0.9246
 4189SOL    HW213467   1.871   1.685   3.244 -1.7603  0.3990 -1.0465
 4190SOL     OW13468   0.199   3.954   3.053 -0.1095  0.2681  0.0815
 4190SOL    HW113469   0.178   4.018   2.980 -2.7259  0.2108  0.6809
 4190SOL    HW213470   0.263   3.997   3.117 -1.5778  2.2308  0.3295
 4191SOL     OW13471   4.218   6.601   5.687  0.6465  0.2605  0.6931
 4191SOL    HW113472   4.208   6.525   5.623 -1.3495  0.9813  0.0736
 4191SOL    HW213473   4.149   6.594   5.759  2.2999 -0.0526  2.3152
 4192SOL     OW13474   2.835   0.279   1.639  0.4965  0.0314  0.3133
 4192SOL    HW113475   2.921   0.283   1.587  0.0346  0.4164 -0.4308
 4192SOL    HW213476   2.827   0.189   1.683  1.2835 -0.0060  0.4138
 4193SOL     OW13477   1.255   2.740   3.550 -0.2069  0.2640  0.4261
 4193SOL    HW113478   1.291   2.831   3.529 -3.0836  0.9417 -2.1841
 4193SOL    HW213479   1.203   2.743   3.635  1.6300  0.4174  1.5994
 4194SOL     OW13480   4.824   6.147   4.756  0.5676  0.3619 -0.2317
 4194SOL    HW113481   4.779   6.233   4.780 -0.3383 -0.3389  0.6640
 4194SOL    HW213482   4.862   6.154   4.664  1.4684  2.0818  0.2224
 4195SOL     OW13483   5.521   6.648   5.293  0.8998  0.3735 -1.2996
 4195SOL    HW113484   5.436   6.692   5.322 -1.3404 -2.7261 -2.6225
 4195SOL    HW213485   5.583   6.641   5.371 -1.1352  0.4020  0.4132
 4196SOL     OW13486   5.963   4.079   4.011  0.2317 -0.1641  0.3370
 4196SOL    HW113487   6.033   4.008   4.000 -0.8314 -1.0685 -0.9793
 4196SOL    HW213488   5.901   4.052   4.085  0.3957 -0.1165  0.4924
 4197SOL     OW13489   4.036   6.026   0.146  0.0493 -0.3356 -0.1075
 4197SOL    HW113490   4.014   5.950   0.085  1.1652 -2.8932  2.4657
 4197SOL    HW213491   3.954   6.052   0.198 -0.4967  0.7639 -1.4470
 4198SOL     OW13492   5.653   4.463   0.579 -0.3235 -0.1089 -0.4956
 4198SOL    HW113493   5.681   4.506   0.665  2.0632  1.3897 -1.9134
 4198SOL    HW213494   5.582   4.518   0.536  1.1109  1.2879 -1.1971
 4199SOL     OW13495   2.632   4.738   1.836 -0.3883  0.1979 -0.1198
 4199SOL    HW113496   2.668   4.831   1.844 -1.1985  0.4909  0.2397
 4199SOL    HW213497   2.689   4.676   1.890  0.7441  0.2999 -1.1382
 4200SOL     OW13498   0.543   1.569   4.868  0.4760  0.1355  0.3452
 4200SOL    HW113499   0.634   1.535   4.891  0.1399 -1.9004 -1.0639
 4200SOL    HW213500   0.474   1.499   4.889 -0.4063  0.3873 -1.4490
 4201SOL     OW13501   3.198   3.948   0.056 -0.0777  0.4904  1.1706
 4201SOL    HW113502   3.170   3.968   0.150  1.6995  0.5975  1.7054
 4201SOL    HW213503   3.196   3.849   0.042  2.0170  0.2625  2.1443
 4202SOL     OW13504   0.233   2.673   2.755 -1.0010 -0.2015  0.3886
 4202SOL    HW113505   0.256   2.770   2.754  1.2767 -0.7009 -0.3556
 4202SOL    HW213506   0.133   2.663   2.750 -1.2404  2.0626 -1.0231
 4203SOL     OW13507   1.851   5.042   1.455 -0.0601 -0.4731  0.2223
 4203SOL    HW113508   1.784   4.968   1.449  0.6865 -1.1322 -0.1748
 4203SOL    HW213509   1.898   5.037   1.543 -0.7336  0.1859  0.6376
 4204SOL     OW13510   4.973   5.225   5.888 -0.0645  0.1743  0.0374
 4204SOL    HW113511   5.003   5.171   5.809  1.2347 -0.5197  0.9619
 4204SOL    HW213512   4.910   5.297   5.858 -1.2526 -1.3584 -1.3409
 4205SOL     OW13513   1.038   5.636   5.492  0.1543 -0.2806 -0.5115
 4205SOL    HW113514   1.096   5.660   5.414  0.1689 -1.8635 -1.0320
 4205SOL    HW213515   0.990   5.550   5.473 -1.4391  0.3588  0.4057
 4206SOL     OW13516   2.342   3.107   5.444  0.5722 -0.4962 -0.5143
 4206SOL    HW113517   2.381   3.092   5.353 -0.0793 -0.7610 -0.7603
 4206SOL    HW213518   2.247   3.138   5.434  0.1576 -1.5344  0.0864
 4207SOL     OW13519   5.402   6.412   2.343  0.1151 -0.3331  1.0658
 4207SOL    HW113520   5.322   6.472   2.347  0.3081 -0.1159  1.9778
 4207SOL    HW213521   5.376   6.324   2.303  0.0793  0.7068 -1.3657
 4208SOL     OW13522   4.615   5.713   4.404 -0.1427  0.7916 -0.0991
 4208SOL    HW113523   4.577   5.795   4.447 -0.3775 -0.0275  1.3458
 4208SOL    HW213524   4.597   5.634   4.463 -0.2855 -0.3695 -1.6498
 4209SOL     OW13525   1.683   5.111   1.001 -0.0332  0.2636 -0.0976
 4209SOL    HW113526   1.775   5.131   1.035 -0.1804  1.5359 -0.4188
 4209SOL    HW213527   1.685   5.106   0.901  0.2140 -2.5512 -0.0457
 4210SOL     OW13528   4.103   0.440   1.191 -0.3170 -0.0095 -0.3835
 4210SOL    HW113529   4.053   0.512   1.142  0.9654  1.5332  0.4844
 4210SOL    HW213530   4.079   0.443   1.288 -1.6672 -2.0368 -0.5864
 4211SOL     OW13531   4.122   6.083   3.286  0.2717  0.1629 -0.1334
 4211SOL    HW113532   4.101   6.124   3.375 -0.2329 -0.7192  0.1569
 4211SOL    HW213533   4.115   6.154   3.215  3.1711  1.5023  0.7819
 4212SOL     OW13534   0.027   6.357   2.959  0.1552  0.1685  0.2897
 4212SOL    HW113535   0.091   6.415   2.910  0.2675  1.7476  2.1910
 4212SOL    HW213536   0.053   6.261   2.947  0.7523  0.5470 -1.8178
 4213SOL     OW13537   4.926   0.673   2.406  0.2646  0.2203  0.6813
 4213SOL    HW113538   5.000   0.705   2.347  1.5871  0.2418  2.2503
 4213SOL    HW213539   4.901   0.744   2.471 -0.2942 -0.2044  0.9444
 4214SOL     OW13540   3.626   4.175   4.705 -0.4782  0.1908  0.1508
 4214SOL    HW113541   3.614   4.264   4.661  1.8930  1.0110  1.0361
 4214SOL    HW213542   3.601   4.182   4.801 -1.3645 -0.4393 -0.0153
 4215SOL     OW13543   6.081   5.332   3.238 -0.2364 -0.0036 -0.2507
 4215SOL    HW113544   6.131   5.418   3.253 -1.5706  0.8800 -0.6626
 4215SOL    HW213545   5.992   5.353   3.197 -1.2662 -1.4711  1.1592
 4216SOL     OW13546   2.348   2.643   1.333  0.5405  0.5387  0.0619
 4216SOL    HW113547   2.378   2.548   1.344 -1.9990 -0.2098  1.4988
 4216SOL    HW213548   2.420   2.696   1.290  2.1778 -1.9570 -0.4954
 4217SOL     OW13549   6.766   0.187   4.451 -0.4598 -0.0366  0.5519
 4217SOL    HW113550   6.752   0.273   4.501  1.0922  1.0819 -0.8464
 4217SOL    HW213551   6.858   0.153   4.470 -0.5783 -0.6571  0.0133
 4218SOL     OW13552   1.835   0.008   1.386  0.8868  0.5882 -0.5434
 4218SOL    HW113553   1.797  -0.081   1.410  0.1313  0.8244 -0.8272
 4218SOL    HW213554   1.794   0.078   1.444  0.8912  0.8450 -0.8449
 4219SOL     OW13555   2.215   3.623   0.039  0.1274 -0.2681 -0.1934
 4219SOL    HW113556   2.257   3.540   0.004  1.1506 -0.8137  2.1570
 4219SOL    HW213557   2.269   3.658   0.115 -0.7009  2.1563 -0.6323
 4220SOL     OW13558   6.530   5.487   1.145  0.1021 -0.0792 -0.3259
 4220SOL    HW113559   6.490   5.453   1.060 -0.8759  1.6258 -0.5880
 4220SOL    HW213560   6.486   5.573   1.171  0.6709 -0.3344  1.6892
 4221SOL     OW13561   3.998   4.504   0.838 -0.0129 -0.1879  0.3192
 4221SOL    HW113562   3.908   4.506   0.883 -0.9420  1.9621 -1.4485
 4221SOL    HW213563   4.000   4.572   0.766  3.3690  0.4095  0.8305
 4222SOL     OW13564   0.627   2.780   4.901  0.0762 -0.4260 -0.1777
 4222SOL    HW113565   0.556   2.730   4.949  1.0679 -1.5295  0.2067
 4222SOL    HW213566   0.633   2.873   4.935 -0.8728 -0.4642  0.0921
 4223SOL     OW13567   2.193   2.129   0.425 -0.3311  0.2601 -0.1287
 4223SOL    HW113568   2.149   2.046   0.393 -0.4684  0.7170 -1.1752
 4223SOL    HW213569   2.199   2.195   0.350 -0.5279  1.3274  0.7605
 4224SOL     OW13570   3.090   1.112   1.150 -0.1900 -0.4626 -0.2916
 4224SOL    HW113571   3.054   1.021   1.174  0.5431 -0.7720 -0.3317
 4224SOL    HW213572   3.189   1.110   1.154 -0.0125 -0.4532 -3.1281
 4225SOL     OW13573   2.622   5.873   4.259 -0.2685 -0.2177  0.0187
 4225SOL    HW113574   2.605   5.833   4.349 -0.3221 -0.4607 -0.0993
 4225SOL    HW213575   2.627   5.973   4.268  0.5114 -0.2816  0.4179
 4226SOL     OW13576   0.245   1.078   0.607  0.1657 -0.0518 -0.1766
 4226SOL    HW113577   0.167   1.120   0.653 -1.7194 -0.1728 -2.9903
 4226SOL    HW213578   0.330   1.113   0.646 -1.2628  4.0054 -0.2210
 4227SOL     OW13579   4.926   5.831   6.615  0.5464 -0.4329  0.4236
 4227SOL    HW113580   4.856   5.761   6.626  1.3165 -1.0075  2.0649
 4227SOL    HW213581   5.009   5.803   6.664  1.0664  1.3478  0.6352
 4228SOL     OW13582   6.354   6.265   1.943  0.5539  0.2669  0.0150
 4228SOL    HW113583   6.257   6.254   1.922  0.7030 -0.6133 -0.2740
 4228SOL    HW213584   6.402   6.296   1.861  0.8120 -1.2060 -0.4305
 4229SOL     OW13585   5.685   0.221   5.431 -0.0365  0.1444 -0.3200
 4229SOL    HW113586   5.723   0.309   5.405 -0.2580  0.8062  1.4389
 4229SOL    HW213587   5.633   0.231   5.516 -1.6523 -1.3158 -1.0695
 4230SOL     OW13588   2.658   0.140   6.623  0.2657 -0.2012  0.1514
 4230SOL    HW113589   2.753   0.139   6.655  0.2063 -1.1812  0.3168
 4230SOL    HW213590   2.615   0.052   6.642 -0.5132  0.0394 -0.4343
 4231SOL     OW13591   0.758   3.420   6.815 -0.0243  0.1740 -0.0992
 4231SOL    HW113592   0.711   3.500   6.777  0.8753  0.9703  0.4388
 4231SOL    HW213593   0.759   3.347   6.746 -1.2075  0.4633 -0.4534
 4232SOL     OW13594   5.167   1.010   6.384  0.8145 -0.1663 -0.4014
 4232SOL    HW113595   5.235   1.027   6.456 -3.0947  2.4564  3.1438
 4232SOL    HW213596   5.117   0.926   6.406 -0.8742  1.0200  0.5772
 4233SOL     OW13597   3.863   4.868   2.590  0.0743 -0.0157  0.3804
 4233SOL    HW113598   3.903   4.777   2.589  0.5321  0.1852  0.3929
 4233SOL    HW213599   3.804   4.879   2.509  1.0392  0.1277 -0.3228
 4234SOL     OW13600   1.415   0.213   6.822 -0.2782 -0.4637  0.0616
 4234SOL    HW113601   1.353   0.244   6.751 -1.4680 -0.9915  0.8439
 4234SOL    HW213602   1.476   0.288   6.848 -2.1073  0.8227  0.8787
 4235SOL     OW13603   3.331   0.236   3.552  0.1408 -0.4923 -0.1304
 4235SOL    HW113604   3.330   0.301   3.476  0.1368 -1.4282 -0.9439
 4235SOL    HW213605   3.418   0.186   3.552 -1.2877 -3.2136 -1.9083
 4236SOL     OW13606   1.807   5.575   2.359  0.3406  0.0056 -0.5628
 4236SOL    HW113607   1.809   5.667   2.398 -0.6283 -0.7273  1.3939
 4236SOL    HW213608   1.844   5.576   2.266  3.6804  1.7288  0.6306
 4237SOL     OW13609   5.283   0.043   0.734 -0.0077 -0.1031  0.3009
 4237SOL    HW113610   5.224   0.034   0.654  2.6517 -0.3303 -1.7812
 4237SOL    HW213611   5.279   0.137   0.769  0.2621  0.5549 -1.3658
 4238SOL     OW13612   0.777   2.710   0.476  0.4240 -0.3865 -0.5898
 4238SOL    HW113613   0.800   2.807   0.471 -1.2224  0.1433  0.9611
 4238SOL    HW213614   0.726   2.683   0.394  1.5601 -0.1717 -1.3887
 4239SOL     OW13615   4.868   3.904   3.289 -0.1532 -0.4536  0.1777
 4239SOL    HW113616   4.844   3.930   3.196  0.2834  0.0032  0.1877
 4239SOL    HW213617   4.896   3.808   3.291  0.9601 -0.1647 -0.3819
 4240SOL     OW13618   1.978   6.627   1.112  0.2877 -0.5356  0.7993
 4240SOL    HW113619   1.932   6.650   1.026  1.7701 -0.1580  0.0858
 4240SOL    HW213620   2.077   6.638   1.102  0.5599 -1.2664  2.3205
 4241SOL     OW13621   1.775   2.047   6.144  0.3509  0.3536 -0.0890
 4241SOL    HW113622   1.773   2.034   6.045 -0.4856 -1.5656  0.1380
 4241SOL    HW213623   1.788   2.144   6.164 -0.4499  0.9303 -2.0736
 4242SOL     OW13624   2.668   2.358   5.006  0.6705 -0.0154 -0.2916
 4242SOL    HW113625   2.650   2.448   5.046 -1.4508  0.1405 -1.4010
 4242SOL    HW213626   2.765   2.336   5.014  0.9769  1.7041  1.3293
 4243SOL     OW13627   4.548   6.537   1.869 -0.2470  0.0465 -0.0874
 4243SOL    HW113628   4.532   6.479   1.789 -2.7942  1.5871 -0.8186
 4243SOL    HW213629   4.577   6.628   1.838 -3.0991  1.2533  0.5019
 4244SOL     OW13630   2.363   5.541   1.624 -0.3685  0.4250 -0.2918
 4244SOL    HW113631   2.375   5.616   1.688  1.0526  0.5568 -0.6675
 4244SOL    HW213632   2.448   5.489   1.617 -1.5654 -1.7950  0.6272
 4245SOL     OW13633   4.385   1.548   6.599 -0.5776 -0.0675  0.0880
 4245SOL    HW113634   4.286   1.562   6.606 -0.4668  0.1498  1.6018
 4245SOL    HW213635   4.432   1.617   6.654  0.3574 -1.0972  0.6208
 4246SOL     OW13636   0.337   3.235   2.201 -0.2891 -0.4217  0.2492
 4246SOL    HW113637   0.395   3.203   2.126 -1.4387  1.1348 -1.3854
 4246SOL    HW213638   0.241   3.222   2.178 -0.7117  1.3815  0.7997
 4247SOL     OW13639   3.382   1.980   5.534  0.4495 -0.4731 -0.2727
 4247SOL    HW113640   3.415   1.890   5.508 -1.7962 -0.8208 -2.2636
 4247SOL    HW213641   3.400   2.046   5.461  1.6908  0.6465  0.9825
 4248SOL     OW13642   5.316   5.213   5.424  0.2173  0.3349 -0.3328
 4248SOL    HW113643   5.368   5.284   5.377 -0.9619  1.8223  0.5009
 4248SOL    HW213644   5.327   5.223   5.523  0.8438 -1.3177 -0.2056
 4249SOL     OW13645   6.170   5.117   6.275 -0.6832 -0.3783  0.4221
 4249SOL    HW113646   6.248   5.056   6.283  0.4731  1.2155  2.1632
 4249SOL    HW213647   6.087   5.069   6.305 -0.6728 -2.4316 -2.4378
 4250SOL     OW13648   5.770   7.007   1.081 -0.1241 -0.2015  0.0300
 4250SOL    HW113649   5.737   7.100   1.096 -0.3469 -0.4713  1.4310
 4250SOL    HW213650   5.698   6.953   1.038 -0.7227 -0.2030  0.9972
 4251SOL     OW13651   4.529   2.965   0.142  0.1301  0.6436  0.4236
 4251SOL    HW113652   4.442   2.953   0.189 -0.4685  0.3171 -0.7207
 4251SOL    HW213653   4.576   2.877   0.134 -0.7726  0.2920 -1.4240
 4252SOL     OW13654   1.837   2.830   1.338  0.3287 -0.0174  0.2641
 4252SOL    HW113655   1.917   2.790   1.381  1.4756  1.5741 -0.3097
 4252SOL    HW213656   1.837   2.807   1.240  1.8498  2.5181 -0.4146
 4253SOL     OW13657   6.255   5.399   2.224 -0.3339 -0.1588  0.0335
 4253SOL    HW113658   6.336   5.359   2.179 -0.4178  0.0519 -0.3106
 4253SOL    HW213659   6.174   5.383   2.167 -0.8594 -1.9155  1.2042
 4254SOL     OW13660   3.392   5.090   1.179  0.4747 -0.6770  0.3485
 4254SOL    HW113661   3.294   5.100   1.200  0.4759 -1.6709  0.8874
 4254SOL    HW213662   3.403   5.076   1.080 -0.0704 -1.9385  0.4422
 4255SOL     OW13663   1.197   4.928   1.364  0.2684 -0.4841  0.5195
 4255SOL    HW113664   1.207   4.867   1.443 -0.0052 -0.1713  0.8000
 4255SOL    HW213665   1.274   4.913   1.301 -0.1584 -1.6034  0.2398
 4256SOL     OW13666   1.187   0.946   3.720  0.3325 -0.1563  0.8174
 4256SOL    HW113667   1.198   1.036   3.677 -0.3761 -0.6298 -0.3869
 4256SOL    HW213668   1.090   0.922   3.724  0.5533 -1.1060  0.6504
 4257SOL     OW13669   1.679   3.307   3.021  0.1381  0.0439 -0.0557
 4257SOL    HW113670   1.633   3.253   2.950  0.3055 -0.7299  0.4084
 4257SOL    HW213671   1.746   3.368   2.979  0.6470 -0.8240 -0.5253
 4258SOL     OW13672   4.821   3.465   0.934  0.0515 -0.4740 -0.4003
 4258SOL    HW113673   4.891   3.499   0.996 -0.3930  1.4154 -0.8614
 4258SOL    HW213674   4.731   3.496   0.965 -0.6486 -2.8753  0.1970
 4259SOL     OW13675   2.956   4.503   0.079  0.0418 -0.2348 -0.3894
 4259SOL    HW113676   3.016   4.450   0.020  1.9005  0.2348  1.0048
 4259SOL    HW213677   2.867   4.457   0.087  0.1519 -0.9120 -2.5344
 4260SOL     OW13678   2.581   2.050   2.116 -0.1366  0.0412  0.1691
 4260SOL    HW113679   2.507   2.046   2.183 -2.1483  3.5658 -1.5341
 4260SOL    HW213680   2.625   2.140   2.121  1.5421 -0.6363 -1.3868
 4261SOL     OW13681   5.183   6.202   6.570 -0.3287  0.3714  0.2947
 4261SOL    HW113682   5.093   6.206   6.525  0.0713  1.7900 -0.4165
 4261SOL    HW213683   5.193   6.280   6.632 -0.5832 -1.1651  2.3765
 4262SOL     OW13684   6.984   1.429   5.532 -0.2972  0.2445 -0.0063
 4262SOL    HW113685   7.014   1.450   5.625  1.1140  0.1295 -0.4033
 4262SOL    HW213686   6.956   1.514   5.486 -1.4344  0.2428  0.6420
 4263SOL     OW13687   6.851   3.943   4.531 -0.6689 -0.3417  0.1017
 4263SOL    HW113688   6.885   3.929   4.624  0.8835  1.2217 -0.1747
 4263SOL    HW213689   6.891   4.026   4.493 -2.7786  0.1099 -1.3001
 4264SOL     OW13690   2.459   6.215   4.706  0.3744  0.4176  0.1683
 4264SOL    HW113691   2.455   6.127   4.752  0.2519  0.6444  0.5994
 4264SOL    HW213692   2.515   6.278   4.760  1.2041  0.3447 -0.5788
 4265SOL     OW13693   3.378   2.535   1.082  0.2725 -0.0298 -0.4231
 4265SOL    HW113694   3.350   2.500   1.171 -0.8069  0.1882 -0.6590
 4265SOL    HW213695   3.305   2.517   1.015 -0.2616  2.4646 -0.6034
 4266SOL     OW13696   1.874   1.644   2.503  0.4970 -0.0325  0.5777
 4266SOL    HW113697   1.832   1.702   2.573 -0.1724 -0.9172  0.9280
 4266SOL    HW213698   1.944   1.586   2.546  1.2946  0.6217  0.1978
 4267SOL     OW13699   1.212   2.544   0.154 -0.4706 -1.1497 -0.0805
 4267SOL    HW113700   1.144   2.474   0.174 -0.3015 -0.9889  1.1718
 4267SOL    HW213701   1.229   2.548   0.056 -1.2475 -2.1377 -0.2654
 4268SOL     OW13702   6.598   4.722   0.502 -0.6677 -0.1566  0.1252
 4268SOL    HW113703   6.642   4.755   0.585 -0.3738 -0.7442  0.2105
 4268SOL    HW213704   6.582   4.623   0.510 -2.2095  0.0670  0.2003
 4269SOL     OW13705   3.528   2.031   6.650 -0.0832  0.0270 -0.2315
 4269SOL    HW113706   3.602   1.973   6.618  0.7406 -0.7314  2.7500
 4269SOL    HW213707   3.486   2.078   6.572  3.2772  0.2680 -2.0770
 4270SOL     OW13708   3.223   2.434   0.753 -1.2095 -0.2213 -0.3633
 4270SOL    HW113709   3.261   2.448   0.661 -1.0064  1.2001 -0.0713
 4270SOL    HW213710   3.273   2.359   0.798 -1.1975 -0.8182 -1.3358
 4271SOL     OW13711   6.262   3.720   4.510 -0.0421 -0.2318  0.2661
 4271SOL    HW113712   6.209   3.724   4.595 -1.4513  1.5715 -0.6033
 4271SOL    HW213713   6.290   3.626   4.492 -3.1934 -1.3890  0.7140
 4272SOL     OW13714   5.339   0.955   1.099  0.0830 -0.3182  0.1387
 4272SOL    HW113715   5.239   0.951   1.088  0.2175 -1.2849 -0.8948
 4272SOL    HW213716   5.365   1.047   1.128 -1.1095 -0.0514  0.4401
 4273SOL     OW13717   0.820   2.342   1.938  0.1435 -0.2499 -0.8252
 4273SOL    HW113718   0.849   2.438   1.941 -0.9770  0.1183 -1.2286
 4273SOL    HW213719   0.896   2.283   1.967  0.5505  0.8188  0.3745
 4274SOL     OW13720   5.742   0.068   5.215  0.2298 -0.6095  0.0485
 4274SOL    HW113721   5.719   0.123   5.296  0.7531  1.9959 -1.4514
 4274SOL    HW213722   5.663   0.013   5.189 -1.0017  0.7939  0.6202
 4275SOL     OW13723   0.101   6.578   6.442 -0.7020 -0.1919  0.7221
 4275SOL    HW113724   0.162   6.651   6.474 -0.9344 -0.2551  1.3145
 4275SOL    HW213725   0.103   6.502   6.506 -1.5049 -0.1439  0.8191
 4276SOL     OW13726   3.558   0.691   5.996  0.3217 -0.6114  0.4021
 4276SOL    HW113727   3.507   0.605   6.007  0.0451 -0.5211 -0.1602
 4276SOL    HW213728   3.570   0.733   6.086 -0.4303 -0.7339  0.5693
 4277SOL     OW13729   5.710   1.782   1.273 -0.3687  0.3059 -0.3438
 4277SOL    HW113730   5.701   1.770   1.372 -1.9096 -0.6891 -0.5808
 4277SOL    HW213731   5.791   1.838   1.254  0.8324 -0.7438  1.3955
 4278SOL     OW13732   4.739   4.051   5.924  0.7041  0.2914 -0.0554
 4278SOL    HW113733   4.687   4.114   5.867  1.0546  0.4354 -0.2206
 4278SOL    HW213734   4.800   4.103   5.984 -2.0989  0.3778  2.9937
 4279SOL     OW13735   2.399   4.889   0.257  0.0215 -0.1505 -0.1403
 4279SOL    HW113736   2.354   4.816   0.310 -0.9541 -0.5029 -1.4093
 4279SOL    HW213737   2.495   4.866   0.244  0.6258  0.5041  2.4393
 4280SOL     OW13738   2.501   5.932   3.237 -0.8395 -0.3471  0.1529
 4280SOL    HW113739   2.470   6.024   3.217 -0.9047 -0.6783 -1.3472
 4280SOL    HW213740   2.442   5.866   3.191 -0.8882 -1.1618  1.3284
 4281SOL     OW13741   5.317   3.233   1.394 -0.0801 -0.0361 -0.3504
 4281SOL    HW113742   5.342   3.313   1.449  2.4175 -0.9981  0.0294
 4281SOL    HW213743   5.226   3.201   1.423  0.0211  1.0533  1.3707
 4282SOL     OW13744   6.189   6.548   5.737  0.1729 -0.5298  0.0170
 4282SOL    HW113745   6.091   6.535   5.756  0.0090  1.9152  1.1202
 4282SOL    HW213746   6.212   6.501   5.651 -1.8043 -1.6705  0.0415
 4283SOL     OW13747   6.166   0.139   3.868  0.1561 -0.1671  0.0303
 4283SOL    HW113748   6.161   0.196   3.786  2.7515 -0.8088 -0.6772
 4283SOL    HW213749   6.226   0.182   3.935 -0.1826 -0.7037  0.6919
 4284SOL     OW13750   3.394   5.075   3.170 -0.2026  0.1369 -0.1720
 4284SOL    HW113751   3.459   5.014   3.124  1.3542  0.8557  0.9744
 4284SOL    HW213752   3.443   5.131   3.237 -2.1194  0.3338  1.1289
 4285SOL     OW13753   4.080   1.162   6.553  0.0499 -0.4347 -0.3350
 4285SOL    HW113754   4.019   1.234   6.520 -0.6725 -0.9123 -0.0773
 4285SOL    HW213755   4.076   1.084   6.490  0.4113 -0.4547 -0.3303
 4286SOL     OW13756   4.965   2.591   5.702 -0.4373  0.5219  0.0684
 4286SOL    HW113757   4.955   2.536   5.785 -0.3879  0.2928 -0.0770
 4286SOL    HW213758   5.062   2.596   5.677 -0.4933  0.2065 -0.2305
 4287SOL     OW13759   6.351   1.106   0.079 -0.1860  0.8973 -0.5666
 4287SOL    HW113760   6.405   1.022   0.086 -0.1497  0.8812 -1.0274
 4287SOL    HW213761   6.388   1.175   0.141  1.0496  1.2548 -1.6695
 4288SOL     OW13762   3.004   4.915   6.072  0.4775  0.4950  0.2120
 4288SOL    HW113763   3.031   4.836   6.127 -1.5630 -1.5566 -1.5190
 4288SOL    HW213764   2.922   4.957   6.112  0.7297  0.8648  0.3458
 4289SOL     OW13765   4.891   5.894   1.373 -0.1403  0.0353 -0.3695
 4289SOL    HW113766   4.905   5.906   1.471  0.9049  0.4811 -0.5537
 4289SOL    HW213767   4.898   5.983   1.327  1.8742 -0.4572 -1.1157
 4290SOL     OW13768   5.817   5.370   4.026  0.3333 -0.2177 -0.1786
 4290SOL    HW113769   5.847   5.437   4.093  1.8550 -1.7218  0.7261
 4290SOL    HW213770   5.717   5.368   4.024  0.2324  2.1947 -0.4322
 4291SOL     OW13771   4.415   0.891   4.550 -0.2236  0.7205  0.1162
 4291SOL    HW113772   4.464   0.887   4.464  0.3186 -1.1033  0.4611
 4291SOL    HW213773   4.323   0.928   4.535 -0.3419 -0.1049 -1.3632
 4292SOL     OW13774   6.300   6.057   5.919 -0.0328 -0.2753 -0.5980
 4292SOL    HW113775   6.263   5.964   5.924 -0.4007 -0.0800  0.4808
 4292SOL    HW213776   6.335   6.084   6.009 -2.2646  1.5754 -0.2052
 4293SOL     OW13777   1.919   1.238   2.301  0.5568  0.1898  0.9136
 4293SOL    HW113778   1.887   1.332   2.287  2.5968  0.7496 -0.3567
 4293SOL    HW213779   1.865   1.195   2.374 -2.0203  1.5136 -0.0942
 4294SOL     OW13780   2.904   1.629   4.068  0.6277 -0.2762 -0.2548
 4294SOL    HW113781   2.830   1.564   4.047  2.2950 -2.6550  0.7811
 4294SOL    HW213782   2.902   1.651   4.165  1.9798 -1.3849  0.0593
 4295SOL     OW13783   5.472   4.206   1.349  0.4882  0.2351 -0.1155
 4295SOL    HW113784   5.461   4.300   1.315  0.6807  0.0756 -0.6298
 4295SOL    HW213785   5.511   4.149   1.277 -0.0205 -0.3372  0.0525
 4296SOL     OW13786   4.319   2.214   6.198  0.0706 -0.3137  0.1666
 4296SOL    HW113787   4.307   2.236   6.101  0.1843  1.0222  0.4290
 4296SOL    HW213788   4.231   2.224   6.245 -0.1547 -1.7174  0.0809
 4297SOL     OW13789   4.812   0.809   7.002 -0.2383  0.5396  0.0747
 4297SOL    HW113790   4.894   0.819   7.059 -0.0047  0.0179 -0.1669
 4297SOL    HW213791   4.836   0.828   6.906  0.0653 -1.5710 -0.2999
 4298SOL     OW13792   4.720   4.696   4.562  0.1308 -0.7296  0.4752
 4298SOL    HW113793   4.672   4.616   4.527 -1.6524  0.7490 -0.7187
 4298SOL    HW213794   4.789   4.725   4.496  1.4259 -1.7575  1.3272
 4299SOL     OW13795   2.308   0.995   2.558 -0.5692  0.0917 -0.0651
 4299SOL    HW113796   2.373   1.008   2.483 -1.7080  1.2921 -0.8768
 4299SOL    HW213797   2.283   1.083   2.597 -2.0864 -0.2840 -0.1085
 4300SOL     OW13798   6.606   1.618   0.010 -0.4305 -0.3916 -0.6142
 4300SOL    HW113799   6.641   1.552   0.075  0.6224 -1.1706 -1.9228
 4300SOL    HW213800   6.658   1.703   0.017 -0.2186 -0.5271 -0.5407
 4301SOL     OW13801   3.811   3.539   2.786 -0.1152 -0.1760 -0.5252
 4301SOL    HW113802   3.805   3.474   2.861 -0.2928 -0.5467 -0.8593
 4301SOL    HW213803   3.907   3.564   2.771  0.0242 -0.8665 -0.8247
 4302SOL     OW13804   4.078   4.581   0.379 -0.8038  0.1017 -0.1068
 4302SOL    HW113805   4.032   4.492   0.384 -0.5567 -0.0362 -0.3167
 4302SOL    HW213806   4.137   4.584   0.299 -0.2967  0.2125  0.2687
 4303SOL     OW13807   6.364   5.538   3.814 -0.7254  0.2118  0.5860
 4303SOL    HW113808   6.304   5.616   3.799 -0.7196  0.0304 -0.5243
 4303SOL    HW213809   6.459   5.569   3.817 -0.6498  0.1865 -0.7117
 4304SOL     OW13810   3.608   3.076   5.763  0.1788  0.0301 -0.2217
 4304SOL    HW113811   3.535   3.126   5.716 -0.4358 -0.0471  0.6360
 4304SOL    HW213812   3.635   2.997   5.707 -0.3777  0.0683 -0.5548
 4305SOL     OW13813   2.223   0.895   3.381 -0.7549 -0.1376  0.0537
 4305SOL    HW113814   2.134   0.924   3.347  0.2035  1.7760 -1.0204
 4305SOL    HW213815   2.249   0.808   3.338 -1.4667  0.0470 -0.7698
 4306SOL     OW13816   3.567   0.774   0.392  0.2816 -0.0273  0.2566
 4306SOL    HW113817   3.628   0.794   0.315 -1.0644  1.2170 -0.5150
 4306SOL    HW213818   3.553   0.857   0.446 -2.0147  0.1539 -0.5330
 4307SOL     OW13819   2.203   5.660   3.298 -0.2196  0.2963 -0.4441
 4307SOL    HW113820   2.283   5.601   3.297  0.4986  1.2545 -0.9145
 4307SOL    HW213821   2.156   5.651   3.385  1.6965  1.3973  0.7828
 4308SOL     OW13822   1.873   0.704   5.604 -0.0433 -0.6689 -0.5063
 4308SOL    HW113823   1.782   0.742   5.623 -0.9048 -2.8061 -0.0430
 4308SOL    HW213824   1.923   0.693   5.690 -0.2646 -1.6185 -0.4866
 4309SOL     OW13825   5.547   2.966   5.604  0.0473 -0.0525 -0.0470
 4309SOL    HW113826   5.546   3.054   5.651  2.3917  0.3320 -0.5971
 4309SOL    HW213827   5.613   2.905   5.649  2.0493  0.1775 -2.4268
 4310SOL     OW13828   4.950   1.285   1.441  0.0662  0.1839 -0.8508
 4310SOL    HW113829   4.911   1.376   1.445  1.0622  0.7029 -1.9755
 4310SOL    HW213830   4.887   1.223   1.393 -0.4408  0.3675 -0.4285
 4311SOL     OW13831   4.246   2.293   5.953 -0.3640  0.3429 -0.2583
 4311SOL    HW113832   4.327   2.342   5.920  1.0657 -1.2011  0.8049
 4311SOL    HW213833   4.206   2.242   5.877  0.9048 -0.4897 -0.4157
 4312SOL     OW13834   4.396   3.204   1.359 -0.1130 -0.5758  0.3332
 4312SOL    HW113835   4.363   3.135   1.294  1.0312  1.7269 -2.9213
 4312SOL    HW213836   4.477   3.169   1.406  0.8631 -1.2973 -1.7593
 4313SOL     OW13837   0.859   0.494   4.935  0.5590  0.3133  0.0828
 4313SOL    HW113838   0.848   0.396   4.916  0.0604  0.1853  0.9788
 4313SOL    HW213839   0.925   0.533   4.871 -1.9323  0.2081 -2.7651
 4314SOL     OW13840   3.673   3.815   1.352  0.8292  0.2326 -0.4032
 4314SOL    HW113841   3.605   3.880   1.384  0.6026  0.5463 -1.4715
 4314SOL    HW213842   3.689   3.745   1.422  0.7962  1.2065  0.5986
 4315SOL     OW13843   1.158   0.462   2.835  0.0732 -0.1959 -0.4328
 4315SOL    HW113844   1.132   0.380   2.784  1.0279  0.1166 -1.4533
 4315SOL    HW213845   1.221   0.436   2.909  0.1455 -0.4161 -0.5698
 4316SOL     OW13846   5.519   0.626   3.396 -0.4566  0.3746  0.7582
 4316SOL    HW113847   5.602   0.574   3.411  1.0858  1.6879 -2.3659
 4316SOL    HW213848   5.540   0.724   3.397 -1.9881  0.7510 -0.0081
 4317SOL     OW13849   4.214   0.450   6.933 -0.1889 -0.2252 -0.5634
 4317SOL    HW113850   4.219   0.519   6.861  0.6704  0.5780  0.2340
 4317SOL    HW213851   4.288   0.466   6.999 -0.0895 -1.8036 -0.2607
 4318SOL     OW13852   6.406   0.295   1.317  0.5596 -0.0725  0.1767
 4318SOL    HW113853   6.431   0.296   1.413  2.7005  1.3498 -0.2982
 4318SOL    HW213854   6.307   0.304   1.307  0.2858 -0.4681  2.2204
 4319SOL     OW13855   0.957   5.172   5.473 -0.6378 -0.3488  0.1938
 4319SOL    HW113856   0.990   5.095   5.419 -0.9330  0.1577 -0.7209
 4319SOL    HW213857   1.030   5.204   5.533 -0.5083 -1.3253  0.5902
 4320SOL     OW13858   5.655   4.756   6.675 -0.6103  0.1214  0.2506
 4320SOL    HW113859   5.560   4.748   6.706 -0.9573 -0.0874 -0.8055
 4320SOL    HW213860   5.674   4.850   6.648 -0.1554  0.4134  1.5406
 4321SOL     OW13861   5.452   6.351   3.500  0.5627 -0.3386 -0.1448
 4321SOL    HW113862   5.429   6.371   3.405  1.7214 -3.0576 -1.1179
 4321SOL    HW213863   5.372   6.311   3.546  0.1979  0.3495 -0.1765
 4322SOL     OW13864   4.010   4.745   1.304 -0.3573 -0.5580  0.2665
 4322SOL    HW113865   3.985   4.793   1.388 -0.7043  0.3228 -0.3356
 4322SOL    HW213866   3.930   4.698   1.267 -0.8011  0.9661 -0.8059
 4323SOL     OW13867   2.114   1.736   2.714  0.1430 -0.3751 -0.0735
 4323SOL    HW113868   2.106   1.688   2.627  1.1472  0.1101 -0.4516
 4323SOL    HW213869   2.121   1.835   2.697  1.0369 -0.3277  0.5062
 4324SOL     OW13870   6.646   1.516   5.757  0.2520  0.2726  0.1097
 4324SOL    HW113871   6.656   1.611   5.786 -1.5650  0.4674  0.1813
 4324SOL    HW213872   6.649   1.456   5.837 -0.8148  0.4795  0.3243
 4325SOL     OW13873   2.378   1.832   5.703 -0.5477 -0.5074  0.0181
 4325SOL    HW113874   2.399   1.858   5.797 -0.6580 -1.0474  0.1953
 4325SOL    HW213875   2.352   1.736   5.700 -0.2086 -0.5866 -0.6144
 4326SOL     OW13876   1.285   0.392   0.714 -0.5114  0.3706  0.2789
 4326SOL    HW113877   1.280   0.484   0.676 -0.3734  0.2031 -0.1502
 4326SOL    HW213878   1.283   0.397   0.814  0.5224  0.9034  0.2789
 4327SOL     OW13879   4.687   1.724   4.129 -0.6934 -0.1391  0.4054
 4327SOL    HW113880   4.713   1.702   4.034 -0.6599  0.8385  0.1764
 4327SOL    HW213881   4.637   1.647   4.168 -0.0668 -0.8601 -0.1536
 4328SOL     OW13882   4.357   5.491   4.114 -0.0085 -0.0821 -0.6585
 4328SOL    HW113883   4.355   5.429   4.036 -1.1153 -0.6204 -0.2253
 4328SOL    HW213884   4.282   5.557   4.107  0.0106  0.0004 -0.1653
 4329SOL     OW13885   0.773   5.620   5.159  0.5177 -0.1116  0.7342
 4329SOL    HW113886   0.792   5.522   5.151  0.6379 -0.0071 -0.3366
 4329SOL    HW213887   0.817   5.656   5.241  1.8620 -0.6288  0.2669
 4330SOL     OW13888   0.956   1.718   4.138 -0.5761  0.1299  0.0021
 4330SOL    HW113889   0.994   1.632   4.103 -0.3580  0.3453 -0.2944
 4330SOL    HW213890   0.934   1.778   4.062 -2.8976 -0.5473  0.0768
 4331SOL     OW13891   0.300   6.769   2.644 -0.1613 -0.3729 -0.6889
 4331SOL    HW113892   0.399   6.775   2.655  0.1655  1.5852 -3.4903
 4331SOL    HW213893   0.255   6.816   2.720  1.0210 -1.0505  0.4740
 4332SOL     OW13894   2.544   2.691   5.994  0.3046  0.8545 -0.8642
 4332SOL    HW113895   2.474   2.760   5.981  0.8185  1.3795 -0.8935
 4332SOL    HW213896   2.608   2.721   6.065 -1.7373 -1.3892  2.2192
 4333SOL     OW13897   2.227   6.746   1.342 -0.5020 -0.0725  0.0365
 4333SOL    HW113898   2.148   6.803   1.365 -0.8259 -0.3405 -0.3905
 4333SOL    HW213899   2.224   6.662   1.395 -0.7723 -0.2999 -0.3350
 4334SOL     OW13900   5.457   4.305   2.714  0.0584 -0.2791 -0.5418
 4334SOL    HW113901   5.402   4.366   2.771  1.8439  0.2434  0.7100
 4334SOL    HW213902   5.427   4.210   2.727  0.6057 -0.2040  1.5768
 4335SOL     OW13903   4.149   5.397   2.869 -0.0089 -0.1546 -0.0798
 4335SOL    HW113904   4.193   5.316   2.909  0.6693  0.3368  0.1913
 4335SOL    HW213905   4.056   5.374   2.842  0.1754 -1.0274 -0.0081
 4336SOL     OW13906   5.330   4.847   6.108 -0.0760 -0.2851 -0.2989
 4336SOL    HW113907   5.282   4.802   6.032 -1.4729  1.4676 -0.5370
 4336SOL    HW213908   5.408   4.898   6.072  0.0305 -0.5049 -0.3798
 4337SOL     OW13909   1.589   3.893   0.545  0.2131  0.0548 -0.0236
 4337SOL    HW113910   1.598   3.840   0.460 -0.2461  0.1885 -0.1637
 4337SOL    HW213911   1.672   3.945   0.562  0.7070 -0.7799  0.1622
 4338SOL     OW13912   2.679   5.126   3.676 -0.3428  0.1428  0.0088
 4338SOL    HW113913   2.630   5.079   3.603 -0.2017  0.2134 -0.1338
 4338SOL    HW213914   2.642   5.099   3.764 -0.2996 -0.1936 -0.0735
 4339SOL     OW13915   4.838   2.928   6.812 -0.4350 -0.3441  0.5659
 4339SOL    HW113916   4.767   2.869   6.774  0.1131 -1.4165  1.1701
 4339SOL    HW213917   4.900   2.957   6.739 -0.7418 -0.4637  0.2567
 4340SOL     OW13918   3.282   4.161   6.966 -0.1007 -0.4518 -0.5842
 4340SOL    HW113919   3.375   4.171   7.000 -0.9993  1.8504  1.4922
 4340SOL    HW213920   3.242   4.077   7.002  0.2229  0.0676  1.0579
 4341SOL     OW13921   6.443   5.028   2.648  0.0141 -0.4226 -0.3413
 4341SOL    HW113922   6.442   5.065   2.741 -0.3824 -1.4294  0.0628
 4341SOL    HW213923   6.488   4.939   2.648 -2.9199 -2.0100 -0.4701
 4342SOL     OW13924   2.749   1.664   5.083 -0.3208 -0.4398 -0.4686
 4342SOL    HW113925   2.828   1.720   5.109  0.6287 -1.9073 -0.0914
 4342SOL    HW213926   2.740   1.663   4.983 -0.1035  0.0411 -0.4936
 4343SOL     OW13927   5.488   2.455   6.213  0.3450 -0.1405 -0.2640
 4343SOL    HW113928   5.555   2.463   6.139 -1.3512 -0.6879 -1.9584
 4343SOL    HW213929   5.398   2.483   6.180 -0.3987  0.0677  1.7703
 4344SOL     OW13930   1.395   5.170   6.918 -0.4590  0.6105 -0.1580
 4344SOL    HW113931   1.477   5.213   6.956  0.3567  0.3238 -1.5672
 4344SOL    HW213932   1.336   5.241   6.879 -0.2641  0.6928 -0.3062
 4345SOL     OW13933   5.829   1.216   5.806 -0.3069 -0.7408  0.1158
 4345SOL    HW113934   5.881   1.299   5.830 -0.2517 -0.7602  0.0620
 4345SOL    HW213935   5.891   1.148   5.767 -0.5479 -0.3752 -0.9201
 4346SOL     OW13936   3.315   0.162   2.788  0.3896 -0.5571 -0.0288
 4346SOL    HW113937   3.252   0.221   2.739  0.3297 -0.9651 -0.4534
 4346SOL    HW213938   3.396   0.214   2.815 -0.0398 -0.0758  0.3626
 4347SOL     OW13939   5.293   1.817   1.068  0.0489  0.7575 -0.5544
 4347SOL    HW113940   5.267   1.721   1.077  0.5859  0.4764 -1.7626
 4347SOL    HW213941   5.343   1.846   1.149 -0.4534  0.1369 -0.0098
 4348SOL     OW13942   3.742   2.979   6.266 -0.6864 -0.3813 -0.4424
 4348SOL    HW113943   3.763   3.004   6.171 -0.5959  0.6580 -0.1600
 4348SOL    HW213944   3.734   3.062   6.321 -0.2695 -1.0044  0.5696
 4349SOL     OW13945   0.938   4.842   4.033 -0.2501  0.7279 -0.4596
 4349SOL    HW113946   1.008   4.799   3.977 -1.5625 -1.0915 -0.8233
 4349SOL    HW213947   0.881   4.901   3.976 -1.3932 -0.8797 -1.0606
 4350SOL     OW13948   2.537   4.563   5.090 -0.0527  0.2426  0.4831
 4350SOL    HW113949   2.486   4.648   5.098  0.7892  1.1869 -2.7545
 4350SOL    HW213950   2.634   4.583   5.078  0.4947 -1.3370  1.7964
 4351SOL     OW13951   3.103   0.554   3.157 -0.7097  0.0715  0.6823
 4351SOL    HW113952   3.045   0.507   3.090  0.2105  0.3644 -0.3606
 4351SOL    HW213953   3.196   0.559   3.121 -0.4123  1.1071  1.5751
 4352SOL     OW13954   6.567   1.988   1.624  0.4186  0.0874  0.6271
 4352SOL    HW113955   6.616   1.964   1.540 -2.7912  1.5095 -1.8700
 4352SOL    HW213956   6.501   1.915   1.645 -0.0500  0.5562  0.8048
 4353SOL     OW13957   7.002   4.942   2.069  0.2893 -0.3845 -0.4277
 4353SOL    HW113958   6.906   4.947   2.097  0.4405 -1.3479  0.3356
 4353SOL    HW213959   7.035   5.033   2.046 -0.8128 -0.0477 -0.7048
 4354SOL     OW13960   5.586   5.131   6.173  0.0216 -0.0380 -0.1577
 4354SOL    HW113961   5.600   5.142   6.074 -0.1266  1.1492 -0.0615
 4354SOL    HW213962   5.663   5.172   6.222 -0.7792  1.0292  0.2453
 4355SOL     OW13963   0.473   6.262   5.344  0.2680  0.4228 -0.0140
 4355SOL    HW113964   0.485   6.338   5.408  0.4325  1.0780 -0.7928
 4355SOL    HW213965   0.433   6.297   5.259  0.3228 -0.3743 -0.3773
 4356SOL     OW13966   6.896   2.517   4.620 -0.3565 -0.7535 -0.3583
 4356SOL    HW113967   6.849   2.563   4.696 -0.7735  0.0591 -1.0873
 4356SOL    HW213968   6.882   2.569   4.536  1.3937 -0.8076 -0.7205
 4357SOL     OW13969   5.442   2.185   2.485  0.1575 -0.1129  0.5018
 4357SOL    HW113970   5.370   2.131   2.529  0.7292 -2.2085 -1.0022
 4357SOL    HW213971   5.502   2.224   2.556 -2.1458  1.3841  1.7615
 4358SOL     OW13972   4.888   4.869   3.755 -0.0390 -0.2685  0.1304
 4358SOL    HW113973   4.927   4.794   3.702 -0.4266  0.0472 -0.6121
 4358SOL    HW213974   4.852   4.939   3.693 -1.8018 -0.5551  0.7801
 4359SOL     OW13975   2.514   2.815   5.319 -0.1582  0.4415  0.1809
 4359SOL    HW113976   2.499   2.909   5.288 -2.4114  0.6855  1.7382
 4359SOL    HW213977   2.449   2.754   5.272  1.5196 -0.4650 -1.0856
 4360SOL     OW13978   0.279   1.442   3.862 -0.2153 -0.0888 -0.3106
 4360SOL    HW113979   0.363   1.397   3.832  1.0338 -0.2987  3.0942
 4360SOL    HW213980   0.294   1.541   3.865 -0.4278 -0.0463 -0.6332
 4361SOL     OW13981   5.628   5.372   2.362 -0.1759  0.0354 -0.4079
 4361SOL    HW113982   5.719   5.405   2.340  1.0441 -2.5064  0.3347
 4361SOL    HW213983   5.608   5.390   2.459 -0.2119  0.1040 -0.4286
 4362SOL     OW13984   0.521   1.157   6.397 -0.7106 -0.3322  0.1734
 4362SOL    HW113985   0.589   1.228   6.378  0.5904 -1.6637 -0.3745
 4362SOL    HW213986   0.466   1.142   6.315 -1.6530  0.6996  0.5957
 4363SOL     OW13987   5.292   2.002   6.460 -0.1392  0.3009 -0.3321
 4363SOL    HW113988   5.360   2.066   6.496  0.9574 -0.3595 -1.1394
 4363SOL    HW213989   5.252   2.039   6.376 -0.4848  0.5131 -0.0745
 4364SOL     OW13990   3.494   0.628   4.752  0.2991 -0.2511  0.0279
 4364SOL    HW113991   3.546   0.657   4.671  1.1140  0.0264  0.6358
 4364SOL    HW213992   3.503   0.698   4.824 -0.6946 -0.3373  0.2397
 4365SOL     OW13993   1.460   1.534   6.980 -0.2315 -0.1797 -0.3710
 4365SOL    HW113994   1.457   1.451   6.923  1.6963 -0.8287  0.3835
 4365SOL    HW213995   1.549   1.539   7.025 -1.6992  0.2593  2.6862
 4366SOL     OW13996   4.706   4.175   0.977  0.1349 -0.5593 -0.0915
 4366SOL    HW113997   4.694   4.250   1.043 -0.1958 -0.2584 -0.4855
 4366SOL    HW213998   4.786   4.121   1.003  0.3762 -0.0767  0.2057
 4367SOL     OW13999   1.755   4.985   2.007 -0.0468  0.1864 -0.0160
 4367SOL    HW114000   1.815   5.027   1.940  2.6977 -2.1215  0.7728
 4367SOL    HW214001   1.714   4.902   1.968  0.5784 -0.4846  0.7063
 4368SOL     OW14002   5.201   0.147   6.565  0.2322 -0.3098  0.1528
 4368SOL    HW114003   5.130   0.186   6.506  1.1700 -1.7522 -2.0884
 4368SOL    HW214004   5.161   0.074   6.622 -0.5447  0.5978  0.7911
 4369SOL     OW14005   5.336   2.264   1.053  0.7095 -0.0016 -0.0806
 4369SOL    HW114006   5.317   2.338   1.117  1.5739 -0.2193  0.4368
 4369SOL    HW214007   5.350   2.178   1.103  0.3645 -0.3872 -0.6300
 4370SOL     OW14008   5.627   3.289   6.613 -0.1256  0.6647  0.1701
 4370SOL    HW114009   5.539   3.242   6.623  0.6409 -1.0474 -0.7864
 4370SOL    HW214010   5.637   3.322   6.519  0.3241  0.6903  0.2253
 4371SOL     OW14011   3.552   6.424   6.146 -0.6214 -0.3322  0.1713
 4371SOL    HW114012   3.496   6.404   6.227  0.0772  1.2111  1.0976
 4371SOL    HW214013   3.648   6.430   6.173 -0.3989  0.3926 -0.7232
 4372SOL     OW14014   2.057   5.910   1.655  0.4291 -0.3803  0.2899
 4372SOL    HW114015   2.013   5.872   1.736  0.6513 -1.1936  0.0377
 4372SOL    HW214016   2.016   5.870   1.573  0.8570 -0.2792  0.0221
 4373SOL     OW14017   3.726   5.899   4.089 -0.0139  0.0457 -0.3893
 4373SOL    HW114018   3.675   5.981   4.113 -0.2152 -0.6981  2.0570
 4373SOL    HW214019   3.819   5.904   4.127 -0.0725 -0.8931 -0.0798
 4374SOL     OW14020   3.127   4.862   4.816  0.2623 -0.3692  0.7477
 4374SOL    HW114021   3.037   4.835   4.851  0.8007 -2.1861  0.8731
 4374SOL    HW214022   3.126   4.862   4.716 -0.0930  0.4215  0.7510
 4375SOL     OW14023   6.088   1.367   4.999 -0.1615 -0.3128 -0.9384
 4375SOL    HW114024   6.005   1.350   4.945  0.7453 -0.7818 -2.2647
 4375SOL    HW214025   6.147   1.286   4.994  1.5703  0.9374 -2.3167
 4376SOL     OW14026   6.319   1.767   5.708 -0.6774  0.3647  0.5681
 4376SOL    HW114027   6.290   1.726   5.794  0.7366 -0.2599  0.7819
 4376SOL    HW214028   6.248   1.753   5.639 -0.5103 -2.0158  0.7797
 4377SOL     OW14029   4.672   2.083   4.915 -0.3527 -0.5438 -0.2652
 4377SOL    HW114030   4.591   2.062   4.970 -0.9874 -0.3996 -1.1180
 4377SOL    HW214031   4.736   2.006   4.920  0.1101 -0.0927  1.5275
 4378SOL     OW14032   0.363   0.284   4.741  0.1595  0.0514  0.2150
 4378SOL    HW114033   0.410   0.246   4.661  0.8734 -0.1295  0.7145
 4378SOL    HW214034   0.287   0.223   4.766  0.0542  0.0064 -0.1964
 4379SOL     OW14035   0.783   2.799   3.137 -0.3558 -0.2762 -0.0916
 4379SOL    HW114036   0.817   2.890   3.113 -2.6246  0.9652  1.0759
 4379SOL    HW214037   0.726   2.764   3.062  0.0387 -0.4923 -0.2948
 4380SOL     OW14038   1.491   1.925   4.862  0.2158  0.4940  0.5242
 4380SOL    HW114039   1.467   1.828   4.860  2.8706 -0.2222 -0.5799
 4380SOL    HW214040   1.559   1.944   4.791 -1.3109  3.5156 -0.3065
 4381SOL     OW14041   2.307   4.110   4.356 -0.1054  0.2019 -0.2090
 4381SOL    HW114042   2.394   4.158   4.362 -0.0032  0.0023 -0.0860
 4381SOL    HW214043   2.251   4.130   4.437 -1.8082  3.4649 -2.0047
 4382SOL     OW14044   7.011   1.236   2.428  0.3127 -0.3774 -0.2274
 4382SOL    HW114045   6.937   1.169   2.428 -0.6308  0.6276 -0.6711
 4382SOL    HW214046   7.034   1.260   2.333 -1.0122  1.6334 -0.1138
 4383SOL     OW14047   6.139   1.374   2.790 -0.5000 -0.4581  0.4460
 4383SOL    HW114048   6.186   1.291   2.821  0.5236 -0.9043 -2.0576
 4383SOL    HW214049   6.057   1.348   2.739 -0.4934  0.0828  0.1501
 4384SOL     OW14050   5.118   3.108   3.658 -0.0976 -0.5540  0.0028
 4384SOL    HW114051   5.171   3.163   3.594 -0.0548  0.4658  0.8852
 4384SOL    HW214052   5.030   3.153   3.676  0.7563  0.3519  2.2887
 4385SOL     OW14053   3.187   6.779   3.785  0.5872  0.2644 -0.6266
 4385SOL    HW114054   3.093   6.749   3.770  0.7664  0.1355 -1.5522
 4385SOL    HW214055   3.208   6.856   3.724  0.4112  1.7468  1.1025
 4386SOL     OW14056   3.164   0.296   3.050  0.0454  0.0833 -0.2451
 4386SOL    HW114057   3.251   0.250   3.037  0.1974  0.0887  0.6909
 4386SOL    HW214058   3.131   0.331   2.962  1.1317  0.3607 -0.5501
 4387SOL     OW14059   3.635   3.626   3.620 -0.2040 -0.3347  0.1427
 4387SOL    HW114060   3.550   3.582   3.590  0.4361 -0.7988 -1.0707
 4387SOL    HW214061   3.694   3.558   3.664 -0.1483 -0.1787  0.3087
 4388SOL     OW14062   4.344   1.402   2.997  0.7534  0.6487 -0.0009
 4388SOL    HW114063   4.306   1.337   2.931  0.1160  1.3215 -0.3144
 4388SOL    HW214064   4.371   1.354   3.080 -3.9988  0.3850  1.7493
 4389SOL     OW14065   1.066   1.631   5.372  0.3253  0.1406 -0.0731
 4389SOL    HW114066   1.060   1.713   5.429 -0.9505  0.2347 -0.3113
 4389SOL    HW214067   1.089   1.657   5.278 -2.5225  0.5311 -0.7332
 4390SOL     OW14068   1.435   1.801   6.882  0.8943  0.5956 -0.7174
 4390SOL    HW114069   1.429   1.701   6.882 -0.0577  0.4802  3.1807
 4390SOL    HW214070   1.347   1.839   6.856  0.1634  0.2372  1.0392
 4391SOL     OW14071   4.842   2.826   1.874  0.0628  0.0141  0.0609
 4391SOL    HW114072   4.798   2.912   1.901 -1.2563 -0.3585 -0.7892
 4391SOL    HW214073   4.785   2.749   1.904 -0.0660 -0.4775 -1.3649
 4392SOL     OW14074   5.556   2.284   3.945 -0.1549 -0.1509 -0.2511
 4392SOL    HW114075   5.486   2.212   3.950  0.5042 -0.7571  0.6199
 4392SOL    HW214076   5.570   2.310   3.849 -0.3305 -1.2670 -0.5976
 4393SOL     OW14077   6.364   6.079   3.506 -0.4479  0.0485  0.0233
 4393SOL    HW114078   6.392   6.169   3.540 -0.5258  0.4293 -0.9139
 4393SOL    HW214079   6.305   6.089   3.426  2.0524 -0.8440 -2.0684
 4394SOL     OW14080   1.847   1.888   2.150 -0.1345  0.0845  0.0092
 4394SOL    HW114081   1.809   1.920   2.064 -0.0618  0.6241  0.1703
 4394SOL    HW214082   1.822   1.951   2.223  2.4071  1.4177 -0.1359
 4395SOL     OW14083   5.725   1.317   0.846  0.2353  0.0944 -0.3886
 4395SOL    HW114084   5.739   1.359   0.756  0.7470  0.2346 -0.2514
 4395SOL    HW214085   5.814   1.295   0.886  0.0172  0.1942  0.1572
 4396SOL     OW14086   6.825   0.720   0.562  0.2209  0.0286  0.1635
 4396SOL    HW114087   6.916   0.681   0.545  2.9387  5.2220  0.9583
 4396SOL    HW214088   6.817   0.746   0.658 -2.7070 -1.2778  0.3839
 4397SOL     OW14089   4.901   2.015   5.712 -0.7839 -0.0892 -0.6694
 4397SOL    HW114090   4.948   2.104   5.706  0.7595 -0.8503 -0.2895
 4397SOL    HW214091   4.926   1.959   5.633 -3.6695  0.6251 -2.2587
 4398SOL     OW14092   4.131   3.832   6.977 -0.4114  0.6050  0.5601
 4398SOL    HW114093   4.198   3.818   7.051  1.5047 -0.9962 -1.3281
 4398SOL    HW214094   4.134   3.927   6.948 -0.1892  0.9351  1.6034
 4399SOL     OW14095   5.399   3.384   3.720  0.8433  0.2111  0.2472
 4399SOL    HW114096   5.394   3.362   3.818  1.3141 -0.3504  0.1476
 4399SOL    HW214097   5.491   3.365   3.686  0.7192  0.5317 -0.2822
 4400SOL     OW14098   4.094   6.010   3.849 -0.5042 -0.8981  0.6417
 4400SOL    HW114099   4.052   5.986   3.937 -2.7346 -0.1950 -0.1696
 4400SOL    HW214100   4.023   6.019   3.779  0.8711  1.4599 -0.5916
 4401SOL     OW14101   6.173   0.069   4.979  0.1205  0.0594 -0.1997
 4401SOL    HW114102   6.246   0.001   4.980  0.7683  0.7551  0.2667
 4401SOL    HW214103   6.159   0.106   5.071  0.4081  1.2234 -0.6024
 4402SOL     OW14104   7.005   4.974   0.450  0.1616 -0.3409  0.0455
 4402SOL    HW114105   7.068   4.976   0.373 -1.0794 -0.2669 -1.0058
 4402SOL    HW214106   7.056   4.975   0.536  1.5619  1.7501 -0.7378
 4403SOL     OW14107   3.205   5.989   5.441 -0.0897  0.2283  0.5138
 4403SOL    HW114108   3.298   6.023   5.434 -0.6597  1.8448  0.4673
 4403SOL    HW214109   3.159   5.998   5.353 -0.1398 -1.0934  0.3794
 4404SOL     OW14110   0.699   4.157   1.440 -0.7332 -0.2808  0.0486
 4404SOL    HW114111   0.716   4.058   1.433  0.9264 -0.0152 -0.2135
 4404SOL    HW214112   0.717   4.187   1.533  0.6505  0.0565 -0.3023
 4405SOL     OW14113   0.834   6.386   4.664  0.2557 -0.0332  0.4508
 4405SOL    HW114114   0.838   6.362   4.567  0.7405  0.1236  0.4344
 4405SOL    HW214115   0.850   6.304   4.719 -0.3629 -0.1923  0.4050
 4406SOL     OW14116   6.615   1.948   4.405  0.0851 -0.3360  0.1522
 4406SOL    HW114117   6.665   2.034   4.412 -2.5279  1.3302 -0.2802
 4406SOL    HW214118   6.671   1.880   4.358  1.5689  1.6754 -1.1236
 4407SOL     OW14119   4.582   4.851   3.187 -0.1066 -0.1697 -0.5159
 4407SOL    HW114120   4.587   4.936   3.238 -0.8643  0.3705 -1.3167
 4407SOL    HW214121   4.496   4.804   3.208  0.0405 -0.4482 -0.5224
 4408SOL     OW14122   1.780   0.518   1.595 -0.3189  0.0500  0.4850
 4408SOL    HW114123   1.866   0.493   1.640  0.6239 -0.8759 -1.7009
 4408SOL    HW214124   1.706   0.518   1.663  1.1395 -0.5240  2.1535
 4409SOL     OW14125   2.565   2.928   0.561  0.4790  0.7581  0.4630
 4409SOL    HW114126   2.662   2.936   0.584  0.9592  0.6104 -1.3441
 4409SOL    HW214127   2.550   2.965   0.470 -0.9367 -0.3733  0.2102
 4410SOL     OW14128   0.941   1.552   0.191  0.1811 -0.4038 -0.5957
 4410SOL    HW114129   1.030   1.561   0.235  0.0943 -0.0741 -0.4872
 4410SOL    HW214130   0.889   1.637   0.202 -1.5275 -1.6822  2.3417
 4411SOL     OW14131   4.431   4.816   4.557  0.2851  0.4508  0.1845
 4411SOL    HW114132   4.496   4.741   4.564  0.9664  1.0050 -0.1184
 4411SOL    HW214133   4.340   4.783   4.582  1.0600  0.2134  3.0309
 4412SOL     OW14134   3.322   1.768   0.089  0.4577 -0.2628  0.1630
 4412SOL    HW114135   3.409   1.804   0.056  1.2384 -0.0371  2.3046
 4412SOL    HW214136   3.317   1.670   0.070  1.1076 -0.2442 -0.1404
 4413SOL     OW14137   5.382   1.392   0.122 -0.1076 -0.1741  0.0153
 4413SOL    HW114138   5.443   1.314   0.105  0.0220  0.0687 -0.6680
 4413SOL    HW214139   5.361   1.397   0.220  0.4536 -0.6397  0.1682
 4414SOL     OW14140   1.804   5.947   1.915 -0.1597 -0.0611  0.0102
 4414SOL    HW114141   1.705   5.949   1.907 -0.3255  0.4912  1.8056
 4414SOL    HW214142   1.840   6.041   1.912  0.3403 -0.2567 -0.6798
 4415SOL     OW14143   5.107   6.105   5.168  0.1056  0.5619 -0.2899
 4415SOL    HW114144   5.084   6.111   5.071  0.5542  0.0898 -0.4300
 4415SOL    HW214145   5.030   6.138   5.223 -1.2802 -1.7053 -0.7112
 4416SOL     OW14146   6.726   4.590   4.576  0.6440 -0.1925  0.0438
 4416SOL    HW114147   6.631   4.568   4.556 -0.0058  0.9130  1.6506
 4416SOL    HW214148   6.786   4.524   4.532 -0.8743 -1.0527 -0.8086
 4417SOL     OW14149   4.349   4.524   0.018 -0.4723 -0.0975  0.3651
 4417SOL    HW114150   4.426   4.460   0.011 -0.7768 -0.5824  1.3622
 4417SOL    HW214151   4.287   4.494   0.090 -1.0743  0.8564  0.2541
 4418SOL     OW14152   0.784   4.369   6.173  0.9012  0.1780 -0.4300
 4418SOL    HW114153   0.735   4.398   6.255  1.1990 -0.9812  0.1736
 4418SOL    HW214154   0.780   4.270   6.165  0.8694  0.2664 -1.8318
 4419SOL     OW14155   5.072   6.798   6.528  0.1206  0.4403 -0.0635
 4419SOL    HW114156   4.990   6.848   6.556 -0.0785 -0.0002  0.1549
 4419SOL    HW214157   5.136   6.793   6.605  0.6917  1.4499 -0.4629
 4420SOL     OW14158   0.813   2.698   1.601  0.0962  0.1936 -0.1323
 4420SOL    HW114159   0.715   2.699   1.622  0.4594  1.6047  1.7948
 4420SOL    HW214160   0.830   2.755   1.521 -0.6232  0.2695 -0.2411
 4421SOL     OW14161   3.548   0.710   1.114  0.2820 -0.1067  0.0981
 4421SOL    HW114162   3.569   0.612   1.120  0.2294 -0.0955  0.4564
 4421SOL    HW214163   3.620   0.756   1.062  1.0474 -0.1016  1.1408
 4422SOL     OW14164   4.520   4.771   6.520  0.4086 -0.0311 -0.2855
 4422SOL    HW114165   4.493   4.846   6.458  0.8734 -0.2763 -0.7983
 4422SOL    HW214166   4.439   4.732   6.562  0.1644  0.8481  0.0969
 4423SOL     OW14167   0.459   5.039   5.327  0.3701 -0.5132 -0.1489
 4423SOL    HW114168   0.428   5.118   5.381  3.2514 -0.5551  1.7807
 4423SOL    HW214169   0.412   4.957   5.360 -0.1425 -0.0943  0.1931
 4424SOL     OW14170   4.290   1.705   1.926  0.5328  0.4534 -0.1400
 4424SOL    HW114171   4.365   1.663   1.875  0.0780  0.0915 -0.5079
 4424SOL    HW214172   4.244   1.773   1.868  0.2998  0.3628 -0.0614
 4425SOL     OW14173   4.694   0.641   4.543 -0.5240  0.5489 -0.4950
 4425SOL    HW114174   4.782   0.610   4.579 -0.5746 -0.1310 -0.9389
 4425SOL    HW214175   4.634   0.668   4.618  0.1354  1.2284 -0.1981
 4426SOL     OW14176   2.209   4.901   4.152 -0.3176  0.1727  0.1872
 4426SOL    HW114177   2.203   4.952   4.066  1.7762 -0.0831 -0.1660
 4426SOL    HW214178   2.277   4.943   4.212 -0.8844 -0.3497  1.2214
 4427SOL     OW14179   3.985   5.467   4.248 -0.7986 -0.3356 -0.2848
 4427SOL    HW114180   3.990   5.368   4.258 -1.4276 -0.4638 -1.1068
 4427SOL    HW214181   3.950   5.490   4.157 -0.5309  0.6438 -0.1576
 4428SOL     OW14182   6.507   3.457   1.355  0.1043  0.0755 -0.1341
 4428SOL    HW114183   6.592   3.452   1.407  0.5932  1.7722 -0.6910
 4428SOL    HW214184   6.431   3.423   1.411  1.1175 -1.3870  0.3966
 4429SOL     OW14185   0.012   0.423   1.188  0.5091 -0.1044 -0.0619
 4429SOL    HW114186   0.026   0.412   1.090  0.0654 -0.5563 -0.0772
 4429SOL    HW214187  -0.045   0.504   1.204  0.4108 -0.1476 -0.1884
 4430SOL     OW14188   4.743   3.460   6.473 -0.0522  0.4480  0.0440
 4430SOL    HW114189   4.688   3.413   6.404 -2.5236  0.8701  1.6296
 4430SOL    HW214190   4.684   3.519   6.529  1.9335  0.5524  2.1720
 4431SOL     OW14191   6.038   0.470   0.601 -0.2947 -0.7439  0.1642
 4431SOL    HW114192   6.113   0.534   0.618  1.2237 -3.1949  4.0813
 4431SOL    HW214193   6.046   0.432   0.509  1.6275  1.0414 -0.4780
 4432SOL     OW14194   6.757   4.475   0.700  0.3926 -0.0408  0.8659
 4432SOL    HW114195   6.715   4.441   0.616 -0.6347  3.1119 -0.0025
 4432SOL    HW214196   6.690   4.474   0.775 -0.0530  1.2029  0.5045
 4433SOL     OW14197   3.328   2.510   6.683  0.7243 -0.0126  0.1758
 4433SOL    HW114198   3.285   2.516   6.773 -0.8939  0.5171 -0.5828
 4433SOL    HW214199   3.407   2.449   6.687 -0.4062 -1.4848  1.5595
 4434SOL     OW14200   2.382   4.944   1.581  0.0178  0.3804  0.1000
 4434SOL    HW114201   2.294   4.921   1.623 -0.1506  0.3914 -0.2487
 4434SOL    HW214202   2.451   4.876   1.609 -0.5815 -0.8470 -1.2934
 4435SOL     OW14203   6.246   1.587   4.548 -0.3319  0.4776  0.3491
 4435SOL    HW114204   6.177   1.657   4.568  0.0156  0.9034  0.0570
 4435SOL    HW214205   6.325   1.600   4.607 -1.1185 -0.9593  1.8071
 4436SOL     OW14206   0.040   1.620   2.686 -0.1310 -0.1512 -0.0536
 4436SOL    HW114207  -0.026   1.590   2.618 -1.1693 -1.9559  1.6575
 4436SOL    HW214208  -0.008   1.658   2.765  0.9112 -0.7637  0.9046
 4437SOL     OW14209   5.119   0.651   1.873  0.3498  0.2020  0.4272
 4437SOL    HW114210   5.137   0.614   1.782  0.9307 -0.1504  0.6756
 4437SOL    HW214211   5.193   0.624   1.935 -0.0177  0.4715  0.9949
 4438SOL     OW14212   5.337   6.125   2.353  0.1954  0.4454 -0.0400
 4438SOL    HW114213   5.249   6.140   2.399  0.2818  2.2294 -0.3935
 4438SOL    HW214214   5.380   6.043   2.391 -1.1407  0.1217  0.8688
 4439SOL     OW14215   6.215   6.618   1.219 -0.3314  0.1582  0.5424
 4439SOL    HW114216   6.139   6.678   1.245  0.1648  2.6217 -2.9757
 4439SOL    HW214217   6.300   6.656   1.255 -0.1443  1.0500 -0.7622
 4440SOL     OW14218   1.601   6.409   3.121 -0.0921 -0.0770  0.4150
 4440SOL    HW114219   1.573   6.410   3.217 -1.4048 -0.3826  0.0532
 4440SOL    HW214220   1.696   6.438   3.114 -0.3588  1.2195  1.6732
 4441SOL     OW14221   6.335   2.738   4.375 -0.3281 -0.1327 -0.3561
 4441SOL    HW114222   6.261   2.734   4.308 -1.8234 -0.7837  1.2201
 4441SOL    HW214223   6.421   2.762   4.330 -1.5225  0.8432 -2.2395
 4442SOL     OW14224   3.744   3.087   1.476 -0.4033 -0.1783 -0.0016
 4442SOL    HW114225   3.780   3.026   1.405  0.1385  1.7871 -1.5143
 4442SOL    HW214226   3.814   3.101   1.546 -0.4166 -1.0224  0.1874
 4443SOL     OW14227   4.870   3.750   4.472 -0.4608  0.2246  0.1686
 4443SOL    HW114228   4.934   3.799   4.531 -2.4268  0.9945  1.7900
 4443SOL    HW214229   4.832   3.673   4.522 -1.5166  0.3726 -0.3799
 4444SOL     OW14230   3.285   4.101   4.877 -0.1851 -0.2911 -0.0753
 4444SOL    HW114231   3.194   4.073   4.908 -0.8559  1.5393 -0.2665
 4444SOL    HW214232   3.287   4.105   4.777  1.0552 -3.1805 -0.2829
 4445SOL     OW14233   6.993   6.888   0.935  0.7283  0.0577  0.0980
 4445SOL    HW114234   6.978   6.828   1.014  2.0370 -0.1775  0.1786
 4445SOL    HW214235   7.084   6.928   0.940 -0.7809  3.8238  1.2419
 4446SOL     OW14236   4.342   5.842   0.226 -0.9457 -0.0626  0.4864
 4446SOL    HW114237   4.399   5.924   0.235 -0.1247 -0.7520  1.7996
 4446SOL    HW214238   4.258   5.854   0.279 -0.6318 -0.2460  1.0203
 4447SOL     OW14239   6.078   2.017   3.521 -0.1927 -0.3036  0.1319
 4447SOL    HW114240   6.106   1.974   3.607 -1.1451 -0.4629  0.3739
 4447SOL    HW214241   6.092   1.954   3.446  2.5450  0.5041 -0.1727
 4448SOL     OW14242   5.384   2.335   1.838  0.8357  0.2410 -0.1982
 4448SOL    HW114243   5.428   2.272   1.902  0.5878 -1.8608 -1.9764
 4448SOL    HW214244   5.454   2.395   1.799  1.3285  0.1306  0.4833
 4449SOL     OW14245   6.444   6.200   2.948  0.0475 -0.2272 -0.0887
 4449SOL    HW114246   6.371   6.152   2.900 -0.5502 -0.0016  0.5913
 4449SOL    HW214247   6.531   6.185   2.900 -0.1948 -1.6531 -0.1164
 4450SOL     OW14248   2.915   3.509   4.269  0.5575  0.7349  0.1573
 4450SOL    HW114249   2.891   3.578   4.201  0.4805  0.9115  0.3622
 4450SOL    HW214250   2.843   3.504   4.339  0.0160 -0.3223 -0.4410
 4451SOL     OW14251   4.372   2.336   1.383  0.3604 -0.7003  0.2729
 4451SOL    HW114252   4.409   2.321   1.291  0.3908  1.7409 -0.1942
 4451SOL    HW214253   4.272   2.346   1.378  0.5129  1.3482  0.1124
 4452SOL     OW14254   4.267   7.016   3.751  0.0096  0.4875 -0.2220
 4452SOL    HW114255   4.352   6.977   3.715  0.3450  1.2042 -0.2344
 4452SOL    HW214256   4.239   6.966   3.832 -0.2993 -0.6171 -0.9881
 4453SOL     OW14257   3.372   5.009   4.855  0.5997 -0.1136 -0.0397
 4453SOL    HW114258   3.293   4.948   4.849  1.1312 -0.9655  1.2359
 4453SOL    HW214259   3.342   5.103   4.840  0.0138 -0.7413 -3.7503
 4454SOL     OW14260   0.479   6.165   6.852  0.4006 -0.2946 -0.0931
 4454SOL    HW114261   0.465   6.142   6.755  1.8975 -0.2760 -0.3392
 4454SOL    HW214262   0.450   6.089   6.909 -1.5299  0.1093 -0.4694
 4455SOL     OW14263   6.184   0.402   2.454 -0.1455 -0.3143  0.4245
 4455SOL    HW114264   6.135   0.315   2.440  1.3830 -0.9056 -1.7765
 4455SOL    HW214265   6.244   0.393   2.534 -0.1963 -1.2052  0.3781
 4456SOL     OW14266   2.308   6.891   4.207  0.3647 -0.1901 -0.2642
 4456SOL    HW114267   2.277   6.937   4.124  2.4793 -0.2695 -1.1596
 4456SOL    HW214268   2.406   6.905   4.218  0.1865 -0.3806  2.1340
 4457SOL     OW14269   6.523   0.314   3.234 -0.0710 -0.0356  0.0363
 4457SOL    HW114270   6.475   0.364   3.162  0.2880 -1.0675 -0.9617
 4457SOL    HW214271   6.531   0.371   3.316 -0.4620  1.1798 -0.7538
 4458SOL     OW14272   0.203   6.438   2.595 -0.5844 -0.3582 -0.1496
 4458SOL    HW114273   0.140   6.366   2.564 -0.3945 -0.5096 -0.1845
 4458SOL    HW214274   0.186   6.521   2.543 -1.3229 -0.1466  0.4108
 4459SOL     OW14275   3.668   6.678   5.774 -0.2241 -0.2916 -0.0955
 4459SOL    HW114276   3.655   6.775   5.795 -1.4588 -0.3914 -0.3658
 4459SOL    HW214277   3.741   6.668   5.706 -0.2653  0.4611 -0.2558
 4460SOL     OW14278   5.986   6.208   0.940 -0.1071 -0.6603 -0.5947
 4460SOL    HW114279   5.934   6.266   1.004  0.8793  0.0403 -0.4076
 4460SOL    HW214280   6.083   6.233   0.944  0.5018 -2.8837  0.1164
 4461SOL     OW14281   2.184   2.271   4.087  0.5969  1.2039  0.0924
 4461SOL    HW114282   2.266   2.310   4.128  0.5147 -0.7546  2.3082
 4461SOL    HW214283   2.104   2.299   4.140  0.3498 -0.4546  0.6315
 4462SOL     OW14284   1.817   1.306   2.655  0.1672  0.3270 -0.2122
 4462SOL    HW114285   1.822   1.405   2.643 -0.0607  0.2981 -0.5684
 4462SOL    HW214286   1.859   1.281   2.741 -0.6227  0.8312  0.3375
 4463SOL     OW14287   6.759   3.235   2.755  0.3671 -0.7969 -0.0961
 4463SOL    HW114288   6.692   3.252   2.828 -0.3336 -0.2959 -0.8416
 4463SOL    HW214289   6.764   3.137   2.737  1.1720 -1.0255  1.1854
 4464SOL     OW14290   0.433   6.473   5.507  0.0358  0.0749  0.0969
 4464SOL    HW114291   0.418   6.565   5.471 -0.5002 -0.3044 -0.6623
 4464SOL    HW214292   0.518   6.472   5.560 -0.4471  1.2440  0.9563
 4465SOL     OW14293   1.510   5.788   4.053  0.6174  0.4834 -0.3918
 4465SOL    HW114294   1.497   5.867   3.993 -0.4985 -0.4620 -1.4416
 4465SOL    HW214295   1.421   5.747   4.074  1.2647 -1.3794 -1.0983
 4466SOL     OW14296   5.014   4.945   5.692  0.3482 -0.2646  0.4423
 4466SOL    HW114297   5.030   4.907   5.601 -0.6186 -0.0747  0.1813
 4466SOL    HW214298   4.918   4.932   5.717 -0.0106  1.9131  0.3888
 4467SOL     OW14299   0.588   5.494   6.946  0.3144  0.4729 -0.6156
 4467SOL    HW114300   0.505   5.444   6.918 -1.2497  1.3824  2.0268
 4467SOL    HW214301   0.667   5.433   6.941 -1.2064 -1.7389  0.6320
 4468SOL     OW14302   3.767   5.049   0.784  0.1796  0.1783 -0.3037
 4468SOL    HW114303   3.760   4.979   0.856 -1.1544  0.1942 -0.3918
 4468SOL    HW214304   3.848   5.105   0.800 -0.2024  0.3156  1.3252
 4469SOL     OW14305   5.032   1.599   5.963 -0.7668 -0.2079 -0.4853
 4469SOL    HW114306   5.104   1.643   5.909  0.2898 -2.7734 -1.3379
 4469SOL    HW214307   4.956   1.573   5.903 -0.9609 -0.3612 -0.1754
 4470SOL     OW14308   2.511   6.339   1.387  0.1841 -0.2313 -0.2181
 4470SOL    HW114309   2.545   6.403   1.318  0.1273 -0.3399 -0.3452
 4470SOL    HW214310   2.421   6.306   1.361  0.5557 -0.9879 -0.5579
 4471SOL     OW14311   2.484   3.895   1.673  0.1737 -0.3699 -0.3541
 4471SOL    HW114312   2.441   3.941   1.750  0.6853  0.8108 -0.7493
 4471SOL    HW214313   2.482   3.796   1.687 -2.5476 -0.3816 -0.3089
 4472SOL     OW14314   6.860   3.057   2.055  0.3415 -0.4640 -0.0448
 4472SOL    HW114315   6.883   2.960   2.061  1.1767 -0.2250  1.0017
 4472SOL    HW214316   6.779   3.069   1.998 -1.2830 -2.0194  1.8065
 4473SOL     OW14317   6.485   4.354   2.737 -0.1879 -0.3626 -0.1857
 4473SOL    HW114318   6.411   4.408   2.777  1.6280  0.4042  2.4317
 4473SOL    HW214319   6.456   4.318   2.648 -4.1660 -1.2475  1.2479
 4474SOL     OW14320   1.477   4.181   2.077  0.1126  0.0427  0.1176
 4474SOL    HW114321   1.534   4.112   2.121 -1.5378  0.3758  3.0235
 4474SOL    HW214322   1.410   4.136   2.017 -0.5430 -0.8762  1.4972
 4475SOL     OW14323   1.527   1.250   3.339 -0.2612 -0.1196  0.4508
 4475SOL    HW114324   1.514   1.313   3.416  1.6989 -1.4369  1.9656
 4475SOL    HW214325   1.624   1.247   3.315 -0.3365 -2.3320  0.2521
 4476SOL     OW14326   5.215   6.823   3.934  0.0805  0.5005 -0.6188
 4476SOL    HW114327   5.273   6.868   3.866  1.5778  0.1089  0.3537
 4476SOL    HW214328   5.224   6.870   4.022 -1.9834  1.1188 -0.7031
 4477SOL     OW14329   6.656   1.357   6.258  0.2185 -0.0580  0.0563
 4477SOL    HW114330   6.730   1.403   6.307  0.6000 -1.3993  0.7885
 4477SOL    HW214331   6.579   1.343   6.321  0.6909 -1.7486  0.3142
 4478SOL     OW14332   5.247   3.564   2.716 -0.3891  0.1559 -0.0087
 4478SOL    HW114333   5.242   3.465   2.703 -1.7169  0.2249 -0.1473
 4478SOL    HW214334   5.211   3.611   2.635  0.3244  0.7698  0.0096
 4479SOL     OW14335   1.050   6.045   4.984  0.0027  0.2091  0.0571
 4479SOL    HW114336   1.052   6.011   5.078 -0.3911  0.9736  0.3495
 4479SOL    HW214337   1.144   6.054   4.951  0.1630  0.3402  0.5326
 4480SOL     OW14338   7.013   3.134   5.095 -0.6185  0.3891 -0.1619
 4480SOL    HW114339   7.042   3.066   5.162  0.2953  1.7987  0.9262
 4480SOL    HW214340   6.928   3.103   5.052 -0.4569 -1.2280  0.5969
 4481SOL     OW14341   0.612   1.449   3.193 -0.2734 -0.1447 -0.0032
 4481SOL    HW114342   0.674   1.464   3.116 -1.4060  1.1018 -0.7133
 4481SOL    HW214343   0.580   1.355   3.191 -0.0886 -0.2054 -0.9248
 4482SOL     OW14344   2.931   2.448   5.325 -0.6332  0.0621  0.4901
 4482SOL    HW114345   2.874   2.508   5.269 -1.1160 -0.5513  0.3097
 4482SOL    HW214346   3.017   2.430   5.277  0.0736  1.6011  1.0954
 4483SOL     OW14347   4.230   2.604   6.657 -0.2101  0.3980 -0.4863
 4483SOL    HW114348   4.164   2.673   6.629  0.7050  0.3449 -3.0608
 4483SOL    HW214349   4.321   2.628   6.621  1.0493 -0.0263  2.1132
 4484SOL     OW14350   0.886   0.978   3.219  0.6006 -0.1713 -0.5342
 4484SOL    HW114351   0.919   1.034   3.295 -0.2242 -0.9407  0.4241
 4484SOL    HW214352   0.798   0.937   3.244  0.8447 -1.3167 -1.4746
 4485SOL     OW14353   4.070   3.648   4.179  0.3213  0.1996  0.5056
 4485SOL    HW114354   4.107   3.738   4.157  1.5591 -0.7233 -1.4644
 4485SOL    HW214355   4.021   3.611   4.100  1.9506 -1.8322  0.3532
 4486SOL     OW14356   2.930   5.920   3.982  0.3520 -1.0360  0.0353
 4486SOL    HW114357   2.965   5.922   3.888  1.0204 -0.2912  0.2891
 4486SOL    HW214358   2.866   5.995   3.996  2.8410  1.0525  1.1094
 4487SOL     OW14359   6.889   0.620   3.223 -0.0034 -0.5490  0.1202
 4487SOL    HW114360   6.901   0.686   3.149 -1.7440 -3.1675 -2.7515
 4487SOL    HW214361   6.975   0.571   3.239  0.2615 -0.2929 -0.5111
 4488SOL     OW14362   4.709   0.874   4.374 -0.2777 -0.4394  0.6648
 4488SOL    HW114363   4.721   0.848   4.278 -1.7285  0.0082  0.3291
 4488SOL    HW214364   4.711   0.792   4.431 -1.0410 -0.9017  0.0530
 4489SOL     OW14365   0.403   5.401   1.554 -0.5119  0.3603 -0.3400
 4489SOL    HW114366   0.473   5.466   1.584  2.6564 -2.0849 -1.8835
 4489SOL    HW214367   0.351   5.369   1.632  0.1146  2.2110  0.8962
 4490SOL     OW14368   0.971   4.749   1.692  0.1744  0.5191  0.0815
 4490SOL    HW114369   1.065   4.745   1.726  0.1208 -0.7967  0.1582
 4490SOL    HW214370   0.965   4.696   1.606 -0.4379  0.8092 -0.0606
 4491SOL     OW14371   0.346   2.559   2.396 -0.1905 -0.1810 -0.0034
 4491SOL    HW114372   0.261   2.593   2.435  0.4501  1.3629  0.1029
 4491SOL    HW214373   0.384   2.488   2.455  0.6090  1.8826  2.1032
 4492SOL     OW14374   1.624   1.598   3.159 -0.1604 -0.1089  0.0637
 4492SOL    HW114375   1.685   1.597   3.238 -2.4530  0.8556  1.9360
 4492SOL    HW214376   1.591   1.505   3.141 -0.5367 -0.1480  0.9636
 4493SOL     OW14377   6.458   6.378   2.596  0.6069  0.2153 -0.0817
 4493SOL    HW114378   6.552   6.397   2.568  0.1362  0.1123 -1.9049
 4493SOL    HW214379   6.397   6.448   2.559 -0.3628 -1.2785 -1.4750
 4494SOL     OW14380   2.715   5.379   3.043 -0.3683 -0.4885  0.6547
 4494SOL    HW114381   2.716   5.358   3.141  0.0429 -2.3881  0.2709
 4494SOL    HW214382   2.681   5.300   2.992  0.5473  0.0526 -0.8408
 4495SOL     OW14383   5.892   0.242   3.461  0.4263  0.0642  0.9607
 4495SOL    HW114384   5.867   0.166   3.400  1.4775  0.1427  0.4220
 4495SOL    HW214385   5.974   0.218   3.512 -0.0811  0.2606  1.9013
 4496SOL     OW14386   4.297   4.644   2.886  0.2735 -0.0434  0.4782
 4496SOL    HW114387   4.302   4.555   2.841 -1.3133 -0.2789  0.7111
 4496SOL    HW214388   4.348   4.711   2.832  1.1233 -0.9844  0.0746
 4497SOL     OW14389   3.515   1.607   6.724 -0.5567 -0.4887 -0.9676
 4497SOL    HW114390   3.433   1.623   6.779 -1.0344 -2.4302 -1.0502
 4497SOL    HW214391   3.526   1.509   6.708  1.6884 -0.2673 -1.1253
 4498SOL     OW14392   1.574   0.214   6.573 -0.1221  0.3727  0.1202
 4498SOL    HW114393   1.611   0.282   6.511 -0.0746 -0.7479 -1.1411
 4498SOL    HW214394   1.510   0.257   6.636  0.0102  1.5919 -0.5561
 4499SOL     OW14395   2.135   0.476   2.151 -0.3845 -0.0970 -0.8021
 4499SOL    HW114396   2.148   0.389   2.104  2.7313 -0.7933  1.0672
 4499SOL    HW214397   2.142   0.551   2.085  0.2586 -1.1491 -1.9767
 4500SOL     OW14398   2.961   5.485   4.687  0.0282 -0.3235 -0.0713
 4500SOL    HW114399   3.007   5.467   4.600  0.6058  0.5755  0.0405
 4500SOL    HW214400   2.882   5.543   4.671  0.9075  0.9772  0.1482
 4501SOL     OW14401   1.744   0.207   1.586  0.4387 -0.3142  0.7409
 4501SOL    HW114402   1.766   0.189   1.682  0.7671 -1.5205  0.4523
 4501SOL    HW214403   1.779   0.297   1.560  0.2935  0.0471  1.7608
 4502SOL     OW14404   6.352   0.533   1.865  0.1406 -0.4435  0.6380
 4502SOL    HW114405   6.403   0.469   1.809 -1.2974 -0.4050 -0.8111
 4502SOL    HW214406   6.312   0.486   1.943  1.1641 -0.7637  0.9744
 4503SOL     OW14407   1.401   6.586   0.015  0.0525  0.2254  0.1722
 4503SOL    HW114408   1.431   6.670  -0.030  0.7738 -0.1297 -0.0269
 4503SOL    HW214409   1.302   6.587   0.025 -0.2435 -0.0825 -2.2453
 4504SOL     OW14410   4.346   0.513   2.548  0.0038 -0.1776  0.4971
 4504SOL    HW114411   4.421   0.561   2.503 -0.0353 -0.9033 -0.3832
 4504SOL    HW214412   4.368   0.499   2.644 -0.3489  2.3242  1.0095
 4505SOL     OW14413   0.622   0.332   0.961 -0.1103 -0.4781  0.4860
 4505SOL    HW114414   0.622   0.313   0.863 -0.1932 -1.0768  0.6018
 4505SOL    HW214415   0.716   0.347   0.992 -0.2868  2.9730 -0.2962
 4506SOL     OW14416   1.127   6.132   1.742 -0.2639  0.2766 -0.5919
 4506SOL    HW114417   1.156   6.112   1.648 -0.4453 -1.2649 -0.3436
 4506SOL    HW214418   1.119   6.047   1.793 -0.5341  1.0709  0.7300
 4507SOL     OW14419   3.045   5.642   3.454 -0.3193  1.2913 -0.2659
 4507SOL    HW114420   2.948   5.616   3.461 -0.5987  1.6039 -2.4487
 4507SOL    HW214421   3.053   5.742   3.457  0.0197  1.2487  0.5376
 4508SOL     OW14422   4.574   6.667   4.928  0.2042 -0.0328 -0.2718
 4508SOL    HW114423   4.478   6.696   4.927 -0.1698 -1.1458  0.8853
 4508SOL    HW214424   4.627   6.728   4.870 -1.0819  1.0220 -0.3988
 4509SOL     OW14425   3.786   4.265   0.431  0.0373 -0.3057  0.2606
 4509SOL    HW114426   3.740   4.265   0.519  1.3053 -0.4628  0.9438
 4509SOL    HW214427   3.880   4.296   0.442  0.6270 -1.6120 -0.8022
 4510SOL     OW14428   3.601   1.237   3.869 -0.6628 -0.0157  0.2476
 4510SOL    HW114429   3.505   1.222   3.846 -0.5029 -2.0294  0.7089
 4510SOL    HW214430   3.607   1.308   3.939 -1.8800 -0.3853  0.7578
 4511SOL     OW14431   6.989   3.071   5.489 -0.1149  0.0707 -0.4007
 4511SOL    HW114432   7.086   3.060   5.464 -0.1136  0.5336 -0.5956
 4511SOL    HW214433   6.963   2.996   5.550  0.4393  0.0834 -0.1348
 4512SOL     OW14434   5.374   1.372   0.433  0.3964  0.0448 -0.2108
 4512SOL    HW114435   5.294   1.371   0.494  1.0200 -1.3289  0.6144
 4512SOL    HW214436   5.417   1.462   0.438 -0.0545  0.2278  0.7345
 4513SOL     OW14437   0.786   6.570   5.512  0.1029 -0.4746  0.4131
 4513SOL    HW114438   0.820   6.481   5.543 -1.1814 -1.1683 -0.1117
 4513SOL    HW214439   0.857   6.617   5.461  0.7615 -1.2468  0.6043
 4514SOL     OW14440   1.138   1.668   4.676  0.2313 -0.3633 -0.2992
 4514SOL    HW114441   1.142   1.684   4.577 -0.2627  1.5435 -0.0444
 4514SOL    HW214442   1.054   1.618   4.697 -0.3404  0.3993 -0.7165
 4515SOL     OW14443   0.025   5.894   2.223  0.2729 -0.0306 -0.3734
 4515SOL    HW114444   0.048   5.960   2.295 -1.7111 -0.3885  0.6621
 4515SOL    HW214445   0.051   5.802   2.253  2.4295  0.1300 -1.5416
 4516SOL     OW14446   5.371   0.496   5.695 -0.0260 -0.0576 -0.1269
 4516SOL    HW114447   5.276   0.498   5.663 -0.0057  2.1682 -0.1930
 4516SOL    HW214448   5.376   0.535   5.787  0.8934  0.4125 -0.3665
 4517SOL     OW14449   0.485   1.683   3.234  0.1682  0.8762  0.3204
 4517SOL    HW114450   0.500   1.762   3.174  1.4774  0.3820 -0.0321
 4517SOL    HW214451   0.559   1.618   3.222 -0.8062 -0.3488  0.7365
 4518SOL     OW14452   6.289   4.836   5.239 -0.2850  0.3044  0.3941
 4518SOL    HW114453   6.217   4.871   5.178 -1.2607 -1.7099  0.3036
 4518SOL    HW214454   6.255   4.834   5.333 -0.7802 -1.5275  0.2301
 4519SOL     OW14455   5.315   4.383   6.653 -0.2068  0.0994  0.6597
 4519SOL    HW114456   5.253   4.436   6.711  0.4292  0.3544  1.1176
 4519SOL    HW214457   5.366   4.318   6.709 -1.5253 -1.5737  0.0076
 4520SOL     OW14458   1.874   5.273   6.604  0.1715 -0.1112  0.2119
 4520SOL    HW114459   1.778   5.298   6.620  0.1061  0.6964 -1.2912
 4520SOL    HW214460   1.934   5.345   6.637  0.2981 -0.7360  1.3972
 4521SOL     OW14461   2.990   5.769   0.378 -0.4143  0.1387 -0.2916
 4521SOL    HW114462   3.051   5.721   0.440 -2.4390 -1.2650  0.7215
 4521SOL    HW214463   2.949   5.847   0.425 -1.1426 -0.2905 -0.2103
 4522SOL     OW14464   6.671   6.940   4.180  0.1177 -0.4520  0.1599
 4522SOL    HW114465   6.585   6.987   4.164  0.2800 -0.3016 -0.2950
 4522SOL    HW214466   6.713   6.917   4.092  1.5618  1.3329  0.3445
 4523SOL     OW14467   5.249   4.632   0.350 -0.1269 -0.1360  0.3983
 4523SOL    HW114468   5.196   4.549   0.334 -2.2296  0.5810  2.9713
 4523SOL    HW214469   5.188   4.711   0.358  1.6799  1.4429 -0.3355
 4524SOL     OW14470   2.832   2.460   1.242  0.1903  0.8810  0.2167
 4524SOL    HW114471   2.889   2.527   1.196 -0.0814  0.6581 -0.4534
 4524SOL    HW214472   2.875   2.370   1.237  1.0056  1.1286  1.8997
 4525SOL     OW14473   2.494   4.390   0.527  0.4692  0.6269  0.0444
 4525SOL    HW114474   2.479   4.292   0.541  1.7651  0.4831  0.5747
 4525SOL    HW214475   2.509   4.408   0.430 -1.0484  0.5084 -0.2387
 4526SOL     OW14476   3.858   5.989   3.413  0.2984  0.1088 -0.0390
 4526SOL    HW114477   3.764   6.022   3.400  0.2598  0.3484  0.8069
 4526SOL    HW214478   3.916   6.064   3.444  1.6321  0.9255 -3.8909
 4527SOL     OW14479   1.088   3.560   5.708  0.2271  0.4550  0.0801
 4527SOL    HW114480   1.124   3.646   5.745 -2.5889  1.8409 -0.1474
 4527SOL    HW214481   1.128   3.484   5.758  0.2219  2.0395  2.7148
 4528SOL     OW14482   6.048   1.330   6.674  0.9496  0.2462  0.5889
 4528SOL    HW114483   6.119   1.399   6.687  0.7655  0.5886 -0.1915
 4528SOL    HW214484   6.087   1.249   6.630  1.2430 -0.3111  1.8185
 4529SOL     OW14485   0.862   5.520   2.703  0.3035  0.0619  0.3927
 4529SOL    HW114486   0.800   5.519   2.782  0.9960  0.7944  0.9626
 4529SOL    HW214487   0.817   5.476   2.625 -0.6441 -0.0897  1.0043
 4530SOL     OW14488   0.510   5.653   4.476 -0.0851  0.3214  0.9687
 4530SOL    HW114489   0.600   5.692   4.496 -0.2476  0.0804  2.2767
 4530SOL    HW214490   0.520   5.578   4.411  0.5786  0.6898  0.6324
 4531SOL     OW14491   5.478   1.034   4.222  0.3318  0.1782 -0.2635
 4531SOL    HW114492   5.511   0.949   4.263  0.4922 -0.4767 -1.6712
 4531SOL    HW214493   5.403   1.070   4.276  0.1737 -0.9408  0.2967
 4532SOL     OW14494   4.595   1.527   0.241  0.0741  0.2056 -0.2052
 4532SOL    HW114495   4.562   1.599   0.303  0.2366  0.8798 -0.8775
 4532SOL    HW214496   4.609   1.566   0.150  0.0894 -0.7092 -0.6065
 4533SOL     OW14497   0.254   5.427   4.170  0.2317  0.0567 -0.2511
 4533SOL    HW114498   0.249   5.337   4.213  0.0284 -0.1937 -0.7940
 4533SOL    HW214499   0.334   5.476   4.205 -0.3888  0.1885  1.0357
 4534SOL     OW14500   2.878   6.175   3.050  0.2095  0.0833  0.1233
 4534SOL    HW114501   2.900   6.107   2.979  1.3920  0.3205  0.2489
 4534SOL    HW214502   2.806   6.138   3.109 -0.6824 -0.1889 -1.0799
 4535SOL     OW14503   2.876   3.513   2.895  0.6666 -0.4126 -0.5657
 4535SOL    HW114504   2.805   3.444   2.908  0.1911  0.3479  1.1918
 4535SOL    HW214505   2.964   3.467   2.879 -0.0137 -1.3720 -1.6890
 4536SOL     OW14506   2.848   1.399   5.125 -0.2997  0.2035 -0.4216
 4536SOL    HW114507   2.801   1.345   5.056  2.2892 -1.2344 -1.2112
 4536SOL    HW214508   2.830   1.497   5.110 -0.6301 -0.1319 -2.5169
 4537SOL     OW14509   6.373   1.109   1.273  0.1696  0.3013  0.4966
 4537SOL    HW114510   6.425   1.073   1.196 -0.2340 -0.2419  0.4691
 4537SOL    HW214511   6.311   1.181   1.241 -1.3755 -1.2216 -0.0487
 4538SOL     OW14512   6.878   3.472   3.956  0.1077  0.1982 -0.4660
 4538SOL    HW114513   6.792   3.467   4.006 -0.7317 -0.6941 -1.9258
 4538SOL    HW214514   6.863   3.520   3.869  0.1423 -2.9612 -2.3937
 4539SOL     OW14515   4.278   6.707   4.914  0.1397  0.2041 -0.2226
 4539SOL    HW114516   4.295   6.799   4.879 -0.5581 -0.2042 -1.7220
 4539SOL    HW214517   4.263   6.712   5.013 -0.0436  1.7198 -0.2913
 4540SOL     OW14518   4.003   2.818   6.019  0.3821  0.0627  0.4694
 4540SOL    HW114519   4.019   2.720   6.015 -0.5449 -0.0550 -1.1065
 4540SOL    HW214520   4.068   2.865   5.959  0.4642  0.3802  0.7991
 4541SOL     OW14521   6.066   0.434   5.615  0.1502  0.5798  0.1334
 4541SOL    HW114522   6.013   0.360   5.656 -1.8502  0.9173 -1.6962
 4541SOL    HW214523   6.067   0.513   5.677  0.7469 -0.2945  1.2861
 4542SOL     OW14524   2.517   5.904   3.741 -0.7686  0.7318 -0.6122
 4542SOL    HW114525   2.601   5.859   3.711 -1.0214 -3.0487  3.2612
 4542SOL    HW214526   2.439   5.862   3.695 -0.8529 -1.4558  1.3467
 4543SOL     OW14527   6.569   6.312   4.084  0.0154  0.5909 -0.0253
 4543SOL    HW114528   6.569   6.251   4.163  1.5646  0.7084  0.0895
 4543SOL    HW214529   6.475   6.328   4.054 -0.5030 -0.5859  0.9118
 4544SOL     OW14530   5.633   4.635   1.043  0.2994 -0.2256  0.4666
 4544SOL    HW114531   5.671   4.650   1.134 -0.1029  1.7527  0.3629
 4544SOL    HW214532   5.564   4.564   1.048  0.1411 -0.0174  1.7702
 4545SOL     OW14533   2.318   0.391   1.065 -0.7497 -0.4842 -0.4213
 4545SOL    HW114534   2.383   0.435   1.127 -0.3534 -1.2611 -0.2607
 4545SOL    HW214535   2.231   0.377   1.112 -1.2064  1.0010 -0.7922
 4546SOL     OW14536   1.983   3.201   5.530 -0.1726 -0.5515 -0.2695
 4546SOL    HW114537   1.933   3.236   5.609  0.3656  0.2936 -0.2831
 4546SOL    HW214538   1.950   3.110   5.506 -1.9933  0.1425 -0.5425
 4547SOL     OW14539   4.396   1.211   5.555  0.5431  0.0459  0.0579
 4547SOL    HW114540   4.394   1.244   5.650 -0.5469  1.6471 -0.4779
 4547SOL    HW214541   4.321   1.253   5.504  1.4905 -0.2962 -1.6832
 4548SOL     OW14542   2.231   1.260   0.110 -0.5831 -0.0802 -0.3809
 4548SOL    HW114543   2.297   1.323   0.152 -1.6987  0.7727  0.1451
 4548SOL    HW214544   2.157   1.241   0.174 -1.1550 -0.5653 -1.1610
 4549SOL     OW14545   6.639   3.259   3.501  0.1871 -0.5651 -0.3238
 4549SOL    HW114546   6.663   3.218   3.589  0.7281 -0.7199 -0.5406
 4549SOL    HW214547   6.698   3.337   3.482 -0.3039 -0.1797 -0.2919
 4550SOL     OW14548   6.401   1.186   4.372 -0.4888  0.0424 -0.0140
 4550SOL    HW114549   6.330   1.189   4.302 -1.4411  1.1380  0.9696
 4550SOL    HW214550   6.384   1.109   4.434 -0.1178 -0.4156 -0.4645
 4551SOL     OW14551   6.165   3.967   6.850 -0.4332  0.4078 -0.0293
 4551SOL    HW114552   6.225   4.039   6.884 -0.4862  1.0345 -1.2080
 4551SOL    HW214553   6.148   3.981   6.752 -0.0328 -1.4905 -0.4093
 4552SOL     OW14554   0.998   1.298   1.871  0.5612  0.0061 -0.0075
 4552SOL    HW114555   0.911   1.346   1.885  0.7542 -0.2362  2.5721
 4552SOL    HW214556   0.980   1.204   1.843  0.0152  0.1342 -0.1021
 4553SOL     OW14557   5.433   6.338   1.576 -0.3287 -0.4850 -0.5197
 4553SOL    HW114558   5.459   6.323   1.481 -1.8798  2.7527 -1.5962
 4553SOL    HW214559   5.512   6.371   1.627  0.3668 -1.6803 -0.7812
 4554SOL     OW14560   1.654   2.272   2.405 -0.4743  0.4833  0.3085
 4554SOL    HW114561   1.622   2.323   2.484 -0.3969  0.5367  0.3059
 4554SOL    HW214562   1.699   2.334   2.341 -0.6152  0.4542  0.1819
 4555SOL     OW14563   4.019   1.644   6.381  0.6552  0.6420  0.1655
 4555SOL    HW114564   3.921   1.625   6.378  0.8643 -0.9133  1.6730
 4555SOL    HW214565   4.062   1.611   6.296  0.0756 -0.0402  0.1278
 4556SOL     OW14566   5.964   1.429   5.896  0.4347  0.2889 -0.1085
 4556SOL    HW114567   5.983   1.503   5.831  0.9545 -0.0301 -0.3212
 4556SOL    HW214568   5.933   1.469   5.983  0.2895  0.7385 -0.3605
 4557SOL     OW14569   3.296   0.393   0.679  0.1502  0.7657  0.2850
 4557SOL    HW114570   3.262   0.475   0.726  1.3284 -0.4134  3.5093
 4557SOL    HW214571   3.377   0.359   0.727 -1.0647 -3.0384 -0.0649
 4558SOL     OW14572   6.293   1.822   2.015 -0.2429  0.2576 -0.3655
 4558SOL    HW114573   6.233   1.826   1.935  0.4463 -0.9201 -0.9630
 4558SOL    HW214574   6.386   1.797   1.986 -0.3883 -2.1379  0.9692
 4559SOL     OW14575   6.279   4.017   0.657 -0.2943  0.3022 -0.5843
 4559SOL    HW114576   6.262   4.097   0.715  0.8123  2.0679 -2.5627
 4559SOL    HW214577   6.353   3.963   0.696 -2.0950 -0.7790  1.6394
 4560SOL     OW14578   0.333   5.236   1.332 -0.4398 -0.1724 -0.6174
 4560SOL    HW114579   0.386   5.297   1.391 -1.6793 -1.5175  2.0792
 4560SOL    HW214580   0.390   5.205   1.256  1.4831  1.1408  0.2114
 4561SOL     OW14581   1.755   5.974   0.017  0.5457 -0.0260 -0.3245
 4561SOL    HW114582   1.696   5.977  -0.063  0.1209 -1.5156 -0.1043
 4561SOL    HW214583   1.850   5.993  -0.009  0.0946  1.6972 -0.7911
 4562SOL     OW14584   5.753   3.479   0.084  0.3477  0.1656 -0.2398
 4562SOL    HW114585   5.843   3.435   0.086 -0.0690 -0.7187 -0.4953
 4562SOL    HW214586   5.708   3.458  -0.002  0.2649  1.4016 -0.5291
 4563SOL     OW14587   6.909   0.451   3.548  0.4450  0.0483 -0.4364
 4563SOL    HW114588   6.917   0.370   3.606 -1.8966  0.9088  1.2087
 4563SOL    HW214589   6.978   0.518   3.575 -1.1900  0.8245  2.1522
 4564SOL     OW14590   3.170   6.482   1.545  0.5213 -0.3366 -0.2557
 4564SOL    HW114591   3.099   6.441   1.603  1.8153 -3.3053 -0.5949
 4564SOL    HW214592   3.249   6.506   1.601  0.9113 -1.1263 -0.4554
 4565SOL     OW14593   3.502   1.266   2.826 -0.5678 -0.3148  0.3428
 4565SOL    HW114594   3.473   1.170   2.822 -2.6212  0.2943 -2.1218
 4565SOL    HW214595   3.446   1.315   2.891 -0.2219 -0.5630  0.8337
 4566SOL     OW14596   6.581   0.398   4.541  0.0684  0.3826 -0.3225
 4566SOL    HW114597   6.544   0.320   4.590  0.0467 -0.1326 -1.1375
 4566SOL    HW214598   6.554   0.483   4.587  1.7971 -0.1157  1.7539
 4567SOL     OW14599   5.262   5.037   0.088 -0.1418  0.0306  0.9838
 4567SOL    HW114600   5.351   5.036   0.042  0.4935  0.4504  2.1393
 4567SOL    HW214601   5.209   5.115   0.056  0.3086  0.3441  0.9915
 4568SOL     OW14602   5.403   3.135   6.598 -0.5639  0.1069  0.2234
 4568SOL    HW114603   5.344   3.064   6.639  0.3818 -1.2013 -0.6086
 4568SOL    HW214604   5.361   3.169   6.515 -0.9797  0.4731  0.5773
 4569SOL     OW14605   3.851   2.956   3.682  0.0147  0.1207 -0.0990
 4569SOL    HW114606   3.769   2.906   3.711 -0.5495  1.3398  0.4690
 4569SOL    HW214607   3.895   2.906   3.607  0.7935 -2.4737  1.9036
 4570SOL     OW14608   5.010   5.279   4.274  0.1985  0.1499  0.2889
 4570SOL    HW114609   5.073   5.201   4.277  1.8440  1.3945  3.8713
 4570SOL    HW214610   5.035   5.339   4.198  0.2534 -1.6516 -1.2061
 4571SOL     OW14611   6.479   3.183   2.597  0.3646 -0.1877 -0.2712
 4571SOL    HW114612   6.556   3.128   2.630  0.5321  0.6269  0.7675
 4571SOL    HW214613   6.449   3.246   2.670 -0.2070  0.6772 -1.2193
 4572SOL     OW14614   6.230   2.617   4.617 -0.0074 -0.6660 -0.5488
 4572SOL    HW114615   6.242   2.649   4.523  0.7823 -0.3127 -0.3378
 4572SOL    HW214616   6.147   2.562   4.623 -0.6164  0.1479 -1.2330
 4573SOL     OW14617   1.761   1.690   3.372 -0.1734 -0.1061  0.0135
 4573SOL    HW114618   1.796   1.630   3.443  1.0023  1.2238  0.6026
 4573SOL    HW214619   1.710   1.765   3.414  0.8510  0.8989 -0.5108
 4574SOL     OW14620   1.903   2.180   2.045  0.1588 -0.2061 -0.4837
 4574SOL    HW114621   1.943   2.251   1.987  1.5649  0.1087  0.8212
 4574SOL    HW214622   1.841   2.124   1.990 -2.2202  2.8920 -1.2685
 4575SOL     OW14623   0.670   0.608   2.167  0.4869  0.2905 -0.3385
 4575SOL    HW114624   0.655   0.520   2.121  1.2128  0.5000 -0.9849
 4575SOL    HW214625   0.768   0.622   2.181  0.2432 -0.2468  2.2439
 4576SOL     OW14626   4.482   4.262   5.396 -0.4776 -0.0663  0.1341
 4576SOL    HW114627   4.424   4.308   5.463 -0.2962  0.5905 -0.1514
 4576SOL    HW214628   4.454   4.167   5.388 -0.0710 -0.3457  1.6412
 4577SOL     OW14629   1.417   2.849   6.554  0.4267  0.5126 -0.3095
 4577SOL    HW114630   1.460   2.813   6.470 -0.5925  1.1963 -1.1489
 4577SOL    HW214631   1.345   2.914   6.529 -0.6367 -0.0940  1.0800
 4578SOL     OW14632   1.081   2.523   3.441 -0.0354  0.3112  0.7209
 4578SOL    HW114633   1.115   2.615   3.419  0.0562  0.0382 -0.3394
 4578SOL    HW214634   1.064   2.473   3.356 -0.0080 -0.6861  1.2909
 4579SOL     OW14635   1.935   3.323   4.269  0.1833 -0.5084 -0.1633
 4579SOL    HW114636   1.906   3.418   4.272  0.2431 -0.5038  0.3617
 4579SOL    HW214637   1.925   3.288   4.176  0.3898  0.0789 -0.4083
 4580SOL     OW14638   5.504   6.748   3.000  0.0340  0.6145 -0.0045
 4580SOL    HW114639   5.523   6.787   2.910  1.5257  0.9789  0.4394
 4580SOL    HW214640   5.589   6.744   3.053 -0.6318 -0.5625  1.0135
 4581SOL     OW14641   6.311   5.395   3.562  0.4368 -0.0818  0.4684
 4581SOL    HW114642   6.365   5.474   3.531 -1.4843  1.0423 -0.1844
 4581SOL    HW214643   6.254   5.422   3.640 -0.1270 -0.8785  0.3428
 4582SOL     OW14644   6.668   3.705   1.839  0.1608  0.8973 -0.2164
 4582SOL    HW114645   6.634   3.611   1.841 -2.6477  1.6994 -2.7331
 4582SOL    HW214646   6.631   3.756   1.917  1.7761 -0.0197  1.2130
 4583SOL     OW14647   5.202   2.862   0.427  0.3795  0.6605 -0.1719
 4583SOL    HW114648   5.161   2.860   0.336  1.6587 -0.0317 -0.7529
 4583SOL    HW214649   5.185   2.775   0.473  1.4314  0.2514 -0.5355
 4584SOL     OW14650   2.978   0.001   2.055 -0.7362 -0.3317 -0.1739
 4584SOL    HW114651   3.045   0.054   2.004 -0.4230 -1.7419 -1.2903
 4584SOL    HW214652   2.988   0.019   2.152  1.6942 -0.9448 -0.2413
 4585SOL     OW14653   1.882   0.845   6.167 -0.4460 -0.4895  0.0542
 4585SOL    HW114654   1.808   0.795   6.124 -0.6402  1.4696 -2.0897
 4585SOL    HW214655   1.847   0.898   6.244 -0.4874 -2.4506  1.4493
 4586SOL     OW14656   0.413   0.310   5.547  0.2072 -0.0620 -0.2866
 4586SOL    HW114657   0.348   0.283   5.619 -0.3098 -0.0711 -0.7478
 4586SOL    HW214658   0.392   0.260   5.463 -0.7480  1.6941 -1.1529
 4587SOL     OW14659   5.954   6.744   3.812  0.1004 -0.1730 -0.0887
 4587SOL    HW114660   5.895   6.754   3.732 -0.4400  1.2446  0.4608
 4587SOL    HW214661   6.034   6.689   3.787  0.1152  0.5165 -1.6903
 4588SOL     OW14662   4.893   4.898   2.118 -0.1367 -0.0141 -0.0591
 4588SOL    HW114663   4.870   4.993   2.096  0.9387  0.8279  2.2521
 4588SOL    HW214664   4.870   4.879   2.213  3.3081 -0.8044  0.7533
 4589SOL     OW14665   3.221   6.150   3.539 -0.9452 -0.1925 -0.4622
 4589SOL    HW114666   3.238   6.155   3.440  2.3274 -0.8283 -0.0449
 4589SOL    HW214667   3.191   6.240   3.572  1.3314  1.0703 -1.5679
 4590SOL     OW14668   0.276   1.825   2.203 -0.3446  0.1019  0.0238
 4590SOL    HW114669   0.179   1.838   2.185 -0.4982  0.6256  1.1516
 4590SOL    HW214670   0.300   1.868   2.290  0.7625 -0.5779  0.0754
 4591SOL     OW14671   1.454   2.783   1.902  0.6664 -0.3788 -0.2558
 4591SOL    HW114672   1.401   2.813   1.982  1.0799  0.7936 -0.3986
 4591SOL    HW214673   1.550   2.771   1.929  1.0602  1.2642 -0.8291
 4592SOL     OW14674   3.753   3.326   2.598 -0.1315  0.2019 -0.3187
 4592SOL    HW114675   3.767   3.375   2.684  0.1751  0.9715 -0.8001
 4592SOL    HW214676   3.657   3.299   2.591 -0.0936 -0.1514  0.4103
 4593SOL     OW14677   1.970   5.978   1.296 -0.1387  0.0299  0.0580
 4593SOL    HW114678   1.932   5.886   1.290 -1.4193  0.6308 -1.9762
 4593SOL    HW214679   1.979   6.017   1.204 -0.5065  2.2846  0.9145
 4594SOL     OW14680   6.270   5.820   1.769 -0.3678 -0.1732  0.9019
 4594SOL    HW114681   6.270   5.857   1.862 -0.3560  1.2095  0.3893
 4594SOL    HW214682   6.302   5.726   1.770 -1.0893 -0.4329  2.3822
 4595SOL     OW14683   6.268   4.508   2.791  0.1791  0.2389 -0.4753
 4595SOL    HW114684   6.192   4.554   2.745  0.2673  0.3468 -0.5146
 4595SOL    HW214685   6.234   4.456   2.869 -0.2385 -1.3965 -1.6920
 4596SOL     OW14686   4.691   6.879   2.490  0.0565 -0.0688 -0.7164
 4596SOL    HW114687   4.754   6.804   2.509  0.1941  0.5751  1.7740
 4596SOL    HW214688   4.674   6.885   2.392  0.6831 -2.7947 -1.0528
 4597SOL     OW14689   1.599   5.976   6.787  0.5069  0.3539 -0.0471
 4597SOL    HW114690   1.607   5.878   6.772  0.8369  0.3964 -0.1654
 4597SOL    HW214691   1.511   6.009   6.753  0.1742  0.0136  0.4605
 4598SOL     OW14692   1.657   1.920   4.651  0.5460 -0.0888 -0.0502
 4598SOL    HW114693   1.733   1.979   4.624  0.1119  0.1373 -0.8242
 4598SOL    HW214694   1.656   1.839   4.592  0.1388 -0.0481 -0.1005
 4599SOL     OW14695   4.754   5.953   3.214 -0.4067 -0.1810  0.2827
 4599SOL    HW114696   4.812   5.893   3.269  0.3139  1.1605  1.0364
 4599SOL    HW214697   4.673   5.979   3.266 -0.3953  0.0185  0.2042
 4600SOL     OW14698   1.252   5.755   2.833  0.0224  0.2227  0.4563
 4600SOL    HW114699   1.336   5.806   2.854  0.5262 -0.9870  1.4947
 4600SOL    HW214700   1.193   5.755   2.914  0.0075 -0.8052  0.4474
 4601SOL     OW14701   0.518   1.394   1.975 -0.5686 -0.1658 -0.3341
 4601SOL    HW114702   0.481   1.340   2.051 -1.2379  2.0279  0.9921
 4601SOL    HW214703   0.443   1.422   1.914 -0.3367 -0.0877 -0.5853
 4602SOL     OW14704   0.966   4.726   5.127  0.1240  0.3276  0.2160
 4602SOL    HW114705   1.040   4.662   5.147  0.0399 -0.0359 -0.6009
 4602SOL    HW214706   1.000   4.820   5.135 -0.3122  0.2923  3.6333
 4603SOL     OW14707   0.211   1.677   3.218  0.0608  0.0503  0.2771
 4603SOL    HW114708   0.148   1.599   3.214 -0.0524  0.1389  0.3463
 4603SOL    HW214709   0.302   1.644   3.245  0.0357 -0.0709  0.2183
 4604SOL     OW14710   5.806   6.714   5.423 -0.0431 -0.0428  0.3944
 4604SOL    HW114711   5.894   6.698   5.468  0.9178 -1.0174 -1.6720
 4604SOL    HW214712   5.775   6.808   5.442 -0.2753 -0.6745  3.8260
 4605SOL     OW14713   5.609   2.420   3.141  0.2489 -0.0763  0.5072
 4605SOL    HW114714   5.558   2.428   3.227 -1.0519 -0.6552 -0.1850
 4605SOL    HW214715   5.701   2.386   3.160 -0.3862 -1.2836  1.5664
 4606SOL     OW14716   0.062   0.934   5.066 -0.1008 -1.0407 -0.3317
 4606SOL    HW114717   0.162   0.941   5.063  0.0402 -2.8994 -0.9618
 4606SOL    HW214718   0.028   0.906   4.976 -1.1475 -0.9361  0.0205
 4607SOL     OW14719   4.816   4.602   6.032  0.2548 -0.0009 -0.4314
 4607SOL    HW114720   4.760   4.526   5.999  0.5216 -0.5271  0.3052
 4607SOL    HW214721   4.757   4.669   6.076  0.3731 -1.8785  2.9260
 4608SOL     OW14722   4.741   5.778   1.766  0.2915  0.4873  0.5714
 4608SOL    HW114723   4.715   5.760   1.861  0.2766  0.2164  0.5186
 4608SOL    HW214724   4.672   5.741   1.705 -0.5281  2.0894  0.4784
 4609SOL     OW14725   0.509   2.339   6.738  0.3262 -0.1594 -0.7950
 4609SOL    HW114726   0.459   2.286   6.670  0.2736 -1.0978 -0.0449
 4609SOL    HW214727   0.606   2.340   6.714  0.6045 -2.0473  0.0497
 4610SOL     OW14728   6.948   4.144   5.702  0.1487 -0.4041  0.3297
 4610SOL    HW114729   6.930   4.052   5.668 -2.3363  0.1497 -0.0793
 4610SOL    HW214730   7.047   4.160   5.706  0.6094 -2.4448 -1.2646
 4611SOL     OW14731   6.870   5.811   6.598  0.6123 -0.1328  0.2784
 4611SOL    HW114732   6.915   5.898   6.576  0.3167 -0.1722 -0.5199
 4611SOL    HW214733   6.826   5.818   6.687  1.5502  0.1561  0.7350
 4612SOL     OW14734   0.793   4.201   4.897  0.1481  0.6798  0.0628
 4612SOL    HW114735   0.807   4.195   4.798 -1.8521  1.3567 -0.3143
 4612SOL    HW214736   0.804   4.111   4.937 -0.8193  0.0223 -1.0729
 4613SOL     OW14737   2.854   3.530   0.944 -0.2354 -0.2043 -0.1990
 4613SOL    HW114738   2.773   3.541   0.886  0.5984  1.5045 -1.0882
 4613SOL    HW214739   2.840   3.581   1.029 -0.6019 -0.9978  0.2323
 4614SOL     OW14740   6.933   6.872   2.297  0.1731 -0.0749  0.3972
 4614SOL    HW114741   6.951   6.907   2.389  0.5644 -0.2572  0.3928
 4614SOL    HW214742   6.891   6.943   2.241  2.1280  0.8396 -0.0060
 4615SOL     OW14743   5.017   1.232   6.353  0.4035  0.2695 -0.2165
 4615SOL    HW114744   5.010   1.284   6.438 -0.1203  0.0337 -0.1048
 4615SOL    HW214745   5.073   1.150   6.368  0.5891  0.4011 -0.1895
 4616SOL     OW14746   3.523   6.358   3.854  0.3034  0.3649 -0.1430
 4616SOL    HW114747   3.478   6.318   3.935 -0.0122 -0.3150 -0.6399
 4616SOL    HW214748   3.460   6.422   3.809  0.1145  0.0060 -0.3953
 4617SOL     OW14749   4.135   0.826   2.659 -0.2701  0.0140  0.0204
 4617SOL    HW114750   4.232   0.807   2.674 -0.2178  0.1843 -0.0973
 4617SOL    HW214751   4.081   0.787   2.734 -0.1237 -0.1987  0.0152
 4618SOL     OW14752   1.479   0.329   0.177  0.1762 -0.0028 -0.4919
 4618SOL    HW114753   1.523   0.252   0.223 -1.4031 -0.5652  0.1433
 4618SOL    HW214754   1.389   0.301   0.143 -0.4613  1.5714 -0.1984
 4619SOL     OW14755   3.978   6.703   2.642  0.4576  0.2919 -0.0699
 4619SOL    HW114756   3.891   6.742   2.674  0.5883  1.0905 -0.6807
 4619SOL    HW214757   4.030   6.772   2.593  0.8557 -0.5444 -0.8630
 4620SOL     OW14758   5.341   5.105   1.917  0.3867  0.6083 -0.1271
 4620SOL    HW114759   5.321   5.015   1.878 -0.6237  0.6493  0.2814
 4620SOL    HW214760   5.377   5.094   2.010 -2.3349  0.6872  1.0098
 4621SOL     OW14761   0.623   2.586   6.059  0.7274  0.3287 -0.1271
 4621SOL    HW114762   0.609   2.493   6.094 -0.6030  0.3951 -0.4432
 4621SOL    HW214763   0.721   2.603   6.048  1.0335 -0.6926  0.8460
 4622SOL     OW14764   5.547   1.157   1.892  0.1766 -0.1046 -0.0801
 4622SOL    HW114765   5.478   1.155   1.964 -1.7009  1.4650 -1.7396
 4622SOL    HW214766   5.625   1.213   1.923 -0.6388  0.6330  0.6933
 4623SOL     OW14767   2.426   6.188   3.175 -0.2930 -0.1135 -0.2581
 4623SOL    HW114768   2.391   6.200   3.082 -0.2382 -2.9034 -0.7463
 4623SOL    HW214769   2.512   6.237   3.186 -0.1128 -0.0536 -1.8035
 4624SOL     OW14770   6.093   2.152   1.146 -0.1946  0.2530  0.3380
 4624SOL    HW114771   6.191   2.141   1.163  0.0159  3.8953  2.4580
 4624SOL    HW214772   6.072   2.248   1.128 -3.4500 -0.3120  0.4316
 4625SOL     OW14773   0.442   6.480   0.194  0.1150 -0.1652  0.0966
 4625SOL    HW114774   0.417   6.577   0.200  0.2519 -0.1747  0.8232
 4625SOL    HW214775   0.392   6.439   0.117 -0.0778  0.4347 -0.1128
 4626SOL     OW14776   3.695   3.131   0.639  0.0585 -0.0630  0.1617
 4626SOL    HW114777   3.689   3.083   0.551  0.1314  0.7661 -0.2973
 4626SOL    HW214778   3.751   3.077   0.702 -0.3584 -0.8808 -0.1468
 4627SOL     OW14779   4.524   5.679   3.837  0.0125  0.7310  0.1557
 4627SOL    HW114780   4.457   5.753   3.838  0.7712  1.6201 -3.0059
 4627SOL    HW214781   4.579   5.683   3.920 -2.1571  1.5413  1.6470
 4628SOL     OW14782   1.952   2.087   4.410 -0.0176  0.2276 -0.1250
 4628SOL    HW114783   1.888   2.040   4.350  0.1928 -0.9121  0.5255
 4628SOL    HW214784   2.028   2.026   4.433 -0.0337  0.6809  1.2067
 4629SOL     OW14785   4.726   6.337   2.159  0.2161 -0.6219 -0.5658
 4629SOL    HW114786   4.687   6.277   2.228  1.5709  0.2816  1.0733
 4629SOL    HW214787   4.653   6.387   2.113 -0.6700  0.2134  1.6314
 4630SOL     OW14788   2.221   2.749   3.212 -0.0087  0.2931  0.2259
 4630SOL    HW114789   2.250   2.655   3.192 -1.6667 -0.3777  0.7702
 4630SOL    HW214790   2.122   2.756   3.200  0.2880  2.5059 -1.7135
 4631SOL     OW14791   1.367   5.040   4.391  0.0712 -0.2537  0.1945
 4631SOL    HW114792   1.382   4.984   4.310 -0.9606  1.1655 -1.0379
 4631SOL    HW214793   1.454   5.057   4.438  0.7911 -0.5115 -1.0208
 4632SOL     OW14794   0.196   3.001   2.353  0.2836 -0.3951 -0.0587
 4632SOL    HW114795   0.166   3.054   2.274 -1.6831 -1.8983 -0.3805
 4632SOL    HW214796   0.195   2.904   2.331  1.8523 -0.7292  1.1543
 4633SOL     OW14797   1.004   1.889   3.050 -0.6026 -0.4190  0.1067
 4633SOL    HW114798   1.051   1.807   3.082 -0.1016 -0.4482 -0.6875
 4633SOL    HW214799   1.036   1.913   2.959 -1.2255  0.2856  0.0604
 4634SOL     OW14800   6.754   5.425   2.921  0.4283 -0.8879 -0.2462
 4634SOL    HW114801   6.845   5.392   2.945  0.7808 -1.1173 -1.8147
 4634SOL    HW214802   6.725   5.384   2.835 -1.1269 -0.7307  0.1592
 4635SOL     OW14803   6.158   0.366   2.833 -0.5934  0.4095  0.2617
 4635SOL    HW114804   6.067   0.390   2.867 -0.6090 -0.7319  1.1022
 4635SOL    HW214805   6.177   0.417   2.749 -1.7282  1.1655  0.4380
 4636SOL     OW14806   4.114   3.526   3.593  0.1964  0.2093 -0.0196
 4636SOL    HW114807   4.027   3.542   3.547 -0.1020  1.5903  0.9296
 4636SOL    HW214808   4.189   3.540   3.529 -0.2480  0.1873 -0.5538
 4637SOL     OW14809   5.319   4.851   1.536 -0.2188  0.1122  0.3527
 4637SOL    HW114810   5.317   4.862   1.436  1.7471 -0.4356  0.2085
 4637SOL    HW214811   5.369   4.768   1.559 -0.7702  0.1640  1.8129
 4638SOL     OW14812   1.234   6.366   6.500 -0.5686 -0.3206  0.0302
 4638SOL    HW114813   1.199   6.439   6.559 -0.8006 -1.6573  1.6651
 4638SOL    HW214814   1.205   6.277   6.538  1.9846 -1.3744 -0.3206
 4639SOL     OW14815   5.071   1.455   4.963 -0.0257  0.5916  0.9153
 4639SOL    HW114816   5.098   1.519   4.891 -1.5472  0.7528  0.4517
 4639SOL    HW214817   5.146   1.392   4.982  0.8071  1.2908  0.0155
 4640SOL     OW14818   0.067   3.160   0.759 -0.1440 -0.9287  0.0711
 4640SOL    HW114819   0.087   3.069   0.796  0.3390 -0.0239  2.1422
 4640SOL    HW214820   0.039   3.151   0.663 -1.2821 -3.3661  0.5567
 4641SOL     OW14821   3.835   2.173   2.905 -0.3894 -0.3188  0.3364
 4641SOL    HW114822   3.899   2.249   2.892  1.2366 -1.9231 -1.5840
 4641SOL    HW214823   3.804   2.139   2.817 -0.7289 -2.1652  1.1146
 4642SOL     OW14824   0.964   6.445   5.854 -0.3790 -0.1077  0.7135
 4642SOL    HW114825   1.010   6.361   5.883 -1.0076 -1.1981 -1.2865
 4642SOL    HW214826   1.028   6.522   5.859  1.6758 -1.5268 -1.7186
 4643SOL     OW14827   5.313   3.114   0.075  0.4268  0.4628 -0.3846
 4643SOL    HW114828   5.309   3.144   0.170  3.0588 -1.8372  0.5805
 4643SOL    HW214829   5.394   3.152   0.031  1.3845 -1.5423 -0.4477
 4644SOL     OW14830   1.900   6.569   1.803  0.2684 -0.1643 -0.0775
 4644SOL    HW114831   1.922   6.628   1.726 -0.6400  0.1099 -0.1347
 4644SOL    HW214832   1.973   6.502   1.815  0.4820 -0.1329 -1.0997
 4645SOL     OW14833   5.421   0.205   3.907  0.4285  0.3060 -0.2445
 4645SOL    HW114834   5.516   0.233   3.920 -0.0099  1.9469 -0.3445
 4645SOL    HW214835   5.388   0.159   3.990  1.5696 -1.1658 -0.5634
 4646SOL     OW14836   2.384   4.241   3.362  0.1669 -0.1030  0.1246
 4646SOL    HW114837   2.291   4.274   3.378  0.4156  1.1393 -0.8983
 4646SOL    HW214838   2.435   4.246   3.447 -0.4137  0.1368  0.4700
 4647SOL     OW14839   6.200   6.504   0.969 -0.0944 -0.3900 -0.2270
 4647SOL    HW114840   6.207   6.544   1.060 -2.7534 -2.2029  0.9068
 4647SOL    HW214841   6.232   6.409   0.973 -0.2583 -0.4921 -1.1964
 4648SOL     OW14842   0.582   4.558   2.007 -0.0238  0.9265 -0.1094
 4648SOL    HW114843   0.551   4.481   2.063 -1.2764  1.6373  0.2234
 4648SOL    HW214844   0.681   4.550   1.991  0.1897  0.1805  1.3677
 4649SOL     OW14845   4.990   3.025   6.237 -0.0083 -0.2292  0.5537
 4649SOL    HW114846   4.927   3.012   6.160  0.5915 -0.6101  0.1090
 4649SOL    HW214847   4.945   3.076   6.310 -0.2259  1.1690 -0.5253
 4650SOL     OW14848   0.377   4.098   1.955 -0.0498  0.1012  0.2388
 4650SOL    HW114849   0.422   4.182   1.983  1.7183 -0.9634  0.7617
 4650SOL    HW214850   0.278   4.111   1.956  0.1848  2.2072  0.1060
 4651SOL     OW14851   1.059   1.272   0.797  0.0838  0.6242 -0.1064
 4651SOL    HW114852   1.070   1.304   0.703  0.9876  0.4637 -0.0686
 4651SOL    HW214853   1.149   1.268   0.841 -0.4301  1.7066  1.1035
 4652SOL     OW14854   5.588   2.930   6.501  0.4525 -0.4999 -0.3652
 4652SOL    HW114855   5.563   3.020   6.535  0.6536 -0.0207 -1.4503
 4652SOL    HW214856   5.584   2.864   6.576 -0.4965  0.2441  0.2591
 4653SOL     OW14857   5.251   6.757   5.294 -0.5298 -0.3560  0.5279
 4653SOL    HW114858   5.308   6.839   5.287 -0.7292 -0.0634  1.9642
 4653SOL    HW214859   5.179   6.761   5.225 -0.3109  0.5097  0.3358
 4654SOL     OW14860   4.801   3.117   4.199 -0.4902  0.2862  0.0993
 4654SOL    HW114861   4.777   3.170   4.118  2.0663  2.3577  0.5907
 4654SOL    HW214862   4.791   3.019   4.179 -0.4700  0.7526 -2.5008
 4655SOL     OW14863   1.152   6.682   5.907 -0.7488  0.1269  0.4036
 4655SOL    HW114864   1.248   6.656   5.897 -0.6632  0.5086  0.2287
 4655SOL    HW214865   1.145   6.780   5.923 -1.1216  0.1340  0.2235
 4656SOL     OW14866   1.101   3.378   1.979 -1.1022 -0.3456 -0.4303
 4656SOL    HW114867   1.179   3.327   1.941  0.3003  0.1842  1.5566
 4656SOL    HW214868   1.104   3.472   1.947 -0.1553 -0.0006  0.6196
 4657SOL     OW14869   4.580   5.543   0.758 -0.0369  0.0819  0.3772
 4657SOL    HW114870   4.679   5.529   0.751 -0.2319 -1.3602  0.1602
 4657SOL    HW214871   4.559   5.589   0.844  0.7668 -0.3769  0.8363
 4658SOL     OW14872   2.938   4.286   1.682 -0.5419 -0.2513  0.0368
 4658SOL    HW114873   2.855   4.247   1.642  0.3026 -1.9425 -0.1490
 4658SOL    HW214874   2.915   4.335   1.766 -1.8783  0.4178 -0.6780
 4659SOL     OW14875   0.582   3.198   0.751  0.1342 -0.4183 -0.2087
 4659SOL    HW114876   0.573   3.262   0.827 -0.1124  3.1549 -2.9180
 4659SOL    HW214877   0.492   3.164   0.725 -0.2396  0.8770 -0.7278
 4660SOL     OW14878   4.774   4.778   2.972  0.2828  0.6129  0.5414
 4660SOL    HW114879   4.746   4.823   2.887 -0.1038  0.9195  0.8228
 4660SOL    HW214880   4.695   4.771   3.033  0.1255 -1.2179  0.1887
 4661SOL     OW14881   0.065   2.057   6.593 -0.5444 -0.1234  0.1483
 4661SOL    HW114882   0.051   2.019   6.684 -1.4665 -0.7476 -0.2384
 4661SOL    HW214883   0.119   1.993   6.538 -0.0613  0.2139  0.2191
 4662SOL     OW14884   4.960   4.813   3.381 -0.1605 -0.5781 -0.5663
 4662SOL    HW114885   4.997   4.764   3.460  0.2815 -1.0629 -1.0579
 4662SOL    HW214886   4.899   4.752   3.330 -2.0754  0.3707  0.5034
 4663SOL     OW14887   1.833   0.364   2.207 -0.3165  0.1682 -0.3029
 4663SOL    HW114888   1.789   0.426   2.272 -0.8701 -0.0154 -0.4950
 4663SOL    HW214889   1.880   0.417   2.136  2.4795  0.4507  1.5930
 4664SOL     OW14890   1.291   4.083   1.208  0.3042 -0.4431 -0.4294
 4664SOL    HW114891   1.380   4.126   1.222 -0.4888  1.5843 -1.1547
 4664SOL    HW214892   1.237   4.139   1.143 -1.0695 -2.2170 -0.8942
 4665SOL     OW14893   1.838   3.010   5.769  0.1922  0.2522 -0.6533
 4665SOL    HW114894   1.835   2.913   5.745 -1.2624  0.7222 -2.6049
 4665SOL    HW214895   1.925   3.031   5.813  1.3624 -1.5489 -1.9978
 4666SOL     OW14896   3.107   0.106   0.600  0.6791  0.5028 -0.1168
 4666SOL    HW114897   3.076   0.054   0.521 -0.0971 -1.8466  1.6419
 4666SOL    HW214898   3.065   0.197   0.598 -1.2269 -0.3459 -1.1681
 4667SOL     OW14899   5.668   5.272   4.759 -0.6712  0.1087  1.2319
 4667SOL    HW114900   5.730   5.332   4.708 -0.6448 -0.4003  0.6421
 4667SOL    HW214901   5.598   5.327   4.804 -1.6276  0.5135 -0.6441
 4668SOL     OW14902   6.744   0.291   4.193  0.1636 -0.2708  0.6968
 4668SOL    HW114903   6.769   0.239   4.275 -2.4631  0.0194  1.7941
 4668SOL    HW214904   6.695   0.374   4.219 -2.6188 -1.1746 -1.0754
 4669SOL     OW14905   0.389   5.388   1.961  0.3051 -0.2035 -0.3629
 4669SOL    HW114906   0.483   5.363   1.936  0.2791  0.5332 -1.2469
 4669SOL    HW214907   0.327   5.361   1.887  0.2026  1.8789 -1.1001
 4670SOL     OW14908   2.279   1.809   4.754 -0.3920 -0.1352  0.4071
 4670SOL    HW114909   2.216   1.851   4.819  1.1004 -0.7382  2.3207
 4670SOL    HW214910   2.366   1.859   4.754 -0.1364 -0.5411 -0.6648
 4671SOL     OW14911   6.419   3.248   2.153 -0.3277 -0.0616  0.0226
 4671SOL    HW114912   6.435   3.346   2.140  1.7201 -0.4841 -1.1224
 4671SOL    HW214913   6.378   3.233   2.242 -0.7542  1.8355  0.2023
 4672SOL     OW14914   5.113   6.619   0.681 -0.3234  0.6137  0.1930
 4672SOL    HW114915   5.034   6.679   0.696 -0.7223  0.1222  0.0601
 4672SOL    HW214916   5.130   6.611   0.582 -1.3424 -0.8664  0.1112
 4673SOL     OW14917   0.765   1.569   0.968 -0.0634  0.3262  0.3006
 4673SOL    HW114918   0.741   1.502   1.039  0.0468 -0.2618 -0.2088
 4673SOL    HW214919   0.681   1.615   0.938 -0.0033  1.1929  1.4061
 4674SOL     OW14920   3.161   0.798   4.372 -0.6062  0.5674  0.1941
 4674SOL    HW114921   3.188   0.764   4.462 -0.4190 -0.2879 -0.1715
 4674SOL    HW214922   3.115   0.886   4.381 -0.9007  0.3219  1.1587
 4675SOL     OW14923   2.379   1.320   4.476  0.6007 -0.3322  0.3779
 4675SOL    HW114924   2.449   1.252   4.496  0.0584 -1.0779 -0.1925
 4675SOL    HW214925   2.350   1.311   4.381  1.5073  1.6321 -0.1421
 4676SOL     OW14926   3.911   4.709   5.680 -0.3060 -0.4493 -0.4186
 4676SOL    HW114927   4.003   4.682   5.649  1.7521  2.9539  1.9881
 4676SOL    HW214928   3.888   4.798   5.642 -0.7015  0.6652  2.2300
 4677SOL     OW14929   1.965   3.025   0.748  0.0334  0.2500  0.0921
 4677SOL    HW114930   2.031   3.089   0.788  1.3316 -1.8657  1.5394
 4677SOL    HW214931   1.888   3.013   0.809 -0.4810  0.8226 -0.4338
 4678SOL     OW14932   0.799   3.264   4.781  0.3322 -0.6786 -0.1654
 4678SOL    HW114933   0.740   3.323   4.836 -0.8509 -0.7346 -1.3408
 4678SOL    HW214934   0.751   3.235   4.698  1.4208 -2.0857 -0.3552
 4679SOL     OW14935   1.868   0.389   0.205  0.3288  0.5738 -0.3410
 4679SOL    HW114936   1.848   0.440   0.121 -0.1043 -0.7254 -1.0549
 4679SOL    HW214937   1.913   0.303   0.181 -0.3290 -0.0770  0.7211
 4680SOL     OW14938   3.251   3.873   6.114 -0.6875 -0.2380 -0.5371
 4680SOL    HW114939   3.187   3.877   6.037 -0.7727 -0.6623 -0.4907
 4680SOL    HW214940   3.331   3.930   6.093 -1.2877  0.6800 -0.3904
 4681SOL     OW14941   3.307   1.430   6.195 -0.0002 -0.6246  0.7947
 4681SOL    HW114942   3.326   1.355   6.131  1.3980 -0.2319  0.7153
 4681SOL    HW214943   3.379   1.434   6.264 -0.3337  0.3211  1.1054
 4682SOL     OW14944   4.332   1.053   3.524  0.1920 -0.6966 -0.1805
 4682SOL    HW114945   4.343   1.132   3.585  3.2496  0.3192 -1.8321
 4682SOL    HW214946   4.292   1.083   3.437  1.0243 -1.0051 -0.6782
 4683SOL     OW14947   5.303   2.004   0.736 -0.1349 -0.3808 -0.5774
 4683SOL    HW114948   5.228   1.964   0.788 -0.4745 -1.1939 -1.6669
 4683SOL    HW214949   5.363   2.055   0.798 -1.8012  0.6526  0.2573
 4684SOL     OW14950   0.621   1.106   6.644 -0.1929 -0.0948 -0.1799
 4684SOL    HW114951   0.574   1.144   6.564 -0.2327  0.2231 -0.0075
 4684SOL    HW214952   0.716   1.139   6.646  0.3614 -1.5246 -1.0791
 4685SOL     OW14953   4.339   1.257   6.546  0.6525  0.0484 -1.1955
 4685SOL    HW114954   4.338   1.342   6.599  0.2330 -0.3181 -0.6003
 4685SOL    HW214955   4.245   1.227   6.530  0.7714  0.1491 -2.1584
 4686SOL     OW14956   3.793   1.781   0.145 -0.7250 -0.0730  0.3590
 4686SOL    HW114957   3.718   1.721   0.118 -1.1281  0.9292 -0.8842
 4686SOL    HW214958   3.847   1.805   0.064 -1.1508  1.9524  0.5981
 4687SOL     OW14959   1.561   6.267   1.881 -0.1617 -0.2949 -0.0505
 4687SOL    HW114960   1.588   6.184   1.832  0.7634 -0.5743  0.9211
 4687SOL    HW214961   1.590   6.348   1.829 -1.3391 -0.5503 -1.1542
 4688SOL     OW14962   4.051   0.672   5.873  0.0171 -0.7062  0.1071
 4688SOL    HW114963   4.075   0.625   5.958  1.0366  0.6449  0.5864
 4688SOL    HW214964   3.968   0.726   5.887  0.1294 -0.5617  0.2130
 4689SOL     OW14965   5.436   0.606   0.484 -0.3812 -0.2134 -0.0130
 4689SOL    HW114966   5.521   0.648   0.513 -0.3562  0.7389 -1.4072
 4689SOL    HW214967   5.374   0.598   0.563  0.8439 -0.6101  0.9367
 4690SOL     OW14968   0.330   6.604   3.512  0.5227 -0.4078 -0.2066
 4690SOL    HW114969   0.256   6.544   3.485 -0.0830  0.6104 -0.8434
 4690SOL    HW214970   0.354   6.665   3.437  0.5817  0.6941  0.6855
 4691SOL     OW14971   2.700   7.009   2.480  0.5387 -0.3550  0.2533
 4691SOL    HW114972   2.735   6.927   2.434 -1.6413 -1.3714  0.2482
 4691SOL    HW214973   2.636   6.982   2.552 -1.6032  1.3212 -0.9010
 4692SOL     OW14974   3.566   4.927   5.530  0.0393  0.1827  0.1479
 4692SOL    HW114975   3.575   4.864   5.453  0.1039 -0.6748  0.8411
 4692SOL    HW214976   3.506   4.887   5.599  0.5391  0.6339  0.8552
 4693SOL     OW14977   6.515   2.738   1.102  0.0369 -0.2045 -0.2426
 4693SOL    HW114978   6.417   2.735   1.122  0.1969  0.2185  0.6165
 4693SOL    HW214979   6.564   2.778   1.179  1.1094 -2.0479  0.0922
 4694SOL     OW14980   6.917   6.252   1.483  0.4477 -0.1030  0.2555
 4694SOL    HW114981   6.906   6.305   1.399 -0.1128  0.8174  0.8910
 4694SOL    HW214982   6.834   6.198   1.499 -0.0536  0.8318  0.9489
 4695SOL     OW14983   5.039   1.551   2.713  0.4090 -0.0034  0.0981
 4695SOL    HW114984   4.965   1.503   2.761  2.6948 -1.0497  2.8659
 4695SOL    HW214985   5.026   1.649   2.723 -0.7343 -0.1603  0.3047
 4696SOL     OW14986   0.643   5.620   4.061 -0.0332 -0.5697  0.0842
 4696SOL    HW114987   0.624   5.717   4.046 -0.1601 -0.7555 -1.0326
 4696SOL    HW214988   0.742   5.606   4.067 -0.0467 -0.1180  2.2416
 4697SOL     OW14989   0.426   0.934   2.447  0.7446  0.4864  0.3002
 4697SOL    HW114990   0.483   0.995   2.392  3.3675 -1.5836  0.5167
 4697SOL    HW214991   0.451   0.839   2.428 -0.9575 -0.4385  2.2776
 4698SOL     OW14992   5.954   0.476   1.748 -0.4988 -0.2253 -0.0341
 4698SOL    HW114993   5.947   0.470   1.848 -0.4786 -0.0640 -0.0232
 4698SOL    HW214994   6.031   0.421   1.717 -1.0619 -1.0366 -0.0449
 4699SOL     OW14995   1.559   4.444   5.911  0.2587  0.2993 -0.0737
 4699SOL    HW114996   1.541   4.366   5.971 -0.4156 -0.1087 -0.7833
 4699SOL    HW214997   1.541   4.417   5.816 -0.8010  1.5443 -0.2607
 4700SOL     OW14998   0.795   6.288   3.460  0.3682 -0.0060  0.4524
 4700SOL    HW114999   0.732   6.220   3.499  0.5275 -0.2204  0.3425
 4700SOL    HW215000   0.776   6.378   3.498  0.4871 -0.2031  0.9851
 4701SOL     OW15001   6.588   4.935   3.921  0.2173 -0.4987  0.1286
 4701SOL    HW115002   6.670   4.977   3.884 -0.3520  0.3154 -0.2383
 4701SOL    HW215003   6.590   4.940   4.021  0.1919  0.3543  0.0939
 4702SOL     OW15004   5.066   2.163   6.950 -0.1336 -0.0653  0.4614
 4702SOL    HW115005   5.076   2.099   6.874  0.9890  0.4589  0.1611
 4702SOL    HW215006   4.990   2.133   7.008 -0.0313 -1.3149 -0.0202
 4703SOL     OW15007   1.529   0.837   1.515 -0.2314  0.3882  0.1042
 4703SOL    HW115008   1.623   0.864   1.495 -0.6176  1.0941 -0.8413
 4703SOL    HW215009   1.509   0.750   1.470 -0.0246  0.2200  0.3348
 4704SOL     OW15010   6.522   5.723   1.960  0.1381  0.5205 -0.3689
 4704SOL    HW115011   6.611   5.760   1.934 -0.3750  1.7301 -0.4475
 4704SOL    HW215012   6.504   5.743   2.056  0.1937 -0.2415 -0.1891
 4705SOL     OW15013   3.667   2.476   5.872 -0.4153 -0.4803  0.1577
 4705SOL    HW115014   3.613   2.404   5.915 -1.8695  0.0706 -0.6674
 4705SOL    HW215015   3.606   2.536   5.821  1.0335  0.0332 -1.0105
 4706SOL     OW15016   5.639   0.865   1.747  0.3194  0.8717 -0.4937
 4706SOL    HW115017   5.582   0.823   1.817  0.0743 -0.8651 -1.6691
 4706SOL    HW215018   5.634   0.965   1.755 -1.8682  0.7551  0.2328
 4707SOL     OW15019   3.809   0.362   4.785  0.0052 -0.2871  0.0350
 4707SOL    HW115020   3.714   0.382   4.806 -0.0284 -0.9057  0.5029
 4707SOL    HW215021   3.814   0.295   4.711  0.0972  0.2469 -0.4571
 4708SOL     OW15022   5.304   6.591   6.749  0.2518 -0.0838 -0.4398
 4708SOL    HW115023   5.386   6.581   6.805 -0.2080  1.1642  0.5187
 4708SOL    HW215024   5.329   6.625   6.658  0.7629  0.9249  0.0596
 4709SOL     OW15025   2.912   6.767   0.742 -0.3637 -0.4557 -0.0306
 4709SOL    HW115026   2.979   6.842   0.745 -0.6743 -0.2058  0.9648
 4709SOL    HW215027   2.959   6.682   0.715 -0.0312  0.0983 -1.2837
 4710SOL     OW15028   3.961   1.215   3.937  0.0840 -0.2731  0.1276
 4710SOL    HW115029   4.014   1.146   3.987  1.5248  2.0808  2.0766
 4710SOL    HW215030   3.885   1.246   3.993 -0.7920 -0.4888 -0.8946
 4711SOL     OW15031   5.396   0.319   2.548  0.5082  0.6898  0.0034
 4711SOL    HW115032   5.460   0.247   2.574  2.9846  2.4937 -0.6315
 4711SOL    HW215033   5.343   0.347   2.627 -0.1179 -1.3821  0.3810
 4712SOL     OW15034   0.509   2.693   3.514  0.0989 -0.1932 -0.3738
 4712SOL    HW115035   0.473   2.634   3.442 -2.1217  1.0999 -0.4203
 4712SOL    HW215036   0.549   2.775   3.473 -0.2779  0.0930 -0.1682
 4713SOL     OW15037   3.504   3.843   0.101 -0.1873 -0.2149  0.1631
 4713SOL    HW115038   3.455   3.924   0.134 -0.2014  0.0600 -0.5296
 4713SOL    HW215039   3.440   3.780   0.057 -0.7574 -2.0626  3.3266
 4714SOL     OW15040   0.754   4.067   3.465 -0.2075 -0.3144 -0.3072
 4714SOL    HW115041   0.819   4.120   3.519 -1.8155  0.8101  0.5955
 4714SOL    HW215042   0.770   3.969   3.480  0.9220 -0.0569  0.2814
 4715SOL     OW15043   2.017   6.249   3.043  0.0566  0.3630 -0.0299
 4715SOL    HW115044   1.981   6.342   3.046  2.0687  1.1902  0.1953
 4715SOL    HW215045   1.971   6.193   3.112  0.1495  1.7124  1.1720
 4716SOL     OW15046   5.621   0.274   4.819  0.3175 -0.2668  0.1871
 4716SOL    HW115047   5.553   0.346   4.832  1.0037  0.3047  0.6680
 4716SOL    HW215048   5.686   0.274   4.895  2.1302  0.6273 -1.2719
 4717SOL     OW15049   0.198   7.016   2.038 -0.6039  0.6175 -0.3018
 4717SOL    HW115050   0.157   7.087   2.096 -0.8083  0.2207  0.0437
 4717SOL    HW215051   0.230   6.941   2.095  0.2746  0.7537 -0.6005
 4718SOL     OW15052   0.546   0.035   2.899  0.3619 -0.5461 -0.3694
 4718SOL    HW115053   0.584  -0.043   2.849  0.4412 -1.7193  1.4432
 4718SOL    HW215054   0.615   0.073   2.961 -0.3548 -0.4851  0.4145
 4719SOL     OW15055   6.482   1.228   2.756  0.4480  0.4945 -0.5214
 4719SOL    HW115056   6.400   1.276   2.724  1.2799  1.0602 -1.9076
 4719SOL    HW215057   6.456   1.139   2.794 -0.6558 -0.1972 -2.7030
 4720SOL     OW15058   4.013   6.856   0.500 -0.4120  0.3347 -0.2897
 4720SOL    HW115059   4.094   6.853   0.558  1.2343 -2.2402 -2.5046
 4720SOL    HW215060   4.033   6.908   0.417 -1.3811  0.5423 -0.4044
 4721SOL     OW15061   2.005   2.966   6.341 -0.2914  0.2082  0.1803
 4721SOL    HW115062   2.056   2.884   6.364 -0.8793  0.1866  1.5120
 4721SOL    HW215063   2.068   3.043   6.331  0.2524 -0.3672 -0.9901
 4722SOL     OW15064   0.530   3.441   3.245  0.8442  0.5222  0.4995
 4722SOL    HW115065   0.450   3.382   3.254  1.9466 -1.1830 -0.3457
 4722SOL    HW215066   0.512   3.512   3.178  0.0044  0.2513  0.4241
 4723SOL     OW15067   6.385   6.050   4.555  0.0331 -0.7888 -0.1905
 4723SOL    HW115068   6.421   5.967   4.597  1.9713  0.0821  0.0006
 4723SOL    HW215069   6.435   6.129   4.590 -0.8293  0.3313 -1.3786
 4724SOL     OW15070   1.321   3.539   0.782 -0.5438 -0.1458  0.1990
 4724SOL    HW115071   1.326   3.564   0.878 -2.0266 -1.8329  0.7682
 4724SOL    HW215072   1.225   3.544   0.752 -0.2869 -0.9786 -0.8018
 4725SOL     OW15073   0.656   1.050   1.663  0.3353 -0.1681 -0.5001
 4725SOL    HW115074   0.613   1.008   1.583  3.8227  1.9022 -3.8159
 4725SOL    HW215075   0.725   0.988   1.700 -0.1033 -0.4618 -0.1648
 4726SOL     OW15076   1.611   5.344   0.510 -0.2474  0.5974  0.0089
 4726SOL    HW115077   1.626   5.359   0.412  0.7291  0.6459  0.1495
 4726SOL    HW215078   1.680   5.394   0.562  0.1483 -0.5830  0.6652
 4727SOL     OW15079   3.062   0.358   0.513  0.6728 -0.7555  0.4174
 4727SOL    HW115080   3.043   0.453   0.487  0.0338 -0.8372  0.5638
 4727SOL    HW215081   3.148   0.354   0.564  0.9086 -0.3145  0.0576
 4728SOL     OW15082   3.193   4.260   5.983 -0.4890 -0.2852 -0.0432
 4728SOL    HW115083   3.190   4.338   5.920  2.0199 -0.3045 -0.2675
 4728SOL    HW215084   3.125   4.192   5.955 -2.3116  1.4824 -0.2110
 4729SOL     OW15085   6.847   4.103   1.581 -0.6992 -0.3284  0.0821
 4729SOL    HW115086   6.943   4.128   1.597 -0.6956 -0.0636 -0.3371
 4729SOL    HW215087   6.831   4.010   1.615 -0.5536 -0.0062  1.0862
 4730SOL     OW15088   0.735   0.656   2.839  0.6690 -0.0318  0.1728
 4730SOL    HW115089   0.828   0.682   2.866  0.0438  0.8129  1.6061
 4730SOL    HW215090   0.673   0.733   2.852 -0.3730 -0.7963 -0.1099
 4731SOL     OW15091   0.298   1.345   1.305  0.6661 -0.3897 -0.4982
 4731SOL    HW115092   0.374   1.376   1.362 -1.0455 -0.0649  1.7560
 4731SOL    HW215093   0.242   1.280   1.358 -1.5105  0.6045 -1.4674
 4732SOL     OW15094   2.952   2.461   5.831 -0.0980  0.3006  0.1057
 4732SOL    HW115095   2.884   2.483   5.761 -1.8147 -0.0459  1.6068
 4732SOL    HW215096   3.010   2.385   5.798 -1.2217 -0.2306 -0.7245
 4733SOL     OW15097   3.141   1.424   5.815 -0.1771  0.1639 -0.3803
 4733SOL    HW115098   3.127   1.523   5.821 -0.1120  0.0997  1.4314
 4733SOL    HW215099   3.063   1.377   5.856  1.8496 -0.3403  3.4214
 4734SOL     OW15100   6.021   6.532   6.589 -0.1386 -0.3138  0.0376
 4734SOL    HW115101   6.064   6.460   6.535  0.9355 -0.5438  1.1506
 4734SOL    HW215102   6.070   6.543   6.675 -0.7433  1.2312  0.2257
 4735SOL     OW15103   2.190   1.359   2.063 -0.2174  0.5143  0.0850
 4735SOL    HW115104   2.135   1.395   1.988  0.1104 -1.4378 -1.1514
 4735SOL    HW215105   2.153   1.271   2.093  0.6516  0.4619  1.0692
 4736SOL     OW15106   6.757   6.008   5.825 -0.1331  0.4267 -0.1603
 4736SOL    HW115107   6.666   6.050   5.832 -0.1453  0.2404  0.9249
 4736SOL    HW215108   6.748   5.909   5.828  0.0573  0.3891 -0.7358
 4737SOL     OW15109   1.157   6.912   0.528  0.1173  0.1533 -0.3810
 4737SOL    HW115110   1.201   6.994   0.565  0.4351  0.5097 -1.5260
 4737SOL    HW215111   1.202   6.884   0.444 -1.0591 -0.2089 -0.9204
 4738SOL     OW15112   5.635   5.214   0.029 -0.2388 -0.3826 -0.4451
 4738SOL    HW115113   5.588   5.136  -0.012 -0.5594  0.0599 -0.9185
 4738SOL    HW215114   5.627   5.209   0.128 -0.9052 -0.5439 -0.5032
 4739SOL     OW15115   5.864   2.177   3.593 -0.2385 -0.4156  0.0789
 4739SOL    HW115116   5.855   2.212   3.686 -0.3824 -1.3885  0.4348
 4739SOL    HW215117   5.916   2.092   3.593 -0.2973 -0.4656 -0.7238
 4740SOL     OW15118   1.389   3.023   4.025 -0.0407 -0.7862  0.1292
 4740SOL    HW115119   1.445   3.089   4.074  0.8333 -1.0461 -0.4907
 4740SOL    HW215120   1.386   3.047   3.928  0.9383 -2.0683 -0.2463
 4741SOL     OW15121   4.565   5.912   6.646 -0.8509  0.3266  0.0081
 4741SOL    HW115122   4.653   5.879   6.610 -0.3996  0.9680  0.4870
 4741SOL    HW215123   4.531   5.848   6.715 -0.8997 -0.0651 -0.3758
 4742SOL     OW15124   6.526   2.332   3.934  0.3989  0.0948  0.4690
 4742SOL    HW115125   6.433   2.297   3.944  0.1451  1.0477  1.8188
 4742SOL    HW215126   6.570   2.288   3.856 -1.0019 -0.7456  0.1081
 4743SOL     OW15127   4.674   1.933   4.632  0.3526 -0.5397 -0.6813
 4743SOL    HW115128   4.627   1.846   4.646 -2.0084  0.6529 -0.6872
 4743SOL    HW215129   4.690   1.977   4.721  0.9713 -0.6745 -0.7198
 4744SOL     OW15130   0.961   0.273   5.353  0.3811  0.3735  0.5139
 4744SOL    HW115131   0.986   0.183   5.315  0.5066  0.2613  0.8517
 4744SOL    HW215132   1.007   0.344   5.301  2.2331  0.1251  1.7066
 4745SOL     OW15133   2.237   5.514   1.080 -0.5748  0.3961 -0.0424
 4745SOL    HW115134   2.161   5.449   1.078 -0.5334  0.3196  0.7129
 4745SOL    HW215135   2.297   5.499   1.001 -2.3829  1.7185 -1.7845
 4746SOL     OW15136   6.072   4.804   5.465  0.1688  0.2319  0.1056
 4746SOL    HW115137   6.026   4.808   5.553 -1.1950  0.1644 -0.5752
 4746SOL    HW215138   6.077   4.709   5.434 -1.1675  0.4283 -0.7825
 4747SOL     OW15139   6.269   1.640   5.941 -0.2284 -0.6720  0.0832
 4747SOL    HW115140   6.329   1.631   6.020 -0.5512 -0.7202  0.3254
 4747SOL    HW215141   6.181   1.678   5.969  1.1758  3.8893 -0.9221
 4748SOL     OW15142   4.024   4.861   3.752 -0.0939  0.0315  0.1155
 4748SOL    HW115143   4.105   4.804   3.738  0.0003 -0.2717  1.7465
 4748SOL    HW215144   3.992   4.895   3.663  1.7948  0.1554 -0.5705
 4749SOL     OW15145   3.939   6.874   5.104  0.2530 -0.1385  0.4580
 4749SOL    HW115146   3.850   6.887   5.060  1.5708  0.9184 -2.1248
 4749SOL    HW215147   3.966   6.958   5.152  0.4815  0.0827 -0.0458
 4750SOL     OW15148   3.807   5.966   2.240  0.0710 -0.2174 -0.0999
 4750SOL    HW115149   3.849   5.894   2.184 -0.8250 -1.0776  0.3056
 4750SOL    HW215150   3.722   5.996   2.197  1.5710  2.3315 -1.5207
 4751SOL     OW15151   0.463   6.675   3.252  0.2310  0.2026  0.4244
 4751SOL    HW115152   0.518   6.599   3.219 -0.3750  0.3757 -1.0885
 4751SOL    HW215153   0.395   6.699   3.183 -1.8983 -0.1370  2.3101
 4752SOL     OW15154   6.804   5.950   6.213 -0.1410 -0.0097 -0.4182
 4752SOL    HW115155   6.763   6.001   6.288  1.0045  0.9829 -0.4417
 4752SOL    HW215156   6.737   5.939   6.139 -0.2486  1.9572 -0.6484
 4753SOL     OW15157   4.469   0.662   5.491 -0.3855  0.0276  0.8249
 4753SOL    HW115158   4.542   0.721   5.524  2.2789 -1.2207 -2.2892
 4753SOL    HW215159   4.484   0.569   5.525 -0.1703 -0.3361 -0.2207
 4754SOL     OW15160   2.145   1.241   5.799 -0.0429  0.0140  0.0810
 4754SOL    HW115161   2.163   1.249   5.897  0.6729 -0.1840 -0.0324
 4754SOL    HW215162   2.095   1.322   5.768 -0.8487 -0.2227  0.7325
 4755SOL     OW15163   0.255   3.395   6.215 -0.2850 -0.3446 -0.3395
 4755SOL    HW115164   0.156   3.390   6.219 -0.3324 -0.9095 -1.7443
 4755SOL    HW215165   0.288   3.353   6.131  1.2165 -1.0110  0.5364
 4756SOL     OW15166   0.395   3.422   4.817 -0.3357  0.6858  0.0332
 4756SOL    HW115167   0.331   3.370   4.759 -2.4104  2.6546  0.4136
 4756SOL    HW215168   0.384   3.393   4.912  1.3214 -0.8254 -0.1824
 4757SOL     OW15169   4.130   0.481   3.393 -0.1555  0.1062  0.4398
 4757SOL    HW115170   4.058   0.549   3.409 -0.5448 -0.2777  0.3562
 4757SOL    HW215171   4.219   0.519   3.418  0.1017  1.8195 -2.6041
 4758SOL     OW15172   1.460   5.676   0.572  0.0306  0.1465 -0.0806
 4758SOL    HW115173   1.488   5.735   0.648  0.7717  0.0309 -0.2549
 4758SOL    HW215174   1.437   5.585   0.608  0.7404 -0.0217 -0.0215
 4759SOL     OW15175   0.200   2.096   3.566  0.0356  0.5001  0.3611
 4759SOL    HW115176   0.111   2.115   3.524  0.1302  0.8643  0.3170
 4759SOL    HW215177   0.272   2.139   3.511  0.2206  0.3807  0.5100
 4760SOL     OW15178   0.137   4.919   2.913  0.6574  0.0078 -0.3228
 4760SOL    HW115179   0.103   4.927   3.007  0.4733 -1.3991 -0.2529
 4760SOL    HW215180   0.121   5.005   2.864 -0.9598  0.1238  0.3705
 4761SOL     OW15181   3.242   1.988   1.575  0.5952  0.0029  0.6666
 4761SOL    HW115182   3.200   2.056   1.636 -0.0858 -0.0174  0.2225
 4761SOL    HW215183   3.334   2.019   1.550  0.5338  0.4498  0.9792
 4762SOL     OW15184   3.544   5.776   0.442  0.2531 -0.5812  0.2692
 4762SOL    HW115185   3.561   5.795   0.345 -0.3050  1.5908  0.5383
 4762SOL    HW215186   3.504   5.857   0.485  0.5139 -1.4935  2.3420
 4763SOL     OW15187   1.509   4.488   1.961 -0.1550  0.6704  0.0735
 4763SOL    HW115188   1.603   4.460   1.982 -0.0310  1.1337  0.1602
 4763SOL    HW215189   1.453   4.481   2.044 -0.1055  0.7475  0.1141
 4764SOL     OW15190   4.346   4.070   0.306 -0.9157  0.3467 -0.1452
 4764SOL    HW115191   4.426   4.024   0.269 -0.6966  0.5731  0.0427
 4764SOL    HW215192   4.365   4.100   0.400 -1.1094  0.6833 -0.2115
 4765SOL     OW15193   3.558   5.963   3.202  0.4106  0.2346  0.0586
 4765SOL    HW115194   3.553   5.863   3.208 -0.1485  0.1956 -0.7716
 4765SOL    HW215195   3.526   6.004   3.287  0.3647 -0.2895  0.2961
 4766SOL     OW15196   6.438   0.951   0.542 -0.5736  0.2154 -0.0313
 4766SOL    HW115197   6.395   1.002   0.616  0.2215  1.5154 -0.4232
 4766SOL    HW215198   6.492   1.014   0.486 -0.5026 -0.8790 -1.2340
 4767SOL     OW15199   2.631   6.922   4.543  0.0949 -0.1740 -0.0726
 4767SOL    HW115200   2.543   6.877   4.528  0.9656 -2.0382  0.2214
 4767SOL    HW215201   2.615   7.011   4.587 -1.6947  0.1176 -1.1988
 4768SOL     OW15202   5.971   3.024   4.464 -0.7627  0.5907  0.3438
 4768SOL    HW115203   6.064   3.023   4.501 -0.9149  0.0930  0.7200
 4768SOL    HW215204   5.941   2.931   4.446 -0.8392  0.8060 -0.6809
 4769SOL     OW15205   1.341   4.800   0.878 -0.0933 -0.2332 -0.6733
 4769SOL    HW115206   1.423   4.817   0.933 -0.6724  0.0711  0.1286
 4769SOL    HW215207   1.260   4.801   0.938 -0.8193  0.7502 -1.6355
 4770SOL     OW15208   0.816   1.021   2.484  0.5849  0.1756  0.6962
 4770SOL    HW115209   0.807   1.110   2.529 -0.7284  0.5665 -0.2918
 4770SOL    HW215210   0.759   1.019   2.402  0.4048 -1.6701  0.8329
 4771SOL     OW15211   2.799   2.379   6.731 -0.4783 -0.1458  0.2621
 4771SOL    HW115212   2.719   2.417   6.778  0.5162  1.1250  0.9836
 4771SOL    HW215213   2.844   2.450   6.678 -1.2858 -1.4367 -2.3316
 4772SOL     OW15214   4.100   1.128   2.612 -0.3335  0.2166  0.0460
 4772SOL    HW115215   4.137   1.038   2.634 -2.2649 -0.9866 -1.3931
 4772SOL    HW215216   4.062   1.169   2.695  2.3146  0.6778  1.1550
 4773SOL     OW15217   5.474   0.010   1.702  0.4414  0.6782  0.5635
 4773SOL    HW115218   5.414  -0.051   1.754 -1.9401  1.6010 -0.9391
 4773SOL    HW215219   5.513  -0.039   1.625  0.5841  0.4133  0.8011
 4774SOL     OW15220   4.331   4.878   1.641 -0.4184 -0.0370 -0.1876
 4774SOL    HW115221   4.320   4.883   1.740  0.8315  1.1318 -0.0787
 4774SOL    HW215222   4.267   4.943   1.598  0.0421  0.5100 -0.0554
 4775SOL     OW15223   4.507   1.277   3.836  0.0621 -0.0972  0.6688
 4775SOL    HW115224   4.552   1.260   3.749 -0.3836 -0.1847  0.4546
 4775SOL    HW215225   4.513   1.374   3.859 -0.9643  0.1638 -0.1031
 4776SOL     OW15226   1.401   0.431   4.089  0.1629  0.0325 -0.2594
 4776SOL    HW115227   1.378   0.334   4.096  1.1824 -0.1690  0.4483
 4776SOL    HW215228   1.443   0.462   4.174  1.9924  0.5048 -1.2683
 4777SOL     OW15229   0.782   6.878   2.855  0.0933  1.0626 -0.5130
 4777SOL    HW115230   0.845   6.955   2.863 -0.4471  1.5214 -0.5755
 4777SOL    HW215231   0.807   6.822   2.776  1.9798 -0.2453  0.9172
 4778SOL     OW15232   3.194   3.630   4.876  0.6384 -0.1460  0.4008
 4778SOL    HW115233   3.220   3.541   4.915  1.5184  0.3696  1.0448
 4778SOL    HW215234   3.277   3.680   4.850  0.2134  0.8618  0.9227
 4779SOL     OW15235   0.389   5.510   6.253  0.3013  0.6713 -0.3090
 4779SOL    HW115236   0.293   5.535   6.267  0.4571  0.7040  0.8336
 4779SOL    HW215237   0.395   5.436   6.186 -0.6282 -0.1652  0.5002
 4780SOL     OW15238   5.666   6.857   6.906  0.0299 -0.0895 -0.6723
 4780SOL    HW115239   5.759   6.890   6.924 -1.0394  3.3441 -0.7078
 4780SOL    HW215240   5.626   6.821   6.990  1.1649 -1.0815 -0.5302
 4781SOL     OW15241   0.231   5.251   0.964 -0.0932  0.2589  0.5267
 4781SOL    HW115242   0.203   5.336   0.919 -1.0059 -0.1881  0.2349
 4781SOL    HW215243   0.156   5.217   1.021  1.0742  0.9128  2.5879
 4782SOL     OW15244   0.856   0.568   3.677  0.1270  0.0337 -0.1817
 4782SOL    HW115245   0.914   0.598   3.600  1.4092 -2.6660 -0.3812
 4782SOL    HW215246   0.889   0.610   3.761 -0.0625  1.5162 -0.8217
 4783SOL     OW15247   6.597   0.550   4.325 -0.2461 -0.2109  0.3267
 4783SOL    HW115248   6.683   0.602   4.334  1.2077 -2.4388  0.1800
 4783SOL    HW215249   6.595   0.477   4.394 -2.0796 -0.1941  0.3416
 4784SOL     OW15250   6.049   4.495   6.852 -0.0484 -0.4934  0.1126
 4784SOL    HW115251   5.971   4.556   6.843  1.0566  0.9138 -0.2692
 4784SOL    HW215252   6.087   4.501   6.944  1.0922  0.7535 -0.3978
 4785SOL     OW15253   6.676   2.434   5.162  0.2100  0.4616  0.0117
 4785SOL    HW115254   6.657   2.520   5.115  0.2478  0.5042  0.0746
 4785SOL    HW215255   6.650   2.442   5.258 -0.6066  0.1219 -0.1679
 4786SOL     OW15256   6.252   4.873   1.573  0.2140  0.2751  0.1483
 4786SOL    HW115257   6.255   4.870   1.473 -0.0256 -0.7641  0.1545
 4786SOL    HW215258   6.157   4.869   1.604  0.2916  0.4713  0.4126
 4787SOL     OW15259   1.222   1.476   6.147 -0.4305 -0.7586 -0.6661
 4787SOL    HW115260   1.153   1.414   6.183 -1.5286  0.6994 -0.1769
 4787SOL    HW215261   1.230   1.556   6.206 -0.4498  0.4930 -2.2790
 4788SOL     OW15262   2.980   3.258   3.742 -0.7325  0.3364 -0.0087
 4788SOL    HW115263   2.947   3.228   3.832  0.4930  0.0409  0.3676
 4788SOL    HW215264   3.011   3.353   3.749  1.1640 -0.2687  0.4135
 4789SOL     OW15265   5.706   6.066   2.404  0.1256  0.0387  0.3667
 4789SOL    HW115266   5.772   6.094   2.334 -0.6588 -0.3009 -0.5274
 4789SOL    HW215267   5.685   6.145   2.462 -0.5895  0.8477 -0.9203
 4790SOL     OW15268   1.256   3.195   6.062  0.2884 -0.2040 -0.5081
 4790SOL    HW115269   1.354   3.174   6.067  0.4291  0.6472  0.4831
 4790SOL    HW215270   1.206   3.135   6.124  0.0750 -1.1296 -1.5360
 4791SOL     OW15271   1.419   3.623   1.913  0.0966  0.2286 -0.1401
 4791SOL    HW115272   1.385   3.547   1.857 -0.9555  1.2816 -0.9787
 4791SOL    HW215273   1.431   3.592   2.007  1.3902 -1.4435 -0.7986
 4792SOL     OW15274   5.637   3.573   2.612 -0.4668 -0.0833 -0.3269
 4792SOL    HW115275   5.563   3.506   2.608  1.5155 -2.6692  1.9888
 4792SOL    HW215276   5.603   3.658   2.651 -2.5093 -0.6322 -0.7950
 4793SOL     OW15277   0.931   3.613   4.243  0.1083 -0.3310 -0.3270
 4793SOL    HW115278   1.019   3.573   4.265 -0.5791 -2.6562 -1.5268
 4793SOL    HW215279   0.858   3.562   4.288 -0.7566  0.3215 -0.9327
 4794SOL     OW15280   0.504   5.502   4.250 -0.1378  0.1168  0.3909
 4794SOL    HW115281   0.547   5.577   4.201 -1.2794  0.8921  0.5292
 4794SOL    HW215282   0.563   5.421   4.246  1.6786  1.3399  1.2841
 4795SOL     OW15283   2.634   0.530   2.174 -0.3071  0.6459 -0.7457
 4795SOL    HW115284   2.582   0.576   2.246 -0.6124  1.5816 -1.5357
 4795SOL    HW215285   2.622   0.431   2.182  1.7883  0.4775  2.1120
 4796SOL     OW15286   4.538   3.238   6.567  0.2538 -0.0440  0.1083
 4796SOL    HW115287   4.612   3.274   6.623 -0.5357 -1.8979  2.4997
 4796SOL    HW215288   4.451   3.280   6.595  0.1104  0.7790 -1.4384
 4797SOL     OW15289   0.958   4.008   3.115  0.3760  0.0821 -0.0051
 4797SOL    HW115290   0.952   4.060   3.200 -0.4280 -3.0727  2.0651
 4797SOL    HW215291   1.051   3.977   3.101  0.2061 -0.7948  0.7045
 4798SOL     OW15292   4.156   2.939   0.307 -0.2110  0.3270  0.6215
 4798SOL    HW115293   4.144   2.892   0.219  0.7530 -0.3284  0.8269
 4798SOL    HW215294   4.135   2.875   0.381 -0.1775  0.6231  0.8851
 4799SOL     OW15295   1.272   4.215   2.623  0.1167  0.2014 -0.2561
 4799SOL    HW115296   1.344   4.187   2.686  0.0132 -0.8674 -0.5815
 4799SOL    HW215297   1.295   4.185   2.531 -0.4150  0.4518 -0.4754
 4800SOL     OW15298   5.528   1.227   2.434  0.1436  0.5318 -0.1320
 4800SOL    HW115299   5.449   1.258   2.487  1.3259 -1.9837  3.5232
 4800SOL    HW215300   5.591   1.304   2.420 -1.3612  1.8246 -0.1286
 4801SOL     OW15301   6.186   5.080   4.115  0.1390 -0.0904 -0.2548
 4801SOL    HW115302   6.101   5.127   4.092  0.6193  0.6678 -0.4868
 4801SOL    HW215303   6.250   5.087   4.038  0.9433  0.5829  0.4686
 4802SOL     OW15304   2.879   6.005   5.359 -0.0061  0.1333 -0.1020
 4802SOL    HW115305   2.890   5.940   5.434  0.2439  0.1088 -0.1575
 4802SOL    HW215306   2.959   6.000   5.299  0.8344  1.7339  0.8353
 4803SOL     OW15307   6.851   5.035   2.658 -0.0381  0.1025 -0.7284
 4803SOL    HW115308   6.890   4.947   2.629  1.7316 -0.0940  1.8690
 4803SOL    HW215309   6.904   5.110   2.617 -0.2907 -0.0787 -1.3891
 4804SOL     OW15310   4.259   0.006   3.410 -0.1022 -0.2231 -0.2798
 4804SOL    HW115311   4.325  -0.040   3.351 -0.9378 -0.6860 -0.8657
 4804SOL    HW215312   4.283  -0.011   3.506  1.5510  0.9463 -0.4447
 4805SOL     OW15313   1.080   5.344   1.257  0.0862 -0.0406  0.2896
 4805SOL    HW115314   1.074   5.427   1.202 -0.5399 -0.4551 -0.2907
 4805SOL    HW215315   1.115   5.366   1.348 -0.6714  0.9445  0.3556
 4806SOL     OW15316   0.941   1.898   3.684 -0.3471  0.2565  0.3435
 4806SOL    HW115317   0.897   1.856   3.605 -0.4538 -0.2513  0.6690
 4806SOL    HW215318   1.004   1.968   3.653 -2.2702  1.8878 -0.0966
 4807SOL     OW15319   0.133   3.091   1.252  0.5488 -0.1183  0.0611
 4807SOL    HW115320   0.203   3.024   1.276  0.5506 -0.1961 -0.1653
 4807SOL    HW215321   0.049   3.070   1.301  1.6266  1.9586  3.1554
 4808SOL     OW15322   3.136   6.380   4.206 -0.2345 -0.3356 -0.3470
 4808SOL    HW115323   3.099   6.287   4.208 -2.5575  0.4886 -1.0895
 4808SOL    HW215324   3.151   6.408   4.111  0.6176 -0.0078 -0.1225
 4809SOL     OW15325   3.272   0.946   5.517  0.1077 -0.2968 -0.3395
 4809SOL    HW115326   3.326   1.015   5.564  0.1875 -0.3218 -0.3955
 4809SOL    HW215327   3.241   0.981   5.429  0.8866 -0.6456 -0.7629
 4810SOL     OW15328   6.633   6.299   0.484  0.2978  0.2993 -0.5430
 4810SOL    HW115329   6.659   6.239   0.408  0.3158 -0.0948 -0.2326
 4810SOL    HW215330   6.642   6.249   0.570 -0.6205  0.4410 -0.3507
 4811SOL     OW15331   0.414   2.921   2.593 -0.0869  0.4677 -0.0907
 4811SOL    HW115332   0.411   3.010   2.638  2.9804  0.0779  1.0787
 4811SOL    HW215333   0.360   2.925   2.509 -2.0474  2.6430  1.1576
 4812SOL     OW15334   0.379   0.876   1.060 -0.3135 -0.4559  0.1008
 4812SOL    HW115335   0.288   0.834   1.052  0.2424 -1.4573 -1.2809
 4812SOL    HW215336   0.369   0.970   1.092 -1.9791 -0.0095 -1.5892
 4813SOL     OW15337   6.924   5.719   5.114 -0.2237  0.3782 -0.1002
 4813SOL    HW115338   7.006   5.740   5.061 -1.7557 -0.7950 -3.2413
 4813SOL    HW215339   6.845   5.765   5.071 -1.4849 -0.0494  1.6671
 4814SOL     OW15340   3.966   4.835   5.325 -0.8877  0.3398  0.1825
 4814SOL    HW115341   3.904   4.870   5.254  1.6803  0.6555 -2.0663
 4814SOL    HW215342   3.971   4.736   5.320  1.5432  0.4815 -2.2814
 4815SOL     OW15343   6.090   4.231   2.193 -0.4968  0.0525 -0.4323
 4815SOL    HW115344   6.060   4.180   2.112 -0.2536  0.7101 -0.9457
 4815SOL    HW215345   6.092   4.170   2.272 -1.0524 -0.5209 -0.8536
 4816SOL     OW15346   5.410   0.125   6.405 -0.4614 -0.2724  0.1249
 4816SOL    HW115347   5.364   0.097   6.320 -1.1951 -1.3825  0.8654
 4816SOL    HW215348   5.342   0.133   6.478  0.0511  1.4192  0.4615
 4817SOL     OW15349   6.605   1.319   5.973 -0.0406  1.1773  0.8590
 4817SOL    HW115350   6.617   1.328   6.072 -2.7353  1.6430  1.2022
 4817SOL    HW215351   6.590   1.223   5.950  1.4935  0.9387  0.7359
 4818SOL     OW15352   1.473   4.705   1.402  0.0774  0.2420 -0.1841
 4818SOL    HW115353   1.523   4.739   1.482 -0.2739 -0.5803  0.4007
 4818SOL    HW215354   1.398   4.646   1.432 -0.6818  0.7221 -1.0883
 4819SOL     OW15355   5.509   5.331   1.976 -0.3777 -0.1855 -0.0876
 4819SOL    HW115356   5.451   5.257   1.940  0.4839 -0.7682 -0.3228
 4819SOL    HW215357   5.599   5.327   1.931  0.1002  0.2249  0.8089
 4820SOL     OW15358   3.152   2.043   4.929 -0.3211 -0.0912  0.1035
 4820SOL    HW115359   3.177   2.132   4.967  1.6055 -0.5654  0.0265
 4820SOL    HW215360   3.230   2.004   4.881 -1.1894 -1.7700 -0.0093
 4821SOL     OW15361   5.500   0.660   5.088  0.0838  0.0176  0.5536
 4821SOL    HW115362   5.525   0.688   4.995  1.1558 -1.9225  0.2054
 4821SOL    HW215363   5.558   0.709   5.153  0.7195 -0.0688  0.0704
 4822SOL     OW15364   4.133   1.470   3.180 -0.4112  0.1066  0.3546
 4822SOL    HW115365   4.121   1.466   3.279  0.4664 -0.1760  0.4582
 4822SOL    HW215366   4.208   1.532   3.159  0.0806 -0.6243 -0.0768
 4823SOL     OW15367   5.088   0.284   3.278  0.3380 -0.1594 -0.2854
 4823SOL    HW115368   5.020   0.319   3.214 -0.0928 -0.1771  0.1585
 4823SOL    HW215369   5.160   0.352   3.292  0.1913  0.0227 -0.4315
 4824SOL     OW15370   3.652   0.012   2.948 -0.3512 -0.2526  0.1273
 4824SOL    HW115371   3.710  -0.051   3.000  0.0211 -0.7900 -0.9232
 4824SOL    HW215372   3.707   0.089   2.915 -0.8613  0.8493  1.6721
 4825SOL     OW15373   3.309   5.734   5.419 -0.4640 -0.0188 -0.0072
 4825SOL    HW115374   3.293   5.832   5.423 -0.9130 -0.1035  0.2816
 4825SOL    HW215375   3.395   5.712   5.465  0.3069  0.3861 -1.2116
 4826SOL     OW15376   2.956   0.046   4.966  0.6066  0.1355 -0.0704
 4826SOL    HW115377   3.019   0.071   5.040  0.2143 -0.5518  0.5187
 4826SOL    HW215378   2.885   0.115   4.957 -0.1108 -0.4143  1.1168
 4827SOL     OW15379   1.633   5.011   2.245  0.0478 -0.0412 -0.1444
 4827SOL    HW115380   1.648   4.999   2.147  1.2182  1.3701 -0.1775
 4827SOL    HW215381   1.719   4.995   2.294 -0.0827  0.9948  0.4525
 4828SOL     OW15382   0.941   5.417   3.663  0.1488 -0.0614  0.4979
 4828SOL    HW115383   0.967   5.337   3.608  0.3256 -0.0126  0.5098
 4828SOL    HW215384   0.994   5.419   3.747  0.7445  0.5158  0.1240
 4829SOL     OW15385   0.195   3.448   5.349 -0.2863 -0.1356  0.1507
 4829SOL    HW115386   0.288   3.411   5.352  0.2067  1.0610  3.2517
 4829SOL    HW215387   0.135   3.391   5.405 -1.0063  0.1563 -0.3123
 4830SOL     OW15388   1.418   3.631   2.595 -0.1352 -0.0921  0.5862
 4830SOL    HW115389   1.326   3.591   2.596 -1.1899  2.1215 -0.2832
 4830SOL    HW215390   1.466   3.603   2.513 -1.5673  1.7632 -0.9765
 4831SOL     OW15391   3.500   5.947   2.774  0.0808 -0.4748 -0.0046
 4831SOL    HW115392   3.563   5.870   2.785 -0.0054 -0.8496 -1.7901
 4831SOL    HW215393   3.532   6.025   2.827 -0.4079 -2.0345  2.7809
 4832SOL     OW15394   3.912   3.175   5.042 -0.2712  0.1360 -0.7076
 4832SOL    HW115395   3.957   3.240   4.980 -1.0393  2.1216  0.7212
 4832SOL    HW215396   3.826   3.214   5.075 -0.6979 -1.5773  0.3449
 4833SOL     OW15397   3.564   6.441   1.448 -0.8782 -0.1648  0.1448
 4833SOL    HW115398   3.547   6.389   1.364 -0.3740 -1.1426  0.6264
 4833SOL    HW215399   3.533   6.535   1.436 -2.5875 -0.7734 -0.4598
 4834SOL     OW15400   6.405   1.876   3.467 -0.0572 -0.1068  0.3727
 4834SOL    HW115401   6.404   1.969   3.504 -2.0716 -1.0446  3.0246
 4834SOL    HW215402   6.338   1.869   3.393 -0.4214  0.4034  0.6448
 4835SOL     OW15403   6.259   3.325   4.467  0.4386  0.0385 -0.3205
 4835SOL    HW115404   6.289   3.249   4.410  0.9255  0.1436 -0.2113
 4835SOL    HW215405   6.325   3.339   4.541 -0.7386 -0.7811  0.9202
 4836SOL     OW15406   0.930   2.578   4.320  0.0834  1.1257 -0.3715
 4836SOL    HW115407   0.929   2.492   4.269  1.5048  0.6031  0.4296
 4836SOL    HW215408   1.019   2.623   4.308  0.1300  1.4094  0.9543
 4837SOL     OW15409   1.048   6.007   0.890 -0.6919  0.4558  0.4790
 4837SOL    HW115410   0.992   5.975   0.967  0.2117  0.5314  1.1858
 4837SOL    HW215411   0.989   6.041   0.817 -1.5969 -0.5726  0.7126
 4838SOL     OW15412   6.577   0.769   6.294 -0.1634  0.1502  0.3809
 4838SOL    HW115413   6.582   0.755   6.392  0.1317 -0.1107  0.3293
 4838SOL    HW215414   6.499   0.718   6.257  0.0951 -0.2501  0.3897
 4839SOL     OW15415   2.998   3.927   0.821  0.2101 -0.1974 -0.5363
 4839SOL    HW115416   2.903   3.914   0.850 -0.1031 -0.7136 -1.7173
 4839SOL    HW215417   3.059   3.877   0.882 -0.4086 -1.0794 -0.6177
 4840SOL     OW15418   3.142   5.879   4.791 -0.4582 -0.2486 -0.1053
 4840SOL    HW115419   3.238   5.858   4.806 -0.6900 -1.2677 -0.0369
 4840SOL    HW215420   3.132   5.927   4.703  0.1133 -0.0921 -0.0862
 4841SOL     OW15421   5.864   0.554   2.941  0.2109 -0.4105  0.4929
 4841SOL    HW115422   5.867   0.555   2.841 -1.5013 -2.4541  0.3696
 4841SOL    HW215423   5.818   0.637   2.973 -0.7383 -0.5102 -0.5261
 4842SOL     OW15424   6.474   2.606   3.702  1.2400 -0.0637  0.5406
 4842SOL    HW115425   6.389   2.565   3.736  1.1016 -0.9051 -0.7762
 4842SOL    HW215426   6.551   2.545   3.723  1.1839 -0.4783 -0.3964
 4843SOL     OW15427   1.440   2.761   6.823 -0.1300 -0.4402 -0.1747
 4843SOL    HW115428   1.419   2.801   6.734 -0.6507  2.5385  1.1451
 4843SOL    HW215429   1.501   2.822   6.873 -0.8359 -1.3945  1.9678
 4844SOL     OW15430   3.178   0.886   2.200 -0.5639 -0.1008  0.7272
 4844SOL    HW115431   3.121   0.806   2.221  0.6781 -0.3347  3.8096
 4844SOL    HW215432   3.122   0.968   2.201 -1.2371 -0.5548  1.3274
 4845SOL     OW15433   6.999   6.675   4.594  0.2088 -0.5956 -0.0519
 4845SOL    HW115434   6.930   6.747   4.585  0.2649  0.2028  4.1828
 4845SOL    HW215435   6.958   6.586   4.572 -0.9473  0.2423 -1.5103
 4846SOL     OW15436   0.736   1.473   1.631  0.2130  0.0381 -0.8414
 4846SOL    HW115437   0.817   1.481   1.573  0.9441 -0.5796  0.0533
 4846SOL    HW215438   0.751   1.399   1.697 -0.4389  0.9508  0.3556
 4847SOL     OW15439   6.073   1.192   6.999 -0.4672  0.1023 -0.4750
 4847SOL    HW115440   6.162   1.159   7.028 -0.9183 -0.0885  0.7385
 4847SOL    HW215441   6.064   1.289   7.023 -0.5550  0.1496 -0.6927
 4848SOL     OW15442   3.703   2.993   0.403  0.6286 -0.2319  0.1065
 4848SOL    HW115443   3.603   2.993   0.402  0.5875 -2.4666 -0.3666
 4848SOL    HW215444   3.736   3.026   0.314  0.3159  0.1776  0.1367
 4849SOL     OW15445   3.611   6.084   6.972 -0.0127 -0.0637 -0.0757
 4849SOL    HW115446   3.547   6.154   6.942  0.7743  1.1911  1.0703
 4849SOL    HW215447   3.656   6.043   6.893 -1.9179 -0.7323 -0.8906
 4850SOL     OW15448   4.129   2.089   4.277  0.6806  0.1644  0.3069
 4850SOL    HW115449   4.205   2.149   4.303 -0.1434  0.8215  1.2827
 4850SOL    HW215450   4.043   2.128   4.310 -0.2359  0.0048 -1.7243
 4851SOL     OW15451   3.677   0.268   3.751 -0.1883  0.0381  0.0673
 4851SOL    HW115452   3.697   0.327   3.830 -2.2855  0.2375  0.5009
 4851SOL    HW215453   3.608   0.200   3.776  1.6345 -2.2080 -0.6398
 4852SOL     OW15454   5.061   3.907   6.446 -0.2413  0.6881  0.5224
 4852SOL    HW115455   4.983   3.874   6.500 -1.9606  2.1000 -0.9370
 4852SOL    HW215456   5.078   4.003   6.468 -1.2419  1.4281 -1.5711
 4853SOL     OW15457   0.685   0.205   4.898 -0.1597  0.7336  0.5297
 4853SOL    HW115458   0.770   0.213   4.846  0.0493 -0.2546  0.7074
 4853SOL    HW215459   0.618   0.152   4.846 -0.1875  0.3304  0.9687
 4854SOL     OW15460   1.878   2.820   1.064 -0.8708  0.2409  0.2166
 4854SOL    HW115461   1.892   2.735   1.014  1.0788  0.0339  1.0325
 4854SOL    HW215462   1.821   2.881   1.009  0.5328 -0.2646 -1.9414
 4855SOL     OW15463   5.079   2.895   1.364 -0.0691 -0.0549 -0.0082
 4855SOL    HW115464   5.104   2.985   1.399 -2.9685  0.6424  0.4875
 4855SOL    HW215465   5.021   2.848   1.431  0.2631 -1.7362 -0.8483
 4856SOL     OW15466   3.546   6.010   2.177 -0.7207 -0.1485 -0.0546
 4856SOL    HW115467   3.523   5.914   2.157  1.8331 -1.1249  1.3025
 4856SOL    HW215468   3.522   6.030   2.272 -0.0092  0.1196  0.0712
 4857SOL     OW15469   0.186   0.161   1.576  0.0404 -0.5013 -0.8288
 4857SOL    HW115470   0.124   0.238   1.562  0.9787  0.4345  0.0306
 4857SOL    HW215471   0.259   0.164   1.508  0.4003 -0.2881 -0.4382
 4858SOL     OW15472   1.727   3.090   1.911  0.7069 -0.6039 -0.2254
 4858SOL    HW115473   1.659   3.113   1.841  0.2401 -0.4686  0.2678
 4858SOL    HW215474   1.748   2.993   1.906 -0.4815 -0.9248  0.4331
 4859SOL     OW15475   0.810   4.528   3.541  0.1018  0.2621 -0.6675
 4859SOL    HW115476   0.787   4.625   3.551  0.2831  0.1520  1.2861
 4859SOL    HW215477   0.751   4.487   3.472 -0.0640  1.7238 -1.4384
 4860SOL     OW15478   5.945   5.667   4.788 -0.0122  0.0667  0.0882
 4860SOL    HW115479   5.978   5.709   4.703 -0.1577 -0.5877 -0.3024
 4860SOL    HW215480   5.972   5.723   4.866  0.2755  0.5861 -0.3806
 4861SOL     OW15481   2.631   5.235   2.052  0.0676 -0.3707 -0.0559
 4861SOL    HW115482   2.678   5.192   2.129  2.8070 -0.2597 -1.5637
 4861SOL    HW215483   2.542   5.191   2.039  1.4612 -3.5837  0.3168
 4862SOL     OW15484   6.904   0.187   6.119 -0.4565  0.0116  0.1502
 4862SOL    HW115485   6.853   0.103   6.102  1.4785 -0.8143 -2.0802
 4862SOL    HW215486   6.863   0.262   6.067 -0.8566 -0.0558  0.3619
 4863SOL     OW15487   4.856   1.869   5.940  1.2384 -0.4739  0.4190
 4863SOL    HW115488   4.825   1.942   6.001 -3.0587 -0.9228 -0.8602
 4863SOL    HW215489   4.893   1.908   5.857  4.4517  0.1122  1.9794
 4864SOL     OW15490   5.853   2.622   4.785 -0.6243 -0.3167 -0.2371
 4864SOL    HW115491   5.904   2.607   4.700 -0.7048  1.4484 -0.6372
 4864SOL    HW215492   5.778   2.686   4.768 -1.6856 -1.2337  0.8179
 4865SOL     OW15493   5.313   5.043   4.445  0.2691  0.5221  0.1650
 4865SOL    HW115494   5.400   5.093   4.441  0.1488  0.9274  1.8804
 4865SOL    HW215495   5.312   4.985   4.526  0.2513 -2.0891 -1.5700
 4866SOL     OW15496   0.509   0.915   1.455 -0.0083 -0.7682 -0.3776
 4866SOL    HW115497   0.509   0.831   1.509  0.7873 -1.3972 -1.3107
 4866SOL    HW215498   0.527   0.893   1.359  1.4377  0.5478 -0.4602
 4867SOL     OW15499   0.094   6.905   5.928 -0.3096 -0.6169 -0.2962
 4867SOL    HW115500   0.156   6.973   5.965 -0.8059 -0.3146 -0.0065
 4867SOL    HW215501   0.139   6.854   5.855  0.3655 -0.5909  0.0941
 4868SOL     OW15502   0.992   5.761   2.352 -0.2593 -0.3060  0.4505
 4868SOL    HW115503   1.050   5.719   2.421  2.1819  0.8839 -0.7513
 4868SOL    HW215504   0.951   5.845   2.388 -0.6948 -0.7755  1.0728
 4869SOL     OW15505   6.400   5.604   2.553  0.2909  0.4870  0.4019
 4869SOL    HW115506   6.358   5.661   2.482  0.7950  0.0285 -0.2794
 4869SOL    HW215507   6.380   5.508   2.534  1.7338  0.2452 -0.0175
 4870SOL     OW15508   6.752   6.508   2.437 -0.0329 -0.3626  0.0429
 4870SOL    HW115509   6.808   6.442   2.387 -1.0155 -0.6291 -0.7365
 4870SOL    HW215510   6.715   6.575   2.373  0.0783  0.3157  0.6770
 4871SOL     OW15511   3.322   5.144   0.535 -0.0230  0.7107  0.6196
 4871SOL    HW115512   3.307   5.045   0.535  0.2392  0.6180 -1.4699
 4871SOL    HW215513   3.325   5.177   0.441  1.3878  2.4776  1.2166
 4872SOL     OW15514   4.312   3.795   0.153 -0.2073  0.2937 -0.3166
 4872SOL    HW115515   4.263   3.766   0.235 -0.9930  0.5806 -0.6780
 4872SOL    HW215516   4.408   3.811   0.175 -0.4128  0.3532  0.5452
 4873SOL     OW15517   1.778   2.157   1.583 -0.6560 -0.3797  0.4076
 4873SOL    HW115518   1.698   2.184   1.530 -0.3551 -0.5256 -0.1369
 4873SOL    HW215519   1.832   2.092   1.530 -0.5437 -0.8237  1.0582
 4874SOL     OW15520   1.835   0.418   6.939  0.1232 -0.2670 -0.4546
 4874SOL    HW115521   1.895   0.364   6.881 -0.7025 -2.1926  0.4035
 4874SOL    HW215522   1.836   0.513   6.909  1.7854 -0.6967 -1.8863
 4875SOL     OW15523   2.277   1.224   4.009 -0.8434  0.0330 -0.1808
 4875SOL    HW115524   2.182   1.211   4.037 -0.7272 -0.3084  0.0508
 4875SOL    HW215525   2.310   1.141   3.963 -0.2878 -0.2967  0.7860
 4876SOL     OW15526   2.245   4.026   6.689  0.2871  0.2548  0.0670
 4876SOL    HW115527   2.186   3.960   6.642 -1.8207  1.9012  0.2747
 4876SOL    HW215528   2.256   4.108   6.632  2.0889  0.1803  0.2310
 4877SOL     OW15529   2.248   4.812   3.678 -0.2651  0.8384  0.3228
 4877SOL    HW115530   2.181   4.848   3.613 -1.0558  0.3930  0.8824
 4877SOL    HW215531   2.205   4.798   3.767  0.8921  1.7728  1.0624
 4878SOL     OW15532   1.252   6.388   6.236  0.0707 -0.3419  0.2002
 4878SOL    HW115533   1.256   6.366   6.334 -1.4440 -1.1388  0.1193
 4878SOL    HW215534   1.345   6.395   6.200  0.6578 -0.3569  1.6216
 4879SOL     OW15535   6.580   2.735   0.645 -0.2025  0.2837  0.2700
 4879SOL    HW115536   6.571   2.652   0.591  2.5117 -0.4200  0.7319
 4879SOL    HW215537   6.527   2.809   0.603 -1.2753 -1.2209 -1.1122
 4880SOL     OW15538   1.074   3.351   6.587  0.5424 -0.1086 -0.6358
 4880SOL    HW115539   1.076   3.253   6.607 -2.9200 -0.3072 -0.6051
 4880SOL    HW215540   1.028   3.399   6.661 -1.9979  0.7824 -2.6279
 4881SOL     OW15541   2.297   0.952   0.702 -0.8319  0.0505 -0.6909
 4881SOL    HW115542   2.279   1.047   0.725  0.6677  0.6501 -1.8494
 4881SOL    HW215543   2.216   0.897   0.722 -0.4583  0.7718  3.9146
 4882SOL     OW15544   2.031   6.696   4.446 -0.1101 -0.1860 -0.1143
 4882SOL    HW115545   1.999   6.791   4.453 -0.3726 -0.0748 -2.2279
 4882SOL    HW215546   2.081   6.684   4.360  2.1601 -1.3559  1.2557
 4883SOL     OW15547   5.763   3.089   2.178 -0.4779  0.1462 -0.0287
 4883SOL    HW115548   5.750   3.026   2.255 -3.1207  1.7935  1.0207
 4883SOL    HW215549   5.836   3.154   2.200  0.6207 -1.0379 -0.1015
 4884SOL     OW15550   2.500   4.747   5.741  0.2863 -0.4528 -0.0525
 4884SOL    HW115551   2.527   4.732   5.836 -2.5891  0.2655  0.9526
 4884SOL    HW215552   2.459   4.664   5.704  0.6637 -0.4761 -0.4368
 4885SOL     OW15553   2.286   6.756   3.111  0.6743  0.1389 -0.3095
 4885SOL    HW115554   2.207   6.818   3.109  0.0991 -0.4650  1.5481
 4885SOL    HW215555   2.254   6.662   3.104  1.3494 -0.0685 -0.6842
 4886SOL     OW15556   6.556   5.418   1.613  0.6037 -0.5419 -0.0196
 4886SOL    HW115557   6.512   5.392   1.699 -1.2122  0.1481 -0.7053
 4886SOL    HW215558   6.512   5.370   1.537 -0.1294  1.3934 -0.8926
 4887SOL     OW15559   2.794   4.635   1.657  0.2331  0.4337 -0.2880
 4887SOL    HW115560   2.714   4.681   1.694  0.0141  0.4871 -0.8189
 4887SOL    HW215561   2.848   4.596   1.732 -0.2828  0.4041  0.0712
 4888SOL     OW15562   2.944   6.438   0.200  0.0667  0.0112 -0.8174
 4888SOL    HW115563   2.992   6.353   0.221  1.0145  0.6403 -0.3691
 4888SOL    HW215564   2.935   6.448   0.101  1.4398  0.1787 -0.9438
 4889SOL     OW15565   4.684   6.829   4.666  0.0438  0.0275  1.0546
 4889SOL    HW115566   4.765   6.771   4.659 -0.7631 -1.1465  1.1595
 4889SOL    HW215567   4.685   6.896   4.592  1.5164  0.5799  1.5431
 4890SOL     OW15568   1.172   0.328   4.690  0.3458 -0.3623 -0.3368
 4890SOL    HW115569   1.200   0.282   4.775  3.3448 -0.1105 -1.0878
 4890SOL    HW215570   1.184   0.427   4.700 -1.2098 -0.1389 -0.4375
 4891SOL     OW15571   1.860   5.261   0.755 -0.1451 -0.1576  0.2762
 4891SOL    HW115572   1.773   5.213   0.745  0.3957 -0.7992 -1.7139
 4891SOL    HW215573   1.844   5.360   0.748 -0.7276 -0.2497  0.2213
 4892SOL     OW15574   6.183   2.460   2.715  0.1438 -0.4890 -0.0895
 4892SOL    HW115575   6.139   2.395   2.653  2.3318  0.1906 -2.5053
 4892SOL    HW215576   6.136   2.548   2.709  0.7031 -0.2546 -1.3003
 4893SOL     OW15577   4.777   6.237   0.237  0.6302 -0.5850  0.3520
 4893SOL    HW115578   4.792   6.210   0.142  1.0762 -2.5642  0.9560
 4893SOL    HW215579   4.830   6.179   0.298 -0.6158 -0.1885  1.8989
 4894SOL     OW15580   5.154   0.614   0.312  0.1640 -0.3930  0.1834
 4894SOL    HW115581   5.190   0.538   0.366  1.6147  1.1720  1.5349
 4894SOL    HW215582   5.109   0.680   0.372  1.0993  0.9954 -0.5743
 4895SOL     OW15583   0.120   5.213   4.527 -0.3262  0.2216 -0.3044
 4895SOL    HW115584   0.024   5.195   4.547 -0.7306  0.5210 -1.8156
 4895SOL    HW215585   0.176   5.196   4.608 -1.7129  0.5296  0.7389
 4896SOL     OW15586   3.883   6.245   5.795  0.2787  0.8382 -0.0181
 4896SOL    HW115587   3.939   6.272   5.716 -1.8079  3.4052 -0.7402
 4896SOL    HW215588   3.794   6.213   5.764  0.1767 -0.2016  1.2433
 4897SOL     OW15589   2.114   1.797   6.273 -0.3579  0.4231 -0.0670
 4897SOL    HW115590   2.095   1.758   6.363  0.6095  0.5898  0.2193
 4897SOL    HW215591   2.176   1.737   6.222  1.2975  1.6199  0.4525
 4898SOL     OW15592   4.085   0.162   1.105  0.1452  0.4782 -0.2177
 4898SOL    HW115593   4.061   0.256   1.129 -2.1601  0.0452 -0.5811
 4898SOL    HW215594   4.049   0.100   1.176 -0.6336 -0.2916 -1.2595
 4899SOL     OW15595   3.421   1.475   3.822  0.3443 -0.2423 -0.2051
 4899SOL    HW115596   3.330   1.480   3.783  0.2562 -2.6066 -0.4884
 4899SOL    HW215597   3.487   1.454   3.750  0.8158 -0.4132  0.2677
 4900SOL     OW15598   0.134   3.842   3.470 -0.0099  0.1438 -0.7167
 4900SOL    HW115599   0.188   3.925   3.483  1.7015 -0.9402 -0.5024
 4900SOL    HW215600   0.087   3.820   3.555  0.8560  0.0311 -0.2460
 4901SOL     OW15601   2.423   4.554   1.927  0.1239  0.1133 -0.8074
 4901SOL    HW115602   2.385   4.490   1.860 -0.2751  0.8243 -1.2771
 4901SOL    HW215603   2.496   4.607   1.883  1.8644 -1.4020  0.1440
 4902SOL     OW15604   1.409   2.508   2.294  0.4933 -0.0774  0.2578
 4902SOL    HW115605   1.394   2.497   2.196  0.1588  1.8993  0.0485
 4902SOL    HW215606   1.495   2.556   2.310 -0.1626  0.9484  0.8369
 4903SOL     OW15607   1.082   3.801   6.944  0.3691  0.3569  0.2329
 4903SOL    HW115608   1.159   3.739   6.927  1.0840  0.4996  2.5862
 4903SOL    HW215609   1.113   3.878   6.999 -1.4644  0.4294  1.2271
 4904SOL     OW15610   2.395   5.013   5.775  0.1430 -0.3491  1.0470
 4904SOL    HW115611   2.443   4.928   5.755 -1.0991 -0.9506  0.4693
 4904SOL    HW215612   2.402   5.075   5.697 -1.4713 -1.1628  0.1889
 4905SOL     OW15613   0.524   1.530   6.961 -0.5262 -0.1509 -0.0368
 4905SOL    HW115614   0.449   1.539   7.027 -1.4548 -2.0587 -0.7383
 4905SOL    HW215615   0.549   1.433   6.954 -0.0540  0.0924 -2.0264
 4906SOL     OW15616   6.910   1.437   6.421  0.2252 -0.1347 -0.3576
 4906SOL    HW115617   6.883   1.531   6.442 -0.4995 -0.7709  1.7393
 4906SOL    HW215618   6.962   1.398   6.497  0.0308 -1.6257 -0.9463
 4907SOL     OW15619   2.391   2.512   4.640 -0.5800 -0.4284 -0.2628
 4907SOL    HW115620   2.367   2.609   4.650 -0.1739 -0.5006  1.8501
 4907SOL    HW215621   2.310   2.460   4.614 -1.1067  0.2894 -0.0815
 4908SOL     OW15622   4.201   4.291   0.199 -0.4479 -0.1023 -0.0813
 4908SOL    HW115623   4.170   4.326   0.110 -2.1912 -0.8307  0.2055
 4908SOL    HW215624   4.245   4.202   0.186  0.6768  0.4707 -0.3657
 4909SOL     OW15625   4.872   2.081   4.062  0.1962  0.0080 -0.8533
 4909SOL    HW115626   4.904   1.990   4.088 -1.2268 -0.1221  0.5893
 4909SOL    HW215627   4.792   2.106   4.117 -1.1722  0.9914 -3.1170
 4910SOL     OW15628   1.841   6.525   5.913  0.0938  0.4851 -0.5701
 4910SOL    HW115629   1.921   6.553   5.860  1.4837 -1.3405  0.4154
 4910SOL    HW215630   1.858   6.540   6.010 -1.6779  2.0585 -0.4420
 4911SOL     OW15631   3.971   6.217   4.237  0.2844  0.4461 -0.0305
 4911SOL    HW115632   3.957   6.309   4.199 -0.2966  1.0837  1.6191
 4911SOL    HW215633   4.017   6.225   4.326  1.0424 -0.9433 -0.2642
 4912SOL     OW15634   4.418   4.476   1.229  1.0036  0.0617 -0.0502
 4912SOL    HW115635   4.397   4.402   1.294 -0.3158 -0.5447 -1.1214
 4912SOL    HW215636   4.437   4.560   1.280 -2.4059  0.2694  1.1894
 4913SOL     OW15637   4.596   5.004   6.103  0.2821  0.1444  1.2219
 4913SOL    HW115638   4.675   4.998   6.164  2.6700 -1.2664 -1.7042
 4913SOL    HW215639   4.618   5.065   6.027 -1.3318 -0.5154  0.1785
 4914SOL     OW15640   6.174   2.080   2.766  0.0188  0.4191 -0.4734
 4914SOL    HW115641   6.169   2.126   2.678  0.1095  1.2509 -0.0484
 4914SOL    HW215642   6.100   2.112   2.825 -0.6361 -0.8531 -0.5714
 4915SOL     OW15643   6.661   5.048   0.688  0.1749 -0.4023 -0.2469
 4915SOL    HW115644   6.694   5.050   0.593  0.1759  0.5671 -0.2352
 4915SOL    HW215645   6.661   4.954   0.721 -1.2272 -0.9696 -1.7036
 4916SOL     OW15646   4.487   1.536   4.226  0.4024  0.5669  0.4986
 4916SOL    HW115647   4.400   1.510   4.183  0.3247  0.3475  0.7821
 4916SOL    HW215648   4.531   1.454   4.262  0.9212  0.6240  0.0084
 4917SOL     OW15649   1.456   3.707   1.070  0.2121  0.1252  0.0919
 4917SOL    HW115650   1.466   3.612   1.098 -1.5662 -1.3458 -3.6408
 4917SOL    HW215651   1.546   3.750   1.062  0.9786 -0.6271  3.2947
 4918SOL     OW15652   5.849   5.438   1.646 -0.3897  0.0941  0.1969
 4918SOL    HW115653   5.793   5.512   1.685  1.0608  0.7847  1.0603
 4918SOL    HW215654   5.945   5.465   1.650  0.1285 -1.6708  0.1024
 4919SOL     OW15655   0.831   1.850   1.443  0.1248  0.2030  0.2305
 4919SOL    HW115656   0.828   1.896   1.354  0.1611 -1.1424 -0.4787
 4919SOL    HW215657   0.864   1.757   1.432  1.3823  0.4080  1.8438
 4920SOL     OW15658   2.834   6.543   3.930  0.0125  0.0271 -0.8721
 4920SOL    HW115659   2.785   6.462   3.961 -0.6438  0.9130  0.5018
 4920SOL    HW215660   2.818   6.619   3.994  1.7816  0.8403 -1.3223
 4921SOL     OW15661   5.933   1.761   2.199  0.6324  0.6270 -0.0262
 4921SOL    HW115662   6.010   1.699   2.188 -0.1119  0.0686 -3.1032
 4921SOL    HW215663   5.948   1.843   2.144 -0.0132  1.5445  1.1182
 4922SOL     OW15664   6.967   1.649   6.756  0.5952 -0.0268 -0.3324
 4922SOL    HW115665   7.002   1.737   6.789  0.9041  0.4441 -1.8453
 4922SOL    HW215666   6.952   1.588   6.834 -0.7746  1.7464  0.8878
 4923SOL     OW15667   4.245   2.712   6.286 -0.2373 -0.0376  0.5790
 4923SOL    HW115668   4.187   2.793   6.296  1.5866  1.3077  0.6757
 4923SOL    HW215669   4.192   2.639   6.242 -1.9098  1.1992  0.4279
 4924SOL     OW15670   3.179   1.530   3.698  0.3813  0.0550 -0.3153
 4924SOL    HW115671   3.129   1.449   3.666  0.1485 -0.4386  1.2050
 4924SOL    HW215672   3.115   1.595   3.739  0.6632  0.6947 -0.8651
 4925SOL     OW15673   4.719   2.129   6.061 -0.1607 -0.1501  0.1675
 4925SOL    HW115674   4.729   2.226   6.040 -1.9486  0.0816  0.1963
 4925SOL    HW215675   4.671   2.119   6.148 -1.7047 -1.0220 -0.7437
 4926SOL     OW15676   6.468   6.849   5.359  0.5255 -1.0045  0.3563
 4926SOL    HW115677   6.438   6.760   5.324 -2.6754  0.0814 -0.0012
 4926SOL    HW215678   6.456   6.852   5.458 -1.2283 -0.3990  0.1557
 4927SOL     OW15679   6.342   2.075   1.191 -0.2180 -0.0780 -0.2194
 4927SOL    HW115680   6.435   2.112   1.195 -0.7946  1.4917 -0.7262
 4927SOL    HW215681   6.346   1.975   1.199  1.4270  0.0245  0.7631
 4928SOL     OW15682   3.558   6.391   1.098 -0.1337  0.0721  0.5753
 4928SOL    HW115683   3.593   6.419   1.009 -1.4479 -1.4331 -0.4777
 4928SOL    HW215684   3.535   6.471   1.153 -3.3392  1.1959 -2.0938
 4929SOL     OW15685   1.782   1.153   2.912  0.0156  0.0490 -0.3744
 4929SOL    HW115686   1.795   1.149   3.011  0.0161  2.5710 -0.2060
 4929SOL    HW215687   1.711   1.220   2.891 -0.1030 -0.5722 -2.1003
 4930SOL     OW15688   6.261   2.287   3.990 -0.2554 -0.1260  0.8124
 4930SOL    HW115689   6.258   2.385   4.009  2.3142  0.4708 -1.3140
 4930SOL    HW215690   6.194   2.264   3.919  0.9202  0.6576 -0.6011
 4931SOL     OW15691   4.257   3.497   1.666  0.4478 -0.0512  0.3465
 4931SOL    HW115692   4.285   3.512   1.572 -0.2105  0.7594  0.2704
 4931SOL    HW215693   4.310   3.422   1.706  1.2726  0.1274 -0.4156
 4932SOL     OW15694   6.980   4.206   5.366  0.4235 -0.0943 -0.2260
 4932SOL    HW115695   6.985   4.302   5.394  1.6982  0.0014 -0.7339
 4932SOL    HW215696   6.901   4.163   5.410 -1.2053  1.6107 -1.3318
 4933SOL     OW15697   6.482   1.580   4.711 -0.0078  0.7864 -0.2971
 4933SOL    HW115698   6.499   1.486   4.743 -0.0685  1.3554  1.4834
 4933SOL    HW215699   6.547   1.642   4.754 -1.7327  1.9476  0.7358
 4934SOL     OW15700   2.046   3.701   2.793  0.9299  0.8189 -0.4619
 4934SOL    HW115701   1.972   3.732   2.733 -1.2536  0.9168  2.1147
 4934SOL    HW215702   2.131   3.746   2.766 -0.6926  3.7298 -1.2205
 4935SOL     OW15703   6.608   3.424   3.202  0.2766  0.2370 -0.0888
 4935SOL    HW115704   6.513   3.400   3.220  0.0956  0.5766 -0.5629
 4935SOL    HW215705   6.613   3.519   3.170  0.6871 -0.0086 -0.7821
 4936SOL     OW15706   6.569   5.728   2.709  0.2304  0.4653 -0.1137
 4936SOL    HW115707   6.508   5.690   2.639  0.8295  1.7411 -1.3789
 4936SOL    HW215708   6.640   5.661   2.732  0.0837  0.0661 -0.8039
 4937SOL     OW15709   2.243   0.618   1.765 -0.2225  0.1988  0.2713
 4937SOL    HW115710   2.331   0.589   1.802 -0.0993  0.4030  0.1390
 4937SOL    HW215711   2.221   0.565   1.683  0.0751  0.5844 -0.0594
 4938SOL     OW15712   1.430   4.666   4.776  0.2447 -0.5849  0.1939
 4938SOL    HW115713   1.449   4.676   4.874 -0.0818 -0.2411  0.2237
 4938SOL    HW215714   1.516   4.660   4.726  0.4138 -0.8527  0.5114
 4939SOL     OW15715   2.589   0.652   0.510  0.5058 -0.1113 -0.0486
 4939SOL    HW115716   2.613   0.748   0.500  2.4381 -0.5806 -0.2917
 4939SOL    HW215717   2.581   0.609   0.420 -1.6658  0.0712 -0.0014
 4940SOL     OW15718   2.429   4.917   1.169  0.2537 -1.1149 -0.2020
 4940SOL    HW115719   2.487   4.938   1.248  0.5345  1.3640 -0.9729
 4940SOL    HW215720   2.483   4.868   1.101  1.3814  0.7345 -0.7056
 4941SOL     OW15721   3.213   2.137   0.355  0.0899  0.6406 -0.5694
 4941SOL    HW115722   3.297   2.088   0.334  0.0119  1.1662 -2.2656
 4941SOL    HW215723   3.234   2.219   0.408  1.0575  2.1689 -3.0923
 4942SOL     OW15724   5.501   2.138   1.998 -0.8412 -0.2574  0.2517
 4942SOL    HW115725   5.450   2.067   1.949 -0.4940 -0.2440 -0.1291
 4942SOL    HW215726   5.587   2.156   1.952 -1.0477  0.6147  0.1775
 4943SOL     OW15727   6.824   6.615   0.843  0.0504 -0.2084  0.2256
 4943SOL    HW115728   6.898   6.594   0.907  0.7472  0.8065 -0.2226
 4943SOL    HW215729   6.773   6.695   0.876  0.4083  0.3149 -0.4583
 4944SOL     OW15730   5.120   4.383   2.735  0.4203 -0.1790  1.2623
 4944SOL    HW115731   5.100   4.444   2.658 -0.9861 -0.0393  1.7215
 4944SOL    HW215732   5.183   4.429   2.798  1.3907 -0.2034  0.3455
 4945SOL     OW15733   1.187   4.227   5.417  0.0467  0.4832 -0.2371
 4945SOL    HW115734   1.181   4.145   5.360 -0.4589  1.0484 -1.0184
 4945SOL    HW215735   1.101   4.239   5.467 -0.0814  0.8163 -0.5303
 4946SOL     OW15736   5.719   4.397   1.303 -0.1450  0.5657 -0.5872
 4946SOL    HW115737   5.671   4.365   1.221  0.2937 -0.7358 -0.3591
 4946SOL    HW215738   5.803   4.345   1.315  0.7881  2.0579 -0.3567
 4947SOL     OW15739   5.903   0.133   1.749 -0.5054  0.0833  0.0732
 4947SOL    HW115740   5.956   0.217   1.742 -0.2498 -0.0311  0.5900
 4947SOL    HW215741   5.947   0.070   1.814 -0.6597 -0.4755 -0.3486
 4948SOL     OW15742   2.395   5.371   0.434 -0.3159 -0.2075  0.4317
 4948SOL    HW115743   2.300   5.344   0.418 -0.8242  0.5198  2.0052
 4948SOL    HW215744   2.426   5.333   0.521  1.2444 -1.3637 -0.5546
 4949SOL     OW15745   0.091   2.363   4.621  0.2887 -0.0054 -0.8307
 4949SOL    HW115746   0.062   2.280   4.575 -0.7585 -0.1014 -0.0368
 4949SOL    HW215747   0.015   2.428   4.624  0.2914 -0.0453  0.8380
 4950SOL     OW15748   3.292   5.674   1.951  0.4464 -0.3400  0.1543
 4950SOL    HW115749   3.323   5.592   1.902  0.7656 -0.8292  1.1473
 4950SOL    HW215750   3.200   5.698   1.919 -0.2411 -1.9176  0.8145
 4951SOL     OW15751   5.071   2.768   5.289 -0.2050  0.6303  0.0867
 4951SOL    HW115752   5.039   2.704   5.218 -0.2718  1.4376 -0.6287
 4951SOL    HW215753   5.001   2.777   5.360  0.4367 -1.2752  1.0202
 4952SOL     OW15754   3.478   5.464   6.857  0.1585  0.1778  0.2607
 4952SOL    HW115755   3.478   5.365   6.848 -1.2297  0.2849 -1.3117
 4952SOL    HW215756   3.420   5.491   6.934  0.3297 -0.2138  0.5280
 4953SOL     OW15757   6.588   3.035   3.742 -0.1813  0.2719  0.0447
 4953SOL    HW115758   6.603   2.977   3.662  0.4981  1.1467 -0.4879
 4953SOL    HW215759   6.670   3.090   3.759 -1.1965  1.9680 -0.2397
 4954SOL     OW15760   3.767   3.234   3.560  0.3348 -0.0410 -0.7577
 4954SOL    HW115761   3.863   3.242   3.531  1.6334 -3.5769  1.8477
 4954SOL    HW215762   3.756   3.278   3.649 -0.5163  0.3948 -1.0723
 4955SOL     OW15763   6.265   4.956   6.988 -0.7973  0.6933 -0.2021
 4955SOL    HW115764   6.225   5.014   6.917  0.1136 -0.7222 -1.9262
 4955SOL    HW215765   6.194   4.901   7.031 -1.0395 -0.2748 -1.7915
 4956SOL     OW15766   1.031   6.824   2.647 -0.4470 -0.0147  0.1507
 4956SOL    HW115767   1.074   6.891   2.708 -0.0726 -0.7025  0.6492
 4956SOL    HW215768   1.097   6.795   2.578 -0.1146 -0.9861  0.8484
 4957SOL     OW15769   1.760   3.100   6.215  0.1767 -0.0202 -0.3331
 4957SOL    HW115770   1.792   3.194   6.230 -2.2906  0.6059  1.7326
 4957SOL    HW215771   1.680   3.102   6.154  0.1667 -0.7934 -0.3536
 4958SOL     OW15772   3.831   2.303   0.928  0.0953 -0.1211  0.0535
 4958SOL    HW115773   3.785   2.214   0.919 -0.2780  0.0319  0.3889
 4958SOL    HW215774   3.799   2.348   1.012 -0.8345  0.9687 -0.8501
 4959SOL     OW15775   4.567   1.681   1.822 -0.6478 -0.1594 -0.1106
 4959SOL    HW115776   4.550   1.626   1.740  0.0375 -0.8357  0.1891
 4959SOL    HW215777   4.593   1.621   1.898 -0.0774  0.5686  0.2816
 4960SOL     OW15778   4.365   1.296   2.355  0.2886  0.1839  0.0109
 4960SOL    HW115779   4.361   1.335   2.263 -0.3013  0.4442  0.1404
 4960SOL    HW215780   4.301   1.344   2.415  2.8417  2.0846  1.3753
 4961SOL     OW15781   3.312   6.416   6.044  0.4503  0.8025  0.6007
 4961SOL    HW115782   3.411   6.415   6.060  0.3419 -2.8029  2.2310
 4961SOL    HW215783   3.293   6.387   5.950  0.8558  3.9153 -0.5537
 4962SOL     OW15784   7.002   3.921   2.442 -0.2285  0.2824  0.1347
 4962SOL    HW115785   7.086   3.882   2.482 -0.4794  1.6238  2.1273
 4962SOL    HW215786   6.967   3.859   2.372 -0.7055 -3.2257  3.1657
 4963SOL     OW15787   4.937   6.564   1.980 -0.2835 -0.1098  0.5424
 4963SOL    HW115788   5.009   6.496   1.996  1.2850  0.5161 -2.9074
 4963SOL    HW215789   4.975   6.640   1.926 -3.1791  1.0014 -0.1013
 4964SOL     OW15790   4.292   5.263   2.311 -0.2911 -0.0517  0.0460
 4964SOL    HW115791   4.331   5.226   2.227  1.5736  1.3314  0.2226
 4964SOL    HW215792   4.360   5.321   2.356 -1.0481 -1.1434  2.8001
 4965SOL     OW15793   3.245   1.075   4.253 -0.1148 -0.2102  0.0740
 4965SOL    HW115794   3.255   1.023   4.168  2.0484 -0.9409  0.7323
 4965SOL    HW215795   3.310   1.150   4.254  1.7210 -1.7204  2.1315
 4966SOL     OW15796   4.210   5.195   5.326  0.2116 -0.0166  0.2326
 4966SOL    HW115797   4.155   5.271   5.360  1.2185  0.8711 -0.0818
 4966SOL    HW215798   4.171   5.109   5.359 -1.7168  0.5357 -0.4934
 4967SOL     OW15799   3.778   3.701   4.989  0.0234 -0.3533 -0.0969
 4967SOL    HW115800   3.705   3.769   4.980  0.4254  0.4287  1.9626
 4967SOL    HW215801   3.862   3.736   4.949 -0.2811 -0.5321 -0.9120
 4968SOL     OW15802   4.477   2.199   1.597  0.3577 -0.1904 -0.4202
 4968SOL    HW115803   4.457   2.282   1.545  1.2081  0.2918 -0.0062
 4968SOL    HW215804   4.394   2.166   1.641 -0.1031  0.1224 -1.0417
 4969SOL     OW15805   5.523   5.586   0.176 -0.3916  0.9767  0.1891
 4969SOL    HW115806   5.599   5.640   0.139  0.7224  0.8567  2.1260
 4969SOL    HW215807   5.442   5.644   0.187 -0.7450  1.0222 -2.2393
 4970SOL     OW15808   4.257   1.721   2.494  0.2556 -0.4526  0.0145
 4970SOL    HW115809   4.214   1.809   2.518 -0.3330  0.2402 -3.1461
 4970SOL    HW215810   4.355   1.734   2.483  0.1031 -0.0147 -0.9623
 4971SOL     OW15811   5.063   6.661   2.776  0.2833 -0.1949  0.2568
 4971SOL    HW115812   5.101   6.751   2.796 -1.7894  0.3519  2.2088
 4971SOL    HW215813   5.130   6.590   2.796  1.4264  0.8395  0.1701
 4972SOL     OW15814   4.561   6.731   5.423  0.1894 -0.0124 -0.0121
 4972SOL    HW115815   4.612   6.814   5.400 -0.0051 -0.2379 -1.3392
 4972SOL    HW215816   4.524   6.740   5.515  1.4496  0.7331  0.4630
 4973SOL     OW15817   2.894   3.538   5.550 -0.3272  0.1347  0.6064
 4973SOL    HW115818   2.886   3.579   5.641  2.0418  0.7242  0.6273
 4973SOL    HW215819   2.945   3.452   5.556 -1.2287 -0.4722 -0.0427
 4974SOL     OW15820   4.898   0.058   6.278 -0.7917  0.2913 -0.4182
 4974SOL    HW115821   4.960   0.012   6.214 -0.8194 -0.7055  0.2415
 4974SOL    HW215822   4.804   0.032   6.258 -0.8867  0.7570 -0.5847
 4975SOL     OW15823   0.947   2.314   5.691 -0.3957 -0.5400  0.2424
 4975SOL    HW115824   1.004   2.388   5.726  0.6778 -1.0708 -0.3526
 4975SOL    HW215825   0.905   2.343   5.604 -1.5198  0.0555  0.9502
 4976SOL     OW15826   3.097   6.000   3.732  0.2573 -0.5607 -0.4512
 4976SOL    HW115827   3.133   5.906   3.730 -2.4173 -1.6901  0.1181
 4976SOL    HW215828   3.144   6.055   3.663  1.5779 -2.4431 -1.1387
 4977SOL     OW15829   2.240   4.837   2.412  0.4395  0.6473  0.6621
 4977SOL    HW115830   2.310   4.785   2.363  1.1119  3.1898 -1.2761
 4977SOL    HW215831   2.285   4.900   2.477 -0.2541  0.1033  1.6958
 4978SOL     OW15832   0.495   3.306   2.933  0.0153 -0.4441 -0.2445
 4978SOL    HW115833   0.569   3.299   3.000 -0.4175 -2.9596  0.0787
 4978SOL    HW215834   0.439   3.386   2.954  0.7873 -0.2947  1.4366
 4979SOL     OW15835   3.162   4.921   6.892 -0.4206 -1.0163  0.1016
 4979SOL    HW115836   3.131   4.931   6.986  0.8648 -2.0360  0.6614
 4979SOL    HW215837   3.096   4.964   6.830 -1.1455 -0.0985  1.4721
 4980SOL     OW15838   1.920   0.865   6.551  0.0779  0.1024 -0.1340
 4980SOL    HW115839   1.873   0.827   6.630  1.8417  1.7528  1.8192
 4980SOL    HW215840   1.853   0.904   6.487 -1.4379 -2.3036 -0.0962
 4981SOL     OW15841   1.308   4.101   1.863 -0.8641 -0.0734 -0.5180
 4981SOL    HW115842   1.323   4.021   1.805  0.2557  0.3737 -0.8838
 4981SOL    HW215843   1.262   4.173   1.811  1.1442  0.7479 -1.2544
 4982SOL     OW15844   0.836   4.296   0.120 -0.1590 -0.1953  0.2108
 4982SOL    HW115845   0.745   4.278   0.084  0.1512 -3.3574  0.7189
 4982SOL    HW215846   0.905   4.275   0.051  0.2855  2.1070 -0.1479
 4983SOL     OW15847   6.548   0.957   2.922 -0.1717 -0.6210 -0.1457
 4983SOL    HW115848   6.624   1.022   2.933 -0.4582 -0.3227  0.0781
 4983SOL    HW215849   6.581   0.876   2.874  0.4166 -0.7105  0.3947
 4984SOL     OW15850   5.822   1.237   5.215 -0.5188 -0.1477 -0.7558
 4984SOL    HW115851   5.841   1.320   5.267  1.6386 -0.6194 -0.7339
 4984SOL    HW215852   5.754   1.257   5.144 -0.6458  1.4187 -0.2325
 4985SOL     OW15853   2.216   6.928   2.258  0.1164 -0.2399  0.2005
 4985SOL    HW115854   2.138   6.876   2.292  0.8408 -1.7554 -0.3356
 4985SOL    HW215855   2.185   7.016   2.222 -1.6562 -1.5780 -1.7810
 4986SOL     OW15856   3.987   2.463   0.096  0.1939  0.2229 -0.1237
 4986SOL    HW115857   3.908   2.406   0.071  0.1007  1.0136 -1.7704
 4986SOL    HW215858   4.055   2.458   0.023  0.9786  0.8027  0.5598
 4987SOL     OW15859   4.020   3.732   2.372 -0.0881  0.4619  0.0494
 4987SOL    HW115860   3.941   3.680   2.404 -0.9585  1.4132 -0.5172
 4987SOL    HW215861   4.074   3.761   2.450 -0.3422 -0.1173  0.4492
 4988SOL     OW15862   5.808   2.822   3.985 -0.0437 -0.4112  0.0352
 4988SOL    HW115863   5.760   2.879   4.051 -1.9952 -1.2655 -0.5745
 4988SOL    HW215864   5.746   2.798   3.910  0.1377 -4.5034  0.9545
 4989SOL     OW15865   0.995   1.356   6.237 -0.5242  0.0928  0.5360
 4989SOL    HW115866   0.966   1.293   6.165 -1.5488  0.0146  1.0003
 4989SOL    HW215867   1.022   1.304   6.318  0.7265  0.1767  0.1907
 4990SOL     OW15868   5.995   1.040   4.758 -0.2739  0.3293 -0.8095
 4990SOL    HW115869   5.916   0.981   4.743 -1.3007  1.5052 -0.2125
 4990SOL    HW215870   5.973   1.133   4.732  1.2313  0.5302 -1.4762
 4991SOL     OW15871   2.965   6.745   4.416 -0.0231 -0.4360 -0.4669
 4991SOL    HW115872   3.057   6.766   4.382  0.0031 -0.3811 -0.3638
 4991SOL    HW215873   2.903   6.821   4.396 -0.1341 -0.6300 -0.8652
 4992SOL     OW15874   6.090   3.242   6.530 -0.2189  0.1374 -0.0423
 4992SOL    HW115875   6.076   3.170   6.463  0.3629 -0.8427  0.8480
 4992SOL    HW215876   6.010   3.249   6.589 -0.1507  0.0016  0.0671
 4993SOL     OW15877   1.217   4.380   6.816  0.1340  0.1548  0.3069
 4993SOL    HW115878   1.293   4.419   6.763 -0.7069  2.4933  0.6742
 4993SOL    HW215879   1.254   4.325   6.891  1.5341  1.6396  0.7803
 4994SOL     OW15880   4.737   1.300   4.163  0.0134  0.3545  0.4465
 4994SOL    HW115881   4.710   1.338   4.075 -0.9814 -0.2573  0.4651
 4994SOL    HW215882   4.795   1.220   4.148 -1.4953 -0.7646  0.2521
 4995SOL     OW15883   6.855   3.536   4.270 -0.2201  0.4977  0.1418
 4995SOL    HW115884   6.809   3.454   4.236  1.5973 -1.0966  1.2942
 4995SOL    HW215885   6.850   3.608   4.201 -2.1433 -0.4571 -0.7821
 4996SOL     OW15886   1.241   1.726   6.266 -0.1663  0.2758 -0.5124
 4996SOL    HW115887   1.164   1.754   6.323 -1.7336 -1.0476 -1.8569
 4996SOL    HW215888   1.263   1.798   6.201  0.6981  1.2227  0.7878
 4997SOL     OW15889   0.614   5.218   5.607 -0.9670  0.2672 -0.0205
 4997SOL    HW115890   0.643   5.122   5.611 -1.1557  0.1908 -0.4482
 4997SOL    HW215891   0.655   5.261   5.526 -0.9408  0.5286  0.1314
 4998SOL     OW15892   5.304   0.720   4.719  0.3528  0.5607  0.1396
 4998SOL    HW115893   5.340   0.781   4.649  0.8302  1.5825  1.2365
 4998SOL    HW215894   5.214   0.753   4.749  0.2163  0.2204  0.1023
 4999SOL     OW15895   5.853   5.996   3.694  0.1223  0.1192 -0.1613
 4999SOL    HW115896   5.901   5.910   3.675  2.3839  0.8734  1.6628
 4999SOL    HW215897   5.826   5.998   3.790 -1.4200  0.7894 -0.5814
 5000SOL     OW15898   4.001   3.903   3.498 -0.7262  0.0031  0.0956
 5000SOL    HW115899   3.934   3.976   3.512  0.9599  1.5855  0.3032
 5000SOL    HW215900   4.024   3.861   3.586 -0.8511  0.0233  0.1372
 5001SOL     OW15901   6.564   3.094   3.311  0.0211 -0.0939 -0.9748
 5001SOL    HW115902   6.564   3.166   3.380  0.8724  0.6316 -1.7085
 5001SOL    HW215903   6.469   3.072   3.285 -0.3335 -0.7306  0.7470
 5002SOL     OW15904   3.742   4.138   0.902 -0.0101 -0.0941  0.0327
 5002SOL    HW115905   3.757   4.048   0.863 -0.6511  0.6735 -2.1189
 5002SOL    HW215906   3.829   4.180   0.926  0.6135  0.1066 -2.3415
 5003SOL     OW15907   1.010   3.668   1.227 -0.3764  0.1058  0.2485
 5003SOL    HW115908   0.930   3.716   1.189  0.1348 -0.4594 -1.6064
 5003SOL    HW215909   1.093   3.719   1.204 -0.0376 -0.3445  0.4751
 5004SOL     OW15910   2.748   0.018   4.022  0.4555  0.3275  0.2166
 5004SOL    HW115911   2.779  -0.073   4.050 -0.0132 -0.3343 -1.3260
 5004SOL    HW215912   2.826   0.081   4.024  1.4612 -0.7861 -1.3985
 5005SOL     OW15913   3.829   6.179   1.265 -0.1100 -0.1455  0.2752
 5005SOL    HW115914   3.731   6.173   1.280 -0.2756 -0.5780 -0.8391
 5005SOL    HW215915   3.848   6.256   1.203  0.1231 -0.7249 -0.3941
 5006SOL     OW15916   0.155   2.450   1.395 -0.1954  0.0130  0.2090
 5006SOL    HW115917   0.126   2.508   1.319 -0.3497  0.0138  0.2673
 5006SOL    HW215918   0.080   2.441   1.460  0.5338  1.6174  1.3530
 5007SOL     OW15919   1.451   2.011   2.437 -0.1028  0.6967 -0.3578
 5007SOL    HW115920   1.493   1.966   2.516 -0.5425  0.6096 -0.1733
 5007SOL    HW215921   1.380   1.953   2.399  0.6663  0.3659 -1.3462
 5008SOL     OW15922   0.291   5.173   7.021  0.3039 -0.3615 -0.1458
 5008SOL    HW115923   0.234   5.223   7.087 -0.0850  1.3776 -1.7219
 5008SOL    HW215924   0.270   5.076   7.026  0.3891 -0.3336  2.3615
 5009SOL     OW15925   2.669   0.504   0.266  0.0854 -0.6971  0.4791
 5009SOL    HW115926   2.598   0.449   0.222 -0.9130  0.7425  0.1977
 5009SOL    HW215927   2.718   0.557   0.196 -0.5415  0.5101  0.9269
 5010SOL     OW15928   3.836   2.948   2.137  0.4203 -0.8142 -0.1279
 5010SOL    HW115929   3.840   2.909   2.229 -0.9724 -0.2563  0.1877
 5010SOL    HW215930   3.884   3.036   2.136 -1.1941  0.1219  0.5938
 5011SOL     OW15931   1.754   3.359   3.707  0.1334  0.3377  0.2053
 5011SOL    HW115932   1.817   3.340   3.631 -1.7498  0.0560 -1.3588
 5011SOL    HW215933   1.730   3.456   3.708 -0.6962  0.1474 -0.2764
 5012SOL     OW15934   3.173   1.109   5.297  0.5163  0.3079 -0.1681
 5012SOL    HW115935   3.254   1.140   5.248 -0.3221 -0.1467 -1.9105
 5012SOL    HW215936   3.114   1.186   5.317  1.5891  0.7235  1.5996
 5013SOL     OW15937   2.023   5.140   3.745 -1.3260 -0.3772 -0.1551
 5013SOL    HW115938   2.038   5.221   3.688  0.8738 -0.7212 -0.1414
 5013SOL    HW215939   2.020   5.059   3.687 -4.3343 -0.3009 -0.2610
 5014SOL     OW15940   2.492   0.351   2.808  0.3252  0.3240 -0.0751
 5014SOL    HW115941   2.483   0.448   2.787 -0.8960  0.3966  0.6476
 5014SOL    HW215942   2.420   0.300   2.760 -1.1619  0.2325  2.0598
 5015SOL     OW15943   1.907   0.251   2.572 -0.8627  0.0592 -0.0889
 5015SOL    HW115944   1.863   0.321   2.630 -0.6869  0.3034 -0.2471
 5015SOL    HW215945   1.840   0.183   2.546 -1.1782  0.4917 -0.4213
 5016SOL     OW15946   6.830   2.418   3.579 -0.4119  0.1400 -0.1506
 5016SOL    HW115947   6.873   2.487   3.638  1.0800  0.1138 -1.1565
 5016SOL    HW215948   6.825   2.452   3.486  0.0715 -0.9893 -0.6049
 5017SOL     OW15949   3.455   5.800   3.945  0.3999  0.3742  0.4193
 5017SOL    HW115950   3.450   5.738   4.023 -0.6260  0.0450  0.1063
 5017SOL    HW215951   3.545   5.843   3.942  1.7558 -2.2880 -0.2659
 5018SOL     OW15952   2.169   2.056   1.666  0.3563 -0.2298  0.1339
 5018SOL    HW115953   2.217   2.143   1.654  0.7718 -0.5403 -0.4915
 5018SOL    HW215954   2.072   2.068   1.647  0.3233  0.2103  0.5607
 5019SOL     OW15955   3.769   5.317   2.573 -0.0779 -0.1246 -0.3042
 5019SOL    HW115956   3.732   5.225   2.582  0.8291 -0.4117  0.6341
 5019SOL    HW215957   3.702   5.375   2.526 -1.2624 -0.8809  0.4030
 5020SOL     OW15958   0.349   3.704   0.190 -0.2234  0.3332  0.8886
 5020SOL    HW115959   0.393   3.785   0.228  0.8301 -0.3698  1.2308
 5020SOL    HW215960   0.256   3.696   0.226  0.0160  0.8431  1.6423
 5021SOL     OW15961   0.676   3.216   3.132  0.3991  0.5104 -0.2100
 5021SOL    HW115962   0.652   3.295   3.187 -1.4242  1.6186 -2.4137
 5021SOL    HW215963   0.601   3.149   3.133  2.2279 -1.6870  2.2651
 5022SOL     OW15964   4.964   3.655   1.082  0.0614  0.0866  0.4108
 5022SOL    HW115965   4.892   3.724   1.086  0.0955  0.1519 -0.0148
 5022SOL    HW215966   5.053   3.700   1.087  0.0895  0.1041 -0.1598
 5023SOL     OW15967   6.017   1.761   5.352 -0.0363 -0.4191  0.0977
 5023SOL    HW115968   6.083   1.701   5.397 -0.4308  0.2833  1.6580
 5023SOL    HW215969   5.946   1.789   5.417 -1.0348  0.0579 -1.1483
 5024SOL     OW15970   1.719   3.397   5.446 -0.1782 -0.7755 -0.2813
 5024SOL    HW115971   1.786   3.416   5.374 -1.4341 -0.4615 -1.4041
 5024SOL    HW215972   1.679   3.306   5.432 -0.4434 -0.7058  0.0123
 5025SOL     OW15973   4.099   3.278   1.197 -0.0814  0.0831 -0.2072
 5025SOL    HW115974   4.034   3.254   1.270  1.7173  0.8858  1.7727
 5025SOL    HW215975   4.077   3.368   1.161 -1.1147 -0.4072 -0.8278
 5026SOL     OW15976   0.035   0.748   1.640  0.5765  0.1737  0.3139
 5026SOL    HW115977  -0.017   0.676   1.687  2.2096 -0.6318  0.9729
 5026SOL    HW215978   0.063   0.818   1.706 -0.6146  1.2213 -0.2465
 5027SOL     OW15979   2.033   0.083   5.523  0.9843 -0.1979  1.0003
 5027SOL    HW115980   2.059   0.133   5.605 -0.4344  2.1205  0.1394
 5027SOL    HW215981   1.934   0.067   5.524  1.0275 -0.6027 -0.0264
 5028SOL     OW15982   2.873   5.669   1.283  0.4013 -0.2374 -0.7226
 5028SOL    HW115983   2.839   5.761   1.265  2.1114  0.5350 -0.2558
 5028SOL    HW215984   2.854   5.610   1.204  1.3070  1.1340 -2.0246
 5029SOL     OW15985   1.128   3.789   5.381  0.5151  0.3878  0.2926
 5029SOL    HW115986   1.190   3.730   5.330 -2.2032 -1.3339 -1.2668
 5029SOL    HW215987   1.055   3.821   5.321 -3.1040 -2.0556  2.9091
 5030SOL     OW15988   5.692   3.756   6.927  0.6609 -0.4076 -0.0562
 5030SOL    HW115989   5.657   3.670   6.891 -1.1216 -0.2767  1.2320
 5030SOL    HW215990   5.771   3.738   6.985  0.6377 -1.1202 -0.2328
 5031SOL     OW15991   2.994   0.696   3.373 -0.7124  0.4831 -0.0235
 5031SOL    HW115992   3.019   0.644   3.291 -1.0773  0.7820 -0.3278
 5031SOL    HW215993   3.077   0.722   3.423 -0.5071 -0.0155 -0.0986
 5032SOL     OW15994   6.980   0.856   1.421 -0.6191  0.1857  0.0420
 5032SOL    HW115995   7.073   0.888   1.405 -0.5061 -0.4379 -0.5937
 5032SOL    HW215996   6.978   0.802   1.505 -0.2801 -0.3020 -0.2597
 5033SOL     OW15997   6.778   5.553   1.198 -0.2120 -0.4308 -0.2424
 5033SOL    HW115998   6.858   5.498   1.175 -0.2043  0.3866 -2.4032
 5033SOL    HW215999   6.696   5.511   1.160 -0.4347  0.0888 -0.3561
 5034SOL     OW16000   0.376   2.327   1.926 -0.1321  0.0984 -0.0674
 5034SOL    HW116001   0.410   2.370   2.010 -1.3202  0.2168  0.3716
 5034SOL    HW216002   0.278   2.345   1.916 -0.1326 -0.3949 -1.1951
 5035SOL     OW16003   3.480   5.714   3.320  0.6097 -0.1045  0.1917
 5035SOL    HW116004   3.441   5.632   3.360  2.3003 -1.0411  0.0111
 5035SOL    HW216005   3.443   5.795   3.366 -2.1272 -0.8465 -0.5387
 5036SOL     OW16006   5.282   1.823   0.357 -0.3545 -0.4560  0.1022
 5036SOL    HW116007   5.275   1.901   0.419  1.0222 -1.4542  1.5945
 5036SOL    HW216008   5.243   1.847   0.268 -0.8590  1.5782  0.8320
 5037SOL     OW16009   5.666   2.706   4.346 -0.5699 -0.4557 -0.0223
 5037SOL    HW116010   5.755   2.699   4.390 -0.5669 -1.0274 -0.1169
 5037SOL    HW216011   5.638   2.616   4.312 -1.2638 -0.3147  0.1654
 5038SOL     OW16012   1.867   6.955   0.276  0.3707  0.1287  0.2441
 5038SOL    HW116013   1.891   6.973   0.371  0.0588 -0.3847  0.4273
 5038SOL    HW216014   1.899   6.864   0.250 -2.0088 -0.9319  0.7573
 5039SOL     OW16015   6.051   6.401   6.104  0.1433 -0.2631 -0.2623
 5039SOL    HW116016   5.970   6.439   6.149  0.9699  0.1510  0.9154
 5039SOL    HW216017   6.023   6.326   6.044 -0.9271 -1.4144  1.5842
 5040SOL     OW16018   0.578   3.055   6.994 -0.0662  0.4171  0.2565
 5040SOL    HW116019   0.537   3.146   6.987 -0.4367  0.3640  1.4939
 5040SOL    HW216020   0.674   3.059   6.965 -0.3920  0.9627 -0.7555
 5041SOL     OW16021   4.782   2.291   3.585 -0.4719 -0.0962 -0.0261
 5041SOL    HW116022   4.819   2.376   3.549 -0.9613 -0.1323 -0.6118
 5041SOL    HW216023   4.753   2.305   3.680 -0.3809  0.3361 -0.0611
 5042SOL     OW16024   4.935   6.724   3.627  0.3400 -0.2043 -0.5858
 5042SOL    HW116025   4.946   6.756   3.722 -2.0357  0.9069 -0.5947
 5042SOL    HW216026   4.986   6.640   3.614  2.3651  0.6717  1.0844
 5043SOL     OW16027   4.610   2.627   4.718 -0.2022 -0.4057 -0.1725
 5043SOL    HW116028   4.565   2.538   4.710  0.3447 -0.8020  0.8961
 5043SOL    HW216029   4.677   2.624   4.793 -0.7397  1.1260  0.4214
 5044SOL     OW16030   6.520   0.592   1.269 -0.1813 -0.0196 -0.4783
 5044SOL    HW116031   6.511   0.493   1.280 -0.8883  0.1564  0.7622
 5044SOL    HW216032   6.526   0.635   1.359  3.5493  0.8183 -0.9358
 5045SOL     OW16033   4.925   1.507   2.383  0.2299  0.4888 -0.4789
 5045SOL    HW116034   4.879   1.451   2.315  0.1716  1.0321 -0.8974
 5045SOL    HW216035   5.024   1.501   2.371  0.3587 -1.4713  1.0514
 5046SOL     OW16036   2.107   1.563   0.118  0.2622  0.1389  0.3786
 5046SOL    HW116037   2.184   1.500   0.110  0.0465 -0.0294 -0.6227
 5046SOL    HW216038   2.054   1.541   0.200  0.8332 -0.2483  0.6506
 5047SOL     OW16039   4.242   1.246   0.015 -0.2057  0.0029  0.0751
 5047SOL    HW116040   4.176   1.189  -0.033  0.0435 -0.6663  0.5189
 5047SOL    HW216041   4.334   1.231  -0.023 -0.0053 -0.5377  0.7505
 5048SOL     OW16042   5.869   4.062   2.032  0.5898 -0.0281 -0.4628
 5048SOL    HW116043   5.918   3.980   2.002 -1.7283 -1.3819 -0.8238
 5048SOL    HW216044   5.783   4.035   2.076 -0.1778  2.2218 -0.4390
 5049SOL     OW16045   5.929   2.779   5.829 -0.2081  0.1223  0.2653
 5049SOL    HW116046   6.016   2.829   5.827  0.2463 -0.6648 -0.3989
 5049SOL    HW216047   5.911   2.741   5.738 -0.9837 -0.1820  0.5425
 5050SOL     OW16048   1.246   6.061   5.373  0.2545  0.6237  0.2047
 5050SOL    HW116049   1.261   6.076   5.471 -0.3882  0.0326  0.4002
 5050SOL    HW216050   1.324   6.012   5.335  0.2954  0.4393  0.5227
 5051SOL     OW16051   3.409   0.383   6.646 -0.3017  0.1800  0.5877
 5051SOL    HW116052   3.396   0.288   6.618  0.9052  0.6044 -1.7235
 5051SOL    HW216053   3.321   0.422   6.673 -0.8152 -1.5679  1.5825
 5052SOL     OW16054   0.561   4.160   3.288  0.0370  0.3998  0.3575
 5052SOL    HW116055   0.514   4.080   3.253  2.3266 -0.8759  0.0416
 5052SOL    HW216056   0.639   4.132   3.344  0.5562  2.4028  0.7308
 5053SOL     OW16057   0.890   0.823   6.971 -0.0956 -0.2304 -0.0574
 5053SOL    HW116058   0.870   0.915   6.937 -1.4694 -0.3527  0.3493
 5053SOL    HW216059   0.877   0.820   7.070  3.0679 -0.0858  0.4644
 5054SOL     OW16060   6.457   3.897   4.471 -0.3209  0.5293 -0.0442
 5054SOL    HW116061   6.533   3.840   4.441 -0.7039  1.1620 -2.3781
 5054SOL    HW216062   6.373   3.842   4.474 -0.1471  0.2838  0.7172
 5055SOL     OW16063   4.951   6.472   2.301 -0.0024  0.2753  0.4028
 5055SOL    HW116064   4.971   6.556   2.250  0.1541  0.4144  0.6898
 5055SOL    HW216065   4.860   6.439   2.278 -0.4090  1.0008  0.9334
 5056SOL     OW16066   6.560   5.407   5.659  0.5397  0.2590  0.2011
 5056SOL    HW116067   6.506   5.443   5.734  0.7670 -1.5184  1.2892
 5056SOL    HW216068   6.500   5.374   5.587  0.0636 -1.7708  1.4320
 5057SOL     OW16069   1.805   4.388   4.530 -0.4355  0.3355 -0.4066
 5057SOL    HW116070   1.857   4.404   4.446 -1.4434  0.8932 -0.9495
 5057SOL    HW216071   1.725   4.331   4.509 -2.3829  2.9042 -0.5003
 5058SOL     OW16072   5.462   6.957   5.375  0.3556  0.1260  0.2941
 5058SOL    HW116073   5.406   7.018   5.432  0.6516  1.1647 -0.4984
 5058SOL    HW216074   5.557   6.962   5.405  1.2076  3.3437 -2.2821
 5059SOL     OW16075   6.435   5.717   5.139 -0.8732 -0.5720  0.1797
 5059SOL    HW116076   6.427   5.815   5.161  1.3541  0.1120 -1.6782
 5059SOL    HW216077   6.429   5.705   5.040 -0.4796 -2.2685  0.3417
 5060SOL     OW16078   5.704   6.556   6.444 -1.0139 -0.0273 -0.0483
 5060SOL    HW116079   5.712   6.615   6.524  2.8863 -2.3442  1.5229
 5060SOL    HW216080   5.792   6.551   6.397 -2.1319 -1.8810 -2.1403
 5061SOL     OW16081   3.210   2.189   4.137  0.5042  0.3630  0.3176
 5061SOL    HW116082   3.161   2.168   4.052  1.6638  0.7327 -0.4698
 5061SOL    HW216083   3.308   2.193   4.119  0.6410  2.4626  1.2469
 5062SOL     OW16084   2.318   0.465   2.515  0.1770  0.3247 -0.2355
 5062SOL    HW116085   2.298   0.550   2.563 -0.3666 -0.4541  0.9598
 5062SOL    HW216086   2.233   0.415   2.497  0.4703  0.1210 -1.0937
 5063SOL     OW16087   2.037   2.401   3.385 -0.1606  0.1575  0.4014
 5063SOL    HW116088   2.058   2.499   3.382 -1.7499  0.5056 -1.0544
 5063SOL    HW216089   1.972   2.383   3.459 -0.4782  0.3368  0.1659
 5064SOL     OW16090   4.807   2.860   5.729  0.3123  0.1593 -0.3212
 5064SOL    HW116091   4.845   2.938   5.780  0.1915  0.0449 -0.0549
 5064SOL    HW216092   4.877   2.789   5.720  0.0737 -0.1787  0.4339
 5065SOL     OW16093   1.011   4.765   1.037 -0.2284  0.0470  0.1853
 5065SOL    HW116094   0.930   4.746   0.981 -0.9048  0.4053  1.0377
 5065SOL    HW216095   1.028   4.688   1.099  0.0916 -0.0257  0.0138
 5066SOL     OW16096   3.734   1.620   5.752  0.7003 -0.2412 -0.2778
 5066SOL    HW116097   3.791   1.701   5.737  0.0089  0.1616 -0.7817
 5066SOL    HW216098   3.790   1.547   5.793  1.8128 -0.1822 -1.6159
 5067SOL     OW16099   2.390   0.195   1.564  0.3478  0.0606 -0.8192
 5067SOL    HW116100   2.474   0.180   1.512 -1.1719 -0.5495 -3.2822
 5067SOL    HW216101   2.319   0.133   1.530 -0.6783 -0.7201  2.3782
 5068SOL     OW16102   0.141   5.227   2.083  0.2113  0.5955 -0.0076
 5068SOL    HW116103   0.156   5.260   2.177 -1.5215  0.5334  0.3144
 5068SOL    HW216104   0.216   5.166   2.058 -1.3479 -2.9867  3.0230
 5069SOL     OW16105   2.410   1.297   4.215  0.3294 -1.1453 -1.0980
 5069SOL    HW116106   2.357   1.279   4.132 -1.4704 -1.3145  0.0324
 5069SOL    HW216107   2.441   1.392   4.215  0.7715 -1.2813 -2.1846
 5070SOL     OW16108   1.580   1.490   5.540  0.1294 -0.1263  0.0731
 5070SOL    HW116109   1.504   1.428   5.560  0.2837 -0.4810 -0.4191
 5070SOL    HW216110   1.559   1.543   5.458 -0.3432  1.0589  0.9258
 5071SOL     OW16111   1.109   1.771   4.396 -0.4590 -0.1344  0.8064
 5071SOL    HW116112   1.135   1.721   4.313 -0.0972 -0.5397  1.1553
 5071SOL    HW216113   1.030   1.828   4.377 -0.1945  0.0082  0.1011
 5072SOL     OW16114   4.892   5.543   1.958  0.2420  0.5461  0.2209
 5072SOL    HW116115   4.908   5.623   1.899  2.2378 -0.8805 -1.3236
 5072SOL    HW216116   4.794   5.536   1.978 -0.2725  2.1353 -1.4176
 5073SOL     OW16117   6.958   5.116   1.772  0.0145  0.5805  0.3027
 5073SOL    HW116118   7.045   5.074   1.744 -0.2051 -0.5491  1.2240
 5073SOL    HW216119   6.894   5.115   1.695  0.5490  0.6731 -0.1495
 5074SOL     OW16120   3.469   5.169   5.765  0.3960  0.2687 -0.0858
 5074SOL    HW116121   3.410   5.227   5.708  0.8620  0.8731  0.0270
 5074SOL    HW216122   3.456   5.073   5.741  0.2166  0.4813 -0.8614
 5075SOL     OW16123   1.430   1.567   2.737  0.0142 -0.8962 -0.3099
 5075SOL    HW116124   1.378   1.482   2.744 -0.9591 -0.2559  0.5533
 5075SOL    HW216125   1.526   1.551   2.762 -0.1840 -1.7064 -0.0753
 5076SOL     OW16126   4.961   1.672   1.167 -0.0275 -0.6952  0.0202
 5076SOL    HW116127   4.930   1.766   1.152 -1.7593 -1.2390  0.0410
 5076SOL    HW216128   5.061   1.669   1.161  0.0817  1.1852  0.2705
 5077SOL     OW16129   5.027   1.936   2.944  0.5578  0.3143  0.0964
 5077SOL    HW116130   4.937   1.972   2.969  0.1884 -0.0531 -0.6710
 5077SOL    HW216131   5.043   1.849   2.990  0.6146  0.4855  0.4018
 5078SOL     OW16132   0.246   0.648   5.299 -0.4512 -0.1493 -0.6123
 5078SOL    HW116133   0.274   0.722   5.360 -1.0648  0.9520 -1.6126
 5078SOL    HW216134   0.326   0.595   5.270 -0.2192 -1.1245  1.6367
 5079SOL     OW16135   6.375   4.533   3.847  0.1837 -0.7798 -0.1268
 5079SOL    HW116136   6.387   4.620   3.798 -1.5209  1.5033  3.1083
 5079SOL    HW216137   6.287   4.493   3.822 -0.6934  0.3901  0.9218
 5080SOL     OW16138   5.135   2.412   2.654  0.3053 -0.3864 -0.2396
 5080SOL    HW116139   5.111   2.413   2.751 -0.6888 -1.6665 -0.4442
 5080SOL    HW216140   5.061   2.371   2.602  1.2456 -0.6269 -1.4276
 5081SOL     OW16141   2.279   1.800   1.585 -0.6998  0.6721  0.1253
 5081SOL    HW116142   2.208   1.738   1.619 -0.8253  0.3181 -0.7507
 5081SOL    HW216143   2.249   1.895   1.597 -0.7040  0.5641  1.0500
 5082SOL     OW16144   0.551   5.187   0.009  0.0737  0.2472 -0.2848
 5082SOL    HW116145   0.453   5.184  -0.012  0.0391  3.7832 -1.2372
 5082SOL    HW216146   0.565   5.228   0.099  0.6789  0.6694 -0.5617
 5083SOL     OW16147   6.559   4.671   0.935 -0.3051 -0.1577 -0.3860
 5083SOL    HW116148   6.566   4.764   0.970 -0.8565 -0.8910  1.8107
 5083SOL    HW216149   6.630   4.614   0.977 -0.0654 -0.7875 -1.5983
 5084SOL     OW16150   1.836   4.383   1.205  0.9119 -0.2524  0.2247
 5084SOL    HW116151   1.841   4.482   1.192 -0.9264  0.0390  1.3488
 5084SOL    HW216152   1.781   4.343   1.131  0.7487 -0.2846  0.3640
 5085SOL     OW16153   3.897   6.269   5.492 -0.5922  0.6617 -0.0002
 5085SOL    HW116154   3.866   6.343   5.432  0.6096  1.3499  0.1952
 5085SOL    HW216155   3.830   6.195   5.491 -2.1317  1.9875  0.2424
 5086SOL     OW16156   6.523   2.484   5.397  0.6145  0.2797  0.0442
 5086SOL    HW116157   6.519   2.387   5.422  1.1732  0.4020  0.6279
 5086SOL    HW216158   6.528   2.540   5.480  3.4251  0.6504 -0.2868
 5087SOL     OW16159   1.636   4.264   3.666  0.1485  0.1930 -0.7951
 5087SOL    HW116160   1.696   4.191   3.634  0.1066 -0.4243  0.4760
 5087SOL    HW216161   1.691   4.342   3.695  0.3279 -0.1770 -0.1129
 5088SOL     OW16162   1.136   2.951   5.053 -0.3867  0.8002 -0.6502
 5088SOL    HW116163   1.156   2.996   4.967 -1.0331  0.2148 -1.1201
 5088SOL    HW216164   1.095   2.861   5.035  2.0123 -0.5586  0.2372
 5089SOL     OW16165   6.533   6.502   6.170 -0.3822  0.5072 -0.7602
 5089SOL    HW116166   6.456   6.438   6.170 -0.3150  0.3933  0.8835
 5089SOL    HW216167   6.544   6.540   6.078 -4.0885  2.5708 -0.5500
 5090SOL     OW16168   1.021   1.996   6.214  0.1461  0.1115 -0.4557
 5090SOL    HW116169   1.005   2.089   6.180  1.0545  0.3580 -0.2167
 5090SOL    HW216170   0.933   1.951   6.227 -0.2731  0.4806 -1.8066
 5091SOL     OW16171   3.889   0.675   2.781  0.0657  0.1469  0.4129
 5091SOL    HW116172   3.811   0.709   2.728 -1.2774 -2.2737  0.7182
 5091SOL    HW216173   3.927   0.594   2.737  0.6826 -0.2945  1.7095
 5092SOL     OW16174   4.348   4.575   3.557  0.1610 -0.2194 -0.2725
 5092SOL    HW116175   4.442   4.567   3.588  0.0565 -0.0077  0.1022
 5092SOL    HW216176   4.346   4.615   3.465  0.4699 -0.8399 -0.5597
 5093SOL     OW16177   0.374   3.627   3.583 -0.3005  0.1457 -0.5578
 5093SOL    HW116178   0.450   3.657   3.526 -0.1259  1.2007  0.1897
 5093SOL    HW216179   0.381   3.528   3.600  1.0165  0.2555 -0.3418
 5094SOL     OW16180   6.808   4.384   5.199  0.2168  0.5015  0.3226
 5094SOL    HW116181   6.869   4.306   5.215 -0.2580  0.4866  2.4715
 5094SOL    HW216182   6.725   4.352   5.153  1.3836  0.3708 -1.8219
 5095SOL     OW16183   1.136   1.534   1.233  0.0292 -0.2647 -0.4671
 5095SOL    HW116184   1.063   1.586   1.277  0.0816  1.0570 -1.8477
 5095SOL    HW216185   1.108   1.507   1.141  0.8856 -0.6233 -0.6387
 5096SOL     OW16186   0.492   6.781   1.803  0.0037 -0.0801 -0.5361
 5096SOL    HW116187   0.464   6.727   1.724 -1.2363 -1.4372  0.7670
 5096SOL    HW216188   0.507   6.721   1.881 -0.3786  1.3539  0.6937
 5097SOL     OW16189   1.354   1.115   0.545  0.1203  0.3485 -1.2236
 5097SOL    HW116190   1.403   1.170   0.612  1.8178  0.6751 -2.6316
 5097SOL    HW216191   1.332   1.026   0.584  3.2387 -0.4037 -0.9040
 5098SOL     OW16192   6.176   6.629   0.494 -0.2181  0.4167  0.1413
 5098SOL    HW116193   6.219   6.609   0.582 -1.4532 -2.0720  0.2460
 5098SOL    HW216194   6.101   6.694   0.508 -1.5638 -1.3027  1.2918
 5099SOL     OW16195   6.307   4.833   5.814 -0.5346 -0.2619 -0.4388
 5099SOL    HW116196   6.209   4.854   5.816 -0.9770 -2.0305 -1.4089
 5099SOL    HW216197   6.322   4.750   5.760  1.3761 -0.6927  0.6544
 5100SOL     OW16198   1.722   1.109   5.197  0.1260 -0.1973 -0.1568
 5100SOL    HW116199   1.715   1.139   5.292 -1.5711  2.6918 -1.0537
 5100SOL    HW216200   1.717   1.189   5.137  0.1381 -2.0155 -2.7192
 5101SOL     OW16201   2.679   2.092   5.448  0.2930  0.0773  0.8550
 5101SOL    HW116202   2.643   1.999   5.448  0.8716 -0.1533  1.4929
 5101SOL    HW216203   2.607   2.155   5.421 -0.4270 -0.4404  1.5317
 5102SOL     OW16204   5.834   6.584   6.177  0.2065  0.4757  0.0353
 5102SOL    HW116205   5.775   6.527   6.120  0.1998 -0.7518  1.2083
 5102SOL    HW216206   5.793   6.675   6.186 -0.8339  0.0567 -0.2489
 5103SOL     OW16207   2.399   4.479   3.892  0.0557 -0.0043 -0.3034
 5103SOL    HW116208   2.374   4.383   3.904 -0.3409  0.0803 -0.4116
 5103SOL    HW216209   2.370   4.510   3.801 -1.3557  0.6702  0.3343
 5104SOL     OW16210   1.512   6.595   2.052  0.4532  0.0671  0.6385
 5104SOL    HW116211   1.555   6.565   1.967  0.0010  0.2388  0.3437
 5104SOL    HW216212   1.575   6.655   2.102 -0.5379  2.9593 -1.3296
 5105SOL     OW16213   2.985   0.634   0.508  0.2434 -0.2494  0.1826
 5105SOL    HW116214   3.026   0.723   0.527 -1.7185  1.1279 -1.5615
 5105SOL    HW216215   2.889   0.635   0.537 -0.7156 -0.6282 -2.7319
 5106SOL     OW16216   5.108   0.590   2.939  0.5601  0.4515  0.2522
 5106SOL    HW116217   5.196   0.545   2.922  0.6756  0.8037 -0.1004
 5106SOL    HW216218   5.125   0.681   2.978  0.3145 -0.1771  1.9202
 5107SOL     OW16219   1.176   0.134   2.345  0.5875  0.2739  0.1540
 5107SOL    HW116220   1.213   0.102   2.258 -2.1272 -0.6390 -0.7796
 5107SOL    HW216221   1.218   0.222   2.369  3.2126 -0.6496 -0.7413
 5108SOL     OW16222   2.428   5.275   6.964  0.1139 -0.2501 -0.3687
 5108SOL    HW116223   2.515   5.307   7.001 -0.0634  1.1864 -1.1149
 5108SOL    HW216224   2.426   5.175   6.964  0.6517 -0.3198  2.1744
 5109SOL     OW16225   6.491   2.527   3.059  0.3909  0.3438  0.0178
 5109SOL    HW116226   6.575   2.581   3.051  0.9794 -0.3387  1.3539
 5109SOL    HW216227   6.468   2.489   2.969  2.0975 -0.3039 -0.1806
 5110SOL     OW16228   3.642   1.280   2.573 -1.1837 -0.3873 -0.0196
 5110SOL    HW116229   3.622   1.261   2.670 -1.1764  1.3963  0.3733
 5110SOL    HW216230   3.594   1.363   2.546  1.4475  1.0536 -0.5728
 5111SOL     OW16231   1.576   3.703   4.783 -0.1755 -0.3081  0.0247
 5111SOL    HW116232   1.559   3.700   4.684 -2.0747  2.8209  0.1326
 5111SOL    HW216233   1.673   3.691   4.800  0.3538  0.1130 -2.2951
 5112SOL     OW16234   3.752   3.634   0.608  0.8344 -0.6985 -0.1319
 5112SOL    HW116235   3.724   3.671   0.520  2.3981  2.6650  0.6133
 5112SOL    HW216236   3.847   3.604   0.604  1.5535  1.2819  0.7897
 5113SOL     OW16237   0.777   1.512   3.407  0.5741  0.1876 -0.1125
 5113SOL    HW116238   0.765   1.438   3.474 -0.2136 -0.1120 -0.5758
 5113SOL    HW216239   0.723   1.492   3.325  2.1670  0.1331 -1.1964
 5114SOL     OW16240   3.157   2.182   2.529  0.6848  0.1834 -0.5121
 5114SOL    HW116241   3.222   2.143   2.464  0.8278 -0.3952 -0.0320
 5114SOL    HW216242   3.197   2.180   2.621  0.8780  1.8886 -0.5299
 5115SOL     OW16243   3.505   3.584   5.410 -0.3405  0.2494 -0.3421
 5115SOL    HW116244   3.416   3.628   5.401  0.2476  1.5747  0.0666
 5115SOL    HW216245   3.536   3.591   5.505  0.3872  0.1946 -0.5663
 5116SOL     OW16246   1.623   1.651   6.160  0.0196  0.1311 -0.2310
 5116SOL    HW116247   1.698   1.703   6.121  0.2532 -0.2841 -0.3387
 5116SOL    HW216248   1.536   1.697   6.141  0.3080  1.0340  0.5791
 5117SOL     OW16249   6.751   2.254   6.878 -0.2027  0.0875  0.0873
 5117SOL    HW116250   6.793   2.250   6.968 -0.4282 -1.1811  0.1564
 5117SOL    HW216251   6.659   2.216   6.882  0.1283 -0.8621 -0.8446
 5118SOL     OW16252   2.754   5.330   3.848  0.4992 -0.0615  0.0550
 5118SOL    HW116253   2.666   5.360   3.884  0.2953  1.7584 -1.7715
 5118SOL    HW216254   2.739   5.271   3.769  0.9282  0.0453 -0.1068
 5119SOL     OW16255   0.276   2.723   1.510  0.0068  0.1485 -0.4157
 5119SOL    HW116256   0.241   2.697   1.420  0.3761  2.3273 -1.2464
 5119SOL    HW216257   0.295   2.821   1.511  1.8009 -0.1495  1.4465
 5120SOL     OW16258   6.486   2.323   1.159 -0.1362  0.0071  0.2298
 5120SOL    HW116259   6.411   2.360   1.104  0.5267 -0.0628 -0.7509
 5120SOL    HW216260   6.480   2.359   1.252 -1.4501 -0.0996  0.2034
 5121SOL     OW16261   6.104   1.896   1.822 -0.5810 -0.3294 -0.4335
 5121SOL    HW116262   6.051   1.831   1.767 -0.3608 -1.4458  0.6354
 5121SOL    HW216263   6.113   1.983   1.772 -0.9408 -1.0867 -1.8662
 5122SOL     OW16264   1.137   5.758   0.777  0.1858 -0.2140  0.3221
 5122SOL    HW116265   1.120   5.852   0.806 -0.3770 -0.5019  0.9761
 5122SOL    HW216266   1.231   5.732   0.798 -0.3759 -0.6305  2.6317
 5123SOL     OW16267   0.996   0.954   0.701 -0.3939 -0.5852 -0.3926
 5123SOL    HW116268   0.933   1.031   0.689 -0.5390 -0.3868  1.3703
 5123SOL    HW216269   1.054   0.970   0.781 -0.4820 -2.3314  0.0691
 5124SOL     OW16270   6.053   3.061   0.500  0.3646 -0.2231  0.4047
 5124SOL    HW116271   5.975   3.124   0.507 -1.0470 -1.9120  0.5230
 5124SOL    HW216272   6.073   3.022   0.590  0.6273 -0.6366  0.1737
 5125SOL     OW16273   6.180   2.408   2.431  0.0223 -0.3930 -0.3569
 5125SOL    HW116274   6.093   2.396   2.478 -0.9494  1.1865 -1.6553
 5125SOL    HW216275   6.202   2.505   2.425  1.5624 -0.7271 -0.6300
 5126SOL     OW16276   7.026   6.951   5.537 -0.2174  0.3760 -0.5295
 5126SOL    HW116277   6.991   7.005   5.613  1.8373  1.0657 -0.0131
 5126SOL    HW216278   6.969   6.870   5.525 -1.0835  0.6821  1.1988
 5127SOL     OW16279   1.869   4.489   3.566 -0.2922 -0.6728 -0.0754
 5127SOL    HW116280   1.864   4.589   3.568  0.1532 -0.5698 -2.1994
 5127SOL    HW216281   1.851   4.453   3.658 -0.0909  1.3592  0.8111
 5128SOL     OW16282   6.560   4.449   0.497 -0.3385 -0.4286 -0.0127
 5128SOL    HW116283   6.628   4.445   0.424 -0.9265  1.7509 -0.7438
 5128SOL    HW216284   6.489   4.379   0.480 -0.5675  0.1447 -1.6664
 5129SOL     OW16285   4.954   1.141   3.549  0.5794  0.0500 -0.0818
 5129SOL    HW116286   5.005   1.061   3.580  2.6254  0.9985 -0.8562
 5129SOL    HW216287   4.984   1.222   3.600 -0.6288  0.5489 -0.1199
 5130SOL     OW16288   5.541   1.105   0.806 -0.2756  0.2860 -0.1889
 5130SOL    HW116289   5.616   1.169   0.828 -0.0839  0.1487 -0.4403
 5130SOL    HW216290   5.467   1.156   0.763 -0.2029  0.3735 -0.2134
 5131SOL     OW16291   6.682   2.711   1.946  0.1671 -0.5378 -0.3521
 5131SOL    HW116292   6.647   2.619   1.928 -1.5365  0.0594 -0.2175
 5131SOL    HW216293   6.635   2.777   1.887 -0.0154  0.4760  0.8920
 5132SOL     OW16294   1.609   5.872   1.359 -0.0414 -0.1976 -0.3283
 5132SOL    HW116295   1.634   5.931   1.281  1.9337  0.9328  1.0509
 5132SOL    HW216296   1.673   5.889   1.434 -3.4215  0.7928  2.5952
 5133SOL     OW16297   5.230   1.593   7.004  0.0167  0.2052  0.3952
 5133SOL    HW116298   5.204   1.669   7.065  2.1646  2.0429 -0.8270
 5133SOL    HW216299   5.279   1.524   7.057 -1.9585 -0.4343  1.5254
 5134SOL     OW16300   1.756   5.745   3.902 -0.7509 -0.5807 -0.0194
 5134SOL    HW116301   1.697   5.665   3.904  0.3693 -1.4195  1.9752
 5134SOL    HW216302   1.711   5.823   3.946 -1.5491 -0.2791 -1.3101
 5135SOL     OW16303   1.991   4.259   0.510 -0.1466 -0.0435  0.1065
 5135SOL    HW116304   2.065   4.246   0.444 -0.2463  2.6674 -0.6592
 5135SOL    HW216305   1.912   4.205   0.481  0.3890 -0.2726 -0.9953
 5136SOL     OW16306   6.888   5.567   0.270 -0.0040 -0.4553  0.4040
 5136SOL    HW116307   6.952   5.523   0.332 -0.3377 -0.3966  0.7929
 5136SOL    HW216308   6.850   5.499   0.207 -0.4831 -0.7200  0.9698
 5137SOL     OW16309   3.213   3.559   1.065 -0.3830 -0.1644  0.2901
 5137SOL    HW116310   3.242   3.642   1.018  1.5149 -1.6039 -1.2633
 5137SOL    HW216311   3.146   3.582   1.135 -0.1134  2.6156 -0.2481
 5138SOL     OW16312   5.765   4.048   0.567 -0.0274 -0.0445  0.0700
 5138SOL    HW116313   5.754   4.026   0.470  2.8741  1.6510 -0.7790
 5138SOL    HW216314   5.778   3.964   0.619  0.8022 -0.8851 -1.4246
 5139SOL     OW16315   1.189   1.045   3.183  0.3499 -0.1684 -0.4414
 5139SOL    HW116316   1.104   0.996   3.201  0.3066  0.3725  1.0309
 5139SOL    HW216317   1.170   1.143   3.176  1.1352  0.3717  3.1072
 5140SOL     OW16318   2.734   5.585   2.730  0.1252 -0.2883 -0.1615
 5140SOL    HW116319   2.811   5.599   2.668  0.6751 -0.4311  0.4716
 5140SOL    HW216320   2.762   5.609   2.823 -0.2153 -1.4864  0.2714
 5141SOL     OW16321   1.647   6.151   5.789 -0.3893  0.2858  0.8668
 5141SOL    HW116322   1.608   6.070   5.832 -0.5906 -0.5031 -0.7350
 5141SOL    HW216323   1.747   6.143   5.787 -0.4657 -0.6924 -0.6565
 5142SOL     OW16324   3.369   0.596   2.819 -0.0555 -0.5415  0.2236
 5142SOL    HW116325   3.317   0.673   2.782  3.6654  2.0937 -0.0757
 5142SOL    HW216326   3.414   0.547   2.744  0.5411 -0.6590  0.6484
 5143SOL     OW16327   6.886   1.427   1.849 -0.3514  0.5393  0.9715
 5143SOL    HW116328   6.952   1.490   1.807 -0.8375  0.9923  0.8836
 5143SOL    HW216329   6.793   1.457   1.828 -0.5904 -0.0249  1.2058
 5144SOL     OW16330   5.611   1.248   0.445 -0.2496 -0.2260  0.5387
 5144SOL    HW116331   5.641   1.245   0.350 -0.5886  0.4607  0.4082
 5144SOL    HW216332   5.514   1.269   0.449  0.1610  1.8493  1.0765
 5145SOL     OW16333   4.272   4.051   5.313 -0.1060 -0.3967 -0.0142
 5145SOL    HW116334   4.212   4.130   5.318  0.6434  0.5029 -3.2249
 5145SOL    HW216335   4.220   3.968   5.333 -2.1703  0.4413 -1.5743
 5146SOL     OW16336   5.075   3.741   5.798  0.2563 -0.1732 -0.5578
 5146SOL    HW116337   5.007   3.800   5.755 -0.8557 -0.0715  1.2042
 5146SOL    HW216338   5.029   3.667   5.848  1.5038 -0.8817 -0.3953
 5147SOL     OW16339   1.479   1.226   0.154  0.1420  0.4620  0.9667
 5147SOL    HW116340   1.523   1.197   0.239 -1.4537 -0.9045  1.3793
 5147SOL    HW216341   1.509   1.318   0.131  0.8851  0.7249  2.8237
 5148SOL     OW16342   6.522   6.593   5.230 -0.1882  0.3260 -0.1910
 5148SOL    HW116343   6.510   6.547   5.142  2.3949 -0.6470 -0.1153
 5148SOL    HW216344   6.538   6.526   5.302  2.1874  1.1934  0.1860
 5149SOL     OW16345   2.565   6.715   0.698  0.1921  0.0139 -0.0471
 5149SOL    HW116346   2.469   6.687   0.708 -0.3797  1.8134 -0.2199
 5149SOL    HW216347   2.589   6.717   0.601  1.1020 -2.4823  0.0390
 5150SOL     OW16348   1.031   3.030   4.377  0.7446  0.4322 -0.5493
 5150SOL    HW116349   1.055   3.120   4.414 -0.1156  0.6181 -0.4227
 5150SOL    HW216350   1.067   3.021   4.284  0.5489  1.0457 -0.6903
 5151SOL     OW16351   4.059   4.298   0.427 -0.4982 -0.3293  0.0867
 5151SOL    HW116352   4.122   4.317   0.351 -1.6050  1.8540 -0.3691
 5151SOL    HW216353   4.111   4.288   0.511  0.6836 -1.9085 -0.7744
 5152SOL     OW16354   2.301   5.915   6.292 -0.0531 -0.8223 -0.0836
 5152SOL    HW116355   2.346   5.999   6.264  1.9860 -1.9448 -0.3317
 5152SOL    HW216356   2.254   5.875   6.213  0.1153 -0.6269 -0.2826
 5153SOL     OW16357   0.770   1.829   2.706  0.0359  0.8607 -0.0310
 5153SOL    HW116358   0.869   1.832   2.723  0.1564 -1.7433  0.1280
 5153SOL    HW216359   0.723   1.882   2.777  1.2787  2.0725 -0.0673
 5154SOL     OW16360   4.731   3.909   6.785  0.0692 -0.4151 -0.4844
 5154SOL    HW116361   4.684   3.833   6.828  0.4505 -0.1797  0.3773
 5154SOL    HW216362   4.666   3.981   6.762  0.0283  0.0205  0.9428
 5155SOL     OW16363   1.884   6.933   1.802 -0.3270  0.0068  0.1804
 5155SOL    HW116364   1.861   6.898   1.893  0.1383 -0.8487 -0.0136
 5155SOL    HW216365   1.894   6.855   1.739  1.6290  0.4184 -0.0736
 5156SOL     OW16366   1.953   1.990   0.702  0.5507 -0.7015 -0.8185
 5156SOL    HW116367   2.014   2.056   0.746  1.8357 -0.9900 -2.1112
 5156SOL    HW216368   1.863   2.031   0.690  0.9716  0.3612 -0.4563
 5157SOL     OW16369   3.936   1.498   2.193 -0.0588  0.4745  0.4224
 5157SOL    HW116370   3.959   1.501   2.096  0.0438 -1.9555  0.3126
 5157SOL    HW216371   3.977   1.416   2.235 -4.6722 -1.7386  1.2149
 5158SOL     OW16372   3.092   4.985   0.127  0.3006  0.0806  0.2987
 5158SOL    HW116373   3.028   4.910   0.113  1.3062 -0.8901  0.7878
 5158SOL    HW216374   3.182   4.949   0.150  1.3781  1.3678 -1.5969
 5159SOL     OW16375   5.267   6.064   1.371 -0.4281  0.3067 -0.3146
 5159SOL    HW116376   5.350   6.114   1.346  1.1576 -1.4768  1.0469
 5159SOL    HW216377   5.265   5.977   1.323 -0.3384 -0.6107  1.2684
 5160SOL     OW16378   6.654   2.349   4.610 -0.0304  0.2750  0.0151
 5160SOL    HW116379   6.671   2.306   4.699  1.5201  1.4856  0.3622
 5160SOL    HW216380   6.736   2.401   4.583 -1.0970  1.3296 -1.3114
 5161SOL     OW16381   6.779   4.150   2.136  0.1849 -0.1086  0.8100
 5161SOL    HW116382   6.790   4.247   2.158  0.1423  0.0655  0.0974
 5161SOL    HW216383   6.758   4.140   2.038  0.4860 -0.8560  0.8140
 5162SOL     OW16384   5.950   6.091   3.437 -0.2827  0.0268 -0.5415
 5162SOL    HW116385   5.910   6.049   3.518 -1.6889 -1.4708 -1.9242
 5162SOL    HW216386   5.884   6.086   3.361  1.2581  0.6783 -1.9924
 5163SOL     OW16387   0.921   0.694   2.156  0.0434  0.4239 -0.4015
 5163SOL    HW116388   0.922   0.777   2.102  2.3981  0.8851  0.2208
 5163SOL    HW216389   0.932   0.717   2.253  2.1609 -0.6052 -0.3456
 5164SOL     OW16390   3.461   1.993   6.051 -0.2537 -0.1965 -0.6260
 5164SOL    HW116391   3.412   1.907   6.037 -0.4537 -0.4073  1.1214
 5164SOL    HW216392   3.406   2.069   6.015 -1.7588 -0.4654  0.9954
 5165SOL     OW16393   6.408   3.041   6.013 -0.0263  0.0723  0.1591
 5165SOL    HW116394   6.350   3.115   6.046  0.9884  0.8161  0.3303
 5165SOL    HW216395   6.501   3.053   6.048  0.6971 -0.0210 -1.6420
 5166SOL     OW16396   3.722   1.396   1.335 -0.4997  0.4147 -0.5232
 5166SOL    HW116397   3.639   1.434   1.294 -2.4632 -1.3753  1.4404
 5166SOL    HW216398   3.697   1.317   1.392  2.7465 -0.9836 -0.8005
 5167SOL     OW16399   5.745   6.593   4.873 -0.1227 -0.2899  0.4227
 5167SOL    HW116400   5.778   6.500   4.887  1.0880  0.0798  0.1408
 5167SOL    HW216401   5.715   6.632   4.960 -0.0141 -0.7112  0.6488
 5168SOL     OW16402   3.404   4.087   4.148 -0.0563 -0.2269  0.7009
 5168SOL    HW116403   3.348   4.095   4.066  0.2405  1.9064  0.6570
 5168SOL    HW216404   3.354   4.034   4.217 -2.1655  1.5091  0.6317
 5169SOL     OW16405   1.031   1.575   3.549 -0.0176 -0.1925  0.2739
 5169SOL    HW116406   0.953   1.593   3.489 -1.1494 -1.0520  1.4062
 5169SOL    HW216407   1.103   1.642   3.533 -0.9197  0.5141 -0.9326
 5170SOL     OW16408   5.895   2.682   5.548 -0.3748 -0.0537  0.1052
 5170SOL    HW116409   5.933   2.680   5.456  0.5062 -1.3756  0.4741
 5170SOL    HW216410   5.800   2.650   5.546 -0.2274 -0.4681 -0.2780
 5171SOL     OW16411   3.734   6.469   6.823 -0.3848 -0.4995  0.5178
 5171SOL    HW116412   3.815   6.460   6.881  1.2133  0.6557 -1.4155
 5171SOL    HW216413   3.729   6.563   6.788 -0.5041 -1.4398 -2.2314
 5172SOL     OW16414   5.345   6.616   3.389  0.1162  0.3078 -0.0529
 5172SOL    HW116415   5.296   6.591   3.473  1.6666 -0.2167  0.7431
 5172SOL    HW216416   5.325   6.711   3.365 -0.6930  0.3272  0.6583
 5173SOL     OW16417   5.449   4.595   0.169 -0.5880 -0.1507 -0.7080
 5173SOL    HW116418   5.504   4.519   0.202 -1.8652 -1.7559 -2.1099
 5173SOL    HW216419   5.372   4.610   0.232 -0.7457 -0.5259 -0.8077
 5174SOL     OW16420   2.704   1.640   3.711  0.0655  0.5074  0.4358
 5174SOL    HW116421   2.640   1.670   3.640 -0.7788 -2.6636 -0.3243
 5174SOL    HW216422   2.655   1.630   3.797  0.2476  0.9570  0.5908
 5175SOL     OW16423   4.782   2.697   6.064 -0.1927  0.1503 -0.2302
 5175SOL    HW116424   4.714   2.768   6.045  1.6563  2.3160  0.7701
 5175SOL    HW216425   4.865   2.715   6.012  0.7558 -0.5392  0.9903
 5176SOL     OW16426   4.472   6.790   0.583  0.1934 -0.6288  0.3546
 5176SOL    HW116427   4.441   6.695   0.580 -1.2534 -0.2026  0.8266
 5176SOL    HW216428   4.514   6.814   0.496 -1.2429 -1.1215 -0.4983
 5177SOL     OW16429   4.084   6.013   2.171  0.3882 -0.4290  0.0710
 5177SOL    HW116430   4.163   6.068   2.197 -0.5174  0.8175  0.2818
 5177SOL    HW216431   4.003   6.044   2.222 -1.0156  0.7063 -2.6189
 5178SOL     OW16432   0.399   6.464   0.501 -0.2468 -0.5097 -0.3445
 5178SOL    HW116433   0.378   6.555   0.463  0.2091  0.0954  0.7989
 5178SOL    HW216434   0.485   6.431   0.463  0.4695  0.3207  0.4952
 5179SOL     OW16435   1.339   3.215   0.723 -0.3002  0.1483 -0.3193
 5179SOL    HW116436   1.367   3.120   0.712  3.0226  0.8024  1.2943
 5179SOL    HW216437   1.402   3.275   0.674 -0.8121  1.6230  0.7364
 5180SOL     OW16438   4.265   0.025   1.530  0.6639 -0.4501  0.4947
 5180SOL    HW116439   4.170   0.035   1.502  0.7234  0.2174  0.4976
 5180SOL    HW216440   4.324   0.072   1.464  0.8194  0.9501  1.5680
 5181SOL     OW16441   1.335   0.172   4.023 -0.4813 -0.7179  0.0241
 5181SOL    HW116442   1.311   0.183   3.927 -0.9108 -0.5684  0.1453
 5181SOL    HW216443   1.252   0.156   4.076 -0.3827  0.4558  0.5468
 5182SOL     OW16444   6.389   4.183   1.296 -0.6569 -0.0352 -0.1241
 5182SOL    HW116445   6.448   4.141   1.228  0.6026  1.9664 -0.3547
 5182SOL    HW216446   6.412   4.280   1.305 -3.5357  0.7072  0.2091
 5183SOL     OW16447   1.467   2.574   3.539 -0.4603 -0.2236  0.3335
 5183SOL    HW116448   1.404   2.650   3.557 -1.8870 -1.1338 -0.5902
 5183SOL    HW216449   1.551   2.610   3.499 -0.0321  1.0970  2.3320
 5184SOL     OW16450   0.949   5.861   6.709  0.2066 -0.3159 -0.0583
 5184SOL    HW116451   0.856   5.834   6.731  0.7589  0.2525  3.6747
 5184SOL    HW216452   1.011   5.783   6.722  0.4144 -0.3810 -1.3379
 5185SOL     OW16453   5.468   5.033   6.948  0.2247  0.3916 -0.3320
 5185SOL    HW116454   5.487   4.936   6.931 -0.2646  0.4086 -1.0445
 5185SOL    HW216455   5.418   5.070   6.870 -0.6653  0.9202  0.4753
 5186SOL     OW16456   5.344   2.855   5.749 -0.5790 -0.2878  0.4597
 5186SOL    HW116457   5.403   2.900   5.683 -0.6491  0.4082  0.8703
 5186SOL    HW216458   5.256   2.902   5.754 -0.2310  0.2586  1.7526
 5187SOL     OW16459   4.993   6.767   4.751 -0.0390 -0.6144 -0.3504
 5187SOL    HW116460   4.954   6.701   4.687 -2.2004 -1.0288  1.2691
 5187SOL    HW216461   5.062   6.721   4.808  3.2205  0.1555 -3.3204
 5188SOL     OW16462   2.300   2.808   2.606 -0.4854  0.7947 -0.2558
 5188SOL    HW116463   2.298   2.888   2.666 -0.8668 -0.2824  1.2342
 5188SOL    HW216464   2.387   2.761   2.617 -0.3587  0.8548 -0.9500
 5189SOL     OW16465   3.368   0.317   2.472  0.4675 -0.2419 -0.0268
 5189SOL    HW116466   3.324   0.338   2.384 -0.1022 -0.8237  0.1088
 5189SOL    HW216467   3.408   0.225   2.467 -2.9505 -2.0215  1.5135
 5190SOL     OW16468   2.445   5.450   5.558  0.6856 -0.3533 -0.3075
 5190SOL    HW116469   2.423   5.471   5.653  3.0722 -0.6182  0.3644
 5190SOL    HW216470   2.412   5.524   5.499 -0.1489  0.1878  0.8035
 5191SOL     OW16471   6.204   6.598   3.862  0.1022 -0.1267 -0.6359
 5191SOL    HW116472   6.224   6.515   3.809 -0.4974 -0.4024 -0.4312
 5191SOL    HW216473   6.212   6.577   3.960  1.3249  0.4112 -0.6026
 5192SOL     OW16474   0.212   6.942   3.809  0.0967 -0.4685 -0.2287
 5192SOL    HW116475   0.150   6.984   3.875 -2.2603 -0.1168 -2.4796
 5192SOL    HW216476   0.181   6.849   3.788 -0.6558  0.1936 -2.4162
 5193SOL     OW16477   4.332   5.204   6.704 -0.6440 -0.0954 -0.4618
 5193SOL    HW116478   4.365   5.123   6.656  0.6768  1.0753 -1.6411
 5193SOL    HW216479   4.235   5.218   6.685 -0.8593 -1.3279 -0.3219
 5194SOL     OW16480   6.813   2.248   2.934  0.3921  0.7452  0.3118
 5194SOL    HW116481   6.888   2.212   2.878  0.5654  2.3256 -0.5389
 5194SOL    HW216482   6.726   2.229   2.888  0.1927 -1.3570  1.4469
 5195SOL     OW16483   1.583   2.453   2.601 -0.0284  0.5086  0.0683
 5195SOL    HW116484   1.591   2.552   2.615  0.3236  0.3446  1.1192
 5195SOL    HW216485   1.519   2.415   2.667 -0.4185  0.0704 -0.5500
 5196SOL     OW16486   6.503   6.377   1.718  0.2337  0.7463 -0.0631
 5196SOL    HW116487   6.541   6.323   1.642 -0.1973  1.4459 -0.7891
 5196SOL    HW216488   6.553   6.463   1.725 -0.1151  0.9402  0.0611
 5197SOL     OW16489   5.635   5.026   5.202  0.3959 -0.1543  0.1389
 5197SOL    HW116490   5.653   5.122   5.181 -2.1752  0.1680 -0.9740
 5197SOL    HW216491   5.555   5.020   5.261 -2.6742 -1.6372 -3.7603
 5198SOL     OW16492   4.561   6.050   6.385 -0.1617 -0.5313 -0.1595
 5198SOL    HW116493   4.623   6.119   6.346  0.0418 -0.3130  0.5370
 5198SOL    HW216494   4.563   6.056   6.485  1.1545 -2.6498  0.0102
 5199SOL     OW16495   2.525   3.495   6.398 -0.3260 -0.0091  0.5611
 5199SOL    HW116496   2.603   3.435   6.385 -1.6947 -1.8505  0.4053
 5199SOL    HW216497   2.544   3.585   6.359  0.5662 -1.3503 -2.3793
 5200SOL     OW16498   6.014   4.716   3.371  0.0227 -0.0652  0.3305
 5200SOL    HW116499   6.035   4.633   3.320 -1.4034  0.4103 -1.1136
 5200SOL    HW216500   6.014   4.696   3.469 -1.2758 -2.0354 -0.0187
 5201SOL     OW16501   1.120   3.834   6.541  0.4087 -0.2932 -0.5623
 5201SOL    HW116502   1.144   3.739   6.558  1.7702  0.1086 -0.1376
 5201SOL    HW216503   1.082   3.875   6.624 -2.6523 -1.1349 -1.4295
 5202SOL     OW16504   5.530   3.435   0.277 -0.3278  0.3329 -0.0759
 5202SOL    HW116505   5.494   3.364   0.338 -0.5315  0.3318 -0.1969
 5202SOL    HW216506   5.630   3.439   0.286 -0.3770  0.4969  0.4354
 5203SOL     OW16507   5.159   6.363   0.463 -0.2777 -0.1105  0.0382
 5203SOL    HW116508   5.100   6.375   0.542  1.4809 -0.8911  1.5232
 5203SOL    HW216509   5.249   6.402   0.481 -0.1956  0.8595 -2.0851
 5204SOL     OW16510   6.203   3.373   0.975 -0.0729  0.0657  0.3813
 5204SOL    HW116511   6.166   3.391   0.883  0.7250 -1.3329 -0.2526
 5204SOL    HW216512   6.131   3.385   1.043 -1.6277 -2.0881 -0.7598
 5205SOL     OW16513   1.312   0.947   2.689  0.5254 -0.3550  1.3571
 5205SOL    HW116514   1.266   0.860   2.667 -0.9897  0.9057 -0.8572
 5205SOL    HW216515   1.249   1.006   2.739  0.0396  0.9741 -0.7333
 5206SOL     OW16516   5.917   6.944   1.287  0.4403 -0.5556  0.7137
 5206SOL    HW116517   5.884   7.002   1.361 -1.7598 -3.0092  1.8206
 5206SOL    HW216518   5.872   6.970   1.202  0.3265  0.0398  0.9478
 5207SOL     OW16519   6.575   0.456   6.502 -0.1282 -0.3597 -0.0074
 5207SOL    HW116520   6.632   0.476   6.581  1.2990 -1.8111 -0.6084
 5207SOL    HW216521   6.610   0.374   6.455 -0.6367  0.6995 -2.4005
 5208SOL     OW16522   3.856   5.576   6.734 -0.0156 -0.1940 -0.1680
 5208SOL    HW116523   3.936   5.589   6.793 -1.1545  0.8993  1.1906
 5208SOL    HW216524   3.787   5.523   6.782 -0.8275  0.4032 -0.6417
 5209SOL     OW16525   5.032   6.140   0.336 -0.1262  0.7158 -0.0311
 5209SOL    HW116526   5.061   6.154   0.241 -1.5812 -2.4354 -1.0707
 5209SOL    HW216527   5.084   6.201   0.396  1.7060  1.9678 -2.6851
 5210SOL     OW16528   3.640   5.121   4.386  0.1770 -0.0529  0.3088
 5210SOL    HW116529   3.547   5.137   4.418 -0.3603 -1.1863 -0.5684
 5210SOL    HW216530   3.699   5.097   4.463 -0.5744 -0.6282  0.7213
 5211SOL     OW16531   4.448   6.453   6.059  0.2101 -0.1292  0.0545
 5211SOL    HW116532   4.546   6.472   6.049  0.0514  1.2642  0.7915
 5211SOL    HW216533   4.430   6.357   6.038  1.7026 -0.3647 -0.2790
 5212SOL     OW16534   0.936   6.624   2.418 -0.2221 -0.1993  0.2552
 5212SOL    HW116535   0.894   6.533   2.419 -0.3071 -0.1581  0.5733
 5212SOL    HW216536   0.888   6.682   2.352 -0.0392 -0.4420 -0.0987
 5213SOL     OW16537   0.775   0.867   4.757  0.3390  0.1400  0.3042
 5213SOL    HW116538   0.837   0.946   4.757 -1.1579  1.3957 -1.2392
 5213SOL    HW216539   0.775   0.825   4.667  0.6017 -1.2535  0.9266
 5214SOL     OW16540   4.585   6.701   1.076  0.0614 -0.3629  0.7405
 5214SOL    HW116541   4.555   6.649   1.156  0.9757 -0.8722  0.7701
 5214SOL    HW216542   4.542   6.791   1.077  0.4286 -0.1774  2.0717
 5215SOL     OW16543   6.987   1.269   4.692 -0.1618  0.2126  0.3621
 5215SOL    HW116544   6.915   1.320   4.645  0.0258 -0.1647 -0.3426
 5215SOL    HW216545   7.014   1.319   4.774 -0.9184  0.5728  0.4000
 5216SOL     OW16546   5.113   6.906   4.540 -0.1472  0.2739  0.2967
 5216SOL    HW116547   5.076   6.878   4.629 -0.6890  0.7580  0.2275
 5216SOL    HW216548   5.144   6.825   4.490 -0.1173 -0.0322  0.8025
 5217SOL     OW16549   1.917   0.250   3.833  0.5643 -0.5166  0.0206
 5217SOL    HW116550   1.979   0.171   3.822 -0.6279 -1.5529  0.4966
 5217SOL    HW216551   1.849   0.228   3.903 -0.7417  0.3469 -0.9593
 5218SOL     OW16552   4.254   6.193   5.759 -0.1561  0.6166 -0.0111
 5218SOL    HW116553   4.197   6.243   5.694 -1.1811 -1.4257 -0.7993
 5218SOL    HW216554   4.231   6.219   5.852 -1.2798  0.9648 -0.3741
 5219SOL     OW16555   5.354   0.356   4.638 -0.3261  0.3426  0.0893
 5219SOL    HW116556   5.320   0.434   4.691 -0.6871 -1.8623  3.3154
 5219SOL    HW216557   5.310   0.272   4.668  3.0915 -1.7755 -0.2059
 5220SOL     OW16558   5.437   1.341   6.330 -0.0927  0.4534 -0.0941
 5220SOL    HW116559   5.452   1.293   6.416 -0.9466  1.3338  0.5766
 5220SOL    HW216560   5.387   1.426   6.348  0.1309  0.8848 -1.4077
 5221SOL     OW16561   1.329   5.849   2.434  0.2132  0.1409 -0.8068
 5221SOL    HW116562   1.354   5.759   2.396  1.9777  0.0228  0.5078
 5221SOL    HW216563   1.412   5.896   2.465 -0.8741  1.4205  0.2629
 5222SOL     OW16564   6.331   1.761   4.300 -0.3189 -0.1995  0.6703
 5222SOL    HW116565   6.313   1.698   4.376 -0.8298 -0.7789  0.0831
 5222SOL    HW216566   6.350   1.708   4.217 -0.8479  0.4168  0.1447
 5223SOL     OW16567   5.792   1.035   5.004 -0.4049  0.3533  0.4181
 5223SOL    HW116568   5.721   1.105   5.017  0.5822  1.0815  2.2973
 5223SOL    HW216569   5.882   1.078   5.009  0.2013 -0.8226 -0.1695
 5224SOL     OW16570   6.913   0.367   0.534 -0.2658  0.0671  0.6152
 5224SOL    HW116571   6.825   0.410   0.516  0.2663  1.1267  0.4816
 5224SOL    HW216572   6.914   0.330   0.627 -0.4369  1.0920  1.0273
 5225SOL     OW16573   0.069   1.240   5.160 -0.3608  0.2195 -0.2408
 5225SOL    HW116574   0.087   1.251   5.258 -0.4766 -0.5147 -0.1260
 5225SOL    HW216575  -0.029   1.245   5.143 -0.4540 -0.8729 -0.1304
 5226SOL     OW16576   4.208   1.585   4.387 -0.4281  0.4130 -0.0879
 5226SOL    HW116577   4.289   1.639   4.362 -0.4287  0.4666  0.0250
 5226SOL    HW216578   4.237   1.494   4.414 -0.3837  0.4992  0.1617
 5227SOL     OW16579   1.295   4.812   2.028  0.1033  0.1544 -0.0625
 5227SOL    HW116580   1.209   4.762   2.037  1.4782 -2.0208  1.7579
 5227SOL    HW216581   1.318   4.854   2.115  1.4790 -0.3133 -0.1880
 5228SOL     OW16582   0.081   6.987   2.536 -0.3145 -0.1035 -0.5419
 5228SOL    HW116583   0.109   7.054   2.605 -2.9541  0.1263  0.4282
 5228SOL    HW216584   0.085   6.895   2.576 -0.0659 -0.1590 -0.6964
 5229SOL     OW16585   4.909   6.787   4.202  0.0130 -0.1574  0.0081
 5229SOL    HW116586   5.004   6.817   4.211 -0.4579  1.9054 -1.1821
 5229SOL    HW216587   4.851   6.845   4.260 -0.8368  0.7084 -1.6298
 5230SOL     OW16588   2.078   5.605   3.833  0.2020  0.1345  0.3640
 5230SOL    HW116589   2.073   5.572   3.927 -0.3587 -0.3507  0.1694
 5230SOL    HW216590   1.989   5.642   3.807  0.3104  0.1114 -0.0350
 5231SOL     OW16591   2.539   1.488   6.134  0.0821 -0.0889  0.0778
 5231SOL    HW116592   2.539   1.410   6.196 -0.0084 -0.6793 -0.6448
 5231SOL    HW216593   2.628   1.533   6.137 -0.0162  0.0593  0.8369
 5232SOL     OW16594   5.158   0.120   4.342  0.0620 -0.0350  0.6768
 5232SOL    HW116595   5.060   0.135   4.327  0.0473 -0.4730  0.2878
 5232SOL    HW216596   5.171   0.032   4.389  0.3214 -0.6033 -0.4031
 5233SOL     OW16597   6.333   4.207   3.796 -0.3826  0.1300 -0.0664
 5233SOL    HW116598   6.420   4.222   3.843 -0.7500  2.2043  0.0551
 5233SOL    HW216599   6.261   4.261   3.840 -0.8245  1.8772 -2.6508
 5234SOL     OW16600   5.115   1.949   1.317  0.2579 -0.0420  0.3725
 5234SOL    HW116601   5.169   1.865   1.315  1.9786  1.0180 -1.6474
 5234SOL    HW216602   5.050   1.949   1.241 -0.4545  0.0087  0.9774
 5235SOL     OW16603   4.664   4.281   2.889 -0.2252  0.3052  0.2324
 5235SOL    HW116604   4.753   4.246   2.861  0.9438  1.4020  2.2711
 5235SOL    HW216605   4.648   4.259   2.985 -1.6096  1.1720  0.2384
 5236SOL     OW16606   2.843   3.983   5.241 -0.3678  0.7149 -0.1147
 5236SOL    HW116607   2.750   3.972   5.278 -0.8740  1.1198 -1.2430
 5236SOL    HW216608   2.877   4.074   5.263  0.6232 -0.1183  2.1243
 5237SOL     OW16609   1.663   2.627   6.034  0.1179  0.4950 -0.2881
 5237SOL    HW116610   1.750   2.649   6.079  0.9926 -0.6045 -1.3895
 5237SOL    HW216611   1.603   2.582   6.100  0.7772  0.3337  0.2214
 5238SOL     OW16612   1.164   0.633   0.562 -0.0317 -0.2525  0.0466
 5238SOL    HW116613   1.118   0.719   0.584  0.0072 -0.3368  0.4814
 5238SOL    HW216614   1.239   0.650   0.499  0.5791  0.1790  0.8684
 5239SOL     OW16615   4.058   3.043   5.528  0.5518  0.0709  0.1584
 5239SOL    HW116616   4.054   2.974   5.456 -1.2360 -0.5435  0.7841
 5239SOL    HW216617   4.030   3.132   5.491 -0.7182 -0.3161  0.1360
 5240SOL     OW16618   1.506   0.508   1.740  0.5710 -0.2937  0.1491
 5240SOL    HW116619   1.476   0.596   1.776 -0.6674 -0.5093 -0.2688
 5240SOL    HW216620   1.541   0.451   1.814 -0.7092 -0.2582  0.8064
 5241SOL     OW16621   3.455   3.013   6.096 -0.6406 -0.7472  0.3389
 5241SOL    HW116622   3.498   3.035   6.184  0.2903 -1.0781 -0.0235
 5241SOL    HW216623   3.406   3.092   6.061  1.0343  0.1721 -0.0205
 5242SOL     OW16624   5.164   4.290   1.691 -0.0289  0.4986 -0.6630
 5242SOL    HW116625   5.194   4.240   1.773 -0.3287 -1.6824 -1.7938
 5242SOL    HW216626   5.189   4.386   1.700  2.2320 -0.1360  0.8850
 5243SOL     OW16627   1.465   4.298   1.259 -0.2298 -0.4611  0.6980
 5243SOL    HW116628   1.464   4.360   1.180 -0.7500 -1.6174 -0.2205
 5243SOL    HW216629   1.510   4.344   1.336 -0.5231  1.0264  0.0233
 5244SOL     OW16630   1.841   0.979   4.432 -0.1388 -0.5348 -0.0177
 5244SOL    HW116631   1.850   1.067   4.478  1.9620 -0.5089 -0.3888
 5244SOL    HW216632   1.928   0.930   4.436 -0.4874 -1.4280 -2.1237
 5245SOL     OW16633   3.146   3.178   4.911  0.1552  0.1149  0.3103
 5245SOL    HW116634   3.158   3.114   4.835 -0.1574  1.4314 -0.9033
 5245SOL    HW216635   3.236   3.213   4.939  0.1805  0.6702 -0.4212
 5246SOL     OW16636   6.275   6.809   5.639 -0.4684 -0.0219 -0.1846
 5246SOL    HW116637   6.237   6.738   5.698  0.7931 -1.3736 -0.9239
 5246SOL    HW216638   6.311   6.883   5.695  0.1603 -0.9974  0.7497
 5247SOL     OW16639   1.168   2.576   2.409 -0.3816 -0.9264 -0.6743
 5247SOL    HW116640   1.099   2.529   2.354  0.1043 -0.4019 -1.7642
 5247SOL    HW216641   1.259   2.545   2.382 -0.1690 -1.9296  1.0452
 5248SOL     OW16642   1.619   3.167   6.807 -0.1019 -0.6584 -0.1480
 5248SOL    HW116643   1.699   3.225   6.826 -1.3121  0.6028  1.3971
 5248SOL    HW216644   1.623   3.085   6.863 -0.0490 -0.4327  0.1799
 5249SOL     OW16645   6.300   3.096   3.257  0.0929  0.0508  0.0970
 5249SOL    HW116646   6.258   3.069   3.170  2.1555 -1.9903 -0.3768
 5249SOL    HW216647   6.248   3.056   3.332 -0.0143 -0.6824 -0.3561
 5250SOL     OW16648   4.977   2.906   4.511  0.0001 -0.0243  0.0283
 5250SOL    HW116649   5.054   2.862   4.557  0.3282  1.8321  1.3728
 5250SOL    HW216650   4.947   2.849   4.434 -0.3041 -3.1025  2.2290
 5251SOL     OW16651   6.701   3.446   1.527  0.2640  0.5315  0.4838
 5251SOL    HW116652   6.743   3.356   1.537 -0.6968 -0.1205 -0.9954
 5251SOL    HW216653   6.766   3.510   1.486  0.6050  0.2111  0.5255
 5252SOL     OW16654   2.058   1.057   5.638  0.3713  0.1452 -0.1542
 5252SOL    HW116655   2.085   1.138   5.690 -2.6364  0.6239  0.8575
 5252SOL    HW216656   2.027   1.084   5.547  0.0750  0.0404 -0.0861
 5253SOL     OW16657   0.324   6.435   1.457 -0.2123  0.1561  0.5849
 5253SOL    HW116658   0.252   6.377   1.418 -0.6214  0.5824  0.6978
 5253SOL    HW216659   0.413   6.391   1.445 -0.6116 -0.9412  1.5061
 5254SOL     OW16660   0.006   0.453   6.331 -0.0604 -0.4530  0.7900
 5254SOL    HW116661  -0.001   0.498   6.242 -0.7456 -0.0069  1.0611
 5254SOL    HW216662   0.031   0.357   6.317  2.2760  0.1662  0.2554
 5255SOL     OW16663   0.864   5.701   1.881  0.1738 -0.7758  0.1276
 5255SOL    HW116664   0.946   5.758   1.879 -0.2366 -0.1815 -1.4967
 5255SOL    HW216665   0.783   5.758   1.870 -0.4918 -1.3457  1.7774
 5256SOL     OW16666   1.441   2.030   5.326  0.0947 -0.2563  0.3618
 5256SOL    HW116667   1.475   2.122   5.305  0.0737  0.2849  2.4766
 5256SOL    HW216668   1.383   2.034   5.408  1.7110 -2.4246  1.7172
 5257SOL     OW16669   6.617   0.263   1.566  0.3024  0.2486 -0.2281
 5257SOL    HW116670   6.682   0.321   1.516  0.7405  2.1200  2.3436
 5257SOL    HW216671   6.533   0.314   1.582 -0.0442 -0.5220  0.4634
 5258SOL     OW16672   0.814   6.118   5.145 -0.8085 -0.0641 -0.7939
 5258SOL    HW116673   0.905   6.084   5.121 -0.4879 -0.0729  0.3815
 5258SOL    HW216674   0.784   6.076   5.230  0.3698  3.7780  1.7725
 5259SOL     OW16675   1.122   3.915   3.430 -0.4207 -0.5226 -0.3989
 5259SOL    HW116676   1.065   3.859   3.369  0.2039  0.7502 -2.2361
 5259SOL    HW216677   1.213   3.925   3.391  0.1291  0.0418  0.9551
 5260SOL     OW16678   2.210   3.995   1.620 -0.5855 -0.2576  0.2199
 5260SOL    HW116679   2.212   3.945   1.706  0.3774 -0.8290 -0.1169
 5260SOL    HW216680   2.120   4.036   1.607 -0.8745 -0.5360  1.2818
 5261SOL     OW16681   2.664   5.288   1.314  0.1452 -0.6133 -0.3066
 5261SOL    HW116682   2.763   5.294   1.325  0.3809  0.8497 -2.7163
 5261SOL    HW216683   2.620   5.330   1.393  1.4478 -0.2183  0.2435
 5262SOL     OW16684   6.233   3.910   0.103 -0.3503 -0.1299 -0.6085
 5262SOL    HW116685   6.153   3.911   0.163 -0.8558  1.7646 -1.2464
 5262SOL    HW216686   6.204   3.886   0.011 -0.0486 -0.1738 -0.6903
 5263SOL     OW16687   6.754   5.308   3.262 -0.0561 -0.5626  0.6972
 5263SOL    HW116688   6.838   5.343   3.303  0.9032  0.0798 -1.6381
 5263SOL    HW216689   6.776   5.230   3.203 -1.2474 -0.9750  0.7678
 5264SOL     OW16690   1.434   1.445   3.516 -0.1212  0.2044 -0.2597
 5264SOL    HW116691   1.427   1.479   3.610 -2.3018 -0.5597 -0.0914
 5264SOL    HW216692   1.389   1.510   3.454 -1.7824 -0.9206 -0.2923
 5265SOL     OW16693   4.389   3.781   6.139 -0.4806  0.5495  0.2765
 5265SOL    HW116694   4.478   3.806   6.101 -0.2973 -0.2388  0.1718
 5265SOL    HW216695   4.399   3.702   6.199 -1.0204  0.8198  0.7327
 5266SOL     OW16696   6.459   4.543   4.121  0.3363 -0.4349 -0.3404
 5266SOL    HW116697   6.417   4.621   4.167  2.0934  0.9220 -0.9316
 5266SOL    HW216698   6.428   4.538   4.027 -3.2790 -3.2284  0.7439
 5267SOL     OW16699   1.781   6.072   5.020  0.2480  0.1236 -0.4817
 5267SOL    HW116700   1.835   6.007   5.073 -0.4581 -0.9583 -1.0574
 5267SOL    HW216701   1.718   6.023   4.960 -1.3789  1.3276  0.1549
 5268SOL     OW16702   5.160   5.152   1.386  0.2602 -0.5203 -0.0225
 5268SOL    HW116703   5.112   5.094   1.451  1.1108 -0.8937  0.2921
 5268SOL    HW216704   5.100   5.227   1.356 -0.2716 -0.5789  0.8721
 5269SOL     OW16705   2.776   4.756   6.386  0.0446  0.9945  0.2710
 5269SOL    HW116706   2.802   4.661   6.402 -2.7138  0.3219  1.3681
 5269SOL    HW216707   2.821   4.815   6.452 -1.0026 -0.0786  2.0305
 5270SOL     OW16708   3.538   2.845   2.319  0.1450 -0.0067  0.0844
 5270SOL    HW116709   3.617   2.794   2.284  0.7215  0.8052  0.1867
 5270SOL    HW216710   3.463   2.841   2.253 -0.2717 -1.9867  0.5823
 5271SOL     OW16711   4.129   4.279   5.315  0.0171  0.1505  0.0427
 5271SOL    HW116712   4.188   4.330   5.252  0.7161  0.4856  0.9468
 5271SOL    HW216713   4.038   4.269   5.275  0.4386  0.3786 -1.0045
 5272SOL     OW16714   0.783   4.908   6.668 -0.2105  0.0631  0.4120
 5272SOL    HW116715   0.710   4.977   6.672 -0.3309 -0.1003  1.6023
 5272SOL    HW216716   0.771   4.851   6.587 -0.9500  0.5392  0.1774
 5273SOL     OW16717   5.348   2.123   4.125  0.4275 -0.1359 -0.1580
 5273SOL    HW116718   5.334   2.041   4.069 -1.5296  1.1794 -1.7547
 5273SOL    HW216719   5.273   2.188   4.108  0.1127  0.6742  3.5069
 5274SOL     OW16720   5.078   3.334   5.943  0.0719  0.7900 -0.1130
 5274SOL    HW116721   5.173   3.362   5.925  0.2190  0.5883  0.3386
 5274SOL    HW216722   5.057   3.349   6.039 -1.1820  3.2806 -0.6930
 5275SOL     OW16723   1.965   1.265   4.934 -0.8123  0.1013  0.2694
 5275SOL    HW116724   2.034   1.244   4.865 -2.6423 -0.1905 -1.5699
 5275SOL    HW216725   1.967   1.194   5.005  1.0346  0.3454  0.5074
 5276SOL     OW16726   1.389   6.026   2.136  0.0463 -0.0877 -0.2492
 5276SOL    HW116727   1.313   5.973   2.173 -1.1641 -0.2695 -2.7696
 5276SOL    HW216728   1.356   6.081   2.059  2.4955 -0.1986 -1.4463
 5277SOL     OW16729   4.050   5.270   0.385  0.5081 -0.1141 -0.3067
 5277SOL    HW116730   3.954   5.256   0.409  0.0716 -0.5672 -2.1237
 5277SOL    HW216731   4.098   5.313   0.461 -1.0740 -0.0995  0.7261
 5278SOL     OW16732   0.983   4.289   6.895  0.6864  0.8358  0.0447
 5278SOL    HW116733   0.895   4.323   6.861  0.9384 -0.8647 -2.5289
 5278SOL    HW216734   1.057   4.347   6.861  0.6715  2.0996  1.9821
 5279SOL     OW16735   6.681   0.526   3.384 -0.3534  0.4097 -0.2987
 5279SOL    HW116736   6.728   0.558   3.302  0.8184 -1.2667 -0.3295
 5279SOL    HW216737   6.748   0.496   3.452 -1.3368 -0.7344  0.2139
 5280SOL     OW16738   0.702   0.298   3.520  0.5813 -0.0799  0.0319
 5280SOL    HW116739   0.693   0.350   3.605  0.4061  0.0768 -0.0807
 5280SOL    HW216740   0.798   0.278   3.502  0.9957  2.6584 -1.3832
 5281SOL     OW16741   5.811   4.882   0.754 -0.2528 -0.0454 -0.4405
 5281SOL    HW116742   5.910   4.883   0.740 -0.3930  0.4646 -1.4838
 5281SOL    HW216743   5.788   4.935   0.835  0.2890  0.3125 -0.5185
 5282SOL     OW16744   0.138   0.173   2.997 -0.4221  0.8034 -0.4680
 5282SOL    HW116745   0.064   0.237   3.015 -0.4791  0.5213  0.3045
 5282SOL    HW216746   0.170   0.132   3.082  0.2059  0.4539 -0.8559
 5283SOL     OW16747   3.951   0.509   5.497 -0.1312 -0.2688 -0.5322
 5283SOL    HW116748   3.960   0.507   5.596  0.6894  3.6107 -0.3665
 5283SOL    HW216749   3.858   0.536   5.472  0.8812  3.8665 -0.4648
 5284SOL     OW16750   0.765   4.688   0.418  0.2753  0.2367  0.0245
 5284SOL    HW116751   0.778   4.738   0.333 -0.3633  0.1159 -0.1498
 5284SOL    HW216752   0.774   4.590   0.401 -1.2787  0.1066 -0.2113
 5285SOL     OW16753   5.276   2.023   3.854 -0.1568 -0.9605 -0.1774
 5285SOL    HW116754   5.241   2.111   3.822  0.7791  0.1712  1.7113
 5285SOL    HW216755   5.373   2.016   3.833 -0.5381 -2.2484 -1.6662
 5286SOL     OW16756   3.993   1.709   1.657 -0.2121 -0.0849 -0.3622
 5286SOL    HW116757   4.004   1.806   1.681 -0.5611 -0.0612 -0.2976
 5286SOL    HW216758   3.990   1.654   1.741  1.7105 -0.3491 -0.4224
 5287SOL     OW16759   3.417   0.805   4.232  0.1544  0.3042 -0.1128
 5287SOL    HW116760   3.428   0.831   4.136  0.7265 -0.7650 -0.3514
 5287SOL    HW216761   3.320   0.791   4.252  0.1319 -0.9916 -0.9770
 5288SOL     OW16762   0.578   4.421   3.391  0.7510  0.4057 -0.0741
 5288SOL    HW116763   0.502   4.484   3.377  0.5684  0.5936  1.5767
 5288SOL    HW216764   0.571   4.344   3.326 -0.4219  0.7883 -0.4145
 5289SOL     OW16765   4.113   2.537   6.097 -0.1804  0.4179  0.1857
 5289SOL    HW116766   4.171   2.472   6.047 -1.2627 -0.5773  0.1821
 5289SOL    HW216767   4.026   2.494   6.118 -0.3386  1.3663  1.5700
 5290SOL     OW16768   1.729   3.579   4.260  0.2427  0.4151  0.0730
 5290SOL    HW116769   1.759   3.566   4.354  0.2717 -1.0272 -0.1110
 5290SOL    HW216770   1.632   3.602   4.257 -0.2014 -1.2826  0.4053
 5291SOL     OW16771   6.158   2.806   5.020  0.1033 -0.2718  0.3203
 5291SOL    HW116772   6.075   2.750   5.026 -0.2462  0.2967  0.8934
 5291SOL    HW216773   6.178   2.844   5.110 -1.1822  2.6888 -0.5180
 5292SOL     OW16774   4.423   6.767   6.499 -0.3329 -0.3106  0.0382
 5292SOL    HW116775   4.520   6.783   6.519 -0.4733  1.0316 -0.2926
 5292SOL    HW216776   4.415   6.704   6.422  0.2773 -0.0375 -0.2493
 5293SOL     OW16777   4.125   2.171   2.315 -0.3966  0.4254  0.3276
 5293SOL    HW116778   4.142   2.075   2.337  0.2087  0.5678  0.4953
 5293SOL    HW216779   4.038   2.180   2.267  0.4785 -0.4546 -1.4946
 5294SOL     OW16780   0.422   4.458   0.472 -0.4304  0.3750  0.1870
 5294SOL    HW116781   0.333   4.459   0.517 -0.8020  2.9016 -0.4124
 5294SOL    HW216782   0.495   4.455   0.541 -0.8837 -2.3861  0.6688
 5295SOL     OW16783   6.972   4.583   1.267 -0.0103  0.4464  0.2913
 5295SOL    HW116784   7.007   4.587   1.360  2.1311 -1.5262 -0.3350
 5295SOL    HW216785   7.010   4.659   1.213 -0.2263  0.8419  0.6905
 5296SOL     OW16786   1.284   5.302   5.382  0.9541 -0.4088 -0.3415
 5296SOL    HW116787   1.347   5.379   5.384  3.1445 -2.0573 -1.1869
 5296SOL    HW216788   1.293   5.250   5.467 -0.4964  0.2093  0.2155
 5297SOL     OW16789   4.830   0.483   1.178  0.4568  0.1795 -0.2856
 5297SOL    HW116790   4.899   0.547   1.144 -0.4764  0.6194 -1.4650
 5297SOL    HW216791   4.873   0.397   1.205  1.3299 -0.0744 -2.3206
 5298SOL     OW16792   1.641   2.271   5.992  0.2151 -0.1202 -0.2763
 5298SOL    HW116793   1.706   2.316   6.053 -0.1954 -1.6857  1.4128
 5298SOL    HW216794   1.548   2.300   6.016  0.1316  0.3529 -1.1478
 5299SOL     OW16795   3.824   6.485   6.237  0.5837  0.0848 -0.1599
 5299SOL    HW116796   3.809   6.573   6.191  0.2226  0.4586  0.6524
 5299SOL    HW216797   3.865   6.421   6.173  0.9037  0.8630 -0.7538
 5300SOL     OW16798   1.503   5.408   3.042  0.2089 -0.7251 -0.1403
 5300SOL    HW116799   1.515   5.353   2.960 -0.9113 -0.3141 -0.6014
 5300SOL    HW216800   1.452   5.491   3.019  0.9537  0.0011  0.7405
 5301SOL     OW16801   4.688   0.296   1.578  0.3923 -0.9076 -0.4843
 5301SOL    HW116802   4.656   0.351   1.500 -1.4619 -0.5591  0.4598
 5301SOL    HW216803   4.609   0.253   1.622  1.4351 -1.3305  1.0444
 5302SOL     OW16804   0.576   6.396   1.905  0.0529  0.2452 -0.1123
 5302SOL    HW116805   0.484   6.392   1.867  0.2452 -1.3980 -0.5077
 5302SOL    HW216806   0.591   6.315   1.962  1.1804  0.6085  0.1227
 5303SOL     OW16807   1.473   5.085   6.439 -0.3372 -0.2529 -0.5536
 5303SOL    HW116808   1.447   5.057   6.532 -1.5900  3.0116  0.1962
 5303SOL    HW216809   1.572   5.101   6.435 -0.2742 -0.4381  0.2103
 5304SOL     OW16810   2.738   2.096   2.715  0.6242  0.3096  0.2096
 5304SOL    HW116811   2.783   2.059   2.634  1.1517  4.1529 -1.4482
 5304SOL    HW216812   2.800   2.088   2.793  1.5067 -0.3463 -0.5305
 5305SOL     OW16813   1.963   5.871   4.416 -0.3333 -0.2491 -0.3078
 5305SOL    HW116814   1.991   5.893   4.322 -1.7287  2.5440 -0.1690
 5305SOL    HW216815   2.011   5.930   4.480 -1.1252 -0.5036  0.5473
 5306SOL     OW16816   6.594   4.276   6.200 -0.0353 -0.0052  0.3915
 5306SOL    HW116817   6.621   4.193   6.151  0.1635 -0.4470  1.2326
 5306SOL    HW216818   6.507   4.309   6.165  0.1867 -0.2126 -0.3749
 5307SOL     OW16819   0.058   2.546   1.895  0.4795 -0.2086 -0.1652
 5307SOL    HW116820  -0.041   2.550   1.881  0.2554  2.7406  1.2944
 5307SOL    HW216821   0.099   2.631   1.860  2.5507 -1.4364 -0.8665
 5308SOL     OW16822   4.945   1.807   6.198 -0.3342 -0.7966  0.9091
 5308SOL    HW116823   4.916   1.817   6.103 -0.1684 -1.8754  0.7319
 5308SOL    HW216824   4.869   1.773   6.253 -0.2315 -0.8448  1.0234
 5309SOL     OW16825   1.476   1.117   4.114  0.5640  0.2781  0.5220
 5309SOL    HW116826   1.496   1.058   4.035  2.9527  0.0283  1.2368
 5309SOL    HW216827   1.479   1.062   4.198 -2.6538  0.3841  0.8554
 5310SOL     OW16828   2.132   4.993   0.434  0.3916  0.0665 -0.2085
 5310SOL    HW116829   2.190   4.986   0.353  1.0693 -2.3123  0.3971
 5310SOL    HW216830   2.042   4.954   0.414  0.2861  0.2278 -0.0503
 5311SOL     OW16831   4.852   6.964   6.619  0.1375 -0.0123 -0.0305
 5311SOL    HW116832   4.895   7.034   6.677  0.8188  0.1262 -0.6797
 5311SOL    HW216833   4.766   6.935   6.660  0.1150  0.8079  0.5369
 5312SOL     OW16834   0.928   4.944   5.993  1.0092 -0.1058  0.2539
 5312SOL    HW116835   0.906   5.014   5.925  3.6008 -1.1373 -1.8069
 5312SOL    HW216836   0.987   4.984   6.063  0.0702  0.4434  0.7515
 5313SOL     OW16837   6.516   4.140   3.215  0.3102 -0.0596  0.0107
 5313SOL    HW116838   6.422   4.116   3.195  0.4767 -1.6248  0.9871
 5313SOL    HW216839   6.549   4.088   3.294  2.1088  0.1721 -0.5308
 5314SOL     OW16840   5.636   1.871   0.206 -0.4664 -0.2024 -0.0516
 5314SOL    HW116841   5.556   1.874   0.147 -1.2820 -1.7056  0.9065
 5314SOL    HW216842   5.622   1.931   0.285  0.3982  1.3863 -1.0475
 5315SOL     OW16843   4.633   1.763   5.158  0.0768 -0.1595 -0.2188
 5315SOL    HW116844   4.631   1.683   5.217 -0.7012 -0.1134 -0.1673
 5315SOL    HW216845   4.687   1.835   5.201  0.4645 -0.5259 -0.0910
 5316SOL     OW16846   5.435   2.233   5.789  0.5120  0.2141 -0.0816
 5316SOL    HW116847   5.493   2.216   5.870 -0.7695  0.1294  0.8521
 5316SOL    HW216848   5.427   2.149   5.736  0.0732 -0.1833  0.5895
 5317SOL     OW16849   6.481   0.392   6.840  0.0962  0.4202 -0.0033
 5317SOL    HW116850   6.542   0.331   6.891  0.9124 -0.2093 -1.6764
 5317SOL    HW216851   6.387   0.377   6.870  0.4871 -0.3526  0.8953
 5318SOL     OW16852   1.669   2.524   4.812 -0.0976  0.1923 -0.4028
 5318SOL    HW116853   1.636   2.589   4.881  0.2720 -0.0213 -0.0175
 5318SOL    HW216854   1.602   2.517   4.738  0.4547  2.0141 -1.1348
 5319SOL     OW16855   2.233   6.232   4.982  0.6909  0.1194 -0.1434
 5319SOL    HW116856   2.255   6.137   5.004 -0.8670 -0.6036 -1.4804
 5319SOL    HW216857   2.139   6.237   4.948 -0.0918  2.4854  2.0097
 5320SOL     OW16858   0.750   4.093   6.218  0.5258 -0.0932 -0.3541
 5320SOL    HW116859   0.720   4.022   6.154 -0.4839  0.1031 -0.1184
 5320SOL    HW216860   0.825   4.059   6.273  1.1862 -0.3877 -1.4051
 5321SOL     OW16861   0.022   6.262   2.510 -0.3162  0.3173 -0.0916
 5321SOL    HW116862  -0.044   6.285   2.581  0.9046 -0.3245  1.3005
 5321SOL    HW216863   0.022   6.163   2.495 -0.5200  0.4403 -0.9629
 5322SOL     OW16864   7.023   4.588   1.574 -0.2857 -0.1127  0.0961
 5322SOL    HW116865   7.006   4.570   1.671  1.6763 -0.4935  0.4205
 5322SOL    HW216866   7.120   4.574   1.554 -0.9088 -1.7831 -2.3079
 5323SOL     OW16867   4.195   1.881   3.819  0.5024 -0.3589 -0.4802
 5323SOL    HW116868   4.096   1.871   3.814  0.7956 -3.4302 -2.1812
 5323SOL    HW216869   4.220   1.918   3.909 -2.1414  0.8267 -0.1345
 5324SOL     OW16870   6.225   5.093   1.779 -0.5025  0.2613  0.2732
 5324SOL    HW116871   6.288   5.035   1.831 -0.4237 -0.0388 -0.1498
 5324SOL    HW216872   6.209   5.052   1.689 -0.2916  0.9996 -0.1072
 5325SOL     OW16873   6.772   6.349   0.191 -0.4526  0.0931  0.0174
 5325SOL    HW116874   6.698   6.372   0.255 -2.4735 -0.9113 -1.8271
 5325SOL    HW216875   6.775   6.418   0.119  1.5787  1.0245  0.9178
 5326SOL     OW16876   6.697   2.810   2.441 -0.2237  0.4964  0.0833
 5326SOL    HW116877   6.664   2.904   2.435 -1.8071 -0.1070 -2.7954
 5326SOL    HW216878   6.689   2.766   2.351  0.3168 -2.4508  1.3479
 5327SOL     OW16879   0.508   0.289   3.913 -0.5195  0.1292  0.4208
 5327SOL    HW116880   0.469   0.220   3.852 -0.1922  0.0252  0.3326
 5327SOL    HW216881   0.529   0.372   3.860  0.5213 -0.2438  0.2302
 5328SOL     OW16882   0.673   1.932   5.332 -0.1327  0.2261  0.5621
 5328SOL    HW116883   0.673   1.837   5.301 -0.7015  0.6108 -0.7075
 5328SOL    HW216884   0.767   1.966   5.337  0.0412 -0.2572  0.5483
 5329SOL     OW16885   5.827   6.489   6.794  0.1971  0.6145 -0.2231
 5329SOL    HW116886   5.798   6.394   6.780  0.5672  0.1302  1.9675
 5329SOL    HW216887   5.905   6.509   6.735  0.2306 -0.5134 -0.5858
 5330SOL     OW16888   5.018   2.621   2.416  0.6543 -0.3254 -0.2852
 5330SOL    HW116889   5.041   2.538   2.366  0.8466  0.3609 -1.3845
 5330SOL    HW216890   5.074   2.697   2.381  1.0619  0.1131  1.2424
 5331SOL     OW16891   6.279   2.013   4.071 -0.1709  0.0780  0.4263
 5331SOL    HW116892   6.277   2.080   3.997  1.5719  0.1766  0.4353
 5331SOL    HW216893   6.231   1.930   4.042  1.4711 -0.3272 -1.2752
 5332SOL     OW16894   0.104   6.167   6.380  0.2329  0.5773 -0.1182
 5332SOL    HW116895   0.121   6.207   6.290  1.7434 -2.4782 -1.3422
 5332SOL    HW216896   0.127   6.232   6.451  0.7291  2.4684 -1.9262
 5333SOL     OW16897   1.208   1.449   2.008 -0.3717 -0.1797 -0.2586
 5333SOL    HW116898   1.211   1.543   1.975 -0.4361 -0.2551 -0.4823
 5333SOL    HW216899   1.120   1.408   1.985 -0.4671 -0.1945  0.1200
 5334SOL     OW16900   3.902   6.537   5.790 -0.4153  0.3768  0.2702
 5334SOL    HW116901   3.899   6.594   5.871 -2.2362 -0.5341  0.9004
 5334SOL    HW216902   3.879   6.443   5.814 -1.0073  0.0816 -1.2873
 5335SOL     OW16903   2.356   5.639   2.485 -0.2452 -0.4390  0.0780
 5335SOL    HW116904   2.431   5.704   2.494  0.9020 -1.7835  0.6585
 5335SOL    HW216905   2.275   5.686   2.450 -0.0129  1.6596  2.1350
 5336SOL     OW16906   6.877   0.146   6.563  0.2065  0.1808 -0.4857
 5336SOL    HW116907   6.850   0.215   6.497 -2.0005 -0.1347  0.0072
 5336SOL    HW216908   6.911   0.191   6.646 -0.1581  0.6503 -0.5879
 5337SOL     OW16909   1.218   6.636   1.477 -0.4609 -0.0602  0.3226
 5337SOL    HW116910   1.158   6.712   1.452  2.4477  1.3225 -3.3501
 5337SOL    HW216911   1.209   6.564   1.408  0.9333 -0.4938  0.5729
 5338SOL     OW16912   1.328   3.216   4.623 -0.1793 -0.0581 -0.2893
 5338SOL    HW116913   1.230   3.231   4.625 -0.4559 -1.4259 -1.6695
 5338SOL    HW216914   1.374   3.285   4.680 -2.0706 -0.8941  2.4561
 5339SOL     OW16915   5.554   0.686   4.816 -0.1246  0.4077  0.4520
 5339SOL    HW116916   5.466   0.690   4.769  0.1007  1.0833  0.0850
 5339SOL    HW216917   5.625   0.655   4.753 -0.1731 -0.5885  0.8662
 5340SOL     OW16918   6.919   3.182   4.330  0.0477 -0.3566  0.1091
 5340SOL    HW116919   7.010   3.200   4.291 -0.5056 -0.9205 -1.5216
 5340SOL    HW216920   6.929   3.130   4.415  1.2971  0.8228  0.7203
 5341SOL     OW16921   4.614   5.988   4.833 -0.1768 -0.0171  0.2587
 5341SOL    HW116922   4.631   5.890   4.848  0.6114  0.1853  0.7712
 5341SOL    HW216923   4.701   6.033   4.812 -0.7353  0.3466 -1.3377
 5342SOL     OW16924   3.144   0.809   1.814 -0.4600  0.1922  0.3674
 5342SOL    HW116925   3.071   0.754   1.856 -0.4123 -0.1160  0.0501
 5342SOL    HW216926   3.106   0.897   1.785 -0.3911  0.5947  1.4694
 5343SOL     OW16927   4.725   1.338   6.098 -0.1986 -0.3709  0.1926
 5343SOL    HW116928   4.690   1.402   6.029 -1.0175 -1.2920 -0.2693
 5343SOL    HW216929   4.800   1.381   6.148  1.4513 -0.2151 -2.2725
 5344SOL     OW16930   4.734   6.260   3.347 -0.3685 -0.0113  0.0751
 5344SOL    HW116931   4.809   6.320   3.319  0.1847 -0.4667  0.5694
 5344SOL    HW216932   4.758   6.213   3.432 -2.5631  2.3869  2.1912
 5345SOL     OW16933   6.163   3.985   6.568  0.2157 -0.3812  0.4176
 5345SOL    HW116934   6.089   3.919   6.553 -0.9331  0.7453  0.9411
 5345SOL    HW216935   6.147   4.066   6.512  1.6811 -0.5660 -0.3207
 5346SOL     OW16936   5.295   2.296   4.813 -0.3466  0.7112  0.4460
 5346SOL    HW116937   5.233   2.272   4.738 -1.4424  0.2995  1.4540
 5346SOL    HW216938   5.389   2.301   4.779 -0.9355  1.4763 -1.1439
 5347SOL     OW16939   2.913   4.913   4.237  0.1046  0.2849 -0.5439
 5347SOL    HW116940   2.839   4.975   4.260 -0.1512  0.1699 -1.0467
 5347SOL    HW216941   2.957   4.943   4.152  0.0064 -0.1943 -0.7662
 5348SOL     OW16942   1.414   2.558   1.754 -0.2905 -0.4360  0.1572
 5348SOL    HW116943   1.325   2.555   1.708  0.9648  1.0712 -2.5742
 5348SOL    HW216944   1.425   2.647   1.799  1.4644  1.2700 -3.3182
 5349SOL     OW16945   6.387   1.393   1.600 -0.5310 -0.1598 -0.1012
 5349SOL    HW116946   6.481   1.361   1.615 -1.4041 -1.8706  2.2928
 5349SOL    HW216947   6.385   1.493   1.606  0.7795 -0.2018  2.8117
 5350SOL     OW16948   0.074   4.973   5.925  0.1553 -0.0641  0.1387
 5350SOL    HW116949   0.124   4.903   5.975  2.0871  0.9719 -0.2310
 5350SOL    HW216950   0.127   5.002   5.845 -1.1640  0.9369 -0.4318
 5351SOL     OW16951   5.674   0.869   3.386 -0.6345  0.0202 -0.4249
 5351SOL    HW116952   5.766   0.842   3.359 -0.9504 -1.1233 -0.4042
 5351SOL    HW216953   5.679   0.948   3.448  0.2510  0.6544 -1.2843
 5352SOL     OW16954   0.847   1.122   6.944 -0.1846  0.6995  0.2752
 5352SOL    HW116955   0.785   1.189   6.902  0.8843  1.4873 -0.1241
 5352SOL    HW216956   0.935   1.167   6.963  1.3187 -1.0775 -1.9798
 5353SOL     OW16957   2.719   1.617   2.151 -0.2712 -0.3183  0.2994
 5353SOL    HW116958   2.700   1.708   2.188  0.6748 -0.4128  1.0489
 5353SOL    HW216959   2.634   1.564   2.146 -1.1105  1.0762 -1.5276
 5354SOL     OW16960   0.666   5.220   4.854 -0.5475 -0.0602 -0.0827
 5354SOL    HW116961   0.612   5.157   4.799 -1.2339 -1.0246  1.6399
 5354SOL    HW216962   0.652   5.313   4.820 -0.7270 -0.6343 -1.6864
 5355SOL     OW16963   0.497   0.214   4.475  0.1176 -0.0841  0.2216
 5355SOL    HW116964   0.493   0.172   4.385  0.6311  1.5949 -0.6328
 5355SOL    HW216965   0.533   0.149   4.541  0.6597 -1.0467 -0.9837
 5356SOL     OW16966   6.985   1.677   2.953  0.2292  0.3223 -0.4540
 5356SOL    HW116967   6.957   1.759   3.003 -2.1009 -0.4035 -0.4528
 5356SOL    HW216968   6.993   1.601   3.017 -0.1252 -0.0073 -0.7983
 5357SOL     OW16969   4.833   4.626   0.883 -0.2238 -0.3430  0.1549
 5357SOL    HW116970   4.876   4.554   0.938  0.9909 -0.4337 -0.8647
 5357SOL    HW216971   4.787   4.691   0.943  0.8961 -0.5412  1.2716
 5358SOL     OW16972   5.967   3.351   5.528  0.3126 -0.0515 -0.1837
 5358SOL    HW116973   6.053   3.307   5.502  2.0376  2.6225  0.6718
 5358SOL    HW216974   5.951   3.337   5.626  0.3602  0.3604 -0.1148
 5359SOL     OW16975   2.690   1.852   2.315  0.4481 -0.3715 -0.2804
 5359SOL    HW116976   2.744   1.896   2.386 -2.3876  1.3577  0.9657
 5359SOL    HW216977   2.649   1.921   2.256 -2.5805 -1.2754  0.5599
 5360SOL     OW16978   2.326   3.350   6.111 -0.0245  0.1752  0.0882
 5360SOL    HW116979   2.421   3.349   6.078  0.4801  0.0198  1.4706
 5360SOL    HW216980   2.309   3.268   6.164 -0.8802  0.3089  0.0285
 5361SOL     OW16981   2.178   4.865   4.834  0.1386 -0.1621  0.4940
 5361SOL    HW116982   2.205   4.882   4.929  0.9157  1.8597 -0.0259
 5361SOL    HW216983   2.198   4.771   4.809  1.7554 -0.1897  1.7643
 5362SOL     OW16984   0.128   5.638   2.157  0.0931  0.5611  0.4720
 5362SOL    HW116985   0.209   5.610   2.209  0.3129  0.4160  0.0515
 5362SOL    HW216986   0.145   5.627   2.059 -0.4722  0.4235  0.3854
 5363SOL     OW16987   5.133   6.821   6.798 -0.5154  0.1274 -0.1418
 5363SOL    HW116988   5.184   6.735   6.805  0.8405  1.0082  1.3581
 5363SOL    HW216989   5.056   6.820   6.862 -0.6534 -0.0569 -0.3081
 5364SOL     OW16990   5.836   1.183   4.300  0.0709 -0.2801  0.4167
 5364SOL    HW116991   5.796   1.265   4.259  1.7487  0.6618  0.5654
 5364SOL    HW216992   5.863   1.119   4.228 -1.8987 -1.0830  0.3231
 5365SOL     OW16993   4.870   6.817   5.520  0.8866 -0.0674  0.3200
 5365SOL    HW116994   4.932   6.866   5.581  1.8001  0.4354 -0.9846
 5365SOL    HW216995   4.811   6.883   5.473 -0.3111 -0.5022  1.1582
 5366SOL     OW16996   5.386   4.894   0.583 -0.2316 -0.1700 -0.0081
 5366SOL    HW116997   5.357   4.934   0.670 -2.6602 -0.4656 -0.5974
 5366SOL    HW216998   5.329   4.929   0.509  0.0335 -1.8562 -1.0820
 5367SOL     OW16999   6.696   0.025   0.734  0.4486 -0.1302 -0.2902
 5367SOL    HW117000   6.661   0.114   0.704 -2.1828 -0.6727  0.9595
 5367SOL    HW217001   6.655  -0.047   0.678 -0.5130 -0.7970  1.2357
 5368SOL     OW17002   5.045   5.825   0.516 -0.2817 -0.3766  0.4620
 5368SOL    HW117003   5.058   5.872   0.429 -0.1524 -1.6276 -0.2170
 5368SOL    HW217004   5.132   5.815   0.563 -0.0343 -1.3873 -0.1798
 5369SOL     OW17005   1.689   6.684   6.764 -0.2230 -0.8874 -0.0686
 5369SOL    HW117006   1.720   6.636   6.845 -0.8047  0.7324  1.1670
 5369SOL    HW217007   1.597   6.721   6.780 -0.8011 -1.4281 -1.8652
 5370SOL     OW17008   3.094   1.692   5.796 -0.8531  0.3369  0.0867
 5370SOL    HW117009   3.050   1.743   5.721 -0.5459  1.1453  0.4407
 5370SOL    HW217010   3.168   1.747   5.834 -1.3378  0.1608  1.3277
 5371SOL     OW17011   7.018   0.475   2.473  0.1927 -0.9969 -0.0484
 5371SOL    HW117012   6.965   0.395   2.499  0.2221 -0.2701  2.6464
 5371SOL    HW217013   7.116   0.454   2.478  0.1907 -1.1813 -0.7744
 5372SOL     OW17014   3.472   3.714   3.917  0.1447  0.1357  0.3236
 5372SOL    HW117015   3.521   3.784   3.865 -0.6605  1.3021  1.0687
 5372SOL    HW217016   3.456   3.634   3.860 -0.8574  1.4308 -1.3003
 5373SOL     OW17017   5.853   1.865   6.221 -0.3472  0.4455  0.5205
 5373SOL    HW117018   5.938   1.837   6.176 -0.2553  1.0771  0.2955
 5373SOL    HW217019   5.870   1.945   6.277 -0.4715 -0.3063  1.6636
 5374SOL     OW17020   6.534   0.195   5.762  0.3414  0.0003  0.2612
 5374SOL    HW117021   6.633   0.203   5.772  0.1998  0.3669  1.4502
 5374SOL    HW217022   6.512   0.175   5.666  1.6101 -0.8948  0.1244
 5375SOL     OW17023   6.530   4.427   1.921 -0.3450 -0.0541 -0.3031
 5375SOL    HW117024   6.622   4.448   1.889 -0.4290  1.1982  0.2263
 5375SOL    HW217025   6.517   4.464   2.013 -1.5896  0.3668 -0.6282
 5376SOL     OW17026   5.573   4.032   3.978  0.1003 -0.0738  0.3662
 5376SOL    HW117027   5.651   3.976   4.005  1.0722  1.1948  0.2848
 5376SOL    HW217028   5.583   4.059   3.882 -0.9471 -0.6963  0.0650
 5377SOL     OW17029   7.014   3.374   3.175 -0.6503 -0.1525 -0.0631
 5377SOL    HW117030   7.054   3.364   3.084 -3.0898 -0.8193 -1.1601
 5377SOL    HW217031   7.008   3.471   3.198 -1.0460  0.1056 -1.1694
 5378SOL     OW17032   4.570   5.330   0.463  0.3891 -0.4793  0.0429
 5378SOL    HW117033   4.527   5.249   0.422  0.6674  1.0863 -3.7596
 5378SOL    HW217034   4.564   5.323   0.562 -0.3776 -4.6906 -0.0746
 5379SOL     OW17035   1.279   4.867   2.354 -0.7013 -0.0779  0.2196
 5379SOL    HW117036   1.349   4.938   2.368 -1.4050  0.8485 -0.7483
 5379SOL    HW217037   1.300   4.788   2.411  0.0017  0.9818  1.5032
 5380SOL     OW17038   1.120   1.367   5.511 -0.1432  0.2429  0.0311
 5380SOL    HW117039   1.067   1.363   5.596  0.5001  0.8881  0.4763
 5380SOL    HW217040   1.099   1.451   5.462  0.1627  0.3073  0.0070
 5381SOL     OW17041   6.084   0.875   4.186 -0.1712  0.2490  0.2971
 5381SOL    HW117042   6.066   0.856   4.282 -0.4646  3.1355  0.8984
 5381SOL    HW217043   5.998   0.871   4.135  0.0137 -1.4940  0.0367
 5382SOL     OW17044   0.138   0.292   0.152  0.8656  0.5591 -0.2567
 5382SOL    HW117045   0.217   0.316   0.208  2.1995 -1.4174 -1.2166
 5382SOL    HW217046   0.110   0.198   0.172 -2.7002  1.8368  1.6598
 5383SOL     OW17047   1.112   7.017   1.877 -0.7502  0.4972  0.8304
 5383SOL    HW117048   1.188   7.077   1.901  0.0193  0.5511 -1.4720
 5383SOL    HW217049   1.068   6.982   1.960 -1.0553  3.9593  2.2805
 5384SOL     OW17050   0.463   5.470   3.017 -0.0945 -0.7623 -0.3067
 5384SOL    HW117051   0.435   5.376   3.036  1.1047 -1.1122 -0.1913
 5384SOL    HW217052   0.458   5.524   3.101 -0.2865 -0.8588 -0.2567
 5385SOL     OW17053   3.796   3.488   3.218  0.3188 -0.6705  0.5738
 5385SOL    HW117054   3.870   3.485   3.285  0.8450 -0.1427  0.0270
 5385SOL    HW217055   3.824   3.440   3.135 -0.1325 -0.8773  0.5377
 5386SOL     OW17056   4.536   1.739   0.372  0.3206 -0.2255 -0.0191
 5386SOL    HW117057   4.445   1.762   0.408  0.4337  1.2999 -0.5966
 5386SOL    HW217058   4.601   1.810   0.398  1.2997 -1.1555  0.1434
 5387SOL     OW17059   2.655   2.640   0.226 -0.4355 -0.9378 -0.6186
 5387SOL    HW117060   2.685   2.685   0.141 -1.6376  0.6962 -0.2333
 5387SOL    HW217061   2.556   2.634   0.227 -0.3992 -1.5604  0.3842
 5388SOL     OW17062   0.509   4.656   4.026  0.5088 -0.3810  0.2916
 5388SOL    HW117063   0.478   4.565   4.053  0.4723 -0.4200  0.1179
 5388SOL    HW217064   0.609   4.658   4.027  0.5090 -0.4104  0.3385
 5389SOL     OW17065   3.990   2.951   1.891 -0.2922  0.1982  0.4098
 5389SOL    HW117066   4.037   2.870   1.857  2.0926  1.4444  0.5016
 5389SOL    HW217067   3.974   2.942   1.989  1.8172  0.6146  0.8310
 5390SOL     OW17068   1.998   0.751   4.022 -0.5841 -0.3678 -0.3079
 5390SOL    HW117069   1.904   0.779   4.002  0.1932  1.3776 -1.8022
 5390SOL    HW217070   2.013   0.657   3.990 -1.2000  0.1440 -2.2041
 5391SOL     OW17071   5.640   0.168   1.838  0.2016 -0.2582 -0.4450
 5391SOL    HW117072   5.735   0.139   1.824  0.2914  0.4478 -1.4101
 5391SOL    HW217073   5.579   0.102   1.794  0.2622 -0.4702 -0.2153
 5392SOL     OW17074   3.004   5.890   2.726  0.4834 -0.3581  0.5246
 5392SOL    HW117075   2.988   5.880   2.627 -1.9311 -4.2368  1.1054
 5392SOL    HW217076   3.102   5.883   2.744  0.8054 -2.4217 -1.4835
 5393SOL     OW17077   0.387   6.636   4.077 -0.0189 -0.0897  0.0567
 5393SOL    HW117078   0.448   6.595   4.145  0.7945 -0.5084 -0.9045
 5393SOL    HW217079   0.400   6.592   3.989  0.4455  1.8094 -0.8874
 5394SOL     OW17080   4.487   2.099   0.550 -0.8024 -0.0681  1.0190
 5394SOL    HW117081   4.493   2.121   0.453  0.0580 -1.1454  0.8077
 5394SOL    HW217082   4.434   2.170   0.597 -2.2638 -0.1312 -0.4250
 5395SOL     OW17083   5.836   0.209   4.997 -0.0635  0.1156 -0.4110
 5395SOL    HW117084   5.927   0.184   4.965  0.7541  2.0070  0.2791
 5395SOL    HW217085   5.820   0.168   5.087 -0.0789 -0.5683 -0.7210
 5396SOL     OW17086   4.908   4.475   4.148 -0.3529  0.1152 -0.1721
 5396SOL    HW117087   4.836   4.482   4.217  0.4870  0.5413  0.6794
 5396SOL    HW217088   4.974   4.405   4.175 -0.9849 -1.0446 -1.4771
 5397SOL     OW17089   3.843   5.806   4.608  0.3334  0.4369 -0.1618
 5397SOL    HW117090   3.835   5.730   4.543  0.5165  1.8664 -1.9453
 5397SOL    HW217091   3.906   5.874   4.572  1.6524  0.6267  2.2825
 5398SOL     OW17092   1.204   2.343   5.911  0.0788 -0.3504 -0.6068
 5398SOL    HW117093   1.112   2.311   5.933  0.1459  0.4337  0.9781
 5398SOL    HW217094   1.266   2.265   5.901 -0.2848 -0.8178  0.6600
 5399SOL     OW17095   6.251   5.598   4.154  0.0066 -0.0597 -0.2493
 5399SOL    HW117096   6.290   5.690   4.146 -0.7408  0.1432 -1.9756
 5399SOL    HW217097   6.320   5.530   4.132  0.0431  0.1873 -0.9063
 5400SOL     OW17098   3.581   3.487   4.235  0.2446 -0.8368 -0.0459
 5400SOL    HW117099   3.649   3.416   4.255  0.4222  0.1082  3.3638
 5400SOL    HW217100   3.489   3.450   4.251  0.2008 -0.9520 -0.5654
 5401SOL     OW17101   6.006   2.292   5.015 -0.5675 -0.4767 -0.8535
 5401SOL    HW117102   6.087   2.264   4.963  1.0712 -1.6363  2.0834
 5401SOL    HW217103   6.022   2.277   5.112 -2.8496  3.0538  0.2510
 5402SOL     OW17104   3.746   4.053   5.742 -0.1731  0.5946  0.3997
 5402SOL    HW117105   3.656   4.086   5.770 -0.1562  1.5476 -0.5944
 5402SOL    HW217106   3.817   4.101   5.792 -0.2014  0.0272  0.9955
 5403SOL     OW17107   3.380   5.792   1.256 -0.1679  0.1400 -0.2527
 5403SOL    HW117108   3.393   5.723   1.185  0.0656  0.5116 -0.5738
 5403SOL    HW217109   3.377   5.883   1.215 -1.1828  0.2732  0.0927
 5404SOL     OW17110   4.339   5.202   4.728 -0.9731  0.3159 -0.4092
 5404SOL    HW117111   4.387   5.253   4.800 -0.1450 -2.3187  1.0179
 5404SOL    HW217112   4.405   5.164   4.664 -0.9957 -2.8832  1.2632
 5405SOL     OW17113   6.705   7.022   0.433 -0.7455 -0.3436  0.0274
 5405SOL    HW117114   6.665   6.936   0.465 -1.0124 -0.8439 -1.5348
 5405SOL    HW217115   6.799   7.029   0.465 -0.4764 -1.5974 -0.4223
 5406SOL     OW17116   0.834   4.504   1.927  0.8130  0.2833  0.2923
 5406SOL    HW117117   0.830   4.485   1.829  1.2275 -1.1379  0.5252
 5406SOL    HW217118   0.894   4.437   1.972  0.8862  1.0987  1.4803
 5407SOL     OW17119   6.744   4.195   1.875 -0.0994 -0.1291 -0.1475
 5407SOL    HW117120   6.760   4.107   1.830  2.3784 -0.0436  0.3712
 5407SOL    HW217121   6.769   4.269   1.812 -2.4123  0.2710 -0.6713
 5408SOL     OW17122   4.020   3.905   4.515 -0.0948 -0.4567 -0.4300
 5408SOL    HW117123   3.986   3.968   4.446 -1.8089 -0.5637  0.2738
 5408SOL    HW217124   3.986   3.932   4.605  0.1340 -1.6819  0.0469
 5409SOL     OW17125   3.052   4.292   6.924 -0.1737  0.0123  0.0074
 5409SOL    HW117126   3.143   4.260   6.953  0.3355  1.6732  0.3947
 5409SOL    HW217127   2.995   4.214   6.899  1.9980 -1.0015 -2.1828
 5410SOL     OW17128   4.040   4.932   6.224  0.2265  0.6940  0.3786
 5410SOL    HW117129   4.083   5.010   6.179  1.7572 -0.7167 -0.7307
 5410SOL    HW217130   4.102   4.853   6.221 -0.4662 -0.0749  3.1453
 5411SOL     OW17131   4.993   2.216   4.246 -0.6648  0.3070  0.3174
 5411SOL    HW117132   4.918   2.257   4.297 -1.5081  1.2144 -1.5676
 5411SOL    HW217133   4.957   2.173   4.163  0.7249 -0.6103  0.1575
 5412SOL     OW17134   1.009   4.798   4.508  0.4065 -0.3138  0.4987
 5412SOL    HW117135   1.043   4.866   4.444  0.5034 -1.5508 -0.8159
 5412SOL    HW217136   1.080   4.730   4.526  0.0269 -0.5660  1.0919
 5413SOL     OW17137   4.297   1.960   6.709  0.5323 -0.5055 -0.5613
 5413SOL    HW117138   4.247   1.909   6.639 -1.9370 -0.1925  0.8870
 5413SOL    HW217139   4.283   1.918   6.798 -0.7164  2.0211  0.5226
 5414SOL     OW17140   0.532   4.792   5.676 -0.3981  0.3561 -0.0768
 5414SOL    HW117141   0.522   4.811   5.774 -1.3823  0.2892 -0.1539
 5414SOL    HW217142   0.443   4.766   5.638 -0.0539  0.5358 -1.0265
 5415SOL     OW17143   0.431   4.690   3.400  0.0777 -0.4393  0.1468
 5415SOL    HW117144   0.407   4.692   3.303  0.7777  0.6037 -0.0130
 5415SOL    HW217145   0.353   4.721   3.454 -0.0307 -0.2170 -0.1355
 5416SOL     OW17146   4.954   6.522   3.000 -0.3114  0.3158 -0.2522
 5416SOL    HW117147   4.972   6.612   2.962 -2.2419  0.3941 -1.1265
 5416SOL    HW217148   4.960   6.453   2.927 -1.9538  0.1847 -0.3031
 5417SOL     OW17149   2.210   3.184   0.690 -0.1267  0.2130 -0.2669
 5417SOL    HW117150   2.209   3.119   0.613  0.2247  0.3823 -0.4152
 5417SOL    HW217151   2.259   3.267   0.663  0.8732 -0.1194  0.4639
 5418SOL     OW17152   7.013   3.151   0.504  0.0481  0.0034  0.6929
 5418SOL    HW117153   7.047   3.058   0.491 -0.5890 -0.0389 -0.8508
 5418SOL    HW217154   7.078   3.216   0.465 -0.3993  0.0734  0.0422
 5419SOL     OW17155   1.371   2.279   1.120  0.1303 -0.6226 -0.0485
 5419SOL    HW117156   1.379   2.367   1.074 -1.1450 -0.4439  0.0373
 5419SOL    HW217157   1.310   2.288   1.199 -0.4439 -1.6910 -0.3475
 5420SOL     OW17158   6.593   3.079   2.346  0.3149  0.2528 -0.0182
 5420SOL    HW117159   6.583   3.117   2.438 -0.8209  4.4187 -1.6505
 5420SOL    HW217160   6.508   3.093   2.295  0.8355 -2.1326 -1.7209
 5421SOL     OW17161   4.244   4.933   4.782 -0.2959  0.2064 -0.3957
 5421SOL    HW117162   4.306   4.890   4.847 -0.0328  0.0471 -0.7505
 5421SOL    HW217163   4.270   5.029   4.769  1.7585 -0.5610 -2.7673
 5422SOL     OW17164   5.054   6.101   5.561 -0.1494 -0.0917  0.8135
 5422SOL    HW117165   5.153   6.094   5.566  0.0065 -1.1774 -2.0521
 5422SOL    HW217166   5.028   6.197   5.551  0.5413  0.2512  2.1545
 5423SOL     OW17167   6.974   4.456   4.362 -0.0819  0.0598  0.1225
 5423SOL    HW117168   6.936   4.366   4.381  1.3298 -1.1595 -2.3202
 5423SOL    HW217169   7.041   4.479   4.433 -1.0914 -0.3898  1.2497
 5424SOL     OW17170   1.424   6.845   0.728 -0.4602 -0.0668  0.5759
 5424SOL    HW117171   1.461   6.797   0.649 -0.1359  0.7863  0.1971
 5424SOL    HW217172   1.355   6.910   0.697 -0.9307 -0.3126  1.0889
 5425SOL     OW17173   5.693   4.487   3.709  0.1053  0.2103 -0.5462
 5425SOL    HW117174   5.639   4.518   3.630  0.6162 -0.0338 -1.0030
 5425SOL    HW217175   5.724   4.393   3.692  0.5856  0.3142 -0.2506
 5426SOL     OW17176   2.365   4.246   6.090 -0.4847  0.2070 -0.3646
 5426SOL    HW117177   2.346   4.149   6.078  1.1566 -0.3608  1.1498
 5426SOL    HW217178   2.442   4.273   6.031  0.3804  0.0681  0.6709
 5427SOL     OW17179   6.698   2.684   2.219 -0.1000 -0.2641  0.2198
 5427SOL    HW117180   6.623   2.617   2.230 -1.4083  0.8770 -1.2406
 5427SOL    HW217181   6.710   2.704   2.122  0.2938  1.5737  0.6112
 5428SOL     OW17182   1.612   1.083   6.802 -0.3239 -0.6435 -0.4850
 5428SOL    HW117183   1.660   1.071   6.888  0.8351 -1.2971 -1.1966
 5428SOL    HW217184   1.619   0.999   6.748 -1.1031 -0.2742 -1.1793
 5429SOL     OW17185   5.072   2.110   1.870  0.2545 -0.0813  0.0918
 5429SOL    HW117186   5.007   2.039   1.895 -0.9752  0.7329 -0.6378
 5429SOL    HW217187   5.056   2.191   1.926 -0.3187  0.6030 -1.0119
 5430SOL     OW17188   0.971   5.699   3.597 -0.6989  0.0800  0.1614
 5430SOL    HW117189   1.066   5.712   3.569 -0.5399  0.3679  0.8098
 5430SOL    HW217190   0.963   5.613   3.647 -0.3819  0.9330  1.7487
 5431SOL     OW17191   1.587   0.881   5.126 -0.1000 -0.0560 -0.0314
 5431SOL    HW117192   1.489   0.880   5.109 -0.1599 -0.2721  0.3148
 5431SOL    HW217193   1.617   0.974   5.145 -0.5949 -0.2355  1.8313
 5432SOL     OW17194   1.821   2.719   5.647  0.1766  0.9241  0.1838
 5432SOL    HW117195   1.884   2.645   5.624  0.1694  0.5945  1.1756
 5432SOL    HW217196   1.780   2.755   5.564 -2.3224 -2.3598 -0.2064
 5433SOL     OW17197   1.210   6.471   5.564  0.5033  0.3275  0.1633
 5433SOL    HW117198   1.116   6.502   5.579  0.4159  0.7937 -1.2603
 5433SOL    HW217199   1.270   6.550   5.549  1.5849  0.2149  3.1723
 5434SOL     OW17200   6.433   5.164   4.873 -0.2906 -0.1240  0.5357
 5434SOL    HW117201   6.412   5.192   4.967  0.0791 -0.4687  0.7227
 5434SOL    HW217202   6.489   5.082   4.875  1.3994  0.9665  0.0796
 5435SOL     OW17203   2.121   3.483   5.012  0.3305  1.0174  0.0774
 5435SOL    HW117204   2.126   3.384   4.994 -1.2834  0.8472  0.4748
 5435SOL    HW217205   2.125   3.532   4.925  0.8167  0.6078 -0.1426
 5436SOL     OW17206   4.448   3.520   5.776 -0.2606  0.4320  0.0926
 5436SOL    HW117207   4.349   3.504   5.781  0.0413 -1.2420  1.5967
 5436SOL    HW217208   4.486   3.465   5.701 -0.4874  1.2660 -0.6453
 5437SOL     OW17209   0.700   5.731   6.738 -0.4380 -0.2269  0.0409
 5437SOL    HW117210   0.647   5.809   6.706 -1.0705  0.1971  1.9925
 5437SOL    HW217211   0.638   5.655   6.759  0.2255 -1.5888 -2.5353
 5438SOL     OW17212   3.386   4.792   5.709 -0.1704  0.0644 -0.4460
 5438SOL    HW117213   3.293   4.816   5.734 -0.1323 -0.5528  0.3542
 5438SOL    HW217214   3.390   4.695   5.684 -0.0330  0.4683 -2.0486
 5439SOL     OW17215   6.624   0.046   5.469  0.3015 -0.0555 -0.3352
 5439SOL    HW117216   6.584   0.138   5.469  0.0647 -0.1560  0.4810
 5439SOL    HW217217   6.582  -0.009   5.397 -1.2966 -0.2657  0.7069
 5440SOL     OW17218   1.673   1.664   2.305 -0.0792  0.1294  0.3278
 5440SOL    HW117219   1.742   1.666   2.378 -2.2679  0.8861  2.5021
 5440SOL    HW217220   1.676   1.750   2.254 -0.2164  0.6811  1.2315
 5441SOL     OW17221   0.415   5.253   4.410 -0.5171 -0.1333 -0.7224
 5441SOL    HW117222   0.336   5.214   4.363 -0.4178 -0.1508 -0.8748
 5441SOL    HW217223   0.481   5.286   4.343 -1.3245  1.7993 -0.6425
 5442SOL     OW17224   1.097   6.716   4.046  0.4938  0.3748  0.5283
 5442SOL    HW117225   1.170   6.776   4.076  0.2860  0.5483  0.6912
 5442SOL    HW217226   1.016   6.729   4.104  1.2178 -1.7920  2.1564
 5443SOL     OW17227   0.447   5.942   4.496 -0.4902 -0.2020 -0.1491
 5443SOL    HW117228   0.460   5.848   4.466  1.8447 -0.2459  0.8218
 5443SOL    HW217229   0.458   6.004   4.418  1.5380 -0.5549 -0.1925
 5444SOL     OW17230   2.670   5.537   1.133 -0.2467  0.8564  0.5614
 5444SOL    HW117231   2.590   5.594   1.117 -1.4204 -1.0865 -0.9218
 5444SOL    HW217232   2.650   5.471   1.206 -0.3962 -0.2886 -0.4857
 5445SOL     OW17233   0.412   5.841   3.470 -0.6615  0.4934 -0.0623
 5445SOL    HW117234   0.320   5.880   3.467 -0.5370  0.7239 -1.5435
 5445SOL    HW217235   0.470   5.884   3.401  0.5515  0.2767  0.7724
 5446SOL     OW17236   6.649   6.172   2.787  0.2592  0.3793 -0.4722
 5446SOL    HW117237   6.707   6.242   2.745  1.6584 -0.2372  0.3638
 5446SOL    HW217238   6.705   6.095   2.816 -0.2373  1.4330  4.0214
 5447SOL     OW17239   2.770   1.199   1.009 -0.4372 -0.3966  0.1979
 5447SOL    HW117240   2.710   1.121   0.991 -0.1465 -0.8241  1.0006
 5447SOL    HW217241   2.764   1.224   1.106 -1.5359  1.4553 -0.3125
 5448SOL     OW17242   3.161   0.908   0.493  0.1088 -0.2360 -0.7320
 5448SOL    HW117243   3.111   0.981   0.446  2.4105  1.6620 -0.3993
 5448SOL    HW217244   3.155   0.922   0.592  2.0235  0.5957 -0.7014
 5449SOL     OW17245   0.653   6.594   6.212 -0.3479 -0.1827 -0.1284
 5449SOL    HW117246   0.665   6.577   6.114  0.3441  0.5940 -0.1930
 5449SOL    HW217247   0.737   6.570   6.260 -0.7413 -0.7217  0.3138
 5450SOL     OW17248   6.628   0.562   1.694  0.2143 -0.9203 -0.4821
 5450SOL    HW117249   6.616   0.648   1.743  0.5502 -1.6882  1.0299
 5450SOL    HW217250   6.560   0.555   1.621  0.1905  0.6101 -0.6334
 5451SOL     OW17251   4.088   1.831   5.122 -0.2636  0.1687 -0.0709
 5451SOL    HW117252   4.185   1.833   5.145  0.1626  1.8395 -1.7231
 5451SOL    HW217253   4.071   1.760   5.053  0.5062  1.9731 -2.2623
 5452SOL     OW17254   3.941   2.206   1.237 -0.2919 -0.1441  0.0614
 5452SOL    HW117255   3.884   2.288   1.231 -0.7392 -0.4594 -0.0743
 5452SOL    HW217256   3.937   2.157   1.150 -0.3827 -0.5431  0.2898
 5453SOL     OW17257   4.797   5.799   3.448 -0.3691 -0.0330  0.8620
 5453SOL    HW117258   4.865   5.726   3.445  0.9382  1.1469  0.9407
 5453SOL    HW217259   4.824   5.868   3.515 -1.8118  0.3187  1.1182
 5454SOL     OW17260   3.867   6.545   2.142 -0.5675  0.3896 -0.3710
 5454SOL    HW117261   3.935   6.474   2.125 -0.1736  0.9725 -1.3276
 5454SOL    HW217262   3.862   6.564   2.240  0.6348  0.3107 -0.2818
 5455SOL     OW17263   1.808   6.935   2.500 -0.1039 -0.1751  0.5785
 5455SOL    HW117264   1.737   6.917   2.568 -0.2107  1.3898  0.9222
 5455SOL    HW217265   1.777   7.007   2.438  0.5356 -0.6403 -0.2997
 5456SOL     OW17266   5.814   4.757   0.480 -0.5269 -0.4063 -0.2026
 5456SOL    HW117267   5.766   4.722   0.560  0.3036  0.5755  0.7643
 5456SOL    HW217268   5.769   4.840   0.448 -1.5974 -1.4621 -1.5584
 5457SOL     OW17269   5.936   6.332   0.675  0.0560  0.2054  0.3383
 5457SOL    HW117270   5.890   6.393   0.740 -0.0855  0.0258  0.4086
 5457SOL    HW217271   5.982   6.259   0.726  2.2493  1.5773  0.4272
 5458SOL     OW17272   3.658   6.168   4.112  0.0299 -0.3601  0.7431
 5458SOL    HW117273   3.717   6.208   4.182  1.0047 -0.1720 -0.1530
 5458SOL    HW217274   3.582   6.231   4.093  0.3054  0.0345  0.9303
 5459SOL     OW17275   3.162   5.193   6.374  0.3943 -0.3670  0.5015
 5459SOL    HW117276   3.261   5.185   6.369  0.6146  2.2528 -1.5392
 5459SOL    HW217277   3.124   5.198   6.282 -1.3644  0.9029  1.2256
 5460SOL     OW17278   3.706   1.512   4.599 -0.0248 -0.0823  0.9868
 5460SOL    HW117279   3.688   1.505   4.697  0.3343  0.4810  1.0963
 5460SOL    HW217280   3.658   1.591   4.561  0.2345 -0.0082  0.8069
 5461SOL     OW17281   3.127   1.278   2.101  0.0725 -0.3234 -0.1089
 5461SOL    HW117282   3.109   1.207   2.168 -0.2566  0.6821  0.8950
 5461SOL    HW217283   3.188   1.347   2.140 -0.7743  0.7064 -0.5417
 5462SOL     OW17284   1.481   3.165   1.779 -0.0698  0.3116  0.6296
 5462SOL    HW117285   1.486   3.183   1.681 -1.2679 -1.4394  0.2052
 5462SOL    HW217286   1.394   3.120   1.801  0.1709  0.6683  2.5041
 5463SOL     OW17287   1.438   6.789   4.393 -0.5249  0.1551 -0.0968
 5463SOL    HW117288   1.401   6.740   4.472 -0.0648  0.2680  0.1903
 5463SOL    HW217289   1.537   6.780   4.392 -0.4841  0.6300 -0.3512
 5464SOL     OW17290   4.577   7.001   6.742  0.2040  0.0654 -0.0496
 5464SOL    HW117291   4.513   6.979   6.816  0.9541 -1.7930  0.1085
 5464SOL    HW217292   4.527   7.009   6.656 -0.9434  3.9068  0.7700
 5465SOL     OW17293   0.821   2.896   5.895 -0.4108 -0.4161  0.8003
 5465SOL    HW117294   0.851   2.813   5.943 -3.0876 -0.3846  2.7433
 5465SOL    HW217295   0.796   2.872   5.801  0.6854 -1.3783  0.7189
 5466SOL     OW17296   4.348   1.967   6.351 -0.5278 -0.0553 -0.0786
 5466SOL    HW117297   4.318   2.044   6.294  1.1584  0.1037 -0.8094
 5466SOL    HW217298   4.412   2.000   6.420 -1.2637 -0.5294  0.8646
 5467SOL     OW17299   4.783   1.507   1.484  0.5115  0.7963  0.3847
 5467SOL    HW117300   4.732   1.467   1.560  0.7280  2.7108  1.6106
 5467SOL    HW217301   4.729   1.580   1.443  0.9761  0.7080 -0.3958
 5468SOL     OW17302   0.810   6.102   4.089 -0.0839 -0.0767 -0.1703
 5468SOL    HW117303   0.770   6.172   4.029  0.2833 -0.6599 -1.1281
 5468SOL    HW217304   0.910   6.107   4.084  0.0108  1.3369  2.1658
 5469SOL     OW17305   6.258   0.238   5.598 -0.1879  0.1352  0.2793
 5469SOL    HW117306   6.209   0.319   5.629 -0.1950  0.6058 -0.8886
 5469SOL    HW217307   6.351   0.264   5.572  0.3337 -0.5343  1.3668
 5470SOL     OW17308   0.481   6.878   6.046 -0.0163 -0.5702 -0.2907
 5470SOL    HW117309   0.481   6.779   6.030 -1.1156 -0.7251  0.4936
 5470SOL    HW217310   0.480   6.927   5.959 -0.3177 -1.2664 -0.6830
 5471SOL     OW17311   5.312   3.427   5.374 -0.0549  0.0980  0.9650
 5471SOL    HW117312   5.407   3.414   5.348 -0.2881  0.4094 -0.0876
 5471SOL    HW217313   5.269   3.494   5.313 -1.5909 -1.7939 -0.1440
 5472SOL     OW17314   3.848   2.701   1.590 -0.2774  0.2479 -0.1439
 5472SOL    HW117315   3.896   2.788   1.592  1.3884 -0.6170 -0.5899
 5472SOL    HW217316   3.779   2.699   1.662 -1.1169  2.3147 -0.7967
 5473SOL     OW17317   0.855   1.258   2.626 -0.0233 -0.3555 -0.4822
 5473SOL    HW117318   0.928   1.281   2.563  0.0615  0.9360  0.0495
 5473SOL    HW217319   0.893   1.240   2.717 -0.2644 -0.7908 -0.4654
 5474SOL     OW17320   1.710   6.441   4.717  0.7889 -0.5326 -0.0270
 5474SOL    HW117321   1.755   6.439   4.628 -1.5362  0.0345 -1.2854
 5474SOL    HW217322   1.659   6.356   4.731 -0.1039 -0.0093  0.0371
 5475SOL     OW17323   6.507   3.142   5.453 -0.1562  0.0840  0.1721
 5475SOL    HW117324   6.460   3.054   5.444  1.4293 -0.7698 -0.0755
 5475SOL    HW217325   6.555   3.145   5.540  0.4944  0.3441 -0.1902
 5476SOL     OW17326   4.382   0.409   5.108  0.3277  0.3775  0.0286
 5476SOL    HW117327   4.432   0.475   5.164 -0.4328  0.3319  0.7915
 5476SOL    HW217328   4.426   0.319   5.116 -0.8671 -0.0756  2.1559
 5477SOL     OW17329   6.022   4.342   5.813  0.3242  0.1288 -0.4258
 5477SOL    HW117330   6.016   4.436   5.779  0.7777  1.5269  3.0127
 5477SOL    HW217331   5.954   4.327   5.885  1.5910 -1.5346  0.5054
 5478SOL     OW17332   5.665   3.186   3.251 -0.7068 -0.0531  0.9547
 5478SOL    HW117333   5.651   3.097   3.208 -2.2482  0.6179  0.0032
 5478SOL    HW217334   5.618   3.257   3.198  0.5502  1.3547  1.6454
 5479SOL     OW17335   4.127   2.842   0.061  0.7347 -0.0404  0.0251
 5479SOL    HW117336   4.182   2.837  -0.022 -0.2755  0.2902 -0.6821
 5479SOL    HW217337   4.048   2.780   0.054  0.6445 -0.0265  0.7484
 5480SOL     OW17338   1.289   4.923   4.979  0.2362 -0.3284  0.1761
 5480SOL    HW117339   1.271   4.936   5.076 -2.8651 -0.8810 -0.2096
 5480SOL    HW217340   1.282   5.010   4.931  2.4403  0.0604  0.4677
 5481SOL     OW17341   6.298   3.340   5.439  0.6979 -1.1551  0.0821
 5481SOL    HW117342   6.386   3.293   5.446  0.7346 -1.0632  0.2522
 5481SOL    HW217343   6.273   3.351   5.342 -1.1535 -4.9312 -0.0338
 5482SOL     OW17344   1.270   6.385   0.505  0.4768 -0.0672  0.0420
 5482SOL    HW117345   1.328   6.316   0.461  0.2201 -0.3378  0.1226
 5482SOL    HW217346   1.287   6.384   0.604 -0.1853 -0.6461  0.1516
 5483SOL     OW17347   1.273   0.302   5.620  0.2632  0.7434 -0.2909
 5483SOL    HW117348   1.319   0.315   5.532 -1.1020  2.0335 -0.8744
 5483SOL    HW217349   1.174   0.311   5.607  0.1275  4.5686  1.8513
 5484SOL     OW17350   1.998   6.151   0.785  0.2769  0.4400 -0.5397
 5484SOL    HW117351   1.981   6.110   0.874 -0.6679  1.4060 -0.2593
 5484SOL    HW217352   2.081   6.207   0.789  0.2350  0.4810 -0.2791
 5485SOL     OW17353   1.857   4.750   0.673  0.0660  0.8085 -0.5816
 5485SOL    HW117354   1.776   4.754   0.615  0.0273 -0.6849 -0.6648
 5485SOL    HW217355   1.832   4.715   0.763  0.5190  0.8910 -0.4214
 5486SOL     OW17356   6.857   5.450   5.059  0.4373 -0.8535  0.4562
 5486SOL    HW117357   6.777   5.436   5.000  0.5059 -0.9849  0.3957
 5486SOL    HW217358   6.845   5.535   5.111  0.6146 -0.4590 -0.1348
 5487SOL     OW17359   0.502   1.375   3.732 -0.0939  0.6450 -0.2573
 5487SOL    HW117360   0.583   1.353   3.786 -0.8641 -0.2283  0.5937
 5487SOL    HW217361   0.512   1.466   3.692  0.3047  1.5599  1.7799
 5488SOL     OW17362   6.988   4.659   0.939 -0.2340 -0.5309 -0.2324
 5488SOL    HW117363   6.979   4.660   0.839 -1.5622  0.7251 -0.1461
 5488SOL    HW217364   6.907   4.617   0.979  0.0196 -0.4900  0.3341
 5489SOL     OW17365   2.715   1.940   1.389  0.1216  0.4090  0.0262
 5489SOL    HW117366   2.804   1.900   1.370  0.4943  1.0916  0.3246
 5489SOL    HW217367   2.647   1.901   1.326  0.4466 -0.7721  0.3845
 5490SOL     OW17368   6.854   0.198   3.461  0.3044 -0.3109 -0.0319
 5490SOL    HW117369   6.785   0.174   3.529  1.7837 -2.5614  0.8430
 5490SOL    HW217370   6.878   0.294   3.470 -2.8703  0.6234 -0.6051
 5491SOL     OW17371   1.872   3.785   6.410  0.3849 -0.1997  0.1907
 5491SOL    HW117372   1.854   3.783   6.508  0.2139  1.6760  0.2303
 5491SOL    HW217373   1.820   3.712   6.365 -0.6193 -0.2143  1.3325
 5492SOL     OW17374   2.530   4.222   0.856  0.0075  0.2014  0.1627
 5492SOL    HW117375   2.593   4.145   0.857  0.7595  0.7953 -0.0545
 5492SOL    HW217376   2.477   4.221   0.772  0.5100  0.3054 -0.1582
 5493SOL     OW17377   3.184   3.543   2.585  0.5844  0.3829 -0.1351
 5493SOL    HW117378   3.234   3.622   2.621 -1.1740  0.4660  2.4380
 5493SOL    HW217379   3.218   3.460   2.628 -0.1381  0.2182  0.1291
 5494SOL     OW17380   0.493   5.210   1.739  0.0340 -0.1647  0.7057
 5494SOL    HW117381   0.517   5.239   1.647  1.8471 -0.4785  1.0352
 5494SOL    HW217382   0.399   5.176   1.740  0.1625 -0.7022 -1.1533
 5495SOL     OW17383   5.020   4.239   1.224  0.8601 -0.1931  0.2926
 5495SOL    HW117384   5.103   4.248   1.278  1.9219 -1.1220 -1.1123
 5495SOL    HW217385   4.944   4.211   1.284  1.0553  2.4736  1.9300
 5496SOL     OW17386   2.976   0.878   1.203 -0.2152  0.2876  0.0985
 5496SOL    HW117387   2.897   0.886   1.142 -1.1073 -1.9213  0.8651
 5496SOL    HW217388   2.952   0.821   1.282  2.0840 -0.3020  0.4469
 5497SOL     OW17389   3.191   3.646   5.367 -0.5801  0.2298  0.2515
 5497SOL    HW117390   3.158   3.740   5.380 -0.6238  0.2790 -0.2075
 5497SOL    HW217391   3.149   3.607   5.285 -0.6363 -0.2256  0.4943
 5498SOL     OW17392   0.244   4.329   6.225 -0.2478  0.0505  0.1314
 5498SOL    HW117393   0.248   4.395   6.300  0.3580  0.6132 -0.3853
 5498SOL    HW217394   0.183   4.364   6.154 -2.3439 -1.3326  1.1398
 5499SOL     OW17395   4.731   6.175   1.149 -0.0831  0.2989 -0.0372
 5499SOL    HW117396   4.825   6.166   1.182 -0.5078 -0.4547  1.0244
 5499SOL    HW217397   4.677   6.226   1.216 -0.2778  1.3508 -0.9741
 5500SOL     OW17398   5.528   5.434   3.137 -0.9352 -0.3281 -0.6205
 5500SOL    HW117399   5.571   5.515   3.098 -1.3028 -0.0589 -0.4821
 5500SOL    HW217400   5.451   5.462   3.195 -0.3839 -0.7143  0.3143
 5501SOL     OW17401   2.274   0.100   0.389 -0.1576  0.0684  0.3214
 5501SOL    HW117402   2.348   0.148   0.343 -1.0741  0.4476 -0.8213
 5501SOL    HW217403   2.292   0.095   0.487  2.1098 -1.1789 -0.0825
 5502SOL     OW17404   4.278   4.982   2.965 -0.2092  0.2496  0.6722
 5502SOL    HW117405   4.363   4.996   2.914  1.4361 -0.3423  3.0900
 5502SOL    HW217406   4.281   5.034   3.051 -2.1575 -0.0604  0.9971
 5503SOL     OW17407   1.542   3.592   5.423 -0.3364  0.2282 -0.1968
 5503SOL    HW117408   1.612   3.522   5.432  2.2396  2.3624 -1.9660
 5503SOL    HW217409   1.501   3.588   5.332 -1.5821 -0.1595  0.3630
 5504SOL     OW17410   4.156   5.559   5.180 -0.5887  0.0811 -0.3124
 5504SOL    HW117411   4.195   5.646   5.210 -0.3553 -0.2257  0.3108
 5504SOL    HW217412   4.123   5.508   5.260  0.0104 -0.7447 -0.5695
 5505SOL     OW17413   0.699   4.829   1.561  0.4523  0.3366 -0.2569
 5505SOL    HW117414   0.636   4.752   1.553 -0.2293  0.8390  0.1454
 5505SOL    HW217415   0.748   4.822   1.648 -0.7388  1.1626  0.5123
 5506SOL     OW17416   6.861   5.838   0.225 -0.5232  0.0531 -0.7380
 5506SOL    HW117417   6.833   5.744   0.209 -2.3528 -0.2756  3.0862
 5506SOL    HW217418   6.952   5.839   0.267 -1.4181 -0.3674  1.3821
 5507SOL     OW17419   5.214   3.945   2.362  0.0188 -0.2646 -0.2139
 5507SOL    HW117420   5.311   3.925   2.369  0.0926  0.0436 -0.3669
 5507SOL    HW217421   5.195   4.035   2.402  0.0161  0.3114 -1.4609
 5508SOL     OW17422   7.012   0.363   3.049  0.4657  0.2488 -0.3840
 5508SOL    HW117423   6.928   0.333   3.095  1.1884 -0.7681  0.3203
 5508SOL    HW217424   7.072   0.408   3.116 -0.3274  2.8181 -1.2877
 5509SOL     OW17425   0.629   1.457   0.227  0.5330 -0.4325  0.5136
 5509SOL    HW117426   0.723   1.437   0.201  0.2007 -0.8544 -0.4515
 5509SOL    HW217427   0.570   1.381   0.198 -0.3890  0.7349 -0.8394
 5510SOL     OW17428   1.075   1.947   4.730 -0.1997 -0.5469  0.3375
 5510SOL    HW117429   0.977   1.933   4.726 -0.3190  0.3746 -0.3063
 5510SOL    HW217430   1.123   1.863   4.705 -0.8546 -0.3882 -1.6429
 5511SOL     OW17431   4.070   3.780   3.264 -0.8880  0.2110 -0.0100
 5511SOL    HW117432   4.040   3.824   3.349  1.3848  1.5859  0.1722
 5511SOL    HW217433   4.111   3.849   3.204 -2.2550 -0.7662 -2.1930
 5512SOL     OW17434   1.731   2.400   2.178  0.0725 -0.8699  0.2542
 5512SOL    HW117435   1.782   2.323   2.139 -0.2089 -0.5125 -0.8484
 5512SOL    HW217436   1.652   2.420   2.121  1.6221  1.9773 -1.0838
 5513SOL     OW17437   0.359   4.692   6.213  0.3756  0.7742 -0.1190
 5513SOL    HW117438   0.398   4.764   6.270  0.1255 -0.6073  1.9086
 5513SOL    HW217439   0.432   4.634   6.178  0.3800  0.1304  0.9337
 5514SOL     OW17440   3.922   2.178   4.407  0.6706  0.1619 -0.1957
 5514SOL    HW117441   3.825   2.162   4.391  1.1086 -1.9148 -1.0343
 5514SOL    HW217442   3.943   2.158   4.503  0.2859  0.5735 -0.0228
 5515SOL     OW17443   0.731   6.626   4.293 -0.3308 -0.5344 -0.3466
 5515SOL    HW117444   0.717   6.682   4.374  2.6648 -0.2401  0.0812
 5515SOL    HW217445   0.786   6.677   4.227  1.6518 -2.5569 -0.3543
 5516SOL     OW17446   6.704   2.691   0.094  0.0635 -0.5943  0.7156
 5516SOL    HW117447   6.750   2.743   0.166  1.6839 -0.5137 -0.3281
 5516SOL    HW217448   6.768   2.628   0.052 -0.6133 -0.1009 -1.1658
 5517SOL     OW17449   6.002   3.219   2.275 -0.0113 -0.1854  0.1983
 5517SOL    HW117450   6.033   3.268   2.356 -1.9713 -0.6029  1.2405
 5517SOL    HW217451   6.069   3.149   2.251  1.4998  1.1685  0.3034
 5518SOL     OW17452   4.346   0.949   2.928 -0.4029 -0.2024 -0.0974
 5518SOL    HW117453   4.329   0.868   2.872  0.7865 -1.3130  1.0936
 5518SOL    HW217454   4.308   0.935   3.019  0.2338  0.3788  0.2644
 5519SOL     OW17455   0.116   6.348   6.597 -0.0035 -0.4708 -0.2816
 5519SOL    HW117456   0.017   6.357   6.597 -0.3232 -3.2623 -0.6806
 5519SOL    HW217457   0.147   6.312   6.685  0.9190  1.9315  0.4763
 5520SOL     OW17458   4.787   5.847   2.070 -0.4424  0.1656  0.7300
 5520SOL    HW117459   4.837   5.890   1.995 -0.6915 -2.2667 -0.9583
 5520SOL    HW217460   4.852   5.804   2.133 -0.2139 -2.1400 -0.9292
 5521SOL     OW17461   6.153   6.478   2.300 -0.0744  0.5730  0.0111
 5521SOL    HW117462   6.250   6.470   2.278  0.2450  1.1171  1.1308
 5521SOL    HW217463   6.112   6.552   2.248 -0.6688 -1.5638 -2.8096
 5522SOL     OW17464   3.934   3.336   0.391  0.0554  0.2693  0.5644
 5522SOL    HW117465   3.838   3.341   0.363  0.0967 -1.7182 -0.0939
 5522SOL    HW217466   3.978   3.425   0.374 -0.9539  0.3881 -1.9120
 5523SOL     OW17467   1.062   5.089   1.181 -0.4973  0.7709  0.2447
 5523SOL    HW117468   1.138   5.042   1.227  0.6715  1.7815 -0.5590
 5523SOL    HW217469   1.063   5.186   1.208 -2.5005  0.5021  1.4421
 5524SOL     OW17470   0.603   2.156   5.188  0.2270  0.3221 -0.1406
 5524SOL    HW117471   0.508   2.157   5.157  0.3369 -0.6076 -0.5190
 5524SOL    HW217472   0.621   2.073   5.240  0.9967  0.1846 -0.5966
 5525SOL     OW17473   4.200   5.767   6.667  0.0471  0.4022  0.0439
 5525SOL    HW117474   4.296   5.762   6.695  0.2365 -1.1002 -0.7377
 5525SOL    HW217475   4.142   5.730   6.741  0.1183  0.8087  0.3035
 5526SOL     OW17476   4.913   0.368   3.074 -0.5571 -0.3288 -0.2607
 5526SOL    HW117477   4.865   0.306   3.011  0.9436 -0.9681 -0.8138
 5526SOL    HW217478   4.959   0.439   3.021 -2.2391  1.3067  0.3634
 5527SOL     OW17479   4.931   4.434   4.934 -0.0801 -0.2768 -0.4949
 5527SOL    HW117480   4.996   4.360   4.954 -1.0326 -1.3657 -1.2765
 5527SOL    HW217481   4.853   4.397   4.885 -0.4078  1.3315 -1.2674
 5528SOL     OW17482   1.701   4.290   5.376  0.6411  0.0890 -0.0616
 5528SOL    HW117483   1.641   4.212   5.363 -1.0615  1.1363  1.0354
 5528SOL    HW217484   1.760   4.301   5.296 -0.0844 -1.4449 -0.8420
 5529SOL     OW17485   1.703   1.840   6.878 -0.1839  0.0132 -0.4247
 5529SOL    HW117486   1.716   1.846   6.779  0.7338  2.1876 -0.2096
 5529SOL    HW217487   1.605   1.839   6.898 -0.3799  0.0647 -1.3337
 5530SOL     OW17488   4.153   2.996   0.913 -0.1981  0.1259  0.0101
 5530SOL    HW117489   4.215   2.937   0.862  0.8443  0.3583  0.9575
 5530SOL    HW217490   4.139   3.082   0.863 -0.1261 -0.1192 -0.4286
 5531SOL     OW17491   6.976   2.165   3.500 -0.2099 -0.6414  0.4118
 5531SOL    HW117492   6.913   2.205   3.566 -1.0065  0.0744 -0.7318
 5531SOL    HW217493   7.023   2.239   3.450 -0.6572 -1.1324 -0.7678
 5532SOL     OW17494   1.494   4.058   0.124 -0.2583 -0.0040 -0.0735
 5532SOL    HW117495   1.539   4.041   0.036 -0.4622 -2.2476  0.2194
 5532SOL    HW217496   1.515   4.151   0.154  3.4665 -0.5836 -0.3871
 5533SOL     OW17497   5.163   5.741   4.822 -0.1152 -0.0812 -0.1559
 5533SOL    HW117498   5.122   5.759   4.911 -0.2047  1.0478 -0.4139
 5533SOL    HW217499   5.204   5.825   4.786  0.5386 -0.6846 -0.8698
 5534SOL     OW17500   4.482   5.736   4.173 -0.0026 -0.0385 -0.2829
 5534SOL    HW117501   4.439   5.654   4.133 -0.2843 -0.0097 -0.0472
 5534SOL    HW217502   4.519   5.713   4.263 -2.5711  0.7350  1.0679
 5535SOL     OW17503   3.687   1.756   1.888  0.0468 -0.5608  0.3590
 5535SOL    HW117504   3.634   1.839   1.902  2.4876  1.1192  0.2022
 5535SOL    HW217505   3.628   1.676   1.900 -2.6641  1.1592 -0.6741
 5536SOL     OW17506   6.716   0.158   2.929 -0.2931 -0.0818 -0.0874
 5536SOL    HW117507   6.700   0.066   2.964 -0.7618  0.0821  0.1436
 5536SOL    HW217508   6.755   0.215   3.001  2.3361 -0.7115 -0.8870
 5537SOL     OW17509   1.509   2.036   0.061  0.2398  0.3838 -0.0030
 5537SOL    HW117510   1.470   2.124   0.090  0.8636  0.6774 -0.0329
 5537SOL    HW217511   1.440   1.984   0.011 -0.6358  0.1827  1.3507
 5538SOL     OW17512   2.989   3.779   2.411 -0.4626  0.2209 -0.1229
 5538SOL    HW117513   2.984   3.751   2.315  2.3279 -2.2422  0.3428
 5538SOL    HW217514   2.978   3.700   2.470 -0.4083  1.4242  1.5876
 5539SOL     OW17515   5.048   2.779   6.329 -0.1010 -0.2182 -0.5764
 5539SOL    HW117516   5.142   2.756   6.303 -0.1754 -0.9407 -0.2280
 5539SOL    HW217517   5.031   2.876   6.310  1.1449  0.2589  0.6310
 5540SOL     OW17518   4.315   0.129   0.780  0.2681 -0.2522  0.0371
 5540SOL    HW117519   4.339   0.212   0.831 -1.5668  0.1931  0.2368
 5540SOL    HW217520   4.274   0.063   0.843 -0.0315 -0.5460 -0.4675
 5541SOL     OW17521   1.925   5.103   4.192 -0.1567  0.8222 -0.0448
 5541SOL    HW117522   1.854   5.133   4.255  0.9611 -0.9295  2.2110
 5541SOL    HW217523   1.983   5.181   4.167  1.4389  1.1628  3.9492
 5542SOL     OW17524   1.653   2.556   1.557  0.2430  0.1694  0.3294
 5542SOL    HW117525   1.640   2.643   1.509  0.9356 -1.8054 -4.0050
 5542SOL    HW217526   1.567   2.527   1.597 -0.9109  1.2971 -1.1828
 5543SOL     OW17527   0.265   6.602   4.626  0.0543 -0.1562 -0.7140
 5543SOL    HW117528   0.173   6.642   4.628  0.3366  0.4964  0.2091
 5543SOL    HW217529   0.310   6.625   4.540 -0.1688  0.6360 -0.6225
 5544SOL     OW17530   2.204   0.916   5.220 -0.9097  0.1372  0.3899
 5544SOL    HW117531   2.293   0.938   5.261 -0.7747  0.2229  0.0510
 5544SOL    HW217532   2.166   0.835   5.266 -0.9370  0.4550  0.9400
 5545SOL     OW17533   2.193   0.270   6.965 -0.1838  0.7074 -0.7461
 5545SOL    HW117534   2.229   0.297   7.055 -2.2436 -1.1977  0.7758
 5545SOL    HW217535   2.186   0.170   6.961  0.2453  0.7148 -3.2593
 5546SOL     OW17536   1.739   4.941   0.099  0.2739 -0.3715  0.0745
 5546SOL    HW117537   1.711   4.857   0.052 -1.7719  0.2228  0.1392
 5546SOL    HW217538   1.809   4.988   0.045  0.4644 -1.4362 -0.6271
 5547SOL     OW17539   3.873   2.734   0.129  0.1934  0.4817  0.4386
 5547SOL    HW117540   3.889   2.648   0.080  0.3279  0.7596 -0.0081
 5547SOL    HW217541   3.826   2.798   0.070  0.1481  0.7427  0.7529
 5548SOL     OW17542   1.712   4.943   5.004  0.3095  0.2734  0.0724
 5548SOL    HW117543   1.774   4.865   5.013 -0.2361 -0.0452  1.1226
 5548SOL    HW217544   1.645   4.925   4.932 -0.8019 -0.9203  1.3629
 5549SOL     OW17545   0.509   0.002   5.324  0.3040  0.5398  0.0734
 5549SOL    HW117546   0.542   0.049   5.243  1.0409  1.8458  1.0895
 5549SOL    HW217547   0.423  -0.045   5.303  0.5930  0.6617 -1.4957
 5550SOL     OW17548   3.029   1.277   3.581  0.1900 -0.2166 -0.3656
 5550SOL    HW117549   2.978   1.265   3.666  0.2545  0.1852 -0.2687
 5550SOL    HW217550   2.981   1.344   3.523 -0.7973 -1.7485 -1.3966
 5551SOL     OW17551   0.096   1.530   3.476 -1.0034 -0.8021  0.3347
 5551SOL    HW117552   0.042   1.491   3.551 -0.9317 -1.9913 -0.2006
 5551SOL    HW217553   0.103   1.629   3.488 -0.7303 -0.9893  2.0558
 5552SOL     OW17554   2.162   3.942   5.323  0.0591 -1.0196  0.6813
 5552SOL    HW117555   2.093   3.884   5.280  0.5988 -0.4683 -1.0051
 5552SOL    HW217556   2.248   3.935   5.273  0.8983 -0.7584  2.0263
 5553SOL     OW17557   4.898   3.848   4.208  0.0358 -0.0941  0.0139
 5553SOL    HW117558   4.951   3.782   4.154  0.4648  0.8852 -0.7857
 5553SOL    HW217559   4.912   3.830   4.305  0.6854 -0.7448 -0.1905
 5554SOL     OW17560   5.021   6.995   0.980 -0.3878 -0.1786  0.0774
 5554SOL    HW117561   4.936   7.044   0.960 -0.1792  0.0078 -0.3866
 5554SOL    HW217562   5.086   7.010   0.904 -0.1897 -0.8747  0.1069
 5555SOL     OW17563   1.064   5.259   4.247  0.2963 -0.1192  0.1897
 5555SOL    HW117564   0.984   5.257   4.307  0.0936 -0.1444 -0.0800
 5555SOL    HW217565   1.039   5.227   4.156  0.6204 -0.1548  0.1095
 5556SOL     OW17566   6.358   2.202   1.764 -0.1109 -0.8278 -0.4292
 5556SOL    HW117567   6.293   2.160   1.701  1.4998 -1.5901 -1.6443
 5556SOL    HW217568   6.451   2.191   1.730  0.8522 -1.2428  2.0647
 5557SOL     OW17569   3.765   1.611   6.634 -0.4886  0.0630  0.5046
 5557SOL    HW117570   3.677   1.630   6.678  0.1766  0.1070  1.8963
 5557SOL    HW217571   3.815   1.697   6.623  0.0806 -0.1569  1.3162
 5558SOL     OW17572   6.145   4.131   1.894 -0.2859 -0.2232  0.2145
 5558SOL    HW117573   6.233   4.138   1.943  0.1461 -1.0556 -0.4188
 5558SOL    HW217574   6.112   4.223   1.873  0.1520  0.1149  0.9582
 5559SOL     OW17575   0.383   2.500   4.009 -0.0534  0.0605  0.4184
 5559SOL    HW117576   0.372   2.484   3.910  0.0818  2.3366 -0.0208
 5559SOL    HW217577   0.293   2.517   4.049  0.0292  0.7470  0.3378
 5560SOL     OW17578   1.965   0.099   4.234  0.2828  0.0713 -0.1051
 5560SOL    HW117579   2.018   0.181   4.212  0.5126 -0.3372 -1.1578
 5560SOL    HW217580   1.867   0.119   4.224  0.3742 -0.0885 -1.5978
 5561SOL     OW17581   5.818   4.152   3.250 -0.1726  0.4594  0.0859
 5561SOL    HW117582   5.742   4.189   3.195 -0.1857  1.3825  0.6975
 5561SOL    HW217583   5.894   4.129   3.190 -1.4521 -2.0004 -0.7636
 5562SOL     OW17584   3.170   5.051   5.403 -0.1388  0.2276  0.3897
 5562SOL    HW117585   3.240   5.047   5.331  0.2154  0.5807  0.7084
 5562SOL    HW217586   3.122   4.964   5.408  1.5197 -0.6676  1.3958
 5563SOL     OW17587   0.327   3.798   1.664  1.2858 -0.4602  0.3242
 5563SOL    HW117588   0.259   3.806   1.737  0.0449  0.2876 -0.8698
 5563SOL    HW217589   0.377   3.884   1.655  0.7377 -0.1984 -0.3416
 5564SOL     OW17590   0.870   6.317   5.631  0.0395  0.2065 -0.7398
 5564SOL    HW117591   0.914   6.228   5.623  1.5492  1.0401 -2.7341
 5564SOL    HW217592   0.902   6.364   5.713 -1.0187 -1.1569  0.5028
 5565SOL     OW17593   1.737   4.140   5.989 -0.1303 -1.1663  0.4191
 5565SOL    HW117594   1.812   4.119   5.925  0.6445 -0.0547  0.9279
 5565SOL    HW217595   1.650   4.116   5.947  0.4588 -1.8214 -0.4746
 5566SOL     OW17596   3.426   6.290   4.087 -0.2414 -0.0788  0.1847
 5566SOL    HW117597   3.335   6.257   4.060 -1.1008 -0.1155  2.8931
 5566SOL    HW217598   3.425   6.319   4.182  1.9890  2.3413 -0.4012
 5567SOL     OW17599   1.309   1.973   5.063 -0.3741  0.1940  0.3501
 5567SOL    HW117600   1.350   1.992   5.152  0.8070 -3.8382  0.8924
 5567SOL    HW217601   1.380   1.974   4.993 -0.0212 -2.3516  0.5522
 5568SOL     OW17602   5.709   5.251   1.821  0.2889 -0.1861  0.1114
 5568SOL    HW117603   5.794   5.271   1.870  0.7942 -2.0938  0.0596
 5568SOL    HW217604   5.721   5.269   1.724  0.6457 -0.5105  0.0968
 5569SOL     OW17605   5.354   5.784   1.249  0.1075 -0.3597 -0.1844
 5569SOL    HW117606   5.297   5.725   1.306  0.5543 -0.9074 -0.2893
 5569SOL    HW217607   5.337   5.764   1.152  0.4083 -0.4641 -0.2175
 5570SOL     OW17608   1.744   3.076   0.499  0.2269 -0.4584 -0.4368
 5570SOL    HW117609   1.782   2.990   0.532 -1.1601 -1.1441 -0.5434
 5570SOL    HW217610   1.644   3.068   0.492  0.0426  1.2352 -0.2302
 5571SOL     OW17611   5.758   0.871   6.916 -0.6178 -0.0991 -0.0990
 5571SOL    HW117612   5.711   0.888   7.002  1.4332  1.2418  0.8449
 5571SOL    HW217613   5.797   0.956   6.881 -0.5845 -0.7875 -1.8668
 5572SOL     OW17614   4.426   0.475   0.058 -0.0901 -0.3029  0.0265
 5572SOL    HW117615   4.416   0.377   0.076 -1.9003 -0.3327 -0.8928
 5572SOL    HW217616   4.432   0.525   0.144  1.8727 -1.2808  0.4979
 5573SOL     OW17617   5.380   4.785   6.725 -0.0456  0.2850 -0.0451
 5573SOL    HW117618   5.319   4.861   6.748  0.6488  1.1547 -0.9815
 5573SOL    HW217619   5.332   4.720   6.666  0.0910  1.3147 -1.3514
 5574SOL     OW17620   1.671   4.241   6.489  0.1111 -0.5845 -0.3901
 5574SOL    HW117621   1.704   4.273   6.578  0.5035  0.6495 -0.9600
 5574SOL    HW217622   1.738   4.179   6.448  0.5361 -0.1023 -0.4188
 5575SOL     OW17623   5.831   3.201   0.491  0.5011  0.4504  0.1784
 5575SOL    HW117624   5.840   3.297   0.466  1.0410  0.6355  1.0203
 5575SOL    HW217625   5.832   3.192   0.591 -0.7286 -0.3227  0.1472
 5576SOL     OW17626   5.487   2.971   2.434  0.2275 -0.2364 -0.4887
 5576SOL    HW117627   5.505   2.955   2.337  0.8818  0.6762 -0.5223
 5576SOL    HW217628   5.406   3.029   2.444 -0.0803 -0.6624 -0.4673
 5577SOL     OW17629   3.286   6.497   5.019  0.4133 -0.3387  0.6958
 5577SOL    HW117630   3.276   6.589   5.058  1.2766  0.4355 -0.7966
 5577SOL    HW217631   3.225   6.488   4.940  1.3368 -0.5159 -0.0172
 5578SOL     OW17632   1.751   5.282   1.767 -0.4670 -0.5726  0.4597
 5578SOL    HW117633   1.839   5.325   1.746 -1.2849  1.7396  1.5326
 5578SOL    HW217634   1.694   5.281   1.686  0.2040 -1.3409 -0.0290
 5579SOL     OW17635   3.189   0.900   6.204 -0.3454  0.0092  0.2464
 5579SOL    HW117636   3.154   0.977   6.151 -2.7015 -0.4931  0.9574
 5579SOL    HW217637   3.208   0.929   6.297 -3.2672 -0.6192  1.1258
 5580SOL     OW17638   4.660   3.551   5.978 -0.2378 -0.2076 -0.0771
 5580SOL    HW117639   4.584   3.552   5.913  1.4222 -0.8456 -2.1294
 5580SOL    HW217640   4.746   3.537   5.929  1.2094  0.1751  2.1962
 5581SOL     OW17641   4.041   0.004   0.894 -0.1431 -0.6633  0.3794
 5581SOL    HW117642   4.063  -0.092   0.914  0.9685 -0.4558  0.2056
 5581SOL    HW217643   4.063   0.060   0.974  0.7170 -0.3422 -0.0757
 5582SOL     OW17644   3.732   0.256   5.305  0.3068 -0.1578  0.1003
 5582SOL    HW117645   3.723   0.169   5.257 -0.9349 -0.6668  1.1741
 5582SOL    HW217646   3.821   0.261   5.350  0.1703 -1.1529  0.5041
 5583SOL     OW17647   0.439   2.413   5.329 -0.0982  0.1720 -0.5992
 5583SOL    HW117648   0.408   2.498   5.371  0.5196 -0.0592  0.3577
 5583SOL    HW217649   0.369   2.378   5.268 -0.8085  0.7978 -0.1523
 5584SOL     OW17650   0.488   2.979   3.632 -1.1563 -0.1091  0.0316
 5584SOL    HW117651   0.565   2.974   3.569 -1.3640 -1.7801 -0.1552
 5584SOL    HW217652   0.519   2.952   3.724 -1.0552  1.4169  0.4741
 5585SOL     OW17653   3.920   1.079   5.375  0.3916  0.3481  0.4624
 5585SOL    HW117654   3.863   1.002   5.404  1.5389 -1.1379 -1.0446
 5585SOL    HW217655   3.899   1.101   5.279  1.4403  0.6177  0.2841
 5586SOL     OW17656   1.539   1.961   4.320 -0.8534 -0.1557  0.3569
 5586SOL    HW117657   1.490   1.909   4.391  1.9067 -0.8692  1.8588
 5586SOL    HW217658   1.495   1.946   4.232 -2.2267 -2.2013  1.3185
 5587SOL     OW17659   0.666   1.015   0.155  0.3010  0.0821  0.2220
 5587SOL    HW117660   0.728   0.955   0.204  1.3707  0.7538 -0.2826
 5587SOL    HW217661   0.717   1.068   0.087 -0.9600  0.0026 -0.8259
 5588SOL     OW17662   0.499   6.619   5.855 -0.1518 -0.2826 -0.1501
 5588SOL    HW117663   0.548   6.675   5.788  0.7184 -0.0946  0.6245
 5588SOL    HW217664   0.534   6.525   5.851 -2.1877 -1.0530 -2.0424
 5589SOL     OW17665   4.605   5.840   1.034 -0.3265 -0.0611  0.0789
 5589SOL    HW117666   4.606   5.938   1.015  1.7140 -0.2173 -0.8501
 5589SOL    HW217667   4.672   5.818   1.105 -1.3310 -0.7069  0.8635
 5590SOL     OW17668   4.897   3.117   3.214 -0.0509  0.1090  0.9028
 5590SOL    HW117669   4.987   3.081   3.239 -0.5908 -0.9797  1.3584
 5590SOL    HW217670   4.826   3.053   3.243 -0.9123  0.3491 -0.5819
 5591SOL     OW17671   5.406   3.922   0.768 -0.2177  0.1916 -0.0887
 5591SOL    HW117672   5.323   3.953   0.815 -0.9642  1.1189 -1.9182
 5591SOL    HW217673   5.466   4.000   0.751 -0.3963  0.0628 -1.4351
 5592SOL     OW17674   3.611   0.924   3.320  0.0360  0.7922 -0.0045
 5592SOL    HW117675   3.538   0.907   3.386  1.7038 -1.1716  1.4846
 5592SOL    HW217676   3.586   0.886   3.231 -0.7766  0.2069  0.4652
 5593SOL     OW17677   3.243   1.568   6.542  0.1360  0.6992  0.0023
 5593SOL    HW117678   3.210   1.573   6.636 -1.1530 -0.8739 -0.3190
 5593SOL    HW217679   3.318   1.502   6.537  1.1014  1.7662  0.1384
 5594SOL     OW17680   3.334   3.440   3.969  0.0416 -0.7631 -0.1605
 5594SOL    HW117681   3.284   3.522   3.999  1.1601  0.4414 -1.4345
 5594SOL    HW217682   3.393   3.409   4.043  2.0815  1.6148 -0.6365
 5595SOL     OW17683   1.600   1.373   2.016 -0.5150  0.1349  0.6108
 5595SOL    HW117684   1.682   1.426   1.996 -2.1713  2.1593 -1.3140
 5595SOL    HW217685   1.558   1.406   2.100 -1.5622  2.0716 -0.6003
 5596SOL     OW17686   4.165   0.260   6.209 -0.0538 -0.4857 -0.1585
 5596SOL    HW117687   4.253   0.253   6.163 -0.9869  0.0838 -2.1311
 5596SOL    HW217688   4.145   0.174   6.256  1.2930 -0.8059 -0.1263
 5597SOL     OW17689   3.241   5.672   4.585 -0.2254 -0.1807  0.3367
 5597SOL    HW117690   3.229   5.759   4.538  0.1614  1.0429  2.3481
 5597SOL    HW217691   3.151   5.632   4.604 -0.3721 -1.6257 -2.8985
 5598SOL     OW17692   3.348   4.517   1.648 -0.2472  0.2269 -0.1951
 5598SOL    HW117693   3.419   4.544   1.712  0.3089  0.4787 -0.9151
 5598SOL    HW217694   3.378   4.436   1.597  0.2721  1.3488 -1.7315
 5599SOL     OW17695   1.120   0.557   6.647  0.1893 -0.5208 -0.2426
 5599SOL    HW117696   1.038   0.500   6.638 -1.7886  2.1180 -0.2300
 5599SOL    HW217697   1.119   0.603   6.736  1.0444  0.4504 -0.7118
 5600SOL     OW17698   1.113   2.501   6.125 -0.3121  0.1214  0.1003
 5600SOL    HW117699   1.179   2.490   6.051 -0.2896  1.3357 -0.0730
 5600SOL    HW217700   1.146   2.570   6.190 -0.9398  0.0146  0.5475
 5601SOL     OW17701   3.153   0.477   6.699 -0.4004  0.8793 -0.6930
 5601SOL    HW117702   3.100   0.424   6.633 -1.7096  0.5825  0.5556
 5601SOL    HW217703   3.174   0.567   6.661 -0.3115  0.3775 -1.8662
 5602SOL     OW17704   0.972   5.561   6.620  0.3668 -0.3959 -0.0224
 5602SOL    HW117705   0.898   5.502   6.588  0.9930 -0.8658 -0.6424
 5602SOL    HW217706   1.037   5.577   6.545 -1.4658  3.8406 -0.9540
 5603SOL     OW17707   2.570   1.269   6.281 -0.1173 -0.0630 -0.2857
 5603SOL    HW117708   2.522   1.211   6.215 -0.0978  0.4006 -0.7158
 5603SOL    HW217709   2.538   1.248   6.374 -0.4957 -0.3844 -0.4864
 5604SOL     OW17710   2.800   1.493   2.797 -0.1385  0.1011 -0.1377
 5604SOL    HW117711   2.720   1.541   2.761 -0.8918 -0.0909  1.1792
 5604SOL    HW217712   2.779   1.461   2.890  0.9516 -1.2592 -0.3415
 5605SOL     OW17713   0.079   3.789   5.189  0.1312  0.1205 -0.2975
 5605SOL    HW117714   0.084   3.778   5.288  1.7568  0.3312 -0.3175
 5605SOL    HW217715  -0.015   3.807   5.162 -0.4199 -0.4285  1.1480
 5606SOL     OW17716   2.172   6.010   5.147  0.0983  0.9331  0.1511
 5606SOL    HW117717   2.208   5.918   5.161 -1.8970 -0.0927 -1.0217
 5606SOL    HW217718   2.184   6.064   5.230  0.9743 -0.4832  0.9839
 5607SOL     OW17719   0.263   0.184   3.470  0.0530  0.0330  0.2972
 5607SOL    HW117720   0.243   0.246   3.545 -2.3640  1.4203 -1.3819
 5607SOL    HW217721   0.357   0.150   3.479 -0.0299  0.3777  3.6916
 5608SOL     OW17722   6.741   2.605   6.363 -0.0844 -0.1090  0.3140
 5608SOL    HW117723   6.771   2.700   6.347 -0.3071 -0.0046  0.5183
 5608SOL    HW217724   6.712   2.595   6.458 -2.3988  0.2483 -0.3052
 5609SOL     OW17725   2.613   6.519   2.744 -0.1470 -0.2116  0.4057
 5609SOL    HW117726   2.618   6.420   2.733 -1.6777 -0.2286 -0.5083
 5609SOL    HW217727   2.594   6.540   2.840  1.6226 -0.7037  0.8948
 5610SOL     OW17728   3.098   2.687   0.869 -0.6088  0.2224 -0.3194
 5610SOL    HW117729   3.140   2.754   0.807 -1.2647  0.5127 -0.4576
 5610SOL    HW217730   3.141   2.598   0.856  1.3255  0.9119  0.9205
 5611SOL     OW17731   0.960   2.501   1.742 -0.2954 -0.5938 -0.2524
 5611SOL    HW117732   0.917   2.564   1.677  0.0383 -1.6506 -1.5421
 5611SOL    HW217733   0.939   2.407   1.716 -0.6549 -1.0431  1.5520
 5612SOL     OW17734   4.987   2.519   4.334 -0.0546 -0.3560  0.2382
 5612SOL    HW117735   4.895   2.481   4.342  0.3374 -1.0763  1.5320
 5612SOL    HW217736   5.040   2.465   4.269 -0.7227  0.4836 -1.0634
 5613SOL     OW17737   0.589   0.071   0.237  0.2363  0.2014  0.7158
 5613SOL    HW117738   0.561   0.139   0.169  0.7102  0.2214  0.5388
 5613SOL    HW217739   0.517   0.002   0.246  0.7292 -0.5515 -0.7960
 5614SOL     OW17740   2.959   5.037   3.692  0.1190 -0.0916 -0.6398
 5614SOL    HW117741   2.927   4.994   3.777 -2.2550  1.9890 -0.3610
 5614SOL    HW217742   2.882   5.077   3.644  1.9159  2.1242 -1.8585
 5615SOL     OW17743   6.446   2.225   4.343  0.1703  0.0401 -0.0579
 5615SOL    HW117744   6.533   2.229   4.392  0.6280  0.0710 -0.8475
 5615SOL    HW217745   6.417   2.317   4.318 -0.0981  0.0312  0.2149
 5616SOL     OW17746   3.177   5.984   1.413  0.0644  0.0835  0.7056
 5616SOL    HW117747   3.254   5.920   1.404  0.1205  0.1609  0.6406
 5616SOL    HW217748   3.123   5.983   1.329  0.7252  0.9799  0.2661
 5617SOL     OW17749   5.437   1.738   5.048  0.0842 -0.2766 -0.0229
 5617SOL    HW117750   5.524   1.742   5.097  1.5619 -0.2113 -2.4589
 5617SOL    HW217751   5.394   1.649   5.063  0.9630 -0.6046  0.6226
 5618SOL     OW17752   2.132   3.889   6.430 -0.0529  0.2188 -0.6152
 5618SOL    HW117753   2.035   3.872   6.412 -0.0368 -0.0790 -0.4201
 5618SOL    HW217754   2.185   3.874   6.347  0.1136 -1.8513 -0.1921
 5619SOL     OW17755   0.609   5.151   0.739  0.4646 -0.1484 -0.6152
 5619SOL    HW117756   0.611   5.221   0.668 -0.4601  2.5432  1.8034
 5619SOL    HW217757   0.517   5.146   0.778  1.1753 -0.6822  1.1200
 5620SOL     OW17758   4.411   1.250   5.824  0.1054 -0.4346 -0.4630
 5620SOL    HW117759   4.505   1.227   5.851 -0.2688  0.8298  2.3466
 5620SOL    HW217760   4.347   1.208   5.888 -1.2480 -0.7892 -1.9844
 5621SOL     OW17761   0.035   2.602   5.045 -0.2484 -0.0069 -0.8343
 5621SOL    HW117762   0.006   2.662   4.970 -0.4515  1.3125  0.2585
 5621SOL    HW217763  -0.023   2.617   5.125  0.8850 -0.2877  0.0812
 5622SOL     OW17764   1.666   0.573   3.698  0.0197  0.1850 -0.5696
 5622SOL    HW117765   1.759   0.608   3.688  0.1369 -0.1259 -0.5756
 5622SOL    HW217766   1.655   0.534   3.789  0.2676 -0.8625 -0.9730
 5623SOL     OW17767   2.283   2.307   3.680 -0.1573 -0.1599 -0.0225
 5623SOL    HW117768   2.274   2.233   3.614  0.0202 -0.6344  0.4793
 5623SOL    HW217769   2.304   2.392   3.632 -1.4492 -0.2005 -0.7057
 5624SOL     OW17770   3.128   5.894   6.554 -0.7066 -0.1530 -0.3092
 5624SOL    HW117771   3.139   5.798   6.580  0.0308 -0.3095 -1.1349
 5624SOL    HW217772   3.125   5.901   6.454 -2.3944  0.5247 -0.2326
 5625SOL     OW17773   3.880   0.926   4.261 -0.0066 -0.0279  0.0956
 5625SOL    HW117774   3.870   0.962   4.354  1.0991 -2.0802  1.0875
 5625SOL    HW217775   3.811   0.855   4.246  1.1965 -1.2665  0.2123
 5626SOL     OW17776   4.662   2.498   5.382  0.1171  0.3958  0.5037
 5626SOL    HW117777   4.726   2.451   5.321 -0.4601 -0.1069  0.2749
 5626SOL    HW217778   4.590   2.541   5.328  0.5126  1.3680  0.7254
 5627SOL     OW17779   2.728   4.470   5.632  0.0295 -0.0205  0.0493
 5627SOL    HW117780   2.749   4.512   5.544  0.8872  2.2629  1.2574
 5627SOL    HW217781   2.642   4.419   5.625  0.2452 -0.1700 -2.1519
 5628SOL     OW17782   1.477   0.240   1.547  0.2977  0.1736 -0.8033
 5628SOL    HW117783   1.575   0.242   1.566  0.0878 -1.4665  0.6148
 5628SOL    HW217784   1.459   0.180   1.469  0.3456 -0.0242 -0.6600
 5629SOL     OW17785   6.049   2.022   2.080 -0.2458  0.3160 -0.0067
 5629SOL    HW117786   6.073   2.016   1.983 -1.8590  1.6001 -0.5285
 5629SOL    HW217787   6.127   2.057   2.131  0.8237 -0.9426 -0.7241
 5630SOL     OW17788   1.776   2.354   5.451 -0.5526  0.2944  0.0664
 5630SOL    HW117789   1.688   2.394   5.429  1.0040  4.6876  0.7351
 5630SOL    HW217790   1.785   2.346   5.550 -0.0972  0.1913  0.0187
 5631SOL     OW17791   6.517   0.943   5.249  0.3073  0.1843 -0.3974
 5631SOL    HW117792   6.462   0.869   5.210  0.6581 -0.1695 -0.2212
 5631SOL    HW217793   6.495   1.029   5.202 -2.2608  0.5937  1.2931
 5632SOL     OW17794   4.809   4.881   6.565  0.3389  0.4583  0.1427
 5632SOL    HW117795   4.786   4.902   6.470  0.6729  0.0106 -0.0378
 5632SOL    HW217796   4.754   4.804   6.597  2.0428 -1.0784 -0.5131
 5633SOL     OW17797   3.829   1.027   6.840  0.1031 -0.5059 -0.0570
 5633SOL    HW117798   3.795   0.939   6.808 -0.2782 -0.0844 -0.8443
 5633SOL    HW217799   3.783   1.101   6.791  0.1338  0.1509  0.8600
 5634SOL     OW17800   1.684   4.931   5.926 -0.1340  0.9590 -0.0001
 5634SOL    HW117801   1.673   4.858   5.994  1.2024  2.0205  1.4391
 5634SOL    HW217802   1.597   4.948   5.881 -0.5715 -1.2419 -0.1054
 5635SOL     OW17803   6.366   5.138   3.636 -0.1961 -0.0221 -0.0733
 5635SOL    HW117804   6.332   5.219   3.588  0.9463  0.3461 -0.3081
 5635SOL    HW217805   6.457   5.114   3.600 -0.6776 -1.6531 -0.2962
 5636SOL     OW17806   0.712   4.739   6.863  0.3518  0.1132 -0.4856
 5636SOL    HW117807   0.735   4.826   6.819 -0.5496 -0.4864 -2.2331
 5636SOL    HW217808   0.709   4.667   6.794  0.6264 -1.2357  0.8642
 5637SOL     OW17809   4.179   2.065   0.998  0.1989 -0.1274  0.3307
 5637SOL    HW117810   4.127   2.013   1.065 -0.0698  0.8046  0.8526
 5637SOL    HW217811   4.121   2.087   0.920  0.1394 -0.0843  0.3872
 5638SOL     OW17812   6.527   6.184   2.411 -0.3642 -0.6352  0.0424
 5638SOL    HW117813   6.488   6.233   2.489  0.2606 -1.1964  0.7270
 5638SOL    HW217814   6.535   6.087   2.434  0.9717 -0.6176 -0.2393
 5639SOL     OW17815   0.603   3.096   1.747 -0.0328 -0.1076 -0.1405
 5639SOL    HW117816   0.668   3.061   1.679  1.0769  1.1817  0.1981
 5639SOL    HW217817   0.539   3.023   1.774  2.7810 -2.2570  1.3219
 5640SOL     OW17818   0.956   3.428   1.165 -0.7164 -0.6347 -0.0085
 5640SOL    HW117819   0.999   3.518   1.179 -1.0716 -0.3494 -0.6821
 5640SOL    HW217820   1.025   3.362   1.137 -0.1985 -0.9346  1.8566
 5641SOL     OW17821   5.234   1.083   6.095 -0.0082 -0.1170 -0.0077
 5641SOL    HW117822   5.191   1.042   6.175 -0.0193  1.6467  0.9519
 5641SOL    HW217823   5.332   1.090   6.110  0.2601 -1.5219 -0.9839
 5642SOL     OW17824   6.797   4.506   1.840  0.6073 -0.0622  0.1055
 5642SOL    HW117825   6.732   4.557   1.785  0.2609 -0.6122 -0.0001
 5642SOL    HW217826   6.838   4.567   1.909 -1.6571 -0.1732  1.6634
 5643SOL     OW17827   3.031   3.953   0.507  0.5033 -0.0798 -0.2844
 5643SOL    HW117828   3.102   3.913   0.564  0.6704 -0.1163 -0.5177
 5643SOL    HW217829   3.061   4.041   0.472  0.7004 -0.3896 -0.9141
 5644SOL     OW17830   1.744   4.190   1.407  0.1522 -0.2686  0.0944
 5644SOL    HW117831   1.676   4.245   1.456 -1.5324 -1.1033 -1.2125
 5644SOL    HW217832   1.779   4.241   1.329  0.6439 -0.0570  0.4426
 5645SOL     OW17833   5.361   7.008   5.848  0.5290 -0.2386  0.2750
 5645SOL    HW117834   5.429   6.937   5.832 -0.6795 -1.1017 -1.1476
 5645SOL    HW217835   5.269   6.970   5.842 -0.1342  1.2400  0.4840
 5646SOL     OW17836   5.001   5.889   6.028 -0.1670  0.1150  0.3603
 5646SOL    HW117837   4.994   5.875   6.127 -1.3699  2.3938  0.6545
 5646SOL    HW217838   5.094   5.917   6.006  0.3629 -1.2956  0.6825
 5647SOL     OW17839   1.966   2.818   3.190 -0.0778  0.2938 -0.4352
 5647SOL    HW117840   1.925   2.880   3.122 -0.0626 -0.5228 -1.2111
 5647SOL    HW217841   1.931   2.725   3.176 -0.9261  0.2960  1.3980
 5648SOL     OW17842   0.828   3.069   6.092 -0.3182 -0.0623  0.0135
 5648SOL    HW117843   0.848   3.165   6.072  1.0752 -0.2169  0.5294
 5648SOL    HW217844   0.799   3.023   6.009 -1.1929  0.8418 -0.2016
 5649SOL     OW17845   1.176   3.246   3.856 -0.2108 -0.1846  0.4697
 5649SOL    HW117846   1.214   3.331   3.894  0.1869  0.2993 -0.9481
 5649SOL    HW217847   1.247   3.199   3.802 -1.0871 -0.1770 -0.7336
 5650SOL     OW17848   2.255   1.571   1.144  0.0974 -0.2080  0.1353
 5650SOL    HW117849   2.282   1.596   1.237  0.1118 -2.2137  0.7058
 5650SOL    HW217850   2.190   1.639   1.109  0.5342  0.8868  1.3662
 5651SOL     OW17851   1.511   6.705   2.819 -0.9627 -0.0595 -0.1485
 5651SOL    HW117852   1.428   6.744   2.859 -1.2948 -1.0557  0.1623
 5651SOL    HW217853   1.488   6.620   2.770  0.0408 -1.0816  1.0860
 5652SOL     OW17854   3.588   6.397   3.018 -0.2113 -0.2381  0.4466
 5652SOL    HW117855   3.679   6.432   2.995  1.0924 -1.4510  3.3665
 5652SOL    HW217856   3.583   6.299   2.998 -1.9346  0.3017 -2.3445
 5653SOL     OW17857   5.538   5.197   4.416  0.4007  0.2324  0.0474
 5653SOL    HW117858   5.545   5.219   4.319  2.1294  0.4520  0.1857
 5653SOL    HW217859   5.534   5.282   4.470  1.4869  0.1754  0.2549
 5654SOL     OW17860   1.957   4.960   3.963  0.2122  0.3803 -0.1340
 5654SOL    HW117861   1.952   5.005   4.052  2.6581  1.6447 -0.5405
 5654SOL    HW217862   1.960   5.030   3.891  2.2010 -0.4474 -0.9179
 5655SOL     OW17863   1.106   5.170   3.278 -0.4745 -0.2917 -0.4698
 5655SOL    HW117864   1.168   5.109   3.327 -0.3344  0.1482 -0.0844
 5655SOL    HW217865   1.088   5.134   3.186 -0.0513 -0.6820 -0.4019
 5656SOL     OW17866   6.042   2.230   3.842 -0.0199 -0.0630  0.2317
 5656SOL    HW117867   5.956   2.187   3.869 -1.1702  2.0258  0.0805
 5656SOL    HW217868   6.049   2.230   3.742 -0.3358  0.6481  0.2053
 5657SOL     OW17869   5.324   0.014   2.116  0.1408 -0.0968 -0.3305
 5657SOL    HW117870   5.363  -0.045   2.045  0.7643  0.4507 -0.4579
 5657SOL    HW217871   5.389   0.087   2.137  0.1986 -0.5447  1.1784
 5658SOL     OW17872   6.402   4.244   0.394 -0.1962  0.1041  0.2098
 5658SOL    HW117873   6.372   4.244   0.299 -2.3808  1.2265  0.8336
 5658SOL    HW217874   6.341   4.301   0.449  1.3429 -0.0339  2.2067
 5659SOL     OW17875   4.105   3.675   1.802  0.3554 -0.0480 -1.0743
 5659SOL    HW117876   4.150   3.595   1.763 -0.7171 -0.8027 -0.7960
 5659SOL    HW217877   4.120   3.677   1.901  2.1845  1.2959 -1.3151
 5660SOL     OW17878   5.379   0.918   5.248  0.2059  0.0633 -0.2236
 5660SOL    HW117879   5.281   0.908   5.266  0.2054 -1.9647 -1.0746
 5660SOL    HW217880   5.419   0.980   5.316 -2.1363  3.4315 -1.6251
 5661SOL     OW17881   4.027   5.491   1.137  0.1642  0.2917  0.0171
 5661SOL    HW117882   3.927   5.485   1.139  0.2509 -1.3137  1.6790
 5661SOL    HW217883   4.059   5.547   1.213  0.6060 -1.1163  0.8922
 5662SOL     OW17884   1.260   0.870   2.989 -0.3140 -1.0954  0.4242
 5662SOL    HW117885   1.242   0.947   3.050  1.9124 -0.3732  0.2584
 5662SOL    HW217886   1.349   0.882   2.946 -0.0745 -3.5967  0.0819
 5663SOL     OW17887   4.432   4.458   6.178  0.3953 -0.3132 -0.4750
 5663SOL    HW117888   4.493   4.381   6.160  0.6055 -0.2050 -0.2262
 5663SOL    HW217889   4.465   4.509   6.258  0.3915  0.1695 -0.7781
 5664SOL     OW17890   2.342   4.215   1.525  0.3022  0.5368  0.2587
 5664SOL    HW117891   2.297   4.129   1.552 -0.3224  0.7821  0.0320
 5664SOL    HW217892   2.354   4.273   1.605  0.0446  0.5406  0.2968
 5665SOL     OW17893   5.961   4.743   1.593 -0.5212  0.3431 -0.1435
 5665SOL    HW117894   5.943   4.841   1.586  0.7444  0.4796 -2.0795
 5665SOL    HW217895   5.881   4.692   1.560  0.5023  0.8826 -4.0002
 5666SOL     OW17896   4.912   6.349   5.461 -0.4030  0.2803 -0.7219
 5666SOL    HW117897   4.919   6.442   5.426  0.9214 -0.5815 -2.9736
 5666SOL    HW217898   4.816   6.326   5.477 -0.7752  1.8389 -0.6039
 5667SOL     OW17899   4.278   1.616   3.987  0.4019 -0.0369  0.6168
 5667SOL    HW117900   4.247   1.711   3.995  0.4627  0.3986 -2.9157
 5667SOL    HW217901   4.207   1.562   3.942  1.6593 -0.8900 -0.3844
 5668SOL     OW17902   3.069   5.482   2.287  0.1628 -0.5070 -0.5127
 5668SOL    HW117903   3.041   5.395   2.327  0.6770 -1.2207 -1.6880
 5668SOL    HW217904   3.141   5.523   2.343 -2.2653  0.8034  1.9094
 5669SOL     OW17905   1.522   1.999   5.897  0.0595 -0.0369  0.0774
 5669SOL    HW117906   1.578   1.965   5.821  0.6438 -0.1572  0.5598
 5669SOL    HW217907   1.575   2.064   5.951  0.2987 -1.3598  1.4864
 5670SOL     OW17908   0.738   5.800   2.934  0.9154 -0.3470 -0.0385
 5670SOL    HW117909   0.644   5.797   2.899  0.7116  0.2542  0.4408
 5670SOL    HW217910   0.739   5.847   3.022  1.6826 -0.2643 -0.0899
 5671SOL     OW17911   4.258   1.811   1.379 -0.1666 -0.2980  0.1635
 5671SOL    HW117912   4.245   1.747   1.455  0.0406  1.6878  1.9567
 5671SOL    HW217913   4.169   1.844   1.349 -0.2157 -0.6756 -0.1198
 5672SOL     OW17914   5.474   1.609   1.565 -0.8746 -0.3169 -0.6561
 5672SOL    HW117915   5.378   1.612   1.594 -1.4207  2.9994 -2.3069
 5672SOL    HW217916   5.532   1.646   1.638 -1.1418 -0.2639 -0.4706
 5673SOL     OW17917   4.870   5.520   0.734 -0.2886 -0.0220 -0.0745
 5673SOL    HW117918   4.942   5.491   0.797  0.9584  0.0471 -1.4160
 5673SOL    HW217919   4.896   5.496   0.640 -1.9569  0.1508 -0.6130
 5674SOL     OW17920   3.621   5.206   5.433 -0.0822 -0.2777  0.4765
 5674SOL    HW117921   3.590   5.194   5.339 -0.2744  0.0345  0.4999
 5674SOL    HW217922   3.566   5.147   5.493 -1.7842  1.4823  0.7304
 5675SOL     OW17923   4.639   4.535   3.624 -0.3824  0.4066 -0.0225
 5675SOL    HW117924   4.737   4.521   3.610 -0.1897  0.0896  1.5144
 5675SOL    HW217925   4.614   4.510   3.717 -1.6101  2.1480  0.1829
 5676SOL     OW17926   4.618   6.911   2.238  1.0069 -0.0209 -0.4743
 5676SOL    HW117927   4.529   6.875   2.211  1.0235  0.3678 -1.0714
 5676SOL    HW217928   4.683   6.899   2.164  1.4085 -0.1443 -0.1057
 5677SOL     OW17929   5.166   1.872   6.829  0.1703 -0.4454  0.2026
 5677SOL    HW117930   5.233   1.868   6.754  0.7149 -1.8349  0.7476
 5677SOL    HW217931   5.195   1.813   6.904 -0.7616  0.3357  1.2190
 5678SOL     OW17932   4.483   1.894   0.731 -0.5570  0.4531  0.0530
 5678SOL    HW117933   4.474   1.975   0.673 -0.0606  0.6333  0.2196
 5678SOL    HW217934   4.558   1.908   0.795 -1.3159  0.3927  0.9689
 5679SOL     OW17935   6.493   6.219   6.469  0.3553 -0.2629 -0.4261
 5679SOL    HW117936   6.519   6.315   6.470 -0.1892 -0.1177  0.0297
 5679SOL    HW217937   6.399   6.210   6.436  0.4912 -0.6675 -0.7253
 5680SOL     OW17938   0.336   4.740   1.366  0.2490  0.6303 -0.1367
 5680SOL    HW117939   0.258   4.680   1.383 -0.3630  1.6762  0.8471
 5680SOL    HW217940   0.371   4.722   1.274  0.8117 -2.0197  0.4879
 5681SOL     OW17941   1.865   2.190   3.258  0.0071  0.4290 -0.1006
 5681SOL    HW117942   1.902   2.280   3.279  0.1114  0.3707 -0.0313
 5681SOL    HW217943   1.872   2.173   3.160 -0.8689  0.8729 -0.2451
 5682SOL     OW17944   0.295   1.899   2.693 -0.3967 -0.1701 -0.4923
 5682SOL    HW117945   0.338   1.811   2.714 -0.9117  0.0031  1.5228
 5682SOL    HW217946   0.309   1.921   2.597  1.6170 -1.4139 -0.5391
 5683SOL     OW17947   5.638   2.788   0.464  0.0738 -0.7392 -0.2465
 5683SOL    HW117948   5.734   2.787   0.439  0.3254 -0.1853  0.6436
 5683SOL    HW217949   5.593   2.705   0.429  0.9383 -1.1513 -0.4025
 5684SOL     OW17950   5.796   6.776   1.811  0.0819  0.5599 -0.5754
 5684SOL    HW117951   5.887   6.817   1.816  1.3530 -2.1629  0.6384
 5684SOL    HW217952   5.771   6.736   1.899 -1.7909  0.1748 -1.2127
 5685SOL     OW17953   5.837   3.923   2.582 -0.4060  0.0977  0.3016
 5685SOL    HW117954   5.813   4.008   2.535 -0.1496  0.9393  1.6435
 5685SOL    HW217955   5.905   3.873   2.528 -1.0349  0.4088 -0.8114
 5686SOL     OW17956   4.967   6.011   2.557  0.1766 -0.0847 -0.4200
 5686SOL    HW117957   4.941   5.925   2.513 -1.3702  0.9910 -1.7244
 5686SOL    HW217958   5.023   5.992   2.637 -0.4799 -2.3272 -0.4305
 5687SOL     OW17959   1.645   3.178   6.529  0.6319 -0.0441 -0.0268
 5687SOL    HW117960   1.682   3.095   6.486  1.8364  0.3992  0.1086
 5687SOL    HW217961   1.614   3.156   6.621 -1.0281 -0.7830 -0.7191
 5688SOL     OW17962   1.864   1.902   1.482  0.0956  0.0752  0.0099
 5688SOL    HW117963   1.927   1.873   1.555  1.4325 -0.4703 -1.3074
 5688SOL    HW217964   1.881   1.847   1.400 -0.9299  1.1088 -0.9216
 5689SOL     OW17965   1.574   0.138   0.381  0.4247  0.0090  0.1792
 5689SOL    HW117966   1.660   0.161   0.427  1.5665  2.4179 -2.7926
 5689SOL    HW217967   1.574   0.041   0.357  2.2974 -0.0655  0.3207
 5690SOL     OW17968   1.772   6.745   4.755 -0.1731 -0.4296  0.0288
 5690SOL    HW117969   1.718   6.673   4.711  0.2775 -0.5782 -0.2888
 5690SOL    HW217970   1.867   6.715   4.762  0.1733  0.4297 -0.7794
 5691SOL     OW17971   4.065   4.276   5.602  0.3328 -0.5100  0.1984
 5691SOL    HW117972   4.056   4.290   5.503  0.3973 -0.8840  0.1359
 5691SOL    HW217973   4.099   4.183   5.619  0.7260 -0.3015  0.5583
 5692SOL     OW17974   0.447   5.722   2.908  0.1312  0.1768  0.0355
 5692SOL    HW117975   0.449   5.631   2.950 -0.2670  0.7311  1.3170
 5692SOL    HW217976   0.391   5.783   2.964  0.1910  1.1513 -0.9361
 5693SOL     OW17977   5.159   3.562   3.700  0.0485 -0.0324 -0.3809
 5693SOL    HW117978   5.234   3.497   3.697 -0.5695 -0.7391 -0.9254
 5693SOL    HW217979   5.188   3.648   3.659  0.0433 -0.8663 -2.2249
 5694SOL     OW17980   5.027   0.493   6.228 -0.7495  0.1206  0.5572
 5694SOL    HW117981   4.958   0.564   6.240 -1.1434  0.6824 -3.5965
 5694SOL    HW217982   5.118   0.534   6.232 -0.8460  0.2636  1.3345
 5695SOL     OW17983   2.830   6.098   3.754 -0.3189  0.0790  0.0305
 5695SOL    HW117984   2.927   6.095   3.732 -0.3433  0.9713 -0.2312
 5695SOL    HW217985   2.787   6.012   3.728  0.3491 -0.2220 -0.0878
 5696SOL     OW17986   2.901   6.825   1.683 -0.5783 -0.0979 -0.0230
 5696SOL    HW117987   2.934   6.799   1.774  1.3860 -0.4278 -0.7703
 5696SOL    HW217988   2.949   6.771   1.613 -2.0940  0.0894 -1.2724
 5697SOL     OW17989   4.302   2.310   2.465 -0.0845  0.1225 -0.3074
 5697SOL    HW117990   4.236   2.274   2.399  0.9860 -1.7609 -0.4238
 5697SOL    HW217991   4.394   2.285   2.436  0.3608 -2.5109  2.7957
 5698SOL     OW17992   0.824   5.120   5.031 -0.4962 -0.3191 -0.5013
 5698SOL    HW117993   0.782   5.063   5.101 -2.2649  2.4904  0.9070
 5698SOL    HW217994   0.753   5.158   4.971  0.1413  2.5237  0.3576
 5699SOL     OW17995   4.832   4.597   1.647 -0.5514 -0.2511  0.9072
 5699SOL    HW117996   4.892   4.643   1.713 -0.8457  1.2642  0.1631
 5699SOL    HW217997   4.766   4.541   1.696  0.6019 -0.8878  1.7956
 5700SOL     OW17998   4.251   5.546   2.630 -0.1470 -0.2801  0.2489
 5700SOL    HW117999   4.195   5.482   2.682 -2.3329 -1.1439 -2.8742
 5700SOL    HW218000   4.214   5.555   2.538  2.1948  2.8231 -0.5483
 5701SOL     OW18001   1.952   1.715   6.498 -0.4357 -0.1448 -0.2155
 5701SOL    HW118002   1.896   1.743   6.576  0.3166 -1.5995  0.9168
 5701SOL    HW218003   1.896   1.663   6.434 -0.4631 -1.5380  0.8762
 5702SOL     OW18004   2.483   1.804   0.226  0.0323  0.5020  0.1274
 5702SOL    HW118005   2.453   1.765   0.313 -0.5599 -0.3084 -0.4257
 5702SOL    HW218006   2.574   1.845   0.237  0.9877 -1.6363  0.5786
 5703SOL     OW18007   3.837   4.934   4.645 -0.1637 -0.3001  0.3042
 5703SOL    HW118008   3.842   4.924   4.546  0.9101  4.3355 -0.3298
 5703SOL    HW218009   3.744   4.961   4.671  0.0235  0.3450  0.3050
 5704SOL     OW18010   0.234   4.855   1.840 -0.1363 -0.0663 -0.1384
 5704SOL    HW118011   0.139   4.867   1.869 -0.5569  1.2503 -1.8823
 5704SOL    HW218012   0.264   4.762   1.863 -1.7112 -0.3998  0.7548
 5705SOL     OW18013   3.910   5.368   6.417 -0.4317  0.5570  0.5673
 5705SOL    HW118014   3.845   5.440   6.440 -1.0064 -0.0264  0.8197
 5705SOL    HW218015   3.860   5.284   6.394  0.1348  0.8044 -1.8032
 5706SOL     OW18016   3.063   0.325   4.374 -0.6357 -0.4267  0.3200
 5706SOL    HW118017   3.136   0.257   4.382 -2.5449 -2.4338  2.0858
 5706SOL    HW218018   2.983   0.282   4.333 -0.9004  1.7451 -1.6392
 5707SOL     OW18019   2.935   3.544   0.225  0.1347 -0.3132  0.0915
 5707SOL    HW118020   2.995   3.624   0.225 -0.9446  0.5066 -0.0548
 5707SOL    HW218021   2.847   3.568   0.185 -1.3130 -0.7478  2.8239
 5708SOL     OW18022   2.215   2.687   1.092 -0.3046  0.5304 -0.0633
 5708SOL    HW118023   2.143   2.621   1.068  0.2400 -0.2087  0.3224
 5708SOL    HW218024   2.256   2.662   1.179  1.1264  0.3519 -0.7672
 5709SOL     OW18025   0.982   1.163   3.418  0.6772  0.1953  0.0989
 5709SOL    HW118026   0.912   1.211   3.470  1.2068  0.7200  0.3370
 5709SOL    HW218027   1.072   1.180   3.458  1.6654  3.6944 -2.9898
 5710SOL     OW18028   5.817   2.591   1.094 -0.2108  0.3402 -0.2834
 5710SOL    HW118029   5.726   2.549   1.096 -0.5690  1.1265  0.2984
 5710SOL    HW218030   5.811   2.679   1.047  0.2250  0.4630 -0.1077
 5711SOL     OW18031   4.531   7.005   2.902 -0.0713 -0.3851 -0.0479
 5711SOL    HW118032   4.595   6.928   2.894  1.2267  0.7659 -1.1557
 5711SOL    HW218033   4.479   7.014   2.817  0.8067  0.8144 -0.4784
 5712SOL     OW18034   2.989   5.404   5.745 -0.4084  0.3122  0.0455
 5712SOL    HW118035   3.022   5.320   5.788 -1.7735 -1.2182 -1.7181
 5712SOL    HW218036   3.046   5.425   5.666  0.6991  1.8034  1.2081
 5713SOL     OW18037   0.781   2.270   6.706  1.0018 -0.0792 -0.5652
 5713SOL    HW118038   0.847   2.196   6.696 -0.5724 -1.7864  0.9183
 5713SOL    HW218039   0.822   2.345   6.757  1.5318 -1.5613  1.3156
 5714SOL     OW18040   5.332   2.654   5.329 -0.0391  0.1069 -0.3508
 5714SOL    HW118041   5.296   2.574   5.281  0.7801 -0.2799 -0.3427
 5714SOL    HW218042   5.267   2.730   5.323 -0.9230 -0.6227 -0.1802
 5715SOL     OW18043   4.204   6.829   0.682 -0.1177  0.0852  0.1159
 5715SOL    HW118044   4.295   6.822   0.641  0.0499  0.8966  0.3198
 5715SOL    HW218045   4.211   6.825   0.781 -0.3338 -0.0962  0.1260
 5716SOL     OW18046   0.245   6.279   0.618  0.2612  0.2302 -0.4496
 5716SOL    HW118047   0.289   6.353   0.566 -0.6456 -1.2023 -3.4569
 5716SOL    HW218048   0.148   6.275   0.595  0.0179 -1.0706  0.6870
 5717SOL     OW18049   2.241   6.894   6.655  0.1260  0.4754 -0.0693
 5717SOL    HW118050   2.324   6.950   6.654 -0.4240  1.4000 -2.6638
 5717SOL    HW218051   2.238   6.837   6.573 -1.7854  0.4577 -0.0281
 5718SOL     OW18052   6.990   0.255   3.798 -0.4984 -0.1574  0.2639
 5718SOL    HW118053   6.957   0.319   3.867  0.7521 -0.6689  1.3839
 5718SOL    HW218054   7.018   0.170   3.843  1.6121 -0.0264 -0.6723
 5719SOL     OW18055   3.404   5.922   0.835 -0.0655  0.1302 -0.6627
 5719SOL    HW118056   3.469   5.847   0.840  0.9609  1.0621  1.3242
 5719SOL    HW218057   3.441   5.996   0.779  2.0958  1.8634  2.7052
 5720SOL     OW18058   4.021   0.035   1.403 -0.0221  0.2446  0.4033
 5720SOL    HW118059   3.964   0.116   1.413 -0.0593  0.1499  0.9629
 5720SOL    HW218060   3.964  -0.047   1.401  0.1467 -0.0045  2.6774
 5721SOL     OW18061   1.133   6.037   2.437 -0.2745 -0.3221 -0.2169
 5721SOL    HW118062   1.172   6.126   2.459 -0.0434 -0.7502  1.2260
 5721SOL    HW218063   1.205   5.968   2.437 -0.3239 -0.4140 -2.0801
 5722SOL     OW18064   1.086   4.726   4.860 -0.8080 -0.5649 -0.9383
 5722SOL    HW118065   1.166   4.786   4.857  0.3038 -1.7716  1.4091
 5722SOL    HW218066   1.021   4.762   4.928 -1.2446 -0.7488 -1.2586
 5723SOL     OW18067   1.267   6.325   0.171  0.4545  0.1162  0.1683
 5723SOL    HW118068   1.323   6.324   0.255  2.9671  0.7115 -1.3922
 5723SOL    HW218069   1.191   6.389   0.183  1.8442  1.6494  1.3617
 5724SOL     OW18070   2.443   0.815   5.601 -0.0794  0.0545  0.8785
 5724SOL    HW118071   2.535   0.785   5.626 -0.1223 -0.4838  0.4104
 5724SOL    HW218072   2.449   0.878   5.524 -0.2332 -1.8668 -0.7897
 5725SOL     OW18073   5.058   0.989   4.656 -0.2430  0.4446  0.9114
 5725SOL    HW118074   5.018   1.079   4.637 -1.5518  0.3597  3.0371
 5725SOL    HW218075   5.108   0.992   4.742 -2.2254 -1.3997  2.1968
 5726SOL     OW18076   5.595   3.837   2.673 -0.3064 -0.3959  0.7030
 5726SOL    HW118077   5.548   3.913   2.718  0.0834 -0.9098  2.0548
 5726SOL    HW218078   5.677   3.870   2.627 -1.5289  0.3845 -0.9985
 5727SOL     OW18079   4.944   6.804   3.930 -0.1162 -0.6390 -0.0459
 5727SOL    HW118080   5.043   6.819   3.929 -0.3125  0.7964 -0.6511
 5727SOL    HW218081   4.918   6.766   4.019  0.7429  0.9204  0.9273
 5728SOL     OW18082   0.741   1.261   3.564 -0.1786 -0.0508  0.6563
 5728SOL    HW118083   0.675   1.188   3.546 -1.9852  1.3674  1.2458
 5728SOL    HW218084   0.728   1.296   3.657 -0.6366  2.2302 -0.2025
 5729SOL     OW18085   3.364   6.103   6.572 -0.2595 -0.1040 -0.3720
 5729SOL    HW118086   3.304   6.074   6.497  0.0454 -0.3133 -0.5332
 5729SOL    HW218087   3.320   6.179   6.621  0.2201  1.0827 -1.6975
 5730SOL     OW18088   5.634   1.476   2.660 -0.3699  0.3741 -0.2100
 5730SOL    HW118089   5.552   1.430   2.693 -0.0414  0.7708  1.2059
 5730SOL    HW218090   5.616   1.574   2.650 -0.1314  0.4284 -0.1099
 5731SOL     OW18091   0.372   3.663   1.028  0.2170 -0.2348 -0.4027
 5731SOL    HW118092   0.385   3.750   1.076 -2.1428 -1.3784  2.6901
 5731SOL    HW218093   0.461   3.617   1.019  1.5543  2.4839 -2.3739
 5732SOL     OW18094   4.264   5.626   1.395  0.6279  0.2683 -0.4848
 5732SOL    HW118095   4.187   5.563   1.406  0.8094  0.0639 -0.3758
 5732SOL    HW218096   4.233   5.710   1.350  0.3173  0.2357 -0.3272
 5733SOL     OW18097   0.535   0.070   3.513  0.0083  0.8200 -0.5952
 5733SOL    HW118098   0.599   0.147   3.506 -0.0656  1.1850  1.9253
 5733SOL    HW218099   0.587  -0.014   3.529 -0.0763  0.9785  0.5637
 5734SOL     OW18100   0.096   5.827   4.932  0.1782 -0.2017 -0.1469
 5734SOL    HW118101   0.103   5.907   4.991  0.7366 -0.7190  0.5050
 5734SOL    HW218102   0.183   5.812   4.885 -0.1144 -0.0761 -0.7509
 5735SOL     OW18103   5.906   4.431   1.992  0.2016 -0.3590 -0.1478
 5735SOL    HW118104   5.828   4.424   1.929 -1.2163  0.3240  1.4737
 5735SOL    HW218105   5.990   4.442   1.939 -0.2739 -4.3340 -2.1368
 5736SOL     OW18106   6.927   1.732   0.928 -0.5638  0.4119  0.4749
 5736SOL    HW118107   6.943   1.801   0.999  1.0129 -0.4859  1.0337
 5736SOL    HW218108   6.983   1.652   0.946  0.5072  0.4537 -2.2196
 5737SOL     OW18109   1.435   2.543   1.041 -0.0794 -0.2220 -0.2624
 5737SOL    HW118110   1.531   2.547   1.016  0.0610 -0.8693  0.1549
 5737SOL    HW218111   1.380   2.591   0.972  0.5872  0.6509 -0.2045
 5738SOL     OW18112   1.380   6.416   3.647  0.3380 -0.2956  0.0576
 5738SOL    HW118113   1.437   6.347   3.605  0.5985 -0.3913  0.5554
 5738SOL    HW218114   1.418   6.507   3.628  0.2757 -0.3191 -0.1776
 5739SOL     OW18115   0.652   6.994   5.548  0.5416  0.3563 -0.1333
 5739SOL    HW118116   0.671   7.084   5.586  2.6370  0.0704 -0.3644
 5739SOL    HW218117   0.614   7.003   5.456  0.1066  1.0011  0.1092
 5740SOL     OW18118   0.047   2.447   6.567  0.0040 -0.1244 -0.1094
 5740SOL    HW118119   0.094   2.376   6.514  2.0274  1.9277 -1.2535
 5740SOL    HW218120   0.035   2.528   6.510 -0.7996  1.0169  1.6101
 5741SOL     OW18121   2.196   3.944   4.191  0.4409  0.0472 -0.2951
 5741SOL    HW118122   2.145   3.890   4.258  1.4773 -3.1526 -1.8847
 5741SOL    HW218123   2.267   3.996   4.239 -1.1014  0.7151  1.4012
 5742SOL     OW18124   6.329   2.605   2.193  0.1406 -0.1552  0.2066
 5742SOL    HW118125   6.234   2.595   2.164  0.3599  0.1636 -0.6491
 5742SOL    HW218126   6.332   2.655   2.280 -0.4614  0.1118  0.0816
 5743SOL     OW18127   7.010   6.385   5.453 -0.1988  0.4008 -0.2189
 5743SOL    HW118128   7.049   6.412   5.365 -2.1639 -0.1710 -1.3403
 5743SOL    HW218129   7.075   6.405   5.526  0.9318  2.2027 -1.6306
 5744SOL     OW18130   3.485   4.603   6.691  0.5143 -0.1635 -0.0386
 5744SOL    HW118131   3.520   4.672   6.627 -0.6980  0.0906 -0.4576
 5744SOL    HW218132   3.395   4.632   6.724  0.3102 -1.2071  0.3362
 5745SOL     OW18133   4.650   2.719   2.734 -0.7406 -0.0562 -0.4706
 5745SOL    HW118134   4.703   2.709   2.649  1.3026 -0.0575  0.7217
 5745SOL    HW218135   4.592   2.639   2.747 -0.1161 -0.6487 -1.2440
 5746SOL     OW18136   6.032   0.000   2.753 -0.3798  0.3648  0.2971
 5746SOL    HW118137   5.948   0.040   2.789 -1.1844 -0.5378 -0.5465
 5746SOL    HW218138   6.026  -0.099   2.754 -1.3331  0.1779 -4.1018
 5747SOL     OW18139   2.752   5.400   1.874 -0.1457 -0.1399 -0.3349
 5747SOL    HW118140   2.704   5.356   1.950  0.2019 -0.3898 -0.2590
 5747SOL    HW218141   2.850   5.398   1.891 -0.0920  0.1775 -0.5944
 5748SOL     OW18142   4.990   4.795   0.683  0.2700  0.8094  0.2359
 5748SOL    HW118143   4.947   4.712   0.718  2.0694 -0.7259 -1.0061
 5748SOL    HW218144   5.049   4.834   0.754 -1.3289  1.6447  1.1630
 5749SOL     OW18145   6.506   2.061   0.256 -0.0454  0.3926  0.0416
 5749SOL    HW118146   6.555   2.117   0.323 -0.8822  0.6044  0.4934
 5749SOL    HW218147   6.408   2.076   0.266 -0.2445 -0.5596 -0.3671
 5750SOL     OW18148   3.788   2.038   5.416 -0.0252  0.7537  0.1876
 5750SOL    HW118149   3.694   2.065   5.395  0.3386  0.7737 -1.5907
 5750SOL    HW218150   3.804   2.048   5.514 -2.8269 -2.2022  1.1544
 5751SOL     OW18151   6.848   1.207   3.452 -0.3302 -0.0782 -0.1515
 5751SOL    HW118152   6.946   1.191   3.456 -0.4268 -0.6074  0.1590
 5751SOL    HW218153   6.827   1.267   3.374  0.3356  0.8124  0.3310
 5752SOL     OW18154   3.681   5.082   6.488  0.4635  0.4308 -0.2671
 5752SOL    HW118155   3.740   5.044   6.416  1.1162 -2.0374  1.4306
 5752SOL    HW218156   3.724   5.066   6.577 -0.8865  2.3249  0.7738
 5753SOL     OW18157   6.969   4.803   4.291 -0.9662 -0.1773  0.0120
 5753SOL    HW118158   7.042   4.752   4.245  0.0512 -0.6901  2.0726
 5753SOL    HW218159   6.882   4.755   4.280 -0.4893 -1.0043 -0.2319
 5754SOL     OW18160   1.422   4.447   6.590  0.3000 -0.2659 -0.9521
 5754SOL    HW118161   1.410   4.544   6.608 -2.6370 -1.0441  2.5779
 5754SOL    HW218162   1.424   4.431   6.491  0.3544  3.2710 -1.6432
 5755SOL     OW18163   1.715   4.705   2.773  1.3021  0.1959  0.0343
 5755SOL    HW118164   1.768   4.787   2.751  1.1720  0.1837 -0.3247
 5755SOL    HW218165   1.624   4.731   2.804  0.5288  0.1406 -2.0525
 5756SOL     OW18166   5.600   5.573   6.060 -0.6465  0.5414  0.7693
 5756SOL    HW118167   5.664   5.606   6.130  1.4918  0.8799 -1.1991
 5756SOL    HW218168   5.562   5.651   6.010 -1.3287  0.2709  0.8545
 5757SOL     OW18169   1.504   6.191   5.160 -0.5538  0.7028 -0.7745
 5757SOL    HW118170   1.514   6.283   5.200 -0.5363 -0.0216  0.9900
 5757SOL    HW218171   1.595   6.151   5.147 -0.5957  0.4367 -0.2778
 5758SOL     OW18172   1.565   4.220   3.063  0.1963  0.0543  0.5998
 5758SOL    HW118173   1.466   4.226   3.048 -0.1688 -2.3400  1.5983
 5758SOL    HW218174   1.586   4.247   3.157  0.5452  0.7540  0.3295
 5759SOL     OW18175   4.345   4.817   0.867  0.0512 -0.2745  0.0726
 5759SOL    HW118176   4.406   4.852   0.796  0.2148  0.3785  0.5183
 5759SOL    HW218177   4.355   4.718   0.873 -1.7320 -0.6892 -2.4307
 5760SOL     OW18178   1.869   1.244   1.393  0.4453 -0.1423  0.5545
 5760SOL    HW118179   1.948   1.186   1.373 -0.8979 -1.5089 -1.1589
 5760SOL    HW218180   1.788   1.187   1.407 -0.5883  1.2640  0.5685
 5761SOL     OW18181   3.276   3.633   5.857  0.7257 -0.1369 -0.1016
 5761SOL    HW118182   3.268   3.562   5.787  1.7591  0.4203 -0.8091
 5761SOL    HW218183   3.372   3.645   5.882  0.8740  2.4232 -1.5413
 5762SOL     OW18184   6.525   6.239   4.672  0.3724 -0.5579 -0.0883
 5762SOL    HW118185   6.621   6.223   4.695  0.8103 -1.3397 -2.2123
 5762SOL    HW218186   6.516   6.328   4.627  0.0068 -0.2775  0.5261
 5763SOL     OW18187   6.788   1.416   4.550 -0.3315  0.1329 -0.1023
 5763SOL    HW118188   6.706   1.417   4.607 -0.4846 -0.0366 -0.3193
 5763SOL    HW218189   6.764   1.388   4.457 -0.2744  1.5744 -0.5685
 5764SOL     OW18190   1.614   3.781   0.282 -0.0500 -0.3964  0.0556
 5764SOL    HW118191   1.571   3.835   0.208 -0.2703 -1.4673 -0.6139
 5764SOL    HW218192   1.576   3.689   0.282  1.8035 -1.1967 -0.1448
 5765SOL     OW18193   1.015   6.677   4.907  0.1603 -0.6290  0.0456
 5765SOL    HW118194   1.070   6.597   4.931 -0.5979 -1.5199 -1.0796
 5765SOL    HW218195   1.007   6.684   4.807  2.5151  2.4668 -0.0801
 5766SOL     OW18196   5.333   4.580   3.706 -0.5756 -0.2268 -0.1676
 5766SOL    HW118197   5.394   4.563   3.628 -1.7301 -2.0220 -0.7243
 5766SOL    HW218198   5.332   4.499   3.766  0.7837  1.3216  2.1373
 5767SOL     OW18199   2.974   3.156   3.457 -0.2342 -0.2384 -0.1969
 5767SOL    HW118200   2.972   3.179   3.554  0.7784  0.2691 -0.2770
 5767SOL    HW218201   2.987   3.239   3.403  1.2223 -0.7114 -0.6349
 5768SOL     OW18202   1.688   2.094   2.977  0.4083  0.1800  0.0443
 5768SOL    HW118203   1.680   2.072   2.879  1.3832  0.6464 -0.1528
 5768SOL    HW218204   1.621   2.041   3.028  1.1246 -1.4912 -0.6709
 5769SOL     OW18205   5.835   4.858   4.014 -0.4464  0.1904  0.2252
 5769SOL    HW118206   5.746   4.835   4.052 -0.2819 -0.1276  0.4144
 5769SOL    HW218207   5.895   4.778   4.016  0.4222  0.8449  1.7300
 5770SOL     OW18208   1.950   3.995   0.780 -0.2645  0.3350  0.3320
 5770SOL    HW118209   2.011   3.917   0.795 -0.7121 -0.0757  0.0490
 5770SOL    HW218210   1.965   4.064   0.851 -1.1776 -0.8278  1.7015
 5771SOL     OW18211   5.595   2.931   4.729  0.1203  0.0090  0.1300
 5771SOL    HW118212   5.503   2.935   4.690 -0.0095 -0.0102  0.4253
 5771SOL    HW218213   5.598   2.984   4.814  0.4365  0.1745  0.0177
 5772SOL     OW18214   6.708   1.481   3.058  0.0296  0.4436 -0.6706
 5772SOL    HW118215   6.740   1.478   2.963  0.8338 -2.0327 -0.3991
 5772SOL    HW218216   6.622   1.431   3.065  0.7403 -0.7244  0.1192
 5773SOL     OW18217   5.405   6.299   3.935  0.0325 -0.3808  0.0521
 5773SOL    HW118218   5.425   6.213   3.888  1.1576 -0.6851  1.0507
 5773SOL    HW218219   5.482   6.362   3.926 -0.3078  0.0880  0.3188
 5774SOL     OW18220   1.921   6.296   2.476 -0.0302  0.5649 -0.2891
 5774SOL    HW118221   1.887   6.246   2.556  0.7656 -0.4160 -0.5415
 5774SOL    HW218222   1.872   6.264   2.395  1.5428 -0.9880 -0.6819
 5775SOL     OW18223   0.957   1.878   2.270 -0.5608 -0.0412  0.0690
 5775SOL    HW118224   0.930   1.814   2.198 -0.5990  1.4221 -1.2742
 5775SOL    HW218225   1.046   1.918   2.248  0.1927 -0.7356  1.6757
 5776SOL     OW18226   2.639   2.250   1.636 -0.3370  0.3916 -0.6743
 5776SOL    HW118227   2.711   2.212   1.693 -1.3806  0.8115  0.9778
 5776SOL    HW218228   2.569   2.181   1.620 -2.0582  1.3442  2.0350
 5777SOL     OW18229   2.846   4.461   6.016  0.5204  0.7688  0.2509
 5777SOL    HW118230   2.839   4.552   5.977  0.3671  0.7629  0.2629
 5777SOL    HW218231   2.938   4.425   6.001  0.6211  0.9780  0.3653
 5778SOL     OW18232   6.282   1.858   1.507  0.4804  0.7113  0.2855
 5778SOL    HW118233   6.338   1.781   1.539 -1.3455 -0.7935 -0.0153
 5778SOL    HW218234   6.275   1.855   1.408 -1.6434 -0.2625  0.4246
 5779SOL     OW18235   4.781   3.509   0.449 -0.3267 -0.3426 -0.7195
 5779SOL    HW118236   4.793   3.449   0.370  0.1388 -0.9402 -0.2104
 5779SOL    HW218237   4.732   3.460   0.521 -0.8748  0.2423 -0.6800
 5780SOL     OW18238   6.074   3.695   6.879  0.3619 -0.7152  0.5125
 5780SOL    HW118239   6.036   3.705   6.971 -0.0331  1.6797  0.1518
 5780SOL    HW218240   6.122   3.779   6.854  1.4425 -1.7644 -1.0459
 5781SOL     OW18241   2.470   6.890   4.911 -0.0657  0.2338 -0.4057
 5781SOL    HW118242   2.553   6.904   4.859 -0.8376  1.1791 -1.4094
 5781SOL    HW218243   2.491   6.891   5.009  0.9552  1.4600 -0.6199
 5782SOL     OW18244   5.282   2.600   6.458 -0.3963 -0.0483  0.0803
 5782SOL    HW118245   5.224   2.596   6.540  0.8843 -1.0385  0.9782
 5782SOL    HW218246   5.258   2.524   6.397 -1.3019  0.6481 -0.4610
 5783SOL     OW18247   1.483   4.536   4.191  0.4323 -0.2233 -0.2194
 5783SOL    HW118248   1.575   4.575   4.194  0.0235  0.7941 -0.5580
 5783SOL    HW218249   1.419   4.603   4.153 -0.6771 -0.4789  1.1097
 5784SOL     OW18250   4.013   0.533   6.645 -0.1247 -0.3373 -0.5168
 5784SOL    HW118251   4.006   0.631   6.661 -1.0928 -0.5454  0.4421
 5784SOL    HW218252   4.109   0.508   6.630  0.4501  0.4575  1.4513
 5785SOL     OW18253   2.614   1.447   0.884 -0.1456  0.1110 -0.4758
 5785SOL    HW118254   2.654   1.483   0.799 -0.6899  1.6285 -0.1244
 5785SOL    HW218255   2.664   1.365   0.912  1.2449  0.6493 -1.2705
 5786SOL     OW18256   5.219   1.048   3.308 -0.3779  0.4389  0.0037
 5786SOL    HW118257   5.270   1.003   3.234 -1.5046 -0.5018 -0.2237
 5786SOL    HW218258   5.254   1.016   3.396  0.2716  0.7730 -0.1268
 5787SOL     OW18259   6.796   0.806   0.800 -0.6824 -0.1779 -0.1440
 5787SOL    HW118260   6.869   0.803   0.869 -0.2653 -0.4293 -0.5909
 5787SOL    HW218261   6.707   0.800   0.845 -0.4788  1.2744  0.5155
 5788SOL     OW18262   5.961   1.774   2.792  0.1262  0.1442  0.5491
 5788SOL    HW118263   6.037   1.807   2.737  0.9798 -2.6054 -0.0496
 5788SOL    HW218264   5.879   1.766   2.735  0.2164  0.1497  0.4183
 5789SOL     OW18265   6.851   1.933   6.981  0.1670 -0.5002 -0.2124
 5789SOL    HW118266   6.814   1.930   7.073  0.6059  0.4480  0.0046
 5789SOL    HW218267   6.776   1.928   6.915 -0.3871  1.4503  0.2229
 5790SOL     OW18268   0.139   2.028   1.822 -0.3664  0.4613 -0.2371
 5790SOL    HW118269   0.234   2.026   1.791  0.5472 -0.2953  2.3871
 5790SOL    HW218270   0.098   2.116   1.797  1.1877  1.0233 -0.9329
 5791SOL     OW18271   6.769   1.238   5.560 -0.1253  0.0571  0.0235
 5791SOL    HW118272   6.845   1.301   5.556  0.5564 -0.7716 -0.3608
 5791SOL    HW218273   6.803   1.144   5.559 -1.1593 -0.3294 -0.3531
 5792SOL     OW18274   1.625   5.834   3.353 -0.3757  0.6741  0.0219
 5792SOL    HW118275   1.595   5.770   3.424  0.1046 -0.2715 -0.6006
 5792SOL    HW218276   1.718   5.866   3.374  1.1684 -2.2020 -1.7935
 5793SOL     OW18277   4.263   4.733   3.782  0.0566  0.0892  0.4172
 5793SOL    HW118278   4.225   4.692   3.865 -0.2635  1.0178  0.7429
 5793SOL    HW218279   4.272   4.663   3.711 -0.8974 -0.4465  0.8080
 5794SOL     OW18280   2.020   4.408   0.850 -0.3718 -0.1239 -0.0298
 5794SOL    HW118281   2.085   4.438   0.780 -0.7392 -0.4343 -0.5040
 5794SOL    HW218282   2.040   4.313   0.875 -0.2210 -0.0036  0.3114
 5795SOL     OW18283   5.490   6.428   5.119  0.6810 -0.0376 -0.3328
 5795SOL    HW118284   5.421   6.426   5.046  0.6346 -3.1996 -0.3361
 5795SOL    HW218285   5.488   6.517   5.164 -2.6017  0.3849 -1.0620
 5796SOL     OW18286   1.013   0.478   5.183 -0.0608  0.1636  0.4333
 5796SOL    HW118287   1.001   0.566   5.228 -1.6638  0.3659 -0.3074
 5796SOL    HW218288   0.951   0.473   5.104  0.4818 -1.3723  0.0772
 5797SOL     OW18289   4.641   0.877   5.984  0.5010 -0.0261  0.3701
 5797SOL    HW118290   4.635   0.862   5.885 -0.3088  1.0347  0.2439
 5797SOL    HW218291   4.556   0.846   6.027  0.4541  0.4261  0.6046
 5798SOL     OW18292   3.674   2.164   6.130 -0.1421  0.6046 -0.3029
 5798SOL    HW118293   3.607   2.094   6.104  0.7944 -0.2790 -0.3960
 5798SOL    HW218294   3.654   2.248   6.079 -0.7798  0.1559 -0.8323
 5799SOL     OW18295   3.593   4.219   5.225  0.5258  0.0937  0.5820
 5799SOL    HW118296   3.537   4.286   5.274  1.5067  1.8932 -0.6205
 5799SOL    HW218297   3.593   4.133   5.275 -1.7367  0.5932  1.6001
 5800SOL     OW18298   5.896   6.166   0.083 -0.4521 -0.2119  0.0465
 5800SOL    HW118299   5.866   6.102   0.154  0.4683 -0.8424 -0.1247
 5800SOL    HW218300   5.889   6.259   0.119  1.5133 -0.5843  1.5959
 5801SOL     OW18301   5.404   6.593   1.756 -0.2816  0.1857  0.5312
 5801SOL    HW118302   5.489   6.572   1.708 -0.3192 -0.8552  0.8968
 5801SOL    HW218303   5.356   6.508   1.777 -1.2601  0.7440  0.6112
 5802SOL     OW18304   2.397   0.037   3.628  0.9821  0.3880 -0.1093
 5802SOL    HW118305   2.351   0.023   3.541  0.5285 -0.8245  0.2929
 5802SOL    HW218306   2.388  -0.046   3.684  2.0599  0.8030  0.7215
 5803SOL     OW18307   4.520   1.920   4.171 -0.0926 -0.0213  0.2938
 5803SOL    HW118308   4.581   1.997   4.184  0.8106 -1.1779  4.9629
 5803SOL    HW218309   4.573   1.836   4.158 -0.9290 -0.3531 -1.1815
 5804SOL     OW18310   1.529   0.673   4.865  0.2434 -0.6347  0.0795
 5804SOL    HW118311   1.565   0.580   4.862  0.9209 -0.3965  0.4633
 5804SOL    HW218312   1.595   0.733   4.911 -0.0844  0.0803 -0.3563
 5805SOL     OW18313   5.692   3.685   3.392  0.2129 -0.3202  0.8499
 5805SOL    HW118314   5.754   3.622   3.437  0.6999 -1.6069 -1.4597
 5805SOL    HW218315   5.716   3.779   3.416  2.4711 -0.8261  0.7502
 5806SOL     OW18316   2.623   5.657   3.294  0.1135 -0.3208  0.1839
 5806SOL    HW118317   2.576   5.739   3.260 -2.0141 -1.9179 -1.0018
 5806SOL    HW218318   2.560   5.579   3.290  2.3950 -2.2728  0.1870
 5807SOL     OW18319   3.237   3.451   2.336  0.3388 -0.1341  0.5834
 5807SOL    HW118320   3.254   3.521   2.267 -0.4163 -1.1948 -0.7274
 5807SOL    HW218321   3.210   3.495   2.422 -2.1678  1.2063 -0.7540
 5808SOL     OW18322   4.593   3.398   1.182 -0.0078 -0.0234 -0.3570
 5808SOL    HW118323   4.597   3.375   1.280 -1.6957 -1.0513 -0.4806
 5808SOL    HW218324   4.611   3.495   1.170 -0.3374  0.2421  1.0539
 5809SOL     OW18325   0.961   4.016   1.790 -0.0647  0.1374 -0.1631
 5809SOL    HW118326   1.009   3.936   1.754 -0.7656 -0.7989  0.9041
 5809SOL    HW218327   0.927   3.995   1.882 -2.2874  0.8362 -0.7666
 5810SOL     OW18328   3.504   6.876   0.523  0.3238  0.4220  0.4967
 5810SOL    HW118329   3.472   6.971   0.526  2.6194  1.2994 -0.4974
 5810SOL    HW218330   3.601   6.872   0.546  0.4317 -1.6131 -0.0624
 5811SOL     OW18331   3.678   0.889   5.487 -0.4403  0.6124 -0.4551
 5811SOL    HW118332   3.633   0.923   5.569 -0.0801 -0.1282  0.0601
 5811SOL    HW218333   3.638   0.801   5.461 -1.4190  1.4149 -1.8203
 5812SOL     OW18334   3.922   1.101   1.861  0.0676 -0.0913 -0.1740
 5812SOL    HW118335   3.919   1.072   1.957 -0.3818 -0.0975 -0.1858
 5812SOL    HW218336   4.016   1.096   1.827  0.4517  1.1595  0.6462
 5813SOL     OW18337   2.870   1.931   6.594  0.5511 -0.0503 -0.0615
 5813SOL    HW118338   2.780   1.905   6.627  0.6018 -0.6520 -0.3849
 5813SOL    HW218339   2.940   1.873   6.636  0.8529  0.7896  0.6317
 5814SOL     OW18340   1.917   5.096   6.949  0.7596 -0.5552 -0.5244
 5814SOL    HW118341   1.942   5.146   6.866  0.2022  1.2829  0.3664
 5814SOL    HW218342   1.978   5.123   7.024  0.6163 -1.4347 -0.0762
 5815SOL     OW18343   2.639   5.059   6.043 -0.1595  0.8547  0.0381
 5815SOL    HW118344   2.544   5.091   6.046 -0.6397 -0.5569  0.4489
 5815SOL    HW218345   2.678   5.080   5.953 -0.0621  3.5531  0.6128
 5816SOL     OW18346   3.526   0.589   3.475  0.2727 -0.5499 -0.4454
 5816SOL    HW118347   3.449   0.639   3.436 -0.0376 -0.3868  0.3547
 5816SOL    HW218348   3.548   0.627   3.565  1.3936 -0.4872 -0.7272
 5817SOL     OW18349   0.843   5.238   4.024 -0.0219 -0.4600  0.0466
 5817SOL    HW118350   0.907   5.291   3.968 -0.1384  0.5006  0.7839
 5817SOL    HW218351   0.829   5.148   3.983  3.0202 -1.3184  0.6902
 5818SOL     OW18352   2.885   4.968   1.620 -0.0862  0.2314  0.4137
 5818SOL    HW118353   2.862   5.026   1.542 -2.0418 -0.1219  0.6592
 5818SOL    HW218354   2.834   4.999   1.700 -0.5385 -1.2940  0.7605
 5819SOL     OW18355   4.742   1.886   3.225 -0.0392  0.0320 -0.2444
 5819SOL    HW118356   4.684   1.899   3.306 -1.6595  0.3085 -1.3929
 5819SOL    HW218357   4.802   1.808   3.239  0.9166  1.0675  1.8559
 5820SOL     OW18358   4.605   4.202   5.741 -0.3005  0.7623 -0.4279
 5820SOL    HW118359   4.656   4.240   5.664  3.2763 -2.2627  0.1531
 5820SOL    HW218360   4.547   4.127   5.708  1.5968 -0.8583 -0.3034
 5821SOL     OW18361   5.804   6.293   1.785 -0.0248 -0.0595 -0.5976
 5821SOL    HW118362   5.886   6.289   1.728  0.1311 -0.3852 -0.3506
 5821SOL    HW218363   5.739   6.223   1.753 -0.7929  1.1146 -1.6909
 5822SOL     OW18364   3.357   4.138   6.708 -0.7071 -0.2149  0.2655
 5822SOL    HW118365   3.317   4.185   6.787 -0.5182 -0.2361  0.3749
 5822SOL    HW218366   3.408   4.058   6.739 -1.4159 -0.7683  0.0418
 5823SOL     OW18367   5.667   5.630   6.331 -0.0089 -0.7501  0.0864
 5823SOL    HW118368   5.736   5.698   6.357 -0.7069  0.3245 -0.7632
 5823SOL    HW218369   5.616   5.601   6.412 -0.2701  0.3897  0.3438
 5824SOL     OW18370   2.082   4.869   5.245 -0.3316  0.4087  0.3947
 5824SOL    HW118371   1.982   4.858   5.247 -0.2945 -0.1454 -0.3987
 5824SOL    HW218372   2.125   4.780   5.242  0.1277  0.6536 -1.1165
 5825SOL     OW18373   6.027   1.565   7.002 -0.4513  0.9962  0.3244
 5825SOL    HW118374   6.004   1.630   6.930 -0.0905  1.5327  0.6830
 5825SOL    HW218375   5.947   1.509   7.024 -0.4786  0.6260 -0.6866
 5826SOL     OW18376   5.695   0.371   5.942 -0.6328 -0.4075 -0.1460
 5826SOL    HW118377   5.612   0.320   5.921 -0.7774 -0.4895  0.5859
 5826SOL    HW218378   5.670   0.457   5.987 -0.3531 -0.0574 -0.6433
 5827SOL     OW18379   5.475   5.821   6.024 -0.5491 -0.1584  0.2249
 5827SOL    HW118380   5.443   5.843   5.932  1.4268 -0.5360 -0.6101
 5827SOL    HW218381   5.397   5.798   6.082 -2.0019  1.6981 -0.8652
 5828SOL     OW18382   6.504   4.886   6.023  0.5017  0.3113  0.1495
 5828SOL    HW118383   6.550   4.798   6.033  2.8799  1.5863  1.3283
 5828SOL    HW218384   6.431   4.878   5.955  0.3399 -2.6341  0.5336
 5829SOL     OW18385   5.266   0.810   0.849  0.4331 -0.0036  0.4027
 5829SOL    HW118386   5.251   0.884   0.783 -0.1430 -1.0818 -0.7239
 5829SOL    HW218387   5.306   0.847   0.932 -0.4087  1.6558  0.1039
 5830SOL     OW18388   3.863   0.668   4.747  0.5655 -0.1281  0.3565
 5830SOL    HW118389   3.836   0.571   4.745  0.7818 -0.1800 -1.4441
 5830SOL    HW218390   3.807   0.720   4.683  1.2705  0.7194  0.4105
 5831SOL     OW18391   4.887   1.385   4.674 -0.1328 -0.2382 -0.5698
 5831SOL    HW118392   4.863   1.303   4.726 -0.9664  0.9523  1.0235
 5831SOL    HW218393   4.814   1.407   4.610 -1.1717  0.6726  0.8570
 5832SOL     OW18394   0.623   3.899   5.244 -0.2322  0.2355  0.1116
 5832SOL    HW118395   0.651   3.929   5.153  1.2329  1.8440  1.0245
 5832SOL    HW218396   0.530   3.930   5.263 -1.0069 -1.1458 -1.2469
 5833SOL     OW18397   3.849   0.704   3.063  0.4124  0.4193  0.3487
 5833SOL    HW118398   3.843   0.685   2.965 -2.3810  0.1727  0.5100
 5833SOL    HW218399   3.891   0.626   3.109 -4.0032 -2.4594  0.0385
 5834SOL     OW18400   1.458   3.158   3.112  0.4186 -0.5915 -0.4825
 5834SOL    HW118401   1.502   3.205   3.188  0.0861  3.9116 -2.7375
 5834SOL    HW218402   1.359   3.171   3.118  0.3523 -0.5769 -1.3935
 5835SOL     OW18403   4.380   0.423   2.004  0.3012 -0.2101 -0.5576
 5835SOL    HW118404   4.337   0.504   2.043 -0.9848 -1.6160  1.1468
 5835SOL    HW218405   4.448   0.387   2.067 -0.3948 -1.4162 -0.4578
 5836SOL     OW18406   0.431   1.215   3.271 -0.7363  0.6079 -0.3450
 5836SOL    HW118407   0.386   1.267   3.199 -1.5983  0.6920  0.2294
 5836SOL    HW218408   0.401   1.249   3.360 -0.6186 -0.2788  0.0459
 5837SOL     OW18409   3.844   6.186   1.704 -0.0140  0.0392  0.5563
 5837SOL    HW118410   3.905   6.135   1.765  0.5050 -1.5894 -1.2174
 5837SOL    HW218411   3.889   6.199   1.616 -1.8408 -0.3350 -0.4866
 5838SOL     OW18412   0.493   4.035   1.624 -0.0376  0.0243  0.2559
 5838SOL    HW118413   0.508   4.124   1.668  1.3388  0.6379 -1.3449
 5838SOL    HW218414   0.573   3.977   1.638 -0.0595 -0.1880 -0.4486
 5839SOL     OW18415   6.574   6.850   0.578  0.1172 -0.4128 -0.1493
 5839SOL    HW118416   6.479   6.879   0.566 -0.4197 -1.9947 -0.0277
 5839SOL    HW218417   6.577   6.750   0.589  1.7002 -0.2903  0.9155
 5840SOL     OW18418   4.808   3.931   6.286 -0.1961  0.2968  0.1261
 5840SOL    HW118419   4.899   3.914   6.325  0.7067  2.2674 -0.9890
 5840SOL    HW218420   4.784   3.856   6.224  0.0275 -0.9140  1.4276
 5841SOL     OW18421   2.717   6.106   3.264 -0.8745  1.1347 -0.2648
 5841SOL    HW118422   2.696   6.147   3.353 -2.5618  1.5882 -0.8503
 5841SOL    HW218423   2.663   6.023   3.252  2.2848 -1.3140  0.7887
 5842SOL     OW18424   4.102   6.103   1.334 -0.0735 -0.4085 -0.5184
 5842SOL    HW118425   4.130   6.140   1.423  1.1318 -1.1073 -0.5842
 5842SOL    HW218426   4.016   6.145   1.306 -0.4085 -0.0803  0.9175
 5843SOL     OW18427   0.303   5.062   6.101  0.5871 -0.0505 -0.3402
 5843SOL    HW118428   0.343   5.029   6.015  0.9562  1.8333 -0.9415
 5843SOL    HW218429   0.365   5.042   6.176  1.2947  0.2326 -0.8377
 5844SOL     OW18430   4.917   3.842   7.014  0.4164 -0.0023  0.2429
 5844SOL    HW118431   4.876   3.835   6.923  0.8353 -0.3040  0.0766
 5844SOL    HW218432   5.015   3.824   7.008  0.5769  0.7077  0.6400
 5845SOL     OW18433   0.573   3.990   2.285 -0.2849  0.2957 -0.1256
 5845SOL    HW118434   0.476   4.005   2.305 -0.1216 -0.1488  1.1071
 5845SOL    HW218435   0.583   3.909   2.229 -0.6713  0.7510 -0.8650
 5846SOL     OW18436   1.576   2.212   1.416  0.2231 -0.3515 -0.2210
 5846SOL    HW118437   1.575   2.123   1.370  0.8585 -0.5287  0.0941
 5846SOL    HW218438   1.553   2.284   1.351 -4.7790 -1.0904  0.3611
 5847SOL     OW18439   1.284   2.397   3.789 -0.4029 -0.5012  0.2233
 5847SOL    HW118440   1.283   2.495   3.809 -0.0873 -0.3813 -0.3193
 5847SOL    HW218441   1.285   2.384   3.689  0.2228 -1.0486  0.2978
 5848SOL     OW18442   0.135   0.599   3.647  0.0636 -0.4150  0.0263
 5848SOL    HW118443   0.190   0.623   3.567 -0.7887 -0.5543 -0.6162
 5848SOL    HW218444   0.140   0.500   3.662  1.8835 -0.1514  1.4088
 5849SOL     OW18445   1.179   5.776   6.921 -0.7710  0.2343 -0.1666
 5849SOL    HW118446   1.180   5.874   6.939 -1.5767  0.3938 -0.9294
 5849SOL    HW218447   1.210   5.727   7.003 -0.9889  1.0865  0.4436
 5850SOL     OW18448   3.952   4.882   1.809 -0.2498  0.5643 -0.6296
 5850SOL    HW118449   3.859   4.917   1.813 -0.8859 -1.0807  0.1216
 5850SOL    HW218450   3.984   4.862   1.902  0.3749 -0.0306 -0.9625
 5851SOL     OW18451   6.940   1.112   4.027 -0.1886  0.6248  0.5577
 5851SOL    HW118452   6.903   1.183   4.087 -1.6535  1.4471 -1.2176
 5851SOL    HW218453   6.875   1.036   4.022 -0.8189  1.2399 -1.1212
 5852SOL     OW18454   1.347   2.197   1.956  0.5852  0.3032  0.7287
 5852SOL    HW118455   1.336   2.144   2.040  0.5294  0.4962  0.8436
 5852SOL    HW218456   1.283   2.165   1.887  2.1513 -1.3987 -0.0202
 5853SOL     OW18457   4.253   6.411   5.272  0.5209  0.3544 -0.0310
 5853SOL    HW118458   4.236   6.328   5.218 -0.6051 -1.0171  2.2663
 5853SOL    HW218459   4.351   6.432   5.271  0.6532 -0.1899 -1.7371
 5854SOL     OW18460   1.597   4.832   0.979  0.0899  1.1646  0.3563
 5854SOL    HW118461   1.666   4.760   0.991 -1.1467  0.1099  1.4483
 5854SOL    HW218462   1.639   4.921   0.994  1.6221  0.6914 -0.8499
 5855SOL     OW18463   4.571   5.685   1.586 -0.1830 -0.0981 -0.2202
 5855SOL    HW118464   4.514   5.610   1.553 -0.3267  0.2293 -0.7188
 5855SOL    HW218465   4.530   5.773   1.560  0.5009  0.1455 -0.5179
 5856SOL     OW18466   2.640   0.476   5.136  0.2087  0.7001 -0.0737
 5856SOL    HW118467   2.638   0.574   5.117  0.6216  1.3655  2.8988
 5856SOL    HW218468   2.557   0.450   5.185  1.0610  0.0285  1.0588
 5857SOL     OW18469   3.946   1.711   2.345  0.2055  0.3851  0.5934
 5857SOL    HW118470   3.970   1.707   2.442 -0.1925  0.0562  0.6820
 5857SOL    HW218471   3.934   1.618   2.311 -0.1518  0.5202  0.3539
 5858SOL     OW18472   6.815   4.502   6.108  0.4392 -0.2382 -0.1050
 5858SOL    HW118473   6.879   4.487   6.033 -0.8041 -2.0057 -0.8810
 5858SOL    HW218474   6.724   4.522   6.071  0.2444  1.0239  0.9700
 5859SOL     OW18475   6.668   5.129   1.957  0.0851 -1.0418 -1.0057
 5859SOL    HW118476   6.712   5.089   2.038  0.4220  0.5886 -0.3370
 5859SOL    HW218477   6.738   5.167   1.896 -0.2089 -1.6760 -1.7507
 5860SOL     OW18478   4.567   5.612   6.346 -0.0958  0.4470  0.0882
 5860SOL    HW118479   4.500   5.648   6.282 -0.1168  1.4979  0.6741
 5860SOL    HW218480   4.524   5.596   6.434  0.0050 -0.6895 -0.0563
 5861SOL     OW18481   1.151   1.104   5.537  0.5700  1.1981 -0.1318
 5861SOL    HW118482   1.205   1.110   5.621  0.5226  1.2793 -0.1073
 5861SOL    HW218483   1.140   1.195   5.497 -2.4559  1.7532  1.6893
 5862SOL     OW18484   2.590   4.689   6.014  0.1471  0.2392 -0.4485
 5862SOL    HW118485   2.619   4.781   6.039  1.5631 -0.2218 -0.2841
 5862SOL    HW218486   2.514   4.662   6.072  0.0153  1.1326 -0.1863
 5863SOL     OW18487   6.067   6.236   1.714  0.1752  0.0501  0.3766
 5863SOL    HW118488   6.063   6.193   1.804  1.0437 -0.5015  0.1623
 5863SOL    HW218489   6.115   6.177   1.650  1.9647  1.5659  0.2241
 5864SOL     OW18490   5.100   6.096   3.419 -0.5065  0.0850 -0.0066
 5864SOL    HW118491   5.149   6.129   3.339 -0.9205  1.6637  0.3459
 5864SOL    HW218492   5.157   6.105   3.500 -0.5599 -0.2641  0.0729
 5865SOL     OW18493   6.676   5.998   3.103  0.1001  0.6917  0.4292
 5865SOL    HW118494   6.674   6.095   3.082  0.9509  0.9283  1.3381
 5865SOL    HW218495   6.755   5.956   3.057  0.6705  0.7660  1.3240
 5866SOL     OW18496   6.445   5.846   1.530 -0.1499  0.0069 -0.3570
 5866SOL    HW118497   6.383   5.840   1.608 -0.5298  1.5899 -0.4894
 5866SOL    HW218498   6.467   5.942   1.513  0.9919 -0.4112 -1.3778
 5867SOL     OW18499   4.742   1.107   4.541  0.2897 -0.3473  0.2578
 5867SOL    HW118500   4.747   1.090   4.639 -0.0205  0.1230  0.3560
 5867SOL    HW218501   4.731   1.020   4.493  0.8621 -0.6155  0.6090
 5868SOL     OW18502   4.749   2.706   0.036  0.3635 -0.5452  0.5121
 5868SOL    HW118503   4.816   2.638   0.066 -1.7842 -2.6132  0.8926
 5868SOL    HW218504   4.733   2.695  -0.062  1.9094  1.2641 -0.0180
 5869SOL     OW18505   3.146   4.394   5.691  0.1274 -0.5316  0.2474
 5869SOL    HW118506   3.237   4.435   5.687 -0.4353  0.7321 -0.4775
 5869SOL    HW218507   3.143   4.313   5.633  0.3695  0.3727 -1.0852
 5870SOL     OW18508   2.626   5.359   6.478 -0.3906 -0.0843  0.0018
 5870SOL    HW118509   2.705   5.297   6.475  0.3959  0.8783  0.4566
 5870SOL    HW218510   2.652   5.444   6.524 -0.5467  1.8521 -3.1967
 5871SOL     OW18511   1.777   5.321   2.978  0.1026 -0.1065  0.1423
 5871SOL    HW118512   1.702   5.307   3.042 -0.6462 -3.0086 -1.2133
 5871SOL    HW218513   1.744   5.369   2.897 -0.0943 -0.5734 -0.0578
 5872SOL     OW18514   4.709   3.310   5.728 -0.3740 -0.5266  0.0189
 5872SOL    HW118515   4.658   3.263   5.800 -1.7330  0.6987 -0.1070
 5872SOL    HW218516   4.650   3.327   5.650  0.5318 -0.0477 -0.5870
 5873SOL     OW18517   1.374   6.133   6.706  0.2660  0.7870  0.4541
 5873SOL    HW118518   1.284   6.099   6.676  1.0568 -2.8961  1.7060
 5873SOL    HW218519   1.361   6.200   6.780 -1.5041 -0.5476  1.4323
 5874SOL     OW18520   5.030   4.691   3.037  0.6554  0.5224  0.7159
 5874SOL    HW118521   5.061   4.655   2.949  2.2383  0.7427  1.1375
 5874SOL    HW218522   4.933   4.713   3.033  0.6072  0.1116 -0.8274
 5875SOL     OW18523   4.819   2.321   5.238 -0.7287  0.0360 -0.2449
 5875SOL    HW118524   4.819   2.243   5.301 -0.0382 -1.6606 -2.2203
 5875SOL    HW218525   4.737   2.318   5.181 -1.0095  1.1566  0.0723
 5876SOL     OW18526   1.928   2.564   2.351 -0.0529  0.3329 -0.1395
 5876SOL    HW118527   1.976   2.581   2.437  1.9925  0.0590 -1.1562
 5876SOL    HW218528   1.923   2.465   2.335 -0.0667  0.3889 -0.4996
 5877SOL     OW18529   3.527   0.837   1.768  0.0348  0.4801  0.2954
 5877SOL    HW118530   3.591   0.811   1.841 -0.3890 -0.2255  0.4178
 5877SOL    HW218531   3.440   0.866   1.809 -0.4600 -0.6257  0.0525
 5878SOL     OW18532   3.754   5.147   0.464 -0.3270  0.1851  1.0021
 5878SOL    HW118533   3.722   5.057   0.494 -3.6490  0.3963 -1.3274
 5878SOL    HW218534   3.733   5.215   0.535  1.5851 -0.6612  2.4812
 5879SOL     OW18535   1.595   1.138   2.682 -0.6415 -0.0702 -0.0419
 5879SOL    HW118536   1.600   1.061   2.619 -0.6654  0.5043 -0.7686
 5879SOL    HW218537   1.659   1.209   2.652  0.6547 -0.4963  1.6009
 5880SOL     OW18538   0.434   3.895   3.268 -0.3348  0.4584  0.6097
 5880SOL    HW118539   0.374   3.924   3.342  0.7688  1.0122  1.3062
 5880SOL    HW218540   0.495   3.822   3.300  1.6389  2.1694  0.9546
 5881SOL     OW18541   4.660   4.610   0.163  0.4655  0.1253  0.2304
 5881SOL    HW118542   4.684   4.514   0.150 -1.2515 -0.3148  0.0422
 5881SOL    HW218543   4.709   4.666   0.096  0.0035 -0.8547 -0.9651
 5882SOL     OW18544   3.263   0.463   2.223 -0.0891  0.4682 -0.0596
 5882SOL    HW118545   3.284   0.503   2.134 -1.3063 -1.2316 -1.1703
 5882SOL    HW218546   3.172   0.423   2.221  0.4684 -1.0111  1.4474
 5883SOL     OW18547   0.421   5.503   0.746  0.3659 -0.2025 -0.3129
 5883SOL    HW118548   0.472   5.430   0.702 -1.0240 -1.8563  0.6798
 5883SOL    HW218549   0.438   5.502   0.844  1.1076  1.5159 -0.3753
 5884SOL     OW18550   0.031   0.184   2.173 -0.4589  0.4383  0.3988
 5884SOL    HW118551   0.080   0.254   2.121 -0.6174 -0.5828 -1.2007
 5884SOL    HW218552  -0.058   0.219   2.200  0.1386  1.4394  1.1496
 5885SOL     OW18553   4.714   0.756   3.690 -0.1092  0.1577  0.0518
 5885SOL    HW118554   4.738   0.661   3.669 -1.9835 -0.7914  1.9049
 5885SOL    HW218555   4.797   0.808   3.711  0.9415 -1.0266 -1.0045
 5886SOL     OW18556   3.978   1.398   4.731 -0.1350  0.4506  0.6560
 5886SOL    HW118557   4.033   1.344   4.795  0.5316 -0.2319 -0.4682
 5886SOL    HW218558   3.881   1.379   4.746  0.0929 -1.3319  0.0778
 5887SOL     OW18559   6.606   1.957   6.536 -0.0923  0.0178  0.0508
 5887SOL    HW118560   6.521   1.994   6.573 -0.0450 -0.4657  0.6681
 5887SOL    HW218561   6.682   2.013   6.566 -0.1857  0.3953 -0.4210
 5888SOL     OW18562   4.460   2.364   1.126 -0.6425  0.2642  0.0087
 5888SOL    HW118563   4.374   2.410   1.108 -0.9827 -0.6958 -0.9024
 5888SOL    HW218564   4.530   2.431   1.151 -0.9347  1.3667 -1.9459
 5889SOL     OW18565   0.370   0.531   6.129 -0.3078 -0.4024 -0.2105
 5889SOL    HW118566   0.319   0.469   6.189  1.2155 -0.8191  0.6908
 5889SOL    HW218567   0.350   0.625   6.155 -0.5251 -0.5594  0.2006
 5890SOL     OW18568   3.114   4.605   5.978  0.1173  0.0444 -0.1884
 5890SOL    HW118569   3.109   4.664   6.059  0.4797  1.2440 -1.0068
 5890SOL    HW218570   3.039   4.627   5.916  0.9031  0.4573 -1.0171
 5891SOL     OW18571   5.850   7.002   0.361  0.1129 -0.3832 -0.2728
 5891SOL    HW118572   5.840   6.937   0.286  0.7160 -1.7967  0.8241
 5891SOL    HW218573   5.819   6.960   0.446  0.5669  0.7509  0.4823
 5892SOL     OW18574   0.169   3.624   6.596 -0.5677  0.1239  0.3946
 5892SOL    HW118575   0.108   3.655   6.523 -1.1006  0.0072  0.7799
 5892SOL    HW218576   0.117   3.614   6.681 -0.3430 -1.4784  0.3746
 5893SOL     OW18577   0.245   5.460   3.631  0.1513 -0.2130 -0.3649
 5893SOL    HW118578   0.265   5.512   3.548 -0.9489 -1.8841 -1.7622
 5893SOL    HW218579   0.329   5.414   3.661  0.5549  0.3705 -0.5745
 5894SOL     OW18580   4.178   3.437   0.149  0.9370 -0.0519 -0.6098
 5894SOL    HW118581   4.130   3.505   0.204  0.2480 -0.0525 -1.1910
 5894SOL    HW218582   4.266   3.416   0.191  0.9528  0.8449 -0.1673
 5895SOL     OW18583   3.227   6.509   3.429  0.5462 -0.0555  0.4342
 5895SOL    HW118584   3.229   6.486   3.526  0.1679 -2.0661  0.0192
 5895SOL    HW218585   3.301   6.460   3.382 -0.2175 -0.3547 -0.5057
 5896SOL     OW18586   1.788   3.634   3.741 -0.7397 -0.0283  0.2400
 5896SOL    HW118587   1.802   3.662   3.836  0.5788  0.4491 -0.0729
 5896SOL    HW218588   1.876   3.607   3.701 -0.7067  2.6272 -1.7231
 5897SOL     OW18589   2.411   6.441   3.550  0.3196  0.3517  0.3486
 5897SOL    HW118590   2.485   6.491   3.593  0.4068  0.4091  0.1334
 5897SOL    HW218591   2.432   6.343   3.548  1.7103  0.5983 -2.2223
 5898SOL     OW18592   7.000   6.111   5.113 -0.1294  0.8718 -0.1647
 5898SOL    HW118593   6.909   6.153   5.110 -0.0985  0.9811  0.4365
 5898SOL    HW218594   7.018   6.075   5.204 -0.1350 -0.4143 -0.6592
 5899SOL     OW18595   6.028   0.363   0.349  0.0070 -0.3814 -0.1804
 5899SOL    HW118596   6.108   0.303   0.338  0.2983 -0.2558  1.1108
 5899SOL    HW218597   5.946   0.307   0.359  0.3496 -0.6210  1.5863
 5900SOL     OW18598   2.979   5.494   0.342  0.1610  0.1947 -0.1062
 5900SOL    HW118599   2.921   5.454   0.414 -1.7718 -0.6202 -1.9906
 5900SOL    HW218600   2.977   5.594   0.349  2.7374  0.2048  2.9173
 5901SOL     OW18601   2.369   2.364   3.352  0.1285 -0.2835  0.5470
 5901SOL    HW118602   2.335   2.389   3.262  0.0511 -1.0124  0.3699
 5901SOL    HW218603   2.349   2.437   3.417 -1.3508 -0.4845  0.3510
 5902SOL     OW18604   3.302   2.128   3.500  0.2841  0.1837 -0.5217
 5902SOL    HW118605   3.204   2.117   3.486  0.4925  0.2694 -2.3251
 5902SOL    HW218606   3.319   2.199   3.568 -0.8975 -0.3214  0.3187
 5903SOL     OW18607   4.991   4.356   0.753  0.1737  0.7315 -0.2728
 5903SOL    HW118608   4.932   4.411   0.694 -1.6867 -0.4455  0.4241
 5903SOL    HW218609   4.971   4.376   0.849  0.4934 -0.0999 -0.0256
 5904SOL     OW18610   5.026   5.043   1.776 -0.1930 -0.5403  0.0204
 5904SOL    HW118611   5.004   5.140   1.763 -3.0207 -1.1797 -0.5642
 5904SOL    HW218612   4.965   5.004   1.844 -1.9453 -2.7778 -2.6091
 5905SOL     OW18613   6.305   6.452   4.906  0.0744  0.1091  0.1916
 5905SOL    HW118614   6.396   6.458   4.947 -0.2372  1.2582  0.7461
 5905SOL    HW218615   6.312   6.467   4.807  0.4490  0.5287  0.2760
 5906SOL     OW18616   4.560   2.585   2.330 -0.0240  0.7033 -0.1217
 5906SOL    HW118617   4.502   2.551   2.403  0.0868 -0.5238 -0.5879
 5906SOL    HW218618   4.637   2.635   2.370 -0.1873  0.4083  0.5822
 5907SOL     OW18619   3.575   2.312   1.618  0.2167 -0.3738 -0.1497
 5907SOL    HW118620   3.635   2.329   1.696 -0.7882  0.2464  0.5058
 5907SOL    HW218621   3.496   2.372   1.623 -0.6968 -1.4908 -0.7648
 5908SOL     OW18622   0.772   3.858   0.365  0.5636 -0.4501 -0.0868
 5908SOL    HW118623   0.788   3.760   0.374 -0.8726 -0.8288 -1.2855
 5908SOL    HW218624   0.855   3.903   0.330  0.6904 -1.5051 -1.1940
 5909SOL     OW18625   0.096   2.755   3.165 -0.0190 -0.5449  0.2244
 5909SOL    HW118626   0.170   2.805   3.212  0.9885 -2.6872  1.0363
 5909SOL    HW218627   0.038   2.820   3.116  1.2166  1.4066  1.2219
 5910SOL     OW18628   2.911   3.556   2.601 -0.2951 -0.6213 -0.2231
 5910SOL    HW118629   3.011   3.561   2.606 -0.2446 -0.1391 -1.3819
 5910SOL    HW218630   2.873   3.553   2.694  0.7303  0.5138  0.2670
 5911SOL     OW18631   0.513   5.442   1.054  0.1179 -0.2936  0.7850
 5911SOL    HW118632   0.528   5.348   1.085  0.6046 -0.6068 -0.3477
 5911SOL    HW218633   0.516   5.504   1.133  0.3244 -1.1632  1.4766
 5912SOL     OW18634   0.595   3.094   1.351 -0.0330 -0.0706  0.1024
 5912SOL    HW118635   0.619   3.189   1.327  1.7829 -0.8596 -1.5111
 5912SOL    HW218636   0.608   3.036   1.271  0.1588 -1.9068  1.4063
 5913SOL     OW18637   6.386   6.605   0.754 -0.3163 -0.0825 -0.4432
 5913SOL    HW118638   6.327   6.543   0.807  0.5849  0.8020  1.7159
 5913SOL    HW218639   6.393   6.693   0.801  1.1317  0.5075 -1.6804
 5914SOL     OW18640   1.121   4.041   4.822 -0.5930  0.0570  0.3228
 5914SOL    HW118641   1.212   4.032   4.861 -1.2825  0.6698  2.1484
 5914SOL    HW218642   1.076   4.123   4.857 -2.1487 -0.6508  0.1078
 5915SOL     OW18643   2.147   1.531   3.158  0.3359  0.2838 -0.3628
 5915SOL    HW118644   2.062   1.583   3.147 -0.0605  0.0379  1.2783
 5915SOL    HW218645   2.220   1.592   3.189  0.6348  0.3858 -1.2311
 5916SOL     OW18646   2.669   6.129   4.366  0.2338 -0.0419 -0.0230
 5916SOL    HW118647   2.622   6.210   4.331  1.0798 -0.1418 -1.4243
 5916SOL    HW218648   2.737   6.156   4.434  2.1556  0.7247 -2.1459
 5917SOL     OW18649   3.238   2.907   2.217 -0.2214  0.3693  0.4851
 5917SOL    HW118650   3.212   2.993   2.173  1.0176 -0.0504 -1.1455
 5917SOL    HW218651   3.209   2.909   2.313  0.6931  3.0271  0.7975
 5918SOL     OW18652   4.187   1.441   2.467 -0.6225  0.9448 -0.6149
 5918SOL    HW118653   4.185   1.541   2.463 -0.4139  0.9660 -0.2880
 5918SOL    HW218654   4.093   1.407   2.477 -0.6572  1.1396 -0.2035
 5919SOL     OW18655   4.752   0.923   5.085  0.3101  0.0398  0.1376
 5919SOL    HW118656   4.779   0.870   5.165 -3.4438 -1.6580  0.5038
 5919SOL    HW218657   4.768   0.868   5.002  0.5085  0.1707  0.0880
 5920SOL     OW18658   4.528   0.129   3.576 -0.3983  0.1893 -0.0047
 5920SOL    HW118659   4.597   0.086   3.517 -0.5765  1.0087 -0.8499
 5920SOL    HW218660   4.467   0.185   3.520 -0.8985  0.5839  0.9086
 5921SOL     OW18661   6.507   5.835   0.789  0.0630 -0.0620  0.2949
 5921SOL    HW118662   6.527   5.834   0.888 -0.9735  0.0204  0.5150
 5921SOL    HW218663   6.510   5.929   0.755 -0.9078  0.0628  0.5368
 5922SOL     OW18664   6.948   1.346   2.917  0.2430 -0.5870  0.2470
 5922SOL    HW118665   7.019   1.285   2.882  0.5939 -0.2408  0.3552
 5922SOL    HW218666   6.944   1.428   2.861  0.9443  0.0633  1.1209
 5923SOL     OW18667   3.927   4.344   1.560  0.0573 -0.4793 -0.1673
 5923SOL    HW118668   3.841   4.371   1.605  0.2900  0.3322 -0.2004
 5923SOL    HW218669   3.919   4.250   1.528 -0.5725 -0.6481  0.4487
 5924SOL     OW18670   0.806   4.651   5.689 -0.7512 -0.3042 -0.0953
 5924SOL    HW118671   0.806   4.602   5.777 -1.2627 -0.5778 -0.2412
 5924SOL    HW218672   0.715   4.689   5.672 -0.2002  1.2414  0.2985
 5925SOL     OW18673   6.392   4.539   5.429  0.4223 -0.1597 -0.3597
 5925SOL    HW118674   6.434   4.591   5.355  1.1282 -1.0263 -0.5808
 5925SOL    HW218675   6.457   4.471   5.463 -0.5383 -1.0003 -0.1797
 5926SOL     OW18676   4.450   1.588   1.594 -0.7149  0.0849 -0.6124
 5926SOL    HW118677   4.504   1.601   1.511 -0.5217  1.4874 -0.3038
 5926SOL    HW218678   4.354   1.572   1.570 -0.6724  0.5589 -1.1148
 5927SOL     OW18679   6.078   6.215   2.356  0.5517  0.6163 -0.2465
 5927SOL    HW118680   6.158   6.168   2.393  0.5633  0.7176 -0.1419
 5927SOL    HW218681   6.103   6.308   2.329  0.0285  1.3915  1.7250
 5928SOL     OW18682   2.109   6.585   6.726 -0.6208 -0.4231  0.6567
 5928SOL    HW118683   2.024   6.583   6.675  0.5751 -0.1411 -1.4607
 5928SOL    HW218684   2.148   6.493   6.732 -0.1120 -0.2647 -0.1147
 5929SOL     OW18685   3.636   2.360   0.052  0.2296 -0.7834  0.4120
 5929SOL    HW118686   3.721   2.315   0.024  0.5808  0.0461  0.1160
 5929SOL    HW218687   3.620   2.440  -0.006 -0.8158 -0.9879  0.3900
 5930SOL     OW18688   5.118   2.485   2.944  0.0716 -0.4867 -0.5501
 5930SOL    HW118689   5.069   2.572   2.936 -0.6137 -0.7888  0.2314
 5930SOL    HW218690   5.090   2.439   3.028  3.2058  0.2789  1.0868
 5931SOL     OW18691   4.166   6.356   6.263  0.2136 -0.2649  0.2049
 5931SOL    HW118692   4.155   6.257   6.257  0.2954 -0.2371 -0.6523
 5931SOL    HW218693   4.226   6.386   6.189 -0.5372  0.5303 -0.0923
 5932SOL     OW18694   6.764   5.502   0.883 -0.0784  0.0954  0.5807
 5932SOL    HW118695   6.715   5.587   0.902  1.0115  0.5797  1.3288
 5932SOL    HW218696   6.792   5.501   0.787  1.3965  1.4128  0.9499
 5933SOL     OW18697   4.118   0.416   4.731  0.0869  0.2094  0.3385
 5933SOL    HW118698   4.025   0.396   4.760  0.7214 -2.1916  1.0160
 5933SOL    HW218699   4.124   0.410   4.632 -0.9074  2.7010  0.0728
 5934SOL     OW18700   6.101   4.871   6.744  0.6897 -0.6346  0.0805
 5934SOL    HW118701   6.132   4.877   6.839 -1.0469  2.5406  0.5978
 5934SOL    HW218702   6.028   4.804   6.737 -2.3087  2.1229  2.1578
 5935SOL     OW18703   4.236   5.707   1.700 -0.0087 -0.3474 -0.3263
 5935SOL    HW118704   4.243   5.625   1.643  0.5412 -0.0695 -0.6697
 5935SOL    HW218705   4.270   5.786   1.648  1.4980 -0.2598  0.7357
 5936SOL     OW18706   2.758   3.015   0.928 -0.4006  0.1664  0.2950
 5936SOL    HW118707   2.824   3.077   0.970 -0.0428  0.3074 -0.4635
 5936SOL    HW218708   2.739   2.939   0.991  0.4876  0.1214  0.5222
 5937SOL     OW18709   4.907   0.202   5.472 -0.4320  0.6284  0.1508
 5937SOL    HW118710   4.998   0.245   5.471 -1.2699  2.6376  2.0925
 5937SOL    HW218711   4.879   0.181   5.378  1.6950  0.6609 -0.5499
 5938SOL     OW18712   1.808   4.773   3.533 -0.0023  0.1807 -0.2943
 5938SOL    HW118713   1.743   4.715   3.483 -0.6272  0.7592 -0.1623
 5938SOL    HW218714   1.758   4.842   3.585  0.6834  0.1832  0.3911
 5939SOL     OW18715   6.956   1.170   5.944  0.1028 -0.3612 -0.0939
 5939SOL    HW118716   6.977   1.267   5.932  0.1335 -0.4067 -0.4160
 5939SOL    HW218717   6.865   1.151   5.906  0.8043 -0.7991 -1.6229
 5940SOL     OW18718   5.010   1.532   3.999  1.0556  0.7406  0.0206
 5940SOL    HW118719   5.082   1.581   3.950  1.5141  2.3625  2.1510
 5940SOL    HW218720   4.922   1.577   3.984  0.6779 -0.3959 -1.4299
 5941SOL     OW18721   1.679   5.502   3.265 -0.7805 -0.1756 -0.1008
 5941SOL    HW118722   1.634   5.495   3.176 -0.4298 -1.0397 -0.2274
 5941SOL    HW218723   1.773   5.533   3.251  0.5303 -3.7977 -0.5044
 5942SOL     OW18724   0.751   0.166   3.978  0.6556 -0.1018  0.0466
 5942SOL    HW118725   0.808   0.237   3.935 -0.5639  0.7763 -0.1681
 5942SOL    HW218726   0.655   0.187   3.963  0.1778 -0.2000  2.5251
 5943SOL     OW18727   3.420   2.914   3.352  0.2102  0.0156 -0.1720
 5943SOL    HW118728   3.494   2.931   3.418 -0.7143  1.9647  0.4509
 5943SOL    HW218729   3.344   2.871   3.400  0.6101 -1.2605 -0.6449
 5944SOL     OW18730   3.721   2.075   4.988  0.1836 -0.2388  0.3544
 5944SOL    HW118731   3.779   2.130   5.049  0.5947  0.4372 -0.6196
 5944SOL    HW218732   3.629   2.071   5.025  0.2537  0.7549  0.6713
 5945SOL     OW18733   0.258   1.936   5.408 -0.6001 -0.2659  0.2028
 5945SOL    HW118734   0.216   1.845   5.407  0.5166 -0.9595  3.2508
 5945SOL    HW218735   0.200   1.999   5.459  0.5799 -0.4740  1.8955
 5946SOL     OW18736   0.640   6.754   5.675  0.3394  0.4258 -0.2597
 5946SOL    HW118737   0.662   6.841   5.632 -0.0985  0.3606 -0.6319
 5946SOL    HW218738   0.679   6.679   5.621  0.2753  0.3691 -0.2287
 5947SOL     OW18739   0.479   0.478   0.536 -0.6215  0.0750  0.6487
 5947SOL    HW118740   0.539   0.545   0.492 -0.7472  0.1571  0.6031
 5947SOL    HW218741   0.420   0.524   0.602 -0.4175 -0.0503  0.9243
 5948SOL     OW18742   3.622   6.950   2.218  0.4213 -0.2892 -0.8301
 5948SOL    HW118743   3.539   6.901   2.244  0.8215 -0.7750 -0.4658
 5948SOL    HW218744   3.598   7.023   2.154 -0.1843 -0.9334 -1.3546
 5949SOL     OW18745   0.512   4.930   6.301  0.1846 -0.4258  0.5950
 5949SOL    HW118746   0.606   4.928   6.336  0.0561 -0.2187  0.9570
 5949SOL    HW218747   0.455   4.985   6.362  0.3666  1.5768 -0.9159
 5950SOL     OW18748   5.250   4.698   6.480 -0.5608 -0.3064 -0.2556
 5950SOL    HW118749   5.251   4.790   6.441 -0.9315  0.7591  2.1235
 5950SOL    HW218750   5.185   4.694   6.556 -0.5594 -2.5603 -0.2922
 5951SOL     OW18751   2.480   6.152   3.522  0.1738  0.4737  0.8285
 5951SOL    HW118752   2.456   6.059   3.550 -0.4767 -0.0603 -1.3184
 5951SOL    HW218753   2.579   6.158   3.508  0.1249 -0.1759  0.1217
 5952SOL     OW18754   5.850   1.438   5.387 -0.1416 -0.5595  0.1107
 5952SOL    HW118755   5.884   1.390   5.468  1.0096  0.6248  0.3601
 5952SOL    HW218756   5.751   1.454   5.397 -0.1211 -0.9260  1.0122
 5953SOL     OW18757   1.736   0.059   5.524  0.8397 -0.0040  0.0840
 5953SOL    HW118758   1.657   0.011   5.486  1.7428 -1.7030  0.2298
 5953SOL    HW218759   1.770   0.126   5.458 -0.3195  0.2702 -0.2427
 5954SOL     OW18760   2.194   0.062   5.848 -0.3841 -0.0134 -0.3463
 5954SOL    HW118761   2.197   0.160   5.832 -0.1453 -0.1221 -0.9876
 5954SOL    HW218762   2.212   0.043   5.945  0.8482  0.5066 -0.4526
 5955SOL     OW18763   3.023   1.010   3.475 -0.0270 -0.6191  0.1631
 5955SOL    HW118764   2.940   0.954   3.480 -0.5216 -0.0501 -1.2496
 5955SOL    HW218765   3.010   1.094   3.528 -0.3104 -0.5649  0.0047
 5956SOL     OW18766   0.554   1.475   6.613 -0.4241  0.6575 -0.0267
 5956SOL    HW118767   0.466   1.490   6.567 -1.8362 -0.7991  1.9986
 5956SOL    HW218768   0.547   1.502   6.709  1.2915  0.3081  0.2351
 5957SOL     OW18769   2.232   5.734   0.751  0.0525  0.2305 -0.2966
 5957SOL    HW118770   2.244   5.646   0.705  0.5515  1.0401 -1.8243
 5957SOL    HW218771   2.154   5.782   0.711  0.8020  1.1699 -0.6756
 5958SOL     OW18772   3.833   2.088   0.607  0.4934  0.4584 -0.3721
 5958SOL    HW118773   3.799   1.995   0.598 -1.0154  1.0862 -1.5186
 5958SOL    HW218774   3.901   2.092   0.681 -0.7811 -1.1567  0.9570
 5959SOL     OW18775   4.953   6.389   3.263  0.3045 -0.1913 -0.0427
 5959SOL    HW118776   4.937   6.372   3.166  1.3790 -0.2429 -0.2206
 5959SOL    HW218777   5.008   6.471   3.275  2.2951 -1.5060  0.3577
 5960SOL     OW18778   2.246   5.993   1.290 -0.2303 -0.2688 -0.2272
 5960SOL    HW118779   2.149   5.968   1.287 -0.5940  1.1483 -1.5662
 5960SOL    HW218780   2.289   5.951   1.370 -1.8747 -1.1301  0.2490
 5961SOL     OW18781   5.650   6.479   2.321 -0.2784  0.2459  0.1941
 5961SOL    HW118782   5.551   6.474   2.335 -0.2816  0.8318  0.3982
 5961SOL    HW218783   5.669   6.478   2.223 -0.4472 -0.4737  0.1622
 5962SOL     OW18784   4.258   1.630   2.181  0.0364  0.3926 -0.1074
 5962SOL    HW118785   4.256   1.681   2.095 -0.9300 -1.1619 -1.0497
 5962SOL    HW218786   4.179   1.656   2.237  0.3276  0.9534  0.0513
 5963SOL     OW18787   0.577   2.447   4.323  0.3086  0.0274 -0.3841
 5963SOL    HW118788   0.608   2.482   4.411  0.9925  0.3338 -0.7415
 5963SOL    HW218789   0.656   2.425   4.266  0.0113 -3.4955  0.3311
 5964SOL     OW18790   3.659   0.085   4.000  0.0684 -0.7344  0.5055
 5964SOL    HW118791   3.728   0.015   4.019  1.6339  0.9987  1.6861
 5964SOL    HW218792   3.574   0.062   4.046  0.4129 -2.0504  0.5154
 5965SOL     OW18793   0.105   3.093   2.102  0.2281 -0.4125 -0.3873
 5965SOL    HW118794   0.008   3.068   2.102  0.6532 -2.1562 -0.7784
 5965SOL    HW218795   0.141   3.088   2.009  0.8924 -0.5746 -0.1268
 5966SOL     OW18796   1.273   6.226   4.409  0.1424 -0.0643 -0.5730
 5966SOL    HW118797   1.231   6.145   4.452 -0.0514 -0.4234 -1.4188
 5966SOL    HW218798   1.372   6.224   4.425 -0.1740  1.1798  2.0880
 5967SOL     OW18799   0.995   0.638   6.104 -0.3675  0.3138 -0.1386
 5967SOL    HW118800   1.002   0.733   6.134 -2.6051  0.7642 -0.8679
 5967SOL    HW218801   0.925   0.630   6.033  0.6413 -1.6970 -1.0090
 5968SOL     OW18802   3.588   2.549   0.914  0.2219 -0.1711 -0.2747
 5968SOL    HW118803   3.518   2.570   0.981  1.8074 -0.7053  1.6244
 5968SOL    HW218804   3.568   2.460   0.872 -0.7198  0.1235 -0.4910
 5969SOL     OW18805   1.160   4.521   3.719  0.6703 -0.7869 -0.4003
 5969SOL    HW118806   1.102   4.445   3.748 -0.2431 -0.3231 -0.9776
 5969SOL    HW218807   1.249   4.486   3.690  2.2702 -1.2492  4.2130
 5970SOL     OW18808   2.422   0.875   4.601  0.0266 -0.2185  0.3750
 5970SOL    HW118809   2.339   0.859   4.654  0.2162 -0.2941  0.6517
 5970SOL    HW218810   2.402   0.939   4.527 -0.1146  0.3065  0.8588
 5971SOL     OW18811   2.165   4.814   1.715 -0.1277  0.0959 -0.0556
 5971SOL    HW118812   2.143   4.730   1.666  1.0737  0.3096 -1.0088
 5971SOL    HW218813   2.130   4.809   1.808  1.2766 -2.1167  0.4099
 5972SOL     OW18814   4.400   2.355   0.331 -0.0079 -0.4355  0.5048
 5972SOL    HW118815   4.393   2.442   0.280 -2.5148 -0.9835 -0.1888
 5972SOL    HW218816   4.372   2.369   0.425 -0.0099 -0.4246  0.5026
 5973SOL     OW18817   4.556   5.050   2.954 -0.5893  0.0412 -0.0448
 5973SOL    HW118818   4.575   4.964   3.001  0.8258 -0.5266 -1.5365
 5973SOL    HW218819   4.614   5.122   2.993 -1.8709  0.4068  1.2945
 5974SOL     OW18820   5.520   1.128   5.407  0.3844 -0.0569 -0.6207
 5974SOL    HW118821   5.453   1.173   5.348 -0.0427  1.0832  0.6754
 5974SOL    HW218822   5.612   1.157   5.382  0.0647  3.1208  1.2766
 5975SOL     OW18823   6.557   3.601   5.327  1.5174  0.3373 -0.4063
 5975SOL    HW118824   6.622   3.543   5.279 -0.7547 -2.1117 -0.7979
 5975SOL    HW218825   6.481   3.623   5.266  0.1641 -0.0920  1.0528
 5976SOL     OW18826   3.732   3.185   6.451 -0.1082  0.2166 -0.0817
 5976SOL    HW118827   3.703   3.263   6.396 -0.9069  0.3994  0.5928
 5976SOL    HW218828   3.702   3.197   6.545  0.9795 -0.2476  0.3417
 5977SOL     OW18829   6.869   3.889   1.853 -0.1140  0.1561  0.1735
 5977SOL    HW118830   6.791   3.828   1.859  0.1767 -0.0802  3.2022
 5977SOL    HW218831   6.942   3.846   1.801 -0.4773 -1.4724  0.9461
 5978SOL     OW18832   3.539   5.880   1.828  0.2997  0.3078 -0.5359
 5978SOL    HW118833   3.541   5.931   1.742 -0.1441  1.7061  0.2488
 5978SOL    HW218834   3.458   5.821   1.829 -0.0020  0.7042 -0.8589
 5979SOL     OW18835   4.940   6.855   2.972  0.3929  0.3774  0.1587
 5979SOL    HW118836   4.911   6.931   3.029  1.9450  1.7884 -0.8244
 5979SOL    HW218837   5.009   6.887   2.907  3.7847 -2.5495  1.9896
 5980SOL     OW18838   0.630   6.708   5.279 -0.0758 -0.0684 -0.4097
 5980SOL    HW118839   0.707   6.750   5.230  0.4517 -0.2244  0.2654
 5980SOL    HW218840   0.665   6.658   5.358 -0.9862  0.8866  0.6194
 5981SOL     OW18841   4.815   1.041   0.892  0.3506 -0.0989  0.0311
 5981SOL    HW118842   4.758   1.020   0.971  1.7651 -1.3280  0.7591
 5981SOL    HW218843   4.828   1.140   0.886 -1.5908  0.2059 -0.0067
 5982SOL     OW18844   1.163   4.262   3.803 -0.2322  0.4680  0.4358
 5982SOL    HW118845   1.146   4.277   3.900 -0.3851  3.0315  0.0710
 5982SOL    HW218846   1.262   4.256   3.788 -0.2055 -3.3018  1.0863
 5983SOL     OW18847   0.258   5.690   5.238 -0.6855  0.3115  0.3609
 5983SOL    HW118848   0.238   5.704   5.141  1.5291 -0.0982 -0.2174
 5983SOL    HW218849   0.230   5.771   5.290 -1.2966  0.8042 -0.7091
 5984SOL     OW18850   1.137   5.105   0.177 -0.4177 -0.2284 -0.3073
 5984SOL    HW118851   1.191   5.140   0.254 -0.0420 -0.3187 -0.5291
 5984SOL    HW218852   1.106   5.181   0.120 -0.7687 -0.1533 -0.0267
 5985SOL     OW18853   6.443   5.685   4.371 -0.4125 -0.5579 -0.3735
 5985SOL    HW118854   6.377   5.612   4.389  0.4361 -1.3766 -0.5228
 5985SOL    HW218855   6.402   5.750   4.307 -1.1939 -0.8840 -0.2255
 5986SOL     OW18856   5.733   4.075   1.147 -0.1811  0.3305  0.3667
 5986SOL    HW118857   5.695   4.160   1.110 -1.1993  0.2500  1.1901
 5986SOL    HW218858   5.828   4.091   1.174 -0.2693  1.1279  0.2508
 5987SOL     OW18859   4.929   1.147   4.078  0.1853  0.6315  0.1419
 5987SOL    HW118860   4.937   1.077   4.007  0.5701  0.4902  0.3184
 5987SOL    HW218861   4.919   1.103   4.168  0.0023  0.8055  0.2076
 5988SOL     OW18862   5.415   1.929   0.022 -0.1785  0.0736  0.1876
 5988SOL    HW118863   5.414   2.028   0.011  1.2527  0.0642 -0.2468
 5988SOL    HW218864   5.428   1.886  -0.067  0.8263 -0.4299  0.5662
 5989SOL     OW18865   1.661   5.294   4.839  0.4773 -0.2336  0.3684
 5989SOL    HW118866   1.694   5.231   4.768  0.0576 -0.3814  0.3025
 5989SOL    HW218867   1.734   5.310   4.905 -0.1098 -2.7838  1.7939
 5990SOL     OW18868   2.517   1.472   6.776 -0.3029 -0.1181  0.6511
 5990SOL    HW118869   2.438   1.417   6.802 -1.5986  1.4021  0.1349
 5990SOL    HW218870   2.492   1.569   6.780  1.1026  0.3535 -0.8813
 5991SOL     OW18871   5.958   0.689   6.873 -0.2928  0.3103 -0.2133
 5991SOL    HW118872   6.037   0.736   6.913 -0.3547 -0.6735  1.1706
 5991SOL    HW218873   5.876   0.743   6.890  0.0008  1.1145 -1.2544
 5992SOL     OW18874   0.922   3.392   0.191 -0.0813  0.3742 -0.2176
 5992SOL    HW118875   0.848   3.424   0.132  0.2704  0.3945 -0.6507
 5992SOL    HW218876   0.994   3.351   0.136 -0.6100 -1.3911  0.3361
 5993SOL     OW18877   0.636   2.308   3.986 -0.4659 -0.2426  0.5420
 5993SOL    HW118878   0.569   2.380   4.004  1.2953  1.5253  0.3237
 5993SOL    HW218879   0.660   2.310   3.889  0.4900 -0.3101  0.7733
 5994SOL     OW18880   4.736   6.797   0.040  0.1397 -0.2661 -0.2184
 5994SOL    HW118881   4.712   6.727   0.108  0.8657  0.1395  0.4707
 5994SOL    HW218882   4.700   6.770  -0.049 -0.0183 -1.2774  0.1332
 5995SOL     OW18883   4.122   5.396   6.921  0.0232 -0.4617 -0.1025
 5995SOL    HW118884   4.092   5.307   6.888  0.3470  0.0755 -1.9973
 5995SOL    HW218885   4.126   5.396   7.021  0.1703 -2.6007 -0.0707
 5996SOL     OW18886   3.575   1.660   1.323 -0.8400 -0.3612  0.7361
 5996SOL    HW118887   3.674   1.674   1.322 -1.0616  1.4209 -0.7011
 5996SOL    HW218888   3.539   1.676   1.415  0.0860 -0.0668  1.0507
 5997SOL     OW18889   3.863   1.069   6.130  0.7376  0.4492  0.1747
 5997SOL    HW118890   3.866   1.169   6.125  0.8869  0.3841 -2.7552
 5997SOL    HW218891   3.770   1.040   6.153  0.3371  1.2596 -0.3534
 5998SOL     OW18892   0.833   3.820   3.477  0.0809  0.4333  0.3580
 5998SOL    HW118893   0.903   3.830   3.548 -0.4624 -0.1550  0.9878
 5998SOL    HW218894   0.871   3.767   3.401 -0.1360 -1.2848  1.3905
 5999SOL     OW18895   0.420   3.152   2.710 -0.1700 -0.6865 -0.2379
 5999SOL    HW118896   0.465   3.207   2.781  0.9976 -0.1808 -1.3545
 5999SOL    HW218897   0.411   3.206   2.627 -1.1756 -1.4150 -0.6216
 6000SOL     OW18898   4.511   5.405   2.155 -0.2880 -0.0204  0.9168
 6000SOL    HW118899   4.575   5.380   2.228 -0.1421 -0.7097  0.5577
 6000SOL    HW218900   4.557   5.468   2.092  1.0214 -2.5813 -0.8557
 6001SOL     OW18901   1.189   1.688   2.735 -0.0408  0.1641 -0.8225
 6001SOL    HW118902   1.284   1.655   2.729 -0.0065  0.0665  0.1727
 6001SOL    HW218903   1.129   1.624   2.686  0.4339  0.3742 -1.6962
 6002SOL     OW18904   2.385   5.643   4.236 -0.2604  0.2749  0.0118
 6002SOL    HW118905   2.360   5.668   4.330 -0.3242  2.7635 -0.6269
 6002SOL    HW218906   2.484   5.625   4.232 -0.4993 -1.4273  0.8358
 6003SOL     OW18907   0.432   3.471   4.221  0.6890  0.3452 -0.2182
 6003SOL    HW118908   0.349   3.490   4.168  0.5435 -1.3435 -0.6674
 6003SOL    HW218909   0.465   3.555   4.264 -0.4020  1.3349 -1.2584
 6004SOL     OW18910   3.717   3.918   5.501  0.6125  0.5043 -0.1034
 6004SOL    HW118911   3.727   3.998   5.560 -1.6817  0.7790 -0.0122
 6004SOL    HW218912   3.630   3.923   5.453  1.7699 -0.4651 -2.4227
 6005SOL     OW18913   3.000   0.694   2.263  0.1334 -0.4783  0.0498
 6005SOL    HW118914   2.984   0.726   2.357 -1.5017 -0.7425 -0.1014
 6005SOL    HW218915   3.029   0.599   2.265  1.2967 -0.1327  0.3274
 6006SOL     OW18916   1.780   5.615   4.805  0.2838 -0.1989  0.3942
 6006SOL    HW118917   1.814   5.550   4.737 -1.8344  0.9041 -1.8831
 6006SOL    HW218918   1.689   5.587   4.836 -0.2981  1.1714  0.0170
 6007SOL     OW18919   0.356   6.631   4.883 -0.0039  0.3198 -0.3123
 6007SOL    HW118920   0.346   6.731   4.881 -1.3979  0.2178  0.2693
 6007SOL    HW218921   0.322   6.592   4.798 -3.0765  0.1171  0.8963
 6008SOL     OW18922   3.366   0.602   3.093 -0.3595 -0.6457 -0.2642
 6008SOL    HW118923   3.377   0.604   2.993  1.4538  0.6700 -0.0832
 6008SOL    HW218924   3.429   0.534   3.132 -0.1116 -0.2259  0.0728
 6009SOL     OW18925   2.753   6.133   4.026  0.3809 -0.0495  0.2491
 6009SOL    HW118926   2.780   6.151   3.932  0.0465 -0.7183  0.0182
 6009SOL    HW218927   2.804   6.193   4.088  0.8968  0.1050 -0.3223
 6010SOL     OW18928   5.861   0.001   0.671  0.0429 -0.0026 -0.2803
 6010SOL    HW118929   5.867   0.101   0.676  1.5476 -0.0823  0.1729
 6010SOL    HW218930   5.776  -0.029   0.713 -0.0784  1.0473  0.2691
 6011SOL     OW18931   6.167   6.797   5.923 -0.2529 -0.1800 -0.3095
 6011SOL    HW118932   6.181   6.749   6.010 -2.1119  0.0823  0.1592
 6011SOL    HW218933   6.241   6.864   5.911 -0.4901  0.4919  1.5656
 6012SOL     OW18934   5.217   3.793   1.064 -0.4008 -0.0513  0.3605
 6012SOL    HW118935   5.222   3.807   1.163 -0.1809 -1.4627  0.5606
 6012SOL    HW218936   5.227   3.881   1.017 -0.7982  0.6671  1.5932
 6013SOL     OW18937   5.866   5.811   6.372  0.0250  0.6216 -0.3381
 6013SOL    HW118938   5.895   5.857   6.457  1.2244  1.2387 -1.0401
 6013SOL    HW218939   5.930   5.836   6.299 -0.2845 -0.8655 -1.1422
 6014SOL     OW18940   4.204   7.007   5.255 -0.1761 -0.6577 -0.1426
 6014SOL    HW118941   4.183   7.080   5.190  0.2260  1.0792  1.5888
 6014SOL    HW218942   4.119   6.964   5.285 -0.5743  0.2507  0.0757
 6015SOL     OW18943   1.327   0.945   5.093 -0.4145 -0.4766  0.3534
 6015SOL    HW118944   1.228   0.936   5.084 -0.6091  1.0498  0.6169
 6015SOL    HW218945   1.361   1.005   5.021  0.3385 -1.0515  0.2189
 6016SOL     OW18946   3.633   2.167   4.136 -0.1378  0.5952 -0.0529
 6016SOL    HW118947   3.635   2.198   4.041 -0.5533 -0.1817 -0.3217
 6016SOL    HW218948   3.660   2.071   4.141  0.0943  0.6885  0.6405
 6017SOL     OW18949   1.599   3.261   4.428  0.1520 -0.1751  0.4708
 6017SOL    HW118950   1.566   3.167   4.424  2.2286 -1.0167  1.2851
 6017SOL    HW218951   1.608   3.289   4.524 -1.6792  1.3759  0.2490
 6018SOL     OW18952   2.589   3.380   6.676 -0.5954  0.2386 -0.2304
 6018SOL    HW118953   2.534   3.310   6.722 -0.3951  0.5917  0.5821
 6018SOL    HW218954   2.551   3.400   6.586 -0.3633 -1.2753 -0.6851
 6019SOL     OW18955   1.266   5.697   3.511  0.1298 -0.0246  0.3376
 6019SOL    HW118956   1.329   5.663   3.581 -0.9991 -1.0354  0.9003
 6019SOL    HW218957   1.292   5.660   3.422  1.4203  1.0582  0.2290
 6020SOL     OW18958   5.195   2.271   6.644  0.9713  0.1525  0.2425
 6020SOL    HW118959   5.125   2.334   6.610 -0.3009 -1.5863 -0.5424
 6020SOL    HW218960   5.239   2.226   6.566 -0.8113 -2.6591  0.7032
 6021SOL     OW18961   0.878   1.245   2.893 -0.3249  0.2039  0.3239
 6021SOL    HW118962   0.787   1.217   2.924  0.3759 -2.9680 -0.1339
 6021SOL    HW218963   0.913   1.317   2.953 -1.8788 -0.6824  2.4278
 6022SOL     OW18964   0.318   6.737   6.975  0.0844 -0.4635  0.0490
 6022SOL    HW118965   0.264   6.663   6.935 -0.0983 -0.5492  0.4555
 6022SOL    HW218966   0.257   6.808   7.012  0.2576  0.1629 -0.8329
 6023SOL     OW18967   2.446   5.707   3.957 -0.3379  0.2806 -0.3533
 6023SOL    HW118968   2.400   5.705   4.046 -2.2245 -1.2443 -1.3051
 6023SOL    HW218969   2.417   5.788   3.906 -0.3609  0.3991 -0.1519
 6024SOL     OW18970   3.652   4.302   6.484 -0.1433 -0.3218 -0.1148
 6024SOL    HW118971   3.629   4.382   6.539 -0.0647  0.4931 -1.2310
 6024SOL    HW218972   3.571   4.245   6.471 -0.5530  0.3416 -0.5190
 6025SOL     OW18973   6.747   2.284   0.188 -0.2486 -0.3306  0.0725
 6025SOL    HW118974   6.789   2.370   0.214  0.0303 -0.1378 -0.9580
 6025SOL    HW218975   6.678   2.258   0.256 -2.8549  2.4538 -1.2643
 6026SOL     OW18976   6.442   5.070   2.294 -0.2058  0.1127 -0.4306
 6026SOL    HW118977   6.390   5.076   2.379 -0.9576  0.9793 -0.9311
 6026SOL    HW218978   6.515   5.003   2.304 -0.0680  0.4405  1.0109
 6027SOL     OW18979   2.029   3.470   1.021 -0.3594  0.4973 -0.7434
 6027SOL    HW118980   2.016   3.564   1.054  1.2162  0.5793 -0.2521
 6027SOL    HW218981   2.124   3.442   1.038 -0.0417 -0.2307 -3.3047
 6028SOL     OW18982   2.443   3.800   6.545 -0.3328  0.1495  0.1127
 6028SOL    HW118983   2.432   3.897   6.523  1.0879  0.2718 -0.1929
 6028SOL    HW218984   2.443   3.788   6.644  1.1433  0.7247  0.2109
 6029SOL     OW18985   6.296   4.403   0.642  0.2233 -0.2284  0.3726
 6029SOL    HW118986   6.242   4.412   0.558  0.7478 -2.6005 -0.3034
 6029SOL    HW218987   6.246   4.346   0.707  0.8318 -0.3470  0.7397
 6030SOL     OW18988   1.959   1.330   6.540 -0.1501 -0.5027  0.1046
 6030SOL    HW118989   1.862   1.308   6.543 -0.8885  2.3063 -0.5314
 6030SOL    HW218990   1.987   1.368   6.628  0.1137 -0.3353 -0.0515
 6031SOL     OW18991   1.930   0.907   2.949 -0.3904 -0.4826 -0.1094
 6031SOL    HW118992   1.866   0.957   3.007  1.3592  1.2954  0.4350
 6031SOL    HW218993   1.960   0.967   2.874  2.3673 -0.3164  1.0028
 6032SOL     OW18994   0.602   1.174   2.870  0.4432 -0.0034 -0.6124
 6032SOL    HW118995   0.525   1.155   2.930 -0.8669  0.3258 -2.1323
 6032SOL    HW218996   0.640   1.089   2.836  0.4382 -0.1437 -0.2761
 6033SOL     OW18997   3.977   6.078   2.637 -0.5643 -0.2711  0.1056
 6033SOL    HW118998   3.950   6.133   2.716 -0.2675  1.2914 -0.8322
 6033SOL    HW218999   3.901   6.074   2.572 -0.2023  0.0018 -0.3412
 6034SOL     OW19000   1.333   5.417   4.655  0.0828  0.8273  0.4637
 6034SOL    HW119001   1.325   5.317   4.651  1.3388  0.6694  1.3216
 6034SOL    HW219002   1.341   5.453   4.562  0.7722  0.0096  0.1923
 6035SOL     OW19003   1.406   1.413   2.207  0.0741 -0.0122 -0.1254
 6035SOL    HW119004   1.352   1.442   2.128 -2.0637  0.2089  1.3536
 6035SOL    HW219005   1.412   1.489   2.272  0.3640 -0.7255  0.6916
 6036SOL     OW19006   1.671   6.524   3.476 -0.1201 -0.0151 -0.0019
 6036SOL    HW119007   1.724   6.510   3.560 -1.4654  0.2125  0.9227
 6036SOL    HW219008   1.620   6.440   3.455 -0.2303  0.1155 -0.2613
 6037SOL     OW19009   6.673   1.917   5.506 -0.0915  0.2533 -0.1945
 6037SOL    HW119010   6.631   1.845   5.562 -0.3644  0.1686 -0.5039
 6037SOL    HW219011   6.613   1.937   5.428  0.3184  0.3262 -0.4912
 6038SOL     OW19012   0.870   3.246   1.985 -0.0450 -0.4037 -0.1734
 6038SOL    HW119013   0.959   3.289   1.970  0.1254 -0.9731 -0.8498
 6038SOL    HW219014   0.798   3.304   1.948  0.1186 -0.3257 -0.3703
 6039SOL     OW19015   3.554   3.533   5.146  0.2357  0.2063 -0.7033
 6039SOL    HW119016   3.464   3.517   5.107 -0.2987  0.1080  0.5019
 6039SOL    HW219017   3.544   3.575   5.237  1.3983  0.1877 -0.5464
 6040SOL     OW19018   4.519   2.325   4.132 -0.0240 -0.1965  0.2768
 6040SOL    HW119019   4.531   2.421   4.109 -0.6004  0.0927  1.1487
 6040SOL    HW219020   4.428   2.310   4.170  0.5891 -0.7817  1.6150
 6041SOL     OW19021   6.895   6.530   4.349  0.5565  0.1134  0.4876
 6041SOL    HW119022   6.938   6.529   4.259 -0.6440  0.4222 -0.1059
 6041SOL    HW219023   6.796   6.537   4.339  0.3915  0.0439  1.8363
 6042SOL     OW19024   0.408   3.013   5.190 -0.9412 -0.0384  0.1334
 6042SOL    HW119025   0.493   2.986   5.234 -0.7127  2.0640  1.0870
 6042SOL    HW219026   0.423   3.023   5.092 -0.2469 -0.2483  0.2114
 6043SOL     OW19027   4.204   4.818   5.887 -0.0050 -0.0981  0.2422
 6043SOL    HW119028   4.123   4.876   5.891  1.1885  1.5813  1.0041
 6043SOL    HW219029   4.214   4.769   5.974 -0.2457 -0.3962  0.1052
 6044SOL     OW19030   2.912   1.122   4.256  0.3378  0.0076 -0.0412
 6044SOL    HW119031   3.010   1.132   4.238  0.9737 -0.9365  2.4524
 6044SOL    HW219032   2.873   1.211   4.279  0.4832  0.4449 -1.3516
 6045SOL     OW19033   5.433   6.338   2.037 -0.4191  0.2329 -0.1571
 6045SOL    HW119034   5.533   6.342   2.041 -0.3869  0.8401 -1.0932
 6045SOL    HW219035   5.406   6.272   1.967 -0.6333  1.2526 -1.0592
 6046SOL     OW19036   3.643   1.113   2.333 -0.7746 -0.0516  0.5804
 6046SOL    HW119037   3.652   1.178   2.408 -2.1147 -0.5271  1.1824
 6046SOL    HW219038   3.646   1.020   2.368  2.5843 -0.4500 -0.4295
 6047SOL     OW19039   3.286   2.093   2.775  0.3246 -0.6379  0.0095
 6047SOL    HW119040   3.344   2.011   2.773  1.6857  0.2958 -0.0571
 6047SOL    HW219041   3.263   2.115   2.869  1.8153  0.1360  0.2261
 6048SOL     OW19042   4.140   4.543   1.782 -0.8666 -0.1453 -0.4591
 6048SOL    HW119043   4.140   4.484   1.864  0.9229 -1.3006 -1.2166
 6048SOL    HW219044   4.048   4.576   1.765 -1.5254 -0.9409  1.2799
 6049SOL     OW19045   3.791   5.761   0.531 -0.2535 -0.6144 -0.1640
 6049SOL    HW119046   3.702   5.769   0.486 -0.3820 -0.3658  0.1307
 6049SOL    HW219047   3.777   5.727   0.624 -0.3146  2.1233  0.8883
 6050SOL     OW19048   5.698   2.903   3.464  0.1323  0.5244 -0.0335
 6050SOL    HW119049   5.690   2.841   3.386 -0.7649  1.4538 -0.7115
 6050SOL    HW219050   5.789   2.894   3.505 -0.6866 -2.9448  1.3965
 6051SOL     OW19051   2.739   5.015   1.360  0.6666 -0.3306 -0.0038
 6051SOL    HW119052   2.754   5.114   1.364 -2.2150  0.2162 -0.6174
 6051SOL    HW219053   2.744   4.984   1.265 -1.4053 -0.1633 -0.2101
 6052SOL     OW19054   0.540   1.951   3.427  0.5020 -0.3476  0.1172
 6052SOL    HW119055   0.487   2.011   3.367  0.7461  1.0847  1.2701
 6052SOL    HW219056   0.512   1.856   3.413  0.9877 -0.1429 -2.6550
 6053SOL     OW19057   4.066   5.792   4.322 -1.1068 -0.7046  0.1995
 6053SOL    HW119058   4.112   5.721   4.376 -1.6554 -2.1073 -1.1209
 6053SOL    HW219059   4.008   5.847   4.383  1.6104  0.6520  1.7951
 6054SOL     OW19060   3.273   6.726   5.653  0.2163  0.3987  0.0611
 6054SOL    HW119061   3.288   6.719   5.555  1.8640  1.2020  0.2204
 6054SOL    HW219062   3.309   6.814   5.686 -1.0946  0.5241  1.2522
 6055SOL     OW19063   0.148   6.165   5.669 -0.4461  0.5766  0.6542
 6055SOL    HW119064   0.224   6.173   5.733  0.6483 -0.0295 -0.5268
 6055SOL    HW219065   0.130   6.254   5.627  0.9664  0.3441 -0.5239
 6056SOL     OW19066   0.501   4.585   1.593 -0.1145  0.4089 -0.0838
 6056SOL    HW119067   0.481   4.644   1.515 -1.4185  0.6899  0.4365
 6056SOL    HW219068   0.488   4.636   1.678  0.7329 -0.0512  0.3307
 6057SOL     OW19069   6.675   6.021   6.427 -0.1203  0.6830  0.3105
 6057SOL    HW119070   6.612   6.096   6.445 -0.5000  0.5627 -0.5105
 6057SOL    HW219071   6.755   6.030   6.486 -0.8118  0.9390  1.2222
 6058SOL     OW19072   2.475   1.755   2.965 -0.0200 -0.1318 -0.2723
 6058SOL    HW119073   2.430   1.690   2.904  0.5353 -0.9724  0.1809
 6058SOL    HW219074   2.492   1.841   2.917 -2.8600  0.5425 -0.2027
 6059SOL     OW19075   1.360   6.935   5.316  0.3858  0.0779  1.2092
 6059SOL    HW119076   1.337   6.965   5.223  1.1105 -2.0805  0.2844
 6059SOL    HW219077   1.280   6.946   5.375 -0.3093  0.7869  0.1731
 6060SOL     OW19078   1.631   1.534   4.869 -0.0790  0.5498 -0.4730
 6060SOL    HW119079   1.535   1.555   4.851 -0.2015  0.9430  0.6041
 6060SOL    HW219080   1.685   1.619   4.868 -0.1019  0.6059  1.0076
 6061SOL     OW19081   3.668   4.396   6.181 -0.1348 -0.3480  0.1485
 6061SOL    HW119082   3.603   4.428   6.112 -0.0365 -1.5666 -0.5527
 6061SOL    HW219083   3.662   4.453   6.262 -2.0324 -0.3838  0.0721
 6062SOL     OW19084   1.954   1.918   6.727  0.0826  0.8415  0.3254
 6062SOL    HW119085   1.995   1.831   6.756  0.8964  1.3562  0.7497
 6062SOL    HW219086   2.008   1.958   6.653 -0.0312  1.2143  0.4404
 6063SOL     OW19087   5.488   3.261   4.243 -0.0781 -0.1942  0.0652
 6063SOL    HW119088   5.487   3.285   4.340  0.0385  0.3037 -0.0509
 6063SOL    HW219089   5.534   3.174   4.230 -0.9678 -0.7512  0.5616
 6064SOL     OW19090   5.762   3.273   3.689 -0.2864  0.5251  0.3577
 6064SOL    HW119091   5.854   3.233   3.680 -0.1848  1.0601 -1.1116
 6064SOL    HW219092   5.704   3.242   3.615 -1.3016  0.2304  1.2566
 6065SOL     OW19093   6.422   5.870   6.906  0.1786  0.2427 -0.0107
 6065SOL    HW119094   6.483   5.798   6.871 -0.4183  0.0754 -0.7495
 6065SOL    HW219095   6.447   5.957   6.865  1.2387  0.5749  1.2882
 6066SOL     OW19096   0.650   6.735   4.573 -0.0684  0.1553 -0.2525
 6066SOL    HW119097   0.597   6.650   4.564  1.4110 -0.6689 -1.7157
 6066SOL    HW219098   0.707   6.730   4.654 -0.7093  0.1894  0.2103
 6067SOL     OW19099   6.000   3.776   2.440 -0.1477  0.1785  0.0790
 6067SOL    HW119100   6.084   3.797   2.490 -0.1229 -1.2772  0.6990
 6067SOL    HW219101   6.023   3.726   2.357 -0.4184 -0.5046  0.4147
 6068SOL     OW19102   5.327   0.740   4.021  0.4598 -0.0510 -0.2077
 6068SOL    HW119103   5.404   0.693   3.978 -0.6805 -0.9773 -1.3223
 6068SOL    HW219104   5.242   0.692   3.998 -0.2648 -0.4171  2.8398
 6069SOL     OW19105   5.694   5.975   1.983 -0.3995  0.0101  0.4568
 6069SOL    HW119106   5.701   6.044   2.056 -0.9880  1.1982 -0.5676
 6069SOL    HW219107   5.775   5.916   1.986  0.8720  1.6572  0.4754
 6070SOL     OW19108   5.623   2.929   4.177  0.1923  0.3172 -0.0636
 6070SOL    HW119109   5.630   2.836   4.214  1.1217  0.0789 -0.8020
 6070SOL    HW219110   5.615   2.994   4.253 -1.4233 -0.4061  0.4503
 6071SOL     OW19111   0.164   6.821   1.471  0.0763  0.8743  0.3195
 6071SOL    HW119112   0.138   6.873   1.552  0.2600 -1.5899  2.0731
 6071SOL    HW219113   0.242   6.763   1.493 -1.5718 -1.9002 -0.7259
 6072SOL     OW19114   2.427   6.185   0.241 -0.3778 -0.4233  0.0372
 6072SOL    HW119115   2.505   6.248   0.237  1.2834 -2.3261  1.1054
 6072SOL    HW219116   2.450   6.101   0.193 -0.9187 -1.9000  2.2609
 6073SOL     OW19117   6.077   3.733   5.590  0.1341  1.0653  0.2339
 6073SOL    HW119118   5.994   3.677   5.598  1.5719 -1.5246 -1.3702
 6073SOL    HW219119   6.078   3.778   5.500  0.4970  1.0406  0.2244
 6074SOL     OW19120   5.782   4.234   6.317  0.4722 -0.4756 -0.3494
 6074SOL    HW119121   5.763   4.138   6.336 -0.0602 -0.6424 -1.6252
 6074SOL    HW219122   5.713   4.292   6.361 -0.1893 -0.7903 -0.9537
 6075SOL     OW19123   1.823   5.113   5.509 -0.0915  0.1730 -0.0145
 6075SOL    HW119124   1.751   5.045   5.526 -0.4557  0.1811 -1.3752
 6075SOL    HW219125   1.805   5.194   5.564  0.7915 -1.0881  2.2527
 6076SOL     OW19126   3.988   6.007   4.484  0.3067  0.1703  0.2154
 6076SOL    HW119127   4.031   6.037   4.569  0.3909 -0.7213  0.5013
 6076SOL    HW219128   3.908   6.063   4.465  0.9856  1.1792  0.2296
 6077SOL     OW19129   4.131   0.199   6.998 -0.0909  0.7736 -0.3443
 6077SOL    HW119130   4.071   0.277   6.979  0.5077  1.4804  0.5461
 6077SOL    HW219131   4.226   0.231   7.007  0.4587 -0.3302 -1.8089
 6078SOL     OW19132   4.778   2.230   1.151  0.3882 -0.4561  0.2613
 6078SOL    HW119133   4.725   2.159   1.198 -1.1425  1.1343  1.0906
 6078SOL    HW219134   4.798   2.304   1.215  2.7919 -0.5265 -0.3221
 6079SOL     OW19135   2.123   5.799   1.000  0.2062  0.0787  0.1406
 6079SOL    HW119136   2.170   5.766   0.918 -0.5527 -1.6819  0.3748
 6079SOL    HW219137   2.187   5.796   1.078  0.7794  1.2810 -0.2589
 6080SOL     OW19138   5.737   1.964   4.726  0.1150 -0.1667  0.2162
 6080SOL    HW119139   5.707   2.018   4.648 -1.0865  1.1008  1.4911
 6080SOL    HW219140   5.789   1.885   4.694 -0.3958  0.2723 -1.8440
 6081SOL     OW19141   5.795   0.877   5.826 -0.2862 -0.4433  0.4355
 6081SOL    HW119142   5.762   0.927   5.906  0.0182 -0.1648  0.3928
 6081SOL    HW219143   5.719   0.832   5.781 -0.4614 -0.6025  0.8829
 6082SOL     OW19144   5.331   6.236   5.505 -0.2010 -0.0778 -0.3580
 6082SOL    HW119145   5.429   6.249   5.491 -0.4179  1.6254 -0.5125
 6082SOL    HW219146   5.280   6.283   5.433 -1.1449 -1.3243 -0.5466
 6083SOL     OW19147   6.940   6.767   2.020 -0.1312 -0.0876  0.1046
 6083SOL    HW119148   6.987   6.682   1.997  1.1103  1.0419 -1.7576
 6083SOL    HW219149   7.003   6.828   2.068 -0.4936  0.4380 -0.0803
 6084SOL     OW19150   4.378   6.807   2.204  0.3058  0.2579 -0.2258
 6084SOL    HW119151   4.290   6.787   2.162  0.9135  0.2389 -1.5701
 6084SOL    HW219152   4.409   6.729   2.258  0.3048 -0.4470 -1.2179
 6085SOL     OW19153   4.553   1.394   3.503  0.0128  0.0746 -0.4977
 6085SOL    HW119154   4.629   1.455   3.526 -0.3252  0.6304 -0.8009
 6085SOL    HW219155   4.589   1.306   3.474  0.5520  0.3724 -0.7657
 6086SOL     OW19156   1.888   0.701   4.862 -0.2956 -0.7628  0.7372
 6086SOL    HW119157   1.966   0.641   4.842 -0.2504 -0.5067  0.1231
 6086SOL    HW219158   1.825   0.699   4.785 -0.5580 -0.4310  0.9437
 6087SOL     OW19159   5.780   4.163   2.954 -0.4341  0.4720  0.2633
 6087SOL    HW119160   5.777   4.238   2.888  0.0255  1.7120  1.6026
 6087SOL    HW219161   5.814   4.080   2.909  1.2160  1.6337 -0.7446
 6088SOL     OW19162   2.489   3.287   1.739 -0.4979 -0.1153  0.3094
 6088SOL    HW119163   2.426   3.350   1.785  2.3507  2.5325  0.9946
 6088SOL    HW219164   2.505   3.319   1.646  0.2810 -0.3647  0.3540
 6089SOL     OW19165   5.182   2.539   0.458  0.6813 -0.0403  0.0260
 6089SOL    HW119166   5.087   2.553   0.486  0.5341  0.4757 -0.7008
 6089SOL    HW219167   5.188   2.542   0.358  1.2289 -1.6248 -0.0139
 6090SOL     OW19168   1.644   1.574   0.646  0.4611  0.0153 -0.0960
 6090SOL    HW119169   1.684   1.665   0.638 -0.0779  0.1889 -0.9581
 6090SOL    HW219170   1.613   1.559   0.740  1.4759  0.3224  0.2970
 6091SOL     OW19171   4.550   2.932   1.199  0.1723 -0.5241 -0.4456
 6091SOL    HW119172   4.556   2.928   1.099  0.1144  1.2404 -0.5566
 6091SOL    HW219173   4.455   2.922   1.227  0.3591 -2.7809 -0.4039
 6092SOL     OW19174   4.694   6.161   6.987  0.1353 -0.7462  0.0012
 6092SOL    HW119175   4.686   6.061   6.982 -0.7403 -0.6343 -1.2343
 6092SOL    HW219176   4.780   6.189   6.944 -0.2335 -0.8965 -0.8682
 6093SOL     OW19177   0.501   3.510   6.261  0.0038  0.2070  0.3636
 6093SOL    HW119178   0.510   3.591   6.202  0.7416  0.6367  1.0484
 6093SOL    HW219179   0.413   3.465   6.243 -0.6315  1.4319  0.3046
 6094SOL     OW19180   6.317   2.547   4.997  0.0121  0.0715 -0.1686
 6094SOL    HW119181   6.257   2.624   4.974 -0.0193  0.1575  0.1841
 6094SOL    HW219182   6.356   2.508   4.914  0.4680  0.8286 -0.3201
 6095SOL     OW19183   5.488   2.637   5.909  0.5574  0.7121  0.2992
 6095SOL    HW119184   5.428   2.558   5.909  1.3526  0.0858  0.7950
 6095SOL    HW219185   5.449   2.710   5.852  0.0615 -0.2132 -0.5631
 6096SOL     OW19186   2.060   0.877   1.006  0.1526  0.6272 -0.1520
 6096SOL    HW119187   2.148   0.867   1.053 -0.4005 -0.3303  0.7206
 6096SOL    HW219188   2.061   0.824   0.922  0.6083  1.1087 -0.4615
 6097SOL     OW19189   1.670   3.388   4.685  0.2533  0.3369 -0.1468
 6097SOL    HW119190   1.588   3.393   4.741 -0.3532  0.7538 -1.0452
 6097SOL    HW219191   1.748   3.361   4.741  0.0925  2.7002  1.3150
 6098SOL     OW19192   3.497   2.342   6.025 -0.0033  0.1310  0.0531
 6098SOL    HW119193   3.462   2.392   6.104 -0.2271 -0.4986  0.3573
 6098SOL    HW219194   3.424   2.285   5.987  1.1441 -2.8728  1.9926
 6099SOL     OW19195   4.716   4.333   4.805 -0.4110  0.1331 -0.0516
 6099SOL    HW119196   4.734   4.243   4.765 -0.2964 -0.6036  1.5734
 6099SOL    HW219197   4.621   4.358   4.790 -0.7167 -0.7431  0.3477
 6100SOL     OW19198   3.712   4.096   3.856  0.0218  0.0521  0.3605
 6100SOL    HW119199   3.721   4.081   3.955  0.9265  1.0137  0.4473
 6100SOL    HW219200   3.668   4.017   3.814 -0.4269 -0.3490  1.5408
 6101SOL     OW19201   1.208   1.954   0.060  0.1181 -0.5907 -0.3347
 6101SOL    HW119202   1.200   2.049   0.029  0.5906 -0.3939  0.1340
 6101SOL    HW219203   1.133   1.900   0.021  1.2869 -0.6131 -2.6969
 6102SOL     OW19204   6.289   2.773   6.010  0.2967 -0.3117  0.6034
 6102SOL    HW119205   6.330   2.859   6.040 -0.4283  0.0686  0.5305
 6102SOL    HW219206   6.268   2.778   5.913  1.4194 -1.0538  0.2966
 6103SOL     OW19207   3.565   6.291   5.208 -0.2345  0.3970 -0.1965
 6103SOL    HW119208   3.516   6.340   5.135  1.2000 -0.5450 -1.8601
 6103SOL    HW219209   3.662   6.315   5.206  0.0667 -0.6715  0.5370
 6104SOL     OW19210   3.970   4.872   3.460 -0.3310  0.6094  0.3574
 6104SOL    HW119211   3.890   4.877   3.402  0.5381  1.4192 -0.8245
 6104SOL    HW219212   4.043   4.823   3.413  0.2798  0.9636  0.9093
 6105SOL     OW19213   3.220   1.989   5.759 -0.1857  0.5688  0.2882
 6105SOL    HW119214   3.259   1.971   5.669 -1.1123 -1.3627  0.2241
 6105SOL    HW219215   3.263   1.929   5.827 -0.8321  0.6446  0.7776
 6106SOL     OW19216   0.912   3.772   6.114 -0.2386 -0.1033 -0.6212
 6106SOL    HW119217   0.953   3.681   6.121  0.5882  0.4188  3.1690
 6106SOL    HW219218   0.974   3.833   6.065  1.2176 -0.5694  0.5766
 6107SOL     OW19219   0.994   6.427   0.640  0.4348  0.2526  0.0798
 6107SOL    HW119220   1.093   6.424   0.626  0.4580 -1.2787  0.3632
 6107SOL    HW219221   0.973   6.478   0.723  1.0145  0.2567  0.2264
 6108SOL     OW19222   2.943   4.570   5.766  0.2683 -0.1245 -0.3935
 6108SOL    HW119223   2.876   4.549   5.695 -0.0703 -1.2879  0.2394
 6108SOL    HW219224   3.030   4.526   5.744  0.0415 -0.8442  0.1017
 6109SOL     OW19225   1.659   3.907   1.394  0.5783 -0.1693 -0.4558
 6109SOL    HW119226   1.658   4.005   1.411 -1.9293 -0.1030 -0.6196
 6109SOL    HW219227   1.637   3.857   1.478  1.6522 -0.6124 -0.4151
 6110SOL     OW19228   1.868   6.494   3.128  0.6344 -0.2910  0.4120
 6110SOL    HW119229   1.926   6.526   3.203  2.3679  0.5701 -1.2160
 6110SOL    HW219230   1.897   6.538   3.043 -1.9708 -0.4216 -0.6090
 6111SOL     OW19231   1.651   3.967   2.192  0.1377  0.0393 -0.2377
 6111SOL    HW119232   1.738   3.959   2.241 -0.9790  1.4877  2.1561
 6111SOL    HW219233   1.668   3.958   2.094  2.7072 -1.4812  0.2475
 6112SOL     OW19234   0.125   6.262   6.129  0.0512  0.1829 -0.2109
 6112SOL    HW119235   0.062   6.245   6.054 -2.8020  0.4877  1.9586
 6112SOL    HW219236   0.141   6.360   6.139  1.2453  0.0913 -0.9706
 6113SOL     OW19237   5.116   2.384   2.235  0.8895 -0.0564 -0.3217
 6113SOL    HW119238   5.160   2.296   2.219 -0.3545 -0.7676  0.0601
 6113SOL    HW219239   5.124   2.441   2.153  1.6067 -0.5568 -0.6112
 6114SOL     OW19240   1.135   4.850   0.515 -0.0661 -0.0762 -0.4202
 6114SOL    HW119241   1.089   4.869   0.601  0.0577 -0.6139 -0.2350
 6114SOL    HW219242   1.187   4.765   0.522  0.9278  0.4908 -0.6292
 6115SOL     OW19243   2.206   6.735   1.795  0.1569  0.2038  0.0667
 6115SOL    HW119244   2.301   6.725   1.765 -0.1218 -1.7575 -0.3297
 6115SOL    HW219245   2.179   6.654   1.848 -1.4440  0.4566 -0.3103
 6116SOL     OW19246   1.253   3.225   4.250  0.1287 -0.0217 -0.1189
 6116SOL    HW119247   1.216   3.153   4.191  0.1976  0.1706 -0.3995
 6116SOL    HW219248   1.353   3.219   4.250  0.1700  0.5782 -0.7873
 6117SOL     OW19249   5.619   6.471   6.054 -0.4272  0.4056  0.5514
 6117SOL    HW119250   5.618   6.442   5.958 -1.0747 -0.0891  0.6957
 6117SOL    HW219251   5.563   6.553   6.064 -0.5181  0.3465  0.5344
 6118SOL     OW19252   5.374   6.576   4.684  0.1063 -0.8641 -0.2619
 6118SOL    HW119253   5.349   6.578   4.587 -1.5130  0.3337  0.1352
 6118SOL    HW219254   5.291   6.576   4.739  0.9959  0.3643  1.1406
 6119SOL     OW19255   2.797   5.692   5.010 -0.5010 -0.4982  0.4082
 6119SOL    HW119256   2.810   5.753   4.933  1.7556 -0.2757  0.8878
 6119SOL    HW219257   2.741   5.614   4.982  0.3814 -0.5029 -1.5001
 6120SOL     OW19258   1.119   6.577   7.014 -0.0508  0.9354 -0.1897
 6120SOL    HW119259   1.084   6.483   7.011 -0.3415  1.0327  0.1190
 6120SOL    HW219260   1.102   6.622   6.927  1.4999  0.2036 -0.9269
 6121SOL     OW19261   3.089   2.180   1.722 -0.0192  0.1270  0.2334
 6121SOL    HW119262   3.134   2.180   1.812 -0.0535 -1.8258  0.2905
 6121SOL    HW219263   2.995   2.147   1.733  0.0866 -0.4535 -0.5435
 6122SOL     OW19264   5.023   6.159   0.939  0.1725 -0.2990 -0.2834
 6122SOL    HW119265   5.083   6.239   0.946  0.6152 -0.6123 -0.4731
 6122SOL    HW219266   4.977   6.160   0.851  1.3261 -1.0413 -0.9247
 6123SOL     OW19267   2.916   6.194   1.250  0.5766 -0.1059 -0.1482
 6123SOL    HW119268   2.941   6.113   1.196 -1.6125 -0.4619 -0.7240
 6123SOL    HW219269   2.998   6.249   1.266  1.9616 -1.9286 -0.5578
 6124SOL     OW19270   0.204   6.550   5.906 -0.1588  0.3235 -0.1380
 6124SOL    HW119271   0.177   6.530   6.001  2.2874 -0.7288  0.3961
 6124SOL    HW219272   0.302   6.568   5.902 -0.4500  1.7622 -2.3054
 6125SOL     OW19273   5.926   1.394   2.252  0.2059 -0.0474 -0.3137
 6125SOL    HW119274   5.981   1.369   2.172  1.2867  2.7551 -0.5487
 6125SOL    HW219275   5.984   1.395   2.333  0.2045  1.4792 -0.3046
 6126SOL     OW19276   2.248   5.308   2.304 -0.1227 -0.4867 -0.4186
 6126SOL    HW119277   2.304   5.358   2.237  0.0889 -0.2927 -0.1010
 6126SOL    HW219278   2.156   5.346   2.306 -0.3847 -1.0518 -1.2185
 6127SOL     OW19279   2.668   2.419   4.094  0.2657 -0.1153 -0.1994
 6127SOL    HW119280   2.731   2.353   4.052  0.1859 -0.5268  0.3147
 6127SOL    HW219281   2.623   2.472   4.023  0.6570 -0.3189 -0.6020
 6128SOL     OW19282   4.124   1.037   6.897  0.5019 -0.0671  0.5470
 6128SOL    HW119283   4.131   0.986   6.982  1.9438  0.8936  1.0421
 6128SOL    HW219284   4.028   1.055   6.876  0.0167 -2.0097  0.9042
 6129SOL     OW19285   4.996   0.046   0.234 -0.0025 -0.3651 -0.6365
 6129SOL    HW119286   5.052   0.031   0.153  0.3773 -0.5256 -0.3456
 6129SOL    HW219287   4.904   0.009   0.218  0.2634 -0.9838 -0.7560
 6130SOL     OW19288   0.013   4.862   4.799 -0.2436 -0.4217  0.6666
 6130SOL    HW119289   0.061   4.805   4.865 -1.6470 -2.8160 -0.2704
 6130SOL    HW219290   0.022   4.823   4.707 -2.0870  0.2593  0.1425
 6131SOL     OW19291   1.511   5.267   2.829  0.5627 -0.2952  0.6465
 6131SOL    HW119292   1.580   5.313   2.773  0.0882  0.5086  0.7047
 6131SOL    HW219293   1.434   5.240   2.771  0.4266 -0.1806  0.7738
 6132SOL     OW19294   0.588   5.945   6.607 -0.2477 -0.3406 -0.1605
 6132SOL    HW119295   0.579   6.039   6.575 -0.2851  1.0378  3.3801
 6132SOL    HW219296   0.646   5.893   6.544 -0.3374  1.9709 -2.2949
 6133SOL     OW19297   0.889   2.655   5.397  0.2353  0.6573  0.1085
 6133SOL    HW119298   0.986   2.635   5.377 -0.0781  1.3771 -2.4478
 6133SOL    HW219299   0.839   2.665   5.311 -2.1897  0.1070  1.3827
 6134SOL     OW19300   5.041   4.679   3.595 -0.0513  0.0937 -0.0524
 6134SOL    HW119301   5.135   4.672   3.628  0.0460  0.4957 -0.2401
 6134SOL    HW219302   4.999   4.588   3.593  0.6913 -0.2485 -1.0213
 6135SOL     OW19303   3.842   6.877   1.742 -0.0601  0.5651 -0.1684
 6135SOL    HW119304   3.805   6.830   1.822  0.7656  1.5955  0.8568
 6135SOL    HW219305   3.888   6.810   1.683  1.5190  0.0888  1.4944
 6136SOL     OW19306   1.189   1.645   3.004 -0.0364 -0.0277  0.4333
 6136SOL    HW119307   1.273   1.693   3.028  2.3532 -2.5518 -2.1092
 6136SOL    HW219308   1.174   1.650   2.905 -1.3581 -1.8751  0.4648
 6137SOL     OW19309   3.444   6.955   0.095  0.2924 -0.3047 -0.1137
 6137SOL    HW119310   3.457   7.000   0.006 -0.4812  1.7700  0.7463
 6137SOL    HW219311   3.432   6.857   0.082  0.4909 -0.0868 -2.2709
 6138SOL     OW19312   2.665   5.672   1.834  0.1511 -0.0651  0.6523
 6138SOL    HW119313   2.707   5.586   1.861  2.4677  1.5478  2.6164
 6138SOL    HW219314   2.729   5.723   1.776 -1.9314 -0.3615 -2.1087
 6139SOL     OW19315   2.241   3.478   0.367  0.5892  0.9011 -0.5695
 6139SOL    HW119316   2.143   3.487   0.353  0.1918 -0.4304  1.0460
 6139SOL    HW219317   2.289   3.549   0.316 -1.1317  0.9792 -2.1541
 6140SOL     OW19318   1.002   6.373   1.822  0.1367 -0.1294  0.4439
 6140SOL    HW119319   1.047   6.399   1.907  0.2593  2.2214 -0.2849
 6140SOL    HW219320   1.019   6.276   1.804  2.5621  0.0122  1.6011
 6141SOL     OW19321   5.663   1.025   1.067  0.5491  0.2753  0.2573
 6141SOL    HW119322   5.577   1.040   1.019 -0.0324 -0.9164  0.8780
 6141SOL    HW219323   5.728   0.980   1.005  0.1424 -0.3456  0.2666
 6142SOL     OW19324   3.594   6.947   1.327 -0.4454 -0.0312  0.6070
 6142SOL    HW119325   3.569   6.898   1.411  0.2894 -1.4473  0.0478
 6142SOL    HW219326   3.518   7.003   1.297 -0.5380  0.9554  2.5090
 6143SOL     OW19327   2.212   3.111   0.434 -0.0881  0.1269  0.1319
 6143SOL    HW119328   2.291   3.152   0.387 -0.5014 -0.5586 -1.1945
 6143SOL    HW219329   2.213   3.012   0.420 -1.2420  0.1238  0.0046
 6144SOL     OW19330   1.045   3.044   3.355  0.2151 -0.0930 -0.2635
 6144SOL    HW119331   0.990   3.005   3.282  0.5743  1.9444 -1.7187
 6144SOL    HW219332   0.986   3.071   3.431 -0.6041  0.6848 -1.1655
 6145SOL     OW19333   5.450   3.539   4.264  0.3266  0.3612 -0.1165
 6145SOL    HW119334   5.385   3.500   4.329  2.1693 -0.4975  1.2945
 6145SOL    HW219335   5.482   3.468   4.202  0.6804  0.5422 -0.1443
 6146SOL     OW19336   1.645   1.449   0.155  0.5147  0.0155 -0.7843
 6146SOL    HW119337   1.702   1.527   0.128  0.0425  0.1118 -1.5391
 6146SOL    HW219338   1.639   1.444   0.255  0.4391  1.0233 -0.7295
 6147SOL     OW19339   6.837   3.163   3.718 -0.1665  0.3961 -0.4096
 6147SOL    HW119340   6.866   3.191   3.809 -1.3107  0.4029 -0.0255
 6147SOL    HW219341   6.917   3.141   3.663  0.5572  0.6427  0.5086
 6148SOL     OW19342   3.372   4.702   5.991  0.0542 -0.0184 -0.6666
 6148SOL    HW119343   3.280   4.666   5.982 -1.0061  1.8425  1.6190
 6148SOL    HW219344   3.389   4.769   5.918 -0.8939  0.5126 -0.4211
 6149SOL     OW19345   5.967   2.725   0.453  0.0517  0.7557 -0.3821
 6149SOL    HW119346   5.993   2.822   0.448  0.9094  0.4987 -1.3473
 6149SOL    HW219347   6.019   2.673   0.385 -0.3489 -0.4008  0.1629
 6150SOL     OW19348   0.047   3.624   6.014  0.0540 -0.1634 -0.1269
 6150SOL    HW119349  -0.006   3.554   5.967  0.5548  0.4148 -1.5968
 6150SOL    HW219350   0.006   3.714   5.996  1.0590  0.2066 -0.6048
 6151SOL     OW19351   4.325   6.178   1.182 -0.1494 -0.1240 -0.3491
 6151SOL    HW119352   4.346   6.098   1.125  0.5618 -0.9404  1.0179
 6151SOL    HW219353   4.232   6.169   1.219  0.4883 -1.1561  1.0920
 6152SOL     OW19354   4.711   5.644   6.639  0.6507 -0.1491 -0.2370
 6152SOL    HW119355   4.611   5.639   6.641  0.4763  1.6472 -1.8918
 6152SOL    HW219356   4.749   5.555   6.666 -1.4075 -1.5049 -1.4744
 6153SOL     OW19357   4.732   4.740   5.356 -0.1651  0.4281 -0.6498
 6153SOL    HW119358   4.635   4.764   5.364 -0.7185 -1.9409  1.2140
 6153SOL    HW219359   4.751   4.706   5.264 -0.4836  2.9948 -1.7476
 6154SOL     OW19360   0.738   1.833   3.000 -0.1830  0.1343 -0.4637
 6154SOL    HW119361   0.680   1.897   2.950 -0.1543  3.2003  2.9173
 6154SOL    HW219362   0.818   1.882   3.035  0.3806 -2.0087  1.4910
 6155SOL     OW19363   3.281   2.182   5.955  0.0268 -0.8622 -0.5181
 6155SOL    HW119364   3.202   2.182   6.016 -0.9957 -2.8951 -1.7636
 6155SOL    HW219365   3.257   2.140   5.868  2.1461 -0.3546 -1.4249
 6156SOL     OW19366   1.112   6.940   3.827 -0.3113 -0.0122  0.0117
 6156SOL    HW119367   1.117   7.040   3.826  1.7312 -0.0517  1.2886
 6156SOL    HW219368   1.054   6.910   3.902 -0.0678  0.2163  0.2946
 6157SOL     OW19369   1.935   3.153   2.784 -0.5196  0.2331  0.2982
 6157SOL    HW119370   2.030   3.179   2.768 -0.3930 -1.0227 -1.3116
 6157SOL    HW219371   1.932   3.062   2.825 -1.0176  0.4029  0.6411
 6158SOL     OW19372   3.742   1.921   4.184  0.3245  0.1777  0.1495
 6158SOL    HW119373   3.796   1.918   4.269  0.4761  1.8115  0.1385
 6158SOL    HW219374   3.743   1.831   4.142  1.2576 -0.3730  1.2621
 6159SOL     OW19375   4.387   1.769   6.191  0.1809  0.2276 -0.0637
 6159SOL    HW119376   4.305   1.776   6.135  0.1518 -0.3467 -0.0970
 6159SOL    HW219377   4.388   1.844   6.258 -0.3778  0.2231 -0.0470
 6160SOL     OW19378   3.337   1.122   1.764  0.0016  0.0355 -0.2704
 6160SOL    HW119379   3.345   1.087   1.670  0.7094 -1.3834  0.2874
 6160SOL    HW219380   3.247   1.098   1.800  0.6326 -1.6954  0.2561
 6161SOL     OW19381   2.479   6.862   6.145 -0.2035 -0.1128  0.3379
 6161SOL    HW119382   2.527   6.891   6.062 -0.9204  0.1547  0.0066
 6161SOL    HW219383   2.425   6.939   6.181 -0.5271 -0.4551  0.6010
 6162SOL     OW19384   2.204   2.984   3.029  0.0564  0.1381  0.1991
 6162SOL    HW119385   2.106   2.968   3.022 -0.0536  1.2306 -1.2510
 6162SOL    HW219386   2.244   2.918   3.093 -1.6620 -0.0505  1.1378
 6163SOL     OW19387   2.773   0.820   1.674 -0.1015  0.1986 -0.3003
 6163SOL    HW119388   2.726   0.882   1.738  0.5749  1.3263 -0.8792
 6163SOL    HW219389   2.807   0.741   1.725  1.5334  1.6689  1.0353
 6164SOL     OW19390   5.825   1.706   6.473  0.1934 -0.1315  0.1247
 6164SOL    HW119391   5.845   1.775   6.404  0.1833 -0.2503  0.0032
 6164SOL    HW219392   5.893   1.633   6.469  0.5651  0.1706  0.6641
 6165SOL     OW19393   4.781   6.266   3.713  0.2961  0.3200 -0.5174
 6165SOL    HW119394   4.764   6.361   3.688 -1.4635 -0.4291 -2.4348
 6165SOL    HW219395   4.700   6.229   3.758  0.5338 -0.6011 -0.8304
 6166SOL     OW19396   4.419   1.335   4.924 -0.1181  0.2965 -0.1747
 6166SOL    HW119397   4.474   1.409   4.963 -1.5049  0.7193  1.0463
 6166SOL    HW219398   4.463   1.303   4.840  2.0149  0.5584  0.7600
 6167SOL     OW19399   0.232   5.632   6.810  0.2453  0.2618 -0.2070
 6167SOL    HW119400   0.287   5.550   6.796  0.7248  0.6413 -0.5687
 6167SOL    HW219401   0.246   5.696   6.734  1.0009  1.3009  0.7723
 6168SOL     OW19402   4.272   1.534   0.911  0.2506 -0.2563  0.5446
 6168SOL    HW119403   4.304   1.628   0.924 -1.5415  0.2189  1.8207
 6168SOL    HW219404   4.349   1.476   0.885  1.7343  1.2056  1.5168
 6169SOL     OW19405   5.072   1.673   3.026  0.5627 -0.3823  0.3364
 6169SOL    HW119406   5.121   1.611   2.965 -0.3071 -0.1920 -0.5778
 6169SOL    HW219407   4.984   1.634   3.050  0.2920  0.1934  0.3001
 6170SOL     OW19408   4.609   2.722   4.282 -0.3328  0.1640 -0.0863
 6170SOL    HW119409   4.665   2.748   4.361 -1.0853  1.0011  0.1856
 6170SOL    HW219410   4.538   2.657   4.310 -0.3622  0.1680 -0.1509
 6171SOL     OW19411   2.153   2.411   4.524 -0.4455 -0.4385 -0.7557
 6171SOL    HW119412   2.084   2.461   4.576  0.3501 -0.8658  0.7540
 6171SOL    HW219413   2.175   2.462   4.441  0.3628  1.7932  0.7360
 6172SOL     OW19414   5.040   5.631   3.181  0.3641 -0.0402  0.1131
 6172SOL    HW119415   4.968   5.604   3.118 -2.5351 -0.0973  3.1646
 6172SOL    HW219416   5.035   5.729   3.198 -1.0107 -0.4091  2.3968
 6173SOL     OW19417   3.542   0.016   5.969  0.1192  0.4244  0.0488
 6173SOL    HW119418   3.488  -0.058   6.011 -1.0667  0.7684 -0.8039
 6173SOL    HW219419   3.637   0.008   5.998 -0.0448 -1.2425  0.2480
 6174SOL     OW19420   2.118   2.399   0.183 -0.2709 -0.1239 -0.3115
 6174SOL    HW119421   2.112   2.495   0.211  0.3006  0.5833 -2.4538
 6174SOL    HW219422   2.037   2.375   0.129  0.9275  0.0393 -2.2462
 6175SOL     OW19423   4.669   3.131   5.312 -0.1730  0.3606 -0.6969
 6175SOL    HW119424   4.690   3.216   5.262  0.9175  0.7444  0.3698
 6175SOL    HW219425   4.709   3.053   5.264  0.9143  0.7343 -0.4406
 6176SOL     OW19426   3.501   2.763   6.017 -0.2615  0.5145  0.0824
 6176SOL    HW119427   3.583   2.712   6.043  0.3145  1.0876 -0.5807
 6176SOL    HW219428   3.520   2.861   6.018  0.5535  0.6409 -4.5517
 6177SOL     OW19429   6.739   5.862   1.865 -0.6006  0.2996  0.4453
 6177SOL    HW119430   6.733   5.885   1.767 -1.2836 -0.7364  0.2304
 6177SOL    HW219431   6.828   5.822   1.884 -0.9600 -0.7651 -0.0468
 6178SOL     OW19432   2.490   5.116   0.575 -0.4028 -0.5373 -0.3598
 6178SOL    HW119433   2.536   5.029   0.563 -0.2584 -0.3540 -1.1981
 6178SOL    HW219434   2.488   5.140   0.672  2.5818  0.1432 -0.3739
 6179SOL     OW19435   5.148   3.353   5.068 -0.8967  0.0977  0.3570
 6179SOL    HW119436   5.095   3.304   4.999 -0.8216  0.5808 -0.0480
 6179SOL    HW219437   5.118   3.448   5.072  1.0982  0.8558 -1.1237
 6180SOL     OW19438   2.615   5.557   2.105 -0.3287 -0.4009  0.5425
 6180SOL    HW119439   2.619   5.457   2.108  0.5082 -0.3612  0.9111
 6180SOL    HW219440   2.705   5.595   2.126  0.1764  0.3793 -2.5039
 6181SOL     OW19441   0.882   6.920   3.218 -0.2453 -0.2008 -0.1280
 6181SOL    HW119442   0.813   6.854   3.188  0.6500 -1.0412 -0.4143
 6181SOL    HW219443   0.861   6.951   3.311 -0.8764 -0.6064 -0.1301
 6182SOL     OW19444   5.800   2.393   4.429 -0.0499 -0.1027 -0.5183
 6182SOL    HW119445   5.713   2.345   4.439 -0.6242  1.0693  0.3213
 6182SOL    HW219446   5.835   2.379   4.336 -0.7061 -1.2571 -0.6157
 6183SOL     OW19447   2.451   2.370   4.286  0.3274 -0.0672  0.0358
 6183SOL    HW119448   2.494   2.374   4.196  0.6483 -0.1145  0.1869
 6183SOL    HW219449   2.411   2.459   4.307  0.4469  0.0087 -0.0564
 6184SOL     OW19450   6.285   2.604   3.303  0.0741  0.2954  0.2881
 6184SOL    HW119451   6.228   2.667   3.250  1.0259  1.4386  0.5876
 6184SOL    HW219452   6.345   2.553   3.241  0.8008  1.2341  0.2119
 6185SOL     OW19453   4.150   3.455   2.470  0.2327 -0.1820  0.1611
 6185SOL    HW119454   4.062   3.454   2.423  0.3826 -0.0607 -0.1205
 6185SOL    HW219455   4.209   3.526   2.431  0.8042 -0.8912 -0.2850
 6186SOL     OW19456   0.554   4.182   0.501  0.3686 -0.2581 -0.2187
 6186SOL    HW119457   0.551   4.280   0.522 -0.9904 -0.5390  1.0455
 6186SOL    HW219458   0.650   4.152   0.500  0.8860  1.2762 -1.7601
 6187SOL     OW19459   1.576   3.305   2.741  0.4163 -0.2958 -0.8878
 6187SOL    HW119460   1.659   3.328   2.691  0.5509 -0.9537 -0.9755
 6187SOL    HW219461   1.503   3.369   2.716  1.4130  1.5568  0.6719
 6188SOL     OW19462   0.779   4.872   6.351  0.0636 -0.2259  0.1696
 6188SOL    HW119463   0.828   4.956   6.375 -1.5975  0.4760  1.3119
 6188SOL    HW219464   0.844   4.799   6.334  1.5171  0.7235  1.3963
 6189SOL     OW19465   4.114   0.001   2.811  0.0201  0.5765 -0.1665
 6189SOL    HW119466   4.148   0.030   2.722  0.5987  0.1132 -0.1072
 6189SOL    HW219467   4.136  -0.096   2.825 -4.7141 -0.9909 -1.7578
 6190SOL     OW19468   2.857   2.286   3.925  0.0701  0.0894  0.0724
 6190SOL    HW119469   2.927   2.284   3.854  1.7639  1.7881  1.5675
 6190SOL    HW219470   2.860   2.202   3.978 -0.5347 -0.7640 -1.1992
 6191SOL     OW19471   6.036   3.918   3.730 -0.1806 -0.1035 -0.1591
 6191SOL    HW119472   6.084   3.921   3.818  1.4139 -0.4225 -0.9789
 6191SOL    HW219473   5.943   3.884   3.744 -0.5059  1.3429  1.6067
 6192SOL     OW19474   0.217   2.215   3.830  0.2970 -0.4525  0.2128
 6192SOL    HW119475   0.187   2.177   3.743 -1.0482 -0.8523  0.8368
 6192SOL    HW219476   0.301   2.168   3.860 -0.0530 -1.3259 -0.1531
 6193SOL     OW19477   2.247   5.058   5.357  0.2855  0.3833  0.3773
 6193SOL    HW119478   2.202   5.128   5.412  1.2563  0.7911  0.6832
 6193SOL    HW219479   2.180   4.992   5.326 -0.4765  0.8265  1.0328
 6194SOL     OW19480   0.887   1.539   4.735 -0.3196 -0.1177  0.4220
 6194SOL    HW119481   0.860   1.559   4.829  3.2132  1.7728  1.1916
 6194SOL    HW219482   0.841   1.603   4.673  0.3251  1.2819  1.3550
 6195SOL     OW19483   3.513   3.504   1.122  0.4659 -0.1559  0.6706
 6195SOL    HW119484   3.488   3.418   1.167 -0.4961 -2.3577 -3.5763
 6195SOL    HW219485   3.434   3.540   1.073  1.3892  2.1477  0.7451
 6196SOL     OW19486   6.114   6.482   1.576 -0.8384 -0.2679 -0.1915
 6196SOL    HW119487   6.090   6.410   1.642 -0.1953 -0.3638 -0.0622
 6196SOL    HW219488   6.182   6.448   1.512  0.3228  0.5708  0.5608
 6197SOL     OW19489   1.633   1.486   0.903 -0.1775 -0.1999 -0.0980
 6197SOL    HW119490   1.573   1.537   0.965  0.9371  0.8886  0.1451
 6197SOL    HW219491   1.659   1.399   0.945  0.1652  0.3039  0.7774
 6198SOL     OW19492   0.949   4.015   2.640 -0.2304  0.1674 -0.2520
 6198SOL    HW119493   0.916   4.054   2.554  2.6008  0.9495 -1.0890
 6198SOL    HW219494   1.047   3.997   2.634  0.0125 -0.1103  2.7127
 6199SOL     OW19495   5.350   1.780   2.084  0.0190 -0.2677 -0.0874
 6199SOL    HW119496   5.298   1.830   2.014  1.8132 -0.7138 -1.8087
 6199SOL    HW219497   5.292   1.709   2.124 -0.6777 -0.9032 -2.1041
 6200SOL     OW19498   6.140   5.043   2.184  0.4789  0.0031 -0.1876
 6200SOL    HW119499   6.085   5.081   2.259  1.7503  0.6101  0.4688
 6200SOL    HW219500   6.234   5.031   2.215  0.6135 -1.5798 -1.1028
 6201SOL     OW19501   5.991   3.662   5.086 -0.3964  0.2186 -0.2533
 6201SOL    HW119502   5.969   3.596   5.014 -0.8360 -2.9180  2.5016
 6201SOL    HW219503   6.047   3.736   5.049 -2.9325  0.3663 -4.3380
 6202SOL     OW19504   5.595   1.732   3.198 -0.0034  0.4464 -0.4673
 6202SOL    HW119505   5.595   1.640   3.236 -1.3178  0.7092  0.2607
 6202SOL    HW219506   5.608   1.728   3.099  0.0194 -0.5210 -0.4291
 6203SOL     OW19507   2.132   3.268   3.143 -0.8854 -0.1186 -0.1104
 6203SOL    HW119508   2.111   3.352   3.092 -0.6552 -0.3522 -0.6018
 6203SOL    HW219509   2.204   3.218   3.096 -2.4233 -1.6263 -0.9957
 6204SOL     OW19510   4.046   5.272   5.841 -0.2310  0.9668  0.0902
 6204SOL    HW119511   4.094   5.331   5.905 -0.5176  1.7904 -0.4280
 6204SOL    HW219512   4.019   5.326   5.760 -0.6330  0.1612 -0.3260
 6205SOL     OW19513   0.387   6.730   5.172  0.1572  0.0628  0.1795
 6205SOL    HW119514   0.478   6.707   5.204 -0.0318 -0.4901  0.3175
 6205SOL    HW219515   0.375   6.695   5.079 -0.0230 -0.1322  0.2763
 6206SOL     OW19516   2.282   1.725   4.064 -0.6495  0.1998 -0.6009
 6206SOL    HW119517   2.358   1.744   4.002 -1.1365 -0.2076 -1.3375
 6206SOL    HW219518   2.241   1.812   4.094  1.4260  0.5627  1.5521
 6207SOL     OW19519   1.216   4.870   0.094  0.2122  0.0043 -0.1478
 6207SOL    HW119520   1.313   4.889   0.110  0.1409  0.0054  0.2898
 6207SOL    HW219521   1.163   4.953   0.110  0.0132 -0.2829  0.7487
 6208SOL     OW19522   5.977   5.594   2.490  0.2100 -0.9637  0.0357
 6208SOL    HW119523   5.991   5.495   2.489 -1.2393 -1.3361  3.0823
 6208SOL    HW219524   6.040   5.635   2.555 -2.0135 -0.5835  2.1066
 6209SOL     OW19525   1.903   3.425   6.507 -0.1597 -0.3066  1.0348
 6209SOL    HW119526   1.814   3.448   6.546 -1.4568 -0.5111 -1.5555
 6209SOL    HW219527   1.892   3.406   6.409  2.4778 -2.0458  0.9771
 6210SOL     OW19528   6.771   2.094   5.111  0.0186 -0.1046  0.0272
 6210SOL    HW119529   6.798   2.175   5.059 -0.5292 -0.7037 -1.2401
 6210SOL    HW219530   6.678   2.067   5.085 -0.0924 -0.6976  0.9942
 6211SOL     OW19531   5.376   6.119   1.849 -0.0814  0.5839  0.2759
 6211SOL    HW119532   5.470   6.102   1.817 -0.5860 -0.9630 -0.4798
 6211SOL    HW219533   5.314   6.119   1.771 -1.1036 -1.5080  1.0126
 6212SOL     OW19534   1.339   6.427   0.780 -0.6771 -0.2231 -0.1416
 6212SOL    HW119535   1.297   6.346   0.821 -0.1044 -0.7813 -0.6401
 6212SOL    HW219536   1.434   6.407   0.756 -0.1397  0.9692  0.8295
 6213SOL     OW19537   5.811   4.892   3.237 -0.2663 -0.7995 -0.0238
 6213SOL    HW119538   5.879   4.840   3.289  1.6796  2.1091  0.6105
 6213SOL    HW219539   5.762   4.954   3.298 -1.2516 -0.5991 -0.9882
 6214SOL     OW19540   1.787   0.223   3.278 -0.8684 -0.2831 -0.5556
 6214SOL    HW119541   1.756   0.318   3.276 -0.0888  0.0236  0.6116
 6214SOL    HW219542   1.708   0.162   3.278 -1.4777  0.4458  1.3639
 6215SOL     OW19543   3.993   2.147   6.735  0.1406 -0.6335  0.1635
 6215SOL    HW119544   3.975   2.049   6.731 -0.7799 -0.4602 -0.5306
 6215SOL    HW219545   4.065   2.171   6.669  0.6871 -0.8998  0.6600
 6216SOL     OW19546   5.257   3.217   0.326  0.7621 -0.2739  0.4877
 6216SOL    HW119547   5.187   3.278   0.362  0.9257 -0.0857  0.4933
 6216SOL    HW219548   5.281   3.149   0.395 -0.9765 -1.7221 -0.2648
 6217SOL     OW19549   6.618   3.653   5.620 -0.2283  0.2587 -0.0502
 6217SOL    HW119550   6.558   3.733   5.616  0.1657  0.5279 -0.8346
 6217SOL    HW219551   6.616   3.606   5.532  0.1954 -0.1113  0.1331
 6218SOL     OW19552   4.772   0.541   3.264  0.1901  0.8746 -0.0941
 6218SOL    HW119553   4.791   0.457   3.212  1.9353  1.9297 -1.2631
 6218SOL    HW219554   4.707   0.521   3.336  0.3927 -1.4481 -0.4737
 6219SOL     OW19555   3.276   5.204   6.661  0.1418  0.2142  0.1412
 6219SOL    HW119556   3.226   5.169   6.581  1.1936 -0.0666 -0.4143
 6219SOL    HW219557   3.295   5.301   6.648  0.8600  0.0285 -0.2563
 6220SOL     OW19558   5.850   5.353   2.778 -0.0247 -0.0711 -0.2099
 6220SOL    HW119559   5.823   5.330   2.684 -0.2712 -0.3670 -0.0669
 6220SOL    HW219560   5.911   5.282   2.813 -1.7074 -1.1508  0.6509
 6221SOL     OW19561   1.349   0.373   2.110  0.0521  0.6646 -0.2964
 6221SOL    HW119562   1.421   0.386   2.041 -1.0112  0.5203 -1.4674
 6221SOL    HW219563   1.263   0.410   2.075 -0.7070 -0.2139  0.5974
 6222SOL     OW19564   0.304   6.441   1.927  0.3937  0.0347 -0.3979
 6222SOL    HW119565   0.211   6.438   1.890  0.6429 -0.4342 -1.0127
 6222SOL    HW219566   0.301   6.430   2.026 -0.0694 -2.2048 -0.6174
 6223SOL     OW19567   0.454   6.494   0.813 -0.3249 -0.4671  0.3900
 6223SOL    HW119568   0.382   6.534   0.870  0.9622  3.2768 -0.3236
 6223SOL    HW219569   0.433   6.510   0.717  2.4202  3.0158  0.1898
 6224SOL     OW19570   2.949   5.864   4.380 -0.0273 -0.1539 -0.3429
 6224SOL    HW119571   2.858   5.903   4.359 -0.3245  0.1058  1.2942
 6224SOL    HW219572   2.983   5.815   4.300 -1.6730 -0.3697 -0.9619
 6225SOL     OW19573   0.548   5.329   0.256 -0.2636  0.1312  0.3797
 6225SOL    HW119574   0.532   5.419   0.216  0.3881  0.4514  0.8114
 6225SOL    HW219575   0.623   5.335   0.322 -0.3327 -0.6930  0.5466
 6226SOL     OW19576   6.559   0.361   2.841  0.0720 -0.6206  0.0936
 6226SOL    HW119577   6.636   0.423   2.826 -0.6108  0.8716  2.1614
 6226SOL    HW219578   6.591   0.267   2.838  2.0443 -0.0471  0.9929
 6227SOL     OW19579   3.861   3.035   2.412  0.0676  0.3109  0.2420
 6227SOL    HW119580   3.938   3.084   2.454  0.1961  0.6963 -0.4277
 6227SOL    HW219581   3.804   3.100   2.362 -0.5175 -0.0261  0.4617
 6228SOL     OW19582   6.280   0.663   1.114 -0.5888 -0.4893  0.1235
 6228SOL    HW119583   6.370   0.631   1.142  0.1414  1.4755  0.2122
 6228SOL    HW219584   6.285   0.700   1.021 -1.0990  0.3112  0.3983
 6229SOL     OW19585   6.101   2.273   6.212  0.3596 -0.0815 -0.6823
 6229SOL    HW119586   6.194   2.242   6.231  0.1312 -0.4693 -0.1870
 6229SOL    HW219587   6.090   2.288   6.114  0.1441 -2.6682 -1.1107
 6230SOL     OW19588   4.134   5.243   1.248  0.0357  0.0395  0.1156
 6230SOL    HW119589   4.089   5.330   1.230  1.0065  0.5782  0.2429
 6230SOL    HW219590   4.140   5.190   1.163  0.2033  0.4590 -0.1356
 6231SOL     OW19591   5.038   0.916   5.795 -0.4123 -0.2333 -0.1242
 6231SOL    HW119592   4.981   0.925   5.877 -3.4124  0.5937 -2.1647
 6231SOL    HW219593   5.096   0.997   5.786 -1.6242  0.6834  0.0707
 6232SOL     OW19594   1.914   6.119   3.684  0.2031 -0.3074 -0.1683
 6232SOL    HW119595   1.982   6.174   3.732  1.3069 -1.0326 -0.8609
 6232SOL    HW219596   1.929   6.125   3.585  0.9633 -2.5705 -0.2402
 6233SOL     OW19597   6.792   5.045   1.538  0.2075  0.1796  0.1959
 6233SOL    HW119598   6.839   4.969   1.492  0.1373  0.4906 -0.3907
 6233SOL    HW219599   6.696   5.021   1.551  0.0138  0.4592 -0.6604
 6234SOL     OW19600   5.705   6.972   5.547 -0.1357  0.0680 -0.5945
 6234SOL    HW119601   5.704   6.951   5.645  0.3002 -0.0674 -0.6169
 6234SOL    HW219602   5.704   7.071   5.535  0.4254  0.0965 -0.4397
 6235SOL     OW19603   5.546   6.521   3.239 -0.2624 -0.0816 -0.3099
 6235SOL    HW119604   5.604   6.510   3.319 -1.7136 -1.9082  0.5580
 6235SOL    HW219605   5.459   6.564   3.266 -0.6741 -0.5037 -0.9355
 6236SOL     OW19606   5.981   5.423   5.447 -0.0794 -0.0540 -0.5446
 6236SOL    HW119607   6.014   5.413   5.354 -1.9952 -2.3529 -1.0671
 6236SOL    HW219608   6.045   5.379   5.510  1.1653  1.4139 -0.7320
 6237SOL     OW19609   4.098   3.398   3.829 -0.3141 -0.9193  0.1402
 6237SOL    HW119610   4.021   3.340   3.802 -0.3057 -0.8089 -0.1307
 6237SOL    HW219611   4.123   3.457   3.752 -0.5145 -0.3540  0.5039
 6238SOL     OW19612   5.423   3.364   1.653 -0.5927  0.0282  0.0869
 6238SOL    HW119613   5.502   3.421   1.631 -0.8224  1.0088  1.6488
 6238SOL    HW219614   5.454   3.271   1.677  0.0976  0.4038  0.6941
 6239SOL     OW19615   2.694   6.483   1.652  0.3189 -0.2221 -0.1989
 6239SOL    HW119616   2.649   6.561   1.696 -0.2466 -0.8527  0.3394
 6239SOL    HW219617   2.628   6.435   1.594 -0.0236 -1.8086  1.4518
 6240SOL     OW19618   3.096   6.074   4.162 -0.1775  0.4235  0.5401
 6240SOL    HW119619   3.157   6.001   4.195 -0.8778  0.2593  1.5209
 6240SOL    HW219620   3.013   6.076   4.218 -0.6688  1.2481 -0.1939
 6241SOL     OW19621   0.033   3.029   2.571 -0.1595 -0.5401 -0.2030
 6241SOL    HW119622   0.022   3.121   2.610 -1.5133 -1.0561  0.7017
 6241SOL    HW219623   0.101   3.032   2.498  0.2265  1.0702  0.1777
 6242SOL     OW19624   5.578   0.312   6.290  0.6521  0.2727  0.5107
 6242SOL    HW119625   5.538   0.249   6.357  0.8662  0.2643  0.6327
 6242SOL    HW219626   5.532   0.301   6.202  1.0585 -0.4592  0.3793
 6243SOL     OW19627   6.196   2.413   4.352  0.1800 -0.0334  0.8193
 6243SOL    HW119628   6.182   2.341   4.285  1.8716 -0.0239  0.4188
 6243SOL    HW219629   6.218   2.373   4.441 -1.4896 -0.0291  1.2844
 6244SOL     OW19630   5.281   3.465   4.453 -0.2246  0.4788  0.3739
 6244SOL    HW119631   5.320   3.497   4.540 -0.8095  0.9577  0.4622
 6244SOL    HW219632   5.186   3.439   4.466  0.1407 -1.0375  0.2346
 6245SOL     OW19633   4.349   3.595   6.808 -0.0891  0.1136 -0.0128
 6245SOL    HW119634   4.412   3.520   6.824  0.1261  0.6507  2.0136
 6245SOL    HW219635   4.260   3.574   6.849 -0.3487  0.5358 -0.3418
 6246SOL     OW19636   2.839   5.392   0.566 -0.2208 -0.3666 -0.1324
 6246SOL    HW119637   2.788   5.315   0.530 -1.0908 -0.4493  1.2124
 6246SOL    HW219638   2.813   5.408   0.661 -0.8990  2.2750 -0.6836
 6247SOL     OW19639   2.133   5.043   5.041  0.1835 -0.2752 -0.6659
 6247SOL    HW119640   2.214   5.099   5.054 -0.0245 -0.4427  1.8604
 6247SOL    HW219641   2.102   5.007   5.130 -1.7909 -1.4223 -1.7351
 6248SOL     OW19642   1.144   0.121   5.192  0.6927 -0.5070  0.2195
 6248SOL    HW119643   1.183   0.127   5.284 -1.0993  1.7146  0.9431
 6248SOL    HW219644   1.202   0.171   5.128  1.4184 -1.1807  0.3467
 6249SOL     OW19645   5.361   6.698   6.523  0.0616 -0.2753  0.3134
 6249SOL    HW119646   5.378   6.690   6.425 -1.0747  0.4373  0.0341
 6249SOL    HW219647   5.400   6.783   6.558  0.0807 -0.3116  0.3817
 6250SOL     OW19648   5.269   1.215   5.275 -0.2137 -0.5209  0.9778
 6250SOL    HW119649   5.183   1.217   5.325 -0.0923 -0.1832  1.1747
 6250SOL    HW219650   5.255   1.249   5.183 -0.4676 -1.2713  0.7312
 6251SOL     OW19651   6.263   1.583   4.905  0.1019 -0.3335 -0.3966
 6251SOL    HW119652   6.325   1.572   4.827 -1.0814  1.9498 -1.7430
 6251SOL    HW219653   6.201   1.505   4.908  0.8599 -0.9938 -1.0612
 6252SOL     OW19654   5.698   5.030   1.996  0.7077  0.0520  0.5571
 6252SOL    HW119655   5.797   5.029   2.012  0.9283 -2.3132 -0.5220
 6252SOL    HW219656   5.675   5.107   1.936  2.3836 -0.9972 -1.5811
 6253SOL     OW19657   2.406   5.536   0.225 -0.0478  0.3253 -0.4439
 6253SOL    HW119658   2.409   5.446   0.268 -1.4025 -0.2591 -1.4930
 6253SOL    HW219659   2.429   5.529   0.128 -1.9930  0.7558 -0.9822
 6254SOL     OW19660   5.917   4.086   5.034  0.9728  0.3019 -0.0447
 6254SOL    HW119661   5.867   4.000   5.044  2.1300 -0.4472 -0.4988
 6254SOL    HW219662   5.930   4.128   5.123  0.7923 -0.2178  0.2272
 6255SOL     OW19663   2.309   6.981   3.934  0.2503 -0.0057  0.4466
 6255SOL    HW119664   2.365   6.910   3.892  2.1662  0.6848  1.6936
 6255SOL    HW219665   2.359   7.068   3.932 -0.6582  0.5840  1.9038
 6256SOL     OW19666   3.815   3.501   0.062 -0.8074 -0.4041  0.2163
 6256SOL    HW119667   3.769   3.468   0.144  0.6641 -0.7372  0.9496
 6256SOL    HW219668   3.835   3.424   0.002 -1.5851 -0.2033 -0.3070
 6257SOL     OW19669   5.021   1.595   5.467 -0.5729  0.0384  0.1758
 6257SOL    HW119670   5.102   1.543   5.493 -1.1516 -0.7105  0.5184
 6257SOL    HW219671   5.016   1.601   5.367  0.7013  1.4045  0.1499
 6258SOL     OW19672   3.586   5.690   5.912  0.5899 -0.3645 -0.3164
 6258SOL    HW119673   3.496   5.646   5.921 -1.1720  2.8611 -0.5989
 6258SOL    HW219674   3.652   5.644   5.972 -1.9724 -1.0668  2.2052
 6259SOL     OW19675   2.059   0.167   0.228 -0.0525 -0.0690 -0.9264
 6259SOL    HW119676   2.014   0.081   0.252  0.5098 -0.1811 -0.2559
 6259SOL    HW219677   2.155   0.163   0.254  0.3470  0.1929 -2.2978
 6260SOL     OW19678   3.816   5.156   6.240  0.2404 -0.0535 -0.1126
 6260SOL    HW119679   3.790   5.078   6.183 -0.0058 -1.0105  1.2672
 6260SOL    HW219680   3.914   5.175   6.227  0.4150 -0.9070 -0.1023
 6261SOL     OW19681   2.629   5.023   3.368  0.5749 -0.2484  0.4065
 6261SOL    HW119682   2.561   4.950   3.363  0.1592  0.1050  0.8355
 6261SOL    HW219683   2.718   4.987   3.340  0.4210 -0.9715  0.8184
 6262SOL     OW19684   6.479   3.919   6.256  0.5794  0.0316 -0.1014
 6262SOL    HW119685   6.428   3.837   6.278 -0.4019  0.6589  0.0325
 6262SOL    HW219686   6.420   3.983   6.206  1.7881 -0.0026 -1.6555
 6263SOL     OW19687   4.147   5.947   5.470  0.3804  0.4418 -0.0109
 6263SOL    HW119688   4.179   5.883   5.399  0.9463  0.2513  0.4113
 6263SOL    HW219689   4.187   5.922   5.558  1.5038  2.0467 -0.0282
 6264SOL     OW19690   3.989   5.983   4.113 -0.3900  0.3034  0.1453
 6264SOL    HW119691   4.043   5.926   4.176  0.9374  1.1330 -0.1944
 6264SOL    HW219692   3.977   6.074   4.152  1.0659  1.0548 -1.0520
 6265SOL     OW19693   5.844   4.521   0.339  0.4540 -0.0843 -0.0040
 6265SOL    HW119694   5.840   4.614   0.374  1.0827  0.1287 -0.4791
 6265SOL    HW219695   5.778   4.464   0.388  0.1679  0.5733  0.3890
 6266SOL     OW19696   3.520   2.109   0.026  0.3646 -0.2971  0.0277
 6266SOL    HW119697   3.561   2.200   0.026 -1.5883  0.6971 -2.2773
 6266SOL    HW219698   3.490   2.085   0.118  0.5232  1.5840  0.6011
 6267SOL     OW19699   1.638   3.892   5.772  0.2321 -0.1764  0.0199
 6267SOL    HW119700   1.614   3.807   5.818  0.0237 -0.1484 -0.0378
 6267SOL    HW219701   1.709   3.874   5.703 -0.7371 -0.5334 -0.9028
 6268SOL     OW19702   0.896   0.259   4.735  0.1783  0.2568  0.1373
 6268SOL    HW119703   0.874   0.323   4.662 -1.2745 -1.0369 -0.6202
 6268SOL    HW219704   0.981   0.211   4.713 -0.4381 -0.3920 -0.9433
 6269SOL     OW19705   6.018   0.636   6.375  0.0150 -0.1860 -0.7690
 6269SOL    HW119706   6.075   0.699   6.322  1.1355 -0.2624  0.3064
 6269SOL    HW219707   6.026   0.656   6.472 -0.6355 -1.1607 -0.4904
 6270SOL     OW19708   0.991   6.635   4.610  0.4221 -0.0226  0.4517
 6270SOL    HW119709   1.059   6.598   4.548 -1.4675 -0.4832 -1.4372
 6270SOL    HW219710   0.939   6.560   4.651 -0.1593  0.3884  0.4664
 6271SOL     OW19711   0.641   1.403   6.344  0.3413 -0.4507  0.3022
 6271SOL    HW119712   0.631   1.418   6.442  1.9958  0.4460  0.3641
 6271SOL    HW219713   0.720   1.453   6.310  0.1663 -1.2391 -1.3867
 6272SOL     OW19714   1.835   2.353   2.721  0.4793 -0.1834 -0.4346
 6272SOL    HW119715   1.911   2.358   2.657 -0.2398  1.3875 -1.2199
 6272SOL    HW219716   1.749   2.376   2.674 -0.1897  0.0928  0.8643
 6273SOL     OW19717   1.747   2.930   6.442  0.0970  0.3226  0.1474
 6273SOL    HW119718   1.841   2.924   6.409  0.3320  1.5805  0.5323
 6273SOL    HW219719   1.686   2.946   6.365  0.0695 -1.3330 -0.2153
 6274SOL     OW19720   2.664   6.078   1.817  0.4861 -0.1288  0.2581
 6274SOL    HW119721   2.701   6.019   1.745  1.0559 -0.2060  0.6099
 6274SOL    HW219722   2.726   6.078   1.895 -0.0124  0.1463  0.6567
 6275SOL     OW19723   7.025   0.317   5.693 -1.0062  0.6474 -0.0137
 6275SOL    HW119724   7.022   0.349   5.598 -1.4601  0.2581 -0.1283
 6275SOL    HW219725   6.939   0.273   5.717 -2.1856  3.4907  1.5425
 6276SOL     OW19726   5.059   0.255   4.967  0.2717  0.5839 -0.1428
 6276SOL    HW119727   4.964   0.239   4.941  0.4108 -1.7330  0.5001
 6276SOL    HW219728   5.078   0.353   4.969 -1.7496  1.0565 -1.4428
 6277SOL     OW19729   0.731   4.346   6.823 -0.0808 -0.3375 -0.4330
 6277SOL    HW119730   0.661   4.284   6.859 -0.1841 -0.8954 -1.5699
 6277SOL    HW219731   0.687   4.429   6.789 -0.3559 -1.2013 -2.2759
 6278SOL     OW19732   4.809   6.221   1.597 -0.0998 -0.2557  0.1713
 6278SOL    HW119733   4.807   6.290   1.525  1.8505 -1.1622 -0.8016
 6278SOL    HW219734   4.820   6.265   1.686  1.1866  0.6884 -0.4434
 6279SOL     OW19735   5.046   0.891   3.608  0.4666  0.8409  0.0522
 6279SOL    HW119736   5.020   0.796   3.589 -0.0489  0.9861  0.0181
 6279SOL    HW219737   5.145   0.900   3.604  0.6248  0.0130  1.3613
 6280SOL     OW19738   1.877   1.704   4.777 -0.4484  0.2870  0.2743
 6280SOL    HW119739   1.913   1.641   4.846  0.3555  1.7089  1.2104
 6280SOL    HW219740   1.919   1.794   4.789 -0.5236  0.6687 -1.9038
 6281SOL     OW19741   1.799   6.034   4.067  0.5082 -0.1341  0.0094
 6281SOL    HW119742   1.715   6.022   4.119  0.6285  1.5140  0.6561
 6281SOL    HW219743   1.802   6.127   4.030  1.5135 -0.5362 -0.9767
 6282SOL     OW19744   5.297   3.025   4.796 -0.3969  0.1738 -0.1954
 6282SOL    HW119745   5.264   3.103   4.743 -2.3844 -0.4765 -0.0060
 6282SOL    HW219746   5.375   3.054   4.852 -1.3205  2.1571  0.1760
 6283SOL     OW19747   2.335   2.357   1.067 -0.2959  0.0852 -0.0964
 6283SOL    HW119748   2.355   2.339   0.970 -2.5352  2.2115 -1.0840
 6283SOL    HW219749   2.410   2.410   1.107  0.0786  0.3271 -1.0711
 6284SOL     OW19750   5.196   6.418   5.645 -0.5349  0.2724 -0.0273
 6284SOL    HW119751   5.109   6.374   5.666  0.2145 -0.2075  2.3411
 6284SOL    HW219752   5.256   6.354   5.597 -1.3632  0.5436 -1.4878
 6285SOL     OW19753   6.898   6.340   2.723 -0.3256  0.3342  0.0961
 6285SOL    HW119754   6.855   6.428   2.703 -0.1528  0.7834  1.5631
 6285SOL    HW219755   6.925   6.338   2.819 -0.1267 -1.2481  0.0280
 6286SOL     OW19756   6.790   5.163   6.342 -0.1486  0.0474 -0.2589
 6286SOL    HW119757   6.782   5.141   6.245  0.4858 -0.6196 -0.1694
 6286SOL    HW219758   6.788   5.262   6.354  2.5765  0.3177 -1.2500
 6287SOL     OW19759   3.351   3.923   4.413 -0.0622 -0.2167 -0.2026
 6287SOL    HW119760   3.411   3.936   4.492  0.1417 -0.5559 -0.2973
 6287SOL    HW219761   3.386   3.848   4.357  0.8348  1.1961 -1.6131
 6288SOL     OW19762   5.180   3.264   4.696 -0.4218 -1.1933 -0.1364
 6288SOL    HW119763   5.101   3.244   4.754  0.1024 -0.2572  0.9313
 6288SOL    HW219764   5.153   3.327   4.623 -0.4821 -0.1304  0.7796
 6289SOL     OW19765   6.374   2.561   6.608  0.9125  0.6250 -0.0860
 6289SOL    HW119766   6.386   2.652   6.567  0.4048  0.5029 -0.5230
 6289SOL    HW219767   6.464   2.518   6.622  1.1042  0.7150 -0.9837
 6290SOL     OW19768   3.560   1.686   4.479  0.1750  0.3779 -0.1936
 6290SOL    HW119769   3.516   1.641   4.402 -2.0115  0.6382  0.8042
 6290SOL    HW219770   3.490   1.732   4.535  2.0279  3.4079 -0.1099
 6291SOL     OW19771   1.415   2.417   4.191 -0.2916  0.4744 -0.2439
 6291SOL    HW119772   1.364   2.348   4.244  0.3483  0.2568  0.1068
 6291SOL    HW219773   1.512   2.411   4.215 -0.0998  0.8772 -0.9063
 6292SOL     OW19774   2.926   0.993   6.545 -0.3994 -0.0185  0.1285
 6292SOL    HW119775   3.019   1.018   6.518 -0.9281  0.0982 -1.7209
 6292SOL    HW219776   2.869   0.987   6.464 -1.8217 -0.9290  1.1594
 6293SOL     OW19777   0.829   4.459   1.650 -0.0591 -0.6696  0.0017
 6293SOL    HW119778   0.753   4.457   1.585  0.2984 -1.3640 -0.4089
 6293SOL    HW219779   0.886   4.378   1.637  0.8210 -0.0983  0.2328
 6294SOL     OW19780   2.475   2.548   6.555  0.2666 -0.5936 -0.1205
 6294SOL    HW119781   2.521   2.464   6.525  1.3150  0.0075 -0.2608
 6294SOL    HW219782   2.447   2.601   6.476 -1.7619 -1.4901 -0.0577
 6295SOL     OW19783   2.640   0.272   3.609  0.0917 -0.4574  0.2383
 6295SOL    HW119784   2.619   0.188   3.560  0.1558 -0.3280 -0.0090
 6295SOL    HW219785   2.697   0.331   3.553 -0.2872 -0.0736  0.2527
 6296SOL     OW19786   2.626   1.582   3.974  0.3509  0.7665 -0.2105
 6296SOL    HW119787   2.664   1.494   3.945  0.3561  0.8905 -0.5773
 6296SOL    HW219788   2.564   1.567   4.051 -0.7101  0.2674 -1.1387
 6297SOL     OW19789   0.669   3.464   1.540  0.1004 -0.4655 -0.0937
 6297SOL    HW119790   0.725   3.540   1.506 -1.5177  0.6458 -0.4003
 6297SOL    HW219791   0.574   3.494   1.549 -0.5221 -2.3642  0.1587
 6298SOL     OW19792   4.783   0.397   4.300 -0.7052 -0.1413  0.0481
 6298SOL    HW119793   4.729   0.378   4.218 -0.7812 -0.5497  0.1917
 6298SOL    HW219794   4.827   0.486   4.291 -0.1744 -0.4700 -0.7333
 6299SOL     OW19795   0.235   0.125   6.022 -0.5977 -0.9052 -0.0497
 6299SOL    HW119796   0.264   0.073   6.103  1.4612 -0.7846 -0.6513
 6299SOL    HW219797   0.173   0.198   6.051 -0.9767 -1.6918  1.2297
 6300SOL     OW19798   2.857   2.422   0.913  0.2063 -0.0283 -0.1262
 6300SOL    HW119799   2.760   2.440   0.930  0.3505  0.2198  0.4473
 6300SOL    HW219800   2.877   2.326   0.933  0.3961  0.2860  1.2352
 6301SOL     OW19801   0.015   1.595   1.664 -0.1155 -0.3412 -0.2470
 6301SOL    HW119802   0.070   1.571   1.584 -1.0689  0.4383 -1.1699
 6301SOL    HW219803  -0.007   1.693   1.660 -3.3250 -1.0041 -1.0606
 6302SOL     OW19804   4.932   0.995   3.329  0.1826 -0.2435 -0.1414
 6302SOL    HW119805   5.026   0.961   3.321 -0.1932 -1.1998 -0.7808
 6302SOL    HW219806   4.916   1.026   3.422  0.7550 -1.2743  0.3235
 6303SOL     OW19807   1.925   5.854   3.728 -0.3929  0.2301  0.2679
 6303SOL    HW119808   1.910   5.952   3.714 -1.2076  0.1373  0.4378
 6303SOL    HW219809   1.859   5.820   3.795  0.5802 -0.2221  1.0082
 6304SOL     OW19810   4.085   1.262   2.139 -0.1713 -0.0990 -0.1891
 6304SOL    HW119811   4.108   1.330   2.069 -1.6469  1.9112  1.1488
 6304SOL    HW219812   4.129   1.175   2.117 -1.3635  0.0966 -4.1433
 6305SOL     OW19813   4.029   1.560   6.885 -0.1204 -0.9623 -0.2004
 6305SOL    HW119814   3.952   1.531   6.943  1.2014 -0.6224  1.8603
 6305SOL    HW219815   4.058   1.651   6.913  1.1967 -1.1966 -0.7287
 6306SOL     OW19816   6.145   5.822   6.791 -0.0980 -0.0845 -0.1612
 6306SOL    HW119817   6.225   5.769   6.819  0.4616  0.7892 -0.0591
 6306SOL    HW219818   6.084   5.833   6.869 -0.0528 -0.2945 -0.0957
 6307SOL     OW19819   3.490   2.926   3.762  0.0655  0.1432  0.0191
 6307SOL    HW119820   3.529   2.961   3.847 -0.0017 -0.5292  0.3319
 6307SOL    HW219821   3.395   2.896   3.778  1.0690 -3.1439  0.5941
 6308SOL     OW19822   3.949   5.586   6.006 -0.5429  0.0167 -0.1854
 6308SOL    HW119823   3.890   5.507   6.020  1.3974 -0.9488  4.9277
 6308SOL    HW219824   3.912   5.664   6.057  1.0226  0.2011  0.7462
 6309SOL     OW19825   3.398   5.422   1.400  0.2978 -0.3345 -0.3379
 6309SOL    HW119826   3.469   5.451   1.463  0.9962 -0.2079 -1.1574
 6309SOL    HW219827   3.341   5.501   1.375  3.2629  0.9913 -3.9370
 6310SOL     OW19828   0.816   1.596   6.267 -0.0213  0.1766  0.2227
 6310SOL    HW119829   0.827   1.661   6.191 -2.8568  0.0840 -0.3638
 6310SOL    HW219830   0.880   1.520   6.256 -0.4426  0.1136 -2.1396
 6311SOL     OW19831   2.384   6.337   4.037 -0.4196 -0.0180  0.1371
 6311SOL    HW119832   2.408   6.240   4.038  1.3990  0.3826 -0.7262
 6311SOL    HW219833   2.310   6.352   3.971 -0.5981 -0.7786  0.1512
 6312SOL     OW19834   3.461   6.763   4.413 -0.4652  0.2257 -0.2924
 6312SOL    HW119835   3.467   6.663   4.421  2.5335  0.4367  2.4946
 6312SOL    HW219836   3.537   6.797   4.358 -1.1525  1.0202 -0.7774
 6313SOL     OW19837   3.739   5.549   4.876 -0.6646 -0.4304  0.7612
 6313SOL    HW119838   3.833   5.529   4.902  0.2893 -0.3854 -2.2666
 6313SOL    HW219839   3.728   5.647   4.863 -1.0484 -0.4633  0.8208
 6314SOL     OW19840   2.044   2.300   2.321  0.0521  0.1344  0.5329
 6314SOL    HW119841   2.099   2.345   2.251 -0.6500  0.9742  0.5067
 6314SOL    HW219842   2.028   2.205   2.295  0.5728  0.1788  0.0187
 6315SOL     OW19843   4.867   2.964   3.857 -0.1621  0.1845 -0.1041
 6315SOL    HW119844   4.818   2.962   3.944 -0.0583  1.6862  0.0277
 6315SOL    HW219845   4.873   3.059   3.825 -0.2895 -0.3478 -1.8066
 6316SOL     OW19846   1.560   5.888   1.762 -0.2325 -0.3864  0.3849
 6316SOL    HW119847   1.601   5.802   1.790  3.1180  0.3351 -1.7259
 6316SOL    HW219848   1.466   5.872   1.731  0.1456 -3.1811  0.4682
 6317SOL     OW19849   1.117   4.441   5.235 -0.3095  0.4684  0.1849
 6317SOL    HW119850   1.019   4.429   5.223 -0.0740 -0.0069 -1.4527
 6317SOL    HW219851   1.152   4.373   5.300 -0.7399 -0.7209 -0.8007
 6318SOL     OW19852   6.540   5.636   5.367  0.0129  0.3954  0.8152
 6318SOL    HW119853   6.511   5.670   5.277 -1.0689 -0.8184  0.6712
 6318SOL    HW219854   6.638   5.615   5.365  0.3129  1.7459  0.3818
 6319SOL     OW19855   5.936   3.436   2.704  0.1143  0.3140  0.0844
 6319SOL    HW119856   5.845   3.436   2.663 -0.3184 -3.5970  0.6260
 6319SOL    HW219857   5.933   3.387   2.791  2.8510 -0.6974 -0.2971
 6320SOL     OW19858   4.731   4.294   5.519 -0.0841 -0.6154 -0.1390
 6320SOL    HW119859   4.790   4.367   5.485 -0.8092  0.2442  0.4172
 6320SOL    HW219860   4.653   4.283   5.457 -0.5958 -0.0972  0.3980
 6321SOL     OW19861   6.010   1.046   3.540  0.7443  0.5806  0.1729
 6321SOL    HW119862   5.935   1.111   3.552 -0.1442 -0.4478  0.2270
 6321SOL    HW219863   6.013   1.016   3.445 -0.0639 -0.7420  0.5433
 6322SOL     OW19864   4.242   3.169   1.567  0.1572 -0.5233  0.0065
 6322SOL    HW119865   4.147   3.199   1.569 -1.0571 -3.9541  0.9476
 6322SOL    HW219866   4.278   3.179   1.474 -1.1999  0.5706 -0.4372
 6323SOL     OW19867   1.976   0.261   6.104  0.4828 -0.1536  0.3991
 6323SOL    HW119868   1.966   0.189   6.035 -2.4225  1.3990 -0.9951
 6323SOL    HW219869   1.902   0.253   6.171 -0.5600  2.0375 -0.3851
 6324SOL     OW19870   0.611   0.493   3.768  0.5354 -0.6331 -0.3775
 6324SOL    HW119871   0.521   0.533   3.749  0.0733 -2.2045 -1.7471
 6324SOL    HW219872   0.682   0.550   3.727  0.1042  0.1561 -0.0467
 6325SOL     OW19873   1.831   4.905   2.405 -0.1425 -0.3123 -0.3235
 6325SOL    HW119874   1.809   4.808   2.400 -0.8233 -0.1164 -1.7782
 6325SOL    HW219875   1.929   4.917   2.425 -0.2435 -1.2679  0.7927
 6326SOL     OW19876   3.927   2.957   5.767 -0.9396  0.0911  0.6201
 6326SOL    HW119877   3.827   2.949   5.767 -1.1321  1.8628 -0.6722
 6326SOL    HW219878   3.957   3.001   5.682  0.9205 -0.0633  1.1482
 6327SOL     OW19879   1.761   6.816   0.646 -0.1700 -1.0488  0.1433
 6327SOL    HW119880   1.824   6.889   0.621 -1.3722  0.3880  1.1134
 6327SOL    HW219881   1.734   6.765   0.564  1.8387 -1.3901 -0.3359
 6328SOL     OW19882   5.515   1.747   3.587 -0.4384  0.0888 -0.1589
 6328SOL    HW119883   5.486   1.826   3.533  0.6576  0.0845 -0.7985
 6328SOL    HW219884   5.435   1.696   3.617 -1.1073  0.2377 -1.5912
 6329SOL     OW19885   4.775   0.355   5.880 -0.4058  0.3631 -0.1315
 6329SOL    HW119886   4.762   0.291   5.956 -2.6676  0.4008 -0.4231
 6329SOL    HW219887   4.733   0.318   5.797 -1.0224  1.8446 -0.5186
 6330SOL     OW19888   3.132   0.893   4.761 -0.0235  0.1910  0.3145
 6330SOL    HW119889   3.120   0.942   4.847  1.5195  1.2313 -0.0267
 6330SOL    HW219890   3.047   0.897   4.709 -0.4333  1.0860  1.0144
 6331SOL     OW19891   6.275   1.665   0.543 -0.8220 -0.2774  0.5438
 6331SOL    HW119892   6.304   1.725   0.617 -1.1936  0.6667 -0.0553
 6331SOL    HW219893   6.180   1.685   0.519 -1.9365 -3.0139  2.1863
 6332SOL     OW19894   0.877   2.648   6.066 -0.3648 -0.6846  0.0838
 6332SOL    HW119895   0.871   2.729   6.124 -0.4710 -0.4524 -0.2445
 6332SOL    HW219896   0.961   2.598   6.087 -0.6613 -0.8949  0.8020
 6333SOL     OW19897   0.869   2.233   2.555 -0.2508 -0.1976 -0.0051
 6333SOL    HW119898   0.823   2.208   2.470  0.8577 -0.2471 -0.6092
 6333SOL    HW219899   0.942   2.168   2.574  0.4506  0.6244  0.2150
 6334SOL     OW19900   3.839   1.709   2.973  0.0195  0.2895  0.1419
 6334SOL    HW119901   3.856   1.611   2.962 -0.2949  0.3255 -0.7484
 6334SOL    HW219902   3.827   1.751   2.883  0.8628  1.2824  0.4774
 6335SOL     OW19903   1.357   4.436   4.426 -0.0057  0.2607 -0.3259
 6335SOL    HW119904   1.286   4.367   4.417  1.5545 -1.7010  1.5058
 6335SOL    HW219905   1.390   4.461   4.335 -1.0405 -0.9052 -1.0642
 6336SOL     OW19906   5.359   3.770   1.744 -0.3304  0.4004 -0.8519
 6336SOL    HW119907   5.372   3.779   1.645  0.0972 -0.0715 -0.8452
 6336SOL    HW219908   5.411   3.691   1.777 -1.0367  0.1339 -0.3585
 6337SOL     OW19909   2.382   0.448   0.809  0.3817  0.1915 -0.0736
 6337SOL    HW119910   2.362   0.543   0.785 -0.5610 -0.0782 -0.4007
 6337SOL    HW219911   2.322   0.419   0.883 -1.7402 -1.1427 -2.1601
 6338SOL     OW19912   3.394   6.226   4.483  0.0954 -0.5315 -0.7020
 6338SOL    HW119913   3.474   6.280   4.458  0.0923  0.2503  0.8378
 6338SOL    HW219914   3.412   6.129   4.467  1.8347 -0.4926  0.7259
 6339SOL     OW19915   6.478   0.162   6.409 -0.4446  0.5318  0.0937
 6339SOL    HW119916   6.411   0.228   6.445 -0.5335 -0.1025  1.1245
 6339SOL    HW219917   6.564   0.209   6.392 -0.0343  0.6855  2.2329
 6340SOL     OW19918   6.463   2.011   5.326  0.2534  0.2363  0.1894
 6340SOL    HW119919   6.364   2.018   5.314 -0.0281 -2.2121  0.5642
 6340SOL    HW219920   6.507   2.007   5.237 -0.3020 -1.6291 -0.0371
 6341SOL     OW19921   2.924   5.286   1.322  0.2152  0.6500  0.3320
 6341SOL    HW119922   3.009   5.263   1.273  0.3285 -0.7369  1.1181
 6341SOL    HW219923   2.946   5.319   1.414 -0.0790  1.0494  0.2619
 6342SOL     OW19924   6.141   0.684   3.993 -0.7112 -0.0198 -0.0111
 6342SOL    HW119925   6.219   0.626   4.016 -1.2069 -0.9819 -0.6513
 6342SOL    HW219926   6.144   0.768   4.046  1.5802  0.6543 -1.0649
 6343SOL     OW19927   6.815   1.004   0.022  0.5968  0.8040 -0.0191
 6343SOL    HW119928   6.878   0.927   0.027 -0.0336 -0.1987 -3.9669
 6343SOL    HW219929   6.726   0.972  -0.012 -0.4041  2.9616  0.4010
 6344SOL     OW19930   1.705   4.432   5.643 -0.5019  0.0614  0.5100
 6344SOL    HW119931   1.672   4.391   5.558  1.3822  0.8713 -0.6745
 6344SOL    HW219932   1.667   4.525   5.652 -0.6088  0.0202  0.4860
 6345SOL     OW19933   4.528   6.066   0.231 -0.4419  0.1149 -0.0757
 6345SOL    HW119934   4.597   6.016   0.283 -1.0644  1.1538  1.8352
 6345SOL    HW219935   4.570   6.147   0.189  0.1284 -0.8874 -1.5036
 6346SOL     OW19936   5.964   4.511   2.730 -0.0071 -0.5081  0.3487
 6346SOL    HW119937   5.903   4.432   2.733 -0.7080 -0.1433 -1.9879
 6346SOL    HW219938   5.910   4.595   2.737  0.3773 -0.2059 -0.2222
 6347SOL     OW19939   5.457   3.221   2.883  1.1601  0.0294 -0.4519
 6347SOL    HW119940   5.450   3.258   2.976 -0.5732 -2.7134  0.6419
 6347SOL    HW219941   5.368   3.229   2.837  1.4228 -0.5480 -1.0803
 6348SOL     OW19942   5.514   2.799   2.630  0.0344  0.3428 -0.0283
 6348SOL    HW119943   5.500   2.870   2.562 -3.1946 -0.6514 -0.6064
 6348SOL    HW219944   5.445   2.809   2.703  1.6753 -0.2233  1.6843
 6349SOL     OW19945   3.297   5.625   4.246  0.5675 -0.3690 -0.1409
 6349SOL    HW119946   3.378   5.628   4.304  0.3786 -1.7629  0.2303
 6349SOL    HW219947   3.266   5.530   4.235 -0.3477  0.0201 -1.2113
 6350SOL     OW19948   1.568   6.233   4.707 -0.6417  0.3393 -0.4057
 6350SOL    HW119949   1.563   6.207   4.611 -1.7656 -1.4633  0.1036
 6350SOL    HW219950   1.476   6.245   4.744 -0.4034 -2.1841  1.2225
 6351SOL     OW19951   3.456   6.634   3.777 -0.0326 -0.4521 -0.5628
 6351SOL    HW119952   3.361   6.665   3.767 -0.4392 -1.5283 -0.2259
 6351SOL    HW219953   3.507   6.655   3.694 -0.0096  1.9395 -0.0187
 6352SOL     OW19954   2.948   6.535   3.406  0.0985 -0.1983  0.3666
 6352SOL    HW119955   2.935   6.588   3.490  0.0695  2.1339 -1.0256
 6352SOL    HW219956   3.045   6.535   3.381 -0.2802  2.5466 -1.5872
 6353SOL     OW19957   6.248   2.691   2.424 -0.0607  0.2730  0.0283
 6353SOL    HW119958   6.289   2.725   2.508 -2.1270 -0.0610  1.2486
 6353SOL    HW219959   6.187   2.760   2.386  0.1785  0.0829 -0.7182
 6354SOL     OW19960   0.247   4.242   3.148 -0.1363  0.0907 -0.3500
 6354SOL    HW119961   0.215   4.262   3.241  1.9374  0.5063  0.3293
 6354SOL    HW219962   0.170   4.246   3.084 -1.3951  1.0119  1.1610
 6355SOL     OW19963   3.676   1.568   5.502  0.0087 -0.6247  0.3749
 6355SOL    HW119964   3.691   1.573   5.601  1.9072 -3.5818  0.3613
 6355SOL    HW219965   3.764   1.577   5.455 -1.0098  2.0835 -1.2160
 6356SOL     OW19966   6.484   5.244   6.125 -0.3321  0.6312 -0.0956
 6356SOL    HW119967   6.568   5.198   6.095 -1.1778 -0.9080 -0.2199
 6356SOL    HW219968   6.457   5.210   6.215 -1.3269  0.3830 -0.4676
 6357SOL     OW19969   6.375   5.700   1.253 -0.0639 -0.2517  0.0995
 6357SOL    HW119970   6.433   5.751   1.316  0.3594 -0.6929  0.0716
 6357SOL    HW219971   6.312   5.763   1.207  1.5630  0.5189 -1.1730
 6358SOL     OW19972   5.867   5.107   4.952  0.8492 -0.0271  0.0395
 6358SOL    HW119973   5.801   5.032   4.952  0.5346  0.1664 -2.2674
 6358SOL    HW219974   5.820   5.192   4.978 -0.0015  0.1987 -2.0549
 6359SOL     OW19975   0.734   2.132   4.318  0.3386 -0.3403 -0.1287
 6359SOL    HW119976   0.642   2.141   4.357 -0.5596 -0.4122 -2.1324
 6359SOL    HW219977   0.800   2.125   4.392 -0.7880  3.6936  1.5024
 6360SOL     OW19978   1.009   2.317   6.483  0.4186 -0.3762 -0.3740
 6360SOL    HW119979   0.930   2.268   6.448 -0.2320  0.1500  0.3216
 6360SOL    HW219980   0.978   2.394   6.539  1.3366  1.9350 -2.7999
 6361SOL     OW19981   0.301   4.758   5.031 -0.5550 -0.3105 -0.4080
 6361SOL    HW119982   0.358   4.706   5.094 -3.0201 -0.8846  1.5078
 6361SOL    HW219983   0.354   4.782   4.950  1.8106 -2.3433  0.4186
 6362SOL     OW19984   0.239   6.673   0.671  0.0876  0.3864 -0.4912
 6362SOL    HW119985   0.316   6.729   0.702 -1.4383  3.5415 -1.9062
 6362SOL    HW219986   0.184   6.645   0.750  0.3808  1.7575  0.2314
 6363SOL     OW19987   4.744   5.404   1.568 -0.3069 -0.5665  0.0772
 6363SOL    HW119988   4.714   5.492   1.531  2.7683  0.9678  0.9360
 6363SOL    HW219989   4.678   5.374   1.637 -1.4533  1.0140 -0.2517
 6364SOL     OW19990   4.637   2.166   6.745 -0.2586 -0.5142  0.0233
 6364SOL    HW119991   4.549   2.203   6.718 -0.4302 -0.4855  0.6009
 6364SOL    HW219992   4.668   2.099   6.677 -0.3238  0.0858 -0.6099
 6365SOL     OW19993   3.531   6.586   6.442 -0.2243  0.1169  0.3578
 6365SOL    HW119994   3.436   6.595   6.413  0.5234  1.1632 -2.0406
 6365SOL    HW219995   3.560   6.491   6.435 -0.7175  0.0060 -0.2324
 6366SOL     OW19996   4.896   3.253   3.828 -0.5234 -0.1296  0.4611
 6366SOL    HW119997   4.911   3.325   3.896  0.9939  0.3920 -0.3748
 6366SOL    HW219998   4.908   3.291   3.737  0.4234 -1.4660  0.0079
 6367SOL     OW19999   1.692   0.557   0.310 -0.3432  0.0682 -0.2083
 6367SOL    HW120000   1.767   0.505   0.270 -1.3565 -0.9398 -0.8480
 6367SOL    HW220001   1.605   0.521   0.277 -1.1817  0.1581  1.7717
 6368SOL     OW20002   3.131   5.526   1.666  0.1818 -0.3354 -0.1555
 6368SOL    HW120003   3.230   5.530   1.656  0.0785  0.3797 -1.0308
 6368SOL    HW220004   3.088   5.563   1.583 -0.8113  1.2244  1.0154
 6369SOL     OW20005   3.665   4.303   0.679 -0.1777 -0.6130 -0.1595
 6369SOL    HW120006   3.717   4.233   0.727  0.2535  0.0338  0.3279
 6369SOL    HW220007   3.640   4.376   0.742  0.0805  0.0715 -0.8246
 6370SOL     OW20008   1.513   4.736   1.843  0.2761 -0.1385  0.7990
 6370SOL    HW120009   1.427   4.782   1.863  0.7350  1.2378 -0.2416
 6370SOL    HW220010   1.511   4.644   1.881 -3.0256 -1.4562 -2.0219
 6371SOL     OW20011   4.008   3.121   3.186  0.2606  0.3928  0.0191
 6371SOL    HW120012   3.990   3.111   3.088  0.1638  1.4948 -0.0824
 6371SOL    HW220013   3.988   3.034   3.232  1.1972 -0.4307 -1.0528
 6372SOL     OW20014   2.105   3.299   4.620  0.3503  0.4734 -0.2343
 6372SOL    HW120015   2.062   3.240   4.552  0.8798  0.4744 -0.5778
 6372SOL    HW220016   2.193   3.260   4.646  0.2397  0.5811  0.2992
 6373SOL     OW20017   3.165   6.330   5.238 -0.5620  0.2932  1.1075
 6373SOL    HW120018   3.082   6.383   5.255 -0.0187  1.3789  0.5062
 6373SOL    HW220019   3.223   6.379   5.173  1.6866  0.8242  3.3353
 6374SOL     OW20020   0.942   0.353   3.112 -0.3661  0.0246  0.3353
 6374SOL    HW120021   1.025   0.309   3.077 -0.3049 -0.2112  0.7566
 6374SOL    HW220022   0.866   0.289   3.105 -0.0604 -0.5819  1.9321
 6375SOL     OW20023   4.625   4.610   6.329 -0.0266  0.0985  0.1793
 6375SOL    HW120024   4.617   4.662   6.243  1.3751  1.1161  0.6276
 6375SOL    HW220025   4.591   4.666   6.405  2.0898  0.7052  0.7612
 6376SOL     OW20026   6.033   5.383   3.708 -0.1339  0.1271  0.0556
 6376SOL    HW120027   6.052   5.322   3.631 -0.5226 -0.6136  0.5320
 6376SOL    HW220028   6.091   5.358   3.785 -0.7188 -0.0395  0.4503
 6377SOL     OW20029   6.940   1.536   2.436  0.1569  0.7299  0.4057
 6377SOL    HW120030   6.913   1.441   2.422 -2.5731  1.3114  1.0867
 6377SOL    HW220031   6.988   1.569   2.354  0.2931 -0.9311 -0.2323
 6378SOL     OW20032   2.837   4.867   4.904 -0.0653 -0.1592  0.3123
 6378SOL    HW120033   2.798   4.950   4.944  2.6107  0.4148  2.0151
 6378SOL    HW220034   2.812   4.788   4.961 -2.6475 -0.6117 -1.3324
 6379SOL     OW20035   6.330   4.057   5.169  0.0110 -0.0538 -0.2396
 6379SOL    HW120036   6.311   4.072   5.072 -2.9533  0.1043  0.2692
 6379SOL    HW220037   6.359   4.142   5.212 -1.0567  0.4720 -0.5320
 6380SOL     OW20038   1.560   0.098   3.554  0.6970  0.2329  0.5632
 6380SOL    HW120039   1.569   0.196   3.539  1.0844  0.1576  0.2968
 6380SOL    HW220040   1.587   0.049   3.471 -0.2424 -0.0708  0.4238
 6381SOL     OW20041   6.926   6.703   5.466  0.1928  0.3147 -0.4686
 6381SOL    HW120042   6.971   6.647   5.396  0.3834  0.3966 -0.4103
 6381SOL    HW220043   6.948   6.667   5.556 -0.0270  0.2299 -0.4483
 6382SOL     OW20044   6.303   1.111   0.727 -0.7743 -0.7631 -0.3583
 6382SOL    HW120045   6.297   1.194   0.783 -0.3041 -1.3931  0.6462
 6382SOL    HW220046   6.212   1.069   0.722 -0.4755 -1.7608  1.6157
 6383SOL     OW20047   1.593   2.825   0.548  0.2352  0.4000 -0.5537
 6383SOL    HW120048   1.664   2.781   0.601 -0.3962  0.0395 -0.0009
 6383SOL    HW220049   1.548   2.758   0.489  0.0281  0.5266 -0.5428
 6384SOL     OW20050   2.418   5.385   2.496  0.2085  0.4230 -0.4773
 6384SOL    HW120051   2.373   5.356   2.412 -0.3728  0.8474 -0.3206
 6384SOL    HW220052   2.427   5.485   2.496 -0.1470  0.4640  0.1230
 6385SOL     OW20053   4.497   3.376   5.548 -0.1068 -0.2250  0.2032
 6385SOL    HW120054   4.570   3.412   5.489 -1.2023  0.8672 -0.5378
 6385SOL    HW220055   4.409   3.391   5.504 -0.8557 -0.6519  1.5247
 6386SOL     OW20056   4.093   5.428   0.875 -0.6152  0.1396 -0.5881
 6386SOL    HW120057   4.069   5.470   0.963 -0.1619  0.4159 -0.5903
 6386SOL    HW220058   4.156   5.489   0.826  0.6078 -0.8354 -0.2903
 6387SOL     OW20059   4.019   4.238   0.896  0.2587 -0.3218 -0.5477
 6387SOL    HW120060   4.097   4.204   0.949 -0.9236 -0.6387  1.0645
 6387SOL    HW220061   4.046   4.323   0.849  1.2642  0.1921  0.8756
 6388SOL     OW20062   6.183   0.325   1.668 -0.2774 -1.0183 -0.3689
 6388SOL    HW120063   6.149   0.276   1.588  0.6540 -0.3934 -1.1673
 6388SOL    HW220064   6.222   0.260   1.734 -1.1512 -1.5420 -0.3619
 6389SOL     OW20065   4.598   5.667   3.336 -0.2115  0.4328  0.7843
 6389SOL    HW120066   4.559   5.616   3.412 -0.0169 -0.0146  0.5862
 6389SOL    HW220067   4.683   5.710   3.366 -1.2420  2.0942  1.4594
 6390SOL     OW20068   0.352   2.788   6.108 -0.5014 -0.5946  0.1081
 6390SOL    HW120069   0.368   2.882   6.138 -1.8786  0.0080 -0.8829
 6390SOL    HW220070   0.426   2.729   6.140  0.6094  0.8975  0.4067
 6391SOL     OW20071   2.669   3.819   5.436 -0.1852 -0.1857 -0.6792
 6391SOL    HW120072   2.594   3.780   5.384 -0.7307  0.3010 -0.2651
 6391SOL    HW220073   2.740   3.749   5.450 -1.1187 -1.0252 -0.0036
 6392SOL     OW20074   5.783   6.443   5.397  0.3637  0.6881  0.2552
 6392SOL    HW120075   5.697   6.418   5.441 -1.7620  1.5364 -3.1226
 6392SOL    HW220076   5.797   6.541   5.403  2.0053  0.4242  2.0812
 6393SOL     OW20077   4.645   3.652   1.095  0.2906 -0.2794  0.0373
 6393SOL    HW120078   4.556   3.662   1.140 -0.3488 -0.9063 -1.0587
 6393SOL    HW220079   4.651   3.714   1.017  0.4699 -0.8699 -0.4196
 6394SOL     OW20080   5.323   2.431   1.276  0.5640 -0.7698 -0.4166
 6394SOL    HW120081   5.271   2.512   1.304  0.3465 -1.2716  0.6818
 6394SOL    HW220082   5.285   2.350   1.319  0.9506 -1.4298 -1.2971
 6395SOL     OW20083   2.155   1.912   4.215  0.2394  0.2478 -0.3884
 6395SOL    HW120084   2.175   2.003   4.179 -1.0440  0.2582 -1.1531
 6395SOL    HW220085   2.200   1.900   4.303 -1.1376  2.3624  0.6774
 6396SOL     OW20086   2.957   3.308   0.071 -0.2119 -0.5673  0.4864
 6396SOL    HW120087   2.954   3.386   0.134 -0.3266  0.1535 -0.3777
 6396SOL    HW220088   2.960   3.223   0.123 -0.1721  0.0074  1.4575
 6397SOL     OW20089   1.605   5.346   7.022  0.7867  0.2114 -0.3689
 6397SOL    HW120090   1.691   5.393   7.000  1.3268 -0.4525  0.2983
 6397SOL    HW220091   1.619   5.284   7.098 -0.1215 -0.4480 -0.7221
 6398SOL     OW20092   1.527   0.784   1.919  0.6885 -0.3575  0.3465
 6398SOL    HW120093   1.430   0.798   1.940  1.1256 -0.1678  2.4161
 6398SOL    HW220094   1.556   0.851   1.851 -0.5079 -0.1052  0.0551
 6399SOL     OW20095   6.796   3.465   3.414 -0.8209 -0.2411  0.7786
 6399SOL    HW120096   6.739   3.441   3.335 -1.6700  1.3414  0.8695
 6399SOL    HW220097   6.883   3.502   3.382 -1.4912  1.1694  0.5499
 6400SOL     OW20098   3.240   5.145   1.477  0.4228 -0.4157 -0.2420
 6400SOL    HW120099   3.310   5.150   1.549 -0.9736 -0.7664  1.2101
 6400SOL    HW220100   3.262   5.209   1.404  2.3798 -0.6976  0.0356
 6401SOL     OW20101   1.477   3.482   3.134 -0.0458  0.0290  0.4968
 6401SOL    HW120102   1.540   3.408   3.113 -0.4288 -0.5631  1.3389
 6401SOL    HW220103   1.521   3.570   3.117 -0.1653 -0.3453 -2.2490
 6402SOL     OW20104   5.561   2.265   1.446  0.1673 -0.1981 -0.0806
 6402SOL    HW120105   5.500   2.187   1.431 -1.3931  0.7199  1.1785
 6402SOL    HW220106   5.609   2.286   1.361 -0.9602 -1.2286 -1.0101
 6403SOL     OW20107   5.583   4.351   0.270 -0.0097  0.0027  0.1603
 6403SOL    HW120108   5.507   4.343   0.334 -1.4055  0.7660 -1.3190
 6403SOL    HW220109   5.597   4.263   0.224 -0.7064  0.1212 -0.2982
 6404SOL     OW20110   6.564   6.110   4.952  0.3542 -0.1491  0.9005
 6404SOL    HW120111   6.615   6.192   4.926 -0.7104  1.7868  4.2896
 6404SOL    HW220112   6.472   6.115   4.914 -0.4362  1.4721  2.8327
 6405SOL     OW20113   0.978   0.251   1.265 -0.0995 -0.2353 -0.2677
 6405SOL    HW120114   0.919   0.320   1.308 -1.2734 -1.7659  0.6499
 6405SOL    HW220115   1.068   0.252   1.310 -1.2622 -1.7349  2.2844
 6406SOL     OW20116   1.109   0.938   0.442 -0.2746  0.1239  0.0959
 6406SOL    HW120117   1.202   0.914   0.469 -0.9240 -2.4237  0.3655
 6406SOL    HW220118   1.053   0.952   0.523 -0.4625  0.1506 -0.0373
 6407SOL     OW20119   5.174   5.861   1.569 -0.1308 -0.2045 -0.5331
 6407SOL    HW120120   5.078   5.877   1.591 -0.2355 -2.6285  1.2913
 6407SOL    HW220121   5.212   5.940   1.522 -1.9380  2.5347  2.2465
 6408SOL     OW20122   1.378   3.806   5.491  0.2691 -0.7535  0.4564
 6408SOL    HW120123   1.429   3.734   5.443  0.2749  0.8263 -2.1027
 6408SOL    HW220124   1.282   3.801   5.465  0.5564  1.1777 -1.2632
 6409SOL     OW20125   7.002   6.903   3.372  0.2182  0.5292 -0.8730
 6409SOL    HW120126   6.921   6.959   3.393 -0.4794  0.3593 -2.9307
 6409SOL    HW220127   7.036   6.862   3.457 -1.4627  1.1094  0.1434
 6410SOL     OW20128   6.821   5.524   3.998 -0.0394  0.4126 -0.3016
 6410SOL    HW120129   6.850   5.516   4.093  1.1463 -0.3807 -0.7097
 6410SOL    HW220130   6.795   5.434   3.963  2.7611  0.0254 -1.6743
 6411SOL     OW20131   4.928   4.404   3.870 -0.3200 -0.1868 -0.4868
 6411SOL    HW120132   4.854   4.337   3.867  0.5684 -1.2194  0.0669
 6411SOL    HW220133   4.928   4.450   3.959 -0.5670  0.1538 -0.6569
 6412SOL     OW20134   6.311   3.102   4.331 -0.0070 -0.0136  0.0094
 6412SOL    HW120135   6.327   3.133   4.238 -1.6365 -0.8562 -0.5918
 6412SOL    HW220136   6.398   3.074   4.373  0.8721  1.2299 -0.9045
 6413SOL     OW20137   3.867   5.808   6.147 -0.1880 -0.0445 -0.4085
 6413SOL    HW120138   3.775   5.792   6.182 -0.0371 -1.7646 -0.7408
 6413SOL    HW220139   3.924   5.846   6.220 -0.7967 -0.2428  0.1822
 6414SOL     OW20140   0.147   3.488   1.619 -0.1882  0.7058  0.0427
 6414SOL    HW120141   0.084   3.439   1.679  1.2267  0.6221  1.5082
 6414SOL    HW220142   0.133   3.459   1.524 -1.6888  0.0115  0.4576
 6415SOL     OW20143   4.947   1.843   4.149  0.1335 -0.1024  0.2685
 6415SOL    HW120144   4.865   1.786   4.145  0.9132 -1.2327  0.0019
 6415SOL    HW220145   4.998   1.823   4.232  0.1428  0.6055  0.4399
 6416SOL     OW20146   2.102   0.157   2.145 -0.2051  0.0309  0.3397
 6416SOL    HW120147   2.143   0.198   2.063  0.6322 -0.5151  0.4776
 6416SOL    HW220148   2.123   0.214   2.225  2.8668 -1.7033  0.9121
 6417SOL     OW20149   5.496   2.699   6.671  0.2841 -0.1905 -0.4780
 6417SOL    HW120150   5.460   2.619   6.720 -2.4394 -0.0007 -2.0097
 6417SOL    HW220151   5.421   2.751   6.632  2.1498  1.7676 -1.6793
 6418SOL     OW20152   0.785   6.862   2.014 -0.6466 -0.2006  0.2921
 6418SOL    HW120153   0.878   6.891   2.035 -0.4587 -0.2414 -0.4696
 6418SOL    HW220154   0.778   6.840   1.917 -1.7636  1.0440  0.0589
 6419SOL     OW20155   5.411   4.688   5.116  0.3244 -0.0618  0.2887
 6419SOL    HW120156   5.347   4.737   5.176 -0.2972 -1.1164  0.5219
 6419SOL    HW220157   5.383   4.592   5.110  1.7152 -0.4770  0.1374
 6420SOL     OW20158   0.230   4.971   2.377 -0.0350  0.5193 -0.5202
 6420SOL    HW120159   0.218   5.066   2.403  0.1574  0.6264 -0.8199
 6420SOL    HW220160   0.262   4.965   2.282 -0.8936  0.1268 -0.7907
 6421SOL     OW20161   0.250   1.336   3.076 -0.4081  0.1580 -0.6146
 6421SOL    HW120162   0.172   1.389   3.109 -0.8256 -0.6351 -0.3011
 6421SOL    HW220163   0.280   1.372   2.988 -0.2682  1.3223 -0.1065
 6422SOL     OW20164   2.159   5.495   2.980 -0.3575  0.3474  0.3330
 6422SOL    HW120165   2.238   5.466   3.035 -2.0377 -1.1624  2.1152
 6422SOL    HW220166   2.181   5.580   2.932  1.0810  2.1670  3.8250
 6423SOL     OW20167   0.660   5.463   1.891  0.3168 -0.6613  0.0998
 6423SOL    HW120168   0.664   5.521   1.809  1.2262 -1.2435 -0.2819
 6423SOL    HW220169   0.753   5.448   1.925 -0.1257  0.8389  2.1669
 6424SOL     OW20170   2.768   0.933   3.155 -0.0055  0.6202  0.1143
 6424SOL    HW120171   2.810   1.012   3.111  0.3800  0.1934 -0.2823
 6424SOL    HW220172   2.772   0.945   3.255  0.4398  0.8972  0.0642
 6425SOL     OW20173   2.064   2.065   5.136 -0.1712 -0.7074  0.3713
 6425SOL    HW120174   2.090   2.078   5.231 -0.4422  0.0635  0.3480
 6425SOL    HW220175   2.125   2.117   5.076 -0.8628 -0.0452  0.2260
 6426SOL     OW20176   3.465   4.058   0.935 -0.4506 -0.1277  0.0371
 6426SOL    HW120177   3.556   4.094   0.913 -1.0237  0.8917 -0.7424
 6426SOL    HW220178   3.445   4.078   1.031 -0.4484  1.0329 -0.1796
 6427SOL     OW20179   4.915   3.796   4.803 -0.3178 -0.5747 -0.3886
 6427SOL    HW120180   4.861   3.740   4.866  1.8180 -1.7244  0.5193
 6427SOL    HW220181   5.004   3.816   4.843 -0.4016  2.2023 -1.3755
 6428SOL     OW20182   6.758   4.800   4.761  0.1507  0.0298  0.3733
 6428SOL    HW120183   6.749   4.727   4.693  0.2515  0.7935 -0.4812
 6428SOL    HW220184   6.854   4.829   4.767 -0.3166  2.4485 -1.8900
 6429SOL     OW20185   5.622   6.411   0.337  0.5822 -0.0132  0.4188
 6429SOL    HW120186   5.699   6.393   0.275 -0.5993 -1.9178 -0.5992
 6429SOL    HW220187   5.540   6.366   0.302 -0.0853 -1.4742  3.4995
 6430SOL     OW20188   6.084   1.807   0.174  0.6200  0.1015  0.0971
 6430SOL    HW120189   6.131   1.789   0.087  0.2288  0.2464 -0.1437
 6430SOL    HW220190   6.002   1.751   0.181  0.1247  0.7935 -0.0578
 6431SOL     OW20191   2.224   5.841   2.152  0.0082 -0.1998  0.1961
 6431SOL    HW120192   2.227   5.919   2.090  0.8987 -0.3168  0.0856
 6431SOL    HW220193   2.244   5.871   2.245 -0.9900 -0.0834  0.3921
 6432SOL     OW20194   4.355   2.681   0.831  0.2736 -0.3454  0.0895
 6432SOL    HW120195   4.323   2.599   0.879  0.9805 -0.7082 -0.0437
 6432SOL    HW220196   4.337   2.671   0.733 -1.3763  0.4931  0.2899
 6433SOL     OW20197   0.231   1.202   4.747 -0.1042  0.4618  0.3295
 6433SOL    HW120198   0.138   1.237   4.733  0.2738  1.2816 -0.2028
 6433SOL    HW220199   0.233   1.146   4.830 -1.3049 -0.4350 -0.2224
 6434SOL     OW20200   5.862   2.352   4.170 -0.2165  0.2654  0.1886
 6434SOL    HW120201   5.861   2.281   4.100 -1.7598  0.4071  0.0241
 6434SOL    HW220202   5.850   2.441   4.126 -2.0284  0.2861  0.6656
 6435SOL     OW20203   2.615   0.211   4.819  0.0254 -0.2967  0.3191
 6435SOL    HW120204   2.692   0.249   4.871  0.5764 -0.4495 -0.3719
 6435SOL    HW220205   2.593   0.120   4.854  0.4727 -0.4487  0.2161
 6436SOL     OW20206   5.892   3.698   4.750 -0.0420 -0.1733  0.4472
 6436SOL    HW120207   5.852   3.676   4.661  0.2124  1.8063 -0.2048
 6436SOL    HW220208   5.875   3.622   4.814 -1.4281 -1.0398 -0.8771
 6437SOL     OW20209   5.972   3.050   0.131  0.3479 -0.8823  0.4396
 6437SOL    HW120210   6.063   3.016   0.107 -0.1732 -2.0934  0.0409
 6437SOL    HW220211   5.967   3.070   0.228  1.6576  1.2869  0.1137
 6438SOL     OW20212   2.141   0.949   6.387 -0.0988 -0.1761 -0.5465
 6438SOL    HW120213   2.105   1.022   6.330  1.0607 -0.2913 -1.4627
 6438SOL    HW220214   2.076   0.929   6.461 -1.2658  0.5025 -1.3565
 6439SOL     OW20215   6.678   1.410   0.166 -0.5575  0.2405  0.4334
 6439SOL    HW120216   6.587   1.380   0.192  0.3629 -2.4700  0.8387
 6439SOL    HW220217   6.728   1.441   0.247 -0.8536  1.0181  0.3255
 6440SOL     OW20218   4.181   5.114   3.575  0.9162 -0.0259 -0.3067
 6440SOL    HW120219   4.128   5.098   3.659 -0.2908  1.7817 -0.6783
 6440SOL    HW220220   4.156   5.045   3.507  1.3613 -1.0605  0.5419
 6441SOL     OW20221   3.577   1.313   6.853 -0.0448  0.5141 -0.1347
 6441SOL    HW120222   3.667   1.340   6.887  0.6525 -0.9419 -0.7430
 6441SOL    HW220223   3.523   1.275   6.929  1.4012 -2.4653 -0.4345
 6442SOL     OW20224   4.340   5.333   3.868 -0.2796 -0.0102 -0.0156
 6442SOL    HW120225   4.421   5.274   3.863 -0.0462  0.2049  1.0808
 6442SOL    HW220226   4.258   5.277   3.858 -0.0097 -0.2699 -0.8480
 6443SOL     OW20227   1.271   0.056   6.309  0.0872 -0.2154  0.5002
 6443SOL    HW120228   1.247   0.090   6.218  1.8324  0.1370  0.1234
 6443SOL    HW220229   1.220  -0.027   6.329 -1.1204  0.2952 -0.3407
 6444SOL     OW20230   2.376   6.145   2.752 -0.3935  0.8473 -0.0995
 6444SOL    HW120231   2.419   6.055   2.765 -0.4397  1.0010  1.2513
 6444SOL    HW220232   2.396   6.178   2.659  2.0531  0.6958  0.2868
 6445SOL     OW20233   3.233   3.896   1.787 -0.1596  0.4331  0.1955
 6445SOL    HW120234   3.170   3.854   1.852 -0.4910  0.7298  0.0696
 6445SOL    HW220235   3.275   3.977   1.828 -0.1948  0.4897  0.1195
 6446SOL     OW20236   7.023   1.356   0.303  0.4524  0.2740 -0.0848
 6446SOL    HW120237   6.934   1.393   0.333 -0.0096  0.8414 -2.0318
 6446SOL    HW220238   7.010   1.300   0.222  1.6175 -1.5567  0.9376
 6447SOL     OW20239   4.531   7.020   5.642  0.0459  0.1442 -0.7734
 6447SOL    HW120240   4.484   6.952   5.698 -0.1237  2.0414  1.5559
 6447SOL    HW220241   4.467   7.056   5.574 -0.2483 -1.0599 -1.1556
 6448SOL     OW20242   4.932   4.424   5.843  0.2132 -0.2972  0.0017
 6448SOL    HW120243   4.905   4.493   5.910  0.0737 -1.4948  1.2109
 6448SOL    HW220244   4.860   4.415   5.774 -0.1437  0.1746  0.3061
 6449SOL     OW20245   2.761   5.428   0.818  0.0289 -0.7204 -0.5163
 6449SOL    HW120246   2.691   5.500   0.816  1.9401  1.2464 -1.8047
 6449SOL    HW220247   2.773   5.396   0.912 -1.8547 -0.3895 -0.1169
 6450SOL     OW20248   2.673   0.735   5.069  0.5513 -0.0451  0.2697
 6450SOL    HW120249   2.582   0.769   5.048 -0.1524 -0.7660  2.0084
 6450SOL    HW220250   2.741   0.798   5.031 -0.6767  1.4303  0.4244
 6451SOL     OW20251   2.016   2.531   5.598 -0.0232 -0.0004 -0.2102
 6451SOL    HW120252   2.047   2.550   5.691  0.5785  1.4239 -0.6778
 6451SOL    HW220253   2.095   2.511   5.540 -0.4404 -1.5055 -0.3129
 6452SOL     OW20254   3.055   0.806   0.130  0.9272  0.6811 -0.1140
 6452SOL    HW120255   3.039   0.718   0.173  2.0831  0.4373 -0.1544
 6452SOL    HW220256   3.000   0.813   0.047  0.4586  0.2123  0.1466
 6453SOL     OW20257   2.219   1.372   2.950  0.0827 -0.5327  0.4205
 6453SOL    HW120258   2.240   1.286   2.995  1.8098 -0.5020 -0.2605
 6453SOL    HW220259   2.209   1.444   3.019  2.0342 -0.6170  0.8529
 6454SOL     OW20260   2.881   2.068   4.142  0.1707  0.3506 -0.2200
 6454SOL    HW120261   2.940   1.994   4.110 -0.4817  0.1695 -1.0265
 6454SOL    HW220262   2.928   2.118   4.215  1.3603  0.2705 -0.9058
 6455SOL     OW20263   6.278   5.497   0.808 -0.1994  0.1815  0.3899
 6455SOL    HW120264   6.179   5.486   0.818 -0.2731  0.2402 -0.2897
 6455SOL    HW220265   6.324   5.417   0.847 -0.4593  0.6054  1.6422
 6456SOL     OW20266   0.637   0.871   3.817 -0.1196 -0.2385  0.6216
 6456SOL    HW120267   0.591   0.811   3.882  2.5973  0.8885  3.8338
 6456SOL    HW220268   0.582   0.953   3.802 -1.2730 -0.9908  0.5443
 6457SOL     OW20269   5.933   2.237   1.343 -0.9288 -0.9169 -0.3139
 6457SOL    HW120270   5.878   2.287   1.276  0.1172 -0.1248 -0.5988
 6457SOL    HW220271   5.993   2.173   1.296 -1.4326 -1.6147 -0.0172
 6458SOL     OW20272   1.005   3.362   3.068  0.4017 -0.0196  0.6706
 6458SOL    HW120273   0.955   3.431   3.120 -1.1408 -1.0008  0.5400
 6458SOL    HW220274   0.967   3.355   2.976  2.2289  0.7349 -0.1984
 6459SOL     OW20275   0.402   3.602   5.946  0.2852 -0.4447 -0.4947
 6459SOL    HW120276   0.308   3.585   5.975  0.7801 -0.4377  1.2475
 6459SOL    HW220277   0.405   3.682   5.886 -0.7800 -0.2462 -0.2880
 6460SOL     OW20278   5.435   4.507   5.572  0.3463  0.0895  0.1559
 6460SOL    HW120279   5.382   4.441   5.626  1.6681 -0.1276  1.2351
 6460SOL    HW220280   5.467   4.463   5.488  0.4428 -0.3514  0.4250
 6461SOL     OW20281   3.949   1.816   5.569 -0.3294  0.3127 -0.0272
 6461SOL    HW120282   4.022   1.831   5.503  1.3035 -0.3953  1.5157
 6461SOL    HW220283   3.932   1.718   5.578 -0.6673  0.4085  0.4157
 6462SOL     OW20284   4.094   0.131   4.614 -0.1000  0.1467  0.4276
 6462SOL    HW120285   4.156   0.083   4.552  1.3788  0.3880  1.6576
 6462SOL    HW220286   4.047   0.064   4.672  0.6450  0.0524  0.9438
 6463SOL     OW20287   2.572   2.474   0.902  0.4824 -0.5625  0.2997
 6463SOL    HW120288   2.626   2.557   0.889  2.3848 -1.6396  0.9529
 6463SOL    HW220289   2.578   2.417   0.820 -1.9958  0.4941 -0.7316
 6464SOL     OW20290   0.624   4.257   4.011  0.1875 -0.0786  0.1686
 6464SOL    HW120291   0.632   4.317   3.932  0.2562  0.2050  0.3886
 6464SOL    HW220292   0.580   4.171   3.984 -0.8968  0.4877  0.0666
 6465SOL     OW20293   0.432   3.497   2.254  0.1655 -0.0964 -0.7878
 6465SOL    HW120294   0.374   3.417   2.240  0.8312 -0.7988  0.3275
 6465SOL    HW220295   0.527   3.468   2.266  0.1474  0.6247  1.8136
 6466SOL     OW20296   1.336   0.376   6.592 -0.1665  0.1471 -0.4497
 6466SOL    HW120297   1.246   0.416   6.608 -1.1499 -2.1879  0.2788
 6466SOL    HW220298   1.343   0.346   6.497 -0.7080 -0.8622 -0.1872
 6467SOL     OW20299   2.616   4.785   4.187 -0.2698  0.0634  0.0654
 6467SOL    HW120300   2.675   4.745   4.258 -1.2802 -0.5803  0.5701
 6467SOL    HW220301   2.650   4.758   4.097  0.0257 -0.5633  0.3534
 6468SOL     OW20302   6.741   3.090   0.856  0.0385  0.1987 -0.0013
 6468SOL    HW120303   6.695   3.002   0.848 -0.1819  0.1774  1.2875
 6468SOL    HW220304   6.797   3.091   0.938  2.2609  0.2883 -1.4308
 6469SOL     OW20305   1.347   3.778   4.496 -0.0956  0.0573  0.1080
 6469SOL    HW120306   1.298   3.865   4.505  0.3393  0.1553  1.8967
 6469SOL    HW220307   1.410   3.784   4.418  1.0270  1.9303  1.0774
 6470SOL     OW20308   5.593   1.540   0.709  0.0272 -0.1243 -0.4248
 6470SOL    HW120309   5.555   1.619   0.757 -2.4910 -1.9458  0.8105
 6470SOL    HW220310   5.605   1.562   0.612 -2.6682  1.1817 -0.5585
 6471SOL     OW20311   5.545   6.760   6.266 -0.1013 -0.4957  0.3305
 6471SOL    HW120312   5.496   6.722   6.188  1.3347 -0.1745 -0.7650
 6471SOL    HW220313   5.562   6.688   6.333  0.4650 -1.2658 -0.6143
 6472SOL     OW20314   6.332   0.085   0.883 -0.0387  0.3656 -0.2847
 6472SOL    HW120315   6.392   0.162   0.906 -1.6330  1.2189  1.2353
 6472SOL    HW220316   6.248   0.090   0.937 -0.9467 -1.5140 -1.3966
 6473SOL     OW20317   2.883   1.976   2.504  0.0142 -0.2917 -0.7619
 6473SOL    HW120318   2.961   1.964   2.566  0.2539 -0.1643 -1.0353
 6473SOL    HW220319   2.910   2.034   2.427 -0.8141  1.0998 -0.0442
 6474SOL     OW20320   0.327   3.003   1.454 -0.4082 -0.1573  0.0052
 6474SOL    HW120321   0.425   3.024   1.445 -0.5349  0.2372 -0.5196
 6474SOL    HW220322   0.280   3.083   1.491 -0.9520  0.6685 -2.3107
 6475SOL     OW20323   6.585   5.632   3.970 -0.1681 -0.0067 -0.1530
 6475SOL    HW120324   6.681   5.606   3.966 -0.0124  0.6522 -2.6637
 6475SOL    HW220325   6.577   5.725   4.006  0.1697  0.0287 -0.1678
 6476SOL     OW20326   5.320   5.719   6.560  0.0228  0.1599  0.0770
 6476SOL    HW120327   5.312   5.814   6.529  0.4222  0.3688  0.5902
 6476SOL    HW220328   5.271   5.708   6.646  0.2005 -0.0320  0.1550
 6477SOL     OW20329   2.090   2.448   1.113  0.2843 -0.1740  0.3477
 6477SOL    HW120330   2.184   2.421   1.093  0.8028  2.1001 -0.4580
 6477SOL    HW220331   2.062   2.405   1.199  2.7232  0.5959  1.6150
 6478SOL     OW20332   2.818   4.248   0.352 -0.0964 -0.5958 -0.0542
 6478SOL    HW120333   2.892   4.260   0.418  0.7705 -0.6884 -0.9987
 6478SOL    HW220334   2.766   4.333   0.344  1.0547  0.0598 -0.7524
 6479SOL     OW20335   6.702   3.640   1.124  0.1576 -0.2141  0.0011
 6479SOL    HW120336   6.645   3.698   1.067 -2.2243  0.0558  2.4743
 6479SOL    HW220337   6.706   3.548   1.084 -1.1654  0.0393 -0.7633
 6480SOL     OW20338   0.148   3.226   3.557 -0.2068 -0.3643  0.3570
 6480SOL    HW120339   0.079   3.156   3.539  0.0226 -0.6660  0.6491
 6480SOL    HW220340   0.103   3.313   3.579 -0.5451 -1.0294  2.5600
 6481SOL     OW20341   3.196   4.227   1.700 -0.2155 -0.2542  0.2411
 6481SOL    HW120342   3.229   4.181   1.618  0.6373  0.8547 -0.0802
 6481SOL    HW220343   3.101   4.256   1.688  0.0459  0.2916 -0.5389
 6482SOL     OW20344   4.726   2.882   2.943 -0.3500  0.1343 -0.5479
 6482SOL    HW120345   4.689   2.823   2.870 -0.6634 -0.4352  0.0556
 6482SOL    HW220346   4.661   2.955   2.962 -0.1311  0.4603 -1.0441
 6483SOL     OW20347   0.491   2.442   2.145 -0.7880 -0.1237 -0.6307
 6483SOL    HW120348   0.580   2.486   2.134 -1.4998  1.7455  0.5331
 6483SOL    HW220349   0.454   2.466   2.235 -2.0553 -1.6469 -0.7188
 6484SOL     OW20350   1.744   1.039   0.009 -0.2948  0.6204  0.2991
 6484SOL    HW120351   1.695   0.986   0.079  0.1878  0.0302  0.2012
 6484SOL    HW220352   1.821   0.985  -0.025 -1.6629  0.0258 -2.1382
 6485SOL     OW20353   4.906   1.367   0.433 -0.0588  0.2946 -0.3312
 6485SOL    HW120354   4.989   1.363   0.489  1.0149 -2.5613 -1.8995
 6485SOL    HW220355   4.828   1.342   0.490  0.6421 -0.1355  0.4846
 6486SOL     OW20356   3.751   0.640   6.930 -0.0793 -0.5722 -0.1614
 6486SOL    HW120357   3.826   0.598   6.980 -0.8597 -2.4200 -0.4742
 6486SOL    HW220358   3.664   0.607   6.965 -0.8720  2.2091  0.8105
 6487SOL     OW20359   5.673   0.247   1.148  0.2680  0.1343  0.0776
 6487SOL    HW120360   5.583   0.224   1.111 -0.1745  0.5595  0.8604
 6487SOL    HW220361   5.694   0.343   1.128  2.0713 -0.7543 -3.1106
 6488SOL     OW20362   0.427   2.082   1.802 -0.4511 -0.0227  0.5017
 6488SOL    HW120363   0.461   2.013   1.866 -2.7209 -1.1763  0.5473
 6488SOL    HW220364   0.411   2.168   1.851  2.7854  0.7990  0.3690
 6489SOL     OW20365   5.061   6.765   5.084 -0.5484 -0.1907 -0.0861
 6489SOL    HW120366   5.062   6.864   5.075 -1.3817 -0.0769  0.8734
 6489SOL    HW220367   4.969   6.735   5.109  0.0924 -1.0319  1.3696
 6490SOL     OW20368   2.302   0.869   1.626  0.2357  0.5407 -0.0531
 6490SOL    HW120369   2.323   0.924   1.707 -0.3276  0.8775 -0.1292
 6490SOL    HW220370   2.267   0.779   1.655  2.1634 -0.2033  0.0745
 6491SOL     OW20371   0.747   5.449   6.083  0.4257 -0.5497  0.7758
 6491SOL    HW120372   0.668   5.408   6.128 -2.2966  0.3118 -2.7991
 6491SOL    HW220373   0.753   5.546   6.107  0.8487 -0.7536  1.5383
 6492SOL     OW20374   2.973   3.745   4.463  0.1282  0.2228 -0.4042
 6492SOL    HW120375   2.926   3.667   4.504 -1.9285  1.3103 -0.5520
 6492SOL    HW220376   2.984   3.817   4.531  3.1387 -0.5647  0.0792
 6493SOL     OW20377   0.173   1.716   6.225  0.3259 -0.3265  0.3942
 6493SOL    HW120378   0.253   1.690   6.171  1.8948  1.4580  1.7162
 6493SOL    HW220379   0.123   1.633   6.253  0.3305 -1.3653 -2.3610
 6494SOL     OW20380   1.490   0.064   4.498  0.1329 -0.2072 -0.3778
 6494SOL    HW120381   1.568   0.006   4.477  0.0105 -0.5811  0.1710
 6494SOL    HW220382   1.516   0.160   4.491  0.5813 -0.3326 -0.4225
 6495SOL     OW20383   1.699   4.448   2.754  0.1310 -0.1708  0.5471
 6495SOL    HW120384   1.632   4.453   2.680  0.5494  0.2992  0.1946
 6495SOL    HW220385   1.721   4.540   2.786 -2.2971 -0.3933  3.3516
 6496SOL     OW20386   2.387   3.261   0.268  0.4457 -0.4364  0.0255
 6496SOL    HW120387   2.420   3.294   0.180  2.0622 -0.2018  0.6803
 6496SOL    HW220388   2.321   3.327   0.305  0.5149 -0.0343 -0.5532
 6497SOL     OW20389   5.117   6.589   1.346 -0.7043  0.5180  0.0457
 6497SOL    HW120390   5.095   6.655   1.275  1.0265  1.6637  0.4927
 6497SOL    HW220391   5.174   6.633   1.416  1.6620 -1.7276 -0.3096
 6498SOL     OW20392   1.985   0.737   5.862  0.0227 -0.0613  0.5623
 6498SOL    HW120393   2.068   0.779   5.825 -0.6391  1.1120  0.3515
 6498SOL    HW220394   1.952   0.791   5.940  0.0780 -1.1574  1.3558
 6499SOL     OW20395   6.593   4.102   2.329 -0.2551  0.1721 -0.3043
 6499SOL    HW120396   6.589   4.038   2.406  0.6656  1.3946  0.7972
 6499SOL    HW220397   6.683   4.096   2.285 -0.9590 -0.9255 -1.6967
 6500SOL     OW20398   1.795   3.196   1.579  0.4423 -0.2436 -0.4829
 6500SOL    HW120399   1.775   3.120   1.640  0.7724 -0.3040 -0.4493
 6500SOL    HW220400   1.865   3.169   1.513 -0.2660 -0.3375 -1.2095
 6501SOL     OW20401   1.115   4.004   3.697 -0.7274 -0.0007  0.5631
 6501SOL    HW120402   1.126   4.096   3.733  1.9438  0.1556 -0.3626
 6501SOL    HW220403   1.136   4.005   3.599  1.2288 -1.8157  0.8855
 6502SOL     OW20404   1.288   6.234   1.974 -0.0304 -0.5053  0.2333
 6502SOL    HW120405   1.227   6.234   1.895 -0.7929  2.4579  0.6801
 6502SOL    HW220406   1.379   6.267   1.947 -0.3459  0.6964  0.5798
 6503SOL     OW20407   4.468   5.011   2.673 -0.2243  0.3830 -0.2243
 6503SOL    HW120408   4.488   4.919   2.639  0.5082  1.2713 -2.3196
 6503SOL    HW220409   4.512   5.023   2.762  0.0012 -1.1426 -0.0911
 6504SOL     OW20410   0.488   6.006   0.143 -0.2148 -0.5523 -0.3303
 6504SOL    HW120411   0.566   5.956   0.180 -1.1446 -1.8559 -0.0889
 6504SOL    HW220412   0.468   6.085   0.202  1.4882  0.3640 -0.9181
 6505SOL     OW20413   4.733   5.519   5.967  0.1920 -0.2773  0.4159
 6505SOL    HW120414   4.810   5.566   6.010 -0.2510 -0.2231  1.1654
 6505SOL    HW220415   4.719   5.554   5.875  0.3123  0.5519  0.7105
 6506SOL     OW20416   2.049   0.630   6.254  0.3996 -0.2960 -0.1289
 6506SOL    HW120417   1.993   0.707   6.225 -1.2769 -1.8580 -1.3348
 6506SOL    HW220418   2.005   0.584   6.331 -0.0182 -1.5233 -1.0642
 6507SOL     OW20419   5.197   0.975   4.877  0.1012  0.3486  0.5590
 6507SOL    HW120420   5.285   1.010   4.909 -0.7227  0.5895  2.7390
 6507SOL    HW220421   5.153   0.922   4.950 -1.1836 -0.5196 -0.7754
 6508SOL     OW20422   6.710   7.022   2.137  0.3230  0.3160  0.3002
 6508SOL    HW120423   6.665   7.004   2.224  1.4030  1.4972  1.1413
 6508SOL    HW220424   6.643   7.020   2.063 -0.7551  0.1606  1.2687
 6509SOL     OW20425   1.929   3.135   6.864  0.0010  0.3408  0.1882
 6509SOL    HW120426   2.004   3.128   6.799  1.8936  0.0519  2.3040
 6509SOL    HW220427   1.899   3.230   6.870  0.2358  0.4726 -0.6137
 6510SOL     OW20428   0.581   6.799   2.602  0.1841  0.7236  0.3866
 6510SOL    HW120429   0.656   6.864   2.617  0.3745  0.6209 -0.1035
 6510SOL    HW220430   0.574   6.778   2.504 -0.3458  0.5653  0.4545
 6511SOL     OW20431   5.953   4.160   3.531  0.2536  0.6335 -0.7512
 6511SOL    HW120432   5.946   4.199   3.439 -0.0743  0.1576 -0.9359
 6511SOL    HW220433   6.035   4.103   3.537 -0.0063  0.2322 -0.9242
 6512SOL     OW20434   7.016   3.748   1.692 -0.1184 -0.1093  0.1313
 6512SOL    HW120435   7.089   3.742   1.760 -1.2963 -1.4126  1.3459
 6512SOL    HW220436   7.043   3.697   1.610  0.8204  0.4660  0.0638
 6513SOL     OW20437   3.972   1.271   1.270  0.2325 -0.1047  0.5045
 6513SOL    HW120438   3.891   1.322   1.298 -1.9253 -1.0853 -3.2427
 6513SOL    HW220439   4.045   1.334   1.244 -0.7116  0.9485  0.3769
 6514SOL     OW20440   5.344   3.458   6.969  0.3384 -0.0991  0.3461
 6514SOL    HW120441   5.358   3.551   7.004  0.7305  0.1219 -0.3848
 6514SOL    HW220442   5.388   3.392   7.030  0.7624  0.2577  0.4306
 6515SOL     OW20443   1.909   6.551   0.454 -0.1850  0.0340  0.3716
 6515SOL    HW120444   1.818   6.579   0.482 -0.6682 -0.2779 -0.8361
 6515SOL    HW220445   1.940   6.609   0.379  0.3906 -0.2240  0.4040
 6516SOL     OW20446   2.194   6.581   1.547 -0.5238 -0.0866  0.5125
 6516SOL    HW120447   2.150   6.629   1.623  0.2245  0.9346  0.3181
 6516SOL    HW220448   2.292   6.571   1.566 -0.7066 -1.8857  0.7093
 6517SOL     OW20449   2.728   5.149   4.273 -0.1208 -0.5993  0.3756
 6517SOL    HW120450   2.828   5.157   4.278 -0.1481 -0.5726  0.9762
 6517SOL    HW220451   2.691   5.225   4.219  0.1272 -0.2052  0.7503
 6518SOL     OW20452   2.492   6.730   1.436 -0.3334  0.5939 -0.3468
 6518SOL    HW120453   2.416   6.749   1.374  1.7562  1.4689 -2.8018
 6518SOL    HW220454   2.558   6.805   1.432  2.7123 -1.9064 -1.5997
 6519SOL     OW20455   6.424   4.058   1.541  0.0174  0.0115  0.4462
 6519SOL    HW120456   6.417   3.964   1.574 -3.0961  0.6649  2.1341
 6519SOL    HW220457   6.405   4.060   1.443  1.4007 -1.2102  0.1255
 6520SOL     OW20458   0.364   1.244   5.400 -0.0436 -0.4887 -0.1782
 6520SOL    HW120459   0.362   1.309   5.324  0.1044 -2.1771 -1.7269
 6520SOL    HW220460   0.271   1.220   5.426 -0.0974  0.2790  0.3671
 6521SOL     OW20461   6.288   0.689   4.580  0.3007 -0.0741 -0.0182
 6521SOL    HW120462   6.372   0.679   4.632  0.5454  1.8221  0.0118
 6521SOL    HW220463   6.310   0.693   4.482  0.2483  0.3596 -0.0140
 6522SOL     OW20464   6.223   5.355   6.363 -0.3952  0.2015 -0.1641
 6522SOL    HW120465   6.204   5.263   6.330 -1.6884 -0.5918  2.5107
 6522SOL    HW220466   6.159   5.420   6.321 -0.3835 -0.3334 -1.0281
 6523SOL     OW20467   5.608   3.779   4.087  0.0212  0.0170  0.1176
 6523SOL    HW120468   5.638   3.696   4.134  1.8364  0.5169 -0.0635
 6523SOL    HW220469   5.574   3.755   3.996 -0.0525 -0.5842  0.2991
 6524SOL     OW20470   6.372   2.920   1.387  0.4728 -0.1160  0.0375
 6524SOL    HW120471   6.301   2.852   1.401 -0.5088  0.7580 -0.5455
 6524SOL    HW220472   6.344   2.983   1.315  1.9077  0.1644 -0.2993
 6525SOL     OW20473   7.010   3.765   3.697 -0.0271 -0.2251  0.2001
 6525SOL    HW120474   7.081   3.742   3.763 -0.0967 -2.1307 -0.3102
 6525SOL    HW220475   6.929   3.709   3.714 -1.6214  2.1881  1.0231
 6526SOL     OW20476   2.298   3.381   6.482 -0.2385  0.1038 -0.5973
 6526SOL    HW120477   2.243   3.450   6.530  0.2449 -0.3447  0.6645
 6526SOL    HW220478   2.375   3.426   6.436  0.3694  0.4031  0.6458
 6527SOL     OW20479   1.380   2.960   5.440 -0.3499 -0.4135 -0.5408
 6527SOL    HW120480   1.320   3.040   5.438  0.9126  0.5619 -2.4606
 6527SOL    HW220481   1.371   2.910   5.354 -1.4721 -2.6846  0.8014
 6528SOL     OW20482   3.194   1.344   4.699 -0.4905 -0.3176 -1.0348
 6528SOL    HW120483   3.223   1.300   4.614  1.9902 -0.7757 -0.0331
 6528SOL    HW220484   3.109   1.303   4.731 -1.1476 -0.5420 -2.9579
 6529SOL     OW20485   4.765   2.366   2.293  0.2064  0.6603  0.2826
 6529SOL    HW120486   4.702   2.444   2.295 -0.8833  0.0292 -2.8317
 6529SOL    HW220487   4.712   2.281   2.292  1.0763  0.0885 -1.3874
 6530SOL     OW20488   6.434   5.402   4.087 -0.0225 -0.2772 -0.0829
 6530SOL    HW120489   6.493   5.329   4.124  1.6408  1.0814  0.0422
 6530SOL    HW220490   6.490   5.477   4.054 -1.7090  1.7249  1.3340
 6531SOL     OW20491   0.151   3.549   4.160 -0.0486  0.0901  0.7159
 6531SOL    HW120492   0.056   3.563   4.132 -0.3788  1.9926  2.5759
 6531SOL    HW220493   0.172   3.607   4.238  2.9666  0.5417 -0.2814
 6532SOL     OW20494   4.721   6.260   6.289 -0.2960 -1.4250 -0.0056
 6532SOL    HW120495   4.659   6.330   6.323  0.4307 -0.7713  0.0235
 6532SOL    HW220496   4.765   6.293   6.205 -0.2755 -2.0281 -0.2385
 6533SOL     OW20497   4.779   0.893   2.109 -0.7875  0.1793 -0.0130
 6533SOL    HW120498   4.697   0.903   2.053 -0.4145 -2.7617 -1.2290
 6533SOL    HW220499   4.761   0.927   2.201 -2.9403  0.7280 -0.5838
 6534SOL     OW20500   4.588   1.724   1.080  0.3067  0.2456 -0.3322
 6534SOL    HW120501   4.645   1.781   1.021 -1.4979  0.1402 -2.2711
 6534SOL    HW220502   4.492   1.753   1.072 -0.0108  0.3863  2.7741
 6535SOL     OW20503   6.896   0.660   4.317 -0.3691  0.1393  0.5587
 6535SOL    HW120504   6.867   0.756   4.318  0.9734  0.5963 -0.6312
 6535SOL    HW220505   6.926   0.632   4.408 -1.1686  0.7075  1.0062
 6536SOL     OW20506   6.016   5.691   0.746 -0.4037 -0.1896  0.2416
 6536SOL    HW120507   5.987   5.602   0.780  1.3726 -1.0489 -0.3576
 6536SOL    HW220508   5.990   5.700   0.649  0.8405 -0.7906 -0.1775
 6537SOL     OW20509   0.533   1.728   5.959 -0.4699  0.1356 -0.1986
 6537SOL    HW120510   0.471   1.671   5.904 -0.1872 -1.2060  0.8341
 6537SOL    HW220511   0.516   1.711   6.056 -0.6039  2.0904  0.1578
 6538SOL     OW20512   4.585   4.094   1.466  0.9331  0.4989  1.2111
 6538SOL    HW120513   4.511   4.161   1.472  0.0547 -0.4722  1.5374
 6538SOL    HW220514   4.547   4.004   1.443  1.8302 -0.3389  2.8378
 6539SOL     OW20515   4.554   3.932   0.212  0.0996 -0.0982 -0.0031
 6539SOL    HW120516   4.614   3.956   0.135 -0.2232  0.0499 -0.2117
 6539SOL    HW220517   4.609   3.895   0.287  0.3228 -1.1017 -0.6483
 6540SOL     OW20518   5.814   4.241   4.857  0.0249 -0.0920 -0.8034
 6540SOL    HW120519   5.735   4.286   4.898  0.2837 -0.6102  0.2754
 6540SOL    HW220520   5.850   4.172   4.919  0.8384 -0.4258 -1.6222
 6541SOL     OW20521   5.618   1.741   6.160  0.4777  0.2784 -0.5562
 6541SOL    HW120522   5.556   1.747   6.238  0.2827 -1.7122 -0.5205
 6541SOL    HW220523   5.705   1.784   6.184  0.0313  0.7140  0.3463
 6542SOL     OW20524   6.286   5.301   6.781 -0.2609  0.3515 -0.0044
 6542SOL    HW120525   6.296   5.384   6.836 -2.9825  0.2103  0.8437
 6542SOL    HW220526   6.351   5.304   6.705  1.4695  2.0090  1.4222
 6543SOL     OW20527   3.902   0.004   0.054 -0.1856 -0.7000  0.0341
 6543SOL    HW120528   3.920  -0.090   0.025 -0.0952 -0.3023 -1.2540
 6543SOL    HW220529   3.948   0.068  -0.008  3.0292  0.2262  3.0562
 6544SOL     OW20530   6.137   6.433   6.817  0.4928 -0.4214  0.0496
 6544SOL    HW120531   6.100   6.348   6.853  0.1978 -0.0685  0.5986
 6544SOL    HW220532   6.164   6.492   6.892 -0.1869  0.3477 -0.2869
 6545SOL     OW20533   6.523   2.406   3.480 -0.6142 -0.1421  0.2790
 6545SOL    HW120534   6.508   2.482   3.416  0.3687 -0.0623  0.1266
 6545SOL    HW220535   6.617   2.372   3.470 -1.3820 -2.1821 -0.5060
 6546SOL     OW20536   6.949   3.192   3.955  0.2551 -0.0896  0.2223
 6546SOL    HW120537   7.048   3.182   3.966  0.2045 -0.8401  0.0715
 6546SOL    HW220538   6.917   3.271   4.007  1.3151  1.8843 -1.9459
 6547SOL     OW20539   3.067   1.070   1.752  0.2409 -0.1774 -0.8075
 6547SOL    HW120540   3.001   1.069   1.677 -1.7449  1.3648  0.7915
 6547SOL    HW220541   3.074   1.163   1.788  0.6204 -0.9877  1.3312
 6548SOL     OW20542   5.653   5.428   5.838 -0.0773  0.3824 -0.0681
 6548SOL    HW120543   5.641   5.471   5.928  0.7193  1.6826 -0.5659
 6548SOL    HW220544   5.599   5.477   5.770  0.5614  0.3701 -0.5890
 6549SOL     OW20545   1.969   5.869   0.237  0.3346  0.2056 -0.0709
 6549SOL    HW120546   1.959   5.879   0.138 -0.9077 -1.9107 -0.2345
 6549SOL    HW220547   2.064   5.845   0.258  0.6193  0.7021 -0.7536
 6550SOL     OW20548   6.119   4.406   0.410 -0.1079 -0.1269  0.0145
 6550SOL    HW120549   6.045   4.462   0.374 -0.2312 -0.9243 -1.0405
 6550SOL    HW220550   6.081   4.327   0.459  0.0613  0.2482  0.7718
 6551SOL     OW20551   5.527   4.119   0.624 -0.3585  0.0678  0.2980
 6551SOL    HW120552   5.475   4.151   0.545 -0.3873 -0.4226  0.1124
 6551SOL    HW220553   5.616   4.086   0.593 -0.0258  0.6717  0.5813
 6552SOL     OW20554   5.703   6.162   3.952  1.1456  0.3153 -0.3597
 6552SOL    HW120555   5.673   6.255   3.932 -2.5479 -0.9130 -1.2857
 6552SOL    HW220556   5.681   6.141   4.048 -0.0592 -0.2276 -0.7336
 6553SOL     OW20557   6.162   4.938   3.342 -0.3759 -0.2784 -0.5849
 6553SOL    HW120558   6.107   4.854   3.344  0.7444 -1.0186  1.3295
 6553SOL    HW220559   6.232   4.930   3.271 -2.1926  0.3856 -2.5577
 6554SOL     OW20560   1.880   2.471   1.432 -0.5344 -0.2689 -0.4008
 6554SOL    HW120561   1.787   2.484   1.467 -0.3102 -1.5515  0.7589
 6554SOL    HW220562   1.946   2.509   1.497 -0.1752 -1.1787 -0.2159
 6555SOL     OW20563   2.417   3.629   5.750  0.2059 -0.3997 -0.1605
 6555SOL    HW120564   2.388   3.694   5.680 -3.1370 -2.6040 -1.0752
 6555SOL    HW220565   2.487   3.568   5.712 -0.3344 -0.4963 -1.0247
 6556SOL     OW20566   1.721   4.240   0.709  0.0601 -0.1022 -0.3882
 6556SOL    HW120567   1.711   4.166   0.642  0.8051 -1.1769  0.6436
 6556SOL    HW220568   1.810   4.283   0.698 -0.2000  0.3714 -0.6997
 6557SOL     OW20569   5.280   1.566   3.729 -0.3623  0.4291 -0.8872
 6557SOL    HW120570   5.197   1.566   3.673 -0.5021  0.8141 -0.6849
 6557SOL    HW220571   5.268   1.630   3.805  0.7814  1.8039 -1.8270
 6558SOL     OW20572   1.113   1.309   3.239 -0.0213 -0.0555  0.2153
 6558SOL    HW120573   1.140   1.389   3.293  0.3635 -0.7610  1.1063
 6558SOL    HW220574   1.060   1.247   3.296  1.2395 -1.2877  0.1168
 6559SOL     OW20575   5.668   5.616   1.727  0.0919 -0.1629  0.2941
 6559SOL    HW120576   5.583   5.606   1.777 -0.3313 -0.4247 -0.4616
 6559SOL    HW220577   5.654   5.677   1.649  0.6412 -0.0567  0.2747
 6560SOL     OW20578   3.127   3.450   6.238  0.4579  0.2857  0.3708
 6560SOL    HW120579   3.203   3.512   6.254 -1.1078  2.1090  1.0968
 6560SOL    HW220580   3.083   3.428   6.325 -0.3896 -0.0364 -0.1306
 6561SOL     OW20581   4.272   2.330   4.262  0.3048 -0.3742  0.2066
 6561SOL    HW120582   4.192   2.385   4.236  1.6776  1.4925 -0.3324
 6561SOL    HW220583   4.283   2.332   4.361 -0.1850 -0.4277  0.2624
 6562SOL     OW20584   4.953   4.043   1.073 -0.2207 -0.6208 -0.4292
 6562SOL    HW120585   4.976   4.114   1.140  0.2096 -0.9434 -0.2283
 6562SOL    HW220586   5.037   4.016   1.025 -0.6043 -0.0042 -1.4834
 6563SOL     OW20587   0.190   1.594   6.726  0.1170  0.3929  0.3262
 6563SOL    HW120588   0.090   1.590   6.726  0.0366  1.8621 -0.0707
 6563SOL    HW220589   0.220   1.676   6.774  1.2052 -0.7932  1.7733
 6564SOL     OW20590   3.422   0.050   2.461  0.2304  0.0131  0.5066
 6564SOL    HW120591   3.424   0.039   2.561 -1.2740  0.0389  0.5492
 6564SOL    HW220592   3.407  -0.040   2.419  0.7666  0.0192  0.2859
 6565SOL     OW20593   0.459   6.807   0.751  0.4187 -0.0406  0.6353
 6565SOL    HW120594   0.503   6.858   0.677 -0.0646  1.6021  1.4146
 6565SOL    HW220595   0.529   6.760   0.805  0.9089 -0.0404  0.0129
 6566SOL     OW20596   3.910   0.814   0.475 -0.0248  0.0675  0.0431
 6566SOL    HW120597   3.818   0.821   0.513 -0.5351  1.2788 -1.3730
 6566SOL    HW220598   3.966   0.890   0.508  0.0143  0.2079 -0.3486
 6567SOL     OW20599   5.794   0.138   2.828 -0.0785  0.6439 -0.2584
 6567SOL    HW120600   5.766   0.188   2.745 -1.5401 -1.4756 -1.1168
 6567SOL    HW220601   5.785   0.198   2.907 -1.4176  1.8714 -1.2791
 6568SOL     OW20602   4.292   1.851   0.453 -0.3091 -0.3269 -0.1190
 6568SOL    HW120603   4.202   1.856   0.410 -0.1485 -2.4632 -0.8327
 6568SOL    HW220604   4.289   1.896   0.542 -1.8499  0.3668 -0.4923
 6569SOL     OW20605   0.155   3.985   1.447 -0.4722 -0.4521  0.4442
 6569SOL    HW120606   0.116   4.047   1.515  0.5978  0.7730 -0.0076
 6569SOL    HW220607   0.250   4.011   1.429 -0.0664 -2.1095  0.0646
 6570SOL     OW20608   6.657   1.764   2.916  0.2616  0.6376 -0.5397
 6570SOL    HW120609   6.573   1.711   2.926  0.1046  1.0904  0.6739
 6570SOL    HW220610   6.723   1.735   2.985  0.5531  1.2983 -0.5343
 6571SOL     OW20611   6.965   5.111   4.943  0.4112  0.4962  0.1873
 6571SOL    HW120612   7.033   5.184   4.933  1.2846 -0.2171  0.7809
 6571SOL    HW220613   6.998   5.028   4.898  0.2543 -0.0594  1.0719
 6572SOL     OW20614   6.322   1.618   5.180 -0.3448  0.0059  0.4453
 6572SOL    HW120615   6.332   1.606   5.081  0.2511 -0.6220  0.5811
 6572SOL    HW220616   6.275   1.539   5.219  0.8817 -0.5181  0.8953
 6573SOL     OW20617   5.022   0.159   1.537 -0.1564 -0.3372 -0.3586
 6573SOL    HW120618   5.118   0.178   1.517 -0.2152 -1.1521 -1.5104
 6573SOL    HW220619   4.982   0.238   1.583  1.1807 -0.1800  0.6014
 6574SOL     OW20620   1.538   5.253   3.343  0.0286  0.3068  0.2385
 6574SOL    HW120621   1.449   5.255   3.387  0.7769  0.5312  1.8136
 6574SOL    HW220622   1.562   5.346   3.313  0.0624  0.3880  0.5146
 6575SOL     OW20623   3.193   0.867   6.872 -0.3388  0.6834 -0.2271
 6575SOL    HW120624   3.285   0.903   6.886 -0.6682  0.8815  1.8142
 6575SOL    HW220625   3.196   0.795   6.803  0.9190  2.2376 -1.8860
 6576SOL     OW20626   2.025   3.539   3.638 -0.0352  0.0619  0.2153
 6576SOL    HW120627   1.996   3.535   3.543 -0.8882 -2.5097  0.5030
 6576SOL    HW220628   2.077   3.457   3.660 -0.5756  0.1951  2.1745
 6577SOL     OW20629   2.598   0.300   3.071 -0.0405  0.2561  0.1132
 6577SOL    HW120630   2.574   0.221   3.128  0.9414  0.6996  1.1900
 6577SOL    HW220631   2.566   0.284   2.978 -2.6508 -0.0407  0.9713
 6578SOL     OW20632   1.964   4.930   6.346  0.2663 -0.0023 -0.2730
 6578SOL    HW120633   1.957   4.886   6.256 -0.9182  1.9026 -1.1790
 6578SOL    HW220634   2.056   4.966   6.359  0.0988  0.8591 -1.3326
 6579SOL     OW20635   2.480   4.144   0.382  0.6296  0.2528  0.2183
 6579SOL    HW120636   2.572   4.155   0.344  0.2759  1.2232 -0.3807
 6579SOL    HW220637   2.465   4.047   0.404  1.6525  0.0242 -0.0164
 6580SOL     OW20638   3.936   5.137   7.002  0.5552 -0.7223 -0.6305
 6580SOL    HW120639   4.026   5.115   7.039  0.7884  2.3978  1.0524
 6580SOL    HW220640   3.871   5.147   7.078 -0.3107  0.5223 -1.5019
 6581SOL     OW20641   2.597   3.412   0.585  0.5048 -0.0375 -0.5073
 6581SOL    HW120642   2.583   3.328   0.638 -0.9040 -0.8866 -2.1557
 6581SOL    HW220643   2.659   3.394   0.509 -0.1222  0.2968 -1.1123
 6582SOL     OW20644   4.229   5.564   0.461 -0.3892 -0.0116  0.3035
 6582SOL    HW120645   4.275   5.512   0.389 -0.4115 -1.0941  1.0477
 6582SOL    HW220646   4.198   5.502   0.533 -2.0118  0.8287  0.3810
 6583SOL     OW20647   5.759   2.327   5.241  0.2767 -0.4744 -0.3004
 6583SOL    HW120648   5.721   2.420   5.245  1.1863 -0.0723 -0.7333
 6583SOL    HW220649   5.852   2.328   5.277 -0.6937 -1.8019  2.5692
 6584SOL     OW20650   0.610   6.092   1.602  0.9290 -0.5749  0.3236
 6584SOL    HW120651   0.659   6.179   1.611  1.0665 -0.6959  0.7375
 6584SOL    HW220652   0.609   6.065   1.506  1.0454 -0.2106  0.2159
 6585SOL     OW20653   4.300   2.832   6.900 -0.0315  0.0421  0.9188
 6585SOL    HW120654   4.364   2.798   6.969  0.8091 -2.0315 -0.7507
 6585SOL    HW220655   4.348   2.895   6.839  0.2750 -0.9519  0.1006
 6586SOL     OW20656   2.468   3.630   1.689 -0.4202 -0.4054  0.0033
 6586SOL    HW120657   2.471   3.576   1.604  0.3314 -0.0548 -0.2038
 6586SOL    HW220658   2.420   3.578   1.759 -1.5622 -0.4691 -0.7962
 6587SOL     OW20659   0.519   1.293   5.992 -0.4522 -0.5686  0.3614
 6587SOL    HW120660   0.472   1.333   5.914 -0.2852 -2.4773 -0.7616
 6587SOL    HW220661   0.571   1.365   6.040 -3.4990  1.3788  1.0174
 6588SOL     OW20662   6.089   2.587   0.252 -0.0214 -0.3078  0.1282
 6588SOL    HW120663   6.131   2.584   0.162 -0.4015  1.0204 -0.1139
 6588SOL    HW220664   6.000   2.542   0.249 -0.2838  0.2229 -0.3147
 6589SOL     OW20665   1.446   4.093   3.825 -0.1987 -0.7497 -0.0812
 6589SOL    HW120666   1.529   4.113   3.773 -0.2685 -0.6554 -0.1569
 6589SOL    HW220667   1.470   4.078   3.921 -0.3274  1.7467  0.4215
 6590SOL     OW20668   3.818   4.103   5.001  0.3008 -0.4273  0.2854
 6590SOL    HW120669   3.764   4.018   5.000  0.9100 -0.8278  0.5889
 6590SOL    HW220670   3.758   4.180   5.023  0.0788 -1.0440  2.0755
 6591SOL     OW20671   3.244   1.526   5.164 -0.9297  0.5337  0.2082
 6591SOL    HW120672   3.208   1.617   5.182  0.2116  0.6671  2.2362
 6591SOL    HW220673   3.289   1.492   5.247  0.5175 -0.9950 -1.1236
 6592SOL     OW20674   1.975   6.711   0.238  0.7108  0.0605  0.1141
 6592SOL    HW120675   1.996   6.681   0.146  1.4407 -0.5239  0.4627
 6592SOL    HW220676   2.058   6.714   0.293  0.2121 -0.1093  0.9009
 6593SOL     OW20677   4.360   1.559   6.982 -0.4463 -0.0824  0.2203
 6593SOL    HW120678   4.459   1.549   6.966 -0.2692  1.7788 -0.1695
 6593SOL    HW220679   4.314   1.473   6.962  0.9766 -0.6619 -0.7524
 6594SOL     OW20680   5.503   6.128   6.064 -0.2478 -0.4889  0.4423
 6594SOL    HW120681   5.514   6.188   6.143  0.9237  0.5459 -0.4552
 6594SOL    HW220682   5.520   6.034   6.091 -0.1075 -0.1852  1.4624
 6595SOL     OW20683   3.121   4.903   1.060  0.7629  0.2839  0.0859
 6595SOL    HW120684   3.071   4.928   1.143  0.0438 -0.8014  0.0066
 6595SOL    HW220685   3.126   4.982   0.999 -0.7443  0.4734  0.1638
 6596SOL     OW20686   6.965   2.051   3.837 -0.3157 -0.4756 -0.2213
 6596SOL    HW120687   6.883   2.018   3.789 -1.1461 -2.4289  2.3145
 6596SOL    HW220688   6.957   2.149   3.853 -0.7873 -0.0931 -2.4350
 6597SOL     OW20689   4.429   5.237   3.538  0.6990 -0.1259  0.1617
 6597SOL    HW120690   4.338   5.195   3.538 -0.6007  2.4559  0.9699
 6597SOL    HW220691   4.482   5.204   3.616  0.5606 -1.7470 -0.3851
 6598SOL     OW20692   5.702   0.280   3.725  0.2722 -0.0672 -0.1119
 6598SOL    HW120693   5.772   0.276   3.653  1.8003 -0.4796  1.3203
 6598SOL    HW220694   5.694   0.190   3.769 -0.7235  0.1438  0.1665
 6599SOL     OW20695   3.098   1.782   1.672  0.2892  0.3452  0.1333
 6599SOL    HW120696   3.166   1.841   1.629  0.4911 -0.4604 -0.6951
 6599SOL    HW220697   3.142   1.722   1.739  0.4039 -0.1264 -0.3514
 6600SOL     OW20698   6.655   1.501   0.683 -0.2377  0.3222 -0.1315
 6600SOL    HW120699   6.620   1.581   0.634  0.8721 -0.3858 -2.2337
 6600SOL    HW220700   6.640   1.419   0.627 -0.3955 -0.7936  1.4969
 6601SOL     OW20701   6.767   3.255   2.217 -0.0540  0.0831  0.3375
 6601SOL    HW120702   6.687   3.203   2.247  0.1921  0.7411  2.3096
 6601SOL    HW220703   6.831   3.194   2.171 -1.0627 -0.7466 -0.0014
 6602SOL     OW20704   3.215   3.284   0.306  0.4077  0.3757 -0.4863
 6602SOL    HW120705   3.172   3.353   0.363 -0.8773  0.2826 -1.3125
 6602SOL    HW220706   3.149   3.213   0.282  1.2419 -0.2363 -1.0781
 6603SOL     OW20707   5.169   4.004   5.395 -0.0201  0.0714 -0.3069
 6603SOL    HW120708   5.074   4.028   5.378 -0.5480 -1.5451  0.1701
 6603SOL    HW220709   5.174   3.911   5.431  1.7684  0.0267 -0.5680
 6604SOL     OW20710   2.048   6.534   2.440  0.7792  0.0809  0.0305
 6604SOL    HW120711   2.073   6.557   2.345  0.3672 -0.3145 -0.1762
 6604SOL    HW220712   1.999   6.447   2.441 -0.0994  0.5693  0.4946
 6605SOL     OW20713   0.906   5.590   1.594 -0.1736  0.0047  0.3174
 6605SOL    HW120714   0.845   5.518   1.562 -1.6180  1.3484 -0.0999
 6605SOL    HW220715   0.882   5.615   1.687 -0.3437  0.6051  0.1186
 6606SOL     OW20716   6.685   4.898   0.092 -0.1986  0.0915  0.7649
 6606SOL    HW120717   6.700   4.897   0.190  0.6840 -0.8756  0.6330
 6606SOL    HW220718   6.763   4.857   0.045 -1.3157 -0.9830 -0.2283
 6607SOL     OW20719   4.344   4.431   1.667  0.2652  0.9349  0.1601
 6607SOL    HW120720   4.367   4.362   1.736  1.7090 -0.4498 -1.5789
 6607SOL    HW220721   4.262   4.480   1.695 -2.1725 -2.9337  0.5949
 6608SOL     OW20722   4.082   6.906   2.452 -0.4446  0.5640 -0.0484
 6608SOL    HW120723   4.127   6.836   2.397 -1.1573 -0.7910  1.0319
 6608SOL    HW220724   4.140   6.987   2.458  0.7975 -0.2675 -0.5867
 6609SOL     OW20725   2.638   0.941   0.163 -0.3530  0.0353  0.1033
 6609SOL    HW120726   2.572   0.881   0.209  0.8485 -2.2187 -0.9490
 6609SOL    HW220727   2.635   0.925   0.065 -0.0027  1.7872 -0.2277
 6610SOL     OW20728   4.941   4.214   6.023  0.0912 -0.8393  0.1344
 6610SOL    HW120729   4.955   4.286   5.955 -0.6961 -0.6433  0.1643
 6610SOL    HW220730   5.029   4.178   6.053  0.4528 -1.6188 -1.7173
 6611SOL     OW20731   5.674   0.630   1.223 -0.3815 -0.2088  0.1593
 6611SOL    HW120732   5.756   0.596   1.269 -2.2219  0.1400  4.1282
 6611SOL    HW220733   5.669   0.729   1.234 -1.5857 -0.2945  0.5488
 6612SOL     OW20734   1.060   6.387   3.372 -0.1404  0.3596 -0.4688
 6612SOL    HW120735   0.964   6.359   3.371  0.1843 -0.8096 -1.2135
 6612SOL    HW220736   1.089   6.402   3.466 -0.1865 -2.5572  0.1041
 6613SOL     OW20737   4.777   1.838   4.930 -0.2881 -0.2018  0.0896
 6613SOL    HW120738   4.798   1.763   4.868 -2.2649 -1.1464  0.4853
 6613SOL    HW220739   4.719   1.805   5.005 -0.6185  1.5602  0.6654
 6614SOL     OW20740   4.544   0.386   4.501 -0.1312 -0.0710 -0.3077
 6614SOL    HW120741   4.517   0.375   4.596  0.7903  1.5988  0.2016
 6614SOL    HW220742   4.607   0.464   4.494 -0.5496  0.1213 -2.3548
 6615SOL     OW20743   3.090   0.438   2.836  0.3025 -0.3001 -0.0869
 6615SOL    HW120744   3.168   0.499   2.821  0.3449 -0.4328 -0.4166
 6615SOL    HW220745   3.083   0.374   2.760 -0.4124  0.0255 -0.3064
 6616SOL     OW20746   0.444   1.352   5.754 -0.1835 -0.2222  0.0955
 6616SOL    HW120747   0.348   1.368   5.728  0.0876  1.7636  0.1844
 6616SOL    HW220748   0.503   1.382   5.680  0.4221 -0.3329  0.5334
 6617SOL     OW20749   6.985   2.373   2.271 -0.3595 -0.6284  0.2010
 6617SOL    HW120750   7.007   2.346   2.178  0.7547 -1.2963  0.6391
 6617SOL    HW220751   6.886   2.381   2.282 -0.5364 -1.3451 -0.8166
 6618SOL     OW20752   0.109   5.474   0.813 -0.1240  0.1456  0.2133
 6618SOL    HW120753   0.196   5.484   0.765  0.5332  1.2573  1.5558
 6618SOL    HW220754   0.034   5.495   0.751  0.6509  0.7445 -0.5430
 6619SOL     OW20755   2.085   3.271   6.658 -0.0784  0.0820 -0.2646
 6619SOL    HW120756   2.011   3.312   6.604  0.9491  0.8774 -1.1075
 6619SOL    HW220757   2.170   3.276   6.606  0.4791 -1.3052  0.4680
 6620SOL     OW20758   5.070   3.282   0.752 -0.8604 -0.4843 -0.0977
 6620SOL    HW120759   5.167   3.303   0.759 -1.3710  1.5662  1.6660
 6620SOL    HW220760   5.044   3.279   0.655  0.4346  1.6623 -0.5839
 6621SOL     OW20761   2.368   3.055   1.686 -0.6886 -0.0349  0.2268
 6621SOL    HW120762   2.407   3.138   1.726 -1.5343  0.1382  0.7085
 6621SOL    HW220763   2.441   3.004   1.640  0.1835  0.1313  1.3481
 6622SOL     OW20764   1.698   1.964   5.670 -0.0298  0.1740 -0.0874
 6622SOL    HW120765   1.677   2.054   5.632 -0.8720 -0.3844 -0.9967
 6622SOL    HW220766   1.770   1.921   5.616  0.6443  0.4497  0.5804
 6623SOL     OW20767   2.474   5.881   0.817 -0.4021  0.0276  0.0186
 6623SOL    HW120768   2.475   5.930   0.904 -1.5978  0.0176  0.0521
 6623SOL    HW220769   2.381   5.847   0.798  0.0555 -0.8443 -0.7707
 6624SOL     OW20770   2.511   6.667   5.823  0.7850 -0.3255 -0.7063
 6624SOL    HW120771   2.457   6.594   5.782  0.4160  1.4242 -3.6409
 6624SOL    HW220772   2.456   6.750   5.829  1.6474  0.1580  1.0989
 6625SOL     OW20773   6.720   1.933   3.462  0.4330 -0.3935  0.0047
 6625SOL    HW120774   6.756   2.016   3.419  2.1212 -1.8365 -1.5819
 6625SOL    HW220775   6.633   1.909   3.420 -0.0165  0.5016  0.4049
 6626SOL     OW20776   2.082   5.658   4.595 -0.0272 -0.1050 -0.1789
 6626SOL    HW120777   2.033   5.585   4.643  1.6979 -2.1755 -1.3647
 6626SOL    HW220778   2.024   5.695   4.522 -0.8861 -0.3480  0.3607
 6627SOL     OW20779   1.216   2.212   6.934  0.0135  0.3135 -0.3744
 6627SOL    HW120780   1.203   2.309   6.914  0.0515  0.2189 -0.8656
 6627SOL    HW220781   1.267   2.169   6.860  2.0842  0.4125  0.9159
 6628SOL     OW20782   2.034   5.988   2.906 -0.2479  0.0933 -0.0558
 6628SOL    HW120783   2.029   6.079   2.947  0.4817 -0.4462  1.2817
 6628SOL    HW220784   2.061   5.921   2.975  0.3012 -0.9751 -1.2535
 6629SOL     OW20785   2.341   5.092   2.583  0.7349 -0.3997  0.3830
 6629SOL    HW120786   2.370   5.184   2.555 -0.5757  0.3093  1.1905
 6629SOL    HW220787   2.415   5.047   2.632  1.2697  0.4038  0.3342
 6630SOL     OW20788   2.500   6.013   2.339 -0.0343 -0.3904  0.1735
 6630SOL    HW120789   2.522   5.984   2.246  0.6374  0.6784 -0.0223
 6630SOL    HW220790   2.484   6.112   2.340 -0.0747 -0.3915  1.1896
 6631SOL     OW20791   2.863   5.608   2.995  0.2230 -0.0445  0.4932
 6631SOL    HW120792   2.938   5.574   2.939  0.3482  1.2947 -0.1787
 6631SOL    HW220793   2.799   5.533   3.013  1.2030 -0.9675  0.2581
 6632SOL     OW20794   3.554   3.760   5.886 -0.0581  0.2701  0.2822
 6632SOL    HW120795   3.515   3.843   5.927  0.0996 -0.3748  1.8417
 6632SOL    HW220796   3.644   3.743   5.926 -0.5748 -1.2643  0.8814
 6633SOL     OW20797   6.593   5.196   4.259 -0.5264 -0.2714  0.2875
 6633SOL    HW120798   6.600   5.108   4.213 -0.2233 -0.4965  0.7460
 6633SOL    HW220799   6.564   5.181   4.354  2.5006 -0.2000  1.3311
 6634SOL     OW20800   5.307   1.106   2.037 -0.0415  0.1264  0.2282
 6634SOL    HW120801   5.263   1.189   2.070  1.0390  0.8238 -0.0151
 6634SOL    HW220802   5.260   1.073   1.955  0.4459  1.4037 -0.5903
 6635SOL     OW20803   1.149   1.730   1.921 -0.1877  0.2161 -0.4735
 6635SOL    HW120804   1.087   1.698   1.992 -1.4585  2.0398 -0.6802
 6635SOL    HW220805   1.098   1.787   1.856  1.1669 -0.4465 -2.2156
 6636SOL     OW20806   1.652   4.607   1.228  0.1837  0.0954 -0.1828
 6636SOL    HW120807   1.596   4.572   1.152 -0.1839  2.7604 -1.2588
 6636SOL    HW220808   1.592   4.628   1.305  0.6519 -3.4061  1.3199
 6637SOL     OW20809   2.614   1.240   0.173 -0.1484  0.0566 -0.4504
 6637SOL    HW120810   2.647   1.280   0.088  0.3282  0.8761  0.1074
 6637SOL    HW220811   2.645   1.146   0.180 -0.8498 -0.2722 -1.5448
 6638SOL     OW20812   5.064   5.813   5.064 -0.1666 -0.2385  0.5512
 6638SOL    HW120813   5.012   5.756   5.128 -1.3044 -1.0804 -1.0570
 6638SOL    HW220814   5.083   5.902   5.106 -2.9053  0.0991  1.2086
 6639SOL     OW20815   5.343   3.865   6.433 -0.1791 -0.4801  0.6563
 6639SOL    HW120816   5.404   3.944   6.442 -0.6227 -0.2447  1.8279
 6639SOL    HW220817   5.250   3.897   6.413 -0.1039 -0.7870 -0.2155
 6640SOL     OW20818   1.636   5.925   2.182  0.0981  0.1502  0.0433
 6640SOL    HW120819   1.617   5.851   2.246  0.9027  0.2135  0.3698
 6640SOL    HW220820   1.550   5.963   2.148 -0.3283 -0.2661  0.6406
 6641SOL     OW20821   6.030   5.491   4.260  0.6091 -0.5894 -0.3001
 6641SOL    HW120822   6.080   5.409   4.289  2.2102 -0.0664 -1.4521
 6641SOL    HW220823   6.089   5.548   4.203 -0.5785  1.2298  0.1938
 6642SOL     OW20824   6.997   0.072   0.203  0.5778  0.1379  0.2247
 6642SOL    HW120825   7.011   0.067   0.302 -1.0864  1.0293  0.5303
 6642SOL    HW220826   6.941  -0.005   0.173 -0.2677  0.7320  0.2486
 6643SOL     OW20827   5.233   5.621   2.690  0.2451 -0.3484  0.7121
 6643SOL    HW120828   5.240   5.545   2.754  0.7170  0.1113  1.2197
 6643SOL    HW220829   5.304   5.614   2.621  0.6766 -0.0506  1.1163
 6644SOL     OW20830   6.533   2.508   1.861  0.1142  0.2167 -0.6508
 6644SOL    HW120831   6.467   2.566   1.909 -0.1473 -1.5388  1.2258
 6644SOL    HW220832   6.485   2.450   1.795  0.4458  2.4419 -3.0384
 6645SOL     OW20833   2.468   1.425   2.034 -0.0869 -0.5048  0.1475
 6645SOL    HW120834   2.372   1.404   2.016 -0.4082 -0.2815  1.5021
 6645SOL    HW220835   2.502   1.486   1.962 -0.7538 -1.1150 -0.7089
 6646SOL     OW20836   6.446   2.202   5.532 -0.3147  0.4137 -0.0314
 6646SOL    HW120837   6.412   2.160   5.616  0.5954  1.4936  0.9190
 6646SOL    HW220838   6.454   2.133   5.460  0.6912 -0.9423  1.3279
 6647SOL     OW20839   6.706   2.697   4.738  0.1028 -0.8758 -0.4588
 6647SOL    HW120840   6.746   2.766   4.677 -0.4192  0.3110  0.5168
 6647SOL    HW220841   6.608   2.688   4.718 -0.2588  0.1389  0.7310
 6648SOL     OW20842   0.424   6.518   6.456  0.4764 -0.1185 -0.8645
 6648SOL    HW120843   0.472   6.443   6.409  2.7004 -0.3572  1.5095
 6648SOL    HW220844   0.458   6.605   6.422  0.6041 -0.2427 -1.0642
 6649SOL     OW20845   0.918   3.877   5.822  0.0722  0.2336 -0.4310
 6649SOL    HW120846   0.993   3.842   5.765  1.1383 -0.1044  1.0974
 6649SOL    HW220847   0.933   3.974   5.839  0.2376  0.1451 -0.0490
 6650SOL     OW20848   2.086   1.898   3.306 -0.5527  0.4183  0.1958
 6650SOL    HW120849   2.050   1.961   3.375  2.3058  0.9678  1.3091
 6650SOL    HW220850   2.125   1.818   3.351  3.8417  2.0018 -0.3420
 6651SOL     OW20851   6.252   3.415   5.177 -0.5002 -0.4694 -0.8940
 6651SOL    HW120852   6.320   3.385   5.110 -0.6927 -0.6993 -0.9887
 6651SOL    HW220853   6.256   3.514   5.186  0.4856 -0.5664 -0.2039
 6652SOL     OW20854   2.377   4.521   5.678  0.7212  0.5283  0.1772
 6652SOL    HW120855   2.316   4.559   5.609 -2.1928  1.4916  3.0720
 6652SOL    HW220856   2.381   4.422   5.668 -3.5436  0.0593  1.3345
 6653SOL     OW20857   0.095   1.177   3.402  0.2104 -0.0433 -0.3462
 6653SOL    HW120858   0.126   1.237   3.475 -1.7303  0.4374  0.1430
 6653SOL    HW220859   0.092   1.228   3.316 -1.7962  0.7687  0.1378
 6654SOL     OW20860   6.304   3.233   2.394  0.0526 -0.0617  0.0690
 6654SOL    HW120861   6.243   3.305   2.427  0.9515  1.6174 -1.7344
 6654SOL    HW220862   6.371   3.211   2.464 -1.8995 -1.2043  1.6959
 6655SOL     OW20863   2.852   4.510   6.318 -0.8204 -0.3812  0.1439
 6655SOL    HW120864   2.845   4.466   6.228  0.8320 -1.7876  0.6251
 6655SOL    HW220865   2.898   4.447   6.382 -2.4368  0.3667  2.1399
 6656SOL     OW20866   5.061   6.177   4.915 -0.1789 -0.0072 -0.4307
 6656SOL    HW120867   5.108   6.247   4.862 -0.7889  0.9612  0.2911
 6656SOL    HW220868   4.991   6.134   4.858  0.7270 -0.6114 -1.1251
 6657SOL     OW20869   3.555   0.839   4.895 -0.4113  0.7269 -0.2260
 6657SOL    HW120870   3.639   0.890   4.915  0.2406  0.1330 -1.3572
 6657SOL    HW220871   3.502   0.828   4.979  1.0228  0.4187  0.6731
 6658SOL     OW20872   6.607   2.900   5.823 -0.1329 -0.0099  0.0811
 6658SOL    HW120873   6.541   2.925   5.894  0.8373 -1.1529  1.4420
 6658SOL    HW220874   6.603   2.801   5.807 -0.5859  0.2790 -1.7463
 6659SOL     OW20875   5.551   0.750   2.835 -0.6168 -0.5812 -0.3096
 6659SOL    HW120876   5.639   0.787   2.863 -1.0640 -0.6434  1.3079
 6659SOL    HW220877   5.523   0.678   2.899 -2.8752  1.0046  0.6292
 6660SOL     OW20878   4.341   1.867   5.192 -0.1777  0.7152  0.1270
 6660SOL    HW120879   4.415   1.805   5.166 -1.4275 -1.1724  0.9303
 6660SOL    HW220880   4.355   1.898   5.286  0.0295  1.0673 -0.0149
 6661SOL     OW20881   0.697   5.439   0.575  0.2098 -0.6805  0.5231
 6661SOL    HW120882   0.755   5.469   0.650  0.9115 -2.9576  0.9569
 6661SOL    HW220883   0.754   5.420   0.495 -0.2558 -0.5205  0.1485
 6662SOL     OW20884   6.659   3.260   0.034  0.9485 -0.4781  0.0006
 6662SOL    HW120885   6.747   3.221   0.007  0.9095 -1.3323  1.0429
 6662SOL    HW220886   6.648   3.253   0.133  0.8144  1.9641  0.2222
 6663SOL     OW20887   6.342   1.064   5.767 -0.0453 -0.0870 -0.1689
 6663SOL    HW120888   6.318   1.161   5.760 -1.1744 -0.3103  0.3714
 6663SOL    HW220889   6.384   1.034   5.681 -2.7876  0.0747 -1.6757
 6664SOL     OW20890   3.341   5.190   0.260  0.0154  0.1565  0.1776
 6664SOL    HW120891   3.422   5.181   0.203 -0.1567 -1.3245  0.1248
 6664SOL    HW220892   3.271   5.125   0.229  0.2092 -1.2878  2.5239
 6665SOL     OW20893   2.846   4.897   0.866 -0.5280  0.7947  0.0564
 6665SOL    HW120894   2.920   4.933   0.810  0.0953 -0.5531 -0.0061
 6665SOL    HW220895   2.762   4.894   0.811 -0.5558  1.9560  0.0108
 6666SOL     OW20896   4.504   5.054   5.023 -0.3440 -0.2121 -0.2928
 6666SOL    HW120897   4.507   4.957   4.996  1.1216 -0.3598  0.3159
 6666SOL    HW220898   4.409   5.081   5.036 -0.8051 -1.4826 -0.7680
 6667SOL     OW20899   4.154   6.364   5.548 -0.0929  0.0227  0.1331
 6667SOL    HW120900   4.199   6.340   5.462  0.0039 -1.5135  0.5855
 6667SOL    HW220901   4.056   6.344   5.541  0.1155 -1.3379  0.7757
 6668SOL     OW20902   4.270   1.880   2.867  0.3452  0.3177 -0.1638
 6668SOL    HW120903   4.334   1.893   2.944  1.5331 -0.3912 -0.9954
 6668SOL    HW220904   4.233   1.788   2.871 -1.8185  1.1775  1.1442
 6669SOL     OW20905   0.578   0.855   6.657 -0.1107  0.8755 -0.1723
 6669SOL    HW120906   0.580   0.955   6.656 -1.6353  0.9243 -0.8079
 6669SOL    HW220907   0.556   0.822   6.565 -0.6311 -0.0088  0.2632
 6670SOL     OW20908   1.490   6.386   1.219 -0.0333 -0.1615 -0.4037
 6670SOL    HW120909   1.444   6.311   1.172  1.6030 -0.5926 -1.3876
 6670SOL    HW220910   1.573   6.353   1.263 -0.1710  0.7586  0.5938
 6671SOL     OW20911   1.809   2.045   0.442 -0.4552  0.5348 -0.3699
 6671SOL    HW120912   1.780   2.140   0.425 -0.2452  0.3871 -1.6413
 6671SOL    HW220913   1.908   2.038   0.433 -0.4901  0.1542 -0.4770
 6672SOL     OW20914   0.603   0.934   5.739 -0.3324 -0.0387 -0.2155
 6672SOL    HW120915   0.561   0.843   5.749 -1.1606  0.5188  2.1304
 6672SOL    HW220916   0.558   0.984   5.666  1.1001 -1.9753 -2.5518
 6673SOL     OW20917   0.473   4.660   0.285  0.0299 -0.1790  0.3745
 6673SOL    HW120918   0.555   4.627   0.238 -1.5043  0.2184 -2.7797
 6673SOL    HW220919   0.435   4.586   0.340  0.8961 -1.2741 -0.4412
 6674SOL     OW20920   0.705   2.796   1.836 -0.0673  0.3890  0.4794
 6674SOL    HW120921   0.744   2.865   1.897  1.5340  1.3740 -1.5259
 6674SOL    HW220922   0.776   2.761   1.775 -1.7155  0.1120 -1.3969
 6675SOL     OW20923   6.081   6.793   2.285 -0.1804  0.2746 -0.0373
 6675SOL    HW120924   6.022   6.838   2.352 -0.4936  0.9742 -0.7679
 6675SOL    HW220925   6.029   6.776   2.201 -0.2898 -2.1749  0.4814
 6676SOL     OW20926   2.768   5.792   2.286 -0.0354  0.4575 -0.3699
 6676SOL    HW120927   2.813   5.729   2.222 -0.8407 -0.4501 -0.0704
 6676SOL    HW220928   2.719   5.862   2.234  0.1623  0.3318 -0.7326
 6677SOL     OW20929   6.275   0.124   2.758  0.5718  0.6567 -0.1605
 6677SOL    HW120930   6.240   0.207   2.801  0.8181 -0.0962  1.6085
 6677SOL    HW220931   6.199   0.060   2.744  0.1765  1.5293 -2.5627
 6678SOL     OW20932   3.766   1.088   1.190 -0.3432 -0.0633 -0.1041
 6678SOL    HW120933   3.760   1.028   1.269 -0.5075  2.4942  1.9794
 6678SOL    HW220934   3.852   1.139   1.193 -0.8898  0.9487 -0.8939
 6679SOL     OW20935   4.577   5.834   2.445  0.1098  0.2577 -0.1385
 6679SOL    HW120936   4.676   5.818   2.446  0.2347  1.0369 -0.1506
 6679SOL    HW220937   4.545   5.832   2.350  0.4705  2.1470 -0.3270
 6680SOL     OW20938   5.087   0.455   4.451 -0.1921 -0.3257 -0.2510
 6680SOL    HW120939   5.054   0.534   4.399  0.7791  2.0625  2.5148
 6680SOL    HW220940   5.178   0.429   4.419  0.3372  1.0208  0.1141
 6681SOL     OW20941   2.123   3.510   3.019 -0.0697 -0.4145  0.7751
 6681SOL    HW120942   2.118   3.557   3.107 -1.8497 -1.0933  1.0946
 6681SOL    HW220943   2.135   3.577   2.946 -0.7308  0.3686  1.3715
 6682SOL     OW20944   6.249   2.280   4.596  0.2476 -0.2577  0.4789
 6682SOL    HW120945   6.248   2.242   4.688  0.8743  0.4726  0.7960
 6682SOL    HW220946   6.257   2.206   4.530  1.7883 -0.6794  1.0977
 6683SOL     OW20947   5.290   4.526   2.904  0.3329  0.6152 -0.2463
 6683SOL    HW120948   5.359   4.581   2.857  0.2818  1.3329  0.4979
 6683SOL    HW220949   5.302   4.535   3.003 -0.6547  0.5301 -0.1089
 6684SOL     OW20950   6.191   5.669   0.398  0.3427 -1.0570 -0.8189
 6684SOL    HW120951   6.207   5.767   0.388 -0.9093 -0.5326  1.5236
 6684SOL    HW220952   6.092   5.651   0.396  0.4330 -1.9322  0.9117
 6685SOL     OW20953   4.941   3.100   5.819 -0.0684  0.1053 -0.8417
 6685SOL    HW120954   5.031   3.088   5.778  1.0261 -2.0684  1.8302
 6685SOL    HW220955   4.932   3.193   5.853  1.3599  0.2469 -0.7830
 6686SOL     OW20956   4.881   3.045   5.478 -0.0605 -0.1672  0.1010
 6686SOL    HW120957   4.829   3.128   5.460 -0.8340 -0.8140 -0.7425
 6686SOL    HW220958   4.821   2.965   5.469  0.6866 -0.8261  0.7967
 6687SOL     OW20959   0.642   3.465   4.939 -0.2956 -0.0075 -0.6129
 6687SOL    HW120960   0.687   3.552   4.961  0.2543 -0.7088  1.2525
 6687SOL    HW220961   0.552   3.483   4.900 -0.8653  1.4264  1.2283
 6688SOL     OW20962   0.668   3.450   0.600 -0.1511  0.1845 -0.7806
 6688SOL    HW120963   0.628   3.496   0.679 -0.6529  0.9793 -1.4886
 6688SOL    HW220964   0.651   3.351   0.607 -1.0459  0.3583 -0.3873
 6689SOL     OW20965   1.184   2.418   0.909  0.0922 -0.5166  0.7344
 6689SOL    HW120966   1.187   2.514   0.938  2.0469 -0.2478 -0.2159
 6689SOL    HW220967   1.113   2.370   0.961 -1.4309  1.5808  0.7316
 6690SOL     OW20968   6.293   2.723   5.706 -0.0631 -0.1229  0.3596
 6690SOL    HW120969   6.220   2.654   5.700 -0.2770  0.2106 -1.4072
 6690SOL    HW220970   6.262   2.807   5.663 -0.0512  1.3777  3.0483
 6691SOL     OW20971   5.945   2.121   2.927  0.2955 -0.2625  0.0086
 6691SOL    HW120972   5.912   2.050   2.990  0.3706 -1.0886 -0.8696
 6691SOL    HW220973   5.881   2.132   2.851  0.2711  0.6461  0.1421
 6692SOL     OW20974   3.748   6.888   2.720 -0.1600  0.5104  0.3090
 6692SOL    HW120975   3.701   6.911   2.635  0.8209  2.1205  0.1679
 6692SOL    HW220976   3.710   6.943   2.795  2.0951  2.6161  0.0059
 6693SOL     OW20977   2.160   6.960   5.132 -0.3970  0.2220  0.4176
 6693SOL    HW120978   2.103   7.026   5.083  1.9419  0.8514 -1.6632
 6693SOL    HW220979   2.120   6.941   5.221 -2.9859  1.7639 -0.3095
 6694SOL     OW20980   3.442   2.768   0.197 -0.2634  0.2850  0.0365
 6694SOL    HW120981   3.509   2.749   0.269  1.1834  0.8455 -1.1085
 6694SOL    HW220982   3.454   2.704   0.121 -0.8441  0.5728 -0.3099
 6695SOL     OW20983   1.271   2.975   0.139  0.0515  0.3852  0.5494
 6695SOL    HW120984   1.289   3.057   0.194 -2.0386  2.1483 -1.2292
 6695SOL    HW220985   1.207   2.916   0.188  0.0736  0.7490  1.0283
 6696SOL     OW20986   4.437   0.793   6.359 -0.2808 -0.1295 -0.2336
 6696SOL    HW120987   4.386   0.779   6.274 -0.4824  0.7569 -0.2721
 6696SOL    HW220988   4.383   0.850   6.421  0.9274  1.4601 -0.5691
 6697SOL     OW20989   4.176   0.697   5.638  0.9636  0.2127 -0.1237
 6697SOL    HW120990   4.091   0.683   5.688  0.9837 -1.0273 -0.3987
 6697SOL    HW220991   4.161   0.682   5.541  1.5566 -0.3063 -0.1413
 6698SOL     OW20992   5.965   3.978   0.201  0.1623 -1.1452 -0.3700
 6698SOL    HW120993   6.004   4.070   0.202  0.4368 -1.2594  0.8508
 6698SOL    HW220994   5.867   3.983   0.219  0.4237 -1.1809  1.1466
 6699SOL     OW20995   6.781   3.593   5.101  0.1655 -0.5550 -0.1247
 6699SOL    HW120996   6.780   3.690   5.078 -1.7140 -0.2866  0.8562
 6699SOL    HW220997   6.875   3.559   5.099  0.8328  1.2230 -0.7113
 6700SOL     OW20998   2.437   6.935   1.075 -0.0568 -0.1153  0.0116
 6700SOL    HW120999   2.507   7.000   1.107  0.5267 -1.7493  2.2960
 6700SOL    HW221000   2.347   6.978   1.081  0.4154  0.8475  0.4274
 6701SOL     OW21001   4.797   2.039   0.553  0.4755 -0.4450  0.0322
 6701SOL    HW121002   4.699   2.046   0.533  0.5229  0.7338  0.1536
 6701SOL    HW221003   4.810   2.039   0.652  0.5306 -2.0252  0.0628
 6702SOL     OW21004   3.536   5.233   3.328 -0.0018  0.7518  0.3357
 6702SOL    HW121005   3.530   5.305   3.397  1.9717 -0.3197  1.7201
 6702SOL    HW221006   3.630   5.226   3.294 -0.1881 -0.9956  0.0708
 6703SOL     OW21007   5.959   1.482   1.455  0.1198 -0.2886 -0.0485
 6703SOL    HW121008   6.017   1.480   1.537  0.2236 -1.2810 -0.1375
 6703SOL    HW221009   5.863   1.481   1.483  0.1438  0.1235  0.0675
 6704SOL     OW21010   4.944   1.767   6.706  0.1412 -0.2842 -0.5671
 6704SOL    HW121011   4.969   1.748   6.611 -0.9942 -0.3239 -0.8697
 6704SOL    HW221012   5.017   1.819   6.749  0.4894  0.1076 -1.5953
 6705SOL     OW21013   4.392   4.109   0.831  0.4360  0.4274  0.5742
 6705SOL    HW121014   4.471   4.162   0.800  0.7607  0.2253  1.0499
 6705SOL    HW221015   4.358   4.147   0.917  1.0436 -0.4904  1.2369
 6706SOL     OW21016   5.210   3.996   0.452 -0.3313  0.1705  0.6449
 6706SOL    HW121017   5.132   4.004   0.514 -0.5467 -0.1939  0.4219
 6706SOL    HW221018   5.178   4.002   0.358 -0.5053 -2.8794  0.4321
 6707SOL     OW21019   4.273   0.537   3.858 -0.0897  0.5258 -0.0629
 6707SOL    HW121020   4.231   0.458   3.814 -1.1261  0.0795  1.6332
 6707SOL    HW221021   4.370   0.519   3.873 -0.2103 -0.2358 -0.1348
 6708SOL     OW21022   6.074   1.432   2.482 -0.5648 -0.2636 -0.5044
 6708SOL    HW121023   6.063   1.531   2.490  2.3373  0.1256 -0.1202
 6708SOL    HW221024   6.001   1.386   2.532 -0.9790  1.7186  0.8161
 6709SOL     OW21025   6.685   4.271   1.033  0.5868  0.0653 -0.0560
 6709SOL    HW121026   6.617   4.287   0.963  1.4086 -0.9417 -1.1277
 6709SOL    HW221027   6.658   4.192   1.088  0.9605 -0.4417 -0.5924
 6710SOL     OW21028   3.659   3.306   5.060  0.1011  0.4465 -0.1606
 6710SOL    HW121029   3.622   3.294   4.968 -1.3399  0.2850  0.4228
 6710SOL    HW221030   3.619   3.388   5.101 -0.2669 -0.1936  0.7940
 6711SOL     OW21031   5.889   4.990   6.601  0.2677  0.0211 -0.0226
 6711SOL    HW121032   5.969   4.960   6.652  1.1218  1.0261 -0.7187
 6711SOL    HW221033   5.830   5.045   6.660 -0.7337 -2.0027  0.9316
 6712SOL     OW21034   3.688   5.542   5.415  0.3509  0.2506 -0.0315
 6712SOL    HW121035   3.659   5.446   5.423 -0.7956  0.3988 -1.8260
 6712SOL    HW221036   3.632   5.599   5.475  1.6470 -0.2486  1.7559
 6713SOL     OW21037   0.792   5.082   1.178 -0.0309  0.1203 -0.3306
 6713SOL    HW121038   0.879   5.126   1.158  0.5034 -0.2951  0.9861
 6713SOL    HW221039   0.798   4.984   1.156 -0.2909  0.1610 -0.5879
 6714SOL     OW21040   0.345   1.805   1.601  0.1636 -0.2795  0.9204
 6714SOL    HW121041   0.426   1.777   1.652 -0.2000 -0.4658  1.4056
 6714SOL    HW221042   0.358   1.898   1.566  0.1089  0.1592  2.0248
 6715SOL     OW21043   4.585   4.725   6.092 -0.2304 -0.5042  0.4928
 6715SOL    HW121044   4.500   4.676   6.074  0.3400 -1.0474 -0.8206
 6715SOL    HW221045   4.573   4.822   6.069 -0.8205 -0.3578  1.3869
 6716SOL     OW21046   0.211   6.559   3.146 -0.4380 -0.7014  0.0740
 6716SOL    HW121047   0.185   6.557   3.049 -2.7718 -1.2134  0.6365
 6716SOL    HW221048   0.130   6.581   3.201  0.5530 -1.6673  1.9992
 6717SOL     OW21049   6.002   2.447   4.609 -0.1759  0.0163  0.5569
 6717SOL    HW121050   6.065   2.370   4.620  0.9801  0.8464 -0.0922
 6717SOL    HW221051   5.934   2.424   4.539  1.6093  0.4247 -1.4215
 6718SOL     OW21052   6.107   1.456   5.240  0.5044  0.2235 -0.3558
 6718SOL    HW121053   6.017   1.471   5.281  0.0955 -2.8547  0.0687
 6718SOL    HW221054   6.095   1.427   5.145  0.9331 -1.2692  0.0199
 6719SOL     OW21055   3.587   5.852   5.240 -0.2349 -0.1257  0.2820
 6719SOL    HW121056   3.534   5.780   5.195 -0.3802 -0.4598  0.9668
 6719SOL    HW221057   3.548   5.941   5.218 -2.1809 -0.4386  2.1103
 6720SOL     OW21058   6.253   2.122   0.265 -0.0871 -0.1993 -0.3865
 6720SOL    HW121059   6.187   2.118   0.340 -1.0653 -1.3852 -1.2765
 6720SOL    HW221060   6.209   2.094   0.180  2.1550 -3.8533 -0.5645
 6721SOL     OW21061   1.476   2.292   5.651  0.1775  0.3284  0.8481
 6721SOL    HW121062   1.549   2.352   5.684 -0.0545  1.3036 -0.3262
 6721SOL    HW221063   1.415   2.343   5.591 -0.5411 -0.8759  0.5057
 6722SOL     OW21064   6.705   6.912   3.389  0.3922 -0.1316 -0.3860
 6722SOL    HW121065   6.639   6.978   3.352 -0.9160 -0.8614  0.5782
 6722SOL    HW221066   6.668   6.819   3.381  0.6643 -0.4355  1.4223
 6723SOL     OW21067   4.230   2.637   0.509 -0.5431 -0.3531  0.2987
 6723SOL    HW121068   4.194   2.643   0.416 -1.3204 -1.7457  0.4776
 6723SOL    HW221069   4.156   2.653   0.575  0.4353  3.0316  0.7702
 6724SOL     OW21070   2.814   0.277   0.400  0.0745 -0.3154 -0.0331
 6724SOL    HW121071   2.887   0.329   0.445 -0.4862 -0.2958  0.8877
 6724SOL    HW221072   2.752   0.340   0.354 -0.7066 -0.1134  1.2343
 6725SOL     OW21073   0.550   6.399   4.531  0.1780  0.7401  0.6661
 6725SOL    HW121074   0.459   6.405   4.489  0.2446  1.0852  0.5610
 6725SOL    HW221075   0.565   6.307   4.565  0.3643  0.2685 -0.6248
 6726SOL     OW21076   1.824   0.594   0.831 -0.3755  0.4317  0.4656
 6726SOL    HW121077   1.869   0.598   0.742  0.7024  3.5102  1.0398
 6726SOL    HW221078   1.871   0.527   0.890 -0.7974 -1.2630 -1.0343
 6727SOL     OW21079   2.924   1.310   2.445  0.5574 -0.2522 -0.0623
 6727SOL    HW121080   2.918   1.365   2.528  0.7571  1.2980 -1.0423
 6727SOL    HW221081   2.930   1.370   2.365 -1.1828 -1.6669 -1.3411
 6728SOL     OW21082   5.832   2.511   2.723 -0.0050  0.4085 -0.4309
 6728SOL    HW121083   5.786   2.439   2.774  0.6063  1.0954  1.1452
 6728SOL    HW221084   5.790   2.600   2.744  1.4036  0.9266  0.3262
 6729SOL     OW21085   3.291   3.941   1.482 -0.0080  0.7783 -0.3152
 6729SOL    HW121086   3.213   3.910   1.536 -0.6040  1.7611 -0.5840
 6729SOL    HW221087   3.375   3.904   1.521 -0.6409 -0.8338 -0.4057
 6730SOL     OW21088   4.976   0.012   5.679 -0.0104 -0.3578  0.3399
 6730SOL    HW121089   4.964   0.071   5.600 -0.7769 -0.1385  0.6158
 6730SOL    HW221090   4.970   0.067   5.763  1.7474 -0.4152  0.5425
 6731SOL     OW21091   1.942   4.960   6.017  0.2742  0.3474  0.5213
 6731SOL    HW121092   1.849   4.957   5.982 -0.0261  0.7901  1.2388
 6731SOL    HW221093   1.950   5.036   6.083  1.5922  1.4205 -0.8048
 6732SOL     OW21094   0.111   5.894   3.715 -0.2607 -0.0024 -0.7696
 6732SOL    HW121095   0.188   5.837   3.743 -0.3763 -0.1076 -0.6652
 6732SOL    HW221096   0.121   5.986   3.754 -0.4355 -0.1565 -0.3550
 6733SOL     OW21097   5.190   1.050   1.775 -0.3609 -0.6959 -0.0910
 6733SOL    HW121098   5.268   1.078   1.719  0.9249  1.9024  2.6716
 6733SOL    HW221099   5.108   1.100   1.745 -0.6176 -2.1004 -1.8738
 6734SOL     OW21100   1.467   6.955   1.543 -0.2975 -0.1166  0.2763
 6734SOL    HW121101   1.467   7.023   1.617  1.0335 -2.5915  2.7584
 6734SOL    HW221102   1.442   6.866   1.580 -2.8690 -0.9509 -3.0188
 6735SOL     OW21103   6.767   4.666   3.017  0.3837  0.3436  0.1011
 6735SOL    HW121104   6.687   4.652   3.076  0.5611  1.0667  0.5204
 6735SOL    HW221105   6.762   4.757   2.976  0.5395  0.0507 -0.5827
 6736SOL     OW21106   3.813   0.525   0.414  0.3023  0.2929 -0.3019
 6736SOL    HW121107   3.739   0.514   0.348  0.2081  1.4286 -0.4104
 6736SOL    HW221108   3.839   0.622   0.419  0.5907  0.1687  1.0078
 6737SOL     OW21109   1.425   1.798   6.033  0.2622  0.1746  0.3193
 6737SOL    HW121110   1.362   1.769   5.961  2.2700 -2.2976 -0.6282
 6737SOL    HW221111   1.483   1.872   5.999 -1.6212  2.0695  1.0088
 6738SOL     OW21112   2.151   7.018   1.082 -0.7398  0.2313  0.2635
 6738SOL    HW121113   2.121   7.063   0.998  1.6868  0.1805 -0.7008
 6738SOL    HW221114   2.109   6.927   1.088 -0.5867  0.0468 -1.1382
 6739SOL     OW21115   3.144   5.995   1.680  0.4572  0.2687  0.3308
 6739SOL    HW121116   3.226   6.048   1.703  0.6337  0.6433 -1.0737
 6739SOL    HW221117   3.132   5.994   1.581 -0.1743 -1.4066  0.4017
 6740SOL     OW21118   5.207   4.792   5.253  0.2382  0.5782  0.3862
 6740SOL    HW121119   5.193   4.871   5.193 -1.2774 -0.4319 -0.6735
 6740SOL    HW221120   5.137   4.793   5.325 -0.2618 -0.1794 -0.0804
 6741SOL     OW21121   4.073   2.736   0.759 -0.2242  0.4299  0.0573
 6741SOL    HW121122   4.050   2.740   0.856 -2.4316  3.0959 -0.4355
 6741SOL    HW221123   4.000   2.688   0.710  0.4869 -0.2168 -0.3744
 6742SOL     OW21124   4.484   0.149   2.632  0.2185 -0.2754 -0.2499
 6742SOL    HW121125   4.504   0.140   2.535  0.0712 -2.5373 -0.1317
 6742SOL    HW221126   4.560   0.111   2.685 -0.3013 -0.3519  0.4620
 6743SOL     OW21127   5.645   5.932   3.488  0.0268  0.1800 -0.3681
 6743SOL    HW121128   5.718   5.945   3.555  0.4198  0.0748 -0.7727
 6743SOL    HW221129   5.607   5.840   3.496 -0.6870  0.5278  0.4512
 6744SOL     OW21130   4.142   6.214   1.590 -0.1566  0.1344 -0.1326
 6744SOL    HW121131   4.211   6.190   1.659 -0.3939  0.5700  0.2573
 6744SOL    HW221132   4.149   6.312   1.569  0.5910 -0.1874 -1.4764
 6745SOL     OW21133   1.835   0.876   2.235 -1.1487 -0.1449  0.7156
 6745SOL    HW121134   1.840   0.961   2.182  1.5241  0.4005  1.6849
 6745SOL    HW221135   1.786   0.807   2.182 -2.1046  1.5414 -0.7214
 6746SOL     OW21136   6.508   1.750   3.197 -0.4119  0.1909  0.0096
 6746SOL    HW121137   6.457   1.752   3.111 -0.0269  1.6662 -0.2045
 6746SOL    HW221138   6.457   1.697   3.265 -1.1499 -0.2262 -0.8590
 6747SOL     OW21139   3.589   6.934   1.679  0.0523 -0.4242 -0.2550
 6747SOL    HW121140   3.686   6.928   1.654  0.0613  0.3240 -0.4042
 6747SOL    HW221141   3.567   7.027   1.706 -0.4498 -0.7626  0.5333
 6748SOL     OW21142   6.853   3.176   1.114 -0.6710  0.1247 -0.0684
 6748SOL    HW121143   6.893   3.098   1.164  0.1933  0.8211  0.3546
 6748SOL    HW221144   6.767   3.202   1.157 -0.1381  0.4522  0.8323
 6749SOL     OW21145   2.376   2.740   2.138 -0.1773  0.3872  0.2198
 6749SOL    HW121146   2.434   2.658   2.137 -0.8693 -0.1071  0.3257
 6749SOL    HW221147   2.343   2.759   2.046  0.3376  0.8080  0.1171
 6750SOL     OW21148   3.706   1.299   6.349 -0.0160  0.6784 -0.0987
 6750SOL    HW121149   3.745   1.343   6.268  1.5141 -0.1921  0.1221
 6750SOL    HW221150   3.661   1.214   6.322 -0.0670  0.7064 -0.1031
 6751SOL     OW21151   4.756   6.131   4.286  0.3691  0.0536 -0.7131
 6751SOL    HW121152   4.662   6.096   4.297  1.1351 -1.7251  0.7055
 6751SOL    HW221153   4.760   6.191   4.207 -1.7718 -0.5805 -1.3740
 6752SOL     OW21154   4.650   2.655   6.772 -0.1864 -0.0931 -0.1416
 6752SOL    HW121155   4.677   2.562   6.748 -1.0367 -0.4476  0.2291
 6752SOL    HW221156   4.565   2.678   6.726  0.4424  0.8154 -0.8894
 6753SOL     OW21157   4.244   5.098   1.433 -0.2923  0.0622 -0.0519
 6753SOL    HW121158   4.168   5.049   1.476  1.4763 -4.3910 -1.4343
 6753SOL    HW221159   4.209   5.149   1.354 -1.8591 -3.4322 -1.8865
 6754SOL     OW21160   6.878   6.546   6.801 -1.1294  0.0366  0.3040
 6754SOL    HW121161   6.888   6.482   6.724  0.3975 -0.9887  1.3030
 6754SOL    HW221162   6.838   6.632   6.768 -2.8753 -1.2587 -1.1503
 6755SOL     OW21163   2.476   0.998   3.155 -0.2010 -0.2453 -0.4765
 6755SOL    HW121164   2.562   0.965   3.116  0.7926 -0.0865  1.4751
 6755SOL    HW221165   2.451   0.942   3.234  0.0414  1.8368  1.1884
 6756SOL     OW21166   0.176   4.422   1.780  0.1177 -0.1073 -0.3361
 6756SOL    HW121167   0.103   4.402   1.845 -1.6110  1.6720 -1.6032
 6756SOL    HW221168   0.229   4.501   1.813 -0.2970  0.3319 -0.6985
 6757SOL     OW21169   3.056   6.376   2.229  0.5307 -0.1903  0.3332
 6757SOL    HW121170   3.088   6.441   2.298  1.1581 -0.7257  0.5649
 6757SOL    HW221171   3.128   6.310   2.210 -0.2309 -1.0679  0.4136
 6758SOL     OW21172   2.387   2.546   0.223  0.0333 -0.0387  0.1261
 6758SOL    HW121173   2.352   2.457   0.194  0.7881 -0.2965  0.0001
 6758SOL    HW221174   2.316   2.615   0.211 -0.2163 -0.4394 -0.7466
 6759SOL     OW21175   6.289   3.266   6.844  0.6605  0.0203  0.6602
 6759SOL    HW121176   6.243   3.301   6.762  0.3859 -0.7763  0.4653
 6759SOL    HW221177   6.350   3.337   6.880  1.3397  0.1388 -0.6535
 6760SOL     OW21178   3.029   3.521   5.158 -0.0032 -0.7664  0.5978
 6760SOL    HW121179   2.944   3.477   5.186 -0.5007 -0.4583 -0.3894
 6760SOL    HW221180   3.013   3.619   5.144  0.1250 -0.9593 -1.0775
 6761SOL     OW21181   1.447   1.307   6.839  0.0540  0.7118 -0.0443
 6761SOL    HW121182   1.517   1.246   6.802  0.9583  1.2257  0.7720
 6761SOL    HW221183   1.365   1.255   6.862 -0.3236  0.2808 -2.1680
 6762SOL     OW21184   6.522   3.851   4.805  0.0054 -0.3968  0.5159
 6762SOL    HW121185   6.441   3.848   4.746 -0.8651  0.4374  1.6140
 6762SOL    HW221186   6.596   3.799   4.762 -1.5046 -2.3498  0.0936
 6763SOL     OW21187   5.752   5.744   2.380  0.4623  0.1909  0.3336
 6763SOL    HW121188   5.766   5.839   2.410 -0.1297  0.4446 -0.1575
 6763SOL    HW221189   5.798   5.682   2.444  1.4857  0.8354  0.2532
 6764SOL     OW21190   1.847   1.676   3.955 -0.1002  0.4897 -0.1970
 6764SOL    HW121191   1.904   1.727   3.890 -0.3578  1.6213  0.4276
 6764SOL    HW221192   1.885   1.688   4.047  0.4403 -1.3422 -0.1496
 6765SOL     OW21193   0.882   4.299   1.144  0.5444  0.4421 -0.6920
 6765SOL    HW121194   0.931   4.375   1.186  3.0921 -1.1427 -0.5583
 6765SOL    HW221195   0.828   4.332   1.067  1.8808  2.3123 -0.8954
 6766SOL     OW21196   6.504   6.220   1.359 -0.1531  0.0641 -0.4099
 6766SOL    HW121197   6.555   6.305   1.370  1.5368 -1.1025  1.5288
 6766SOL    HW221198   6.407   6.241   1.343  0.1529  2.3397  0.4039
 6767SOL     OW21199   0.375   6.900   4.912  0.6468 -0.2688 -0.0331
 6767SOL    HW121200   0.474   6.911   4.919  0.4936  0.5802  1.1702
 6767SOL    HW221201   0.330   6.972   4.965 -0.6118 -0.9595 -0.1284
 6768SOL     OW21202   1.543   2.404   3.199 -0.0158 -1.1735 -0.4059
 6768SOL    HW121203   1.618   2.371   3.141  0.3013 -2.4116  0.6544
 6768SOL    HW221204   1.580   2.464   3.271 -0.0116 -1.8334  0.1541
 6769SOL     OW21205   3.580   1.854   1.093  0.0611 -0.1654 -0.3145
 6769SOL    HW121206   3.530   1.814   1.016 -1.0840  1.4381 -0.4312
 6769SOL    HW221207   3.552   1.809   1.177  0.1316 -0.8251 -0.6339
 6770SOL     OW21208   1.302   6.248   4.733 -0.9102 -1.0187  0.0664
 6770SOL    HW121209   1.300   6.208   4.642 -1.2470 -1.6290  0.3389
 6770SOL    HW221210   1.319   6.177   4.801  3.3761 -0.1206  0.2301
 6771SOL     OW21211   2.861   1.106   2.809  0.4018  0.4687 -0.1377
 6771SOL    HW121212   2.870   1.066   2.717 -0.3265  1.1967 -0.5461
 6771SOL    HW221213   2.778   1.070   2.852 -0.5874  1.9176 -0.7412
 6772SOL     OW21214   4.990   3.253   1.105  0.0654  0.2422 -0.6874
 6772SOL    HW121215   4.953   3.315   1.174 -1.6526 -0.6946 -0.7160
 6772SOL    HW221216   5.090   3.257   1.107  0.0184  1.7071  0.4710
 6773SOL     OW21217   1.305   2.093   6.687  0.0050 -0.0743  0.7464
 6773SOL    HW121218   1.270   2.103   6.594  0.5496 -0.5386  0.4848
 6773SOL    HW221219   1.390   2.145   6.697 -1.4700  2.3000  1.8182
 6774SOL     OW21220   3.275   1.974   0.600  0.5620 -0.1345  0.4495
 6774SOL    HW121221   3.215   1.919   0.658 -0.8641  1.1384  0.2234
 6774SOL    HW221222   3.350   1.916   0.566 -0.2969 -1.6586  1.0513
 6775SOL     OW21223   1.316   0.382   1.017  0.2838 -0.1960  0.8011
 6775SOL    HW121224   1.320   0.284   0.995 -0.1272 -0.1752  0.6326
 6775SOL    HW221225   1.406   0.413   1.047 -0.0394 -1.1093  2.9310
 6776SOL     OW21226   0.687   5.918   1.829  0.1872 -0.1653  0.2912
 6776SOL    HW121227   0.670   5.995   1.768  1.0508  0.1321  0.4082
 6776SOL    HW221228   0.692   5.949   1.923  0.7627 -0.3107  0.3191
 6777SOL     OW21229   3.283   3.307   3.740  0.0630  0.2709  0.1323
 6777SOL    HW121230   3.273   3.357   3.826  0.7701 -0.3181  0.5677
 6777SOL    HW221231   3.210   3.240   3.732 -0.0089  0.3319  0.2684
 6778SOL     OW21232   3.621   4.748   5.324  0.3819 -0.2451 -0.5924
 6778SOL    HW121233   3.558   4.702   5.262  1.1360 -1.8917 -0.2170
 6778SOL    HW221234   3.700   4.782   5.273  0.3016 -0.2799 -0.7393
 6779SOL     OW21235   2.146   3.812   6.852 -0.1972 -0.4268 -0.0434
 6779SOL    HW121236   2.154   3.910   6.865  1.9872 -0.6425  0.7148
 6779SOL    HW221237   2.181   3.765   6.933 -3.0396 -1.8731  0.4581
 6780SOL     OW21238   6.392   1.080   6.184  0.4839  0.0589  0.1605
 6780SOL    HW121239   6.464   1.050   6.246 -0.4864 -1.6898  0.4954
 6780SOL    HW221240   6.342   1.157   6.224  0.8318 -0.0812  0.8660
 6781SOL     OW21241   0.049   1.957   6.112  0.1871 -0.1562 -0.4689
 6781SOL    HW121242   0.117   1.981   6.042  0.9398 -0.3223  0.1958
 6781SOL    HW221243   0.080   1.877   6.163  0.6358  1.1502  1.3918
 6782SOL     OW21244   3.361   3.226   2.892 -0.3066 -0.5044  0.2122
 6782SOL    HW121245   3.376   3.160   2.965 -1.5261 -0.6516  0.3494
 6782SOL    HW221246   3.331   3.178   2.809 -3.3340 -0.0417  0.9119
 6783SOL     OW21247   4.625   2.557   1.883 -0.9647 -0.1734 -0.3572
 6783SOL    HW121248   4.546   2.560   1.822 -1.4997 -1.5423  0.2343
 6783SOL    HW221249   4.603   2.503   1.965  0.3149  0.1050  0.2057
 6784SOL     OW21250   6.827   5.184   3.595 -0.3087  0.4105  0.3631
 6784SOL    HW121251   6.919   5.222   3.589  0.3943 -1.3954 -1.1048
 6784SOL    HW221252   6.800   5.175   3.691  0.3041  2.5845  0.7800
 6785SOL     OW21253   6.882   5.723   6.971 -0.1641 -0.0999  0.7839
 6785SOL    HW121254   6.937   5.801   7.001  0.2303  0.3379 -0.9648
 6785SOL    HW221255   6.939   5.641   6.967  0.2432  0.2231 -0.4332
 6786SOL     OW21256   0.533   5.146   1.159 -0.6418 -0.2195  0.0911
 6786SOL    HW121257   0.479   5.073   1.117 -0.6519 -0.9589  1.3334
 6786SOL    HW221258   0.628   5.115   1.170 -1.2061 -1.2452  3.1948
 6787SOL     OW21259   3.963   3.856   5.634  0.1313  0.6012 -0.3893
 6787SOL    HW121260   3.875   3.893   5.666 -0.1985 -1.7024  1.6478
 6787SOL    HW221261   3.951   3.813   5.545 -1.5175 -1.9208  0.9487
 6788SOL     OW21262   3.561   0.143   0.767 -1.0293 -0.1866  0.1270
 6788SOL    HW121263   3.505   0.138   0.685  1.3283 -1.6964 -1.5265
 6788SOL    HW221264   3.525   0.080   0.836 -1.3904 -1.1041 -0.8757
 6789SOL     OW21265   3.438   5.505   4.908  0.0946 -0.5403 -0.0939
 6789SOL    HW121266   3.531   5.492   4.941  0.5177  2.2143 -0.0014
 6789SOL    HW221267   3.431   5.472   4.814  0.5873 -2.5065  0.5049
 6790SOL     OW21268   2.771   3.024   0.357  0.1435 -0.0694  0.0454
 6790SOL    HW121269   2.841   2.962   0.322  1.5147  1.0122  0.7531
 6790SOL    HW221270   2.815   3.103   0.399 -1.5045  0.2990  1.1790
 6791SOL     OW21271   0.364   6.118   3.087 -0.6331 -0.4810 -0.5852
 6791SOL    HW121272   0.349   6.181   3.163  0.3298 -1.3914  0.4037
 6791SOL    HW221273   0.294   6.046   3.090 -0.0290 -1.0532  0.0376
 6792SOL     OW21274   2.652   6.660   1.903 -0.3720  0.1647 -0.1288
 6792SOL    HW121275   2.732   6.712   1.934 -0.5996 -0.0788  0.8931
 6792SOL    HW221276   2.661   6.565   1.933 -2.3127  0.6845  2.4945
 6793SOL     OW21277   6.948   1.485   6.981  0.2722 -0.0662  0.3699
 6793SOL    HW121278   7.005   1.449   7.054  0.7681 -1.3126 -0.5829
 6793SOL    HW221279   6.875   1.419   6.961  1.2470 -0.6662 -1.4801
 6794SOL     OW21280   6.083   3.053   1.846  0.3879 -0.0695 -0.1631
 6794SOL    HW121281   6.027   3.011   1.775  0.7102 -1.3297  0.3080
 6794SOL    HW221282   6.049   3.145   1.865 -1.5235 -0.7876  0.0860
 6795SOL     OW21283   1.393   4.069   3.289  1.2104  0.1411 -0.1676
 6795SOL    HW121284   1.489   4.043   3.284  1.2822  0.3631  0.0688
 6795SOL    HW221285   1.385   4.166   3.313  0.9373  0.2570 -0.7039
 6796SOL     OW21286   4.975   4.734   1.865 -0.0216  0.1492 -0.5098
 6796SOL    HW121287   4.961   4.781   1.952  0.7967  1.3979 -1.0234
 6796SOL    HW221288   5.052   4.670   1.873  0.0268  0.2350 -0.3032
 6797SOL     OW21289   5.215   3.755   4.073  0.0309 -0.8935 -0.0667
 6797SOL    HW121290   5.192   3.658   4.063  0.8328 -1.2335  1.1043
 6797SOL    HW221291   5.303   3.763   4.120 -0.3392  0.4111  0.4437
 6798SOL     OW21292   1.441   1.923   4.080 -0.1311  0.0435 -0.4020
 6798SOL    HW121293   1.369   1.935   4.012  0.4063  1.9321 -0.6906
 6798SOL    HW221294   1.486   1.835   4.066  0.6742  0.7989 -3.1976
 6799SOL     OW21295   5.744   2.549   6.305  0.1717 -0.4833 -0.7429
 6799SOL    HW121296   5.738   2.569   6.403  2.6579 -2.0749 -0.1748
 6799SOL    HW221297   5.660   2.504   6.275 -0.7130  0.2102  0.5955
 6800SOL     OW21298   4.334   6.031   0.929  0.5836  0.1926  0.1834
 6800SOL    HW121299   4.292   6.092   0.861 -0.1536 -1.6267 -1.0628
 6800SOL    HW221300   4.434   6.035   0.919  0.4945  0.2100 -0.7728
 6801SOL     OW21301   4.366   5.910   1.522 -0.2142  0.2231  0.1346
 6801SOL    HW121302   4.461   5.911   1.490 -0.3175  0.8756 -0.1551
 6801SOL    HW221303   4.305   5.900   1.443 -0.3821 -0.4532  0.3418
 6802SOL     OW21304   2.695   4.163   0.059  0.3795 -0.2241  0.1109
 6802SOL    HW121305   2.747   4.144  -0.024 -0.1268 -0.6365 -0.1149
 6802SOL    HW221306   2.758   4.192   0.131  1.0627 -1.6659  0.1391
 6803SOL     OW21307   3.062   6.419   6.447  0.0620  0.1639 -0.7862
 6803SOL    HW121308   3.063   6.517   6.424 -2.0957 -0.2773 -3.2596
 6803SOL    HW221309   3.082   6.365   6.365  0.1968 -1.4940  0.2918
 6804SOL     OW21310   3.013   6.671   5.283 -0.2345 -0.4191  0.2345
 6804SOL    HW121311   2.928   6.714   5.250 -0.4358 -1.0669 -0.1095
 6804SOL    HW221312   2.990   6.591   5.339  0.1419 -0.1805  0.7343
 6805SOL     OW21313   3.209   0.285   5.945  0.2537 -0.2390  0.3094
 6805SOL    HW121314   3.168   0.296   6.035  0.9539  4.0092  0.3131
 6805SOL    HW221315   3.146   0.321   5.875  1.5157  0.7422 -0.3534
 6806SOL     OW21316   3.172   1.863   6.834  0.1296 -0.0931 -0.3231
 6806SOL    HW121317   3.232   1.843   6.756 -0.7282 -0.3213 -0.9516
 6806SOL    HW221318   3.108   1.787   6.846  0.6189 -0.3109  0.9788
 6807SOL     OW21319   5.431   6.711   4.972 -0.1433  0.4576  0.0928
 6807SOL    HW121320   5.421   6.805   5.003 -0.8963  1.3344 -2.5811
 6807SOL    HW221321   5.343   6.664   4.975  0.5562 -0.9191  3.3352
 6808SOL     OW21322   2.959   1.796   1.376  0.2650  0.3325 -0.2249
 6808SOL    HW121323   3.036   1.771   1.317  1.3136  0.8556  0.8616
 6808SOL    HW221324   2.984   1.779   1.471 -1.0687  0.2948  0.1342
 6809SOL     OW21325   4.004   0.815   1.784 -0.1086 -0.3581 -0.4185
 6809SOL    HW121326   3.962   0.747   1.723 -2.7699 -0.8042  1.6964
 6809SOL    HW221327   3.978   0.907   1.753  0.2598 -0.4650 -1.0739
 6810SOL     OW21328   2.377   5.160   0.258  0.0034 -0.3055  0.1671
 6810SOL    HW121329   2.447   5.215   0.305  1.8507 -1.7868 -0.7260
 6810SOL    HW221330   2.394   5.063   0.276 -1.1220 -0.7541 -1.0684
 6811SOL     OW21331   3.763   0.156   1.379 -0.2438  0.0457 -0.5460
 6811SOL    HW121332   3.725   0.081   1.326  4.4402 -2.4074 -1.0115
 6811SOL    HW221333   3.775   0.127   1.474  0.2219  0.7773 -0.3680
 6812SOL     OW21334   6.095   3.880   6.254  0.0905 -0.2350  0.5047
 6812SOL    HW121335   6.184   3.839   6.276  0.5512 -0.1472 -1.1113
 6812SOL    HW221336   6.097   3.977   6.276  1.2161  0.2818 -1.5975
 6813SOL     OW21337   2.842   3.561   5.905 -0.1488  0.2274 -0.4666
 6813SOL    HW121338   2.767   3.622   5.931  1.0841  1.0736  1.3625
 6813SOL    HW221339   2.917   3.573   5.969  0.5909 -2.4337 -0.7277
 6814SOL     OW21340   5.993   1.508   6.418 -0.6184  0.1843 -0.2322
 6814SOL    HW121341   6.078   1.540   6.376 -1.0500 -2.3725 -3.5187
 6814SOL    HW221342   6.008   1.416   6.457 -1.7756 -0.1776 -0.6094
 6815SOL     OW21343   5.487   1.265   3.284  0.5099 -0.1564 -0.3258
 6815SOL    HW121344   5.457   1.229   3.372  0.8388 -1.1858 -0.6217
 6815SOL    HW221345   5.415   1.322   3.245 -0.3196 -1.0840 -0.1767
 6816SOL     OW21346   0.367   6.948   0.234 -0.1090 -0.0217  0.3995
 6816SOL    HW121347   0.337   7.000   0.315  0.3541 -1.8821  1.8488
 6816SOL    HW221348   0.292   6.940   0.169 -1.0039  0.1878  1.3837
 6817SOL     OW21349   2.601   6.213   1.098 -0.5242 -0.1094  0.3368
 6817SOL    HW121350   2.674   6.270   1.059 -0.8182 -0.0634 -0.1421
 6817SOL    HW221351   2.618   6.201   1.196  1.3557 -1.9168 -0.1305
 6818SOL     OW21352   2.472   1.963   3.380 -0.1045  0.2055 -0.4056
 6818SOL    HW121353   2.553   2.018   3.358  0.8649  0.4354  3.0283
 6818SOL    HW221354   2.408   2.018   3.433 -0.9375 -0.8883 -0.2504
 6819SOL     OW21355   0.671   0.390   2.846 -0.0045 -0.1213 -0.2172
 6819SOL    HW121356   0.581   0.368   2.886  1.0398 -1.6071  1.4689
 6819SOL    HW221357   0.684   0.489   2.849 -1.9545  0.2236 -1.3842
 6820SOL     OW21358   1.310   3.024   1.387 -0.1134  0.0426  0.3804
 6820SOL    HW121359   1.247   3.042   1.463 -1.3301 -0.6481 -0.4352
 6820SOL    HW221360   1.379   2.958   1.417 -0.2997  0.1308  1.0267
 6821SOL     OW21361   6.625   5.813   1.040 -0.1619  0.3465  0.3911
 6821SOL    HW121362   6.643   5.779   1.132 -1.0595 -1.0709  0.0729
 6821SOL    HW221363   6.681   5.894   1.023  0.3307  0.3871  2.0185
 6822SOL     OW21364   1.397   4.346   3.394  0.0782 -0.6520 -0.5777
 6822SOL    HW121365   1.399   4.403   3.312 -0.1922  0.2943  0.0534
 6822SOL    HW221366   1.481   4.292   3.399  0.2416 -0.4814 -1.3100
 6823SOL     OW21367   5.682   3.229   1.337  0.6246 -0.2263  0.1852
 6823SOL    HW121368   5.668   3.327   1.323  0.7935 -0.2781 -0.3885
 6823SOL    HW221369   5.602   3.190   1.382  0.7198  0.2436  0.7804
 6824SOL     OW21370   4.885   2.827   1.143 -0.2584 -0.4937  0.6370
 6824SOL    HW121371   4.936   2.858   1.223 -1.6425 -3.3082  2.7809
 6824SOL    HW221372   4.912   2.734   1.120 -0.7681 -0.1721 -1.4701
 6825SOL     OW21373   4.306   3.462   1.418 -0.0824  0.6550 -0.4930
 6825SOL    HW121374   4.221   3.418   1.446  0.0779 -0.5598 -1.7468
 6825SOL    HW221375   4.369   3.392   1.384  0.8659  1.6898 -0.9199
 6826SOL     OW21376   6.543   2.859   1.573 -0.2520 -0.4602 -0.3503
 6826SOL    HW121377   6.488   2.894   1.497  0.3963  1.8927  0.1902
 6826SOL    HW221378   6.614   2.798   1.538 -0.4580 -0.0361 -1.5325
 6827SOL     OW21379   0.510   1.387   1.492  0.2106 -0.3482 -0.2267
 6827SOL    HW121380   0.462   1.317   1.544  0.7557 -1.8476 -1.6374
 6827SOL    HW221381   0.590   1.418   1.544  0.7096 -1.7565 -0.1070
 6828SOL     OW21382   4.648   0.133   6.955  0.8675 -0.1776  0.4043
 6828SOL    HW121383   4.610   0.082   6.879 -0.2162  0.2263  0.6499
 6828SOL    HW221384   4.688   0.218   6.922 -1.9023  1.2640  0.4900
 6829SOL     OW21385   5.962   1.606   5.668  0.2061  0.1262  0.0129
 6829SOL    HW121386   6.012   1.617   5.581 -0.4449  0.5615 -0.3094
 6829SOL    HW221387   5.864   1.604   5.650 -0.0005  1.5962  0.8884
 6830SOL     OW21388   5.778   3.836   5.131  0.0028 -0.3648  0.2982
 6830SOL    HW121389   5.856   3.774   5.137 -0.1484 -0.5976 -0.0999
 6830SOL    HW221390   5.707   3.794   5.074 -0.6048 -0.3554  1.0394
 6831SOL     OW21391   2.190   3.654   1.561  0.3432 -0.5148  0.2797
 6831SOL    HW121392   2.192   3.622   1.466 -0.0417 -0.3252  0.2074
 6831SOL    HW221393   2.284   3.660   1.596  0.4611 -1.0272  0.0619
 6832SOL     OW21394   1.498   5.032   1.489 -0.0337 -0.2275 -1.0351
 6832SOL    HW121395   1.522   5.129   1.495 -1.7980  0.2876 -1.6311
 6832SOL    HW221396   1.474   5.010   1.394 -0.7863 -0.9526 -0.6891
 6833SOL     OW21397   0.342   1.413   2.823 -0.0010 -0.2956 -0.3592
 6833SOL    HW121398   0.436   1.433   2.795  0.2188  2.3113  1.8327
 6833SOL    HW221399   0.281   1.428   2.745  0.9329  2.9771 -0.6015
 6834SOL     OW21400   0.032   0.921   5.889 -0.1115  0.4432 -0.4933
 6834SOL    HW121401  -0.002   1.015   5.890 -0.9776  0.2285  2.8264
 6834SOL    HW221402  -0.021   0.866   5.954  2.9657 -1.3338  0.7190
 6835SOL     OW21403   3.451   5.516   0.333 -0.6809  0.1164 -0.0820
 6835SOL    HW121404   3.516   5.460   0.384  0.1608  0.9932 -0.1559
 6835SOL    HW221405   3.437   5.603   0.382 -2.1053 -0.2021  0.1343
 6836SOL     OW21406   1.691   0.849   0.242  0.3377 -0.4494  0.6904
 6836SOL    HW121407   1.726   0.757   0.263  0.4651 -0.3419  0.9513
 6836SOL    HW221408   1.604   0.841   0.194  0.9423 -0.7291 -0.3868
 6837SOL     OW21409   6.149   2.628   6.456  0.2291  0.0666 -0.1587
 6837SOL    HW121410   6.115   2.540   6.421  0.8689 -0.1506 -0.2385
 6837SOL    HW221411   6.221   2.612   6.523 -0.0188  0.5221  0.2171
 6838SOL     OW21412   3.126   1.860   2.289 -0.2156  0.6130 -0.2883
 6838SOL    HW121413   3.166   1.862   2.380  0.1582 -1.7763 -0.3288
 6838SOL    HW221414   3.093   1.951   2.265  2.2908  1.9865  1.0349
 6839SOL     OW21415   0.990   2.667   0.630 -0.1288  0.5079 -0.0211
 6839SOL    HW121416   1.019   2.739   0.693 -0.1126  1.1435 -0.7368
 6839SOL    HW221417   0.924   2.705   0.564  0.3633  0.0401 -0.7999
 6840SOL     OW21418   4.279   6.258   6.912  0.4859 -0.0075  0.3241
 6840SOL    HW121419   4.240   6.331   6.856 -0.4543  0.0940  1.0757
 6840SOL    HW221420   4.348   6.209   6.860 -1.0729 -0.5779 -1.3042
 6841SOL     OW21421   0.855   6.380   4.358 -0.2328  0.0505  0.1893
 6841SOL    HW121422   0.789   6.455   4.362 -0.1573  0.1621 -0.4765
 6841SOL    HW221423   0.936   6.409   4.307 -0.2288 -0.4958 -0.1353
 6842SOL     OW21424   5.249   2.020   5.694  0.1362 -0.4679  0.1132
 6842SOL    HW121425   5.262   1.930   5.734 -0.7553 -1.2347 -1.2379
 6842SOL    HW221426   5.235   2.011   5.595  0.5069  1.1968 -0.1235
 6843SOL     OW21427   5.176   6.082   5.923  0.0895 -0.0377 -0.7015
 6843SOL    HW121428   5.130   6.168   5.902  1.2137  0.3317 -1.8194
 6843SOL    HW221429   5.250   6.067   5.857  0.5195 -1.3984  0.0452
 6844SOL     OW21430   2.458   2.517   2.937  0.2908  0.2687 -0.2021
 6844SOL    HW121431   2.522   2.441   2.927 -0.2839 -0.3147  0.4529
 6844SOL    HW221432   2.471   2.582   2.862  0.8881 -0.4020 -0.6898
 6845SOL     OW21433   0.293   2.420   2.875 -0.2390 -0.1116  0.3224
 6845SOL    HW121434   0.371   2.416   2.937 -0.4308 -0.8564  0.5301
 6845SOL    HW221435   0.274   2.515   2.852 -0.7308  0.2855  2.1435
 6846SOL     OW21436   5.221   6.100   6.187 -0.1817  0.1941 -0.1216
 6846SOL    HW121437   5.125   6.103   6.215  0.0244  0.5797  0.5712
 6846SOL    HW221438   5.228   6.061   6.095 -0.8617 -1.3601  0.4558
 6847SOL     OW21439   2.470   4.866   2.986  0.1834  0.3021 -0.2274
 6847SOL    HW121440   2.521   4.941   2.944  0.4795  1.0564  1.4017
 6847SOL    HW221441   2.388   4.902   3.031 -0.0530 -0.4653 -0.0260
 6848SOL     OW21442   0.680   6.427   5.988  0.2056 -0.3722 -0.1304
 6848SOL    HW121443   0.774   6.443   5.959 -0.0472 -0.1163 -0.8415
 6848SOL    HW221444   0.664   6.329   5.997  0.8074 -0.3876  0.9484
 6849SOL     OW21445   6.122   0.242   3.228 -0.0244 -0.4971  0.0935
 6849SOL    HW121446   6.053   0.170   3.237  1.3090 -1.8923 -0.3824
 6849SOL    HW221447   6.210   0.201   3.203  0.9518  1.2406  0.4912
 6850SOL     OW21448   0.374   2.561   3.271 -0.1098 -0.3263 -0.8658
 6850SOL    HW121449   0.359   2.658   3.292  0.0818 -0.4322 -0.2094
 6850SOL    HW221450   0.416   2.553   3.181  1.5261  0.3228 -0.2083
 6851SOL     OW21451   5.077   5.427   4.059 -0.0356 -0.1260 -0.5310
 6851SOL    HW121452   5.010   5.433   3.984  0.3084 -1.1097 -0.9398
 6851SOL    HW221453   5.069   5.508   4.117 -0.8642  0.2740 -1.1688
 6852SOL     OW21454   3.366   6.207   1.707  0.1484 -0.3051 -0.4320
 6852SOL    HW121455   3.314   6.292   1.700  0.0813 -0.3958 -1.2167
 6852SOL    HW221456   3.396   6.193   1.801  0.6378  0.8814 -0.3941
 6853SOL     OW21457   5.457   6.837   0.733 -0.3930 -0.0344 -0.0013
 6853SOL    HW121458   5.441   6.757   0.790 -2.7166 -0.2750 -0.8713
 6853SOL    HW221459   5.389   6.907   0.755  0.3714  0.9345 -0.6355
 6854SOL     OW21460   4.067   5.483   3.635  0.4720 -0.6447  0.2138
 6854SOL    HW121461   4.144   5.533   3.594  0.9998  0.1704  2.1095
 6854SOL    HW221462   4.088   5.460   3.730 -1.3353 -1.0809  0.5536
 6855SOL     OW21463   3.346   0.310   4.103  0.3889  0.1088  0.1784
 6855SOL    HW121464   3.419   0.371   4.072  1.1330 -0.9838 -0.2998
 6855SOL    HW221465   3.285   0.290   4.026  0.1422  0.2631  0.3344
 6856SOL     OW21466   6.061   4.122   4.384 -0.0383 -0.0496 -0.2590
 6856SOL    HW121467   5.985   4.134   4.448  0.6740 -0.4269  0.6666
 6856SOL    HW221468   6.063   4.199   4.320 -0.9495  0.1663 -0.0420
 6857SOL     OW21469   5.346   5.044   3.637 -0.1179 -0.5232  0.2757
 6857SOL    HW121470   5.275   5.108   3.667  0.1855 -0.0959  0.0876
 6857SOL    HW221471   5.337   4.958   3.688 -0.5933 -0.3727  0.4527
 6858SOL     OW21472   5.890   5.933   0.259  0.2235 -0.2162 -0.3780
 6858SOL    HW121473   5.925   5.868   0.192 -1.1480 -1.3277 -0.0715
 6858SOL    HW221474   5.946   5.931   0.341  0.3621 -0.8233 -0.4820
 6859SOL     OW21475   1.939   5.035   1.098  0.2952 -0.1515  0.5246
 6859SOL    HW121476   1.992   5.047   1.182  0.9042 -0.3351  0.1669
 6859SOL    HW221477   1.999   5.043   1.019 -0.1900 -0.4756  0.1192
 6860SOL     OW21478   5.346   2.781   0.898 -0.5380  0.2552  0.1408
 6860SOL    HW121479   5.376   2.796   0.992  2.0301 -1.0296 -0.3795
 6860SOL    HW221480   5.257   2.735   0.898 -0.8704  0.8422  1.9007
 6861SOL     OW21481   4.956   6.051   3.911  0.2313 -0.2168  0.4742
 6861SOL    HW121482   4.888   6.064   3.839  1.3190 -0.9252 -0.7219
 6861SOL    HW221483   4.972   5.954   3.925  1.0795 -0.0622  0.6442
 6862SOL     OW21484   3.169   0.090   1.050  0.0557 -0.0401  0.0908
 6862SOL    HW121485   3.254   0.045   1.075  0.4205  0.8037  0.4113
 6862SOL    HW221486   3.185   0.188   1.041 -1.5532  0.7402  3.7092
 6863SOL     OW21487   5.090   0.002   0.532 -0.1245  0.0252  0.0145
 6863SOL    HW121488   5.027  -0.066   0.569 -0.8984  1.2767  1.0993
 6863SOL    HW221489   5.081   0.006   0.432 -2.6646  0.9869  0.2212
 6864SOL     OW21490   2.539   4.633   3.123 -0.1525  0.3496  0.1497
 6864SOL    HW121491   2.499   4.713   3.078  0.0398 -0.4479 -1.5351
 6864SOL    HW221492   2.470   4.562   3.133 -0.0994  0.3874  0.8003
 6865SOL     OW21493   6.103   2.270   3.397 -0.2473  0.1144 -0.7586
 6865SOL    HW121494   6.087   2.183   3.445  1.0566 -0.6188 -1.5772
 6865SOL    HW221495   6.104   2.253   3.298 -1.6798  1.3896 -1.0311
 6866SOL     OW21496   1.088   2.656   2.791  0.1371  0.3377 -0.4368
 6866SOL    HW121497   1.111   2.569   2.749 -0.2766  1.0235 -2.1995
 6866SOL    HW221498   1.169   2.715   2.793 -0.0983  0.7213 -1.4121
 6867SOL     OW21499   1.510   5.893   2.886 -0.0532  0.3813  0.1940
 6867SOL    HW121500   1.506   5.830   2.963  1.2525 -0.0711 -0.0883
 6867SOL    HW221501   1.535   5.984   2.919 -0.3791  0.3954  0.4078
 6868SOL     OW21502   5.018   6.519   6.534 -0.3330 -0.2359  0.0358
 6868SOL    HW121503   5.033   6.615   6.509 -1.2150 -0.3986 -1.1632
 6868SOL    HW221504   5.063   6.501   6.622 -0.3799  1.3399  0.4167
 6869SOL     OW21505   5.390   6.776   2.447  0.3683 -0.3417  0.1047
 6869SOL    HW121506   5.326   6.702   2.426  0.4740 -0.3921 -0.0403
 6869SOL    HW221507   5.351   6.863   2.417  0.5239 -0.4147 -0.3148
 6870SOL     OW21508   6.457   5.828   0.408 -0.3238 -0.6656  0.5308
 6870SOL    HW121509   6.421   5.756   0.469  1.1827 -1.9660 -0.0526
 6870SOL    HW221510   6.397   5.836   0.328 -0.6392 -1.0867  0.7176
 6871SOL     OW21511   3.981   2.164   5.101 -0.3653 -0.1874 -0.4199
 6871SOL    HW121512   4.036   2.246   5.082  1.5380 -1.2718  0.0878
 6871SOL    HW221513   4.020   2.086   5.053 -1.3032 -1.0659  0.2046
 6872SOL     OW21514   5.034   7.002   2.103  0.0091 -0.1363 -0.2372
 6872SOL    HW121515   5.006   7.095   2.127  0.1688  0.1841 -1.2532
 6872SOL    HW221516   5.133   6.994   2.107 -0.0279 -0.3852  0.2565
 6873SOL     OW21517   0.723   3.852   3.954 -0.5153  0.7330 -0.1772
 6873SOL    HW121518   0.710   3.942   3.913 -0.2064  1.3611  1.0296
 6873SOL    HW221519   0.644   3.794   3.934 -0.8183  1.3445 -0.7871
 6874SOL     OW21520   1.075   3.293   0.660 -0.1200  0.2073  0.1454
 6874SOL    HW121521   1.074   3.382   0.705  0.7219  0.2652  0.0760
 6874SOL    HW221522   1.165   3.251   0.672  0.5621  0.7113 -2.3806
 6875SOL     OW21523   5.191   4.847   4.044 -0.3823  0.1156  0.0198
 6875SOL    HW121524   5.114   4.902   4.011  0.1876  1.1726  0.3995
 6875SOL    HW221525   5.256   4.833   3.970 -0.6820 -0.3304 -0.1626
 6876SOL     OW21526   5.953   5.890   1.878  1.1068  0.5041 -0.0201
 6876SOL    HW121527   6.014   5.823   1.922 -0.0401 -0.1975  0.5452
 6876SOL    HW221528   5.960   5.880   1.779  0.9978 -0.4251  0.0500
 6877SOL     OW21529   2.200   0.182   5.343  0.5990 -0.0394 -0.0999
 6877SOL    HW121530   2.282   0.129   5.368  1.2813  1.7167  1.6235
 6877SOL    HW221531   2.122   0.149   5.396  0.6504 -0.3666 -0.2252
 6878SOL     OW21532   2.111   2.682   4.093  0.4344 -0.6759 -0.6007
 6878SOL    HW121533   2.025   2.715   4.133  1.3920  2.4719 -0.8352
 6878SOL    HW221534   2.092   2.632   4.009 -1.2706 -2.3688  0.7113
 6879SOL     OW21535   6.798   5.195   2.416  0.3944  0.6255  0.5932
 6879SOL    HW121536   6.848   5.193   2.330  0.3984  0.8713  0.5919
 6879SOL    HW221537   6.717   5.252   2.407  0.5682  0.9139  0.8494
 6880SOL     OW21538   5.213   2.173   1.647  0.0793 -0.4581 -0.2806
 6880SOL    HW121539   5.135   2.131   1.694  1.6686 -1.2033  1.8803
 6880SOL    HW221540   5.251   2.246   1.704  0.1743  0.8331 -1.9239
 6881SOL     OW21541   6.956   3.944   0.871  0.2633 -0.4775  0.1318
 6881SOL    HW121542   6.956   4.039   0.902 -0.2849 -0.4681  0.1195
 6881SOL    HW221543   7.048   3.917   0.844  0.9722 -0.7809  2.6366
 6882SOL     OW21544   0.578   6.214   6.517 -0.2810 -0.2987  0.2513
 6882SOL    HW121545   0.613   6.254   6.432 -0.4744  0.8950  0.7123
 6882SOL    HW221546   0.602   6.273   6.594 -0.5795 -1.0880  0.9677
 6883SOL     OW21547   1.395   6.112   4.939  0.1654  0.4400  0.2076
 6883SOL    HW121548   1.437   6.156   5.019 -0.8677 -0.1805  1.1200
 6883SOL    HW221549   1.467   6.075   4.880  0.9483  0.9575  0.8154
 6884SOL     OW21550   5.570   2.846   0.765 -0.0846  0.4203  0.4596
 6884SOL    HW121551   5.586   2.822   0.669 -1.0077  2.2910 -0.2116
 6884SOL    HW221552   5.482   2.809   0.794  1.1102 -1.9963  1.3248
 6885SOL     OW21553   2.055   5.541   0.390  0.9443  0.0567 -0.0856
 6885SOL    HW121554   1.994   5.467   0.361  1.2559 -0.1513 -0.2107
 6885SOL    HW221555   2.030   5.625   0.342 -0.2337  0.3545  0.9870
 6886SOL     OW21556   0.348   6.278   4.377  0.5857  0.9387 -0.0036
 6886SOL    HW121557   0.370   6.194   4.327 -1.1093  0.3682  0.1209
 6886SOL    HW221558   0.248   6.287   4.384  0.7450  1.7366  2.0121
 6887SOL     OW21559   1.315   6.925   4.653 -0.0755  0.2766 -0.4044
 6887SOL    HW121560   1.374   6.980   4.594  2.5098 -0.5555  1.2383
 6887SOL    HW221561   1.310   6.831   4.617  0.7462  0.0083  0.1424
 6888SOL     OW21562   4.943   2.591   3.900 -0.0669 -0.1139 -0.7081
 6888SOL    HW121563   4.978   2.670   3.950  2.2932 -0.6974 -1.2673
 6888SOL    HW221564   4.850   2.609   3.868 -0.3722  1.5603  0.9737
 6889SOL     OW21565   2.704   0.509   4.835  0.2827 -0.0601  0.6272
 6889SOL    HW121566   2.787   0.538   4.883  0.4190 -2.3254  1.8907
 6889SOL    HW221567   2.648   0.454   4.897 -0.7476 -1.0198 -1.0996
 6890SOL     OW21568   2.486   6.052   3.951 -0.0020 -0.6912  0.1064
 6890SOL    HW121569   2.492   5.987   3.875 -2.0072 -1.9411  0.9431
 6890SOL    HW221570   2.578   6.070   3.986  0.8291 -1.1258 -1.7489
 6891SOL     OW21571   5.084   1.780   4.371 -0.3682  0.3121  0.2890
 6891SOL    HW121572   5.117   1.748   4.460 -1.2555  0.0045  0.5248
 6891SOL    HW221573   5.098   1.878   4.363  2.6083 -0.0833 -0.5234
 6892SOL     OW21574   4.500   5.504   3.621 -0.0017  0.1352 -0.1654
 6892SOL    HW121575   4.516   5.575   3.689 -2.1034 -0.3783  0.9697
 6892SOL    HW221576   4.463   5.422   3.666 -0.3585 -0.6380 -1.7840
 6893SOL     OW21577   5.941   4.373   0.866 -0.4746 -0.8143 -0.4430
 6893SOL    HW121578   5.976   4.333   0.950  0.6573  0.5113 -0.2569
 6893SOL    HW221579   5.898   4.461   0.887 -2.0440 -1.4116 -0.9828
 6894SOL     OW21580   5.266   0.247   0.069 -0.5995 -0.1444 -0.1636
 6894SOL    HW121581   5.352   0.258   0.119  0.3303 -0.3158 -1.6522
 6894SOL    HW221582   5.258   0.153   0.036  0.1894  0.5561 -2.6234
 6895SOL     OW21583   0.333   6.530   6.726 -0.3328  0.1517 -0.5503
 6895SOL    HW121584   0.349   6.520   6.627  2.1781  3.3532 -0.6654
 6895SOL    HW221585   0.238   6.559   6.741 -1.1961 -1.8080 -1.8224
 6896SOL     OW21586   1.486   3.187   5.076  0.4088 -0.4370  0.3120
 6896SOL    HW121587   1.392   3.220   5.068  0.4179 -0.0935  1.4201
 6896SOL    HW221588   1.507   3.125   5.000 -0.6635 -0.4115 -0.0132
 6897SOL     OW21589   3.888   0.119   2.724  0.0990  0.1932 -0.1120
 6897SOL    HW121590   3.960   0.077   2.779 -1.4187 -2.1016  0.2669
 6897SOL    HW221591   3.862   0.057   2.649 -1.2730  1.0685 -0.4027
 6898SOL     OW21592   6.983   0.021   0.723 -0.1241 -0.6383 -0.2665
 6898SOL    HW121593   6.887   0.049   0.717  0.1353  0.1849 -0.8907
 6898SOL    HW221594   6.993  -0.050   0.792 -1.2275 -0.9418 -0.4008
 6899SOL     OW21595   0.984   0.111   0.529 -0.4337 -0.5933 -0.0419
 6899SOL    HW121596   0.983   0.177   0.454  0.1764  0.1369  0.5764
 6899SOL    HW221597   1.037   0.030   0.502 -0.3445 -0.4015 -0.4489
 6900SOL     OW21598   1.290   3.801   0.467  0.1352  0.3250  0.3471
 6900SOL    HW121599   1.372   3.774   0.517  0.6933 -0.6057 -1.0389
 6900SOL    HW221600   1.238   3.719   0.442 -0.4396  0.8181 -0.0876
 6901SOL     OW21601   3.844   2.956   0.795  0.5185 -0.0675 -0.6517
 6901SOL    HW121602   3.848   2.992   0.888  0.1046  0.9758 -1.0313
 6901SOL    HW221603   3.928   2.905   0.776  1.3486  1.1178 -0.2670
 6902SOL     OW21604   0.670   4.447   3.840 -0.3569  0.4093 -0.3453
 6902SOL    HW121605   0.768   4.461   3.853 -0.0775 -0.6060 -1.2222
 6902SOL    HW221606   0.638   4.504   3.764 -0.4648  0.7959 -0.0115
 6903SOL     OW21607   3.502   6.405   0.152  0.2651  0.5032  0.0140
 6903SOL    HW121608   3.493   6.392   0.053  0.1945  0.1162  0.0683
 6903SOL    HW221609   3.598   6.416   0.176  0.2230  1.3417 -0.1834
 6904SOL     OW21610   1.284   1.779   3.480 -0.6874  0.8098  0.5136
 6904SOL    HW121611   1.283   1.865   3.430 -3.1709  1.0469  0.8623
 6904SOL    HW221612   1.379   1.756   3.504  0.0132  3.8492  1.1193
 6905SOL     OW21613   5.427   6.295   0.158  0.0690  0.1702 -0.0809
 6905SOL    HW121614   5.444   6.252   0.070  0.7687 -0.6210  0.4204
 6905SOL    HW221615   5.342   6.348   0.154 -0.1123 -0.1851 -1.1050
 6906SOL     OW21616   5.489   2.533   0.368  0.1358 -0.7365  0.8274
 6906SOL    HW121617   5.525   2.480   0.290 -0.3520 -1.8201  1.3139
 6906SOL    HW221618   5.390   2.520   0.374 -0.0699  0.6254  0.6904
 6907SOL     OW21619   1.788   5.532   5.503 -0.0569 -0.4854  0.2362
 6907SOL    HW121620   1.875   5.485   5.492  0.8311  0.8023  1.4359
 6907SOL    HW221621   1.733   5.521   5.420  1.6679 -0.4548 -0.9493
 6908SOL     OW21622   0.488   3.646   3.053 -0.0820  0.3412  0.3096
 6908SOL    HW121623   0.403   3.681   3.090 -1.2331 -1.1096 -0.8401
 6908SOL    HW221624   0.486   3.650   2.953  0.1565 -1.8602  0.1480
 6909SOL     OW21625   4.678   4.442   1.137 -0.2324  0.1526 -0.6934
 6909SOL    HW121626   4.591   4.414   1.178  0.7340 -0.9556  0.6624
 6909SOL    HW221627   4.686   4.542   1.142 -0.6928  0.1342  0.7133
 6910SOL     OW21628   1.816   4.647   0.183 -0.1654 -0.1993  0.7615
 6910SOL    HW121629   1.834   4.576   0.252  1.4133 -0.8757 -0.2733
 6910SOL    HW221630   1.853   4.734   0.214 -2.1737  0.2493  2.0725
 6911SOL     OW21631   6.696   1.404   5.310  0.1982 -0.2613  0.3661
 6911SOL    HW121632   6.748   1.319   5.320  1.9172  0.7736  0.6086
 6911SOL    HW221633   6.723   1.469   5.380  0.2104  1.1155 -0.8570
 6912SOL     OW21634   4.255   0.651   2.143  0.2294 -0.1825 -0.7381
 6912SOL    HW121635   4.172   0.653   2.088  0.1883  0.6806 -0.6505
 6912SOL    HW221636   4.246   0.712   2.221  0.6453 -0.6882 -0.2768
 6913SOL     OW21637   3.355   5.877   4.204  0.7100  0.0816  0.0218
 6913SOL    HW121638   3.368   5.887   4.106 -4.3056  2.9541 -0.6914
 6913SOL    HW221639   3.325   5.784   4.225 -0.0188 -0.0575 -1.5206
 6914SOL     OW21640   3.466   5.621   1.055  0.0505 -0.1585  0.2508
 6914SOL    HW121641   3.536   5.675   1.008 -0.4762 -0.7848 -1.3200
 6914SOL    HW221642   3.466   5.528   1.019 -3.5350  0.5363 -2.0397
 6915SOL     OW21643   2.429   4.937   4.326 -0.6800 -0.1319 -0.2684
 6915SOL    HW121644   2.494   4.880   4.276 -0.2462  0.3697 -0.2875
 6915SOL    HW221645   2.434   4.917   4.423 -0.7811 -0.3749 -0.3131
 6916SOL     OW21646   4.274   1.191   6.058  1.2285  0.8910  0.1742
 6916SOL    HW121647   4.313   1.154   6.142 -1.7186 -0.0063  1.2515
 6916SOL    HW221648   4.248   1.116   5.998  0.4379  1.4219 -0.1554
 6917SOL     OW21649   7.002   2.585   2.822 -0.0210  0.0142 -0.2369
 6917SOL    HW121650   6.976   2.512   2.759  1.8613 -0.6600 -0.2912
 6917SOL    HW221651   6.970   2.673   2.785 -2.1787 -0.7067 -0.2400
 6918SOL     OW21652   0.695   6.023   0.743  0.0254  0.1024  0.9360
 6918SOL    HW121653   0.671   6.079   0.822 -0.2335  0.7917  0.3793
 6918SOL    HW221654   0.774   6.064   0.696 -0.3889  0.2079  0.3211
 6919SOL     OW21655   5.277   2.446   5.813 -0.5005 -0.4313  0.4841
 6919SOL    HW121656   5.272   2.499   5.728 -1.7064 -0.5028  0.4924
 6919SOL    HW221657   5.325   2.360   5.796 -2.0851 -1.1666 -0.5378
 6920SOL     OW21658   4.867   5.261   1.071 -0.2613 -0.5549 -0.5729
 6920SOL    HW121659   4.841   5.275   1.166 -0.5566 -1.3486 -0.5309
 6920SOL    HW221660   4.955   5.215   1.066  0.2087  0.3306 -0.7021
 6921SOL     OW21661   1.281   6.306   6.903 -0.8976 -0.0368  0.2069
 6921SOL    HW121662   1.185   6.324   6.881 -0.6206  1.3599  0.0892
 6921SOL    HW221663   1.293   6.304   7.002 -0.9511  0.3671  0.2224
 6922SOL     OW21664   2.974   2.384   0.681  0.8858  0.3200  0.2108
 6922SOL    HW121665   2.912   2.416   0.753 -0.0489 -0.9017 -0.0252
 6922SOL    HW221666   3.068   2.385   0.716  0.3900 -0.8730  1.7087
 6923SOL     OW21667   5.301   6.492   5.887  0.7257  0.0486  0.1144
 6923SOL    HW121668   5.253   6.470   5.802  0.5674  2.8562 -0.6186
 6923SOL    HW221669   5.275   6.426   5.958 -0.6702 -1.1960 -1.4657
 6924SOL     OW21670   0.749   5.180   2.374  0.4738 -0.1350  0.1290
 6924SOL    HW121671   0.724   5.181   2.277  2.1576  3.5475 -0.4374
 6924SOL    HW221672   0.834   5.130   2.386  1.3622  1.1032 -0.7284
 6925SOL     OW21673   1.263   4.900   1.773 -0.3853  0.3944  0.0048
 6925SOL    HW121674   1.293   4.809   1.744 -1.5235  0.1292 -0.4222
 6925SOL    HW221675   1.246   4.899   1.872  0.7999  0.5045  0.2190
 6926SOL     OW21676   0.872   3.628   5.477 -0.5343 -0.2182 -0.2527
 6926SOL    HW121677   0.962   3.662   5.449 -0.5290  0.7946  0.8766
 6926SOL    HW221678   0.879   3.532   5.504  0.3340  0.0126  0.3681
 6927SOL     OW21679   3.055   1.975   2.824 -0.1336  0.8272 -0.0107
 6927SOL    HW121680   3.142   2.005   2.785  0.5632  0.0848  0.9195
 6927SOL    HW221681   3.071   1.897   2.885 -1.4470  0.7190  0.2261
 6928SOL     OW21682   5.306   0.933   3.538  0.1364  0.1183  0.1081
 6928SOL    HW121683   5.344   1.022   3.566 -0.1344  0.0070  0.8341
 6928SOL    HW221684   5.371   0.861   3.562 -0.8568 -0.1643  2.1419
 6929SOL     OW21685   2.323   6.410   0.069 -0.4124 -0.4873  0.5277
 6929SOL    HW121686   2.280   6.408   0.159 -0.0157 -0.6301  0.7160
 6929SOL    HW221687   2.270   6.354   0.005 -0.1982 -1.1237  0.9006
 6930SOL     OW21688   3.404   4.954   6.667  0.4662  0.4984 -0.1015
 6930SOL    HW121689   3.383   5.052   6.664 -0.6311  0.3579  1.5695
 6930SOL    HW221690   3.336   4.907   6.723  1.4187 -1.1115 -0.2331
 6931SOL     OW21691   5.857   6.463   4.545 -0.0086 -0.3948  0.3776
 6931SOL    HW121692   5.863   6.365   4.523 -0.8067 -1.2172  3.3818
 6931SOL    HW221693   5.948   6.504   4.537  0.2816 -1.2560 -1.2225
 6932SOL     OW21694   2.177   4.579   5.885  0.6083  0.2496 -0.3582
 6932SOL    HW121695   2.091   4.542   5.851  0.3551 -0.0794  0.6146
 6932SOL    HW221696   2.253   4.525   5.848  0.2298 -1.5547  1.3375
 6933SOL     OW21697   2.471   6.531   3.278 -0.2796 -0.2966 -1.0188
 6933SOL    HW121698   2.475   6.503   3.374  0.9317 -0.9366 -1.2415
 6933SOL    HW221699   2.375   6.537   3.249 -0.6974  0.7594  0.4588
 6934SOL     OW21700   3.591   0.425   2.135 -0.1245 -0.5226  0.0836
 6934SOL    HW121701   3.537   0.493   2.086  0.3372  1.1696  1.7617
 6934SOL    HW221702   3.593   0.449   2.232  0.1075 -2.9615  0.7379
 6935SOL     OW21703   2.198   1.466   6.436 -0.0241 -0.4108  0.0954
 6935SOL    HW121704   2.167   1.393   6.497 -1.0879 -0.4597 -0.4854
 6935SOL    HW221705   2.137   1.544   6.444  0.8572  0.2604  0.3880
 6936SOL     OW21706   2.992   1.315   5.349  0.5191 -0.4943 -0.6813
 6936SOL    HW121707   3.019   1.399   5.396  0.1810 -1.1400  0.7291
 6936SOL    HW221708   2.933   1.338   5.271 -2.1067  0.5054  1.4373
 6937SOL     OW21709   4.901   0.985   6.021  0.0465  0.8937 -0.0379
 6937SOL    HW121710   4.894   1.070   6.074 -0.9061  0.1888  1.0059
 6937SOL    HW221711   4.819   0.929   6.037  0.2577  0.1510 -1.3898
 6938SOL     OW21712   3.866   0.261   3.964  0.3769 -0.3106  0.1602
 6938SOL    HW121713   3.798   0.193   3.936  0.9611 -0.5491 -0.7185
 6938SOL    HW221714   3.848   0.290   4.057 -0.4399 -0.9847  0.2178
 6939SOL     OW21715   2.082   5.720   6.385 -0.3790  0.1385  0.1256
 6939SOL    HW121716   2.156   5.787   6.371  0.9083 -1.4880 -1.2566
 6939SOL    HW221717   2.062   5.713   6.483 -0.1330  2.0635  0.3687
 6940SOL     OW21718   0.725   4.870   0.621 -0.3308  0.4287  0.4179
 6940SOL    HW121719   0.625   4.876   0.623 -0.2931  1.0768  0.7090
 6940SOL    HW221720   0.753   4.802   0.554 -1.0050 -0.6722  1.2208
 6941SOL     OW21721   4.146   6.479   6.786 -0.5068 -0.4023 -0.2634
 6941SOL    HW121722   4.130   6.463   6.688 -1.5973 -4.2401  0.3749
 6941SOL    HW221723   4.230   6.531   6.798 -0.0897 -0.2225 -3.2263
 6942SOL     OW21724   4.655   1.110   3.598  0.0760  0.3787  0.3604
 6942SOL    HW121725   4.750   1.140   3.599  0.4692 -0.6993 -1.2852
 6942SOL    HW221726   4.645   1.028   3.654  0.3544 -0.1140 -0.2973
 6943SOL     OW21727   1.259   0.566   6.165 -0.5702 -0.5871 -0.4973
 6943SOL    HW121728   1.302   0.646   6.207 -1.5354 -0.0964 -0.4083
 6943SOL    HW221729   1.167   0.591   6.132 -0.9977 -1.7264 -0.2142
 6944SOL     OW21730   2.959   3.797   4.879 -0.9928 -0.4009 -0.4066
 6944SOL    HW121731   2.884   3.754   4.930  0.1200 -0.6226  1.1151
 6944SOL    HW221732   3.017   3.727   4.839 -0.6000 -0.2738 -0.0665
 6945SOL     OW21733   6.756   3.173   0.605 -0.4663 -0.2245 -0.4871
 6945SOL    HW121734   6.851   3.152   0.583 -0.2753 -0.4234  0.4765
 6945SOL    HW221735   6.741   3.160   0.703 -1.7994 -1.4381 -0.8150
 6946SOL     OW21736   2.453   2.069   6.214  0.0082 -0.5122 -0.0083
 6946SOL    HW121737   2.353   2.065   6.206 -0.0920 -0.8426  1.1602
 6946SOL    HW221738   2.479   2.050   6.308  1.2849 -2.2633 -0.6733
 6947SOL     OW21739   3.757   2.924   2.839 -0.4334 -0.0546 -0.1185
 6947SOL    HW121740   3.785   2.836   2.876  0.5336 -0.1698 -1.0646
 6947SOL    HW221741   3.709   2.910   2.753 -1.0445  0.2986  0.1632
 6948SOL     OW21742   6.463   1.865   6.157  0.1213  0.2203 -0.3204
 6948SOL    HW121743   6.415   1.899   6.238 -1.0668  2.3156 -1.8148
 6948SOL    HW221744   6.459   1.765   6.157 -2.7934  0.2258  0.5326
 6949SOL     OW21745   6.958   2.424   1.601  0.0268  0.0022  0.0685
 6949SOL    HW121746   6.942   2.451   1.695 -0.1654 -0.6484  0.2306
 6949SOL    HW221747   6.871   2.398   1.558  0.3142 -1.3501  0.2514
 6950SOL     OW21748   5.968   0.529   2.022  0.4302  0.0980 -0.0380
 6950SOL    HW121749   5.869   0.532   2.036  0.3863 -2.2087  0.6194
 6950SOL    HW221750   6.014   0.550   2.108  0.4892  0.1785 -0.0894
 6951SOL     OW21751   5.001   2.408   6.882  0.1962 -0.3918 -0.2819
 6951SOL    HW121752   4.923   2.409   6.820  1.5573 -0.4298 -2.0982
 6951SOL    HW221753   5.039   2.316   6.887  0.9333 -0.1122 -0.5205
 6952SOL     OW21754   0.462   3.297   6.911  0.7889 -0.1836 -0.1913
 6952SOL    HW121755   0.475   3.327   6.816  4.6910 -1.4394 -0.2658
 6952SOL    HW221756   0.462   3.376   6.972  2.1266  0.4778 -0.9979
 6953SOL     OW21757   4.629   0.867   5.702  0.2947 -0.0885 -0.5563
 6953SOL    HW121758   4.545   0.906   5.663  0.2595 -0.8844 -1.2831
 6953SOL    HW221759   4.704   0.933   5.693  0.2247 -0.1516 -1.7191
 6954SOL     OW21760   4.884   1.220   3.200  0.4759  0.0140  0.2748
 6954SOL    HW121761   4.913   1.142   3.256  1.2842 -0.0765 -0.2458
 6954SOL    HW221762   4.787   1.211   3.179  0.7515 -1.4011 -0.5915
 6955SOL     OW21763   2.422   1.412   0.239 -0.8402  0.9173 -0.4356
 6955SOL    HW121764   2.493   1.343   0.224  1.6156  3.0322  0.6550
 6955SOL    HW221765   2.444   1.494   0.185 -2.6141  1.5528 -0.2571
 6956SOL     OW21766   5.966   5.154   1.966  0.0406 -0.1821 -0.0291
 6956SOL    HW121767   6.010   5.077   1.921  1.0084  0.8247 -0.8709
 6956SOL    HW221768   6.035   5.222   1.991 -0.7064  0.0955  1.3455
 6957SOL     OW21769   3.415   1.839   2.817 -0.3414 -0.4947  0.1572
 6957SOL    HW121770   3.438   1.828   2.914 -0.1113  1.2962  0.3351
 6957SOL    HW221771   3.491   1.808   2.761 -0.6748 -2.0424  0.4990
 6958SOL     OW21772   4.206   5.073   3.919  0.6306  0.3299 -0.7260
 6958SOL    HW121773   4.115   5.112   3.904  0.5270 -0.1305 -1.3420
 6958SOL    HW221774   4.201   4.973   3.910  0.9276  0.1761  0.6484
 6959SOL     OW21775   0.460   3.393   6.654  0.0896 -0.2364  0.4747
 6959SOL    HW121776   0.544   3.378   6.601 -1.0584 -0.5878 -1.3173
 6959SOL    HW221777   0.380   3.370   6.598 -1.3070  1.8549  1.4584
 6960SOL     OW21778   1.273   6.889   4.194  0.0749 -0.5703 -0.3371
 6960SOL    HW121779   1.317   6.842   4.271 -0.3543 -0.6283 -0.1238
 6960SOL    HW221780   1.343   6.928   4.134  0.4177  1.0856  1.0581
 6961SOL     OW21781   4.206   2.587   5.800 -0.2214  0.4443  0.2016
 6961SOL    HW121782   4.108   2.580   5.782  0.1587  0.5510 -2.3470
 6961SOL    HW221783   4.254   2.512   5.753  0.8498 -0.6137  2.7638
 6962SOL     OW21784   6.333   2.755   3.537 -0.3003  0.0209 -0.6148
 6962SOL    HW121785   6.398   2.723   3.605  0.2233  0.8735 -0.7026
 6962SOL    HW221786   6.327   2.689   3.462 -0.9766 -0.9922  0.2879
 6963SOL     OW21787   2.130   3.804   3.674  0.1104  0.3013 -0.5631
 6963SOL    HW121788   2.103   3.841   3.763 -2.2355  0.4423 -1.2648
 6963SOL    HW221789   2.108   3.707   3.671  3.6407 -0.6780  0.2498
 6964SOL     OW21790   0.332   0.867   1.970  0.0218 -0.5350  0.3101
 6964SOL    HW121791   0.427   0.887   1.995  0.2712 -0.7822 -0.4276
 6964SOL    HW221792   0.317   0.768   1.971  0.5426 -0.6942 -2.2352
 6965SOL     OW21793   5.743   3.545   2.331 -0.2806  0.5998 -0.3395
 6965SOL    HW121794   5.719   3.643   2.334 -1.1452  0.4169 -0.8640
 6965SOL    HW221795   5.745   3.509   2.424  1.1109  1.3578 -0.0589
 6966SOL     OW21796   5.272   0.294   0.840  0.1089 -0.1993  0.0930
 6966SOL    HW121797   5.186   0.288   0.790  0.5500  2.2551 -1.1197
 6966SOL    HW221798   5.262   0.357   0.917  1.2148  1.6740 -1.1989
 6967SOL     OW21799   0.374   0.433   4.383 -0.1946 -0.2095  0.2896
 6967SOL    HW121800   0.413   0.351   4.424  1.9314  0.0502 -1.0084
 6967SOL    HW221801   0.335   0.410   4.294 -0.8565 -0.0496  0.5380
 6968SOL     OW21802   1.888   6.874   6.668  0.0567 -0.4848 -0.8045
 6968SOL    HW121803   1.810   6.819   6.696 -0.2866  1.4114  2.4868
 6968SOL    HW221804   1.967   6.853   6.725  0.1487  1.7329 -0.0045
 6969SOL     OW21805   2.952   5.590   6.520 -0.6439  0.1054  0.4938
 6969SOL    HW121806   2.929   5.595   6.423  0.4516  1.3919  0.2781
 6969SOL    HW221807   2.873   5.620   6.574 -0.6566  1.1764 -0.0928
 6970SOL     OW21808   0.514   0.203   6.190 -0.5374 -0.3578  0.4622
 6970SOL    HW121809   0.563   0.126   6.229  0.1901  0.9909  2.3632
 6970SOL    HW221810   0.437   0.228   6.249 -0.6215  0.5292  0.0012
 6971SOL     OW21811   3.748   6.135   0.206  0.6447  0.3128  0.2559
 6971SOL    HW121812   3.784   6.228   0.202  2.0001 -0.1611  0.9173
 6971SOL    HW221813   3.725   6.104   0.114  0.7756  1.0755 -0.0376
 6972SOL     OW21814   4.415   0.796   2.675 -0.5408  0.5977 -0.1815
 6972SOL    HW121815   4.459   0.745   2.749 -0.1036 -0.1105 -0.9095
 6972SOL    HW221816   4.469   0.787   2.592 -2.0521 -0.3407 -1.1156
 6973SOL     OW21817   2.350   4.395   2.394  0.0809  0.4697 -0.2559
 6973SOL    HW121818   2.368   4.494   2.395  1.0749  0.2965  0.6591
 6973SOL    HW221819   2.272   4.376   2.335  0.2061  1.7483 -0.8611
 6974SOL     OW21820   4.200   3.729   5.081  0.1588  0.3642 -0.4632
 6974SOL    HW121821   4.134   3.785   5.031 -1.0531 -0.3542  0.2714
 6974SOL    HW221822   4.257   3.677   5.017 -1.3721 -0.5575 -1.1283
 6975SOL     OW21823   6.138   0.871   6.988 -0.4735 -0.6981  0.0625
 6975SOL    HW121824   6.076   0.949   6.981  0.8000  0.5711  2.0759
 6975SOL    HW221825   6.226   0.893   6.946  0.0601 -0.8341  1.0698
 6976SOL     OW21826   0.160   1.678   1.458  0.2916  0.3168  0.6263
 6976SOL    HW121827   0.234   1.711   1.517 -0.4920  1.2076  1.1301
 6976SOL    HW221828   0.199   1.643   1.373  1.3703 -0.2082  1.3097
 6977SOL     OW21829   2.178   4.401   4.439 -0.0280  0.3827  0.8599
 6977SOL    HW121830   2.275   4.424   4.436 -0.1192  0.7191 -0.2649
 6977SOL    HW221831   2.124   4.485   4.446 -0.2493  0.2498  0.7632
 6978SOL     OW21832   4.046   3.432   5.330 -0.7055 -0.1115  0.0032
 6978SOL    HW121833   3.976   3.479   5.277  0.3538  1.0124 -0.4271
 6978SOL    HW221834   4.089   3.362   5.274 -0.9326 -0.2712  0.0242
 6979SOL     OW21835   5.472   3.839   2.416 -0.1733  0.2723 -0.5186
 6979SOL    HW121836   5.503   3.807   2.506 -1.2040  1.1711  0.1814
 6979SOL    HW221837   5.501   3.934   2.403 -0.5006  0.3221 -0.9036
 6980SOL     OW21838   3.018   0.376   2.200  0.4924 -0.0306  0.5542
 6980SOL    HW121839   2.989   0.382   2.105 -0.5762 -1.8960  0.7078
 6980SOL    HW221840   2.940   0.354   2.258  1.3816 -0.3983  1.6604
 6981SOL     OW21841   3.140   4.575   1.239  0.4039 -0.0501 -0.1189
 6981SOL    HW121842   3.203   4.608   1.168 -0.0311  0.8593 -0.0982
 6981SOL    HW221843   3.192   4.546   1.319  0.8310  0.1083 -0.3349
 6982SOL     OW21844   5.129   4.613   4.155  0.1457  0.0653  0.9647
 6982SOL    HW121845   5.159   4.701   4.119 -0.1928 -0.9290 -2.0204
 6982SOL    HW221846   5.031   4.601   4.139  0.5041 -1.5292 -0.4144
 6983SOL     OW21847   2.331   1.963   2.590 -0.5477 -0.8292  0.3405
 6983SOL    HW121848   2.334   1.954   2.689  1.7654 -0.4405  0.3568
 6983SOL    HW221849   2.331   2.060   2.565  4.2261 -0.6747  0.0488
 6984SOL     OW21850   6.514   3.902   2.016 -0.7029  0.3395 -0.2741
 6984SOL    HW121851   6.485   3.998   2.015 -1.0280  0.2460 -0.0246
 6984SOL    HW221852   6.602   3.895   2.062 -1.1966  0.3817  0.7078
 6985SOL     OW21853   3.552   0.789   2.155  0.3101 -0.7344 -0.0212
 6985SOL    HW121854   3.468   0.810   2.105  0.0375  0.6649  0.9654
 6985SOL    HW221855   3.626   0.772   2.090 -0.3689 -0.3755 -0.9089
 6986SOL     OW21856   3.521   3.335   0.555 -0.7440 -0.2104 -0.7264
 6986SOL    HW121857   3.580   3.261   0.589 -0.2021 -0.9891 -3.1079
 6986SOL    HW221858   3.437   3.296   0.517 -2.0538  0.7520  1.0476
 6987SOL     OW21859   4.119   5.198   3.191  0.0592 -0.2669 -0.1694
 6987SOL    HW121860   4.065   5.168   3.112 -1.9680  0.3331  0.9164
 6987SOL    HW221861   4.167   5.283   3.168  0.9232 -1.0266 -1.2847
 6988SOL     OW21862   3.656   5.504   3.514  0.2747 -0.7065  0.0158
 6988SOL    HW121863   3.636   5.469   3.605  3.0279  3.1676  2.3897
 6988SOL    HW221864   3.579   5.561   3.483  0.1281 -0.4920  0.7705
 6989SOL     OW21865   3.636   3.510   6.071  0.0873  0.3677  0.0302
 6989SOL    HW121866   3.723   3.506   6.022 -0.6453  0.4229 -1.3264
 6989SOL    HW221867   3.621   3.602   6.106 -0.1459  0.7837 -1.1318
 6990SOL     OW21868   3.521   4.218   5.544  0.1481  0.4870 -0.1062
 6990SOL    HW121869   3.549   4.311   5.521  1.0765  0.1648 -0.2991
 6990SOL    HW221870   3.491   4.214   5.639  1.3079  0.7214  0.2786
 6991SOL     OW21871   1.125   1.206   4.531  0.4918 -0.7003 -0.1743
 6991SOL    HW121872   1.206   1.149   4.513 -1.1867 -3.1092 -0.6384
 6991SOL    HW221873   1.123   1.282   4.467  0.7189 -2.5229 -2.4906
 6992SOL     OW21874   2.089   1.677   6.844 -0.1532  0.4428 -0.1054
 6992SOL    HW121875   2.099   1.637   6.935 -0.0605  0.5343 -0.0756
 6992SOL    HW221876   2.179   1.691   6.803 -0.0376  2.6001  0.7470
 6993SOL     OW21877   4.234   2.928   0.648  0.3048 -0.4519 -0.9058
 6993SOL    HW121878   4.185   3.010   0.676  0.2647 -0.5183 -0.7782
 6993SOL    HW221879   4.177   2.847   0.667  1.0100 -0.6425  0.5642
 6994SOL     OW21880   4.267   0.842   1.898 -0.0414  0.2147 -0.2973
 6994SOL    HW121881   4.194   0.830   1.830 -1.3264 -0.9445  1.2190
 6994SOL    HW221882   4.290   0.754   1.938  0.5771  0.8898  0.8915
 6995SOL     OW21883   0.420   6.290   4.069 -0.2672  0.1875 -0.0000
 6995SOL    HW121884   0.321   6.281   4.063 -0.2536  0.3834 -0.4929
 6995SOL    HW221885   0.443   6.370   4.125 -0.3887  0.8785 -0.9225
 6996SOL     OW21886   2.409   5.232   4.307 -0.2945 -0.0883 -0.1524
 6996SOL    HW121887   2.337   5.231   4.376  0.7121 -0.4849  0.9244
 6996SOL    HW221888   2.445   5.139   4.294 -0.1755  0.0500 -0.9062
 6997SOL     OW21889   6.873   3.855   0.433 -0.2010  0.7192 -0.4154
 6997SOL    HW121890   6.878   3.808   0.521  0.1944  1.0002 -0.2861
 6997SOL    HW221891   6.852   3.951   0.447  0.5541  0.9138 -0.5798
 6998SOL     OW21892   0.472   4.731   6.997  0.2657  0.3510 -0.1319
 6998SOL    HW121893   0.448   4.640   7.032  0.2606  0.5997  0.5140
 6998SOL    HW221894   0.569   4.733   6.976  0.6878  0.7881  1.7194
 6999SOL     OW21895   3.853   4.737   6.138 -0.4846  0.0328  0.0529
 6999SOL    HW121896   3.856   4.712   6.041 -1.1766  1.0352 -0.2333
 6999SOL    HW221897   3.892   4.828   6.151  1.0450 -0.6913  0.9511
 7000SOL     OW21898   6.459   3.661   2.853  0.1150 -0.5117 -0.1844
 7000SOL    HW121899   6.460   3.581   2.793 -1.4770 -1.1347  0.5657
 7000SOL    HW221900   6.426   3.741   2.801 -2.2076 -1.2575  0.0269
 7001SOL     OW21901   4.864   1.380   2.826 -0.8880 -0.0445  0.0557
 7001SOL    HW121902   4.775   1.377   2.781 -0.2989  1.5381 -1.2916
 7001SOL    HW221903   4.878   1.295   2.877 -2.2767 -1.2081 -1.4129
 7002SOL     OW21904   3.330   6.596   6.841 -0.2903  0.4385  0.5640
 7002SOL    HW121905   3.337   6.610   6.940  1.8648  1.4779  0.3130
 7002SOL    HW221906   3.278   6.672   6.801 -0.2433  0.5782  0.7672
 7003SOL     OW21907   0.679   3.914   6.033  0.2248  0.2801  0.5252
 7003SOL    HW121908   0.741   3.836   6.038  0.0073  0.0776  0.0968
 7003SOL    HW221909   0.589   3.887   6.069 -0.7573 -0.5880 -2.3209
 7004SOL     OW21910   5.579   1.634   6.584 -0.4999 -0.9863  0.0595
 7004SOL    HW121911   5.516   1.672   6.516  1.1276  1.4804 -0.1960
 7004SOL    HW221912   5.670   1.626   6.543 -0.2483 -3.0261  0.8889
 7005SOL     OW21913   0.689   2.097   6.003 -0.5999 -0.3916 -0.0483
 7005SOL    HW121914   0.604   2.062   5.966 -2.1015  1.4069  1.4854
 7005SOL    HW221915   0.730   2.161   5.938 -2.1829  1.2407  0.4833
 7006SOL     OW21916   6.930   2.509   0.224 -0.0708  0.2569  0.3705
 7006SOL    HW121917   6.902   2.593   0.269  0.3769  2.0564 -2.4267
 7006SOL    HW221918   6.981   2.531   0.141 -1.0422 -2.7553 -1.1896
 7007SOL     OW21919   2.128   4.727   3.899 -0.5544 -0.5754 -0.3617
 7007SOL    HW121920   2.106   4.639   3.943 -2.0119 -0.3841 -0.6308
 7007SOL    HW221921   2.109   4.801   3.964 -0.1779 -0.4194 -0.4316
 7008SOL     OW21922   4.122   1.539   6.606 -0.4631  0.2089  0.0801
 7008SOL    HW121923   4.081   1.564   6.694 -1.2577 -0.0456 -0.2117
 7008SOL    HW221924   4.059   1.561   6.532  0.5788  1.3321 -0.5319
 7009SOL     OW21925   6.728   3.220   6.724 -1.0150  0.5568  0.2143
 7009SOL    HW121926   6.792   3.198   6.650 -1.0603  1.9449 -0.2783
 7009SOL    HW221927   6.667   3.143   6.739  2.0011 -1.6704  2.0987
 7010SOL     OW21928   5.039   1.820   2.662 -0.2016 -0.0937 -0.2302
 7010SOL    HW121929   5.095   1.867   2.594 -2.2307  1.5401 -0.9019
 7010SOL    HW221930   5.051   1.863   2.751 -0.0022 -0.0657 -0.2709
 7011SOL     OW21931   4.759   2.432   2.973  0.3236  0.3055  0.1238
 7011SOL    HW121932   4.822   2.359   2.944  1.0780  0.7417  0.6130
 7011SOL    HW221933   4.736   2.419   3.070 -0.0103  0.3805  0.0528
 7012SOL     OW21934   0.896   1.903   3.952  0.0210 -0.5436 -0.2030
 7012SOL    HW121935   0.949   1.890   3.868 -2.3593  0.6685 -2.0158
 7012SOL    HW221936   0.906   1.997   3.984  0.4601 -0.8437  0.5773
 7013SOL     OW21937   2.031   6.550   2.107 -0.8540 -0.4759  0.3574
 7013SOL    HW121938   1.940   6.531   2.142 -0.8749 -0.1841  0.4670
 7013SOL    HW221939   2.054   6.485   2.035 -1.3327 -0.2602  0.0029
 7014SOL     OW21940   2.462   5.802   5.344  0.9097 -0.2071 -0.4830
 7014SOL    HW121941   2.531   5.730   5.332  1.1518  0.3163 -2.4818
 7014SOL    HW221942   2.387   5.787   5.280  0.3026  0.5849  0.0228
 7015SOL     OW21943   6.864   6.330   1.189 -0.3911  0.0709 -0.5576
 7015SOL    HW121944   6.884   6.425   1.163 -0.5519  0.4190  0.5320
 7015SOL    HW221945   6.916   6.268   1.130 -0.2199  0.8350 -1.2326
 7016SOL     OW21946   3.843   0.114   1.670 -0.3991  0.5550  0.0041
 7016SOL    HW121947   3.841   0.019   1.701  0.0597  0.5623  0.0613
 7016SOL    HW221948   3.789   0.170   1.732  0.0676  0.4813  0.4846
 7017SOL     OW21949   1.551   0.805   2.650 -0.0839 -0.3489  0.4818
 7017SOL    HW121950   1.468   0.854   2.677  0.4167 -0.1628  1.7758
 7017SOL    HW221951   1.585   0.841   2.563 -0.9784  0.0274  0.2778
 7018SOL     OW21952   0.972   5.828   4.235 -1.2489 -0.3226  0.2970
 7018SOL    HW121953   0.947   5.758   4.168 -1.7270  1.1248 -1.1284
 7018SOL    HW221954   0.890   5.879   4.261 -0.8557 -0.0536  1.0360
 7019SOL     OW21955   3.136   0.631   6.197  0.0914  0.4589 -0.2051
 7019SOL    HW121956   3.152   0.620   6.099 -0.2923  1.6187 -0.4136
 7019SOL    HW221957   3.135   0.729   6.219 -2.9457  0.3682  0.4258
 7020SOL     OW21958   1.280   2.272   0.712  0.6913  0.0200  0.1625
 7020SOL    HW121959   1.237   2.325   0.786  1.7607 -0.7117  1.3522
 7020SOL    HW221960   1.330   2.334   0.652 -0.3557  0.6481 -0.1053
 7021SOL     OW21961   4.228   4.236   0.644  0.6860 -0.8238  0.3297
 7021SOL    HW121962   4.296   4.308   0.627 -0.0764  0.0658  0.9303
 7021SOL    HW221963   4.263   4.175   0.715  0.2878  0.4866  1.7072
 7022SOL     OW21964   5.414   0.762   6.059 -0.3459 -0.1325  0.3953
 7022SOL    HW121965   5.431   0.790   6.154 -2.6312  1.9574  0.2778
 7022SOL    HW221966   5.321   0.726   6.052  0.2891 -1.6331 -0.8298
 7023SOL     OW21967   5.144   2.458   4.086  0.2157  0.0633 -0.2239
 7023SOL    HW121968   5.229   2.511   4.091  0.1236  0.2343 -0.4671
 7023SOL    HW221969   5.083   2.499   4.019  0.6798 -1.0951 -1.4047
 7024SOL     OW21970   6.950   2.136   6.282 -0.4653 -0.1002 -0.6443
 7024SOL    HW121971   6.918   2.075   6.354  1.1426 -0.6525 -0.3643
 7024SOL    HW221972   6.993   2.082   6.209 -1.5436  0.4950 -1.7606
 7025SOL     OW21973   1.562   6.707   5.465 -0.3388 -0.0488 -0.3268
 7025SOL    HW121974   1.507   6.776   5.418 -2.2121 -0.5553  1.0104
 7025SOL    HW221975   1.539   6.616   5.430 -0.6824 -0.3008  0.5163
 7026SOL     OW21976   4.039   5.023   1.587 -0.6320 -0.3105 -0.4422
 7026SOL    HW121977   3.965   5.090   1.584  0.8144  1.3439 -2.5541
 7026SOL    HW221978   4.022   4.958   1.660 -2.6855  1.6975  1.0139
 7027SOL     OW21979   4.189   6.241   0.776 -0.3963 -0.0893  0.4995
 7027SOL    HW121980   4.180   6.200   0.685  0.3256  0.6405  0.0895
 7027SOL    HW221981   4.185   6.340   0.768 -1.5787 -0.0482  1.4223
 7028SOL     OW21982   1.905   6.914   3.242  0.3769  0.2569  0.0333
 7028SOL    HW121983   1.811   6.942   3.262  0.4788  0.3647  0.3754
 7028SOL    HW221984   1.916   6.902   3.144 -0.3553 -1.0859  0.1009
 7029SOL     OW21985   1.610   4.785   6.750  0.6101 -0.8875 -0.1298
 7029SOL    HW121986   1.666   4.865   6.727 -1.3051  1.0323  1.4913
 7029SOL    HW221987   1.630   4.756   6.844 -0.6669 -0.5126  0.2789
 7030SOL     OW21988   5.072   2.630   6.704 -0.3324  0.0869  0.9568
 7030SOL    HW121989   5.039   2.609   6.796  0.2331 -1.3284  0.8711
 7030SOL    HW221990   5.023   2.572   6.638  0.3160  0.0067  0.5427
 7031SOL     OW21991   5.752   6.044   0.690 -0.1984 -0.0784 -0.1761
 7031SOL    HW121992   5.658   6.066   0.717  0.1307 -0.5452  1.4602
 7031SOL    HW221993   5.789   6.120   0.637 -0.5937  1.3871  1.5378
 7032SOL     OW21994   0.949   6.557   0.878  0.3670  0.2408 -0.0510
 7032SOL    HW121995   1.008   6.608   0.940 -0.1109 -1.1668  1.6274
 7032SOL    HW221996   0.859   6.601   0.873  0.7110  0.9024 -0.5403
 7033SOL     OW21997   5.748   4.312   2.725  0.2368 -0.4223 -0.2154
 7033SOL    HW121998   5.649   4.310   2.733  0.1238 -0.2497 -1.3645
 7033SOL    HW221999   5.774   4.299   2.629  1.3450 -1.0005  0.1387
 7034SOL     OW22000   6.604   3.685   2.434 -0.0467  0.3439 -0.5863
 7034SOL    HW122001   6.552   3.637   2.504 -0.0542 -1.1574 -1.5789
 7034SOL    HW222002   6.677   3.625   2.399 -0.2070  0.9473 -2.0279
 7035SOL     OW22003   6.821   4.372   3.830  0.4704 -0.3112 -0.1738
 7035SOL    HW122004   6.797   4.431   3.753  1.8008 -1.1948 -1.3310
 7035SOL    HW222005   6.912   4.397   3.863  0.1435 -0.3153  0.7535
 7036SOL     OW22006   2.693   5.216   5.386  0.0862  0.1718 -0.6066
 7036SOL    HW122007   2.652   5.302   5.355 -1.2071 -0.5463 -0.9723
 7036SOL    HW222008   2.792   5.221   5.376  0.0708  1.7878 -0.1774
 7037SOL     OW22009   1.722   5.563   6.124 -0.0290  0.1569  0.1201
 7037SOL    HW122010   1.629   5.595   6.106  0.1839  0.6796 -0.0638
 7037SOL    HW222011   1.718   5.472   6.164 -0.7672  1.1594  2.5596
 7038SOL     OW22012   2.254   2.492   5.471  0.0210 -0.1461 -0.5680
 7038SOL    HW122013   2.287   2.444   5.389  0.1048  1.1061 -1.2960
 7038SOL    HW222014   2.320   2.562   5.497 -0.7078  0.4561 -0.3095
 7039SOL     OW22015   4.311   1.873   4.347  0.4797 -0.3247  0.1765
 7039SOL    HW122016   4.231   1.926   4.317  0.9547 -0.1585 -0.8190
 7039SOL    HW222017   4.382   1.878   4.277  1.1621 -0.9147  0.8230
 7040SOL     OW22018   0.779   1.117   0.678 -0.2547 -0.0222 -0.2979
 7040SOL    HW122019   0.811   1.202   0.635  2.5078 -1.5115 -1.4362
 7040SOL    HW222020   0.709   1.075   0.620  0.5800 -0.0079 -1.3518
 7041SOL     OW22021   2.579   1.325   1.385  0.3839 -0.0519 -0.3055
 7041SOL    HW122022   2.647   1.391   1.416  1.4285 -0.6161 -1.2998
 7041SOL    HW222023   2.607   1.233   1.413 -0.0926 -0.2692 -0.5182
 7042SOL     OW22024   4.829   2.391   4.664 -0.3225  0.2015  0.5146
 7042SOL    HW122025   4.851   2.326   4.737  1.0186 -0.7732 -0.7009
 7042SOL    HW222026   4.898   2.464   4.663 -0.3085  0.1840  0.1979
 7043SOL     OW22027   0.261   2.335   5.986  0.0243 -0.7778 -0.4599
 7043SOL    HW122028   0.167   2.358   6.007 -0.4698  0.0596 -3.2406
 7043SOL    HW222029   0.268   2.302   5.892  2.6620  0.3937 -0.7875
 7044SOL     OW22030   3.571   5.919   6.570 -0.2011 -0.2925  0.5018
 7044SOL    HW122031   3.490   5.975   6.554 -0.3289 -0.9852 -1.6416
 7044SOL    HW222032   3.594   5.870   6.486  1.3756 -1.5250  1.5975
 7045SOL     OW22033   6.028   0.992   0.240  0.1260 -0.7265 -0.2396
 7045SOL    HW122034   6.110   0.958   0.193  0.2414 -1.2334  0.3227
 7045SOL    HW222035   5.962   0.918   0.248 -1.3544  0.1815 -2.6881
 7046SOL     OW22036   4.783   1.108   1.286  0.1796 -0.1405 -0.4554
 7046SOL    HW122037   4.714   1.113   1.358  1.0482  2.1577  0.3103
 7046SOL    HW222038   4.739   1.098   1.197 -1.2048  1.7995 -0.0392
 7047SOL     OW22039   6.372   6.920   0.228  0.0373 -0.1737  0.2373
 7047SOL    HW122040   6.380   6.827   0.263 -1.3246 -0.9940 -1.4586
 7047SOL    HW222041   6.279   6.935   0.194 -0.0938  2.1911  1.4155
 7048SOL     OW22042   3.936   5.830   6.412 -0.1362  0.7994 -0.1541
 7048SOL    HW122043   3.965   5.891   6.485 -0.2288  0.1165  0.4599
 7048SOL    HW222044   3.865   5.768   6.445  0.4258 -0.0886 -0.5676
 7049SOL     OW22045   3.191   0.983   5.039 -0.0661 -0.0921  0.3178
 7049SOL    HW122046   3.170   1.080   5.027  1.4262  0.2679  0.4240
 7049SOL    HW222047   3.146   0.950   5.122 -0.0308  0.6820  0.6574
 7050SOL     OW22048   2.405   4.506   3.607 -0.0510 -0.6769  0.2068
 7050SOL    HW122049   2.319   4.556   3.598 -1.0171 -2.3420 -0.1902
 7050SOL    HW222050   2.479   4.561   3.568 -1.4625 -0.5065 -2.4997
 7051SOL     OW22051   3.632   1.473   3.329  0.5522  0.0590  0.0837
 7051SOL    HW122052   3.664   1.567   3.332  0.6684  0.0590 -0.7497
 7051SOL    HW222053   3.680   1.425   3.255 -0.0636 -0.4419  0.0075
 7052SOL     OW22054   5.529   6.410   5.806  0.0358  0.5558 -0.8469
 7052SOL    HW122055   5.439   6.439   5.837  0.1972  0.0308  0.1689
 7052SOL    HW222056   5.540   6.432   5.709 -1.3678  0.1926 -1.1130
 7053SOL     OW22057   1.670   6.540   0.957  0.3139 -0.1624 -0.2897
 7053SOL    HW122058   1.588   6.598   0.962  0.5127  0.1561 -0.6513
 7053SOL    HW222059   1.671   6.478   1.034  0.4252  0.7557  0.4657
 7054SOL     OW22060   0.608   6.292   5.688  0.0378  0.2826 -0.8228
 7054SOL    HW122061   0.704   6.280   5.662  0.3854 -0.9438  0.8082
 7054SOL    HW222062   0.558   6.207   5.673 -0.0925  0.0081  0.9074
 7055SOL     OW22063   5.741   4.865   2.392 -0.6450  0.3166 -0.3091
 7055SOL    HW122064   5.666   4.881   2.329 -0.1739  1.2009 -0.6668
 7055SOL    HW222065   5.800   4.946   2.395  0.1515 -0.2601  0.1554
 7056SOL     OW22066   3.835   6.456   2.912 -0.7501  0.7355  0.2200
 7056SOL    HW122067   3.778   6.495   2.840  0.4012 -1.0485 -1.7512
 7056SOL    HW222068   3.872   6.530   2.969 -3.6439  2.0486  0.6149
 7057SOL     OW22069   2.152   6.394   5.352  0.0612 -0.4113  0.5681
 7057SOL    HW122070   2.220   6.408   5.281 -0.7464  1.0617  0.0382
 7057SOL    HW222071   2.177   6.315   5.408  1.8440 -0.2825 -0.0024
 7058SOL     OW22072   3.809   3.335   2.946  0.0053 -0.8405  0.1219
 7058SOL    HW122073   3.896   3.303   2.909  0.5122 -0.8363  1.2764
 7058SOL    HW222074   3.744   3.259   2.950 -0.5781 -0.5229 -2.1747
 7059SOL     OW22075   0.558   0.800   0.655  0.6243  0.0858 -0.0296
 7059SOL    HW122076   0.631   0.758   0.709  0.1782 -1.5702 -0.6451
 7059SOL    HW222077   0.475   0.808   0.711  0.5418 -0.4145 -0.0770
 7060SOL     OW22078   0.058   6.083   2.896  0.2765  0.2578  0.2116
 7060SOL    HW122079   0.135   6.045   2.846 -0.2332  0.1786 -0.5214
 7060SOL    HW222080  -0.028   6.047   2.859 -0.1313  0.5486  0.8402
 7061SOL     OW22081   3.130   6.842   4.914  0.5301  0.3288  0.4006
 7061SOL    HW122082   3.165   6.847   4.820  0.8947 -0.4600  0.4875
 7061SOL    HW222083   3.034   6.812   4.912 -0.1868  2.4826  0.1638
 7062SOL     OW22084   6.205   2.820   6.275  0.5240 -0.8184  0.1394
 7062SOL    HW122085   6.199   2.745   6.342  0.5121 -1.0832 -0.1561
 7062SOL    HW222086   6.252   2.787   6.193  2.8923  0.2167  1.0194
 7063SOL     OW22087   3.677   2.806   1.309  0.0384 -0.1996 -0.3699
 7063SOL    HW122088   3.607   2.831   1.376 -0.9861 -0.2904 -1.3835
 7063SOL    HW222089   3.643   2.823   1.217  1.4028 -0.1379 -0.8897
 7064SOL     OW22090   2.965   4.251   5.279 -0.0666 -0.4191  0.0249
 7064SOL    HW122091   2.956   4.343   5.240 -2.2110 -0.2167  0.8692
 7064SOL    HW222092   3.053   4.212   5.252  0.4540  1.4669 -1.2030
 7065SOL     OW22093   3.887   3.419   2.354  0.0552 -0.0619  0.3673
 7065SOL    HW122094   3.857   3.478   2.279  0.8687  0.4710  0.4482
 7065SOL    HW222095   3.822   3.427   2.430 -0.8007 -0.6411 -0.2827
 7066SOL     OW22096   1.076   6.493   0.329  0.3184 -0.4318 -0.4214
 7066SOL    HW122097   1.018   6.420   0.364  0.2417  0.4305  1.3321
 7066SOL    HW222098   1.161   6.498   0.382  0.3850  0.6533 -0.5958
 7067SOL     OW22099   5.702   3.958   0.307 -0.0040  0.1573 -0.5689
 7067SOL    HW122100   5.683   3.958   0.209 -3.1729 -0.2038 -0.0757
 7067SOL    HW222101   5.665   3.875   0.348  3.1303 -0.7416  0.7276
 7068SOL     OW22102   3.023   4.321   6.462 -0.2556 -0.3814 -0.0694
 7068SOL    HW122103   3.017   4.222   6.468 -0.8324 -0.4630 -1.4589
 7068SOL    HW222104   3.092   4.347   6.395 -0.5030  0.1385 -0.1328
 7069SOL     OW22105   0.363   5.238   3.074 -0.2417  0.0086  0.6314
 7069SOL    HW122106   0.272   5.250   3.115 -1.3731 -0.8608 -1.4318
 7069SOL    HW222107   0.396   5.145   3.093 -1.2389 -0.7659 -1.1383
 7070SOL     OW22108   3.121   2.037   6.290 -0.1362  0.2853 -0.1881
 7070SOL    HW122109   3.219   2.026   6.302 -0.3800 -1.2903  0.6860
 7070SOL    HW222110   3.078   1.947   6.282 -1.5326  0.9346 -0.3443
 7071SOL     OW22111   5.795   4.379   4.331  0.2842 -0.2764  0.0456
 7071SOL    HW122112   5.790   4.380   4.431 -0.4631 -0.4845  0.0204
 7071SOL    HW222113   5.890   4.385   4.301  0.4149  2.6651  0.7232
 7072SOL     OW22114   6.968   0.451   4.779  0.2517  0.3163  0.2466
 7072SOL    HW122115   6.924   0.390   4.844 -0.4771 -1.6448 -1.9511
 7072SOL    HW222116   7.047   0.495   4.823  2.0638 -3.7115  1.4780
 7073SOL     OW22117   1.731   1.193   6.573  0.1821  0.3180  0.7078
 7073SOL    HW122118   1.706   1.154   6.661 -0.8192 -0.4472  0.1015
 7073SOL    HW222119   1.650   1.231   6.528  1.0232  2.6663  1.0243
 7074SOL     OW22120   4.424   5.625   2.313  0.4805  0.2558  0.6346
 7074SOL    HW122121   4.449   5.547   2.255 -0.2178 -2.1918  3.3879
 7074SOL    HW222122   4.344   5.671   2.275  1.8325  0.7208 -1.8896
 7075SOL     OW22123   2.588   2.196   1.205 -0.0685  0.1553  0.2289
 7075SOL    HW122124   2.586   2.155   1.113  0.2094 -0.9697  0.7003
 7075SOL    HW222125   2.670   2.252   1.214  0.2050 -0.1964 -0.0273
 7076SOL     OW22126   0.411   6.870   1.119 -0.3264 -0.5714  0.1312
 7076SOL    HW122127   0.503   6.866   1.081  0.0646  2.3704  0.5733
 7076SOL    HW222128   0.346   6.897   1.048 -0.3484  0.2236  0.4396
 7077SOL     OW22129   6.036   0.035   0.137  0.0249  0.3168  0.4906
 7077SOL    HW122130   5.986   0.031   0.050 -0.2369  0.4306  0.6333
 7077SOL    HW222131   5.974   0.066   0.209  0.4737  1.1074  0.5420
 7078SOL     OW22132   2.317   6.439   5.142 -0.4980 -0.1914  0.0172
 7078SOL    HW122133   2.299   6.381   5.062 -1.1820  0.3217 -0.2103
 7078SOL    HW222134   2.336   6.532   5.112 -0.5795 -0.0392  0.4405
 7079SOL     OW22135   0.746   0.914   4.103  0.0576  0.3609  0.0961
 7079SOL    HW122136   0.715   0.902   4.009 -0.3030  0.0717  0.2505
 7079SOL    HW222137   0.733   1.009   4.130 -0.1450  0.3740 -0.0396
 7080SOL     OW22138   4.275   5.856   0.615 -0.1199  0.6134 -0.7714
 7080SOL    HW122139   4.297   5.947   0.579  1.9835  0.9665  1.2383
 7080SOL    HW222140   4.234   5.801   0.542  0.8465  2.3436 -2.7249
 7081SOL     OW22141   3.569   2.630   0.434 -0.1178 -0.3878  0.0560
 7081SOL    HW122142   3.652   2.686   0.430  0.4064 -1.0813  0.9323
 7081SOL    HW222143   3.581   2.556   0.500 -1.9533  0.3303  1.2769
 7082SOL     OW22144   0.762   2.584   4.546 -0.3024 -0.0850 -0.3842
 7082SOL    HW122145   0.804   2.564   4.635 -0.1635 -2.6484 -0.9351
 7082SOL    HW222146   0.833   2.588   4.476 -0.5317  0.5416 -0.5811
 7083SOL     OW22147   2.833   0.916   4.398 -0.3162  0.2921  0.4229
 7083SOL    HW122148   2.858   0.996   4.343  1.1070 -1.2913 -1.3590
 7083SOL    HW222149   2.752   0.873   4.358  0.6623 -0.8031 -0.4790
 7084SOL     OW22150   3.846   4.578   0.208 -0.5659 -0.3509 -0.5513
 7084SOL    HW122151   3.763   4.545   0.164 -1.4554  0.9891  0.0175
 7084SOL    HW222152   3.829   4.590   0.306  0.7424 -1.3499 -0.1665
 7085SOL     OW22153   5.313   0.815   2.482 -0.0052  0.0926 -0.0122
 7085SOL    HW122154   5.371   0.849   2.408 -2.3826  0.0591 -2.0260
 7085SOL    HW222155   5.269   0.730   2.453 -1.0510  0.1111  1.4377
 7086SOL     OW22156   4.696   5.054   1.513 -0.0280 -0.1663  0.0175
 7086SOL    HW122157   4.626   5.123   1.532 -0.0451 -0.5929  1.5711
 7086SOL    HW222158   4.680   4.973   1.569  0.0277 -1.4522 -1.7420
 7087SOL     OW22159   3.116   3.057   2.777 -0.1927 -0.1170 -0.1792
 7087SOL    HW122160   3.087   3.078   2.870  0.6345 -0.4640  0.1663
 7087SOL    HW222161   3.174   2.975   2.778  1.5428  1.0549 -0.7058
 7088SOL     OW22162   5.355   0.914   2.721 -0.4980  0.1060  0.3699
 7088SOL    HW122163   5.413   0.843   2.760  1.6314  1.0919 -0.8103
 7088SOL    HW222164   5.317   0.883   2.634  0.0552  0.2375  0.0795
 7089SOL     OW22165   4.944   5.248   3.378  0.8496  0.0705 -0.0874
 7089SOL    HW122166   5.010   5.301   3.431  1.0731  1.4431 -1.6445
 7089SOL    HW222167   4.864   5.306   3.358  0.8148 -0.3609 -1.2813
 7090SOL     OW22168   5.491   3.565   1.938 -0.1655  0.2806  0.5930
 7090SOL    HW122169   5.564   3.634   1.942  0.0206  0.3047 -1.7703
 7090SOL    HW222170   5.531   3.474   1.949 -0.1867  0.4135  1.9993
 7091SOL     OW22171   5.314   1.397   4.724 -0.2224  0.4830 -0.3041
 7091SOL    HW122172   5.247   1.362   4.658  0.5138 -1.2085 -0.2007
 7091SOL    HW222173   5.290   1.491   4.749 -2.3528  0.0627 -0.5516
 7092SOL     OW22174   6.297   3.209   1.863 -0.0691  0.1308 -0.2006
 7092SOL    HW122175   6.238   3.132   1.840  1.3611 -1.0798  0.0728
 7092SOL    HW222176   6.316   3.210   1.961 -0.4386  1.1239 -0.1197
 7093SOL     OW22177   4.373   0.783   6.033  0.0978  0.5240  0.5304
 7093SOL    HW122178   4.328   0.862   5.991 -1.7986 -0.8696 -0.1774
 7093SOL    HW222179   4.395   0.715   5.963 -0.6329 -0.6555  1.4023
 7094SOL     OW22180   6.682   3.789   1.577 -0.1327 -0.6428 -0.0816
 7094SOL    HW122181   6.709   3.770   1.672  2.5410  2.3722 -0.0656
 7094SOL    HW222182   6.741   3.739   1.515  0.3603 -0.0409 -0.1055
 7095SOL     OW22183   6.072   2.172   4.243  0.2210  0.4474  0.1454
 7095SOL    HW122184   6.118   2.168   4.155  0.6718  1.4178  0.3249
 7095SOL    HW222185   5.991   2.231   4.236  0.0404  0.2175  0.2857
 7096SOL     OW22186   4.381   0.129   0.494 -0.2729 -0.2291 -0.3111
 7096SOL    HW122187   4.473   0.144   0.456 -0.2158  1.5572  0.4652
 7096SOL    HW222188   4.387   0.123   0.593 -1.0907  0.7660 -0.1909
 7097SOL     OW22189   2.234   2.968   1.928  0.0039 -0.4201  0.3722
 7097SOL    HW122190   2.168   3.039   1.950 -1.5180 -1.9627  1.0380
 7097SOL    HW222191   2.279   2.989   1.841 -1.0832  0.8649  0.1001
 7098SOL     OW22192   0.263   5.798   0.167 -0.1850  0.4168  0.4461
 7098SOL    HW122193   0.184   5.800   0.229 -0.4605  0.8183  0.0961
 7098SOL    HW222194   0.323   5.876   0.187  1.1804 -0.9609  2.0253
 7099SOL     OW22195   4.528   2.948   5.766  0.3195 -0.4539 -0.7127
 7099SOL    HW122196   4.611   2.893   5.753 -1.2669 -2.7048 -2.1214
 7099SOL    HW222197   4.490   2.972   5.676 -0.5708  0.5588 -0.0912
 7100SOL     OW22198   6.536   5.437   4.673 -0.1125 -0.6709  0.7827
 7100SOL    HW122199   6.583   5.378   4.608 -0.8932 -0.1031 -0.3276
 7100SOL    HW222200   6.439   5.445   4.647 -0.3394 -0.0787  1.7575
 7101SOL     OW22201   6.925   2.662   5.280 -0.2243  0.3621  0.0061
 7101SOL    HW122202   6.876   2.743   5.312 -0.7434  0.9906 -2.2163
 7101SOL    HW222203   6.910   2.587   5.344 -1.1977  1.5075  1.1847
 7102SOL     OW22204   4.843   0.865   4.806  0.0391  0.1668  0.6849
 7102SOL    HW122205   4.859   0.959   4.838  0.7483  0.5075 -0.6278
 7102SOL    HW222206   4.898   0.848   4.725 -1.6412 -0.7220 -0.3099
 7103SOL     OW22207   0.658   2.143   4.720  0.4323  0.3271 -0.3150
 7103SOL    HW122208   0.614   2.188   4.642  3.1533  3.2705 -0.3560
 7103SOL    HW222209   0.753   2.122   4.696  1.4315  1.5725  2.2320
 7104SOL     OW22210   5.694   6.648   2.031 -0.0075 -0.2519  0.0031
 7104SOL    HW122211   5.693   6.549   2.026 -1.8594 -0.2941  0.4233
 7104SOL    HW222212   5.625   6.679   2.097  1.5882  1.2712  1.0621
 7105SOL     OW22213   3.523   3.163   4.385  0.5868  0.1089 -0.1458
 7105SOL    HW122214   3.536   3.064   4.374 -1.0712 -0.0720 -0.7720
 7105SOL    HW222215   3.601   3.211   4.344  1.6620 -0.9284  0.6039
 7106SOL     OW22216   1.195   6.469   1.227  0.2679  0.1715  0.1998
 7106SOL    HW122217   1.160   6.377   1.216  0.8244 -0.0078 -0.0949
 7106SOL    HW222218   1.292   6.472   1.203 -0.0267  1.0853 -0.9808
 7107SOL     OW22219   3.491   3.975   0.555 -0.2208 -0.4844 -0.3445
 7107SOL    HW122220   3.433   3.894   0.562  0.2996 -0.8815 -0.5542
 7107SOL    HW222221   3.577   3.951   0.510 -0.4534  0.4001 -1.3186
 7108SOL     OW22222   3.456   2.660   1.532  0.4264  0.5990 -0.3076
 7108SOL    HW122223   3.402   2.729   1.484  0.6147  0.5881 -0.5371
 7108SOL    HW222224   3.415   2.641   1.621  0.5059  1.1831 -0.1438
 7109SOL     OW22225   5.606   6.871   1.512 -0.3105 -0.3777  0.1883
 7109SOL    HW122226   5.657   6.949   1.476 -1.3895  0.4180  0.3357
 7109SOL    HW222227   5.667   6.792   1.519  0.7272  0.3568 -0.2538
 7110SOL     OW22228   4.484   1.703   5.943  0.4418  0.1588 -0.2177
 7110SOL    HW122229   4.574   1.669   5.918  0.1456 -1.6709  0.9683
 7110SOL    HW222230   4.466   1.682   6.040 -0.6109  1.9737  0.0383
 7111SOL     OW22231   6.868   5.705   6.326 -0.3373  0.3934 -0.1406
 7111SOL    HW122232   6.853   5.782   6.264  0.3653  1.0362  0.4559
 7111SOL    HW222233   6.877   5.740   6.420 -1.5720 -0.5627  0.3711
 7112SOL     OW22234   4.629   6.887   3.950  0.3885  0.3774  0.0486
 7112SOL    HW122235   4.611   6.877   4.047 -0.6600  2.6222  0.1397
 7112SOL    HW222236   4.724   6.916   3.937  0.8784 -1.0349  0.2842
 7113SOL     OW22237   3.397   4.128   3.738  1.1837 -0.3578 -0.3463
 7113SOL    HW122238   3.465   4.173   3.796  1.7559 -1.1668 -0.3804
 7113SOL    HW222239   3.417   4.148   3.642  0.0108  1.3050 -0.2982
 7114SOL     OW22240   1.350   3.238   1.233  0.0954 -0.0465 -0.3123
 7114SOL    HW122241   1.308   3.182   1.305  0.8050  1.3738  1.2781
 7114SOL    HW222242   1.295   3.232   1.150 -2.8994  1.0942  1.4295
 7115SOL     OW22243   6.420   1.618   2.962  0.4436  0.0776 -0.8282
 7115SOL    HW122244   6.382   1.600   2.871 -2.4523 -0.4623  0.3520
 7115SOL    HW222245   6.411   1.535   3.018  0.0300  1.0320  0.5847
 7116SOL     OW22246   6.030   2.110   0.480 -0.4858 -0.4500 -0.2298
 7116SOL    HW122247   5.934   2.139   0.479 -0.7577 -1.2933 -1.6261
 7116SOL    HW222248   6.083   2.170   0.540 -1.3993  1.6407 -1.4037
 7117SOL     OW22249   0.375   3.794   2.633 -0.0022 -0.2355  0.3606
 7117SOL    HW122250   0.293   3.837   2.671  0.5352 -0.3922  1.7827
 7117SOL    HW222251   0.444   3.865   2.614  0.2140 -0.2775  0.9660
 7118SOL     OW22252   2.349   1.405   4.908 -1.3086 -0.1856 -0.0099
 7118SOL    HW122253   2.354   1.308   4.886 -0.4956  0.0646 -0.9764
 7118SOL    HW222254   2.285   1.451   4.847 -0.6257  0.1353 -0.4954
 7119SOL     OW22255   2.424   0.700   3.096 -0.6125 -0.1856 -0.2382
 7119SOL    HW122256   2.374   0.614   3.084 -0.3237 -0.2636 -0.9654
 7119SOL    HW222257   2.374   0.774   3.052  0.1724 -0.3679 -1.4950
 7120SOL     OW22258   6.330   3.695   1.898 -0.0908  0.0768  0.1503
 7120SOL    HW122259   6.263   3.762   1.868  2.4325  2.5778 -0.2638
 7120SOL    HW222260   6.379   3.729   1.978 -0.0460 -2.2036  1.1837
 7121SOL     OW22261   0.435   5.814   6.143 -0.0614 -0.3406  0.7224
 7121SOL    HW122262   0.521   5.844   6.184 -0.4040 -0.0020  1.2048
 7121SOL    HW222263   0.366   5.801   6.215 -0.7902  0.6574  0.2250
 7122SOL     OW22264   3.405   6.331   6.377  0.2159  0.0130  0.2144
 7122SOL    HW122265   3.424   6.279   6.460  0.4732 -0.3857 -0.0915
 7122SOL    HW222266   3.306   6.332   6.361  0.2970 -2.1191 -0.8544
 7123SOL     OW22267   2.688   2.091   3.285 -0.2463 -0.1761  0.0034
 7123SOL    HW122268   2.647   2.177   3.256 -1.3003 -0.6469  0.0502
 7123SOL    HW222269   2.763   2.109   3.349  0.2651  0.7415 -0.8278
 7124SOL     OW22270   5.190   0.511   0.058  0.0544 -0.3397  0.0684
 7124SOL    HW122271   5.204   0.412   0.060 -0.4228 -0.4346 -0.7458
 7124SOL    HW222272   5.166   0.543   0.149 -2.0913 -1.3274 -0.1009
 7125SOL     OW22273   6.705   5.764   5.602 -0.7453 -0.3962 -0.3919
 7125SOL    HW122274   6.605   5.762   5.600 -0.7729  0.6038 -0.7092
 7125SOL    HW222275   6.741   5.723   5.518 -0.8947 -0.6434 -0.3347
 7126SOL     OW22276   6.120   5.783   4.328  0.2349 -0.5948 -0.5731
 7126SOL    HW122277   6.037   5.836   4.312  1.7125  1.8475 -0.7051
 7126SOL    HW222278   6.125   5.708   4.263 -2.0932 -1.1328 -0.1982
 7127SOL     OW22279   1.106   5.368   0.051 -0.0842  0.4843  0.4968
 7127SOL    HW122280   1.064   5.458   0.057  0.9879  0.9943  0.6714
 7127SOL    HW222281   1.205   5.377   0.063 -0.0499 -0.8172  1.3092
 7128SOL     OW22282   1.225   1.613   0.899  0.3564 -0.0789  0.1927
 7128SOL    HW122283   1.147   1.551   0.912 -0.6358  1.0911 -0.0565
 7128SOL    HW222284   1.202   1.682   0.831  2.3558 -0.9087 -1.4296
 7129SOL     OW22285   0.522   4.141   6.759  0.3893 -0.2989 -0.0281
 7129SOL    HW122286   0.440   4.178   6.716 -0.5770 -0.6362  1.4742
 7129SOL    HW222287   0.587   4.114   6.688 -0.8699 -0.2149 -1.2507
 7130SOL     OW22288   5.150   2.711   2.625  0.4412 -0.4122  0.2741
 7130SOL    HW122289   5.158   2.616   2.657  1.8978 -0.1689  0.6864
 7130SOL    HW222290   5.103   2.711   2.536 -1.6892 -1.2798  1.3261
 7131SOL     OW22291   5.279   5.446   1.432 -0.0254 -0.3100 -0.2513
 7131SOL    HW122292   5.309   5.356   1.463 -1.2858 -0.2986  1.1202
 7131SOL    HW222293   5.314   5.516   1.495  3.0873  0.5409 -2.6530
 7132SOL     OW22294   0.052   2.766   3.910 -0.3421 -0.3100 -0.4837
 7132SOL    HW122295   0.130   2.794   3.855  0.9224 -0.9725  0.9062
 7132SOL    HW222296  -0.003   2.846   3.933  0.1118  0.2133 -1.1908
 7133SOL     OW22297   3.740   2.330   5.517  0.4259  0.0210  0.0650
 7133SOL    HW122298   3.676   2.328   5.440  1.9077  0.0040 -1.2306
 7133SOL    HW222299   3.712   2.263   5.586  0.6046 -2.1222 -1.8157
 7134SOL     OW22300   3.861   0.371   4.218 -0.2551  0.7076 -0.4372
 7134SOL    HW122301   3.799   0.358   4.296  0.6277  0.1229  0.1895
 7134SOL    HW222302   3.952   0.398   4.252  1.3405 -3.4204 -0.8599
 7135SOL     OW22303   1.714   0.113   2.348 -0.1671  0.7605 -0.5760
 7135SOL    HW122304   1.750   0.133   2.257  0.6455  1.1816 -0.1665
 7135SOL    HW222305   1.664   0.192   2.383  0.4054  0.9801 -0.2366
 7136SOL     OW22306   4.822   6.557   4.295 -0.5388  0.0169 -0.2150
 7136SOL    HW122307   4.856   6.481   4.240 -0.3623 -0.6805  0.8225
 7136SOL    HW222308   4.855   6.643   4.257  1.4621 -0.5680  0.1008
 7137SOL     OW22309   1.625   5.263   5.727  0.0877  0.1976  0.1531
 7137SOL    HW122310   1.543   5.273   5.782  0.0683 -1.9622  0.6153
 7137SOL    HW222311   1.603   5.274   5.630 -0.8462 -0.7009  0.2478
 7138SOL     OW22312   6.999   4.019   1.249 -0.2574 -0.1833 -0.0907
 7138SOL    HW122313   6.969   3.924   1.258 -0.3447 -0.3570 -1.8662
 7138SOL    HW222314   7.091   4.029   1.286  0.7204 -1.5346 -1.9929
 7139SOL     OW22315   1.857   6.670   0.837  0.6522 -0.0429 -0.5783
 7139SOL    HW122316   1.774   6.632   0.879 -0.1896  1.1841 -1.0487
 7139SOL    HW222317   1.830   6.732   0.762  2.0144  0.1324 -0.9407
 7140SOL     OW22318   6.545   2.154   2.751 -0.3053 -0.1156  0.1788
 7140SOL    HW122319   6.506   2.118   2.836 -0.1395 -0.0875  0.2682
 7140SOL    HW222320   6.471   2.183   2.690 -0.4245 -0.0808  0.3383
 7141SOL     OW22321   6.678   0.849   4.943  0.1980 -0.8894  0.0723
 7141SOL    HW122322   6.718   0.794   4.870  0.7611  0.1179 -0.3959
 7141SOL    HW222323   6.739   0.924   4.966 -1.3682  0.6709 -0.6339
 7142SOL     OW22324   6.780   5.112   0.439 -0.4178  0.0506 -0.0213
 7142SOL    HW122325   6.813   5.206   0.448  0.2633 -0.0524 -1.2547
 7142SOL    HW222326   6.856   5.049   0.448 -0.5619 -0.2846 -1.1218
 7143SOL     OW22327   6.595   4.819   2.582 -0.5240 -0.2448  0.2764
 7143SOL    HW122328   6.681   4.778   2.612 -0.7377 -0.6389  0.3479
 7143SOL    HW222329   6.527   4.748   2.569 -0.6247 -0.0142 -0.5067
 7144SOL     OW22330   1.050   4.301   6.055  0.5459 -0.5533 -0.0038
 7144SOL    HW122331   1.137   4.252   6.063 -0.4233 -2.2350  0.7711
 7144SOL    HW222332   1.018   4.326   6.147 -0.1552 -0.6394 -0.2201
 7145SOL     OW22333   6.635   4.741   5.002  0.2122 -0.2399  0.0803
 7145SOL    HW122334   6.705   4.689   5.051  1.8543  0.2477 -1.6307
 7145SOL    HW222335   6.673   4.775   4.916 -1.1673  2.6451  0.4741
 7146SOL     OW22336   2.813   1.410   4.267  0.0844 -0.1561  0.2775
 7146SOL    HW122337   2.773   1.439   4.354 -1.0441  1.1277 -0.6279
 7146SOL    HW222338   2.910   1.433   4.266  0.0855 -0.0820  1.1472
 7147SOL     OW22339   4.113   6.273   2.333 -0.4792 -0.1373 -0.0171
 7147SOL    HW122340   4.059   6.220   2.399  0.5563 -2.1548 -0.7242
 7147SOL    HW222341   4.176   6.333   2.382 -0.8459 -0.4234  0.8244
 7148SOL     OW22342   0.971   1.024   1.857  0.2924  0.0713  0.5591
 7148SOL    HW122343   0.970   0.995   1.953  0.9010  2.8772  1.5080
 7148SOL    HW222344   1.065   1.021   1.823  0.0148 -1.3456 -0.1173
 7149SOL     OW22345   4.531   5.890   2.146  0.1662  0.0185  0.0567
 7149SOL    HW122346   4.630   5.879   2.138  0.0171 -1.4366 -0.1110
 7149SOL    HW222347   4.485   5.824   2.087 -0.9339  1.5691 -0.9120
 7150SOL     OW22348   5.892   2.572   0.673 -0.0669  0.2525  0.2175
 7150SOL    HW122349   5.924   2.632   0.600  0.9834 -1.0916 -0.4818
 7150SOL    HW222350   5.806   2.528   0.646 -1.7106  2.5285  1.3735
 7151SOL     OW22351   5.426   4.157   4.939  0.3623 -0.6219  0.6773
 7151SOL    HW122352   5.471   4.093   4.877 -1.0747 -0.0932 -0.9889
 7151SOL    HW222353   5.390   4.107   5.018 -0.7003 -1.8971 -0.5702
 7152SOL     OW22354   5.151   4.355   6.249 -0.0315  0.1116  0.5839
 7152SOL    HW122355   5.171   4.443   6.293 -0.7756 -0.1502  1.4881
 7152SOL    HW222356   5.052   4.346   6.238 -0.0136 -0.8922  1.1173
 7153SOL     OW22357   2.834   1.750   1.668  0.0381  0.3187  0.1571
 7153SOL    HW122358   2.773   1.826   1.694  0.2919  0.5638  0.0436
 7153SOL    HW222359   2.928   1.774   1.692  0.3026  0.6228 -1.1413
 7154SOL     OW22360   5.540   4.003   2.114 -0.4709 -0.3596  0.0560
 7154SOL    HW122361   5.527   4.102   2.116 -1.1812 -0.4515  0.2288
 7154SOL    HW222362   5.474   3.962   2.051  0.8310 -0.5849 -1.2063
 7155SOL     OW22363   4.054   7.002   4.051  0.9926  0.6414 -0.0213
 7155SOL    HW122364   4.003   7.061   3.988 -1.1148 -0.6945  0.3397
 7155SOL    HW222365   4.072   6.914   4.008  0.5887  0.1441  0.8087
 7156SOL     OW22366   6.381   4.765   4.537 -0.6340 -0.2550  0.6543
 7156SOL    HW122367   6.400   4.667   4.526  0.0491 -0.0429 -0.2598
 7156SOL    HW222368   6.306   4.778   4.601 -1.4688 -1.4350 -0.0372
 7157SOL     OW22369   6.993   0.548   4.539 -0.2597  0.3776  0.4845
 7157SOL    HW122370   7.091   0.543   4.516  0.3305  2.2409  2.2662
 7157SOL    HW222371   6.980   0.518   4.633 -1.4573 -0.0313  0.1958
 7158SOL     OW22372   0.060   1.146   6.865 -0.3140 -0.2453 -0.2338
 7158SOL    HW122373   0.121   1.068   6.875  0.2005  0.0872 -0.7857
 7158SOL    HW222374   0.113   1.229   6.848 -0.9244  0.0130 -0.9380
 7159SOL     OW22375   2.604   6.841   2.223  0.3546 -0.2324  0.6656
 7159SOL    HW122376   2.559   6.771   2.278 -1.3865 -0.1450 -0.5736
 7159SOL    HW222377   2.539   6.881   2.159  1.6551  1.5263  0.3341
 7160SOL     OW22378   6.359   2.899   3.901 -0.3543 -0.1502  0.1808
 7160SOL    HW122379   6.416   2.912   3.820 -0.9565 -2.7028 -0.7268
 7160SOL    HW222380   6.311   2.812   3.895 -0.6168 -0.3213  3.2091
 7161SOL     OW22381   2.030   2.526   3.893 -0.1989  0.3059 -0.2646
 7161SOL    HW122382   2.035   2.426   3.901  2.6516  0.4261  0.5347
 7161SOL    HW222383   1.965   2.550   3.821 -0.1887 -2.1579 -1.2067
 7162SOL     OW22384   2.214   4.147   1.243 -0.0017 -0.2906  0.4848
 7162SOL    HW122385   2.268   4.195   1.173 -1.7281  0.1742 -0.6110
 7162SOL    HW222386   2.253   4.163   1.333  2.0714 -0.5776 -0.3231
 7163SOL     OW22387   6.755   2.546   4.380  0.9788  0.5409 -0.2247
 7163SOL    HW122388   6.657   2.531   4.361  1.3257 -0.1982 -1.5644
 7163SOL    HW222389   6.808   2.473   4.338  2.0734  0.4529  1.2416
 7164SOL     OW22390   6.437   0.133   0.456  0.1433  0.6546 -0.1966
 7164SOL    HW122391   6.379   0.165   0.381 -0.5660  1.2231  0.5798
 7164SOL    HW222392   6.524   0.101   0.419  1.7467  5.1830 -0.9582
 7165SOL     OW22393   3.838   0.947   2.514  0.0328  0.0929  0.2444
 7165SOL    HW122394   3.932   0.918   2.526  0.0923  0.0564 -0.2868
 7165SOL    HW222395   3.776   0.876   2.550  0.1776 -0.6902 -1.0121
 7166SOL     OW22396   5.890   6.156   2.171 -0.1199  0.1249 -0.7022
 7166SOL    HW122397   5.942   6.152   2.086  0.4071 -3.9349 -0.3601
 7166SOL    HW222398   5.953   6.169   2.248 -0.1977  0.2041 -0.6515
 7167SOL     OW22399   6.507   1.437   6.863 -0.3790 -0.5535  0.0241
 7167SOL    HW122400   6.512   1.526   6.909 -0.4127 -0.9418  0.7982
 7167SOL    HW222401   6.594   1.389   6.875 -0.3729 -0.6432 -0.3663
 7168SOL     OW22402   4.204   6.745   6.976 -0.1373  0.0611 -0.4343
 7168SOL    HW122403   4.121   6.732   7.030  0.2164 -1.9079 -0.2874
 7168SOL    HW222404   4.268   6.670   6.994  0.8784  0.4948 -1.9877
 7169SOL     OW22405   5.098   6.253   2.420 -0.1296 -0.3326  1.1615
 7169SOL    HW122406   5.024   6.200   2.463 -1.3827  1.1417  0.9103
 7169SOL    HW222407   5.061   6.338   2.383  1.4655 -0.1755 -0.2089
 7170SOL     OW22408   2.442   4.561   0.889 -0.7853  0.2059 -0.1149
 7170SOL    HW122409   2.502   4.511   0.951 -1.9312 -1.1690 -0.0478
 7170SOL    HW222410   2.456   4.659   0.901  1.8455 -0.0602 -0.5629
 7171SOL     OW22411   1.832   4.396   2.089 -0.2018  1.1325  0.3195
 7171SOL    HW122412   1.884   4.445   2.159  4.8609 -2.3390 -0.5093
 7171SOL    HW222413   1.841   4.298   2.103 -0.8859  0.2988 -3.8672
 7172SOL     OW22414   0.517   2.622   6.477 -0.6671  0.0070 -0.4220
 7172SOL    HW122415   0.453   2.577   6.414 -1.0417 -0.5819  0.3638
 7172SOL    HW222416   0.466   2.680   6.540 -0.2296  1.1736 -1.1059
 7173SOL     OW22417   2.331   2.110   5.621 -0.2113  0.3915  0.8724
 7173SOL    HW122418   2.335   2.036   5.688 -0.2380 -0.1564  0.2780
 7173SOL    HW222419   2.420   2.157   5.617 -0.2419  0.4896  1.3578
 7174SOL     OW22420   5.935   5.636   0.341 -0.6197 -0.0454  0.1827
 7174SOL    HW122421   5.885   5.699   0.401  0.1418 -0.2849  1.0908
 7174SOL    HW222422   5.907   5.542   0.361 -2.9856  0.0022 -2.2881
 7175SOL     OW22423   1.632   6.256   2.139 -0.0612  0.6325  0.1329
 7175SOL    HW122424   1.604   6.262   2.043  3.2785 -1.0672 -1.0956
 7175SOL    HW222425   1.622   6.161   2.170  1.4146  0.5775  0.5169
 7176SOL     OW22426   5.513   0.452   1.543  0.4951 -0.0242 -0.5896
 7176SOL    HW122427   5.599   0.495   1.571 -0.3663  0.8590  0.8427
 7176SOL    HW222428   5.439   0.481   1.605 -0.4590 -2.3312 -0.5299
 7177SOL     OW22429   0.189   4.333   2.337 -0.1910  0.2929 -0.0379
 7177SOL    HW122430   0.125   4.388   2.283  1.2835  0.9138 -1.2106
 7177SOL    HW222431   0.214   4.383   2.420  1.6318  1.7871 -1.3975
 7178SOL     OW22432   2.755   2.680   0.863 -0.0649  0.5111  0.1221
 7178SOL    HW122433   2.791   2.676   0.771  1.9455  2.2049  0.7747
 7178SOL    HW222434   2.829   2.698   0.928 -1.6041  0.6378  1.9460
 7179SOL     OW22435   0.177   1.939   0.736 -0.3809 -0.1952 -0.0799
 7179SOL    HW122436   0.240   2.017   0.729  1.3157 -1.4556  0.4837
 7179SOL    HW222437   0.084   1.970   0.716 -0.2993  2.6434  2.9611
 7180SOL     OW22438   6.014   1.150   5.578  0.2424  0.3038  0.5445
 7180SOL    HW122439   6.109   1.127   5.561  0.5659  0.0849  2.4045
 7180SOL    HW222440   5.954   1.090   5.526  1.1122 -0.4374  0.3887
 7181SOL     OW22441   4.977   4.090   1.630  0.3575  0.4342  0.3735
 7181SOL    HW122442   5.034   4.010   1.647  0.5711  0.1624 -1.4353
 7181SOL    HW222443   5.029   4.173   1.648  0.5551  0.1718  1.0125
 7182SOL     OW22444   0.746   1.705   4.533  0.8166 -0.1263  0.1321
 7182SOL    HW122445   0.722   1.625   4.477 -1.7010  1.6181 -1.5062
 7182SOL    HW222446   0.806   1.765   4.480  1.0021  0.0457  0.5387
 7183SOL     OW22447   3.577   4.533   5.905 -0.4318  0.2948  0.4193
 7183SOL    HW122448   3.672   4.558   5.891 -0.9443  1.7724 -0.6793
 7183SOL    HW222449   3.527   4.611   5.944 -1.0048 -0.7783  1.9416
 7184SOL     OW22450   2.508   5.022   2.274  0.3153 -0.4696 -0.0428
 7184SOL    HW122451   2.507   4.924   2.295 -0.3061 -0.6817 -0.9689
 7184SOL    HW222452   2.484   5.035   2.177  0.5141  0.5914  0.0396
 7185SOL     OW22453   0.530   4.597   5.417 -0.2376  0.6998  0.6923
 7185SOL    HW122454   0.526   4.633   5.511  1.5093 -1.2943  1.5966
 7185SOL    HW222455   0.624   4.575   5.394 -0.9887 -1.5040 -0.4727
 7186SOL     OW22456   5.474   5.807   2.013 -0.2334  0.6040 -0.6170
 7186SOL    HW122457   5.384   5.847   2.028 -0.0401  1.0266 -0.5786
 7186SOL    HW222458   5.539   5.879   1.986  0.3120  0.4597  0.2475
 7187SOL     OW22459   5.495   6.109   0.756  0.2365 -0.3762 -0.4014
 7187SOL    HW122460   5.498   6.062   0.668 -0.9921 -2.0449  0.3849
 7187SOL    HW222461   5.479   6.042   0.829 -1.1761  1.2192  0.8466
 7188SOL     OW22462   1.647   3.397   0.897  0.1948 -0.2010  0.5319
 7188SOL    HW122463   1.667   3.365   0.804 -0.2013 -0.8879  0.6724
 7188SOL    HW222464   1.727   3.381   0.955  0.8509  1.2404  0.0800
 7189SOL     OW22465   2.194   6.351   0.801  0.2897  0.6328 -0.2724
 7189SOL    HW122466   2.131   6.422   0.771 -0.7380 -0.7133 -1.4555
 7189SOL    HW222467   2.244   6.383   0.882 -2.4401  1.5118  1.2130
 7190SOL     OW22468   2.317   6.476   6.492  0.0143  0.1882  0.4512
 7190SOL    HW122469   2.260   6.536   6.547 -0.4023 -0.0726  0.3088
 7190SOL    HW222470   2.310   6.382   6.527  0.2510  0.1333  0.3521
 7191SOL     OW22471   0.370   2.057   3.200  0.1453 -1.0425  0.2560
 7191SOL    HW122472   0.289   2.001   3.220 -1.7297  1.0455 -1.0086
 7191SOL    HW222473   0.352   2.112   3.118  2.9679 -0.6440 -0.1696
 7192SOL     OW22474   2.172   2.045   6.879  0.1754  0.5646  0.0239
 7192SOL    HW122475   2.084   2.052   6.832 -0.2362  0.7567  0.7859
 7192SOL    HW222476   2.159   1.996   6.965  0.8118  0.6107  0.1473
 7193SOL     OW22477   1.151   5.895   2.150  0.2125 -0.2703 -0.6790
 7193SOL    HW122478   1.230   5.837   2.134  0.3613 -0.2835  0.1049
 7193SOL    HW222479   1.102   5.865   2.232  0.6795  1.1093  0.1362
 7194SOL     OW22480   0.086   5.995   2.510 -0.0787  0.7247  0.4978
 7194SOL    HW122481   0.028   5.914   2.524  1.8532 -0.8356 -0.0759
 7194SOL    HW222482   0.161   5.994   2.576  1.1365  0.8936 -0.8304
 7195SOL     OW22483   0.336   5.856   2.019 -0.6073 -0.0881  0.4166
 7195SOL    HW122484   0.428   5.860   1.980 -0.5691  2.1260  0.6022
 7195SOL    HW222485   0.290   5.773   1.989  1.5783 -1.4484  0.6398
 7196SOL     OW22486   2.586   5.778   4.514 -0.5997 -0.3634 -0.4566
 7196SOL    HW122487   2.613   5.850   4.577 -2.1433  0.2147 -0.3953
 7196SOL    HW222488   2.487   5.764   4.521 -0.2175 -3.2988  0.3840
 7197SOL     OW22489   1.611   4.681   5.704  0.3009 -0.0577 -0.4190
 7197SOL    HW122490   1.689   4.711   5.759  0.4118 -0.2993 -0.4409
 7197SOL    HW222491   1.528   4.682   5.759  0.4967 -0.7794 -0.0933
 7198SOL     OW22492   3.961   5.221   3.849 -0.2404  0.2101  0.0891
 7198SOL    HW122493   3.914   5.298   3.891 -0.6825 -0.0078  0.0011
 7198SOL    HW222494   3.909   5.189   3.769 -1.1205 -1.4220  1.2612
 7199SOL     OW22495   0.299   4.808   4.143 -0.5283  0.5303  0.1801
 7199SOL    HW122496   0.389   4.789   4.104 -1.1555  0.5113 -1.3242
 7199SOL    HW222497   0.273   4.734   4.205  0.3433  0.3869  0.3901
 7200SOL     OW22498   1.974   2.769   4.344 -0.2548 -0.2184  0.1026
 7200SOL    HW122499   1.947   2.838   4.277  0.8068 -0.8597 -1.0297
 7200SOL    HW222500   1.910   2.692   4.339 -1.8709  0.9266  1.8731
 7201SOL     OW22501   3.294   1.445   2.220  0.0213  0.3439 -0.6943
 7201SOL    HW122502   3.267   1.456   2.316 -0.6651  0.4112 -0.8921
 7201SOL    HW222503   3.369   1.380   2.214 -0.9426 -0.8504 -0.2442
 7202SOL     OW22504   3.090   5.658   5.618 -0.4090 -0.7158  0.0993
 7202SOL    HW122505   3.159   5.679   5.548  0.2301 -1.6546  0.4244
 7202SOL    HW222506   3.002   5.698   5.592  0.5596  1.7777  0.3723
 7203SOL     OW22507   5.252   6.360   6.113  0.0683 -0.4133  0.3197
 7203SOL    HW122508   5.256   6.262   6.130 -0.9800 -0.5949 -0.3846
 7203SOL    HW222509   5.298   6.409   6.187 -0.4920 -1.3837  1.3374
 7204SOL     OW22510   5.745   1.958   3.266 -0.4398 -0.1715 -0.1494
 7204SOL    HW122511   5.845   1.964   3.263 -0.4657  0.0498 -0.9096
 7204SOL    HW222512   5.717   1.864   3.252 -0.3344 -0.2903  0.4031
 7205SOL     OW22513   2.551   4.847   3.635  0.2579 -0.0137 -0.3574
 7205SOL    HW122514   2.605   4.793   3.570 -0.8623  0.3765 -1.6441
 7205SOL    HW222515   2.455   4.845   3.609 -0.3051 -0.1681  1.5328
 7206SOL     OW22516   2.513   4.262   5.629  0.8174  0.0500 -0.9894
 7206SOL    HW122517   2.591   4.238   5.687  0.9296  1.5130 -0.4980
 7206SOL    HW222518   2.514   4.206   5.547  1.2250 -1.3829 -0.0550
 7207SOL     OW22519   4.390   0.971   1.481  0.1650  0.0333  0.0749
 7207SOL    HW122520   4.310   1.018   1.443 -1.8287 -1.3830  2.2369
 7207SOL    HW222521   4.363   0.880   1.512  2.8065 -0.7347  0.3436
 7208SOL     OW22522   4.949   4.291   6.706  0.3657 -0.1893 -0.1946
 7208SOL    HW122523   4.851   4.283   6.685  0.5163 -0.3293 -0.8757
 7208SOL    HW222524   4.995   4.206   6.682  0.6662 -0.1095  0.0851
 7209SOL     OW22525   4.409   7.001   1.985 -0.0069 -0.0943  0.1034
 7209SOL    HW122526   4.490   7.059   1.974  0.3442 -0.8964 -2.0784
 7209SOL    HW222527   4.419   6.944   2.067  1.5363  0.0092  0.0133
 7210SOL     OW22528   6.620   7.004   0.162  0.1202 -0.3486 -0.9745
 7210SOL    HW122529   6.528   6.976   0.189 -0.2451  1.4057 -0.2594
 7210SOL    HW222530   6.683   6.987   0.238  0.0722 -0.0912 -0.8757
 7211SOL     OW22531   5.043   1.374   3.347  0.3468  0.5021 -0.3083
 7211SOL    HW122532   4.993   1.339   3.268 -0.1034 -1.6918  0.8602
 7211SOL    HW222533   4.997   1.346   3.431  1.1709  2.2134  0.7669
 7212SOL     OW22534   5.170   0.729   6.922 -0.3492  0.1098  0.1988
 7212SOL    HW122535   5.122   0.799   6.975 -1.5581 -1.1442  0.8279
 7212SOL    HW222536   5.166   0.642   6.971  0.8159 -0.4920 -0.7272
 7213SOL     OW22537   0.921   1.115   3.920  0.0001 -0.3593  0.4224
 7213SOL    HW122538   0.891   1.059   3.842 -0.2799  1.0827 -0.5467
 7213SOL    HW222539   1.007   1.078   3.956 -0.7001 -2.0259  0.5171
 7214SOL     OW22540   1.351   5.459   6.661  0.3190  0.0663  0.5558
 7214SOL    HW122541   1.320   5.553   6.674  0.3615  0.2248 -0.4182
 7214SOL    HW222542   1.282   5.395   6.696 -0.1072  0.4475  0.4143
 7215SOL     OW22543   1.348   2.781   2.757  0.0043 -0.0750  0.4234
 7215SOL    HW122544   1.388   2.868   2.785 -1.2992  0.8143 -0.3889
 7215SOL    HW222545   1.385   2.753   2.668 -0.1923  0.0714  0.2956
 7216SOL     OW22546   1.913   2.852   6.958 -0.4896 -0.2075 -0.2523
 7216SOL    HW122547   1.923   2.945   6.921 -2.3233 -0.1132 -0.6188
 7216SOL    HW222548   1.930   2.853   7.057  0.5794  0.2896 -0.4272
 7217SOL     OW22549   3.579   5.585   6.236  0.0461 -0.0028 -0.1105
 7217SOL    HW122550   3.589   5.510   6.170 -0.7781 -0.0757 -0.1654
 7217SOL    HW222551   3.604   5.552   6.328 -2.5600 -1.0833  0.2964
 7218SOL     OW22552   4.726   1.120   6.312 -0.1571 -0.1625 -0.4941
 7218SOL    HW122553   4.669   1.201   6.295  0.3607 -0.0479 -1.8241
 7218SOL    HW222554   4.822   1.145   6.305  0.0482 -0.5990  0.5993
 7219SOL     OW22555   4.090   0.373   2.715  0.3094 -0.1183 -0.1491
 7219SOL    HW122556   4.030   0.293   2.710  1.7246 -1.3117  0.8521
 7219SOL    HW222557   4.108   0.407   2.622 -2.8121  1.0633 -0.4227
 7220SOL     OW22558   3.336   6.330   5.465  0.2904 -0.2681  0.1752
 7220SOL    HW122559   3.276   6.327   5.385 -0.4102 -1.0776  0.7143
 7220SOL    HW222560   3.393   6.247   5.467 -1.6435 -1.6790  1.9405
 7221SOL     OW22561   0.612   0.760   6.913 -0.2774  0.0420  0.1065
 7221SOL    HW122562   0.710   0.768   6.934 -0.2906  1.7566 -0.3565
 7221SOL    HW222563   0.595   0.792   6.820 -1.5521  1.7983  0.8880
 7222SOL     OW22564   1.111   5.996   3.678  0.3619  0.4480 -0.1210
 7222SOL    HW122565   1.124   5.992   3.579 -1.2852 -1.0406 -0.3286
 7222SOL    HW222566   1.064   6.081   3.702  1.1665  1.0246 -0.5437
 7223SOL     OW22567   2.573   1.488   3.248 -0.0451 -0.5060  0.0536
 7223SOL    HW122568   2.574   1.388   3.257  0.5005 -0.6604 -1.4876
 7223SOL    HW222569   2.616   1.514   3.162 -0.3811  1.0621  0.3371
 7224SOL     OW22570   1.126   1.342   0.555 -0.4295  0.3869 -0.0122
 7224SOL    HW122571   1.139   1.434   0.519 -0.4186  0.2797 -0.2839
 7224SOL    HW222572   1.203   1.285   0.529  1.0425  1.0413  2.6263
 7225SOL     OW22573   2.494   0.036   3.084  0.1600  0.5234  0.3152
 7225SOL    HW122574   2.572  -0.026   3.073  0.1631  0.3917  1.0451
 7225SOL    HW222575   2.410  -0.011   3.058 -0.0457 -0.3599  2.3528
 7226SOL     OW22576   4.695   0.560   4.895 -0.0804 -0.2826  0.5117
 7226SOL    HW122577   4.622   0.629   4.901 -0.1944 -0.0866 -2.2329
 7226SOL    HW222578   4.783   0.607   4.888  0.0161 -0.4639  0.5279
 7227SOL     OW22579   5.438   5.613   2.210  0.0910  0.2149 -0.3331
 7227SOL    HW122580   5.498   5.671   2.155  1.7938 -0.0095  1.1521
 7227SOL    HW222581   5.470   5.519   2.206  0.2111  0.1770  0.9071
 7228SOL     OW22582   2.276   2.136   3.455  0.1291  0.1716 -1.0424
 7228SOL    HW122583   2.179   2.119   3.440  0.2365 -1.0659 -0.5307
 7228SOL    HW222584   2.306   2.215   3.403 -1.7223  2.1716  0.7389
 7229SOL     OW22585   2.107   4.822   1.308  0.0064  0.2579 -0.1935
 7229SOL    HW122586   2.137   4.908   1.266  0.1966 -1.1167 -3.1357
 7229SOL    HW222587   2.185   4.780   1.355 -0.0250  1.5010  1.0545
 7230SOL     OW22588   4.579   1.671   1.360  0.5290 -0.0830 -0.2606
 7230SOL    HW122589   4.573   1.674   1.261 -0.6370  0.0309 -0.2033
 7230SOL    HW222590   4.566   1.763   1.397  1.8046  0.0251 -0.0193
 7231SOL     OW22591   5.403   4.308   3.211 -0.2451 -0.3100 -0.6854
 7231SOL    HW122592   5.430   4.220   3.249 -0.4423 -0.3623 -0.6640
 7231SOL    HW222593   5.313   4.299   3.167  0.0143 -0.2713 -1.2377
 7232SOL     OW22594   4.141   1.085   1.375 -0.0825 -0.1749  0.0401
 7232SOL    HW122595   4.071   1.153   1.353 -2.2418 -1.6290  2.0190
 7232SOL    HW222596   4.100   0.994   1.379  2.5127 -1.5364 -1.4335
 7233SOL     OW22597   3.467   2.234   6.455 -0.8593  0.2198 -0.3495
 7233SOL    HW122598   3.497   2.298   6.385  0.3482 -0.5639 -0.5955
 7233SOL    HW222599   3.466   2.280   6.544 -0.3282  0.6759 -0.5723
 7234SOL     OW22600   4.801   0.198   2.230 -0.1130  0.0429 -0.6364
 7234SOL    HW122601   4.881   0.217   2.286  0.4834 -1.8294 -0.7881
 7234SOL    HW222602   4.739   0.137   2.279  0.2999 -1.4291 -1.8476
 7235SOL     OW22603   5.753   4.860   6.019 -0.6650 -0.3109 -0.4607
 7235SOL    HW122604   5.657   4.875   5.998 -0.3490  0.5999 -1.2992
 7235SOL    HW222605   5.808   4.936   5.985  0.3475 -0.7638  0.0973
 7236SOL     OW22606   1.873   6.100   2.673  0.3353 -0.4084  0.0224
 7236SOL    HW122607   1.855   6.167   2.746  2.2420  1.4883 -1.1182
 7236SOL    HW222608   1.952   6.044   2.698 -0.2456 -1.1470  0.2488
 7237SOL     OW22609   6.190   0.417   3.455 -0.2327 -0.2810 -0.0381
 7237SOL    HW122610   6.262   0.475   3.418 -1.7055  0.4550 -1.9812
 7237SOL    HW222611   6.175   0.339   3.393  0.3707 -1.6867  1.5081
 7238SOL     OW22612   1.030   0.979   5.843  1.2343 -0.0292 -0.0707
 7238SOL    HW122613   1.050   0.887   5.876 -0.4202 -1.1569 -1.9790
 7238SOL    HW222614   0.968   0.974   5.765  0.3286  2.7776  0.3520
 7239SOL     OW22615   4.091   5.855   3.565 -0.2061 -0.1382 -0.0161
 7239SOL    HW122616   4.090   5.816   3.473 -0.4165 -2.5689  0.9435
 7239SOL    HW222617   4.016   5.817   3.619  1.1939 -0.4492  1.8059
 7240SOL     OW22618   1.613   3.190   5.332  0.2283  0.0778 -0.2801
 7240SOL    HW122619   1.596   3.094   5.358  0.4001  0.3439  0.8684
 7240SOL    HW222620   1.556   3.213   5.253 -1.8410 -0.2069  1.0403
 7241SOL     OW22621   1.514   2.351   5.026 -0.6949  0.4600 -0.2275
 7241SOL    HW122622   1.547   2.298   4.949 -0.7474  1.4137 -0.9259
 7241SOL    HW222623   1.450   2.421   4.994 -3.1588 -1.0910  1.0442
 7242SOL     OW22624   5.401   1.363   2.751 -0.3666 -0.0700  0.0107
 7242SOL    HW122625   5.392   1.440   2.814 -0.8491  0.5675 -0.8038
 7242SOL    HW222626   5.406   1.278   2.802 -1.7267  0.3482  0.8795
 7243SOL     OW22627   4.079   2.090   4.668 -0.1880  0.7553 -0.4445
 7243SOL    HW122628   3.985   2.073   4.698  0.2790  1.1910  1.4168
 7243SOL    HW222629   4.142   2.033   4.721  0.5384 -0.7970 -2.8332
 7244SOL     OW22630   5.813   0.072   1.499  0.5575 -0.7068  0.3578
 7244SOL    HW122631   5.835   0.070   1.597 -0.8354 -3.3302  0.7181
 7244SOL    HW222632   5.751   0.148   1.480  1.3344  0.2056  1.3742
 7245SOL     OW22633   1.740   3.563   6.717 -0.8963 -0.3653 -0.3447
 7245SOL    HW122634   1.820   3.624   6.713  0.1590 -1.7583 -1.0093
 7245SOL    HW222635   1.744   3.510   6.801 -0.2908 -1.5234 -1.0890
 7246SOL     OW22636   2.103   3.052   2.514  0.2327  0.5109 -0.6019
 7246SOL    HW122637   2.105   3.004   2.602  0.7023  1.8795  0.1682
 7246SOL    HW222638   2.163   3.005   2.449  0.2194 -0.2696 -0.0637
 7247SOL     OW22639   3.380   3.199   5.161 -0.3723 -0.5398  0.0756
 7247SOL    HW122640   3.330   3.113   5.175 -0.4044 -0.7826 -1.3538
 7247SOL    HW222641   3.448   3.186   5.088  0.4317  0.3347  0.6505
 7248SOL     OW22642   1.581   3.712   3.594 -0.4824 -0.1051  0.0829
 7248SOL    HW122643   1.519   3.779   3.633 -0.0707 -0.0610  0.6760
 7248SOL    HW222644   1.651   3.688   3.661 -0.0890 -0.4475 -0.4395
 7249SOL     OW22645   1.576   7.025   3.798 -0.7533  0.3170  0.1524
 7249SOL    HW122646   1.555   7.056   3.705 -0.8043  1.1008  0.4208
 7249SOL    HW222647   1.628   6.939   3.793 -0.9000  0.2624 -0.5944
 7250SOL     OW22648   3.617   1.503   4.868 -0.1009  0.2705  0.0237
 7250SOL    HW122649   3.523   1.470   4.883  0.4130 -0.5340  1.7259
 7250SOL    HW222650   3.677   1.426   4.853  0.5116  0.6928  0.2768
 7251SOL     OW22651   0.837   4.895   2.931  0.7710 -0.0865  0.5105
 7251SOL    HW122652   0.814   4.797   2.930  0.2930  0.0065  1.4847
 7251SOL    HW222653   0.787   4.942   2.859 -0.2724 -0.2974  1.0764
 7252SOL     OW22654   5.395   2.471   6.784 -0.3282 -0.2742  0.2635
 7252SOL    HW122655   5.386   2.504   6.878  0.6205 -0.8035  0.5604
 7252SOL    HW222656   5.320   2.409   6.763 -0.0095 -0.9315  1.0168
 7253SOL     OW22657   6.022   0.976   2.841 -0.2214  0.2740  0.6935
 7253SOL    HW122658   5.989   0.898   2.895  0.3426 -0.7453 -0.3846
 7253SOL    HW222659   5.946   1.038   2.823 -0.1897  1.3535  3.7143
 7254SOL     OW22660   3.175   1.302   6.940 -0.8522 -0.1546  0.1212
 7254SOL    HW122661   3.090   1.266   6.979  0.7308 -1.2484  2.8038
 7254SOL    HW222662   3.223   1.229   6.892  0.9092 -1.0325  2.9831
 7255SOL     OW22663   6.105   6.542   2.761 -0.8197  0.7092  0.6076
 7255SOL    HW122664   6.117   6.506   2.853 -0.3826  0.1443  0.3380
 7255SOL    HW222665   6.025   6.499   2.718 -0.9907  0.9314  0.7039
 7256SOL     OW22666   2.624   4.342   5.261 -0.1893 -0.4688  0.0946
 7256SOL    HW122667   2.712   4.384   5.282  2.0276 -3.8467 -1.6867
 7256SOL    HW222668   2.558   4.414   5.237  1.7936  2.2128  2.1040
 7257SOL     OW22669   3.702   2.037   0.934 -0.0668  0.1173 -0.1676
 7257SOL    HW122670   3.672   1.979   1.009  0.5105 -0.2647 -0.2270
 7257SOL    HW222671   3.732   1.980   0.857 -0.9119  0.4982 -0.8025
 7258SOL     OW22672   0.605   1.955   1.130  0.0938  0.4480 -0.9742
 7258SOL    HW122673   0.542   1.969   1.207  1.2379  0.4455 -0.0231
 7258SOL    HW222674   0.562   1.895   1.063 -1.7649  2.1061 -1.3647
 7259SOL     OW22675   6.881   4.022   3.728  0.1938  0.2374 -0.7671
 7259SOL    HW122676   6.858   4.079   3.648  1.5858  0.0957 -1.2990
 7259SOL    HW222677   6.948   3.953   3.701 -0.6791 -0.9894  0.1272
 7260SOL     OW22678   4.701   6.745   6.804  0.0348 -0.7075  0.2793
 7260SOL    HW122679   4.683   6.674   6.735  0.6953  0.1762 -0.8442
 7260SOL    HW222680   4.627   6.812   6.802  1.1302  0.5361 -1.2157
 7261SOL     OW22681   0.068   5.843   0.368 -0.1188 -0.1241  0.1089
 7261SOL    HW122682   0.111   5.917   0.419  1.3462 -0.5671 -0.4267
 7261SOL    HW222683   0.056   5.764   0.429 -2.0468  0.6426  0.7852
 7262SOL     OW22684   6.808   3.176   1.550 -0.1259  0.1896 -0.1736
 7262SOL    HW122685   6.717   3.161   1.589  1.1461 -1.1825  2.5188
 7262SOL    HW222686   6.830   3.102   1.486 -1.5213  1.5099 -2.3383
 7263SOL     OW22687   6.259   1.368   4.061  0.0112  0.3449  0.1445
 7263SOL    HW122688   6.252   1.268   4.062  0.6142  0.2572  2.4584
 7263SOL    HW222689   6.215   1.405   4.143  0.7624  1.8920 -0.1130
 7264SOL     OW22690   5.655   6.438   3.902 -0.4003 -0.3339 -0.7074
 7264SOL    HW122691   5.701   6.494   3.971 -2.2311  0.4060 -0.0274
 7264SOL    HW222692   5.612   6.497   3.834 -0.6772 -0.9717 -1.0952
 7265SOL     OW22693   3.880   5.715   3.924  0.0894 -0.1093 -0.0191
 7265SOL    HW122694   3.811   5.774   3.967 -0.5956 -1.8008  1.3221
 7265SOL    HW222695   3.874   5.724   3.825 -1.2242  0.6964  0.1020
 7266SOL     OW22696   6.755   0.944   1.775 -0.0479 -0.1983  0.6944
 7266SOL    HW122697   6.659   0.917   1.774  0.1536 -0.9505 -0.0434
 7266SOL    HW222698   6.790   0.946   1.681 -0.3609  4.0048  0.4787
 7267SOL     OW22699   5.709   2.285   1.179 -0.1688  0.1797  0.1546
 7267SOL    HW122700   5.658   2.360   1.136  1.3527  0.8184 -0.5737
 7267SOL    HW222701   5.721   2.210   1.114  2.8715  1.4893 -0.9505
 7268SOL     OW22702   0.134   2.644   6.024  0.1628 -0.1452 -0.1365
 7268SOL    HW122703   0.108   2.613   6.116 -1.7012  0.0278 -0.5704
 7268SOL    HW222704   0.214   2.704   6.031  0.4072 -0.5965  1.3033
 7269SOL     OW22705   0.090   1.551   0.454 -0.4692 -0.5523 -0.2715
 7269SOL    HW122706   0.015   1.579   0.513  0.2966  0.2203  0.3592
 7269SOL    HW222707   0.057   1.485   0.386 -1.5722 -0.6840  0.3816
 7270SOL     OW22708   3.057   2.206   3.777 -0.3207  0.0436 -0.0299
 7270SOL    HW122709   3.037   2.184   3.681 -1.2325  0.4481  0.0653
 7270SOL    HW222710   3.105   2.128   3.819 -0.6069 -0.4511 -0.5943
 7271SOL     OW22711   3.812   6.866   2.389  0.1172  0.6332 -0.2148
 7271SOL    HW122712   3.749   6.930   2.345  0.5844  1.4500  0.2887
 7271SOL    HW222713   3.899   6.912   2.407  0.5777 -0.2433 -0.1464
 7272SOL     OW22714   6.534   1.292   3.311 -0.1506 -0.2546  0.0569
 7272SOL    HW122715   6.485   1.242   3.383 -1.8128  1.7593  0.4373
 7272SOL    HW222716   6.590   1.363   3.352 -0.3225  0.2622 -0.5871
 7273SOL     OW22717   6.002   5.942   6.597  0.3296 -0.3901  0.6556
 7273SOL    HW122718   6.069   6.013   6.577 -0.1171 -0.4143 -1.0537
 7273SOL    HW222719   6.038   5.883   6.669  1.5881  0.3520  0.6770
 7274SOL     OW22720   3.427   0.203   3.114 -0.1683 -0.8060  0.1583
 7274SOL    HW122721   3.481   0.280   3.081  0.9401 -1.1631  1.0756
 7274SOL    HW222722   3.472   0.117   3.090 -0.5807 -1.1253  0.5061
 7275SOL     OW22723   3.416   1.119   5.965  0.2817 -0.3784  0.1368
 7275SOL    HW122724   3.330   1.080   5.932 -0.0125  0.5072 -0.1814
 7275SOL    HW222725   3.440   1.198   5.909  1.7976 -1.1747 -0.3709
 7276SOL     OW22726   1.607   2.737   2.530  0.1876  0.5214  0.0353
 7276SOL    HW122727   1.657   2.820   2.555  1.9593 -0.5821  0.3550
 7276SOL    HW222728   1.626   2.714   2.435  0.0687  0.2565  0.0749
 7277SOL     OW22729   3.608   1.486   4.017  0.4086 -0.6597 -0.0282
 7277SOL    HW122730   3.540   1.490   3.944 -1.0700 -0.5566  1.2952
 7277SOL    HW222731   3.673   1.561   4.008 -0.6433  0.2173 -0.4003
 7278SOL     OW22732   6.236   1.503   2.026 -0.0590 -0.1721  0.1498
 7278SOL    HW122733   6.204   1.560   2.102 -0.5936 -0.1911 -0.0572
 7278SOL    HW222734   6.298   1.433   2.061  0.8612  0.7275  0.3637
 7279SOL     OW22735   2.488   6.737   2.908  0.4768  0.3226  0.0251
 7279SOL    HW122736   2.582   6.719   2.935  1.1029  0.6751 -1.7711
 7279SOL    HW222737   2.434   6.761   2.989  1.7585 -0.5024  1.1680
 7280SOL     OW22738   1.627   0.953   3.355  0.2077 -0.2402 -0.1009
 7280SOL    HW122739   1.586   1.043   3.370  0.6729 -0.2655  1.5960
 7280SOL    HW222740   1.698   0.937   3.423 -0.7924 -2.4227  0.5390
 7281SOL     OW22741   4.843   1.927   3.831 -0.2097  0.3470  0.1908
 7281SOL    HW122742   4.867   1.989   3.906  1.4434  0.3700 -0.3217
 7281SOL    HW222743   4.786   1.976   3.764 -0.9142  0.5911  0.9554
 7282SOL     OW22744   4.105   5.797   0.388 -0.0658 -0.0297 -0.3576
 7282SOL    HW122745   4.147   5.708   0.407  0.9446  0.9822  2.7710
 7282SOL    HW222746   4.011   5.797   0.421 -0.5917 -0.3596 -1.7746
 7283SOL     OW22747   2.549   0.069   1.899 -0.3941  0.2942  0.4283
 7283SOL    HW122748   2.467   0.019   1.870 -1.5663  1.3353  1.7775
 7283SOL    HW222749   2.630   0.028   1.857 -1.5963 -0.7257 -1.0182
 7284SOL     OW22750   4.916   6.773   0.396  0.1407 -0.3899  0.0190
 7284SOL    HW122751   4.864   6.694   0.366  0.9444 -0.7296 -0.5269
 7284SOL    HW222752   4.855   6.840   0.437 -0.5589 -1.2786  0.4652
 7285SOL     OW22753   2.125   3.958   2.232  0.3576 -0.0034 -0.4748
 7285SOL    HW122754   2.140   3.894   2.157 -0.6872 -0.3589 -0.3884
 7285SOL    HW222755   2.132   3.909   2.319  0.9823  0.2911 -0.3559
 7286SOL     OW22756   2.357   0.883   5.925 -0.5874 -0.3126  0.5349
 7286SOL    HW122757   2.301   0.871   6.007 -1.9789  2.6721  0.1612
 7286SOL    HW222758   2.303   0.857   5.845 -0.9167  1.0817  0.2857
 7287SOL     OW22759   4.114   2.755   1.730 -0.1413  0.0249 -0.1476
 7287SOL    HW122760   4.171   2.810   1.669 -0.7205  0.6086 -0.1693
 7287SOL    HW222761   4.131   2.658   1.712 -0.9020  0.1590 -1.8395
 7288SOL     OW22762   5.294   2.844   6.982  0.2171 -0.0621  0.0128
 7288SOL    HW122763   5.196   2.832   6.995 -0.3137  2.2938 -1.2476
 7288SOL    HW222764   5.340   2.840   7.070 -1.2732  0.6260  0.8658
 7289SOL     OW22765   1.031   2.629   6.483 -0.7120 -0.6799 -0.2058
 7289SOL    HW122766   1.075   2.631   6.572 -0.4265  1.8175 -0.3213
 7289SOL    HW222767   0.932   2.634   6.495 -0.6631 -0.0893 -0.0193
 7290SOL     OW22768   1.764   5.858   2.758  0.6290 -0.0602 -0.2312
 7290SOL    HW122769   1.772   5.950   2.720 -0.1594 -0.1946 -0.7469
 7290SOL    HW222770   1.672   5.845   2.795  0.7480 -0.6305 -0.1232
 7291SOL     OW22771   1.436   0.086   2.834  0.0582  0.1026  0.2127
 7291SOL    HW122772   1.409   0.170   2.787 -0.4213 -0.6549 -0.9396
 7291SOL    HW222773   1.531   0.092   2.863 -0.6913  2.0545  2.5325
 7292SOL     OW22774   1.891   2.334   1.774  0.1042  0.2679 -0.0606
 7292SOL    HW122775   1.930   2.386   1.698  2.5095  0.2938  1.0934
 7292SOL    HW222776   1.850   2.250   1.740 -1.4073  1.5913 -1.6554
 7293SOL     OW22777   1.539   3.638   5.137 -0.6174  1.1433 -0.5239
 7293SOL    HW122778   1.620   3.696   5.149  0.0396 -0.1532  1.9224
 7293SOL    HW222779   1.568   3.547   5.107 -1.1075  0.6262  0.5190
 7294SOL     OW22780   6.583   2.796   4.267 -0.4952  0.4296 -0.2221
 7294SOL    HW122781   6.606   2.892   4.280 -1.6600  1.1711 -2.8333
 7294SOL    HW222782   6.602   2.770   4.172 -2.7230 -1.1007 -0.3334
 7295SOL     OW22783   2.151   1.397   5.512  0.5509  0.0630  0.9683
 7295SOL    HW122784   2.064   1.350   5.496  0.6748 -0.3460  1.4556
 7295SOL    HW222785   2.223   1.353   5.458  1.1444 -1.8779  3.1723
 7296SOL     OW22786   2.870   5.741   5.500  0.2591  0.0080  0.5094
 7296SOL    HW122787   2.800   5.727   5.571 -0.5810  1.4200 -0.0129
 7296SOL    HW222788   2.848   5.685   5.420  0.5046 -0.6036  0.8611
 7297SOL     OW22789   0.941   3.934   6.349 -0.7361 -0.1025 -0.1780
 7297SOL    HW122790   1.022   3.908   6.402  1.1582  1.9955 -1.8440
 7297SOL    HW222791   0.933   3.876   6.269  1.5216  1.9851 -2.0865
 7298SOL     OW22792   2.841   0.210   2.435  0.4862 -0.5024  0.4520
 7298SOL    HW122793   2.802   0.285   2.488  0.4331 -1.5218  1.8941
 7298SOL    HW222794   2.789   0.126   2.452  0.9498 -1.0285 -0.6254
 7299SOL     OW22795   4.968   2.533   6.451 -0.7301  0.5565 -0.4340
 7299SOL    HW122796   4.962   2.624   6.409 -0.1390  1.1426  0.7003
 7299SOL    HW222797   4.877   2.494   6.460 -1.0649  1.3452 -0.3171
 7300SOL     OW22798   4.957   1.198   5.350  0.1772 -0.0089  0.6683
 7300SOL    HW122799   4.897   1.238   5.281 -0.1152 -0.4624  0.6557
 7300SOL    HW222800   4.926   1.225   5.441  0.6482  0.7085  0.6300
 7301SOL     OW22801   4.732   0.194   2.889 -0.6637 -0.1001  0.0047
 7301SOL    HW122802   4.759   0.131   2.816 -1.8719  0.5883 -1.1091
 7301SOL    HW222803   4.682   0.144   2.960  1.2592 -0.9275  0.8341
 7302SOL     OW22804   1.114   0.764   3.218  0.6227 -0.1233  0.0303
 7302SOL    HW122805   1.018   0.738   3.212  0.6461 -0.1710 -0.1447
 7302SOL    HW222806   1.145   0.800   3.130  0.5259  0.7252  0.3375
 7303SOL     OW22807   3.157   5.418   4.125  0.1308 -0.3289  0.3236
 7303SOL    HW122808   3.060   5.439   4.137 -0.2169 -2.0960  0.7415
 7303SOL    HW222809   3.179   5.331   4.168  1.6753 -0.4849 -0.6808
 7304SOL     OW22810   6.674   4.793   6.392 -0.7374  0.4071 -0.3111
 7304SOL    HW122811   6.598   4.768   6.332 -1.7479  0.7682  0.7763
 7304SOL    HW222812   6.758   4.750   6.359 -1.6602 -1.1157 -0.7833
 7305SOL     OW22813   2.457   2.569   2.639 -0.5438  0.2672 -0.1722
 7305SOL    HW122814   2.502   2.487   2.675 -0.9204  0.1354 -0.0041
 7305SOL    HW222815   2.396   2.544   2.564 -1.1239  0.3110  0.2796
 7306SOL     OW22816   5.403   6.031   3.833 -0.5738  0.4364 -0.1153
 7306SOL    HW122817   5.364   5.973   3.904 -1.0099  1.4155  0.4649
 7306SOL    HW222818   5.492   5.995   3.805 -0.7091 -0.3402  0.4303
 7307SOL     OW22819   2.239   6.274   1.312  0.6977 -0.3909 -0.2259
 7307SOL    HW122820   2.169   6.292   1.382  1.5900  0.2464  0.5298
 7307SOL    HW222821   2.245   6.176   1.296  1.4145 -0.6968  1.6198
 7308SOL     OW22822   4.193   5.332   0.160 -0.1077 -0.1273 -0.2425
 7308SOL    HW122823   4.132   5.306   0.235  0.4831 -0.3157  0.1828
 7308SOL    HW222824   4.283   5.354   0.197  0.7104 -1.9340 -1.0753
 7309SOL     OW22825   5.977   2.766   0.870  0.5023  0.0107  0.0297
 7309SOL    HW122826   5.961   2.701   0.795  0.8554  0.9757 -0.9042
 7309SOL    HW222827   5.890   2.797   0.906  0.3001  0.5363 -0.8789
 7310SOL     OW22828   6.871   3.116   6.946  0.1561  0.5846  0.2416
 7310SOL    HW122829   6.852   3.179   6.871  0.0389  0.3053  0.0355
 7310SOL    HW222830   6.938   3.047   6.916  0.1349  0.4929  0.4023
 7311SOL     OW22831   5.924   5.142   0.017  0.2959  0.4839 -0.1558
 7311SOL    HW122832   5.825   5.159   0.022 -0.0144 -1.2993  0.5215
 7311SOL    HW222833   5.951   5.131  -0.079  0.0498  1.9621 -0.4203
 7312SOL     OW22834   3.595   4.731   0.259 -0.1029  0.3593  0.0159
 7312SOL    HW122835   3.626   4.655   0.316 -1.1446  0.8560  1.2854
 7312SOL    HW222836   3.547   4.694   0.179 -0.0684 -0.3316  0.3075
 7313SOL     OW22837   3.526   0.804   0.805  0.2165 -0.4783 -0.3436
 7313SOL    HW122838   3.533   0.904   0.800  0.9446 -0.2354  3.1274
 7313SOL    HW222839   3.432   0.779   0.828  0.1952 -0.5691 -0.5242
 7314SOL     OW22840   2.234   0.878   6.678  0.1713  0.4165 -0.1536
 7314SOL    HW122841   2.149   0.826   6.667 -0.2625  0.6390  1.7835
 7314SOL    HW222842   2.216   0.975   6.663  0.7339  0.2014 -2.5904
 7315SOL     OW22843   0.396   6.206   2.673 -0.4465 -0.0684 -0.2870
 7315SOL    HW122844   0.334   6.284   2.672 -1.5354 -0.8941  0.3805
 7315SOL    HW222845   0.474   6.226   2.733  0.0533  1.0429 -1.2638
 7316SOL     OW22846   4.589   1.916   2.233 -0.1197 -0.3080 -0.2788
 7316SOL    HW122847   4.639   1.831   2.216 -0.7133 -0.2649 -2.4158
 7316SOL    HW222848   4.500   1.913   2.189 -1.6438  0.0904  2.5191
 7317SOL     OW22849   0.125   1.848   3.760  0.3228 -0.1610 -0.0580
 7317SOL    HW122850   0.216   1.825   3.794  0.3514  0.7384  0.5362
 7317SOL    HW222851   0.104   1.943   3.786 -2.3267 -1.4524  3.2712
 7318SOL     OW22852   6.788   0.491   5.260 -0.1623  0.1593  0.2154
 7318SOL    HW122853   6.880   0.529   5.275  1.0828 -1.6701 -2.1436
 7318SOL    HW222854   6.777   0.408   5.315 -0.2508  0.1636  0.2039
 7319SOL     OW22855   2.968   1.082   5.780  0.5593  0.2498 -0.4301
 7319SOL    HW122856   2.935   1.163   5.828  0.3047 -0.6480  0.9675
 7319SOL    HW222857   2.900   1.009   5.788  1.1914 -0.3982 -0.8546
 7320SOL     OW22858   5.858   3.045   5.150  0.6929 -0.3507 -0.1921
 7320SOL    HW122859   5.790   3.118   5.154 -0.7918 -1.4977 -2.3711
 7320SOL    HW222860   5.948   3.082   5.173 -0.2402  1.7821  0.2840
 7321SOL     OW22861   2.070   2.371   2.566  0.7186 -0.3922  0.1806
 7321SOL    HW122862   2.099   2.466   2.568  0.1877 -0.2414  1.7654
 7321SOL    HW222863   2.058   2.341   2.471  2.9383  0.4740 -0.4338
 7322SOL     OW22864   1.466   6.080   0.655  0.2884 -0.4836  0.3237
 7322SOL    HW122865   1.516   6.166   0.646 -0.0225 -0.2846  0.4877
 7322SOL    HW222866   1.527   6.010   0.693  0.1745  0.0153  1.4617
 7323SOL     OW22867   2.608   2.013   1.010  0.2870  0.0854  0.4785
 7323SOL    HW122868   2.657   2.040   0.927  1.2616  1.1430  1.3646
 7323SOL    HW222869   2.637   1.922   1.039  1.8473  0.7348  1.0436
 7324SOL     OW22870   4.991   6.375   6.079 -0.5731 -0.1953  0.0703
 7324SOL    HW122871   5.090   6.378   6.096 -0.6714  0.4384  0.6016
 7324SOL    HW222872   4.972   6.315   6.002  0.1710 -0.8135  0.3612
 7325SOL     OW22873   6.191   3.539   0.030  0.4911 -0.4436 -0.6298
 7325SOL    HW122874   6.290   3.522   0.025  0.5283 -0.1949 -0.7241
 7325SOL    HW222875   6.164   3.603  -0.042  1.1726  3.9861  2.6241
 7326SOL     OW22876   1.698   1.430   3.878 -0.3954 -0.0892 -0.5276
 7326SOL    HW122877   1.713   1.347   3.932 -1.7454 -1.0789 -1.6111
 7326SOL    HW222878   1.751   1.506   3.917 -0.6849 -0.9636  1.6453
 7327SOL     OW22879   4.867   3.759   1.965 -0.2387  0.3067  0.3711
 7327SOL    HW122880   4.952   3.808   1.983  0.6644 -0.8927 -0.4743
 7327SOL    HW222881   4.818   3.803   1.890  0.6145 -0.0955 -0.4464
 7328SOL     OW22882   2.164   3.292   2.792  0.0190  0.0354  0.3611
 7328SOL    HW122883   2.144   3.341   2.707  0.4327 -0.2035  0.1223
 7328SOL    HW222884   2.180   3.357   2.865  1.0478  0.2842 -0.0620
 7329SOL     OW22885   5.013   1.985   4.691  0.3988  0.3309  0.4252
 7329SOL    HW122886   5.034   1.958   4.785  2.0279  1.1908  0.3360
 7329SOL    HW222887   4.966   1.910   4.645  0.8642 -0.6571  1.5094
 7330SOL     OW22888   1.081   3.778   4.756 -0.1314  0.3434 -0.5351
 7330SOL    HW122889   1.087   3.760   4.658 -1.8832 -1.0060 -0.4593
 7330SOL    HW222890   1.049   3.871   4.772 -1.0359  0.1837 -1.3138
 7331SOL     OW22891   4.609   0.423   1.338  0.1949 -0.2133  0.1322
 7331SOL    HW122892   4.522   0.386   1.304 -0.2946 -0.1105  1.2289
 7331SOL    HW222893   4.661   0.462   1.262 -1.6151  1.5603 -0.2647
 7332SOL     OW22894   5.238   4.915   6.361  0.1347 -0.0546 -0.1016
 7332SOL    HW122895   5.284   5.001   6.383  0.4705 -0.0965 -0.6285
 7332SOL    HW222896   5.284   4.871   6.284  0.2214 -0.9138  0.4289
 7333SOL     OW22897   0.772   2.681   0.198  0.3421  0.0943 -0.2339
 7333SOL    HW122898   0.674   2.661   0.188  0.7966 -2.2465 -0.5025
 7333SOL    HW222899   0.811   2.703   0.109 -0.0933  2.0978  0.0170
 7334SOL     OW22900   5.610   3.820   5.847 -0.1756 -0.3374 -0.3566
 7334SOL    HW122901   5.605   3.859   5.755  0.8757 -0.9713 -0.7010
 7334SOL    HW222902   5.620   3.893   5.914  0.0593  0.0782 -0.8433
 7335SOL     OW22903   5.526   2.123   0.874 -0.5762  0.3745 -0.1579
 7335SOL    HW122904   5.605   2.086   0.923  1.5611  1.6803 -2.3794
 7335SOL    HW222905   5.471   2.179   0.936  0.4496 -0.2295  1.3531
 7336SOL     OW22906   0.651   0.311   1.538  0.0946  0.1141 -0.0741
 7336SOL    HW122907   0.721   0.354   1.480 -0.1711  0.6144 -0.0331
 7336SOL    HW222908   0.569   0.293   1.484  0.8250 -2.0511 -0.5523
 7337SOL     OW22909   6.090   1.505   1.794  0.5551 -0.2306 -0.5733
 7337SOL    HW122910   6.097   1.409   1.767  0.4088 -0.3650 -0.1438
 7337SOL    HW222911   6.138   1.519   1.880 -0.3355 -0.1516 -0.0731
 7338SOL     OW22912   4.473   0.439   3.578  0.0859 -0.1977  0.0806
 7338SOL    HW122913   4.396   0.388   3.615 -0.0097  1.7399  2.9058
 7338SOL    HW222914   4.440   0.519   3.529  0.2814 -0.5606 -0.6474
 7339SOL     OW22915   5.564   2.545   2.577  0.2869  0.1222 -0.0320
 7339SOL    HW122916   5.547   2.638   2.608  0.2176 -0.0970  0.6065
 7339SOL    HW222917   5.527   2.533   2.485  0.5497  0.8052 -0.2308
 7340SOL     OW22918   6.809   2.147   0.846  0.2832  0.7267  0.0581
 7340SOL    HW122919   6.872   2.147   0.768 -0.6827  1.6641 -0.7617
 7340SOL    HW222920   6.852   2.195   0.923  1.2168 -0.1349  0.0888
 7341SOL     OW22921   1.932   3.547   3.373 -0.0794  0.1129  0.2954
 7341SOL    HW122922   1.894   3.464   3.332 -0.2964  0.8078 -0.9606
 7341SOL    HW222923   1.955   3.613   3.301  3.1506 -0.0905  0.9923
 7342SOL     OW22924   6.938   6.577   1.088  0.4335 -0.1934 -0.6612
 7342SOL    HW122925   6.911   6.637   1.163  2.7205  0.3107 -0.1459
 7342SOL    HW222926   7.037   6.584   1.075  0.6391 -3.0747 -1.2744
 7343SOL     OW22927   1.054   4.281   4.987 -0.1938  0.2559  0.4211
 7343SOL    HW122928   1.089   4.326   4.904  2.1079 -1.1307  0.5492
 7343SOL    HW222929   0.967   4.323   5.013  0.3057  2.5148 -1.1783
 7344SOL     OW22930   1.506   3.218   4.161 -0.5317 -0.6507  0.4428
 7344SOL    HW122931   1.553   3.255   4.241 -1.2376 -1.0031  1.0296
 7344SOL    HW222932   1.569   3.216   4.083  0.3548 -0.9251  1.1568
 7345SOL     OW22933   3.374   6.684   5.370  0.1353 -0.0065  0.0065
 7345SOL    HW122934   3.368   6.703   5.272 -1.7213  1.7266  0.3695
 7345SOL    HW222935   3.323   6.601   5.390  0.3507 -0.2603 -0.4839
 7346SOL     OW22936   2.748   5.825   6.337  0.7820 -0.7338 -0.9926
 7346SOL    HW122937   2.759   5.888   6.414 -1.3756  1.5161 -2.3773
 7346SOL    HW222938   2.712   5.738   6.371 -0.7215  0.4045  0.5006
 7347SOL     OW22939   5.905   1.748   6.741 -0.7579  0.4089 -0.0843
 7347SOL    HW122940   5.868   1.732   6.650 -0.2955 -0.9928 -0.0412
 7347SOL    HW222941   5.833   1.734   6.809 -1.4226  2.5946 -0.2491
 7348SOL     OW22942   0.630   2.971   6.533 -0.0076 -0.4822 -0.8016
 7348SOL    HW122943   0.642   2.977   6.434 -1.2769  0.8486 -0.9198
 7348SOL    HW222944   0.538   2.937   6.553  0.0123 -0.1361 -0.0907
 7349SOL     OW22945   0.351   1.566   4.266  0.2819  0.4193  0.3759
 7349SOL    HW122946   0.441   1.570   4.223 -0.5576  0.3231 -1.4992
 7349SOL    HW222947   0.320   1.471   4.270 -0.5228  0.6105 -0.7902
 7350SOL     OW22948   5.697   3.907   1.719 -0.0697 -0.1861 -0.2155
 7350SOL    HW122949   5.614   3.960   1.701  0.4654  0.7035 -0.1255
 7350SOL    HW222950   5.682   3.847   1.798 -1.3137 -1.6159 -1.4570
 7351SOL     OW22951   2.986   5.855   2.421 -0.2893  0.3445  0.3392
 7351SOL    HW122952   2.898   5.825   2.385  0.1547 -1.7328  0.8563
 7351SOL    HW222953   3.060   5.818   2.364  0.3319 -0.8750  1.8584
 7352SOL     OW22954   2.474   0.246   4.578  0.1682 -0.0479 -0.1566
 7352SOL    HW122955   2.491   0.217   4.672  0.3869  1.5047  0.3199
 7352SOL    HW222956   2.542   0.315   4.553 -1.2865  1.2597 -0.6290
 7353SOL     OW22957   0.465   0.080   0.618 -0.4234 -0.9138 -0.3857
 7353SOL    HW122958   0.417   0.112   0.700 -0.1072  0.0249 -0.5458
 7353SOL    HW222959   0.547   0.136   0.604 -0.4327 -1.1088 -1.2963
 7354SOL     OW22960   2.916   6.430   6.917 -0.1163 -0.0188 -0.2225
 7354SOL    HW122961   2.850   6.357   6.899  0.4381 -0.5057 -0.3039
 7354SOL    HW222962   3.006   6.403   6.883  0.0102  0.8806 -0.6290
 7355SOL     OW22963   4.675   1.488   2.613 -0.1840  0.2858  0.6603
 7355SOL    HW122964   4.581   1.474   2.582 -0.3416 -0.6863  1.5264
 7355SOL    HW222965   4.717   1.561   2.559 -0.4065 -1.3404 -1.8988
 7356SOL     OW22966   4.449   5.452   1.347 -0.0555 -0.4599  0.9849
 7356SOL    HW122967   4.388   5.529   1.335 -0.7313 -1.2870 -1.3312
 7356SOL    HW222968   4.471   5.411   1.258  0.6989 -2.6030  2.0642
 7357SOL     OW22969   3.820   2.634   0.833  0.2772  0.0881 -0.2671
 7357SOL    HW122970   3.740   2.583   0.865 -0.2177  0.2433 -1.2297
 7357SOL    HW222971   3.893   2.625   0.900  0.1742 -1.8004 -0.3355
 7358SOL     OW22972   2.103   0.694   1.988  0.0414 -0.3016 -0.3575
 7358SOL    HW122973   2.147   0.678   1.899  0.4544 -0.3056 -0.1527
 7358SOL    HW222974   2.065   0.787   1.990  0.6387 -0.0543 -0.2868
 7359SOL     OW22975   0.677   0.075   6.515 -0.1157 -0.1776  0.4581
 7359SOL    HW122976   0.636   0.023   6.440  0.4558  0.5495 -0.3823
 7359SOL    HW222977   0.619   0.154   6.536  2.0207  2.4394 -2.5913
 7360SOL     OW22978   2.291   3.913   1.018  0.1030 -0.2233 -0.5153
 7360SOL    HW122979   2.225   3.896   1.092  1.4483 -1.5585  0.4404
 7360SOL    HW222980   2.333   4.003   1.032  2.6185 -1.6550  2.2963
 7361SOL     OW22981   1.140   3.400   5.248 -0.0443  0.1474  0.3549
 7361SOL    HW122982   1.206   3.450   5.304  0.2409 -0.4463  0.5557
 7361SOL    HW222983   1.057   3.383   5.301 -0.4445  1.0473  0.0463
 7362SOL     OW22984   0.531   5.926   0.554  0.5915  0.3185  0.7921
 7362SOL    HW122985   0.595   5.963   0.621  1.0663  0.1629  0.4297
 7362SOL    HW222986   0.563   5.836   0.523  1.4444  1.2216 -1.0973
 7363SOL     OW22987   3.481   4.899   2.564  0.2015 -0.6879  0.2415
 7363SOL    HW122988   3.416   4.903   2.488  1.9258 -1.2930 -1.3319
 7363SOL    HW222989   3.442   4.842   2.637 -1.3027 -0.4846 -0.3625
 7364SOL     OW22990   5.119   0.657   3.834 -0.2236 -0.3319 -0.2856
 7364SOL    HW122991   5.166   0.578   3.873 -1.0415 -0.7340 -0.0857
 7364SOL    HW222992   5.099   0.641   3.738  0.2309 -0.0736 -0.4246
 7365SOL     OW22993   0.263   5.545   1.220 -0.1435 -0.1383  0.2814
 7365SOL    HW122994   0.176   5.544   1.169  0.5390 -0.9585 -0.9143
 7365SOL    HW222995   0.268   5.464   1.278 -0.1494 -0.1344  0.2875
 7366SOL     OW22996   3.630   1.088   4.177  0.0371  0.5836 -0.8879
 7366SOL    HW122997   3.712   1.144   4.188  0.0557  0.4719 -0.4038
 7366SOL    HW222998   3.643   1.023   4.103  2.0611 -2.2781  1.7101
 7367SOL     OW22999   3.495   3.292   5.667 -0.8138  0.0241 -0.3585
 7367SOL    HW123000   3.416   3.266   5.612 -1.1408 -1.8127  0.9173
 7367SOL    HW223001   3.510   3.391   5.658 -1.6622  0.0026 -2.6230
 7368SOL     OW23002   1.123   2.886   0.742  0.3501 -0.2822 -0.1590
 7368SOL    HW123003   1.210   2.932   0.724  0.5235 -1.1703 -1.7458
 7368SOL    HW223004   1.050   2.954   0.747  1.0601  0.4367  0.8433
 7369SOL     OW23005   5.917   0.822   3.307  0.0818 -0.1280 -0.2672
 7369SOL    HW123006   5.979   0.893   3.273 -1.1716  1.6584  0.9469
 7369SOL    HW223007   5.968   0.760   3.367  1.3769 -0.7734 -1.9659
 7370SOL     OW23008   5.717   2.908   0.144  0.2385  0.0419 -0.2000
 7370SOL    HW123009   5.675   2.964   0.216 -0.9095  2.5887 -2.6349
 7370SOL    HW223010   5.797   2.955   0.108  2.4905 -2.5081  1.1130
 7371SOL     OW23011   6.787   3.486   2.395  0.1260 -0.9982 -0.5383
 7371SOL    HW123012   6.885   3.503   2.407  0.0481 -1.1446  0.4077
 7371SOL    HW223013   6.774   3.406   2.337  0.6207 -2.2585  1.0131
 7372SOL     OW23014   1.334   1.109   6.575 -0.2161 -0.2562  0.2156
 7372SOL    HW123015   1.403   1.181   6.582  0.2899 -0.8096  1.0132
 7372SOL    HW223016   1.321   1.065   6.664  0.3668 -1.9656 -0.5049
 7373SOL     OW23017   2.266   6.459   5.903  0.5671 -0.1890 -0.0916
 7373SOL    HW123018   2.198   6.518   5.860  1.5689  0.7718 -0.3962
 7373SOL    HW223019   2.256   6.465   6.003 -1.3710 -1.9709 -0.0981
 7374SOL     OW23020   1.066   4.750   3.799 -0.1648 -0.1407  0.4309
 7374SOL    HW123021   1.101   4.665   3.759 -0.8031  0.2619 -1.0626
 7374SOL    HW223022   0.974   4.767   3.764 -0.1975  0.9562  1.0261
 7375SOL     OW23023   5.220   0.586   0.667 -0.1752  0.0608  0.3409
 7375SOL    HW123024   5.239   0.634   0.752 -0.8160 -0.4220  0.7645
 7375SOL    HW223025   5.229   0.487   0.682 -3.4265 -0.2803  0.7345
 7376SOL     OW23026   0.588   2.381   3.565 -0.0779 -0.1405 -0.0312
 7376SOL    HW123027   0.663   2.441   3.535 -0.3190 -0.0177 -0.3966
 7376SOL    HW223028   0.626   2.294   3.595  0.0637 -1.1307 -2.7769
 7377SOL     OW23029   4.945   3.452   6.198 -0.3652  0.2694  0.1490
 7377SOL    HW123030   4.996   3.505   6.267 -0.1658  1.7328 -1.0664
 7377SOL    HW223031   4.848   3.450   6.223 -0.1852  0.0985  0.8758
 7378SOL     OW23032   4.602   4.427   2.474 -0.7682 -0.2711 -0.0342
 7378SOL    HW123033   4.579   4.505   2.415 -2.8652  0.1022  1.1649
 7378SOL    HW223034   4.616   4.346   2.418  1.1891  0.8610 -1.2924
 7379SOL     OW23035   4.905   2.772   1.537 -0.3696  0.0754 -0.2479
 7379SOL    HW123036   4.868   2.804   1.624  0.0326 -0.4520  0.1169
 7379SOL    HW223037   4.832   2.770   1.468 -0.4493  1.6384 -0.2524
 7380SOL     OW23038   6.953   1.198   0.090  0.3750  0.1700  0.0068
 7380SOL    HW123039   7.004   1.210   0.005 -0.5038 -0.2924 -0.5982
 7380SOL    HW223040   6.898   1.115   0.085  1.0584 -0.4170  1.4225
 7381SOL     OW23041   3.427   6.936   2.816 -0.2222  0.0438  0.0677
 7381SOL    HW123042   3.517   6.955   2.854  0.7752 -0.3969 -1.9410
 7381SOL    HW223043   3.376   7.021   2.807  0.1233  0.3468  0.8627
 7382SOL     OW23044   7.011   6.070   5.916 -0.0580  0.5072  0.7241
 7382SOL    HW123045   7.086   6.098   5.856 -1.0604  0.5738 -0.5467
 7382SOL    HW223046   6.934   6.039   5.861  0.0154 -2.2425  2.0349
 7383SOL     OW23047   2.211   5.661   1.302  0.1453  0.5082 -0.4118
 7383SOL    HW123048   2.211   5.608   1.218 -1.6387 -0.8027  0.3368
 7383SOL    HW223049   2.143   5.623   1.365 -1.4468  3.8207  0.0902
 7384SOL     OW23050   3.396   2.063   2.378 -0.0183  0.5951 -0.4975
 7384SOL    HW123051   3.386   2.042   2.281  0.6554 -0.7116 -0.3117
 7384SOL    HW223052   3.326   2.013   2.430 -0.6219  1.5885 -0.3272
 7385SOL     OW23053   5.231   5.382   4.858 -0.4464 -1.2638  0.1684
 7385SOL    HW123054   5.263   5.450   4.792 -2.2542 -0.0965  0.4130
 7385SOL    HW223055   5.262   5.407   4.950 -0.4771 -1.1809  0.1562
 7386SOL     OW23056   4.966   0.499   4.695  0.3299  0.0579 -0.5016
 7386SOL    HW123057   4.926   0.409   4.715  4.0129 -1.5529  0.3484
 7386SOL    HW223058   5.013   0.496   4.608  0.8559  1.0482 -0.2659
 7387SOL     OW23059   5.160   6.250   4.668  0.1536  0.2939 -0.0669
 7387SOL    HW123060   5.167   6.214   4.575 -1.7812  2.6304 -1.2318
 7387SOL    HW223061   5.232   6.319   4.682  1.0102 -0.7017  0.5253
 7388SOL     OW23062   1.181   0.050   6.624 -0.4407 -0.4596  0.2385
 7388SOL    HW123063   1.157   0.018   6.715 -1.2048 -0.9358 -0.1218
 7388SOL    HW223064   1.246  -0.013   6.581 -0.4371 -0.4826  0.2785
 7389SOL     OW23065   6.764   5.282   3.896  0.0265 -0.1013  0.0411
 7389SOL    HW123066   6.670   5.269   3.865 -1.0393  2.4501  1.8558
 7389SOL    HW223067   6.795   5.199   3.943 -2.0203 -0.3819  1.0097
 7390SOL     OW23068   5.372   5.479   6.153  0.1451 -0.1721 -0.1785
 7390SOL    HW123069   5.381   5.383   6.181  0.4356  0.3241  1.5347
 7390SOL    HW223070   5.458   5.509   6.111  0.2104 -0.5216 -0.3039
 7391SOL     OW23071   3.546   0.808   6.266 -0.7952  0.4213  0.3633
 7391SOL    HW123072   3.604   0.836   6.343 -1.0512  2.9144 -0.2490
 7391SOL    HW223073   3.492   0.728   6.292  0.2990  0.2181  2.1921
 7392SOL     OW23074   5.998   1.369   3.838  0.4720  0.8288 -0.4367
 7392SOL    HW123075   5.971   1.444   3.898  0.0888 -1.9343  3.1496
 7392SOL    HW223076   6.072   1.317   3.881  1.2659 -0.4951 -3.1579
 7393SOL     OW23077   2.042   6.992   3.919 -0.5107 -0.9160 -0.0929
 7393SOL    HW123078   2.002   7.037   3.999 -1.2876 -0.1305 -0.8922
 7393SOL    HW223079   2.141   6.987   3.929 -0.3761  1.0690  0.0191
 7394SOL     OW23080   5.521   3.665   6.371 -0.0762  0.0880 -0.0198
 7394SOL    HW123081   5.476   3.576   6.360 -0.7688 -0.2428  3.9527
 7394SOL    HW223082   5.452   3.736   6.385  0.5029  0.4553  1.1478
 7395SOL     OW23083   4.897   0.191   6.691  0.0279 -0.2910 -0.0448
 7395SOL    HW123084   4.914   0.229   6.600 -2.7464 -0.1036 -0.5925
 7395SOL    HW223085   4.871   0.265   6.754 -0.2089 -0.6586  0.2970
 7396SOL     OW23086   5.731   0.497   0.996  0.1777  0.2211 -0.5503
 7396SOL    HW123087   5.660   0.532   0.935  0.4381  1.0251 -0.4063
 7396SOL    HW223088   5.725   0.543   1.084  0.7511  0.1488 -0.4690
 7397SOL     OW23089   2.681   5.061   2.986 -0.3426  0.3720 -0.5525
 7397SOL    HW123090   2.755   5.105   3.037  0.3927 -0.3338 -0.9847
 7397SOL    HW223091   2.690   5.084   2.889 -1.1487  0.8960 -0.5128
 7398SOL     OW23092   2.498   1.694   3.504 -0.5307 -0.1791  0.2796
 7398SOL    HW123093   2.505   1.792   3.486 -0.1593 -0.0739  0.9607
 7398SOL    HW223094   2.476   1.646   3.419  1.0829  0.2954 -0.4516
 7399SOL     OW23095   5.712   3.312   1.051 -0.1733 -0.4004 -0.1902
 7399SOL    HW123096   5.685   3.277   1.140 -0.6082  0.1996 -0.0801
 7399SOL    HW223097   5.677   3.252   0.979 -0.3880 -0.5250  0.0174
 7400SOL     OW23098   4.498   2.439   2.104  0.2138  0.2385 -0.1904
 7400SOL    HW123099   4.426   2.371   2.124  0.3058 -0.0080 -0.6818
 7400SOL    HW223100   4.505   2.503   2.180 -0.6326  0.3538 -0.1936
 7401SOL     OW23101   4.430   2.052   5.019  0.3105  0.2218 -0.2024
 7401SOL    HW123102   4.410   1.978   5.084  0.7561  0.7122  0.5179
 7401SOL    HW223103   4.388   2.136   5.052 -2.8453 -0.2272 -2.5417
 7402SOL     OW23104   5.714   0.428   3.383 -0.4034 -0.2134  0.0272
 7402SOL    HW123105   5.626   0.383   3.364 -1.0972  1.3525 -0.6811
 7402SOL    HW223106   5.786   0.359   3.384 -1.5820 -1.5102  0.3432
 7403SOL     OW23107   5.807   4.690   4.637 -0.6568  0.4173 -0.3339
 7403SOL    HW123108   5.711   4.699   4.664 -0.5720  0.9864 -0.1956
 7403SOL    HW223109   5.817   4.718   4.542 -0.5137  1.0702 -0.1320
 7404SOL     OW23110   3.178   3.951   2.093  0.2137 -0.1462 -0.0253
 7404SOL    HW123111   3.098   3.929   2.038 -0.6115 -0.6635  1.3330
 7404SOL    HW223112   3.242   4.006   2.039 -1.3033  0.7672 -0.9631
 7405SOL     OW23113   3.548   4.141   6.989  0.5773  0.2322  0.2284
 7405SOL    HW123114   3.539   4.058   6.934  0.6223 -0.7662  1.6891
 7405SOL    HW223115   3.618   4.128   7.059  2.5177  2.4381 -1.1325
 7406SOL     OW23116   5.932   6.161   6.251  0.5646  0.8971 -0.1820
 7406SOL    HW123117   5.998   6.086   6.250 -0.3774  0.0416 -0.1138
 7406SOL    HW223118   5.869   6.152   6.173 -0.5894  0.6527  0.7479
 7407SOL     OW23119   5.603   0.376   0.760  0.1954  0.1211  0.5623
 7407SOL    HW123120   5.554   0.305   0.811 -2.1428  0.4781 -1.0438
 7407SOL    HW223121   5.557   0.464   0.771  1.4481  0.8262  0.3116
 7408SOL     OW23122   3.540   3.794   2.897  0.5729 -0.0457 -0.2103
 7408SOL    HW123123   3.555   3.702   2.934  0.9564  0.9623  2.3607
 7408SOL    HW223124   3.618   3.821   2.841  1.7966 -0.2635  1.3312
 7409SOL     OW23125   6.004   6.644   4.216 -0.0190 -1.0235  0.2102
 7409SOL    HW123126   6.035   6.738   4.231 -0.7175 -0.8612  0.7242
 7409SOL    HW223127   6.081   6.582   4.224  0.7075 -0.3934 -1.4399
 7410SOL     OW23128   0.075   5.192   6.438  0.5766  0.0990 -0.6532
 7410SOL    HW123129   0.075   5.253   6.359  0.7525 -2.3271 -2.6495
 7410SOL    HW223130   0.021   5.111   6.418  1.5136 -1.1018  1.3142
 7411SOL     OW23131   1.630   6.563   2.449  0.2558 -0.2255  0.5166
 7411SOL    HW123132   1.666   6.515   2.529  0.9190  0.1732  0.4653
 7411SOL    HW223133   1.557   6.625   2.478 -0.0817 -0.7020  0.6899
 7412SOL     OW23134   3.868   3.054   4.074  0.2511 -0.5745  0.0400
 7412SOL    HW123135   3.949   3.112   4.087 -0.2492  0.3021 -0.6741
 7412SOL    HW223136   3.864   2.987   4.148  0.2655  1.0035  1.5522
 7413SOL     OW23137   2.886   0.469   3.553 -0.1915  1.0267  0.5091
 7413SOL    HW123138   2.938   0.390   3.520  1.3226  1.6106  1.4440
 7413SOL    HW223139   2.912   0.550   3.501 -0.1894  1.3199  0.9685
 7414SOL     OW23140   5.115   0.271   0.606 -0.0813  0.4105  0.0092
 7414SOL    HW123141   5.035   0.311   0.561 -0.4543 -0.0027  0.2959
 7414SOL    HW223142   5.113   0.172   0.594 -1.4363  0.0052  2.8524
 7415SOL     OW23143   6.652   4.037   7.017  0.0900 -0.0803 -0.3483
 7415SOL    HW123144   6.579   4.074   7.074  2.0510 -0.1313  2.3984
 7415SOL    HW223145   6.697   3.962   7.065  1.6004 -0.4247 -2.1922
 7416SOL     OW23146   5.801   0.919   1.497 -0.0661 -0.3908 -0.1059
 7416SOL    HW123147   5.798   0.899   1.595 -1.2180 -0.6482 -0.1808
 7416SOL    HW223148   5.834   1.013   1.483  0.2706 -0.4108  0.5120
 7417SOL     OW23149   3.420   5.473   4.636  0.0043 -0.4722  0.3515
 7417SOL    HW123150   3.361   5.551   4.617  0.2964  0.0712  1.5555
 7417SOL    HW223151   3.507   5.484   4.588 -0.1645 -0.3261  0.0810
 7418SOL     OW23152   0.988   5.710   0.155  0.4017  0.0091 -0.0412
 7418SOL    HW123153   1.062   5.658   0.197 -0.6924 -1.2862  0.3464
 7418SOL    HW223154   0.980   5.684   0.059  0.6720  0.4224 -0.1794
 7419SOL     OW23155   2.054   1.801   2.362 -0.5763  0.7148  0.3546
 7419SOL    HW123156   2.134   1.758   2.404 -0.8590  1.5077  1.7516
 7419SOL    HW223157   1.972   1.749   2.384 -0.4802 -0.0724 -1.0394
 7420SOL     OW23158   2.201   0.807   2.230  0.1747  0.1159  0.7010
 7420SOL    HW123159   2.183   0.830   2.326 -0.1477  0.6120  0.5312
 7420SOL    HW223160   2.124   0.755   2.194 -1.0398  2.2610 -0.0340
 7421SOL     OW23161   6.331   0.114   2.366 -0.1187  0.2242 -0.0080
 7421SOL    HW123162   6.348   0.015   2.364  0.2778  0.2459  1.4135
 7421SOL    HW223163   6.235   0.130   2.391  0.2214  0.2012  1.3676
 7422SOL     OW23164   2.991   1.271   3.889  0.2656 -0.1813 -0.2395
 7422SOL    HW123165   2.901   1.302   3.919  0.6999  0.1372  0.7728
 7422SOL    HW223166   3.061   1.305   3.952  1.2565  0.7372 -1.7847
 7423SOL     OW23167   0.243   1.664   0.742  0.4746  0.4681 -0.2017
 7423SOL    HW123168   0.276   1.748   0.698  0.4673  0.4812 -0.1820
 7423SOL    HW223169   0.143   1.662   0.738  0.5028  0.1226 -0.8286
 7424SOL     OW23170   1.243   2.808   4.337  0.3566  0.7084  0.5115
 7424SOL    HW123171   1.228   2.727   4.280  1.0554 -0.7343  2.2818
 7424SOL    HW223172   1.191   2.885   4.299 -1.5401 -0.9250 -0.4314
 7425SOL     OW23173   2.496   1.090   1.024  0.2566  0.4676 -0.1064
 7425SOL    HW123174   2.491   1.174   1.079  0.8855  0.2161  0.3522
 7425SOL    HW223175   2.406   1.070   0.986  0.4508  2.3577 -1.7615
 7426SOL     OW23176   4.034   6.805   1.150  0.3552 -0.0812 -0.1459
 7426SOL    HW123177   4.092   6.826   1.228 -0.7209 -2.1744  1.3091
 7426SOL    HW223178   3.940   6.833   1.170  0.4414  1.4898 -1.6866
 7427SOL     OW23179   5.541   5.563   5.640  0.2398  0.3814 -0.0184
 7427SOL    HW123180   5.543   5.536   5.544  0.3565  0.4679 -0.0416
 7427SOL    HW223181   5.516   5.660   5.647 -1.2948  0.0015  0.1285
 7428SOL     OW23182   2.755   6.105   2.475 -0.6301  0.3503 -0.5541
 7428SOL    HW123183   2.799   6.017   2.490  0.0013  0.5094 -1.4311
 7428SOL    HW223184   2.672   6.092   2.421 -0.2668  0.3490 -1.1150
 7429SOL     OW23185   0.753   1.586   2.572  0.1434 -0.7119 -0.1353
 7429SOL    HW123186   0.765   1.680   2.604  0.8603 -0.0716 -2.1520
 7429SOL    HW223187   0.690   1.538   2.634  1.1682  0.5076  1.9749
 7430SOL     OW23188   5.892   5.054   3.692 -0.0490 -0.2342  0.1373
 7430SOL    HW123189   5.960   5.032   3.761  1.3717  2.3265 -0.3007
 7430SOL    HW223190   5.920   5.136   3.643 -3.1033  0.5134 -0.5935
 7431SOL     OW23191   6.784   2.127   6.624 -0.3040  0.6030 -0.4536
 7431SOL    HW123192   6.748   2.173   6.705 -0.0805 -0.7381  0.4406
 7431SOL    HW223193   6.884   2.134   6.624 -0.3501  1.3761 -1.1082
 7432SOL     OW23194   1.919   4.147   3.858  0.1795 -0.2101  0.4455
 7432SOL    HW123195   1.848   4.083   3.887 -0.2156  0.4420  0.9458
 7432SOL    HW223196   1.907   4.234   3.905  0.9989  0.0844  0.1367
 7433SOL     OW23197   1.497   4.127   5.834 -0.1992 -0.5297  0.5634
 7433SOL    HW123198   1.447   4.174   5.761 -0.3236 -1.1686  0.2342
 7433SOL    HW223199   1.544   4.047   5.797 -0.4368 -0.9862  1.2159
 7434SOL     OW23200   4.696   6.534   3.755  0.1153 -0.4681  0.2922
 7434SOL    HW123201   4.668   6.542   3.851 -2.3323  0.4347 -0.4256
 7434SOL    HW223202   4.749   6.615   3.728 -0.5571  0.0459  0.4848
 7435SOL     OW23203   3.104   1.586   2.016  0.1061  0.8046  0.3629
 7435SOL    HW123204   3.018   1.544   1.990 -1.9148  3.9750  1.3473
 7435SOL    HW223205   3.145   1.535   2.092 -0.7068 -0.9080 -0.3089
 7436SOL     OW23206   6.933   6.070   6.553  0.0587  0.3644 -0.3364
 7436SOL    HW123207   6.994   6.104   6.624  0.8637  1.4637 -1.5033
 7436SOL    HW223208   6.979   6.078   6.464 -0.1432 -2.7476 -0.8313
 7437SOL     OW23209   0.421   2.079   1.529 -0.0648  0.4316  0.0858
 7437SOL    HW123210   0.440   2.095   1.626  0.9108 -0.5560  0.0698
 7437SOL    HW223211   0.471   2.146   1.474  1.4408 -0.5946  0.1652
 7438SOL     OW23212   2.832   2.735   6.784 -0.3274  0.0998 -0.3691
 7438SOL    HW123213   2.750   2.735   6.726 -0.7985 -0.9547  0.2844
 7438SOL    HW223214   2.905   2.684   6.738  0.6435  2.5607 -1.8095
 7439SOL     OW23215   0.934   5.101   6.422 -0.2835 -0.1345 -0.4265
 7439SOL    HW123216   1.031   5.112   6.404  0.3109 -2.0097  1.2408
 7439SOL    HW223217   0.904   5.168   6.490 -0.2012  0.5132 -1.0211
 7440SOL     OW23218   2.984   2.132   0.521  0.2429  0.1816 -0.2437
 7440SOL    HW123219   2.989   2.195   0.599  0.3226  0.6343 -0.6049
 7440SOL    HW223220   3.074   2.125   0.478  0.2556 -0.2597 -0.1476
 7441SOL     OW23221   4.504   3.896   5.395 -0.6280 -0.0416 -0.6075
 7441SOL    HW123222   4.420   3.940   5.362 -0.9501 -1.2571 -1.4890
 7441SOL    HW223223   4.528   3.821   5.334 -0.8998 -2.0276  1.5492
 7442SOL     OW23224   6.890   4.095   3.390  0.0922  0.2054 -0.2815
 7442SOL    HW123225   6.801   4.058   3.415  0.3956 -0.2590  0.1376
 7442SOL    HW223226   6.930   4.038   3.318  0.3141  0.0481 -0.0355
 7443SOL     OW23227   3.146   4.134   5.578  0.1832  0.4828  0.1664
 7443SOL    HW123228   3.179   4.040   5.568 -0.8155  0.1617 -0.1667
 7443SOL    HW223229   3.049   4.133   5.601  0.4526  1.4098  1.4608
 7444SOL     OW23230   1.811   0.436   5.900 -0.5787 -0.0129  0.0132
 7444SOL    HW123231   1.885   0.446   5.833 -1.1396  1.1776 -0.4641
 7444SOL    HW223232   1.826   0.353   5.954  0.8969  0.0070 -0.3198
 7445SOL     OW23233   1.490   5.497   6.406 -0.3554  0.4548 -0.1973
 7445SOL    HW123234   1.447   5.465   6.490 -1.3151  0.0540 -0.8210
 7445SOL    HW223235   1.511   5.594   6.413 -0.8713  0.5311  0.3229
 7446SOL     OW23236   0.264   1.105   0.179 -0.3689 -0.1316 -0.7977
 7446SOL    HW123237   0.202   1.062   0.243 -0.7353  0.2385 -0.9024
 7446SOL    HW223238   0.294   1.038   0.111 -1.7579  0.0152 -1.5863
 7447SOL     OW23239   1.816   1.656   0.058  0.4728 -0.5863  0.0418
 7447SOL    HW123240   1.915   1.661   0.047  0.4872  1.1461  0.5568
 7447SOL    HW223241   1.771   1.708  -0.015 -0.0105 -0.5884  0.3297
 7448SOL     OW23242   5.504   2.550   3.432  0.0135 -0.0361 -0.0312
 7448SOL    HW123243   5.556   2.634   3.442  0.6035 -0.3725 -0.2264
 7448SOL    HW223244   5.427   2.565   3.370 -0.2618  0.5234  0.4407
 7449SOL     OW23245   5.429   4.550   4.198  0.0863  0.4549 -0.2653
 7449SOL    HW123246   5.427   4.462   4.149 -0.0273  0.4499 -0.2525
 7449SOL    HW223247   5.338   4.591   4.195 -0.1142  0.0993  0.5910
 7450SOL     OW23248   2.711   0.736   5.641  0.1825 -0.1576  0.2728
 7450SOL    HW123249   2.691   0.643   5.611 -1.3056 -0.5030  2.1340
 7450SOL    HW223250   2.732   0.793   5.561  0.0523 -1.8104 -0.9991
 7451SOL     OW23251   1.952   6.248   4.641  0.4754  0.0337 -0.6547
 7451SOL    HW123252   1.937   6.240   4.740 -0.2662 -1.5692 -0.8707
 7451SOL    HW223253   2.030   6.192   4.615 -0.7101 -1.4065 -1.2654
 7452SOL     OW23254   4.445   3.336   0.332  0.5158  0.7862 -0.2743
 7452SOL    HW123255   4.532   3.295   0.360  0.5118  2.4563  2.6171
 7452SOL    HW223256   4.370   3.273   0.354  0.8387  0.2555 -0.6770
 7453SOL     OW23257   1.635   2.695   2.277  0.2390  0.1297 -0.5556
 7453SOL    HW123258   1.635   2.733   2.185 -1.2443  0.5141 -0.4232
 7453SOL    HW223259   1.716   2.638   2.290 -0.1082 -0.8845 -2.4990
 7454SOL     OW23260   2.823   2.934   0.662 -0.5046  0.1762  0.2921
 7454SOL    HW123261   2.852   2.839   0.674 -0.0720  0.1134 -1.0298
 7454SOL    HW223262   2.789   2.970   0.749 -2.2631 -1.6902  0.4497
 7455SOL     OW23263   5.841   1.710   0.221 -0.1478  0.2533 -0.3794
 7455SOL    HW123264   5.812   1.637   0.158  0.7891  0.1202 -0.6626
 7455SOL    HW223265   5.771   1.782   0.222 -1.0675 -0.6127 -0.1323
 7456SOL     OW23266   0.354   2.784   3.013 -0.0424 -0.4697  0.5144
 7456SOL    HW123267   0.273   2.731   2.989  0.7366 -1.1236 -0.7446
 7456SOL    HW223268   0.337   2.881   2.995 -0.3788 -0.6604 -0.2427
 7457SOL     OW23269   3.270   0.103   2.237 -0.2875  0.3939 -0.0012
 7457SOL    HW123270   3.303   0.115   2.330  0.1881  1.9773 -0.3415
 7457SOL    HW223271   3.171   0.088   2.238 -0.3079  0.5355  0.7443
 7458SOL     OW23272   6.113   0.326   3.690 -0.0838 -0.0190 -0.0451
 7458SOL    HW123273   6.047   0.399   3.709 -1.3532 -0.8745 -1.0290
 7458SOL    HW223274   6.140   0.330   3.594  2.8596  1.5158  0.7119
 7459SOL     OW23275   2.669   1.912   1.878 -0.3835  0.2953  0.2296
 7459SOL    HW123276   2.637   1.959   1.960  0.6384  0.8536  0.3211
 7459SOL    HW223277   2.618   1.945   1.798 -1.5638 -0.4410  0.6523
 7460SOL     OW23278   4.822   1.535   6.812  0.1136  0.3844  0.3041
 7460SOL    HW123279   4.834   1.456   6.751 -0.9857 -0.2078  0.8305
 7460SOL    HW223280   4.847   1.619   6.763  1.6251 -0.2970 -0.1617
 7461SOL     OW23281   1.045   2.693   4.667  0.0593  0.0246  0.5191
 7461SOL    HW123282   0.992   2.754   4.609 -1.1066 -1.0536  0.4009
 7461SOL    HW223283   1.015   2.703   4.762 -1.9659 -2.0644  0.2085
 7462SOL     OW23284   2.437   0.690   6.827 -0.6300 -0.2884  0.4245
 7462SOL    HW123285   2.374   0.745   6.772  0.2515 -2.1290 -2.6424
 7462SOL    HW223286   2.491   0.631   6.767  2.7035 -0.1917  3.0666
 7463SOL     OW23287   4.931   1.107   4.357 -1.1089 -0.1934 -0.5524
 7463SOL    HW123288   4.991   1.027   4.370 -1.3215 -0.2930 -0.1931
 7463SOL    HW223289   4.857   1.105   4.424 -0.6916  0.7059 -0.0419
 7464SOL     OW23290   6.155   6.006   1.608  0.8308  0.2949  0.5120
 7464SOL    HW123291   6.200   5.932   1.659 -0.9278 -0.6823  0.7360
 7464SOL    HW223292   6.059   5.983   1.596  0.5259  2.0038 -0.5230
 7465SOL     OW23293   6.523   4.987   1.503  0.1441 -0.3357  0.0621
 7465SOL    HW123294   6.454   4.962   1.571 -1.7445  3.8359 -0.0205
 7465SOL    HW223295   6.478   5.003   1.415  1.1490  2.0355 -0.1055
 7466SOL     OW23296   1.737   0.922   3.960 -0.0408 -0.1254 -0.5033
 7466SOL    HW123297   1.640   0.908   3.937 -0.9081  1.9084  1.4520
 7466SOL    HW223298   1.772   1.000   3.907  0.0187  0.1861 -0.0083
 7467SOL     OW23299   3.201   4.905   2.486  0.1008  0.2873  0.0470
 7467SOL    HW123300   3.128   4.867   2.430 -0.5296  0.2344  0.8820
 7467SOL    HW223301   3.219   4.844   2.563 -0.2963  1.2093  0.8930
 7468SOL     OW23302   5.351   2.014   3.562 -0.0578  0.3062 -0.4188
 7468SOL    HW123303   5.258   1.998   3.596 -0.5070  0.6094 -1.4718
 7468SOL    HW223304   5.351   2.092   3.500  0.7556 -0.1886 -1.0678
 7469SOL     OW23305   1.841   3.805   0.091  0.0270  0.7072 -0.4127
 7469SOL    HW123306   1.908   3.876   0.070  0.3483  0.1466 -1.4051
 7469SOL    HW223307   1.787   3.831   0.171  0.6389  1.7089 -0.3131
 7470SOL     OW23308   6.931   5.978   3.479  0.2034 -0.1701  0.0695
 7470SOL    HW123309   6.841   6.013   3.453  0.1586 -0.4816 -0.2073
 7470SOL    HW223310   6.954   6.010   3.571 -0.6206 -0.8937  0.5394
 7471SOL     OW23311   3.712   5.589   6.496  0.0679  0.3239 -0.3639
 7471SOL    HW123312   3.749   5.612   6.585  0.7676  1.6012 -0.9586
 7471SOL    HW223313   3.628   5.536   6.507  0.5853 -0.2353  1.0267
 7472SOL     OW23314   5.350   3.720   6.660 -0.4789  0.5203  0.0265
 7472SOL    HW123315   5.342   3.793   6.592 -2.3473  0.7800  0.4520
 7472SOL    HW223316   5.320   3.634   6.620 -1.4251  0.6420  0.4440
 7473SOL     OW23317   4.797   6.581   4.600  0.1745  0.5094 -0.1703
 7473SOL    HW123318   4.733   6.518   4.645 -2.0988  2.2085 -0.8138
 7473SOL    HW223319   4.819   6.548   4.509  1.6282 -0.9521  0.6779
 7474SOL     OW23320   0.138   2.100   1.429  0.0585 -0.6277  0.0779
 7474SOL    HW123321   0.200   2.107   1.507  1.2053 -0.9231 -0.7816
 7474SOL    HW223322   0.158   2.172   1.363 -1.0595 -0.2383  0.1375
 7475SOL     OW23323   0.537   4.851   3.842 -0.3934  0.0891 -0.0735
 7475SOL    HW123324   0.574   4.805   3.761 -0.4626 -0.3114  0.1203
 7475SOL    HW223325   0.497   4.783   3.903  0.9256  0.2227  0.9800
 7476SOL     OW23326   4.865   0.154   4.377 -0.1200  0.0460  0.0962
 7476SOL    HW123327   4.827   0.241   4.348 -0.5525 -0.1090  0.1810
 7476SOL    HW223328   4.875   0.154   4.477 -0.9474 -0.3131  0.1910
 7477SOL     OW23329   2.877   6.573   6.065  0.2966  0.5282 -0.0099
 7477SOL    HW123330   2.788   6.533   6.045  0.4855 -1.0906  2.0260
 7477SOL    HW223331   2.948   6.524   6.014  0.1769  0.7185 -0.3577
 7478SOL     OW23332   4.183   4.634   5.694 -0.4472  0.1558 -0.3260
 7478SOL    HW123333   4.221   4.562   5.752  0.1577 -0.5901 -1.5856
 7478SOL    HW223334   4.192   4.722   5.740  1.3158 -0.2194  0.1304
 7479SOL     OW23335   5.923   5.324   1.163 -0.2579 -0.2953 -0.3652
 7479SOL    HW123336   5.866   5.397   1.199  0.3054 -0.5923  1.1904
 7479SOL    HW223337   6.017   5.354   1.156  0.0577 -0.9843  0.6987
 7480SOL     OW23338   4.402   0.268   6.074 -0.2959 -0.1028 -0.0825
 7480SOL    HW123339   4.485   0.214   6.064 -0.6239 -0.4657 -0.9709
 7480SOL    HW223340   4.358   0.279   5.984 -0.1390  1.8031  0.0255
 7481SOL     OW23341   6.063   3.778   3.359  0.9665 -0.0400 -0.1562
 7481SOL    HW123342   6.001   3.770   3.281  1.7839 -1.8250 -0.6668
 7481SOL    HW223343   6.100   3.871   3.362 -0.5614  0.6237 -0.7184
 7482SOL     OW23344   0.752   4.547   5.948  0.1098  0.0317 -0.7625
 7482SOL    HW123345   0.797   4.487   6.015 -0.3122 -0.1238 -0.6130
 7482SOL    HW223346   0.725   4.632   5.993  2.4098  1.1953 -1.3907
 7483SOL     OW23347   6.325   2.692   6.860 -0.6480  0.7375  0.9882
 7483SOL    HW123348   6.348   2.639   6.779  0.2554 -0.0649  1.7359
 7483SOL    HW223349   6.303   2.786   6.834 -0.8521  0.3666 -0.2205
 7484SOL     OW23350   2.181   3.095   3.866 -0.6916  0.3116 -0.3072
 7484SOL    HW123351   2.180   3.174   3.927 -0.9744 -0.2468  0.4190
 7484SOL    HW223352   2.203   3.012   3.918  1.6585  0.1635 -1.3880
 7485SOL     OW23353   3.794   2.726   5.239 -0.6490 -0.0805  0.1197
 7485SOL    HW123354   3.846   2.644   5.260 -1.3365 -0.4514  0.4168
 7485SOL    HW223355   3.699   2.714   5.268 -0.5960  1.1044  0.8667
 7486SOL     OW23356   4.857   0.420   3.819  0.2386 -0.4239 -0.0617
 7486SOL    HW123357   4.943   0.405   3.868 -0.0447  0.6147  0.7882
 7486SOL    HW223358   4.786   0.360   3.857  0.1657 -0.0414  0.4152
 7487SOL     OW23359   6.500   2.173   6.844  0.3385 -0.2160 -0.1765
 7487SOL    HW123360   6.461   2.156   6.753 -0.9719  1.0631  0.1149
 7487SOL    HW223361   6.476   2.099   6.905  1.2390 -1.0959 -0.8542
 7488SOL     OW23362   3.942   4.492   6.298  0.1986  0.4301  0.0890
 7488SOL    HW123363   3.938   4.392   6.302  0.3737  0.4560  2.2343
 7488SOL    HW223364   3.890   4.524   6.219  2.1023 -1.4201 -2.0448
 7489SOL     OW23365   6.069   1.188   1.763 -0.3395 -0.1307 -0.1063
 7489SOL    HW123366   6.035   1.106   1.810 -1.7937  1.2163  1.3043
 7489SOL    HW223367   6.101   1.163   1.672 -0.0574 -2.3788  0.5344
 7490SOL     OW23368   0.537   2.665   1.603 -0.4079 -0.3576  0.4176
 7490SOL    HW123369   0.439   2.671   1.582 -0.6997  2.9917  2.0711
 7490SOL    HW223370   0.550   2.614   1.687 -0.4866 -2.3857 -0.7435
 7491SOL     OW23371   6.221   0.490   5.063  0.0191  0.3838 -0.1211
 7491SOL    HW123372   6.187   0.484   5.157 -2.2434  0.3235 -0.8824
 7491SOL    HW223373   6.309   0.443   5.057  0.1572  0.2879  1.9366
 7492SOL     OW23374   6.012   0.056   2.001  0.0439  0.3082  0.6801
 7492SOL    HW123375   5.957   0.082   2.080 -0.0685 -2.0682  1.4619
 7492SOL    HW223376   6.108   0.080   2.018 -0.4333  3.1377 -0.0833
 7493SOL     OW23377   4.211   6.194   5.106 -0.0040 -0.1704  0.0077
 7493SOL    HW123378   4.149   6.134   5.156 -0.1776 -0.0155 -0.0193
 7493SOL    HW223379   4.268   6.140   5.045 -2.2789 -0.1108 -2.3820
 7494SOL     OW23380   0.989   1.640   2.121 -0.2399 -0.3914 -0.4441
 7494SOL    HW123381   1.025   1.604   2.208 -0.4807  0.9418  0.2375
 7494SOL    HW223382   0.899   1.601   2.104  0.0595 -1.1122 -0.3982
 7495SOL     OW23383   3.526   1.254   1.883 -0.3236 -0.2234  0.4160
 7495SOL    HW123384   3.535   1.227   1.979 -0.4238  1.1428  0.8343
 7495SOL    HW223385   3.452   1.201   1.840 -1.3934  0.3055  1.5517
 7496SOL     OW23386   0.723   2.513   0.680 -0.4247 -0.0410  0.1015
 7496SOL    HW123387   0.755   2.566   0.602 -2.3799  1.2838  0.1446
 7496SOL    HW223388   0.731   2.416   0.659  4.0549  0.0470  0.3370
 7497SOL     OW23389   3.349   1.384   1.331 -0.4185 -0.5865  0.2744
 7497SOL    HW123390   3.320   1.470   1.288 -1.2571 -0.9942  0.0103
 7497SOL    HW223391   3.322   1.385   1.427  2.5421  0.8497  1.1917
 7498SOL     OW23392   2.992   6.341   5.000 -0.1341  0.0521  0.5874
 7498SOL    HW123393   3.047   6.259   5.016 -0.3804 -0.1098  0.6106
 7498SOL    HW223394   3.042   6.403   4.939  0.3755  0.2201  1.1566
 7499SOL     OW23395   6.056   4.249   6.717 -0.2885  0.2427  0.0979
 7499SOL    HW123396   6.015   4.240   6.626  1.8319  1.4644 -1.0608
 7499SOL    HW223397   6.042   4.342   6.750 -0.5179 -0.0252  0.7583
 7500SOL     OW23398   6.170   1.431   0.900 -0.0808 -0.2499  0.0394
 7500SOL    HW123399   6.264   1.463   0.908  0.6469 -1.7355 -1.8583
 7500SOL    HW223400   6.118   1.493   0.841  0.2646 -0.4952 -0.5265
 7501SOL     OW23401   5.862   4.684   6.201 -0.0679  0.6509 -0.0996
 7501SOL    HW123402   5.797   4.666   6.275  0.8924  2.2079  1.1800
 7501SOL    HW223403   5.819   4.745   6.134 -1.4983 -1.9943 -1.7479
 7502SOL     OW23404   1.964   3.496   0.328  0.2477 -0.4761 -0.3800
 7502SOL    HW123405   1.929   3.540   0.245  1.9695 -0.2730 -1.0595
 7502SOL    HW223406   1.889   3.456   0.379 -0.8042 -1.4995 -2.5679
 7503SOL     OW23407   3.531   2.347   6.704 -0.2664  0.2241  0.0772
 7503SOL    HW123408   3.496   2.280   6.770 -0.7481  2.0614  1.7765
 7503SOL    HW223409   3.631   2.339   6.698 -0.4838 -2.4377 -1.8705
 7504SOL     OW23410   3.928   5.647   2.571  0.3280 -0.9684  0.6781
 7504SOL    HW123411   3.998   5.617   2.507  0.7663 -0.8223  1.0848
 7504SOL    HW223412   3.838   5.626   2.534  0.5863 -1.1938  0.1706
 7505SOL     OW23413   0.140   0.165   2.699  0.4736 -0.7367  0.6220
 7505SOL    HW123414   0.155   0.210   2.787 -0.8531  1.4000 -0.1414
 7505SOL    HW223415   0.208   0.198   2.634 -0.9373  0.8690 -0.1324
 7506SOL     OW23416   3.147   4.931   3.177  0.4352  0.2497 -0.0472
 7506SOL    HW123417   3.218   5.000   3.165 -0.9636  2.0679  1.4810
 7506SOL    HW223418   3.152   4.894   3.270 -1.1950  1.1993  0.4737
 7507SOL     OW23419   4.674   6.859   6.413 -1.1857  0.0082 -0.2472
 7507SOL    HW123420   4.614   6.908   6.350 -0.0011  2.0092  0.1062
 7507SOL    HW223421   4.738   6.923   6.455  1.9434 -2.1461 -1.3738
 7508SOL     OW23422   0.743   5.401   6.536 -0.0772  0.0940  0.3075
 7508SOL    HW123423   0.711   5.309   6.557 -0.8117 -0.2624 -2.0827
 7508SOL    HW223424   0.667   5.466   6.548 -0.5965 -0.1584 -1.3981
 7509SOL     OW23425   4.907   4.037   4.013  0.4740  0.1233  0.2135
 7509SOL    HW123426   4.969   4.108   4.047  0.7797  0.1501 -0.3847
 7509SOL    HW223427   4.888   3.972   4.086 -1.0426  1.6345  1.2550
 7510SOL     OW23428   1.974   3.818   1.486  0.0115 -0.0380 -0.8037
 7510SOL    HW123429   1.912   3.877   1.536  0.2681  0.8736 -1.5239
 7510SOL    HW223430   2.033   3.768   1.550  0.2910  1.0496 -0.1907
 7511SOL     OW23431   1.905   3.538   1.368 -0.0544 -0.1846  0.0989
 7511SOL    HW123432   2.000   3.512   1.358 -0.0960  0.0788 -1.1049
 7511SOL    HW223433   1.899   3.628   1.412  0.2157 -0.5224  0.8351
 7512SOL     OW23434   0.711   6.650   6.606 -0.4113 -0.2351  0.4260
 7512SOL    HW123435   0.765   6.730   6.633  0.4419 -1.0331  1.1800
 7512SOL    HW223436   0.671   6.665   6.516  2.3133 -0.1595 -0.8711
 7513SOL     OW23437   0.049   0.385   1.530  0.2558  0.3086 -0.2919
 7513SOL    HW123438  -0.015   0.423   1.597 -0.2882  0.5777 -0.9462
 7513SOL    HW223439   0.127   0.447   1.519  0.5814  0.0389  0.4190
 7514SOL     OW23440   4.398   6.607   3.817  0.1427  0.2432 -0.3254
 7514SOL    HW123441   4.377   6.560   3.903 -1.9520 -1.0294 -1.4426
 7514SOL    HW223442   4.419   6.539   3.746 -0.9182  1.0699 -1.4815
 7515SOL     OW23443   0.652   3.389   3.796  0.3691  0.3277 -0.4579
 7515SOL    HW123444   0.668   3.403   3.893  1.0080  0.8341 -0.6289
 7515SOL    HW223445   0.713   3.449   3.743  0.2253 -0.1422 -1.1697
 7516SOL     OW23446   5.097   4.805   0.021 -0.0244 -0.1898 -0.2235
 7516SOL    HW123447   5.054   4.817  -0.069 -1.0900 -0.1879  0.2725
 7516SOL    HW223448   5.144   4.890   0.046 -1.3265  0.4899  0.0303
 7517SOL     OW23449   1.371   6.572   2.287  0.0946  0.1832  0.1479
 7517SOL    HW123450   1.409   6.595   2.198 -1.5260 -0.6840 -0.8006
 7517SOL    HW223451   1.446   6.553   2.351  1.3406 -2.5849 -1.9195
 7518SOL     OW23452   2.729   6.962   4.820  0.4540 -0.2647 -0.5004
 7518SOL    HW123453   2.742   6.912   4.734  1.5105 -0.8232 -0.0337
 7518SOL    HW223454   2.818   6.990   4.856  0.0210 -0.0249  0.4089
 7519SOL     OW23455   4.944   5.559   3.408  0.2562 -0.1252 -0.1820
 7519SOL    HW123456   4.995   5.574   3.323  0.5727  2.0147  0.3231
 7519SOL    HW223457   4.852   5.525   3.385  0.5216 -0.1151 -1.3525
 7520SOL     OW23458   3.306   1.385   1.606 -0.2816 -1.0075  0.0629
 7520SOL    HW123459   3.261   1.353   1.689  0.7598 -0.4532  0.8681
 7520SOL    HW223460   3.388   1.437   1.630  0.6675 -1.7699 -1.3461
 7521SOL     OW23461   5.257   6.008   4.756  0.1420  0.1365 -0.3033
 7521SOL    HW123462   5.344   6.003   4.706 -0.2788 -0.9060 -0.9559
 7521SOL    HW223463   5.210   6.093   4.731  1.1574  0.9457  0.4088
 7522SOL     OW23464   5.656   2.073   5.502 -0.1164  0.0446 -0.0099
 7522SOL    HW123465   5.572   2.028   5.472 -0.5323  0.8707 -0.0976
 7522SOL    HW223466   5.657   2.167   5.469  1.1039 -0.1162 -0.4682
 7523SOL     OW23467   2.129   6.243   4.294 -0.4531  0.5373  0.9090
 7523SOL    HW123468   2.159   6.156   4.256 -2.3132  0.7749 -1.3275
 7523SOL    HW223469   2.206   6.289   4.338  1.5136 -0.4821 -1.2707
 7524SOL     OW23470   5.131   4.413   0.320 -0.2310 -0.2148 -0.0476
 7524SOL    HW123471   5.207   4.370   0.370  0.1143  1.7416  1.2076
 7524SOL    HW223472   5.046   4.399   0.371 -0.4969 -1.1399 -0.7089
 7525SOL     OW23473   6.872   5.224   2.148 -0.3019  0.4228  0.0936
 7525SOL    HW123474   6.965   5.239   2.116 -0.5807  0.0280 -0.9378
 7525SOL    HW223475   6.816   5.305   2.128 -0.3933  0.3114 -0.1054
 7526SOL     OW23476   3.641   0.615   2.347 -0.0199  0.1985 -0.0362
 7526SOL    HW123477   3.648   0.657   2.438  0.0331 -1.2268  0.6453
 7526SOL    HW223478   3.595   0.678   2.285 -2.5606  0.1826  1.6667
 7527SOL     OW23479   4.327   4.350   5.613 -0.2256 -0.0004 -0.7632
 7527SOL    HW123480   4.355   4.340   5.708 -0.1235  1.9417 -0.5488
 7527SOL    HW223481   4.228   4.338   5.605  0.1593 -4.5623 -1.1677
 7528SOL     OW23482   5.694   3.567   5.890 -0.8503 -0.2279 -0.0923
 7528SOL    HW123483   5.656   3.659   5.883  0.2198  0.4994  2.4450
 7528SOL    HW223484   5.787   3.573   5.926 -0.6994 -2.3102 -0.0373
 7529SOL     OW23485   0.677   3.362   1.805  0.6232  0.8718 -0.4555
 7529SOL    HW123486   0.676   3.398   1.711  1.0835 -0.7326 -1.1129
 7529SOL    HW223487   0.670   3.262   1.802 -0.1608  0.8423  1.2708
 7530SOL     OW23488   3.022   3.841   3.210 -0.1620  0.6145  0.1536
 7530SOL    HW123489   3.079   3.922   3.222  1.0977 -0.2883  0.5264
 7530SOL    HW223490   2.974   3.846   3.122  0.6994  1.2806 -0.2949
 7531SOL     OW23491   3.845   5.936   5.497  0.1600  0.5611  0.1183
 7531SOL    HW123492   3.859   5.875   5.419  1.5945  1.2805 -0.2277
 7531SOL    HW223493   3.933   5.953   5.542 -0.7391 -0.3395  2.3150
 7532SOL     OW23494   3.076   4.229   0.461  0.0559 -0.8565  0.1497
 7532SOL    HW123495   3.060   4.245   0.559  0.6642 -1.4859  0.3629
 7532SOL    HW223496   3.166   4.265   0.436  0.4219 -1.7700  0.1071
 7533SOL     OW23497   6.541   2.680   5.614 -0.3008 -0.0519  0.6414
 7533SOL    HW123498   6.460   2.674   5.671 -0.8309  0.6493 -0.0114
 7533SOL    HW223499   6.621   2.650   5.666 -0.8771 -0.1476  1.4934
 7534SOL     OW23500   5.010   0.812   6.530 -0.2800  0.3048 -0.1855
 7534SOL    HW123501   4.983   0.748   6.458  0.6458 -1.7638  1.2020
 7534SOL    HW223502   4.934   0.824   6.593 -0.0175 -0.6297  0.3367
 7535SOL     OW23503   1.560   0.268   5.186 -0.0746  0.1047 -0.7264
 7535SOL    HW123504   1.578   0.362   5.157 -1.7386  0.4667 -0.6667
 7535SOL    HW223505   1.549   0.210   5.106 -0.9161  0.3468 -0.7911
 7536SOL     OW23506   2.910   7.025   1.141  0.5482 -0.2787  0.3416
 7536SOL    HW123507   3.004   7.059   1.145  0.3667  0.3390 -0.3469
 7536SOL    HW223508   2.904   6.953   1.072  0.5090 -0.2973  0.3647
 7537SOL     OW23509   5.861   3.069   5.684  0.2679  0.1277  0.0851
 7537SOL    HW123510   5.801   3.006   5.634 -0.4028  1.7168 -1.2169
 7537SOL    HW223511   5.836   3.163   5.661  1.7337  0.8680  1.3828
 7538SOL     OW23512   0.277   3.034   6.229 -0.4674 -0.7394  0.2117
 7538SOL    HW123513   0.312   3.069   6.316  0.3428 -0.8427 -0.0636
 7538SOL    HW223514   0.310   3.092   6.155 -1.7235 -0.2395  0.0174
 7539SOL     OW23515   3.050   5.210   2.778  0.1574  0.4316 -0.4124
 7539SOL    HW123516   3.110   5.185   2.853  0.7682  1.1648 -0.6469
 7539SOL    HW223517   2.996   5.291   2.803 -0.0738  0.3187 -0.5385
 7540SOL     OW23518   6.166   1.245   5.879 -0.2090  0.1666 -0.2374
 7540SOL    HW123519   6.081   1.296   5.887 -0.4140 -0.4795  3.7429
 7540SOL    HW223520   6.147   1.147   5.889  0.4932 -0.6844 -5.0174
 7541SOL     OW23521   0.897   6.698   1.612  0.5442  0.4098 -0.6201
 7541SOL    HW123522   0.861   6.652   1.693  1.6420  2.4113  1.0987
 7541SOL    HW223523   0.984   6.742   1.634  1.2533  0.4192 -3.1107
 7542SOL     OW23524   5.876   2.072   1.562  0.0245 -0.2656 -0.4735
 7542SOL    HW123525   5.815   1.993   1.569  0.5653 -0.5736  1.5811
 7542SOL    HW223526   5.862   2.119   1.475  0.3805 -3.1924 -2.2295
 7543SOL     OW23527   5.213   0.496   4.862 -0.0900 -0.5080  0.0939
 7543SOL    HW123528   5.126   0.513   4.817  0.7896 -0.3122 -1.6084
 7543SOL    HW223529   5.272   0.576   4.853  0.9049 -1.2602 -0.3226
 7544SOL     OW23530   4.870   2.529   3.478  0.5012  0.3498  0.0592
 7544SOL    HW123531   4.923   2.520   3.562 -1.7354  0.3265  1.5819
 7544SOL    HW223532   4.797   2.597   3.492 -2.6036 -2.6034 -0.2600
 7545SOL     OW23533   2.006   4.193   1.008  0.7443  0.4068 -0.3820
 7545SOL    HW123534   1.951   4.276   1.012 -1.3298 -0.8909 -0.4873
 7545SOL    HW223535   2.061   4.185   1.091  0.7459  1.7205 -0.2421
 7546SOL     OW23536   3.840   4.844   2.906 -0.7922  0.2114 -0.2565
 7546SOL    HW123537   3.858   4.871   2.811 -0.8116  2.1689  0.2613
 7546SOL    HW223538   3.925   4.809   2.947  0.3101  3.1337  0.1631
 7547SOL     OW23539   6.213   0.827   0.447 -0.9599 -0.1512  0.6331
 7547SOL    HW123540   6.199   0.791   0.355 -0.1812 -2.1479  1.2490
 7547SOL    HW223541   6.301   0.873   0.452 -1.7246  1.4637 -0.0164
 7548SOL     OW23542   5.471   0.393   4.158  0.0276 -0.0998  0.4236
 7548SOL    HW123543   5.531   0.313   4.154  0.7117  0.2686  2.2915
 7548SOL    HW223544   5.415   0.388   4.240  0.8833  1.8470  1.1968
 7549SOL     OW23545   4.687   4.711   1.145  0.2136 -0.4658  0.7446
 7549SOL    HW123546   4.636   4.749   1.221 -0.3429  0.5109 -0.0956
 7549SOL    HW223547   4.749   4.780   1.108  1.0229 -1.1604  0.7777
 7550SOL     OW23548   4.129   0.165   5.064 -0.3412  0.6933 -0.2155
 7550SOL    HW123549   4.191   0.179   4.986  0.8307  0.2692  0.6037
 7550SOL    HW223550   4.081   0.250   5.085  3.4570  2.5565  2.0249
 7551SOL     OW23551   0.196   0.853   6.505  0.0679 -0.1883 -0.5477
 7551SOL    HW123552   0.117   0.914   6.496  1.1191  1.8441  2.3638
 7551SOL    HW223553   0.168   0.769   6.551 -0.7146 -0.2465 -1.1146
 7552SOL     OW23554   2.091   2.298   0.599 -0.3048 -0.0743 -0.1279
 7552SOL    HW123555   2.081   2.260   0.691 -1.4289  0.2540 -0.1042
 7552SOL    HW223556   2.144   2.234   0.543  1.6469  0.3753  1.1202
 7553SOL     OW23557   1.608   2.187   4.490  0.4390  0.3007  0.4362
 7553SOL    HW123558   1.558   2.108   4.455  1.9281 -0.1425 -0.8153
 7553SOL    HW223559   1.645   2.239   4.413  2.5999  0.1120  1.2771
 7554SOL     OW23560   4.137   6.309   3.101 -0.6167  0.1167  0.8920
 7554SOL    HW123561   4.231   6.296   3.070 -0.4295 -0.3199  1.6313
 7554SOL    HW223562   4.131   6.393   3.156 -0.9742  0.9608 -0.3884
 7555SOL     OW23563   0.049   6.612   2.376 -0.2172  0.5521 -0.1438
 7555SOL    HW123564   0.019   6.537   2.317  1.7854  0.1357 -0.7192
 7555SOL    HW223565  -0.009   6.692   2.361  0.0927  0.3946 -2.5445
 7556SOL     OW23566   6.523   2.442   5.904  0.3770 -0.2539 -0.0851
 7556SOL    HW123567   6.583   2.474   5.977  0.7650  0.4933 -0.7218
 7556SOL    HW223568   6.428   2.462   5.927  0.4367 -0.6971  0.5515
 7557SOL     OW23569   1.624   4.167   1.741  0.0058 -0.0541  1.0494
 7557SOL    HW123570   1.540   4.218   1.760  1.0661  1.1484  2.9094
 7557SOL    HW223571   1.625   4.082   1.794 -0.1288 -0.1808  0.8497
 7558SOL     OW23572   1.288   1.320   4.832 -0.4807  0.1097 -0.6438
 7558SOL    HW123573   1.229   1.245   4.802  1.0163 -1.1495 -0.5516
 7558SOL    HW223574   1.236   1.381   4.892 -1.3648 -1.6122  0.4277
 7559SOL     OW23575   6.751   0.367   1.907  0.3835 -0.1915 -0.3040
 7559SOL    HW123576   6.847   0.390   1.926  0.3906 -0.1916 -0.3411
 7559SOL    HW223577   6.731   0.384   1.811  0.7303 -1.5337 -0.6276
 7560SOL     OW23578   5.661   5.701   4.850 -0.0557 -0.3729 -0.1814
 7560SOL    HW123579   5.761   5.702   4.850  0.0120 -1.9582  1.4272
 7560SOL    HW223580   5.627   5.737   4.937 -0.8790 -0.0263 -0.6408
 7561SOL     OW23581   5.495   6.949   6.544 -0.4962 -0.3999 -0.1231
 7561SOL    HW123582   5.595   6.943   6.547 -0.4601  0.5495  1.0371
 7561SOL    HW223583   5.467   6.998   6.462  0.0747  0.8184  0.3951
 7562SOL     OW23584   2.506   5.947   0.141  0.5869 -0.5266 -0.0208
 7562SOL    HW123585   2.500   5.894   0.225  1.6455 -1.9474 -0.8126
 7562SOL    HW223586   2.444   5.908   0.072  1.4058 -0.7898 -0.6238
 7563SOL     OW23587   1.668   3.688   3.030 -0.2347  0.8277  0.1671
 7563SOL    HW123588   1.735   3.625   2.990 -1.3785 -1.1633  1.2780
 7563SOL    HW223589   1.591   3.699   2.966 -0.2592  0.7173  0.1774
 7564SOL     OW23590   2.068   3.031   2.144  0.1359 -0.0001 -0.2429
 7564SOL    HW123591   2.084   3.122   2.105 -0.8517  0.2999  0.0135
 7564SOL    HW223592   2.134   3.013   2.216  0.2254  0.5980 -0.1684
 7565SOL     OW23593   2.576   0.285   5.748  0.0589  0.5980 -0.0632
 7565SOL    HW123594   2.478   0.296   5.765  0.2208  0.6197  0.9534
 7565SOL    HW223595   2.621   0.262   5.834  0.5324 -2.4287 -0.9964
 7566SOL     OW23596   6.618   4.144   6.444 -0.2170  0.1164  0.1597
 7566SOL    HW123597   6.579   4.052   6.440 -0.3572  0.1066  1.3341
 7566SOL    HW223598   6.601   4.191   6.358  0.8157 -1.3274 -0.8903
 7567SOL     OW23599   4.727   1.648   6.395  0.8026 -0.4788 -0.0477
 7567SOL    HW123600   4.667   1.589   6.449 -0.2378 -1.9127 -2.5960
 7567SOL    HW223601   4.801   1.593   6.356  0.4465  0.0937 -1.5937
 7568SOL     OW23602   1.579   5.360   1.983  0.3475  0.2553 -0.1672
 7568SOL    HW123603   1.653   5.359   1.916  1.6321 -0.3602  1.2080
 7568SOL    HW223604   1.530   5.273   1.980 -0.0624  0.4959 -0.7677
 7569SOL     OW23605   4.276   1.202   2.835  0.4220 -0.2660 -0.4924
 7569SOL    HW123606   4.304   1.203   2.739  1.2401 -0.9818 -0.2757
 7569SOL    HW223607   4.301   1.114   2.876  0.0464  0.0148  0.3685
 7570SOL     OW23608   2.445   6.136   6.209  0.1902 -0.0813  0.2963
 7570SOL    HW123609   2.462   6.205   6.279  0.0683 -0.1855  0.4308
 7570SOL    HW223610   2.398   6.178   6.131  1.8851  0.4154 -0.5048
 7571SOL     OW23611   5.443   0.170   2.830 -0.3529 -0.0517  0.0007
 7571SOL    HW123612   5.489   0.201   2.913 -0.0904 -0.1810 -0.0964
 7571SOL    HW223613   5.425   0.071   2.836 -0.6002 -0.0071  0.0290
 7572SOL     OW23614   0.956   2.235   6.139 -0.3305 -0.2238  0.0497
 7572SOL    HW123615   1.008   2.319   6.147  0.3008 -0.6491  0.5042
 7572SOL    HW223616   0.863   2.256   6.106 -0.5923  0.7943  1.3592
 7573SOL     OW23617   0.196   3.836   1.890 -0.1419  0.2606  0.0599
 7573SOL    HW123618   0.203   3.934   1.906  0.7236  0.1146  0.6270
 7573SOL    HW223619   0.212   3.787   1.976 -2.2174 -0.3453  0.1725
 7574SOL     OW23620   1.917   3.220   1.334  0.4380  0.6874  0.2483
 7574SOL    HW123621   1.828   3.262   1.350  1.1836  2.3473  0.2065
 7574SOL    HW223622   1.952   3.249   1.245  1.8124  1.5359  1.0331
 7575SOL     OW23623   6.452   1.279   4.797 -0.1094  0.6047 -0.3072
 7575SOL    HW123624   6.483   1.310   4.887 -0.9943 -1.2336  0.7041
 7575SOL    HW223625   6.447   1.179   4.797 -3.0136  0.6684 -1.4107
 7576SOL     OW23626   2.207   5.844   4.870 -0.7302  0.2642 -0.1291
 7576SOL    HW123627   2.184   5.879   4.961  0.7141  0.0290  0.3681
 7576SOL    HW223628   2.215   5.745   4.874  0.2653  0.3262 -0.2668
 7577SOL     OW23629   5.502   5.960   3.091  0.0708 -0.1572  0.5446
 7577SOL    HW123630   5.506   6.003   3.181  0.3590  0.2108  0.3651
 7577SOL    HW223631   5.562   6.011   3.028  0.5675 -0.9434  0.3698
 7578SOL     OW23632   0.785   6.576   1.808  0.4574  0.1545  0.0379
 7578SOL    HW123633   0.705   6.525   1.838  0.3497  0.8185  0.9237
 7578SOL    HW223634   0.868   6.522   1.828  0.2573 -0.4355 -0.6795
 7579SOL     OW23635   0.640   6.171   6.058  0.0338  0.1569  0.1350
 7579SOL    HW123636   0.562   6.108   6.052 -0.7305  1.1289 -0.5068
 7579SOL    HW223637   0.658   6.192   6.154 -0.2882 -0.3304  0.3087
 7580SOL     OW23638   0.241   4.606   3.784  0.0765  0.0105 -0.1992
 7580SOL    HW123639   0.245   4.688   3.840  2.5971  0.7197 -1.2910
 7580SOL    HW223640   0.216   4.528   3.842  1.0102  0.9679  1.5808
 7581SOL     OW23641   3.015   2.186   5.712 -0.1941 -0.1133 -0.1633
 7581SOL    HW123642   3.083   2.113   5.708 -1.1806 -1.1576  1.2358
 7581SOL    HW223643   2.981   2.205   5.620  1.9451  0.4511 -0.9004
 7582SOL     OW23644   4.030   2.004   6.369  0.0259 -0.1511 -0.7888
 7582SOL    HW123645   4.050   1.924   6.425  1.8058  0.4618 -0.4852
 7582SOL    HW223646   3.932   2.023   6.372  0.0289 -0.2317  2.0089
 7583SOL     OW23647   6.216   2.329   5.479  0.0903  0.3618  0.3796
 7583SOL    HW123648   6.299   2.287   5.517 -0.9760 -2.3102 -0.0561
 7583SOL    HW223649   6.242   2.401   5.415  2.0803 -0.3725  0.2769
 7584SOL     OW23650   0.303   0.448   6.754 -0.4517  0.2036  0.0632
 7584SOL    HW123651   0.209   0.437   6.786 -0.5644 -1.2950 -0.6944
 7584SOL    HW223652   0.335   0.362   6.715  0.8418  1.0310 -0.7715
 7585SOL     OW23653   6.285   6.930   6.493 -0.7136  0.5019 -0.0141
 7585SOL    HW123654   6.352   6.975   6.433 -0.0079  0.0826  0.4476
 7585SOL    HW223655   6.205   6.904   6.439 -0.0142 -0.0362 -0.8269
 7586SOL     OW23656   6.789   0.276   3.190  0.4978 -0.4233  0.1755
 7586SOL    HW123657   6.814   0.218   3.267  1.5391  1.3376  1.2415
 7586SOL    HW223658   6.691   0.296   3.194  0.4169 -0.9009  0.6476
 7587SOL     OW23659   5.674   3.419   1.583 -0.1443  0.6478  0.2355
 7587SOL    HW123660   5.647   3.346   1.521 -1.0924  1.9174 -0.9088
 7587SOL    HW223661   5.768   3.445   1.565  1.2023 -2.0942  2.5341
 7588SOL     OW23662   0.409   4.937   0.110 -0.0427 -0.4033 -0.1486
 7588SOL    HW123663   0.425   4.841   0.087 -1.0686 -0.7997  0.7286
 7588SOL    HW223664   0.488   4.991   0.082  0.3383 -1.4151 -1.1198
 7589SOL     OW23665   0.724   1.289   1.835  0.3090  0.2058 -0.1428
 7589SOL    HW123666   0.650   1.320   1.895  0.0212  0.1813 -0.4844
 7589SOL    HW223667   0.706   1.196   1.805  0.5692  0.1370 -0.0850
 7590SOL     OW23668   4.499   2.918   0.928 -0.6367  0.0437  0.2416
 7590SOL    HW123669   4.531   2.970   0.850  0.7673 -0.0388  0.7308
 7590SOL    HW223670   4.450   2.837   0.897 -0.4002  0.1967 -0.5360
 7591SOL     OW23671   4.494   5.325   4.926 -0.3571  0.0480  0.1619
 7591SOL    HW123672   4.548   5.242   4.944  3.0444  1.9181 -0.6386
 7591SOL    HW223673   4.490   5.381   5.008 -0.0520  0.4491 -0.0916
 7592SOL     OW23674   6.512   0.782   1.839 -0.3250  0.4607 -0.3940
 7592SOL    HW123675   6.445   0.856   1.841 -1.9324 -0.7623 -3.2154
 7592SOL    HW223676   6.465   0.695   1.826  1.7107 -0.6118 -0.9736
 7593SOL     OW23677   6.687   3.019   0.321  0.6032  0.3063 -0.2203
 7593SOL    HW123678   6.681   3.052   0.416 -0.9405 -3.4162  1.1581
 7593SOL    HW223679   6.598   3.032   0.276 -0.5256 -2.8499  0.8277
 7594SOL     OW23680   4.334   5.747   5.300  0.1646 -0.2089  0.3930
 7594SOL    HW123681   4.363   5.842   5.285  0.8556 -0.5472 -0.4478
 7594SOL    HW223682   4.369   5.716   5.389  0.3369  0.1657  0.4596
 7595SOL     OW23683   6.577   4.664   3.512  0.3145 -0.1470  0.2094
 7595SOL    HW123684   6.550   4.579   3.467  0.4157 -0.0152 -0.1007
 7595SOL    HW223685   6.502   4.695   3.572  0.3303 -0.5213  0.4280
 7596SOL     OW23686   6.723   2.139   2.532 -0.2208 -0.0724 -0.2617
 7596SOL    HW123687   6.816   2.113   2.560  0.0461  0.0820 -0.9907
 7596SOL    HW223688   6.660   2.120   2.607  0.1708 -1.5772 -0.2873
 7597SOL     OW23689   3.387   4.152   1.192  0.3916 -0.0832  0.0076
 7597SOL    HW123690   3.326   4.135   1.269  0.6655 -0.6789  0.0936
 7597SOL    HW223691   3.399   4.251   1.181  0.8970  0.0034  1.1604
 7598SOL     OW23692   0.638   4.425   3.042  0.2063 -0.1681  0.3321
 7598SOL    HW123693   0.586   4.345   3.012  1.2736 -0.2824 -1.3625
 7598SOL    HW223694   0.650   4.422   3.141  2.0551 -3.3198  0.1424
 7599SOL     OW23695   3.974   1.138   4.515 -0.2592  0.1315  0.7736
 7599SOL    HW123696   3.957   1.218   4.458  0.2060 -0.4641 -0.2340
 7599SOL    HW223697   3.924   1.147   4.601  1.1373  2.3199  1.4481
 7600SOL     OW23698   4.450   6.137   4.653 -0.0076 -0.0578  0.3663
 7600SOL    HW123699   4.511   6.092   4.718  0.4841 -0.6188 -0.4647
 7600SOL    HW223700   4.419   6.071   4.585 -0.9110  0.4076  0.3063
 7601SOL     OW23701   4.457   4.995   0.086  0.2517  0.0293  0.4622
 7601SOL    HW123702   4.359   5.012   0.092  0.0641 -0.9253  0.3602
 7601SOL    HW223703   4.475   4.898   0.102  0.8634 -0.4372 -2.4250
 7602SOL     OW23704   5.974   3.656   1.800  0.5699 -0.0983  0.3818
 7602SOL    HW123705   6.018   3.734   1.844 -0.5117  0.6406  0.1727
 7602SOL    HW223706   6.045   3.593   1.767  1.4361  0.3332  1.3410
 7603SOL     OW23707   5.686   3.980   0.010  0.4529 -0.8189 -0.7625
 7603SOL    HW123708   5.679   3.890  -0.031  1.0587 -0.5951 -1.3872
 7603SOL    HW223709   5.762   4.030  -0.033  0.9813 -0.5079  0.5005
 7604SOL     OW23710   2.766   6.734   5.027  0.1697 -0.0051 -0.4118
 7604SOL    HW123711   2.754   6.764   4.932 -3.8310  0.7706  0.1450
 7604SOL    HW223712   2.747   6.637   5.033  0.5846 -0.0876 -0.4049
 7605SOL     OW23713   6.005   0.944   1.928  0.0488  0.0366  0.1161
 7605SOL    HW123714   5.941   0.926   2.003 -0.4919  1.2263 -0.0368
 7605SOL    HW223715   6.046   0.858   1.898 -0.8273 -0.6408  0.8018
 7606SOL     OW23716   1.863   5.215   5.827  0.4454 -0.4762 -0.0028
 7606SOL    HW123717   1.864   5.183   5.922 -2.3083 -0.4692  0.1172
 7606SOL    HW223718   1.769   5.214   5.793  1.0645  1.6292 -2.0247
 7607SOL     OW23719   2.446   3.101   6.199  0.1928  0.2483  0.3722
 7607SOL    HW123720   2.520   3.154   6.240 -0.5986  1.3907  0.3643
 7607SOL    HW223721   2.469   3.080   6.104  0.2787  1.0458  0.2150
 7608SOL     OW23722   0.663   5.082   1.880  0.1069 -0.0960  0.6773
 7608SOL    HW123723   0.591   5.125   1.826  0.6868  0.4662  0.3360
 7608SOL    HW223724   0.693   4.997   1.836 -0.6977 -0.6046  1.0920
 7609SOL     OW23725   2.132   3.020   1.409 -0.2116  0.0419 -0.4967
 7609SOL    HW123726   2.076   3.066   1.340 -1.3193  0.3434  0.5733
 7609SOL    HW223727   2.089   3.028   1.499  1.2692 -0.2237  0.2748
 7610SOL     OW23728   3.010   1.855   5.558 -0.0008  0.0753 -0.2259
 7610SOL    HW123729   3.098   1.853   5.510  0.8779  0.2931  1.3188
 7610SOL    HW223730   2.937   1.878   5.493  1.1291  0.2858 -1.4559
 7611SOL     OW23731   6.836   4.669   2.683  0.6647 -0.1311 -0.2191
 7611SOL    HW123732   6.909   4.654   2.750 -1.3480  0.6783  2.3533
 7611SOL    HW223733   6.786   4.583   2.670  0.5900 -0.1121 -0.0647
 7612SOL     OW23734   5.610   0.710   2.306  0.1847  0.0636 -0.4218
 7612SOL    HW123735   5.653   0.675   2.223  0.5424  0.2828 -0.3330
 7612SOL    HW223736   5.579   0.804   2.290 -0.2980 -0.1076 -0.4973
 7613SOL     OW23737   0.537   0.781   2.980 -0.3759 -0.0527 -0.7036
 7613SOL    HW123738   0.456   0.739   2.938  0.0609 -2.4101  0.6477
 7613SOL    HW223739   0.516   0.875   3.008 -2.4726 -0.4463 -0.8331
 7614SOL     OW23740   6.271   2.497   5.274  0.0668 -0.1078 -0.1672
 7614SOL    HW123741   6.287   2.506   5.176  1.5818 -0.8793 -0.0182
 7614SOL    HW223742   6.356   2.513   5.323 -0.3301 -1.2007  0.9365
 7615SOL     OW23743   6.168   1.405   0.157  0.3946  0.6048 -0.3034
 7615SOL    HW123744   6.102   1.462   0.109 -0.5769 -0.7588 -0.6500
 7615SOL    HW223745   6.252   1.457   0.173  0.0939  1.6390 -1.8922
 7616SOL     OW23746   6.433   4.506   4.509 -0.5420  0.6678  0.1051
 7616SOL    HW123747   6.354   4.465   4.555  0.5013  0.0682  1.4246
 7616SOL    HW223748   6.478   4.436   4.452 -0.3442  0.7158  0.2007
 7617SOL     OW23749   6.577   2.125   0.983  0.7011  0.1948  0.3118
 7617SOL    HW123750   6.642   2.177   0.926  0.0486 -0.0341 -0.6641
 7617SOL    HW223751   6.538   2.186   1.052  1.4973  0.4821  0.5266
 7618SOL     OW23752   1.149   5.782   4.451 -0.1312 -0.2216 -0.4626
 7618SOL    HW123753   1.103   5.824   4.530  0.6297  1.0918 -0.6910
 7618SOL    HW223754   1.118   5.828   4.367  1.5618  0.7071 -0.6187
 7619SOL     OW23755   1.382   2.640   4.842  0.4134  0.4618  0.1291
 7619SOL    HW123756   1.349   2.685   4.758  0.9028 -0.4931 -0.5975
 7619SOL    HW223757   1.339   2.550   4.850 -0.1764  0.8383  1.2979
 7620SOL     OW23758   0.623   6.654   3.574  0.0487  0.1349 -0.2274
 7620SOL    HW123759   0.531   6.618   3.561 -0.2917  1.1155 -0.6591
 7620SOL    HW223760   0.675   6.646   3.489 -0.3921  1.5958 -0.6770
 7621SOL     OW23761   3.213   1.063   0.137 -0.1303  0.1084 -0.4721
 7621SOL    HW123762   3.160   0.980   0.119  0.6448  0.1945 -3.6753
 7621SOL    HW223763   3.164   1.120   0.203 -1.5963 -1.9865  0.3600
 7622SOL     OW23764   4.516   0.639   6.888 -0.4852 -0.0960  0.1825
 7622SOL    HW123765   4.532   0.727   6.932  2.8194 -0.0075 -0.9021
 7622SOL    HW223766   4.480   0.574   6.954 -0.9237  1.4744  1.5474
 7623SOL     OW23767   6.643   1.074   0.402 -0.5296  0.0946  0.4870
 7623SOL    HW123768   6.642   1.152   0.465 -0.1860  1.6689 -1.3741
 7623SOL    HW223769   6.732   1.029   0.407  0.1429  1.2923 -0.0862
 7624SOL     OW23770   6.335   3.744   1.363  0.0187 -0.1741 -0.2583
 7624SOL    HW123771   6.370   3.754   1.456  0.0933 -0.2675 -0.2764
 7624SOL    HW223772   6.375   3.663   1.321  0.9947  0.5847 -0.8375
 7625SOL     OW23773   1.400   1.099   1.533 -0.0888  0.3282 -0.0096
 7625SOL    HW123774   1.339   1.119   1.609  0.7293  0.4852  0.6262
 7625SOL    HW223775   1.419   1.001   1.530 -0.5634  0.2473 -0.3572
 7626SOL     OW23776   3.298   6.308   1.081 -0.0060  0.3266  0.4326
 7626SOL    HW123777   3.389   6.350   1.087  0.3687 -0.4758  0.4383
 7626SOL    HW223778   3.241   6.340   1.157  0.7408 -0.2949  1.2597
 7627SOL     OW23779   4.585   0.202   5.136  0.3576 -0.4776 -0.0354
 7627SOL    HW123780   4.520   0.133   5.167  0.6660 -1.2359 -1.0074
 7627SOL    HW223781   4.604   0.266   5.210 -0.9965 -0.6196  0.4619
 7628SOL     OW23782   6.857   3.472   5.660 -0.3525  0.2360  0.0432
 7628SOL    HW123783   6.865   3.412   5.581 -0.9062 -1.2191  1.0516
 7628SOL    HW223784   6.778   3.532   5.648 -1.3353 -0.9977  0.1185
 7629SOL     OW23785   4.128   1.465   1.902 -0.4522 -0.1129  0.3204
 7629SOL    HW123786   4.195   1.533   1.934  0.6451 -1.0205  0.0298
 7629SOL    HW223787   4.039   1.508   1.892  0.0517  1.1023  0.8744
 7630SOL     OW23788   3.348   0.666   5.622 -0.1561  0.0687 -0.1248
 7630SOL    HW123789   3.311   0.756   5.597  0.3406  0.3229  0.0407
 7630SOL    HW223790   3.387   0.671   5.714  0.1856 -0.2232 -0.2531
 7631SOL     OW23791   5.846   0.758   4.371 -0.2972  0.1649  0.1299
 7631SOL    HW123792   5.916   0.795   4.432 -1.2744  0.5832  1.0409
 7631SOL    HW223793   5.883   0.681   4.319  1.1231  1.0117 -0.1552
 7632SOL     OW23794   6.438   1.595   6.135 -0.2207  0.0890 -0.0176
 7632SOL    HW123795   6.534   1.567   6.136 -0.6626 -1.5341  0.4150
 7632SOL    HW223796   6.380   1.515   6.118 -1.5560  0.7919  1.0129
 7633SOL     OW23797   1.306   5.100   5.213  0.0119  0.3003 -0.5725
 7633SOL    HW123798   1.398   5.067   5.235 -1.0500 -1.0891  2.3916
 7633SOL    HW223799   1.282   5.174   5.276 -0.8697  0.7598 -1.4184
 7634SOL     OW23800   1.987   4.490   1.431  0.7090 -0.4153 -0.0714
 7634SOL    HW123801   1.953   4.454   1.344  1.8802  0.8100 -1.0720
 7634SOL    HW223802   1.912   4.534   1.480  0.1985 -0.4349 -0.8163
 7635SOL     OW23803   1.902   0.161   5.120  0.0074  0.2744  0.0265
 7635SOL    HW123804   1.859   0.086   5.069  1.3250 -0.0348 -0.6846
 7635SOL    HW223805   2.001   0.161   5.102  0.6732 -0.2858  3.1260
 7636SOL     OW23806   5.190   5.920   4.197  0.7236  0.3762 -0.4003
 7636SOL    HW123807   5.286   5.894   4.189  0.3934 -0.9637 -0.2886
 7636SOL    HW223808   5.167   5.988   4.127  1.2595 -0.8248 -1.7862
 7637SOL     OW23809   5.365   1.801   2.994  0.1631 -0.4865  0.2509
 7637SOL    HW123810   5.388   1.705   2.977  4.1455  0.4565 -0.7525
 7637SOL    HW223811   5.311   1.809   3.078 -0.2466 -3.5388  0.3685
 7638SOL     OW23812   2.157   1.696   5.415 -0.7389  0.1029  0.3462
 7638SOL    HW123813   2.187   1.611   5.459 -2.0311 -0.7827 -0.4165
 7638SOL    HW223814   2.183   1.773   5.472  2.2994 -0.6018  0.0947
 7639SOL     OW23815   5.448   4.864   3.007  0.0096 -0.1826  0.3157
 7639SOL    HW123816   5.438   4.829   3.100 -0.4093  0.4504  0.5178
 7639SOL    HW223817   5.488   4.793   2.949 -2.7206 -1.7693  0.2027
 7640SOL     OW23818   6.423   5.913   3.140 -0.5163 -0.0149 -0.0314
 7640SOL    HW123819   6.394   5.871   3.055  0.4668  0.2246 -0.4902
 7640SOL    HW223820   6.515   5.949   3.131 -0.8057  1.0070  0.7848
 7641SOL     OW23821   2.125   6.012   4.582 -0.6208  0.0953 -0.4591
 7641SOL    HW123822   2.220   6.026   4.552 -0.3979 -0.3760  0.0170
 7641SOL    HW223823   2.123   5.948   4.658 -1.4046 -0.5634 -1.0162
 7642SOL     OW23824   3.362   4.186   6.438  0.1570 -0.6087 -0.2314
 7642SOL    HW123825   3.351   4.194   6.537  0.3765 -0.6306 -0.2026
 7642SOL    HW223826   3.309   4.257   6.392  0.4867 -0.2515 -0.0721
 7643SOL     OW23827   0.368   1.380   4.927  0.1356  0.3032 -0.0746
 7643SOL    HW123828   0.314   1.416   4.851 -0.9778 -0.9583  0.0816
 7643SOL    HW223829   0.336   1.289   4.950  1.7361 -0.1067  0.6676
 7644SOL     OW23830   6.741   4.760   1.289  0.0075 -0.0463  0.4033
 7644SOL    HW123831   6.698   4.706   1.360  1.6583 -0.7026  0.9501
 7644SOL    HW223832   6.825   4.801   1.324  1.1721 -0.8449 -1.2877
 7645SOL     OW23833   0.063   0.815   4.769 -0.3434 -0.3359  0.0683
 7645SOL    HW123834   0.077   0.860   4.681 -1.6315  1.0770  0.5302
 7645SOL    HW223835   0.115   0.729   4.772  4.5874  2.3104  0.1895
 7646SOL     OW23836   0.287   0.283   0.701  0.3644 -0.0606  0.4346
 7646SOL    HW123837   0.302   0.375   0.736  2.9382 -0.5353  0.8066
 7646SOL    HW223838   0.269   0.286   0.603  0.4050  0.8325  0.4538
 7647SOL     OW23839   6.900   1.840   1.805  0.1283 -1.2123  0.5693
 7647SOL    HW123840   6.912   1.930   1.763  1.9382 -1.0124  1.4476
 7647SOL    HW223841   6.954   1.834   1.889  0.3905 -3.2639  0.3143
 7648SOL     OW23842   6.416   4.471   5.897 -0.2594  0.3426 -0.0384
 7648SOL    HW123843   6.485   4.448   5.828 -0.5385 -1.7450  0.3166
 7648SOL    HW223844   6.346   4.529   5.856  1.0593  1.5214 -0.7172
 7649SOL     OW23845   4.776   1.655   3.881  0.2013  0.4547  0.1193
 7649SOL    HW123846   4.703   1.613   3.828 -0.4033  1.1097  0.4085
 7649SOL    HW223847   4.788   1.750   3.851  1.4098  0.1512 -0.3965
 7650SOL     OW23848   3.688   5.468   0.466  0.0214  0.6228 -0.3335
 7650SOL    HW123849   3.760   5.506   0.523  1.3484 -0.8484 -0.9447
 7650SOL    HW223850   3.720   5.459   0.372 -0.2711 -1.6805 -0.2797
 7651SOL     OW23851   2.882   5.603   2.118 -0.0409  0.0404  0.2176
 7651SOL    HW123852   2.955   5.575   2.181  0.0641  0.4305  0.2716
 7651SOL    HW223853   2.920   5.619   2.027 -0.2396 -0.7974 -0.0217
 7652SOL     OW23854   3.913   5.226   4.333  0.0487 -0.0018  0.2327
 7652SOL    HW123855   3.868   5.258   4.416 -0.5302  2.2274 -0.8570
 7652SOL    HW223856   3.844   5.203   4.264  0.5385  0.1114 -0.3024
 7653SOL     OW23857   1.061   6.109   3.999  0.1972 -0.0531  0.2787
 7653SOL    HW123858   1.014   6.153   3.923  1.3482  1.2209  0.2742
 7653SOL    HW223859   1.131   6.170   4.035  1.9732 -1.9527  0.1934
 7654SOL     OW23860   1.731   3.829   5.506 -0.0920 -0.0404 -0.2791
 7654SOL    HW123861   1.645   3.782   5.523  0.0434 -0.2480 -0.1582
 7654SOL    HW223862   1.801   3.762   5.479  0.4349 -0.1053  1.1100
 7655SOL     OW23863   6.379   4.610   2.490 -0.0278  0.2032  0.2337
 7655SOL    HW123864   6.283   4.615   2.462 -1.0641  1.2225  3.4919
 7655SOL    HW223865   6.385   4.581   2.585  2.8032  1.6254  0.6196
 7656SOL     OW23866   3.230   1.964   3.855 -0.0730 -0.1477 -0.1965
 7656SOL    HW123867   3.322   1.928   3.841 -0.5512 -1.4827 -0.0674
 7656SOL    HW223868   3.185   1.911   3.927 -0.8420  0.6944 -0.0437
 7657SOL     OW23869   2.037   0.347   4.589  0.1885  0.2408  0.4128
 7657SOL    HW123870   1.951   0.339   4.539 -0.2275  0.6531  1.0633
 7657SOL    HW223871   2.063   0.257   4.624 -0.7893  0.3817  1.5526
 7658SOL     OW23872   4.208   5.342   1.718 -0.0933  0.4743  0.0880
 7658SOL    HW123873   4.253   5.288   1.647 -1.0400  0.5482 -0.5923
 7658SOL    HW223874   4.258   5.333   1.804  0.8958  0.1300 -0.5045
 7659SOL     OW23875   5.100   2.272   0.865 -0.5850 -0.7187  0.0488
 7659SOL    HW123876   5.173   2.273   0.933 -0.7300 -0.4410  0.2030
 7659SOL    HW223877   5.121   2.338   0.793 -1.4743  0.5761  0.9418
 7660SOL     OW23878   5.774   5.478   4.342 -0.3360 -0.8381  0.1067
 7660SOL    HW123879   5.869   5.507   4.324 -0.5490 -0.2410 -0.0855
 7660SOL    HW223880   5.773   5.419   4.423  0.5923 -3.3064 -1.5739
 7661SOL     OW23881   4.219   5.720   6.323 -0.2205  0.1752 -0.1250
 7661SOL    HW123882   4.121   5.739   6.316 -0.1671  0.0230 -1.6845
 7661SOL    HW223883   4.239   5.684   6.414 -1.3178  1.7965  0.8048
 7662SOL     OW23884   5.326   6.059   5.037 -0.0360  0.5759 -0.0101
 7662SOL    HW123885   5.253   6.076   5.103  0.0011  2.5402 -0.4038
 7662SOL    HW223886   5.287   6.034   4.949 -0.0981 -1.5996  0.5883
 7663SOL     OW23887   5.431   1.201   1.170  0.5463  0.4025  0.2657
 7663SOL    HW123888   5.516   1.176   1.215  1.7059  2.3882 -0.6690
 7663SOL    HW223889   5.441   1.290   1.127 -1.9903  0.6536  0.0039
 7664SOL     OW23890   4.474   5.611   1.002  0.6662  0.0996  0.2467
 7664SOL    HW123891   4.492   5.522   1.044 -0.0528  0.5132  1.4747
 7664SOL    HW223892   4.524   5.682   1.051  0.2365  0.5287  0.0649
 7665SOL     OW23893   5.238   5.127   4.855 -0.0046  0.2875  0.4005
 7665SOL    HW123894   5.235   5.226   4.842  2.3634  0.1913 -1.7130
 7665SOL    HW223895   5.209   5.081   4.771  0.7197 -0.7903  0.7158
 7666SOL     OW23896   2.504   2.038   6.480 -0.3140 -0.4294  0.2743
 7666SOL    HW123897   2.429   2.060   6.542  1.2741  0.7376  1.8762
 7666SOL    HW223898   2.588   2.080   6.513  1.1342 -1.9149 -1.3053
 7667SOL     OW23899   6.074   5.786   4.605 -0.2911 -0.2542 -0.9328
 7667SOL    HW123900   6.081   5.781   4.506 -3.2346 -0.5279 -1.2098
 7667SOL    HW223901   6.084   5.881   4.634 -0.1271 -0.0740 -1.5623
 7668SOL     OW23902   5.036   1.913   3.621 -0.0332  0.1352  0.1378
 7668SOL    HW123903   5.005   2.000   3.584  0.5647  0.0991 -0.4601
 7668SOL    HW223904   4.988   1.895   3.707 -0.2647  0.9832  0.1997
 7669SOL     OW23905   1.978   1.664   2.010 -0.1932  0.1512 -0.2809
 7669SOL    HW123906   2.077   1.661   2.021  0.3800  0.9904 -3.8591
 7669SOL    HW223907   1.944   1.751   2.047  0.9723  1.3069 -1.7395
 7670SOL     OW23908   1.463   2.359   6.838 -0.2132 -0.7051 -0.4501
 7670SOL    HW123909   1.474   2.339   6.741 -1.2154 -2.6415 -0.2227
 7670SOL    HW223910   1.547   2.335   6.887 -0.2691 -1.3169 -0.6408
 7671SOL     OW23911   2.102   2.655   0.274 -0.7069 -0.4986  0.0584
 7671SOL    HW123912   2.099   2.679   0.177 -1.6754  0.3685  0.2877
 7671SOL    HW223913   2.156   2.723   0.323 -0.5021 -0.7521  0.1892
 7672SOL     OW23914   1.352   4.014   2.846  0.0965 -0.0882  0.0593
 7672SOL    HW123915   1.298   4.013   2.931 -0.8062  1.0026 -0.4726
 7672SOL    HW223916   1.436   4.066   2.861  1.1271 -1.9088  0.9317
 7673SOL     OW23917   1.476   1.650   5.360  0.0964  0.0416 -0.4824
 7673SOL    HW123918   1.436   1.574   5.309  0.0139 -0.5912  0.5071
 7673SOL    HW223919   1.415   1.675   5.436  0.3111  0.8347 -0.5665
 7674SOL     OW23920   5.330   0.031   3.351  0.9833  0.5190 -0.3069
 7674SOL    HW123921   5.305  -0.040   3.285  0.3330 -1.2999  1.7802
 7674SOL    HW223922   5.267   0.029   3.428  3.1254  0.8866  1.5671
 7675SOL     OW23923   4.391   6.137   5.498  0.0668  0.2362 -0.4648
 7675SOL    HW123924   4.298   6.099   5.491  0.1387 -0.0230 -0.1014
 7675SOL    HW223925   4.416   6.144   5.595  0.3709  0.4451 -0.5583
 7676SOL     OW23926   3.883   3.610   3.476  0.3649 -0.5969 -0.6134
 7676SOL    HW123927   3.899   3.661   3.392 -0.6502 -1.0740 -1.1016
 7676SOL    HW223928   3.796   3.637   3.516  0.3481 -1.1316 -0.2727
 7677SOL     OW23929   3.050   1.797   4.808 -0.0059 -0.5053 -0.5057
 7677SOL    HW123930   3.095   1.877   4.847  0.1797 -1.5334  1.5099
 7677SOL    HW223931   3.119   1.728   4.787 -0.3645 -0.9959 -0.0939
 7678SOL     OW23932   0.934   3.526   4.644 -0.2325 -0.2075  0.8408
 7678SOL    HW123933   0.887   3.451   4.598 -0.4074  0.3612  0.0707
 7678SOL    HW223934   0.914   3.612   4.597 -0.3229  0.3785  1.9181
 7679SOL     OW23935   0.321   0.601   2.711  0.9728 -0.1830  0.0622
 7679SOL    HW123936   0.384   0.676   2.689  1.6616 -0.8309 -0.2126
 7679SOL    HW223937   0.363   0.514   2.687  0.9280 -0.8080  2.0125
 7680SOL     OW23938   3.832   5.467   5.188 -0.4783  0.7154  0.2674
 7680SOL    HW123939   3.779   5.505   5.264 -0.8950 -0.6491  0.6869
 7680SOL    HW223940   3.928   5.495   5.198 -0.5947  0.8670  1.0903
 7681SOL     OW23941   1.956   0.594   4.298 -0.1342 -0.1330 -0.2984
 7681SOL    HW123942   1.887   0.664   4.280 -0.1080 -0.3537 -1.3446
 7681SOL    HW223943   1.967   0.537   4.216 -0.8803 -2.0096  0.8462
 7682SOL     OW23944   4.696   6.790   2.854 -0.1106 -0.5213 -0.2916
 7682SOL    HW123945   4.783   6.811   2.899  0.6090 -1.7308 -1.0705
 7682SOL    HW223946   4.713   6.763   2.759 -1.4109 -0.0775 -0.6688
 7683SOL     OW23947   0.890   0.176   6.209  0.7095  0.0827  0.5120
 7683SOL    HW123948   0.878   0.077   6.221 -2.2252  0.2965 -0.0261
 7683SOL    HW223949   0.929   0.216   6.292  0.6625 -1.3230  1.2340
 7684SOL     OW23950   0.074   1.521   0.963  0.0058 -0.0241  0.3978
 7684SOL    HW123951   0.141   1.499   0.892 -0.7355 -0.9197 -0.0391
 7684SOL    HW223952   0.122   1.538   1.049  0.7476 -1.9798  0.4252
 7685SOL     OW23953   3.841   2.106   1.673 -0.1486 -0.0362 -0.3998
 7685SOL    HW123954   3.865   2.075   1.765  0.3347  0.2319 -0.4357
 7685SOL    HW223955   3.777   2.183   1.680 -1.5900 -1.1827 -0.3100
 7686SOL     OW23956   0.955   1.324   2.401  0.1418 -0.2300 -0.2801
 7686SOL    HW123957   0.861   1.349   2.380 -0.2958 -0.4601  1.2906
 7686SOL    HW223958   1.016   1.399   2.374 -0.6113  0.3687 -0.3579
 7687SOL     OW23959   4.285   5.377   1.991  0.2941  0.6768 -0.3515
 7687SOL    HW123960   4.237   5.464   1.981  0.1662  0.6877  0.2787
 7687SOL    HW223961   4.348   5.382   2.069 -0.9527 -0.3272  0.7767
 7688SOL     OW23962   5.915   3.812   6.071  0.0162  0.1853  0.0176
 7688SOL    HW123963   5.995   3.830   6.128  1.1656 -1.5387 -0.9360
 7688SOL    HW223964   5.848   3.761   6.124  0.9093 -1.0600  0.0119
 7689SOL     OW23965   5.902   2.147   0.780  0.1124  0.3532  0.0791
 7689SOL    HW123966   5.987   2.194   0.803 -0.0460  0.0468  1.3337
 7689SOL    HW223967   5.857   2.196   0.705  0.6485  1.3791  0.4056
 7690SOL     OW23968   4.315   0.291   5.542  0.3450  0.3142  0.1767
 7690SOL    HW123969   4.245   0.220   5.555  1.5416 -1.4559 -2.2462
 7690SOL    HW223970   4.276   0.367   5.490 -0.6253  0.9358  1.7494
 7691SOL     OW23971   2.034   1.097   6.146  0.1229 -0.1560 -0.6427
 7691SOL    HW123972   2.001   1.004   6.125  2.1076 -0.5637 -2.2241
 7691SOL    HW223973   1.981   1.163   6.094  0.0909 -0.5891 -1.1731
 7692SOL     OW23974   1.742   3.018   0.905  0.0085 -0.6646  0.4229
 7692SOL    HW123975   1.650   2.979   0.908 -0.3871  0.2488  0.5839
 7692SOL    HW223976   1.740   3.111   0.942  0.3358  0.6817 -2.6397
 7693SOL     OW23977   5.858   3.465   5.286 -0.3760  0.7148  0.7049
 7693SOL    HW123978   5.926   3.496   5.220 -1.8037 -2.1023 -2.3422
 7693SOL    HW223979   5.905   3.427   5.366  1.6575 -0.4172 -0.9377
 7694SOL     OW23980   0.591   3.706   3.409  0.4214 -0.0710 -0.2060
 7694SOL    HW123981   0.680   3.748   3.429  1.0516 -1.8386  0.9320
 7694SOL    HW223982   0.605   3.612   3.378 -1.0293 -0.0677 -0.9729
 7695SOL     OW23983   5.952   4.583   1.266  0.2375 -0.3890 -0.1762
 7695SOL    HW123984   5.883   4.652   1.285  0.8186  0.0410  0.4040
 7695SOL    HW223985   5.908   4.494   1.255 -0.2310 -0.5301  2.3668
 7696SOL     OW23986   6.456   6.773   2.114 -0.4258 -0.3061  0.1669
 7696SOL    HW123987   6.415   6.797   2.202  0.3107 -1.4357  0.8380
 7696SOL    HW223988   6.389   6.724   2.058 -0.9240  0.4958  0.0438
 7697SOL     OW23989   0.607   1.236   1.001 -0.2544  1.1915 -0.2696
 7697SOL    HW123990   0.646   1.302   1.065  0.1016  1.7563 -1.0480
 7697SOL    HW223991   0.515   1.210   1.032 -0.0205  1.3221  0.5510
 7698SOL     OW23992   1.849   1.862   1.073  0.1255  0.1354  0.2006
 7698SOL    HW123993   1.767   1.912   1.044  0.9458  1.5079  0.1509
 7698SOL    HW223994   1.876   1.799   1.000  0.2921  1.1771 -0.6659
 7699SOL     OW23995   3.250   4.671   6.822 -0.6945 -0.2306 -0.3320
 7699SOL    HW123996   3.176   4.610   6.794 -0.2636 -0.5849 -0.7225
 7699SOL    HW223997   3.213   4.762   6.842 -1.4360 -0.7785  0.8836
 7700SOL     OW23998   4.030   5.323   2.232 -0.5014 -0.4778 -0.0061
 7700SOL    HW123999   4.127   5.324   2.256 -0.1141  0.7225 -1.5240
 7700SOL    HW224000   4.016   5.262   2.154 -0.5847  0.9883 -1.1778
 7701SOL     OW24001   3.499   1.648   6.166 -0.2058  0.4029  0.8281
 7701SOL    HW124002   3.401   1.656   6.186 -0.4125  0.5001 -0.1533
 7701SOL    HW224003   3.511   1.626   6.069  0.7593  1.0887  0.7763
 7702SOL     OW24004   4.772   4.642   3.243 -0.2383 -0.1260 -0.3824
 7702SOL    HW124005   4.706   4.715   3.229 -1.3257 -0.8474  0.8265
 7702SOL    HW224006   4.725   4.554   3.246  0.8538 -0.7259 -0.1096
 7703SOL     OW24007   6.643   4.557   0.166  0.2357 -0.0818 -0.0961
 7703SOL    HW124008   6.696   4.641   0.175  2.0948 -1.0674 -1.1004
 7703SOL    HW224009   6.628   4.538   0.069 -1.4338 -0.1819  0.1572
 7704SOL     OW24010   0.674   2.574   3.816  0.1908 -0.0080  0.0533
 7704SOL    HW124011   0.648   2.572   3.720 -2.0090 -1.1079  0.5961
 7704SOL    HW224012   0.595   2.601   3.871  0.6199 -1.9231  1.7240
 7705SOL     OW24013   5.068   3.124   6.667  0.2308 -1.3043 -0.7017
 7705SOL    HW124014   5.070   3.024   6.665  2.1496 -1.2788 -2.2388
 7705SOL    HW224015   5.129   3.156   6.739 -0.6844 -1.1990  0.0566
 7706SOL     OW24016   4.423   3.576   6.310  0.0447  0.2768  0.1509
 7706SOL    HW124017   4.484   3.501   6.284  1.0238  1.4970 -1.1968
 7706SOL    HW224018   4.390   3.561   6.404 -0.9894 -2.5818 -0.5567
 7707SOL     OW24019   5.177   1.366   1.590  0.0668 -0.3408 -0.1960
 7707SOL    HW124020   5.273   1.343   1.572 -0.4204 -1.3321 -1.7410
 7707SOL    HW224021   5.122   1.341   1.511 -1.3459  1.1389  0.2652
 7708SOL     OW24022   2.321   2.890   5.575  0.2680  0.3902  0.5429
 7708SOL    HW124023   2.369   2.804   5.561 -0.0177 -0.0035  1.8646
 7708SOL    HW224024   2.341   2.952   5.499 -1.2328 -1.5694 -1.5825
 7709SOL     OW24025   1.589   4.918   5.555  0.7466 -0.3368  0.3689
 7709SOL    HW124026   1.612   4.843   5.617  1.2869  0.4067  1.0964
 7709SOL    HW224027   1.508   4.966   5.590  0.9837  0.0137  0.4382
 7710SOL     OW24028   6.136   4.379   2.991 -0.3132  0.2837 -0.0168
 7710SOL    HW124029   6.157   4.328   3.074  2.2273  1.9289  0.4420
 7710SOL    HW224030   6.133   4.316   2.913 -0.9260 -1.0253  1.0360
 7711SOL     OW24031   0.154   0.801   4.209 -0.1855 -0.5066  0.4315
 7711SOL    HW124032   0.102   0.731   4.161 -1.5057 -0.0244  1.1019
 7711SOL    HW224033   0.196   0.863   4.143  1.3267 -2.1082 -0.1892
 7712SOL     OW24034   1.544   1.343   3.095  0.1641  0.1643 -0.2614
 7712SOL    HW124035   1.491   1.308   3.017 -0.0810  1.7577 -0.8480
 7712SOL    HW224036   1.509   1.302   3.180 -0.6843 -0.3131 -0.8263
 7713SOL     OW24037   5.862   5.552   3.827  0.0674  0.4539  0.7042
 7713SOL    HW124038   5.926   5.487   3.785 -0.2776 -0.4131  1.4798
 7713SOL    HW224039   5.819   5.509   3.906 -0.3290  1.5730  1.1099
 7714SOL     OW24040   0.079   4.141   4.875  0.4372  0.0449  0.1414
 7714SOL    HW124041   0.168   4.154   4.919  0.6737  1.3164 -0.6751
 7714SOL    HW224042   0.017   4.215   4.902  0.7679  1.1957 -2.0265
 7715SOL     OW24043   1.405   0.813   0.479  0.3083 -0.0823 -0.0999
 7715SOL    HW124044   1.490   0.769   0.507  0.3748  0.1133  0.0031
 7715SOL    HW224045   1.408   0.832   0.381  0.4853  0.1538 -0.0491
 7716SOL     OW24046   2.432   6.883   0.267 -0.4295 -0.6633  0.3228
 7716SOL    HW124047   2.526   6.852   0.281  0.2321  1.2561  0.4866
 7716SOL    HW224048   2.416   6.966   0.321 -1.5750  0.1753 -1.2197
 7717SOL     OW24049   4.365   0.940   5.637  0.2478  0.1434  0.0926
 7717SOL    HW124050   4.359   1.022   5.579 -0.9338  0.1645  0.2247
 7717SOL    HW224051   4.288   0.880   5.617  1.0397 -0.8935  0.0861
 7718SOL     OW24052   4.865   6.148   5.264  0.5636  0.2189 -0.4191
 7718SOL    HW124053   4.881   6.199   5.349  1.0373  0.0389 -0.3980
 7718SOL    HW224054   4.796   6.078   5.280 -0.6345  1.3095 -0.6297
 7719SOL     OW24055   6.291   6.345   6.164  0.2708 -0.6978 -0.1110
 7719SOL    HW124056   6.199   6.369   6.133  1.6088  1.4457 -2.8360
 7719SOL    HW224057   6.323   6.265   6.114  0.6779 -0.1180 -0.7869
 7720SOL     OW24058   4.533   5.920   3.974 -0.5933  0.1062  0.0356
 7720SOL    HW124059   4.504   5.854   4.044 -0.2446 -0.0115  0.0670
 7720SOL    HW224060   4.459   5.931   3.908 -0.3477 -0.9416 -0.4363
 7721SOL     OW24061   3.090   4.531   1.575 -0.6170 -0.4260 -0.6388
 7721SOL    HW124062   3.025   4.455   1.583 -0.3881 -0.7782 -1.9744
 7721SOL    HW224063   3.176   4.506   1.619 -0.7032 -0.7470 -0.6486
 7722SOL     OW24064   2.370   4.662   1.411 -0.0777  0.2350 -0.0009
 7722SOL    HW124065   2.446   4.724   1.431 -0.2319  0.1372  0.9376
 7722SOL    HW224066   2.395   4.603   1.335 -0.4432  2.3535 -1.8859
 7723SOL     OW24067   0.652   0.099   2.036  0.0250 -0.0006 -0.6269
 7723SOL    HW124068   0.573   0.054   1.995 -0.8539 -0.3062  1.2835
 7723SOL    HW224069   0.734   0.077   1.983 -1.2641  1.2718 -3.3460
 7724SOL     OW24070   1.260   0.899   6.046  0.7299  0.0430 -0.0871
 7724SOL    HW124071   1.334   0.965   6.036  0.9043  0.4828  3.0044
 7724SOL    HW224072   1.296   0.806   6.038  1.6265  0.2571  1.2035
 7725SOL     OW24073   1.012   1.258   4.874 -0.9851 -1.0404 -0.1050
 7725SOL    HW124074   0.959   1.322   4.818 -1.5653 -1.5278 -0.1188
 7725SOL    HW224075   1.012   1.168   4.831 -0.5008 -1.1509  0.1199
 7726SOL     OW24076   1.397   4.245   0.388 -0.4166  0.8367 -0.2664
 7726SOL    HW124077   1.387   4.250   0.487 -0.0048  0.5899 -0.2090
 7726SOL    HW224078   1.345   4.167   0.352  2.4295 -1.4518  0.2174
 7727SOL     OW24079   1.052   6.538   6.642  0.0695  0.5473  0.5993
 7727SOL    HW124080   1.022   6.596   6.718  0.9192  0.6767  0.8420
 7727SOL    HW224081   0.987   6.462   6.631  0.5081 -0.1080  2.1853
 7728SOL     OW24082   0.215   4.106   2.623 -0.3438 -0.2092  0.2398
 7728SOL    HW124083   0.293   4.154   2.664  1.5623 -2.0913 -0.9573
 7728SOL    HW224084   0.131   4.155   2.644  1.1179  1.8391  1.7346
 7729SOL     OW24085   4.882   1.698   1.969 -0.1515 -0.1815 -0.0050
 7729SOL    HW124086   4.934   1.654   1.895  1.3827  0.7038  0.5031
 7729SOL    HW224087   4.849   1.787   1.938  0.9906  0.4514  0.5075
 7730SOL     OW24088   0.544   0.141   1.190 -0.4461  0.2553 -0.0935
 7730SOL    HW124089   0.601   0.206   1.139  0.1324 -0.2377 -0.0896
 7730SOL    HW224090   0.597   0.101   1.265 -0.0195 -1.9174 -1.4516
 7731SOL     OW24091   4.782   2.892   5.223  0.4850 -0.4178 -0.0691
 7731SOL    HW124092   4.777   2.848   5.133  0.5254  0.4983 -0.5347
 7731SOL    HW224093   4.817   2.827   5.290 -0.7356 -1.5024 -0.4426
 7732SOL     OW24094   5.538   2.336   4.688  0.1746 -0.3364 -0.3981
 7732SOL    HW124095   5.558   2.280   4.608 -0.3048 -1.1311  0.0200
 7732SOL    HW224096   5.612   2.329   4.754 -0.7286 -2.0972  0.5094
 7733SOL     OW24097   3.897   0.973   2.958 -0.0027 -0.7454 -0.0079
 7733SOL    HW124098   3.857   1.025   3.034  1.3156 -0.5284  0.5659
 7733SOL    HW224099   3.899   0.876   2.982  0.5618 -0.6587  0.3178
 7734SOL     OW24100   5.262   5.896   2.740  0.2284 -0.5528 -0.1811
 7734SOL    HW124101   5.346   5.931   2.698  2.7961 -1.8753  3.4497
 7734SOL    HW224102   5.253   5.799   2.720  0.2818 -0.7003  0.5014
 7735SOL     OW24103   2.881   7.026   4.391 -0.6994  0.1689  0.5386
 7735SOL    HW124104   2.826   7.016   4.474 -1.0129 -0.7496  0.2383
 7735SOL    HW224105   2.867   7.117   4.353 -0.4256  0.6569  1.5749
 7736SOL     OW24106   0.984   5.448   6.335 -0.1435 -0.6528 -0.1757
 7736SOL    HW124107   0.890   5.438   6.368  0.5076 -0.1759  2.0307
 7736SOL    HW224108   1.004   5.545   6.321  0.3140 -0.6641  0.3609
 7737SOL     OW24109   3.345   3.385   4.296 -0.6611  0.3519 -0.4030
 7737SOL    HW124110   3.373   3.346   4.383  0.6131 -0.5377 -1.1730
 7737SOL    HW224111   3.284   3.462   4.312  2.0947  2.3399  1.4082
 7738SOL     OW24112   2.595   2.964   5.693 -0.4090 -0.0931  0.2953
 7738SOL    HW124113   2.625   2.873   5.720 -2.0071 -0.7020  0.0978
 7738SOL    HW224114   2.497   2.963   5.674  0.0009  1.0477 -2.3064
 7739SOL     OW24115   4.777   0.010   0.561  0.8216 -0.3558 -0.7438
 7739SOL    HW124116   4.691  -0.033   0.534 -0.0475  1.1204 -0.4070
 7739SOL    HW224117   4.777   0.106   0.533  1.5559  0.1814  0.9533
 7740SOL     OW24118   5.977   5.311   6.545  0.0551  0.1810 -0.3495
 7740SOL    HW124119   5.904   5.281   6.484 -0.2973 -0.4472  0.3602
 7740SOL    HW224120   6.049   5.356   6.492 -0.6836  0.5071 -1.1002
 7741SOL     OW24121   6.016   4.206   0.557  0.4804 -0.0172 -0.3261
 7741SOL    HW124122   5.928   4.212   0.603  0.4406 -0.2338 -0.3733
 7741SOL    HW224123   6.063   4.123   0.586  0.3447 -0.2872 -0.8752
 7742SOL     OW24124   5.992   3.133   6.104 -0.1575  0.3321  0.0684
 7742SOL    HW124125   5.899   3.121   6.068  0.0855  2.9346 -1.6968
 7742SOL    HW224126   6.058   3.105   6.034  0.4624 -1.4600  1.2963
 7743SOL     OW24127   4.287   6.028   1.781  0.1714  0.7360 -0.2716
 7743SOL    HW124128   4.312   5.997   1.689  1.2908  0.7974  0.0024
 7743SOL    HW224129   4.187   6.036   1.787  0.1274  2.1705 -1.9628
 7744SOL     OW24130   2.989   4.439   1.055  0.0572  0.0607 -0.2183
 7744SOL    HW124131   2.998   4.510   0.985  0.5474  0.1814 -0.0331
 7744SOL    HW224132   3.035   4.468   1.139 -0.3726 -0.1630  0.0979
 7745SOL     OW24133   5.602   0.388   0.489 -0.6814  0.1079  0.7837
 7745SOL    HW124134   5.545   0.465   0.458 -2.1413 -0.4352  1.9898
 7745SOL    HW224135   5.574   0.361   0.581  0.4559 -1.2787  0.7583
 7746SOL     OW24136   5.035   1.567   1.793  0.4756  0.0801 -0.1824
 7746SOL    HW124137   5.055   1.622   1.712 -1.1263  0.1343 -0.5700
 7746SOL    HW224138   5.056   1.471   1.775  1.6671  0.2934 -0.0720
 7747SOL     OW24139   4.229   4.165   1.062  0.1763 -0.2250  0.4364
 7747SOL    HW124140   4.228   4.251   1.112 -2.3155  0.7384 -1.0380
 7747SOL    HW224141   4.266   4.092   1.120  3.7722  2.0214  1.2310
 7748SOL     OW24142   1.661   2.172   6.899 -0.0606  0.6821 -0.4489
 7748SOL    HW124143   1.607   2.115   6.962 -1.6333  1.9496 -0.5962
 7748SOL    HW224144   1.688   2.117   6.820  1.5000 -0.7976  1.0390
 7749SOL     OW24145   5.485   0.912   5.625  0.0527  0.4366 -0.5134
 7749SOL    HW124146   5.491   0.919   5.724 -1.8045  1.8169 -0.4328
 7749SOL    HW224147   5.532   0.990   5.583  0.4083  0.1263 -0.6918
 7750SOL     OW24148   4.071   0.728   4.210 -1.0201  0.3844 -0.6502
 7750SOL    HW124149   4.140   0.792   4.174 -2.1902  1.7083 -0.6426
 7750SOL    HW224150   3.993   0.780   4.245 -0.5968 -0.9254  2.4832
 7751SOL     OW24151   5.920   7.005   6.917 -0.5843 -0.2329 -0.3756
 7751SOL    HW124152   5.884   7.098   6.921  1.7621  0.7456 -0.2636
 7751SOL    HW224153   5.923   6.974   6.822 -2.1466 -0.5612 -0.3432
 7752SOL     OW24154   5.512   4.657   2.807 -0.2289 -0.2711  0.3587
 7752SOL    HW124155   5.549   4.662   2.715 -0.6083 -0.9050  0.1673
 7752SOL    HW224156   5.586   4.670   2.873  0.2396 -0.9331 -0.0249
 7753SOL     OW24157   1.265   5.327   1.854  0.5377  0.0572  0.1459
 7753SOL    HW124158   1.303   5.373   1.774 -0.7783  0.1644 -0.4332
 7753SOL    HW224159   1.192   5.265   1.827  0.6167 -0.5223  1.1829
 7754SOL     OW24160   2.833   4.683   0.468  0.6620 -0.4307 -0.8829
 7754SOL    HW124161   2.810   4.609   0.530  0.1469 -0.0866 -0.6556
 7754SOL    HW224162   2.917   4.661   0.418  0.7969 -0.9299 -0.4353
 7755SOL     OW24163   6.726   1.862   0.783 -0.6190  0.2336  0.0758
 7755SOL    HW124164   6.739   1.960   0.796 -1.0468  0.2305  0.5664
 7755SOL    HW224165   6.772   1.812   0.856  0.7466 -0.0078 -0.9146
 7756SOL     OW24166   0.222   3.453   2.930  0.4277  0.5828  0.2617
 7756SOL    HW124167   0.207   3.543   2.971  0.2859  0.5279  0.3297
 7756SOL    HW224168   0.200   3.457   2.832 -0.7180  0.3253  0.4972
 7757SOL     OW24169   6.279   5.496   4.527 -0.1090 -0.4341 -0.5114
 7757SOL    HW124170   6.243   5.414   4.482  0.9326 -1.6763  0.7958
 7757SOL    HW224171   6.221   5.520   4.604 -1.2747  1.0357 -1.7793
 7758SOL     OW24172   1.182   2.292   4.017  0.2600  0.1094  0.6113
 7758SOL    HW124173   1.210   2.348   4.095  0.6640  0.9551 -0.1327
 7758SOL    HW224174   1.209   2.337   3.932 -3.0198  0.8384 -0.1705
 7759SOL     OW24175   1.140   1.428   5.063 -0.2048 -0.2246 -0.4848
 7759SOL    HW124176   1.073   1.365   5.026 -1.2316 -0.8453  2.1896
 7759SOL    HW224177   1.108   1.522   5.052 -1.3295 -0.4932  0.3390
 7760SOL     OW24178   0.461   2.445   0.824  1.1709 -0.4259 -0.2161
 7760SOL    HW124179   0.458   2.423   0.921 -0.1464  1.8411  0.3340
 7760SOL    HW224180   0.546   2.493   0.803  0.5629  0.9634  0.3375
 7761SOL     OW24181   1.316   6.664   4.595  0.5144  0.2534  0.6461
 7761SOL    HW124182   1.273   6.614   4.520  1.8759 -0.2201  0.1671
 7761SOL    HW224183   1.292   6.621   4.682  0.0177  0.0037  0.3896
 7762SOL     OW24184   4.156   2.267   3.421  0.8122 -0.4227  0.0940
 7762SOL    HW124185   4.226   2.256   3.492  2.3155  1.9853 -0.9139
 7762SOL    HW224186   4.084   2.328   3.455  0.3290 -1.1249  0.3456
 7763SOL     OW24187   4.395   3.813   0.836  0.0514  0.1001 -0.2268
 7763SOL    HW124188   4.486   3.789   0.800 -0.1062 -0.3967 -0.2952
 7763SOL    HW224189   4.388   3.912   0.842 -0.0368  0.2225 -1.8906
 7764SOL     OW24190   6.466   5.534   6.045  0.4334 -0.6356 -0.3378
 7764SOL    HW124191   6.477   5.557   6.142 -1.5154 -0.2546 -0.1766
 7764SOL    HW224192   6.448   5.436   6.037 -1.4475 -0.3488 -0.0873
 7765SOL     OW24193   6.396   1.615   4.077  0.3151  0.2975  0.0558
 7765SOL    HW124194   6.359   1.522   4.068  1.0147 -0.0893  1.0238
 7765SOL    HW224195   6.443   1.640   3.992 -1.6332  0.5865 -0.9965
 7766SOL     OW24196   5.742   1.823   1.567 -0.4936  0.4484 -0.0774
 7766SOL    HW124197   5.812   1.760   1.600  0.5679  2.2881  1.3711
 7766SOL    HW224198   5.656   1.804   1.614 -0.8593 -1.4067 -1.3979
 7767SOL     OW24199   5.758   1.051   6.096  0.3275 -0.4754  0.2493
 7767SOL    HW124200   5.731   1.017   6.186 -0.2309  0.3869  0.4245
 7767SOL    HW224201   5.696   1.125   6.069  2.8026  1.9840  0.8795
 7768SOL     OW24202   5.151   3.894   2.740 -0.4817  0.1552 -0.3021
 7768SOL    HW124203   5.185   3.847   2.658 -1.4629  0.5567 -0.9550
 7768SOL    HW224204   5.052   3.900   2.736 -0.6456 -0.7505  1.4342
 7769SOL     OW24205   6.225   6.751   1.621  0.0013  0.1721  0.5422
 7769SOL    HW124206   6.181   6.668   1.588  0.5422 -0.0338  0.3184
 7769SOL    HW224207   6.324   6.742   1.612  0.1207  0.4356  1.4740
 7770SOL     OW24208   3.305   5.123   2.895  0.5124 -0.5979 -0.1272
 7770SOL    HW124209   3.309   5.109   2.994  0.2361 -0.5921 -0.1145
 7770SOL    HW224210   3.387   5.170   2.865 -0.0533  0.7280  0.3182
 7771SOL     OW24211   5.491   2.274   5.498 -0.0235  1.1154 -0.1985
 7771SOL    HW124212   5.415   2.280   5.433  0.9930  1.5460 -1.3879
 7771SOL    HW224213   5.455   2.256   5.590 -1.3648 -2.1189 -1.2193
 7772SOL     OW24214   6.078   2.862   6.636 -0.4340  0.0326  0.0584
 7772SOL    HW124215   6.088   2.778   6.582 -1.7464 -0.4232  0.4862
 7772SOL    HW224216   6.034   2.932   6.581 -1.7092 -0.4099  0.4928
 7773SOL     OW24217   5.669   6.672   4.537  0.3403  0.5248 -0.0050
 7773SOL    HW124218   5.638   6.667   4.442 -0.5384  0.4386  0.2744
 7773SOL    HW224219   5.716   6.587   4.561 -2.3457 -0.9164  0.5909
 7774SOL     OW24220   0.859   4.792   3.317 -0.1845  0.3604 -0.1060
 7774SOL    HW124221   0.896   4.749   3.235 -1.5876  1.2966 -1.2729
 7774SOL    HW224222   0.812   4.877   3.293  1.0484  1.7268  1.9133
 7775SOL     OW24223   6.097   1.012   3.244 -0.1146  0.0778  0.5408
 7775SOL    HW124224   6.106   1.106   3.275  1.4464  0.1043  0.0839
 7775SOL    HW224225   6.187   0.975   3.222 -0.8841 -0.8156 -1.3592
 7776SOL     OW24226   3.910   2.438   6.442 -0.2395 -0.5487 -0.1094
 7776SOL    HW124227   3.947   2.387   6.365  0.4973  0.2974 -0.3207
 7776SOL    HW224228   3.825   2.483   6.415 -1.1083 -1.9454  0.1881
 7777SOL     OW24229   0.747   3.229   6.599  1.1368  0.0908  0.7308
 7777SOL    HW124230   0.733   3.278   6.513  0.0369  0.5064  1.1298
 7777SOL    HW224231   0.717   3.134   6.588  0.2430  0.3464  0.8672
 7778SOL     OW24232   3.564   6.319   0.515 -0.7528 -0.0688  0.7398
 7778SOL    HW124233   3.593   6.293   0.423  2.6648 -1.6386  2.0954
 7778SOL    HW224234   3.545   6.417   0.517  1.7895  0.5748 -1.1118
 7779SOL     OW24235   3.467   2.099   5.072 -0.7301  1.0653 -0.1246
 7779SOL    HW124236   3.389   2.139   5.024 -1.1900  0.0316 -0.2779
 7779SOL    HW224237   3.437   2.019   5.124  0.2296  0.6029 -0.2445
 7780SOL     OW24238   6.935   5.192   0.022  0.2987 -0.0980  0.6365
 7780SOL    HW124239   6.982   5.199  -0.066 -1.6735 -2.5257 -0.7566
 7780SOL    HW224240   6.841   5.161   0.006  0.1041 -1.3307  3.6587
 7781SOL     OW24241   3.762   2.735   6.151  0.4320  0.0326  0.4359
 7781SOL    HW124242   3.725   2.812   6.202 -1.9956  0.0081 -1.0921
 7781SOL    HW224243   3.834   2.767   6.089 -1.4896  1.4266 -1.1886
 7782SOL     OW24244   4.166   0.074   5.939 -0.1309 -0.0480  0.3626
 7782SOL    HW124245   4.088   0.017   5.912 -0.5283  0.6435  0.0360
 7782SOL    HW224246   4.210   0.034   6.019 -1.3473  0.0083  1.0823
 7783SOL     OW24247   6.143   0.891   1.261  0.2598 -0.8828 -0.7200
 7783SOL    HW124248   6.215   0.848   1.206  1.1162 -0.9911  0.4498
 7783SOL    HW224249   6.088   0.820   1.304  0.3834 -0.8155 -0.4437
 7784SOL     OW24250   4.339   6.737   3.437 -0.0570 -0.0025  0.0092
 7784SOL    HW124251   4.401   6.754   3.513  1.5367  3.6483 -1.8404
 7784SOL    HW224252   4.390   6.693   3.362 -1.3666 -2.6660  0.5726
 7785SOL     OW24253   0.613   4.119   5.839  0.5165 -0.4295  0.2215
 7785SOL    HW124254   0.621   4.038   5.897  0.8447 -0.9281 -0.5035
 7785SOL    HW224255   0.601   4.091   5.744  0.2589  0.3782  0.0063
 7786SOL     OW24256   3.091   2.976   5.599  0.0248  0.2792  0.5959
 7786SOL    HW124257   3.148   3.057   5.583 -1.4968  1.3530  0.4379
 7786SOL    HW224258   3.034   2.959   5.519  1.1287 -1.6858  0.1456
 7787SOL     OW24259   1.750   5.702   0.136 -0.1552  0.2247 -0.5090
 7787SOL    HW124260   1.718   5.689   0.230  1.2213 -0.1213 -0.0566
 7787SOL    HW224261   1.720   5.791   0.103 -3.2239 -0.8249 -0.8691
 7788SOL     OW24262   0.276   2.906   5.744 -0.0817 -0.0086  0.2624
 7788SOL    HW124263   0.265   2.850   5.661 -0.8768  1.5747 -0.7532
 7788SOL    HW224264   0.186   2.920   5.786  0.3532 -1.0319  1.5860
 7789SOL     OW24265   3.394   0.883   1.524  0.5012  0.0962 -0.1385
 7789SOL    HW124266   3.451   0.850   1.600 -1.1873 -1.7809  0.4066
 7789SOL    HW224267   3.447   0.884   1.440  1.3967 -1.5284  0.3630
 7790SOL     OW24268   5.198   6.677   5.559  0.7278 -0.0110  0.7075
 7790SOL    HW124269   5.184   6.582   5.589  0.8623  0.5229  2.6209
 7790SOL    HW224270   5.208   6.680   5.460  0.4860 -1.9682  0.5883
 7791SOL     OW24271   0.260   0.009   0.460  0.2715  0.1556  0.3138
 7791SOL    HW124272   0.329   0.029   0.529  1.2991 -0.8783 -0.3657
 7791SOL    HW224273   0.174  -0.015   0.504  0.7961 -0.0795  1.2316
 7792SOL     OW24274   6.438   6.140   0.301 -0.3364 -0.3558  0.2100
 7792SOL    HW124275   6.521   6.086   0.311  0.0129  0.2182  0.4398
 7792SOL    HW224276   6.418   6.187   0.387 -0.7848 -0.3194  0.0913
 7793SOL     OW24277   1.465   2.838   1.531  0.2167 -0.0944  0.5888
 7793SOL    HW124278   1.552   2.855   1.577  0.3547 -0.1945  0.3664
 7793SOL    HW224279   1.396   2.809   1.598  0.0578  1.0163  0.9422
 7794SOL     OW24280   2.543   5.591   6.290 -0.2856 -0.4144 -0.1274
 7794SOL    HW124281   2.638   5.562   6.302 -0.5510 -1.2531  0.0115
 7794SOL    HW224282   2.485   5.539   6.352 -0.6904  1.0037  0.7220
 7795SOL     OW24283   5.777   6.877   6.209  0.2372 -0.6147 -0.1779
 7795SOL    HW124284   5.689   6.845   6.244 -0.9638  1.7860 -0.8321
 7795SOL    HW224285   5.763   6.934   6.129  2.4015  0.0000 -0.1921
 7796SOL     OW24286   4.752   6.392   2.571  0.3139 -0.3243  0.2450
 7796SOL    HW124287   4.729   6.309   2.622  0.5145 -0.8332 -0.4735
 7796SOL    HW224288   4.668   6.444   2.553 -0.3283 -1.9523 -1.9772
 7797SOL     OW24289   1.778   2.968   2.544 -0.0220  0.0762  0.0642
 7797SOL    HW124290   1.784   2.964   2.444  1.0931 -1.0628  0.1459
 7797SOL    HW224291   1.792   3.062   2.575  1.1266  0.2079 -0.7921
 7798SOL     OW24292   0.954   3.282   5.772  0.0208  0.1109 -0.5078
 7798SOL    HW124293   1.054   3.285   5.773  0.0414  1.2266  1.8157
 7798SOL    HW224294   0.919   3.327   5.854 -2.4240  0.1612 -1.4974
 7799SOL     OW24295   2.126   0.302   2.376  0.5289  0.7614 -0.1899
 7799SOL    HW124296   2.108   0.384   2.322 -2.0590 -1.4642 -3.1312
 7799SOL    HW224297   2.047   0.283   2.435  1.3546  0.6592  0.9136
 7800SOL     OW24298   1.235   6.719   6.569  0.0521 -0.5146  0.0765
 7800SOL    HW124299   1.169   6.652   6.604  0.4423 -0.5259  0.8167
 7800SOL    HW224300   1.325   6.701   6.609 -0.0662  1.1074  1.1392
 7801SOL     OW24301   6.243   3.763   0.928 -0.2969 -0.0897 -0.2227
 7801SOL    HW124302   6.205   3.703   0.857 -0.6616  1.2146 -1.1781
 7801SOL    HW224303   6.263   3.709   1.010 -0.4826 -1.5244 -1.0760
 7802SOL     OW24304   4.034   0.840   1.313  0.1438  0.3691 -0.1895
 7802SOL    HW124305   4.034   0.831   1.213 -3.5959  0.0940 -0.3203
 7802SOL    HW224306   3.944   0.814   1.348  1.5505 -0.2116  3.3769
 7803SOL     OW24307   6.102   2.879   3.996  0.6161  0.1539  0.3234
 7803SOL    HW124308   6.159   2.937   3.938  1.3783  0.4484  1.3397
 7803SOL    HW224309   6.006   2.900   3.981  0.6400 -1.2919 -2.4259
 7804SOL     OW24310   6.033   3.960   3.044 -0.0225 -0.2082  0.4179
 7804SOL    HW124311   6.013   3.963   2.946  1.5442  1.1576  0.0809
 7804SOL    HW224312   5.967   3.901   3.090 -1.1611 -0.4047 -1.3606
 7805SOL     OW24313   2.446   0.192   5.057  0.7952  0.1004  0.2600
 7805SOL    HW124314   2.509   0.120   5.088  0.6251 -0.9254 -1.6099
 7805SOL    HW224315   2.436   0.261   5.129  1.1290 -1.6264  2.0551
 7806SOL     OW24316   4.936   4.392   1.016  0.9064  0.0331 -0.1567
 7806SOL    HW124317   4.841   4.372   1.041  0.6757 -0.8591 -1.6888
 7806SOL    HW224318   4.996   4.367   1.093 -0.0077 -0.1730  0.5109
 7807SOL     OW24319   6.807   5.983   4.359 -0.4461  0.5006 -0.2301
 7807SOL    HW124320   6.791   5.923   4.437 -1.7515  0.6974 -0.3268
 7807SOL    HW224321   6.838   5.929   4.281  0.1029  0.2031  0.1873
 7808SOL     OW24322   3.448   1.909   4.100  0.1488  0.3613  0.4228
 7808SOL    HW124323   3.487   1.958   4.178  1.0887 -0.7507  0.6878
 7808SOL    HW224324   3.488   1.944   4.015  1.0373 -0.1043  0.6305
 7809SOL     OW24325   2.394   5.447   3.309 -0.5760 -0.1681  0.0231
 7809SOL    HW124326   2.335   5.400   3.242 -1.2957  0.4646  0.1957
 7809SOL    HW224327   2.468   5.386   3.336 -0.3720 -0.5092 -1.2088
 7810SOL     OW24328   1.796   1.721   0.347 -0.0471 -0.3004 -0.2406
 7810SOL    HW124329   1.865   1.654   0.374  0.5226  0.4080  0.1245
 7810SOL    HW224330   1.837   1.788   0.286 -0.7317 -0.5428 -0.9807
 7811SOL     OW24331   0.450   4.488   5.988 -0.5158  0.3917 -0.5983
 7811SOL    HW124332   0.472   4.396   6.022  0.7675  1.2952  1.1329
 7811SOL    HW224333   0.489   4.498   5.896 -1.0516 -0.9136 -1.0031
 7812SOL     OW24334   2.120   6.973   4.376 -0.4206  0.3984 -0.3669
 7812SOL    HW124335   2.051   7.027   4.328  0.9304  1.5008 -1.1894
 7812SOL    HW224336   2.182   6.932   4.309  0.9462  1.1711  0.3708
 7813SOL     OW24337   0.520   2.696   5.304 -0.3432  0.4911 -0.3576
 7813SOL    HW124338   0.536   2.629   5.377 -3.6082 -0.3900 -0.3189
 7813SOL    HW224339   0.560   2.784   5.331  0.3641 -0.3514  1.5120
 7814SOL     OW24340   3.880   5.371   3.441 -0.2554 -0.1918 -0.0540
 7814SOL    HW124341   3.798   5.427   3.458  0.1478  0.5946 -0.6224
 7814SOL    HW224342   3.957   5.410   3.491  0.3068  0.5151 -1.4121
 7815SOL     OW24343   0.777   0.876   6.364 -0.1066  0.3519 -0.5167
 7815SOL    HW124344   0.801   0.852   6.270  0.0911  2.2019 -0.9652
 7815SOL    HW224345   0.679   0.895   6.369 -0.7555 -2.6716  0.3418
 7816SOL     OW24346   5.441   4.316   4.071  0.6848 -0.0474 -0.2937
 7816SOL    HW124347   5.541   4.326   4.070  1.0197 -1.6146 -5.0019
 7816SOL    HW224348   5.417   4.219   4.074 -0.5641  0.1933 -1.5268
 7817SOL     OW24349   2.655   2.987   6.404  0.0003  0.1535 -0.1398
 7817SOL    HW124350   2.724   3.025   6.341 -0.2920  0.8087 -0.0802
 7817SOL    HW224351   2.601   3.062   6.442 -0.9907 -0.3755 -0.4675
 7818SOL     OW24352   4.732   5.317   3.936  0.9192 -0.3246 -0.9269
 7818SOL    HW124353   4.645   5.366   3.930  0.7117 -0.8113 -2.0685
 7818SOL    HW224354   4.735   5.266   4.022 -0.5919 -1.5128 -1.5356
 7819SOL     OW24355   3.595   5.454   1.598  0.0844  0.0170  0.7964
 7819SOL    HW124356   3.645   5.376   1.636  0.9524  0.8815  1.4696
 7819SOL    HW224357   3.646   5.538   1.615 -1.5936  0.9464  1.5218
 7820SOL     OW24358   2.790   6.744   5.748 -0.3284 -0.6254  0.5064
 7820SOL    HW124359   2.711   6.687   5.725  1.5010 -2.4307 -1.6841
 7820SOL    HW224360   2.868   6.686   5.771  1.6894  0.8838 -2.0538
 7821SOL     OW24361   3.390   2.000   6.339  0.5300 -0.0162  0.3921
 7821SOL    HW124362   3.425   2.087   6.375  1.5072 -0.2965  0.1479
 7821SOL    HW224363   3.431   1.981   6.251  0.6195 -0.9166  0.6181
 7822SOL     OW24364   1.354   5.347   4.051  0.6333 -0.5350  0.3156
 7822SOL    HW124365   1.409   5.265   4.033  0.1037 -1.1831  1.4673
 7822SOL    HW224366   1.322   5.344   4.146 -1.6964 -0.3851 -0.4014
 7823SOL     OW24367   5.610   4.854   0.217  0.5594 -0.8879 -0.6418
 7823SOL    HW124368   5.560   4.941   0.223  1.1703 -0.3154 -3.0932
 7823SOL    HW224369   5.545   4.780   0.202  0.1755 -0.6715 -0.1281
 7824SOL     OW24370   3.602   3.785   4.158 -0.1478 -0.2184 -0.3094
 7824SOL    HW124371   3.578   3.698   4.201 -0.7134 -0.0889 -0.3642
 7824SOL    HW224372   3.593   3.777   4.059 -1.3658  0.2523 -0.2486
 7825SOL     OW24373   5.349   6.472   6.358 -0.2520  0.2922 -0.5773
 7825SOL    HW124374   5.417   6.401   6.376 -0.6119  0.0657 -0.0988
 7825SOL    HW224375   5.319   6.512   6.445 -0.3352  0.7663 -0.8193
 7826SOL     OW24376   6.238   2.994   6.832  0.4197 -0.0101  0.1329
 7826SOL    HW124377   6.164   2.967   6.770 -0.4218  0.0006  1.0938
 7826SOL    HW224378   6.241   3.093   6.840 -0.4228 -0.0411  1.1701
 7827SOL     OW24379   6.004   3.309   1.892 -0.0179 -0.1439  0.2539
 7827SOL    HW124380   5.919   3.342   1.935  0.3084  0.2256  0.6246
 7827SOL    HW224381   6.054   3.386   1.854  0.7051 -0.2099  1.0408
 7828SOL     OW24382   5.292   3.288   1.114  0.2152 -0.6459  0.5724
 7828SOL    HW124383   5.298   3.387   1.100 -1.3337 -0.5732  0.2787
 7828SOL    HW224384   5.308   3.267   1.211 -0.3948 -0.0147  0.8186
 7829SOL     OW24385   4.447   1.859   3.063  0.3452  0.3321  0.1105
 7829SOL    HW124386   4.521   1.803   3.027  1.8442  1.0298  1.9491
 7829SOL    HW224387   4.434   1.839   3.160 -1.6390  0.5287 -0.0578
 7830SOL     OW24388   1.118   2.549   5.738  0.4077 -0.3848 -0.1871
 7830SOL    HW124389   1.156   2.493   5.811 -1.9872  0.2964  1.7104
 7830SOL    HW224390   1.112   2.644   5.769  0.4967  0.1658 -1.7703
 7831SOL     OW24391   0.509   2.442   3.064  0.1707 -0.2572 -0.2560
 7831SOL    HW124392   0.581   2.475   3.002 -1.2667  1.0285 -1.3025
 7831SOL    HW224393   0.539   2.356   3.106  3.3780  1.4505  1.3106
 7832SOL     OW24394   4.093   4.768   3.005  0.4880  0.5619 -0.2880
 7832SOL    HW124395   4.154   4.695   2.974 -1.0736  0.2425 -2.9632
 7832SOL    HW224396   4.133   4.857   2.985  2.2886  0.5656  2.7583
 7833SOL     OW24397   6.510   0.978   5.972  1.1155  0.1652  0.3566
 7833SOL    HW124398   6.459   1.006   5.891  0.6192 -1.6441  0.0045
 7833SOL    HW224399   6.468   1.018   6.053 -0.4468 -0.6998  0.0039
 7834SOL     OW24400   0.237   4.715   2.140 -0.7965  0.6049  0.1792
 7834SOL    HW124401   0.311   4.712   2.206 -0.1732 -0.4301 -0.5349
 7834SOL    HW224402   0.151   4.737   2.186 -0.3218  0.1931  1.2743
 7835SOL     OW24403   0.307   1.560   2.144  0.7731  0.5923  0.6063
 7835SOL    HW124404   0.341   1.575   2.051  0.5422  0.2462  0.4653
 7835SOL    HW224405   0.290   1.648   2.187 -0.1840  0.7520 -0.0716
 7836SOL     OW24406   4.581   1.948   2.773 -0.6355  0.3769  0.1964
 7836SOL    HW124407   4.588   1.990   2.682 -1.9742  2.6630  1.0598
 7836SOL    HW224408   4.512   1.996   2.827 -0.0028 -1.0106  2.3912
 7837SOL     OW24409   7.020   4.749   2.263  0.6178 -0.4397 -0.3159
 7837SOL    HW124410   6.993   4.815   2.193 -1.5826 -0.3218  0.5588
 7837SOL    HW224411   7.036   4.796   2.350  0.3370 -0.8795 -0.0167
 7838SOL     OW24412   2.417   0.751   4.944 -0.5111  0.2608 -0.0227
 7838SOL    HW124413   2.406   0.718   4.850 -1.7263  1.6287 -0.3941
 7838SOL    HW224414   2.362   0.695   5.006  0.8124 -1.0671  0.0142
 7839SOL     OW24415   4.140   5.573   4.458  0.2965  0.2610 -0.4357
 7839SOL    HW124416   4.137   5.511   4.537  2.4145  0.4904 -0.1216
 7839SOL    HW224417   4.087   5.534   4.383  1.2148 -1.7481 -0.0946
 7840SOL     OW24418   5.459   0.822   6.327  0.4532  0.2607 -0.0484
 7840SOL    HW124419   5.520   0.901   6.336  0.1670  0.4962 -0.1386
 7840SOL    HW224420   5.478   0.757   6.400  0.8241  0.3236 -0.0861
 7841SOL     OW24421   3.042   1.260   6.344 -0.0811  0.0687 -0.1121
 7841SOL    HW124422   3.079   1.229   6.432  0.7390 -0.1167 -0.5139
 7841SOL    HW224423   3.052   1.359   6.337  0.2546  0.0298 -0.1820
 7842SOL     OW24424   0.636   2.222   3.160  0.0615  0.1773 -0.2482
 7842SOL    HW124425   0.723   2.177   3.180 -0.0036  0.2500  0.2161
 7842SOL    HW224426   0.561   2.158   3.177 -0.0546  0.5665  0.8029
 7843SOL     OW24427   5.596   6.278   4.387 -0.1689  0.2424 -0.5246
 7843SOL    HW124428   5.689   6.299   4.359  0.5774 -2.2859 -0.1856
 7843SOL    HW224429   5.575   6.326   4.473  1.1058  0.2385 -0.1958
 7844SOL     OW24430   1.470   6.809   6.874  0.2726  0.3590  1.1921
 7844SOL    HW124431   1.374   6.836   6.887  0.4595  1.2820  0.7409
 7844SOL    HW224432   1.529   6.872   6.924  0.7544  1.2262 -0.3919
 7845SOL     OW24433   1.006   2.094   1.070 -0.0047  0.2745 -0.3656
 7845SOL    HW124434   0.957   2.039   1.003  0.3544 -0.4523 -0.0515
 7845SOL    HW224435   1.080   2.040   1.109 -0.5162  0.5097  0.9829
 7846SOL     OW24436   1.929   6.997   0.552  0.1333 -0.1899  0.6793
 7846SOL    HW124437   1.902   7.092   0.567  1.9384  0.2919  1.0545
 7846SOL    HW224438   2.017   6.979   0.596  1.1241 -1.2819 -1.5577
 7847SOL     OW24439   6.768   0.057   2.451  0.3049  0.1767  0.3471
 7847SOL    HW124440   6.777   0.100   2.361 -1.5214 -0.7332 -0.3290
 7847SOL    HW224441   6.821   0.108   2.518  0.4507  1.8074 -0.9450
 7848SOL     OW24442   0.506   6.020   2.502 -0.2657 -0.5875  0.9636
 7848SOL    HW124443   0.492   6.094   2.566 -1.9872 -0.5069  0.5514
 7848SOL    HW224444   0.458   6.040   2.416  2.0218 -0.6480 -0.4288
 7849SOL     OW24445   6.726   5.743   0.647  0.3002 -0.4543  0.4476
 7849SOL    HW124446   6.648   5.754   0.709  1.1786 -2.3685  2.0119
 7849SOL    HW224447   6.702   5.680   0.573 -0.2121  0.4938 -0.2154
 7850SOL     OW24448   6.067   3.578   0.786  0.0810 -0.4096 -0.6558
 7850SOL    HW124449   6.099   3.566   0.692 -0.0997  2.5212 -1.2086
 7850SOL    HW224450   5.969   3.560   0.791 -0.0874  0.2616 -1.2747
 7851SOL     OW24451   0.336   5.455   4.578  0.2139 -0.1728 -0.0324
 7851SOL    HW124452   0.386   5.531   4.537 -1.3658  0.4363 -0.9426
 7851SOL    HW224453   0.347   5.374   4.520 -0.4754  0.1792 -0.6766
 7852SOL     OW24454   4.353   1.975   2.092  0.5027 -0.5929  0.4727
 7852SOL    HW124455   4.390   1.939   2.006  1.4104 -1.3740  1.1759
 7852SOL    HW224456   4.262   1.937   2.108  1.4247 -2.6509  1.1907
 7853SOL     OW24457   4.793   1.089   5.663 -0.2219  0.1482 -0.0673
 7853SOL    HW124458   4.767   1.107   5.758 -0.1307 -1.5077  0.3040
 7853SOL    HW224459   4.891   1.103   5.652 -0.0774 -0.5032  0.3203
 7854SOL     OW24460   5.053   3.412   0.055 -0.5775 -0.1015 -0.1409
 7854SOL    HW124461   4.991   3.418  -0.023  1.6145 -2.9790 -2.3577
 7854SOL    HW224462   5.145   3.442   0.027  0.1164 -0.4589  1.5832
 7855SOL     OW24463   2.097   1.560   4.481  0.2904  0.4172  0.5069
 7855SOL    HW124464   2.049   1.574   4.394  0.4064  0.2423  0.4131
 7855SOL    HW224465   2.178   1.618   4.484  0.2518  0.4694  0.5241
 7856SOL     OW24466   2.266   5.210   4.733  0.9461 -0.8866  0.2833
 7856SOL    HW124467   2.198   5.182   4.800  0.8598 -3.0495 -0.6303
 7856SOL    HW224468   2.350   5.156   4.745  0.2651 -2.7525 -2.4525
 7857SOL     OW24469   0.900   5.199   4.492  0.5464 -0.2581 -0.7990
 7857SOL    HW124470   0.927   5.272   4.554  0.0732  0.2818 -1.2148
 7857SOL    HW224471   0.942   5.113   4.521 -0.2481 -0.1755  0.6919
 7858SOL     OW24472   1.279   3.662   5.210 -0.6649 -0.2404 -0.2648
 7858SOL    HW124473   1.215   3.634   5.138  0.8993 -0.7444 -1.5198
 7858SOL    HW224474   1.368   3.684   5.169 -0.0581  0.6112  1.4012
 7859SOL     OW24475   3.106   1.250   2.801  0.6698 -0.0038  0.2455
 7859SOL    HW124476   3.162   1.225   2.722  1.9336  2.0014  0.4452
 7859SOL    HW224477   3.015   1.211   2.791  1.2570 -1.0520 -1.4356
 7860SOL     OW24478   4.314   2.746   1.324 -0.4399 -0.7449 -0.2740
 7860SOL    HW124479   4.287   2.830   1.371 -1.4546 -0.6421 -1.0019
 7860SOL    HW224480   4.382   2.698   1.379  0.0058  0.4392  0.2525
 7861SOL     OW24481   1.974   3.776   1.027 -0.1736 -0.0223  0.2874
 7861SOL    HW124482   2.006   3.842   1.095 -0.8830  0.0687  0.5469
 7861SOL    HW224483   1.881   3.747   1.050 -0.0194 -0.8249 -0.0371
 7862SOL     OW24484   0.037   5.400   4.900 -0.8936  0.1822 -0.3350
 7862SOL    HW124485  -0.028   5.400   4.976 -0.9005 -0.6136 -0.3362
 7862SOL    HW224486  -0.013   5.400   4.814 -0.9931 -3.0594 -0.3794
 7863SOL     OW24487   1.043   4.175   3.330  1.0240 -0.4966 -0.2970
 7863SOL    HW124488   1.006   4.236   3.400  1.1727 -0.1366 -0.5300
 7863SOL    HW224489   1.079   4.092   3.374 -0.3407 -1.0034 -0.1031
 7864SOL     OW24490   3.165   5.623   1.354  0.3361 -0.1516 -0.0106
 7864SOL    HW124491   3.084   5.640   1.298  0.1081  0.8588  0.6038
 7864SOL    HW224492   3.240   5.681   1.322  0.5274 -0.3526  0.0669
 7865SOL     OW24493   1.134   6.776   1.707 -0.6734 -0.6685 -0.3465
 7865SOL    HW124494   1.131   6.869   1.744 -0.9063 -0.2193 -1.4450
 7865SOL    HW224495   1.213   6.767   1.646 -0.2862 -1.3929  0.2530
 7866SOL     OW24496   2.089   1.571   0.714 -0.5434  0.6024  0.1720
 7866SOL    HW124497   2.139   1.498   0.668 -1.3296 -0.1427  0.4827
 7866SOL    HW224498   2.104   1.657   0.665  2.7290  0.8724  1.3993
 7867SOL     OW24499   6.372   2.965   4.911  0.0050  0.1227 -0.6241
 7867SOL    HW124500   6.320   3.037   4.865 -1.4083  0.4579  1.3876
 7867SOL    HW224501   6.315   2.921   4.980  2.0928 -0.1550  1.0319
 7868SOL     OW24502   5.331   4.332   3.834  0.6950 -0.3934  0.3435
 7868SOL    HW124503   5.260   4.262   3.823  0.8075 -0.4412 -0.0685
 7868SOL    HW224504   5.358   4.336   3.931 -0.1237 -0.1240  0.5729
 7869SOL     OW24505   6.874   6.653   1.575  0.3641  0.3259 -0.6069
 7869SOL    HW124506   6.945   6.583   1.580 -0.1951 -0.1622  0.7756
 7869SOL    HW224507   6.901   6.731   1.631 -0.7553 -0.3974  0.9847
 7870SOL     OW24508   4.008   1.071   0.974  0.8680 -0.0911 -0.5407
 7870SOL    HW124509   4.025   1.150   0.915 -0.5524  0.4637 -0.2468
 7870SOL    HW224510   3.949   1.098   1.050  0.7760 -1.3290 -0.1470
 7871SOL     OW24511   4.675   0.643   1.464 -0.0648 -0.2619  0.3032
 7871SOL    HW124512   4.634   0.554   1.447 -1.1356  0.3684 -0.5367
 7871SOL    HW224513   4.693   0.653   1.562 -3.0928 -0.1212  0.9276
 7872SOL     OW24514   2.031   0.122   0.824  0.4643 -0.7013  0.4193
 7872SOL    HW124515   1.936   0.099   0.845 -0.0391 -0.0894 -1.0615
 7872SOL    HW224516   2.073   0.047   0.773 -0.2396  0.2702 -1.7139
 7873SOL     OW24517   2.572   0.778   6.057  0.6036  0.3666 -0.3598
 7873SOL    HW124518   2.484   0.816   6.029  0.6808  0.8565  0.0610
 7873SOL    HW224519   2.584   0.791   6.155 -0.4753 -2.8953  0.3350
 7874SOL     OW24520   6.565   4.025   0.434 -0.0751 -0.2389 -0.6502
 7874SOL    HW124521   6.507   4.102   0.410 -0.0813 -0.2361 -0.6261
 7874SOL    HW224522   6.521   3.940   0.404 -0.8647 -0.3788  0.7758
 7875SOL     OW24523   4.375   4.698   0.460 -0.0063 -0.0130 -0.3383
 7875SOL    HW124524   4.362   4.703   0.361 -1.1462 -0.2414 -0.2239
 7875SOL    HW224525   4.297   4.742   0.505 -0.0122 -0.8027  0.4525
 7876SOL     OW24526   0.316   2.525   6.881 -0.1160 -0.0124 -0.0586
 7876SOL    HW124527   0.379   2.481   6.817  1.1877 -0.0147  1.1825
 7876SOL    HW224528   0.311   2.472   6.966 -2.1540 -0.2482 -0.2680
 7877SOL     OW24529   3.892   3.349   0.657 -0.5768 -0.3830 -0.0260
 7877SOL    HW124530   3.814   3.287   0.668 -0.5521 -0.4082  0.0056
 7877SOL    HW224531   3.912   3.360   0.560 -0.6257 -0.3694 -0.0346
 7878SOL     OW24532   5.013   2.426   1.286  0.2225 -0.2542 -0.1414
 7878SOL    HW124533   5.015   2.471   1.375  0.0900 -0.2673 -0.1320
 7878SOL    HW224534   5.049   2.333   1.295 -0.3431 -0.4613  0.0163
 7879SOL     OW24535   3.866   6.633   4.709 -0.3736  0.0380 -0.3307
 7879SOL    HW124536   3.785   6.672   4.752 -0.0304 -0.1908  0.5374
 7879SOL    HW224537   3.935   6.611   4.779 -0.6933 -2.4959 -0.7069
 7880SOL     OW24538   3.619   6.417   2.016  0.5749  0.9066 -0.1963
 7880SOL    HW124539   3.686   6.491   2.024  1.1610  0.7196 -2.6364
 7880SOL    HW224540   3.619   6.382   1.922  0.4166 -2.3278  0.9137
 7881SOL     OW24541   2.758   5.974   6.569  0.0180  0.7179 -0.6537
 7881SOL    HW124542   2.737   5.915   6.646  0.3209 -0.0676 -1.1572
 7881SOL    HW224543   2.795   6.061   6.602 -2.0024  1.3137  0.1646
 7882SOL     OW24544   0.621   5.004   2.137 -0.3415 -0.2666 -0.3138
 7882SOL    HW124545   0.718   4.993   2.161 -0.3751 -0.2905 -0.1917
 7882SOL    HW224546   0.615   5.051   2.048 -0.1954 -1.2472 -0.8564
 7883SOL     OW24547   6.112   0.699   1.871  0.3819 -0.0011 -0.0052
 7883SOL    HW124548   6.060   0.621   1.904 -0.8906  1.3128  1.2402
 7883SOL    HW224549   6.210   0.677   1.873 -0.0059 -1.9492 -0.8421
 7884SOL     OW24550   1.323   4.272   5.080  0.2714 -0.1074 -0.2114
 7884SOL    HW124551   1.359   4.326   5.156 -0.0252 -0.8854  0.4907
 7884SOL    HW224552   1.238   4.312   5.048 -0.8107 -1.0434  1.3816
 7885SOL     OW24553   1.825   0.033   2.091 -0.1996 -0.0454  0.1309
 7885SOL    HW124554   1.891   0.102   2.120 -0.2062  0.4058 -0.8711
 7885SOL    HW224555   1.859  -0.058   2.113  1.4406  0.0863 -1.5983
 7886SOL     OW24556   4.583   4.484   3.864 -0.7428  0.2515 -0.1710
 7886SOL    HW124557   4.601   4.390   3.895  0.7498  0.0226 -1.5670
 7886SOL    HW224558   4.503   4.520   3.911 -0.5166 -1.2162  1.4381
 7887SOL     OW24559   0.148   3.757   2.832  0.0933 -0.4092 -0.0921
 7887SOL    HW124560   0.054   3.782   2.855  0.4506  1.3098 -0.3728
 7887SOL    HW224561   0.202   3.751   2.917 -0.7708 -4.0041  0.3663
 7888SOL     OW24562   3.307   1.140   3.816 -0.0066 -0.2179  0.3056
 7888SOL    HW124563   3.320   1.163   3.719 -0.7165  1.5185  0.5712
 7888SOL    HW224564   3.227   1.081   3.825  0.7534 -1.3691 -0.2499
 7889SOL     OW24565   2.890   5.589   3.862 -0.1301 -0.1443 -0.0272
 7889SOL    HW124566   2.853   5.661   3.920  1.5251  2.0373 -1.5129
 7889SOL    HW224567   2.830   5.509   3.866 -0.4200  0.0854  4.0853
 7890SOL     OW24568   6.093   6.210   3.061 -0.3191  0.4585  0.3000
 7890SOL    HW124569   6.053   6.226   2.970  0.1154  1.4290  0.2615
 7890SOL    HW224570   6.035   6.254   3.130 -0.7982 -0.5153  0.5293
 7891SOL     OW24571   3.925   4.041   6.714 -0.3142  0.1452 -0.0767
 7891SOL    HW124572   3.840   3.991   6.731  0.0373 -0.0575  1.1824
 7891SOL    HW224573   3.930   4.066   6.617 -1.9112  0.3579 -0.1385
 7892SOL     OW24574   3.326   0.819   2.003  0.6442 -0.0120  0.0770
 7892SOL    HW124575   3.259   0.832   1.930  0.4551 -0.8288  0.1027
 7892SOL    HW224576   3.290   0.857   2.088  1.0656  1.3962 -0.3305
 7893SOL     OW24577   0.572   1.643   5.314  0.0270 -0.4890 -1.3269
 7893SOL    HW124578   0.529   1.674   5.229 -0.5119 -1.4641 -1.4167
 7893SOL    HW224579   0.670   1.628   5.297 -0.3227 -2.0473 -2.1813
 7894SOL     OW24580   3.574   5.027   5.035  0.0149 -0.3155  0.0163
 7894SOL    HW124581   3.507   5.041   4.962 -0.1687  1.6400  0.5258
 7894SOL    HW224582   3.583   5.110   5.089  1.6857 -1.0592  0.9595
 7895SOL     OW24583   0.583   6.154   4.959  0.4862  0.5701 -0.0604
 7895SOL    HW124584   0.669   6.126   5.002  1.2413  0.0407 -1.8490
 7895SOL    HW224585   0.571   6.253   4.969  0.7988  0.5071  1.0601
 7896SOL     OW24586   0.140   6.286   0.103  0.3539  0.5118  0.0702
 7896SOL    HW124587   0.208   6.233   0.153 -1.2115 -1.0486  0.6328
 7896SOL    HW224588   0.180   6.319   0.017  2.7179  2.2509  1.7035
 7897SOL     OW24589   2.370   1.700   3.237  0.0391 -0.0958  0.5552
 7897SOL    HW124590   2.412   1.788   3.259 -0.8992  0.7162 -0.7621
 7897SOL    HW224591   2.441   1.634   3.211  0.6273  0.7834 -0.1088
 7898SOL     OW24592   3.825   6.119   3.872  0.1519  0.0479 -0.2589
 7898SOL    HW124593   3.757   6.189   3.849  1.1104  1.1221  0.0912
 7898SOL    HW224594   3.813   6.090   3.967  0.2390  0.2871 -0.1767
 7899SOL     OW24595   2.069   2.251   5.735  0.1014  0.6224  0.0699
 7899SOL    HW124596   2.136   2.299   5.678  0.2805 -0.4944 -0.6943
 7899SOL    HW224597   2.115   2.210   5.814  0.0550  1.1740  0.3828
 7900SOL     OW24598   0.077   0.544   6.069 -0.5396  0.1257 -0.1468
 7900SOL    HW124599   0.160   0.599   6.078 -1.3755  1.4668 -0.4411
 7900SOL    HW224600   0.043   0.548   5.975 -1.8492  0.9637  0.3366
 7901SOL     OW24601   4.429   1.144   6.303  0.2459  0.3438  0.3271
 7901SOL    HW124602   4.501   1.078   6.321 -0.0416  0.1078  0.6182
 7901SOL    HW224603   4.385   1.170   6.389 -0.9821 -0.6230  0.0183
 7902SOL     OW24604   1.971   2.513   0.472 -0.8384 -0.0452  0.6659
 7902SOL    HW124605   2.029   2.435   0.494 -0.1680 -0.1516 -1.2671
 7902SOL    HW224606   2.017   2.572   0.406 -2.2764  0.7399  0.2987
 7903SOL     OW24607   3.480   1.248   3.353 -0.7385 -0.5199 -0.1181
 7903SOL    HW124608   3.529   1.326   3.316 -1.6828  0.0298 -0.2357
 7903SOL    HW224609   3.474   1.176   3.283  1.4655 -1.3510  0.4781
 7904SOL     OW24610   6.105   4.922   4.579  0.5118 -0.1701  0.0208
 7904SOL    HW124611   6.175   4.967   4.524 -0.6914  0.7544 -0.8186
 7904SOL    HW224612   6.134   4.919   4.674  1.8197 -0.1036 -0.3546
 7905SOL     OW24613   5.977   6.615   0.850  0.7966 -0.0775 -0.4835
 7905SOL    HW124614   5.998   6.695   0.793  0.0649  1.9291  1.8922
 7905SOL    HW224615   6.057   6.590   0.904  0.8502 -0.6327 -0.8075
 7906SOL     OW24616   5.561   1.488   6.828  0.1075  0.1836  0.0663
 7906SOL    HW124617   5.581   1.542   6.746 -0.1774  2.0859  1.1972
 7906SOL    HW224618   5.530   1.549   6.901 -1.1953 -1.6455  1.1069
 7907SOL     OW24619   3.241   4.837   6.435 -0.1934 -0.2705  0.3049
 7907SOL    HW124620   3.297   4.919   6.422  0.2936 -0.5681  0.5006
 7907SOL    HW224621   3.294   4.756   6.408 -1.1879 -0.4068 -1.3922
 7908SOL     OW24622   3.822   1.382   6.967 -0.3463 -0.0521 -0.6249
 7908SOL    HW124623   3.821   1.326   7.049 -2.7029 -0.2763 -0.7437
 7908SOL    HW224624   3.894   1.351   6.906 -0.0011 -1.3121  0.3885
 7909SOL     OW24625   1.190   2.125   1.741  0.2129  0.0229  0.7126
 7909SOL    HW124626   1.256   2.103   1.669  1.7832  2.5637  1.2653
 7909SOL    HW224627   1.122   2.189   1.706 -1.6777 -2.0628  0.3467
 7910SOL     OW24628   4.254   3.535   5.462 -0.3710  0.1199 -0.5939
 7910SOL    HW124629   4.196   3.479   5.403  1.1870 -1.1333 -0.9910
 7910SOL    HW224630   4.230   3.631   5.450 -2.2199 -0.3397 -0.8695
 7911SOL     OW24631   1.976   5.359   0.195 -0.5042  0.5231  0.3102
 7911SOL    HW124632   1.950   5.393   0.105  2.4837 -0.6445 -1.1187
 7911SOL    HW224633   2.061   5.308   0.189 -0.4466 -0.0814  3.7573
 7912SOL     OW24634   4.506   5.235   6.437  0.7096 -0.2254 -0.1994
 7912SOL    HW124635   4.485   5.301   6.509 -2.7201 -0.7069 -0.5953
 7912SOL    HW224636   4.578   5.272   6.378  1.0183  1.7896  1.3393
 7913SOL     OW24637   5.840   1.870   5.513  0.3918  0.2728 -1.0255
 7913SOL    HW124638   5.906   1.906   5.579 -3.2869  2.8026  1.6964
 7913SOL    HW224639   5.772   1.940   5.492 -3.0263 -2.8255 -1.3489
 7914SOL     OW24640   3.233   5.014   5.972  0.7230  0.3601  0.1028
 7914SOL    HW124641   3.144   4.983   6.006  1.3530 -0.7213  0.8498
 7914SOL    HW224642   3.231   5.021   5.873 -0.2488  0.5313  0.1288
 7915SOL     OW24643   2.047   1.119   6.720 -0.1151 -0.0037 -0.0802
 7915SOL    HW124644   2.066   1.217   6.726 -0.3120  0.1495 -1.5447
 7915SOL    HW224645   1.982   1.102   6.646  0.6505 -1.3288 -0.4828
 7916SOL     OW24646   4.631   3.116   1.460  0.7884 -0.0681  0.2365
 7916SOL    HW124647   4.660   3.088   1.369  0.5591 -1.7028  0.6309
 7916SOL    HW224648   4.702   3.173   1.502  1.6404 -0.6822 -0.3394
 7917SOL     OW24649   1.807   5.748   3.030 -0.2684  0.3013  0.0876
 7917SOL    HW124650   1.860   5.683   3.084  1.9863  1.8639 -0.1114
 7917SOL    HW224651   1.835   5.742   2.934 -2.2932 -0.5422 -0.5128
 7918SOL     OW24652   2.288   7.006   1.732 -0.3762 -0.3376  0.5698
 7918SOL    HW124653   2.366   6.967   1.683 -0.2365 -0.7881  1.1491
 7918SOL    HW224654   2.215   6.939   1.740 -1.3034  0.4338 -0.9714
 7919SOL     OW24655   4.710   4.270   3.469  0.7659  0.6188 -0.2708
 7919SOL    HW124656   4.686   4.315   3.383 -0.7166 -0.0001 -0.2131
 7919SOL    HW224657   4.628   4.260   3.526  1.1202 -1.6914 -0.0765
 7920SOL     OW24658   5.310   2.870   2.784  0.1448  0.0348  0.2445
 7920SOL    HW124659   5.237   2.832   2.728 -0.1451 -0.1636  0.7448
 7920SOL    HW224660   5.271   2.933   2.852  0.6869  1.8113 -1.0252
 7921SOL     OW24661   3.774   5.202   1.171  1.3813  0.0337  0.2903
 7921SOL    HW124662   3.740   5.125   1.225  1.8051  1.1874  2.3303
 7921SOL    HW224663   3.708   5.277   1.177  1.1715 -0.0019 -1.3218
 7922SOL     OW24664   1.230   1.489   0.160  0.0353 -0.2696 -0.0944
 7922SOL    HW124665   1.233   1.523   0.254  2.7970 -1.1997  0.2297
 7922SOL    HW224666   1.294   1.541   0.103 -0.7883 -0.4453 -1.2220
 7923SOL     OW24667   0.335   6.091   6.065 -0.3555  0.2518 -0.4206
 7923SOL    HW124668   0.258   6.136   6.110  0.6783  1.0657  0.6194
 7923SOL    HW224669   0.354   6.003   6.108  0.3396  0.8213  0.4825
 7924SOL     OW24670   6.872   4.958   6.797 -0.6892  0.3604 -0.1095
 7924SOL    HW124671   6.788   5.012   6.788 -0.7078  0.2294 -0.7831
 7924SOL    HW224672   6.950   5.020   6.805 -0.6523  0.5138 -1.4135
 7925SOL     OW24673   6.238   6.141   4.344  0.3707 -0.5736 -0.4008
 7925SOL    HW124674   6.219   6.072   4.274  2.3345  0.0112 -1.5677
 7925SOL    HW224675   6.274   6.097   4.426 -2.9078 -1.3805  0.7569
 7926SOL     OW24676   6.008   3.689   1.104 -0.1028  0.6912  0.1946
 7926SOL    HW124677   6.084   3.731   1.056  1.7491  0.1468  2.4507
 7926SOL    HW224678   6.022   3.590   1.107 -0.5490  0.6499  1.1882
 7927SOL     OW24679   0.344   5.012   3.725 -0.0040 -0.3372 -0.0446
 7927SOL    HW124680   0.380   5.106   3.726 -0.7360 -0.0261  2.2404
 7927SOL    HW224681   0.417   4.949   3.752 -0.4538  0.0567  2.3457
 7928SOL     OW24682   3.379   6.041   1.110  0.0483 -0.1684 -0.0474
 7928SOL    HW124683   3.396   5.996   1.023  2.1138 -0.0308  0.2267
 7928SOL    HW224684   3.356   6.137   1.095  1.0981  0.0333 -0.4403
 7929SOL     OW24685   1.041   0.458   0.048  0.5544 -0.7489  0.6956
 7929SOL    HW124686   1.071   0.539  -0.002 -0.6124 -0.0910  1.0235
 7929SOL    HW224687   0.960   0.419   0.005 -0.2971 -0.3391  1.8725
 7930SOL     OW24688   6.736   6.568   2.689  0.1624 -0.6550  0.5209
 7930SOL    HW124689   6.772   6.658   2.712 -0.0740 -0.5207  0.3664
 7930SOL    HW224690   6.729   6.559   2.589  0.9294 -1.1363  0.5016
 7931SOL     OW24691   2.472   0.289   2.332 -0.3907  0.3892  0.3175
 7931SOL    HW124692   2.530   0.332   2.402 -0.4182  1.5607 -0.3585
 7931SOL    HW224693   2.380   0.277   2.368  0.3410 -2.0246  1.6151
 7932SOL     OW24694   4.356   2.281   5.211 -0.1459  0.5395 -0.1769
 7932SOL    HW124695   4.290   2.312   5.142 -0.2060  0.5008 -0.1362
 7932SOL    HW224696   4.328   2.314   5.301 -0.4979 -0.0815 -0.0537
 7933SOL     OW24697   5.095   3.105   1.521 -0.2573  0.0338  0.2708
 7933SOL    HW124698   5.133   3.054   1.598 -1.7660 -2.6755 -0.6507
 7933SOL    HW224699   5.006   3.142   1.546 -0.2130  0.1972  0.1916
 7934SOL     OW24700   4.889   6.301   6.864 -0.1648  0.4976  0.0318
 7934SOL    HW124701   4.885   6.252   6.776  2.0131  0.6861 -0.2219
 7934SOL    HW224702   4.952   6.254   6.926 -0.4097  1.2884  0.9066
 7935SOL     OW24703   1.277   1.875   1.442 -0.3919 -0.2934  0.3728
 7935SOL    HW124704   1.230   1.799   1.488  1.2725 -1.1995  0.6674
 7935SOL    HW224705   1.305   1.943   1.509  1.4495 -1.2950  0.6915
 7936SOL     OW24706   5.715   1.772   6.948  0.1360  0.4490  0.0700
 7936SOL    HW124707   5.739   1.862   6.983  1.3791 -0.7100  2.4765
 7936SOL    HW224708   5.663   1.722   7.018  0.9501 -1.2873 -0.4997
 7937SOL     OW24709   3.882   6.013   0.423 -0.3038  0.6161 -0.3541
 7937SOL    HW124710   3.822   6.066   0.363 -1.3114  0.1010  0.1886
 7937SOL    HW224711   3.831   5.937   0.463  1.1599 -0.9833 -1.3433
 7938SOL     OW24712   3.464   1.274   4.293  0.2356 -0.3762 -0.3447
 7938SOL    HW124713   3.503   1.212   4.225  1.0090 -0.5453  0.2382
 7938SOL    HW224714   3.521   1.274   4.375 -0.0780  0.6682 -0.1137
 7939SOL     OW24715   6.271   3.388   3.769  0.1509 -0.7939  0.3144
 7939SOL    HW124716   6.365   3.411   3.797 -0.1164 -0.7823  1.2502
 7939SOL    HW224717   6.218   3.471   3.756  0.7406 -0.7218 -2.0321
 7940SOL     OW24718   0.805   2.509   4.810 -0.1688  0.1485 -0.3238
 7940SOL    HW124719   0.869   2.433   4.799  0.5480  0.6556  0.1811
 7940SOL    HW224720   0.716   2.475   4.838 -0.0979 -0.5668 -0.9497
 7941SOL     OW24721   6.768   1.414   3.935  0.3482 -0.1607 -0.3727
 7941SOL    HW124722   6.861   1.444   3.954 -0.0653  1.7391 -1.1379
 7941SOL    HW224723   6.747   1.429   3.838 -0.7784 -0.5153 -0.2013
 7942SOL     OW24724   2.311   1.687   1.961 -0.4769 -0.4426 -0.2599
 7942SOL    HW124725   2.284   1.777   1.925  0.2371 -0.5363 -1.0453
 7942SOL    HW224726   2.404   1.666   1.931 -0.0994 -0.8089  1.1401
 7943SOL     OW24727   6.252   4.766   6.526 -0.2735 -0.2079  0.4814
 7943SOL    HW124728   6.347   4.771   6.556 -0.1576 -1.7658  0.4230
 7943SOL    HW224729   6.197   4.832   6.578  0.7875  0.5701  0.6464
 7944SOL     OW24730   5.721   3.679   0.391 -0.3531  0.2266 -0.0313
 7944SOL    HW124731   5.672   3.685   0.477  1.0390  1.7156  0.7091
 7944SOL    HW224732   5.755   3.586   0.377 -0.3397  0.0427  1.1828
 7945SOL     OW24733   6.754   3.475   6.833 -0.7075  0.3016  0.3431
 7945SOL    HW124734   6.719   3.390   6.794  0.0714  0.2629 -0.2952
 7945SOL    HW224735   6.724   3.552   6.776 -1.8287  0.5234  1.1941
 7946SOL     OW24736   1.783   2.856   3.535 -0.4275  0.0128  0.2880
 7946SOL    HW124737   1.722   2.931   3.561  0.4135  0.8723 -0.1619
 7946SOL    HW224738   1.860   2.893   3.483 -1.2805 -1.4306 -2.1568
 7947SOL     OW24739   6.717   6.268   2.218 -0.2344  0.4806 -0.0253
 7947SOL    HW124740   6.645   6.246   2.284 -0.5116  0.3306 -0.3721
 7947SOL    HW224741   6.709   6.208   2.139  0.1021  0.6509 -0.1907
 7948SOL     OW24742   2.079   0.797   0.724 -0.1979  0.3864 -0.1912
 7948SOL    HW124743   2.013   0.871   0.705  1.6803  2.2155  0.0464
 7948SOL    HW224744   2.040   0.710   0.696 -2.1329  1.5671 -1.4169
 7949SOL     OW24745   6.064   4.248   0.179  0.3142 -0.4685 -0.0540
 7949SOL    HW124746   6.087   4.312   0.253  0.1592 -0.3110 -0.1396
 7949SOL    HW224747   5.967   4.257   0.157  0.7837  1.1097 -1.7882
 7950SOL     OW24748   5.934   5.510   6.866  0.0172 -0.0160  0.0944
 7950SOL    HW124749   5.948   5.504   6.965  2.5832 -1.6161 -0.2599
 7950SOL    HW224750   5.978   5.432   6.822 -0.6484  0.9152 -2.3726
 7951SOL     OW24751   4.401   5.011   2.367  0.0993  0.2111 -0.1314
 7951SOL    HW124752   4.469   5.067   2.414 -0.7582  0.8522  0.3690
 7951SOL    HW224753   4.367   5.060   2.287  0.4432 -0.2433 -0.5659
 7952SOL     OW24754   5.659   1.187   0.181 -0.1106 -0.2942  0.3734
 7952SOL    HW124755   5.608   1.187   0.094 -0.6240 -0.8231  0.6631
 7952SOL    HW224756   5.685   1.093   0.203  1.9439  0.0737 -0.3062
 7953SOL     OW24757   1.963   4.353   2.734 -0.4269 -0.0129  0.0230
 7953SOL    HW124758   1.875   4.400   2.726 -0.9917 -0.8756  1.0272
 7953SOL    HW224759   1.976   4.323   2.828  0.6863 -0.4176 -0.2496
 7954SOL     OW24760   3.846   1.884   6.753  0.2481 -0.3807  0.3701
 7954SOL    HW124761   3.804   1.892   6.663  0.0012 -3.4176  0.1187
 7954SOL    HW224762   3.775   1.867   6.822  0.5950  0.2298  0.8963
 7955SOL     OW24763   1.978   5.162   3.046  0.1320  0.0000  0.2166
 7955SOL    HW124764   1.908   5.231   3.028  0.3805  0.2675  0.2856
 7955SOL    HW224765   1.938   5.071   3.033  0.0172  0.1616 -0.6761
 7956SOL     OW24766   6.319   1.231   5.070  0.2998  0.3943 -0.0338
 7956SOL    HW124767   6.375   1.156   5.036 -0.7312  0.0743 -1.0973
 7956SOL    HW224768   6.367   1.277   5.146  1.8149 -0.0705 -0.6707
 7957SOL     OW24769   6.323   3.157   4.056 -0.1160  0.0073 -0.0893
 7957SOL    HW124770   6.311   3.066   4.016 -1.3452  0.6211 -1.1815
 7957SOL    HW224771   6.258   3.220   4.015  1.3707  1.6247 -0.0764
 7958SOL     OW24772   1.852   0.790   1.451 -0.0867  0.4789  0.4967
 7958SOL    HW124773   1.866   0.774   1.353 -2.9343  0.8815 -0.0380
 7958SOL    HW224774   1.855   0.702   1.499  0.0723  0.1351 -0.1282
 7959SOL     OW24775   4.798   3.146   6.401  0.0682 -0.4004 -0.0997
 7959SOL    HW124776   4.831   3.240   6.406 -0.0689 -0.3167 -0.7447
 7959SOL    HW224777   4.707   3.141   6.442 -0.6625  0.1042 -1.6081
 7960SOL     OW24778   3.926   0.341   6.851 -0.3254  0.3105  0.3045
 7960SOL    HW124779   3.833   0.369   6.874 -0.5671 -0.2793  0.0702
 7960SOL    HW224780   3.971   0.413   6.797 -1.4726 -0.3627 -1.6598
 7961SOL     OW24781   1.310   0.560   4.704  0.0269 -0.0271 -0.1304
 7961SOL    HW124782   1.372   0.623   4.751 -1.0215 -0.1977  1.5642
 7961SOL    HW224783   1.353   0.529   4.619  1.6997  0.8662  0.3326
 7962SOL     OW24784   3.787   5.069   6.774  0.2303 -0.2984 -0.3399
 7962SOL    HW124785   3.838   5.120   6.843 -0.9241  1.7486 -0.9198
 7962SOL    HW224786   3.737   4.994   6.818 -1.6755  1.8395  1.3753
 7963SOL     OW24787   5.167   1.000   0.674 -0.2322 -0.2934 -0.1278
 7963SOL    HW124788   5.252   1.020   0.624  0.1461 -1.5309 -0.0168
 7963SOL    HW224789   5.136   1.083   0.721 -0.6444  0.9321 -2.4471
 7964SOL     OW24790   2.072   4.141   3.632 -0.6809  0.5155 -0.0352
 7964SOL    HW124791   2.166   4.145   3.666 -0.2207  1.6424 -1.3680
 7964SOL    HW224792   2.011   4.119   3.708  0.9059 -3.5576  0.3118
 7965SOL     OW24793   5.294   0.370   6.117 -0.0663 -0.0865  0.4728
 7965SOL    HW124794   5.289   0.436   6.192  1.3725  1.5562 -0.7872
 7965SOL    HW224795   5.211   0.376   6.061 -0.6727 -0.5598  1.3131
 7966SOL     OW24796   1.399   4.745   3.964  0.2629 -0.4825  0.5028
 7966SOL    HW124797   1.454   4.706   3.890  0.5667  1.8736 -0.5796
 7966SOL    HW224798   1.304   4.713   3.955  0.8695 -2.5644  0.9144
 7967SOL     OW24799   5.641   2.536   5.530  0.5630  0.9757  0.2685
 7967SOL    HW124800   5.593   2.607   5.478  0.5577  0.1857 -0.8508
 7967SOL    HW224801   5.590   2.450   5.524  0.6721  0.8176  1.4315
 7968SOL     OW24802   4.405   6.020   4.998 -0.2437 -0.1646  0.6241
 7968SOL    HW124803   4.485   6.015   4.939 -1.1302  4.7825 -1.4401
 7968SOL    HW224804   4.434   6.013   5.094  2.7638  1.7333 -0.0215
 7969SOL     OW24805   5.375   1.362   0.796  0.2674  0.7508 -0.1687
 7969SOL    HW124806   5.451   1.406   0.749  1.4477  0.8078  1.6961
 7969SOL    HW224807   5.382   1.378   0.894 -0.7948 -1.3069  0.3138
 7970SOL     OW24808   6.137   3.800   4.748 -0.2262 -0.6524 -0.0906
 7970SOL    HW124809   6.147   3.892   4.710 -0.1409 -0.3204  0.7121
 7970SOL    HW224810   6.040   3.775   4.748 -0.4267  0.0158  0.9551
 7971SOL     OW24811   2.022   3.708   5.597  0.0178  0.4214  0.5504
 7971SOL    HW124812   2.012   3.746   5.688 -1.3465 -1.3387  1.2005
 7971SOL    HW224813   2.119   3.699   5.575  0.3881 -0.0988  2.2686
 7972SOL     OW24814   6.542   0.299   2.413  0.2396  0.7905 -0.5134
 7972SOL    HW124815   6.571   0.256   2.498  1.6480  0.8685 -0.9236
 7972SOL    HW224816   6.467   0.248   2.373  2.1726 -1.6644 -1.2601
 7973SOL     OW24817   3.673   5.264   4.832  0.0215 -0.7193  0.3724
 7973SOL    HW124818   3.656   5.226   4.923  0.1279 -0.5768  0.4515
 7973SOL    HW224819   3.720   5.351   4.840 -1.3136  0.0421  0.2337
 7974SOL     OW24820   5.650   5.057   5.643 -0.2439  0.2920 -0.0080
 7974SOL    HW124821   5.712   5.120   5.598 -0.7185  0.3607 -0.5883
 7974SOL    HW224822   5.642   4.973   5.588 -1.3608  0.6528 -0.4286
 7975SOL     OW24823   5.616   4.754   5.647  0.4753 -0.2613 -0.0358
 7975SOL    HW124824   5.540   4.766   5.584 -0.1719 -1.1693  0.5554
 7975SOL    HW224825   5.634   4.656   5.660  0.3842 -0.1016  1.4278
 7976SOL     OW24826   2.489   4.061   1.205 -0.5868 -0.5496  1.0501
 7976SOL    HW124827   2.444   3.975   1.230  0.3588 -1.1544  0.6856
 7976SOL    HW224828   2.584   4.044   1.179 -0.3175  0.6372  1.1874
 7977SOL     OW24829   2.982   4.062   5.845  0.0752  0.1295  0.2696
 7977SOL    HW124830   2.940   4.104   5.764  1.8924  0.4846 -0.5392
 7977SOL    HW224831   3.013   3.970   5.823  1.5840  0.6293  0.1874
 7978SOL     OW24832   2.367   6.745   5.166  0.3021  0.1090 -0.0508
 7978SOL    HW124833   2.283   6.795   5.185 -0.9768 -2.0877  0.4238
 7978SOL    HW224834   2.406   6.712   5.252 -0.6763 -2.3888 -0.4798
 7979SOL     OW24835   0.686   3.377   2.221  0.5289  0.6424 -0.3441
 7979SOL    HW124836   0.758   3.348   2.284  1.7473  1.3030 -1.3865
 7979SOL    HW224837   0.670   3.306   2.153 -0.2376  0.2574  0.2169
 7980SOL     OW24838   1.136   6.449   5.039  0.0821 -0.6046  0.0884
 7980SOL    HW124839   1.186   6.389   5.102 -1.1800 -2.0263 -0.2004
 7980SOL    HW224840   1.038   6.434   5.051 -0.2001 -0.9433 -2.2186
 7981SOL     OW24841   2.259   6.022   4.199  0.6546  0.6121  0.2122
 7981SOL    HW124842   2.168   5.983   4.183  0.8700 -0.7396  2.0148
 7981SOL    HW224843   2.320   5.992   4.125 -0.1530  0.9087 -0.6042
 7982SOL     OW24844   0.004   5.380   5.717 -0.2426 -0.0431  0.2862
 7982SOL    HW124845   0.015   5.476   5.741  1.2649  0.1836 -1.1436
 7982SOL    HW224846  -0.031   5.373   5.623 -0.6079 -0.8932  0.4770
 7983SOL     OW24847   1.684   0.101   4.265 -0.4252  0.6756 -0.3937
 7983SOL    HW124848   1.643   0.179   4.312  0.0954  0.6895  0.0473
 7983SOL    HW224849   1.714   0.033   4.332  0.0556  0.5645 -0.7151
 7984SOL     OW24850   4.874   6.491   0.363 -0.1813  0.6442  0.5600
 7984SOL    HW124851   4.862   6.403   0.316 -0.5140  0.3671  1.1600
 7984SOL    HW224852   4.889   6.475   0.460 -0.2963  1.2582  0.6804
 7985SOL     OW24853   6.815   0.215   0.956 -0.7779  0.6202  0.0743
 7985SOL    HW124854   6.894   0.161   0.986 -0.5035  1.5356  1.0476
 7985SOL    HW224855   6.755   0.158   0.900 -1.6262 -1.4176  2.7998
 7986SOL     OW24856   6.757   4.310   1.375 -0.2319  0.0224  0.3745
 7986SOL    HW124857   6.711   4.223   1.392  1.0393 -0.9642 -0.9534
 7986SOL    HW224858   6.848   4.308   1.415  0.5593 -0.0695 -1.3269
 7987SOL     OW24859   0.223   0.666   0.101  0.1009 -0.2535  0.3179
 7987SOL    HW124860   0.126   0.644   0.088 -0.0578 -1.5004  2.8943
 7987SOL    HW224861   0.278   0.617   0.034 -0.9914 -0.1124 -0.7059
 7988SOL     OW24862   1.710   0.676   2.105  0.3776  0.1915  0.5262
 7988SOL    HW124863   1.769   0.616   2.050 -0.1008 -1.7259  2.0102
 7988SOL    HW224864   1.649   0.728   2.044  1.1318 -0.4590 -0.8259
 7989SOL     OW24865   6.929   3.065   0.182 -0.4247 -0.4350  0.5150
 7989SOL    HW124866   6.837   3.050   0.218 -0.8782 -1.6598 -1.0612
 7989SOL    HW224867   6.924   3.084   0.084  1.0575 -1.7620  0.1390
 7990SOL     OW24868   6.708   1.591   5.510 -0.4936 -0.0403  0.3885
 7990SOL    HW124869   6.694   1.568   5.606  0.7735  0.0320  0.6077
 7990SOL    HW224870   6.621   1.621   5.470 -1.5565 -2.2438  0.8865
 7991SOL     OW24871   0.797   0.560   1.802 -0.9927 -0.2739  0.0714
 7991SOL    HW124872   0.814   0.514   1.716  0.0917 -1.2722  0.7899
 7991SOL    HW224873   0.789   0.492   1.875  0.1252  0.6344  1.0735
 7992SOL     OW24874   1.505   2.647   0.300  0.1012  0.1450  0.1161
 7992SOL    HW124875   1.406   2.644   0.292  0.1178  1.7260 -1.3391
 7992SOL    HW224876   1.544   2.560   0.272 -0.8013  0.1150 -1.1288
 7993SOL     OW24877   3.192   5.528   6.629 -0.8171  0.2762  0.7864
 7993SOL    HW124878   3.099   5.546   6.596 -0.2823  0.4621 -0.7215
 7993SOL    HW224879   3.258   5.570   6.566  0.3027 -0.4660  1.4330
 7994SOL     OW24880   2.949   2.059   0.217  0.2746 -0.1694 -0.3567
 7994SOL    HW124881   2.980   2.090   0.128  1.3871  1.2146  0.4723
 7994SOL    HW224882   3.023   2.069   0.284 -0.9447  0.1292  1.0180
 7995SOL     OW24883   0.960   2.253   1.654 -0.6602 -0.1695 -0.0533
 7995SOL    HW124884   1.002   2.220   1.570  0.7365  0.7688  0.2407
 7995SOL    HW224885   0.887   2.190   1.682 -0.2643 -1.1937 -1.2408
 7996SOL     OW24886   0.720   3.445   2.593  0.1046  0.6966 -0.3208
 7996SOL    HW124887   0.753   3.361   2.549 -0.8507  0.0978  0.0759
 7996SOL    HW224888   0.735   3.523   2.531  2.7508  0.5845  0.0534
 7997SOL     OW24889   2.546   3.161   0.749  0.7837 -0.2618 -0.2460
 7997SOL    HW124890   2.532   3.076   0.699  2.3379 -0.3987 -0.5093
 7997SOL    HW224891   2.604   3.144   0.828  1.3475  0.5879 -0.4599
 7998SOL     OW24892   1.361   6.146   1.138 -0.3329 -0.0312 -0.4296
 7998SOL    HW124893   1.268   6.112   1.124 -0.8311  1.3337 -0.5915
 7998SOL    HW224894   1.377   6.162   1.235 -0.4744  0.2784 -0.4558
 7999SOL     OW24895   3.806   1.650   3.959 -0.0529  0.2435  0.4469
 7999SOL    HW124896   3.849   1.727   3.912  0.2272 -0.9192 -1.2751
 7999SOL    HW224897   3.858   1.630   4.043  1.4546  0.2973 -0.4312
 8000SOL     OW24898   4.761   4.562   6.881  0.0264 -0.3833 -0.0328
 8000SOL    HW124899   4.698   4.502   6.832 -0.9790 -1.2610  2.2245
 8000SOL    HW224900   4.818   4.508   6.943  3.1018  0.3818 -1.9631
 8001SOL     OW24901   2.288   5.301   3.807  0.0666  0.1033  0.0048
 8001SOL    HW124902   2.231   5.370   3.762 -2.2971 -0.8000  1.4253
 8001SOL    HW224903   2.239   5.263   3.885  2.3527 -1.3608  0.8358
 8002SOL     OW24904   7.023   2.635   5.753 -0.4628 -0.0167 -0.5553
 8002SOL    HW124905   7.090   2.634   5.827 -1.4106 -0.2399  0.3179
 8002SOL    HW224906   7.069   2.620   5.666  0.8828  1.7088 -0.1908
 8003SOL     OW24907   4.248   6.402   2.567  0.0711 -0.2242 -0.1543
 8003SOL    HW124908   4.202   6.460   2.635 -1.4199 -0.2709 -1.0748
 8003SOL    HW224909   4.266   6.312   2.607  0.2730  0.1117  0.5369
 8004SOL     OW24910   6.449   0.567   4.079  0.2929  0.6612 -0.0536
 8004SOL    HW124911   6.496   0.573   4.167  0.6634 -1.9408 -0.0067
 8004SOL    HW224912   6.476   0.645   4.022  1.2727  1.5480  1.5492
 8005SOL     OW24913   4.317   4.634   1.471 -0.6097 -0.0773 -0.1070
 8005SOL    HW124914   4.318   4.705   1.541 -0.2155 -0.8851  0.7190
 8005SOL    HW224915   4.360   4.551   1.506 -1.5744 -0.9234 -0.8511
 8006SOL     OW24916   1.153   5.786   4.856  0.0667  0.0478  0.3879
 8006SOL    HW124917   1.159   5.755   4.951  0.6844  0.6125  0.5425
 8006SOL    HW224918   1.242   5.778   4.812  0.1419  1.1555  0.3057
 8007SOL     OW24919   2.391   1.710   2.215 -0.7008  0.1668 -0.1973
 8007SOL    HW124920   2.366   1.725   2.119 -1.4499  0.2280  0.0078
 8007SOL    HW224921   2.424   1.796   2.254 -0.9467  0.2780 -0.2340
 8008SOL     OW24922   6.313   6.881   4.031  0.3758  0.0078  0.8246
 8008SOL    HW124923   6.213   6.884   4.038  0.3308  2.0791  0.0408
 8008SOL    HW224924   6.351   6.965   4.070  1.6969 -0.1403 -0.0896
 8009SOL     OW24925   4.045   3.775   3.758 -0.3034  0.0720 -0.8544
 8009SOL    HW124926   4.097   3.704   3.712  0.6393 -0.4195  0.8812
 8009SOL    HW224927   3.990   3.734   3.831  2.6401  1.2731  2.3423
 8010SOL     OW24928   4.843   5.282   0.020  0.0537  0.2391  0.3369
 8010SOL    HW124929   4.794   5.200  -0.011  0.5477 -0.4032  1.2095
 8010SOL    HW224930   4.784   5.361   0.012 -0.4129 -0.1877 -0.5973
 8011SOL     OW24931   2.509   2.524   2.000  0.0296  0.3935  0.4832
 8011SOL    HW124932   2.541   2.433   2.026  0.2986 -0.4077 -2.3014
 8011SOL    HW224933   2.573   2.564   1.935  0.6033  3.2179  2.6137
 8012SOL     OW24934   1.103   2.065   4.290  0.2217 -0.0305  0.1103
 8012SOL    HW124935   1.165   1.988   4.275 -0.4667 -0.7278  0.7755
 8012SOL    HW224936   1.030   2.061   4.222  0.2558  0.1175  0.0651
 8013SOL     OW24937   4.644   1.171   1.947 -0.2138 -0.3909 -0.1680
 8013SOL    HW124938   4.569   1.160   2.014  0.7926 -1.9296  0.7841
 8013SOL    HW224939   4.663   1.082   1.905  1.8058 -0.3042  0.4509
 8014SOL     OW24940   6.217   0.587   2.699  0.0535  0.3126 -0.5544
 8014SOL    HW124941   6.313   0.598   2.726  0.2149  1.5253 -1.5031
 8014SOL    HW224942   6.190   0.665   2.642 -1.6782  0.2803  0.1656
 8015SOL     OW24943   2.852   3.093   6.229 -0.0533 -0.0987  0.5021
 8015SOL    HW124944   2.895   3.036   6.158 -2.0835 -0.8367 -0.2042
 8015SOL    HW224945   2.922   3.125   6.292  1.9357  0.9287 -2.0451
 8016SOL     OW24946   2.466   5.950   4.833  0.4298  0.1744  0.3858
 8016SOL    HW124947   2.372   5.915   4.835  0.5222 -0.0978 -0.0237
 8016SOL    HW224948   2.484   6.000   4.918 -0.7468  1.9747 -0.3685
 8017SOL     OW24949   5.226   0.460   3.995 -0.0182 -0.4366  0.2851
 8017SOL    HW124950   5.157   0.396   4.030  0.1609 -0.1616  1.1618
 8017SOL    HW224951   5.307   0.456   4.053 -0.5704  1.6987  1.3495
 8018SOL     OW24952   5.543   3.282   0.045  0.2786 -0.3019 -0.0498
 8018SOL    HW124953   5.605   3.206   0.029 -1.4984 -1.7138 -0.6052
 8018SOL    HW224954   5.574   3.334   0.125  1.1361 -2.0628  0.8175
 8019SOL     OW24955   2.097   1.735   5.717 -0.1527  0.2768 -0.2696
 8019SOL    HW124956   2.012   1.749   5.668  0.0702  1.5801 -0.3046
 8019SOL    HW224957   2.148   1.821   5.723  0.7817 -0.2977  0.4578
 8020SOL     OW24958   0.178   0.978   2.356  0.0281 -0.2811  0.1238
 8020SOL    HW124959   0.212   1.030   2.277  1.8667 -1.6959 -0.0912
 8020SOL    HW224960   0.248   0.975   2.427 -0.6971 -1.0317  0.8316
 8021SOL     OW24961   4.327   0.219   2.221 -0.1418 -0.3840  0.3383
 8021SOL    HW124962   4.278   0.138   2.191 -0.7288 -0.6857  1.9869
 8021SOL    HW224963   4.266   0.298   2.219  0.3866  0.0139 -1.1199
 8022SOL     OW24964   2.270   0.829   1.340  1.1242 -0.4478 -0.0306
 8022SOL    HW124965   2.317   0.827   1.429  1.9853 -1.5541 -0.4862
 8022SOL    HW224966   2.237   0.922   1.322  3.2842  0.4481  0.2492
 8023SOL     OW24967   3.721   1.250   5.591 -0.3833 -0.1843  0.3148
 8023SOL    HW124968   3.803   1.213   5.633 -0.2493 -0.2264  0.0166
 8023SOL    HW224969   3.744   1.298   5.507 -0.8025 -1.2927 -0.4491
 8024SOL     OW24970   0.577   2.930   3.886 -0.4874 -0.1049  0.2924
 8024SOL    HW124971   0.641   2.874   3.939  0.2413  1.1850  0.8061
 8024SOL    HW224972   0.504   2.963   3.945 -1.1022 -0.7518 -0.0838
 8025SOL     OW24973   5.322   1.801   3.284  0.9339  0.1630  0.5765
 8025SOL    HW124974   5.399   1.750   3.245  0.0351 -0.3982 -0.5119
 8025SOL    HW224975   5.356   1.864   3.353  2.0116 -2.6513  2.8457
 8026SOL     OW24976   2.385   2.610   5.175  0.0360 -0.1431 -0.1981
 8026SOL    HW124977   2.307   2.547   5.181 -1.7941  1.9892  0.0391
 8026SOL    HW224978   2.385   2.654   5.085  0.9653 -0.0760 -0.1727
 8027SOL     OW24979   4.083   2.143   5.636 -0.9448 -0.6381 -0.1772
 8027SOL    HW124980   4.090   2.170   5.540 -1.7930  0.4792  0.0532
 8027SOL    HW224981   4.143   2.066   5.653 -0.2243 -0.3882 -1.4399
 8028SOL     OW24982   2.731   5.813   6.808 -0.6295 -0.5407 -0.4574
 8028SOL    HW124983   2.765   5.893   6.856 -3.4917  0.1499  0.6062
 8028SOL    HW224984   2.781   5.732   6.839  2.0150  0.6939 -1.2398
 8029SOL     OW24985   4.221   0.192   1.927 -0.0581  0.2774  0.2740
 8029SOL    HW124986   4.266   0.280   1.945  1.0675 -0.3566  0.6308
 8029SOL    HW224987   4.285   0.118   1.945 -0.6845 -0.5916 -0.9606
 8030SOL     OW24988   0.602   2.757   2.920  0.1989  0.2718  0.1964
 8030SOL    HW124989   0.592   2.734   2.823  0.1778  1.6082 -0.1372
 8030SOL    HW224990   0.512   2.772   2.961  0.2722  1.6678 -0.0983
 8031SOL     OW24991   1.777   4.241   0.227 -0.2052  0.3284  0.5997
 8031SOL    HW124992   1.775   4.159   0.284 -2.0557 -0.6388 -0.7682
 8031SOL    HW224993   1.832   4.224   0.145 -1.3298  0.0875 -0.1336
 8032SOL     OW24994   1.518   5.296   1.511  0.2878  0.2181  0.8470
 8032SOL    HW124995   1.533   5.384   1.554 -1.2710  0.4605  0.9737
 8032SOL    HW224996   1.559   5.295   1.420 -1.2726  1.7994  0.0628
 8033SOL     OW24997   4.470   5.199   4.335 -0.1527  0.1774  0.3207
 8033SOL    HW124998   4.386   5.220   4.284 -1.0364 -1.3741  1.0785
 8033SOL    HW224999   4.514   5.118   4.295  0.5907  0.5363  0.3975
 8034SOL     OW25000   6.946   0.131   5.360 -0.0810  0.3150  0.2606
 8034SOL    HW125001   6.982   0.220   5.390 -1.6812  1.1140 -0.0328
 8034SOL    HW225002   6.945   0.068   5.437 -0.8125  1.2206  1.0345
 8035SOL     OW25003   6.069   4.163   6.328  0.5151 -0.3466  0.3830
 8035SOL    HW125004   5.974   4.194   6.320  0.2232 -1.6194 -1.7794
 8035SOL    HW225005   6.130   4.241   6.317 -0.2676  0.3371  0.8003
 8036SOL     OW25006   0.621   3.714   4.691  0.2053  0.2361 -0.9237
 8036SOL    HW125007   0.602   3.803   4.733 -0.2306  0.2012 -1.0402
 8036SOL    HW225008   0.707   3.678   4.727  0.6743  0.9600 -1.2994
 8037SOL     OW25009   2.813   5.585   5.281 -0.0539  0.6199 -0.0895
 8037SOL    HW125010   2.731   5.527   5.279 -0.5668  1.3287 -0.1430
 8037SOL    HW225011   2.810   5.650   5.205  0.4438  0.8088  0.0480
 8038SOL     OW25012   3.692   5.970   5.908  0.1308 -0.5962 -0.2804
 8038SOL    HW125013   3.651   5.880   5.897 -0.4046 -0.3524 -0.2902
 8038SOL    HW225014   3.746   5.973   5.992  1.0817 -1.2754 -0.8479
 8039SOL     OW25015   2.785   2.269   0.381 -0.2283  0.4662 -0.3228
 8039SOL    HW125016   2.851   2.208   0.426 -0.0875  1.2258  0.5266
 8039SOL    HW225017   2.801   2.269   0.282  1.0389  0.6316 -0.1309
 8040SOL     OW25018   1.060   5.987   0.257 -0.4095  0.4427  0.3280
 8040SOL    HW125019   1.086   5.996   0.161  0.8340  0.2678  0.6229
 8040SOL    HW225020   1.106   6.058   0.310 -1.6438  0.9800  0.7090
 8041SOL     OW25021   0.609   0.474   2.587  0.2019  0.0711  0.2805
 8041SOL    HW125022   0.691   0.438   2.543  0.3217  0.7599 -0.0612
 8041SOL    HW225023   0.608   0.446   2.683  1.7753  1.5670  0.7870
 8042SOL     OW25024   0.839   3.667   4.913  0.5439 -0.2624 -0.7046
 8042SOL    HW125025   0.909   3.697   4.847 -0.1068  0.0216 -1.2867
 8042SOL    HW225026   0.880   3.606   4.980  1.1648 -0.8172 -1.5643
 8043SOL     OW25027   1.612   0.609   4.172  0.0796  0.3713 -0.2023
 8043SOL    HW125028   1.680   0.679   4.192  1.6630 -1.1516  0.0023
 8043SOL    HW225029   1.629   0.571   4.081  1.0124 -1.5911  0.7273
 8044SOL     OW25030   5.320   2.174   2.204 -0.1120 -0.0202 -0.7008
 8044SOL    HW125031   5.395   2.167   2.137 -1.6373 -0.8594 -2.4056
 8044SOL    HW225032   5.357   2.161   2.296  2.0194  0.8154 -1.3478
 8045SOL     OW25033   3.420   0.921   3.989 -0.0170  0.1959  0.1000
 8045SOL    HW125034   3.427   1.006   3.937 -0.2611  0.5552  0.6351
 8045SOL    HW225035   3.410   0.844   3.927 -1.9982  0.7746 -0.3729
 8046SOL     OW25036   4.600   4.264   0.324 -0.0591 -0.0002  0.1441
 8046SOL    HW125037   4.574   4.177   0.368  0.2545 -0.2742 -0.2120
 8046SOL    HW225038   4.543   4.278   0.243  0.0932 -0.0209  0.0335
 8047SOL     OW25039   5.166   3.773   6.919 -0.2237 -0.3551 -0.1005
 8047SOL    HW125040   5.222   3.853   6.899 -0.7682  0.1486  0.3410
 8047SOL    HW225041   5.178   3.705   6.847  1.7499 -0.7151  0.5227
 8048SOL     OW25042   5.786   4.111   2.386  0.0245 -0.1395  0.0830
 8048SOL    HW125043   5.689   4.134   2.381 -0.3832 -1.8535 -0.5962
 8048SOL    HW225044   5.834   4.151   2.307 -0.0945  0.7214  0.4282
 8049SOL     OW25045   6.120   3.968   1.305 -0.0029  0.4680  0.0526
 8049SOL    HW125046   6.121   4.053   1.359 -0.5784 -0.0418  0.8893
 8049SOL    HW225047   6.178   3.900   1.349 -1.4772 -0.3767  0.7579
 8050SOL     OW25048   6.192   4.468   0.054  0.6934  0.2612  0.1108
 8050SOL    HW125049   6.276   4.490   0.102  0.7555 -0.2079  0.2209
 8050SOL    HW225050   6.152   4.385   0.092 -0.1274  0.7889  0.4457
 8051SOL     OW25051   0.080   4.176   2.949  0.0042  0.4282  0.3187
 8051SOL    HW125052  -0.017   4.155   2.935  0.0280  0.6657 -0.2512
 8051SOL    HW225053   0.112   4.236   2.875  0.5100  0.5955  0.6688
 8052SOL     OW25054   6.762   2.018   4.730 -0.7133  0.1756 -0.3123
 8052SOL    HW125055   6.853   2.060   4.731 -1.4430  1.8867 -1.3005
 8052SOL    HW225056   6.771   1.919   4.742  1.0206  0.6002  3.2379
 8053SOL     OW25057   2.117   3.046   6.001  0.1135  0.5418  0.0408
 8053SOL    HW125058   2.032   3.001   6.024  1.6288 -1.8012  1.4798
 8053SOL    HW225059   2.132   3.123   6.063 -0.6942  0.6677  0.0873
 8054SOL     OW25060   4.244   2.222   0.004 -0.0091  0.0539 -0.3922
 8054SOL    HW125061   4.331   2.189  -0.030 -0.3725 -1.6798  0.2283
 8054SOL    HW225062   4.197   2.148   0.052 -2.0136  0.8117 -1.0663
 8055SOL     OW25063   2.429   1.312   6.515 -0.3955 -0.2690 -0.2603
 8055SOL    HW125064   2.359   1.373   6.477 -0.6611 -1.0906 -1.1280
 8055SOL    HW225065   2.484   1.363   6.581 -0.8123  0.8265 -0.7152
 8056SOL     OW25066   2.151   2.052   3.885 -0.4838 -1.2645 -0.6753
 8056SOL    HW125067   2.232   2.041   3.828  0.8821 -0.4181  0.9965
 8056SOL    HW225068   2.158   2.138   3.935 -2.0588 -1.5482  0.0792
 8057SOL     OW25069   2.741   1.911   0.315  0.5270  0.3165  0.0637
 8057SOL    HW125070   2.712   1.927   0.409 -1.8985 -0.3400 -0.5067
 8057SOL    HW225071   2.809   1.979   0.289 -0.4179  1.9258  1.5819
 8058SOL     OW25072   0.049   2.990   5.865  0.2547 -0.7579  0.0780
 8058SOL    HW125073  -0.013   2.956   5.794  0.6725  0.0931 -0.7192
 8058SOL    HW225074  -0.002   3.006   5.949 -0.5052 -0.6114 -0.3961
 8059SOL     OW25075   6.240   1.845   2.499  0.1662  0.2622  0.2345
 8059SOL    HW125076   6.185   1.921   2.533 -0.5913 -0.9999  2.0488
 8059SOL    HW225077   6.324   1.838   2.553  0.3973  0.0323 -0.1502
 8060SOL     OW25078   1.930   4.002   0.329  0.0226 -0.2854  0.1031
 8060SOL    HW125079   1.984   4.017   0.247  1.6403  0.8705  1.3149
 8060SOL    HW225080   1.956   3.915   0.371  1.2643  0.4323  0.8751
 8061SOL     OW25081   6.839   0.845   3.364  0.2550 -1.0962  0.3147
 8061SOL    HW125082   6.928   0.866   3.407 -0.3976 -0.9155  1.6319
 8061SOL    HW225083   6.846   0.760   3.312  1.4041 -0.6680 -0.2774
 8062SOL     OW25084   0.348   5.764   1.106 -0.0488 -0.3944  0.2871
 8062SOL    HW125085   0.302   5.679   1.131  1.7511 -1.2610  0.7762
 8062SOL    HW225086   0.434   5.743   1.059 -0.7613  1.1718 -1.9301
 8063SOL     OW25087   2.801   1.584   5.538 -0.5953  0.1246 -0.7472
 8063SOL    HW125088   2.731   1.587   5.610  0.0314 -0.2633 -0.1171
 8063SOL    HW225089   2.796   1.669   5.485 -0.6761  0.6869  0.1282
 8064SOL     OW25090   0.848   4.621   4.131  0.2135  0.4258 -0.3843
 8064SOL    HW125091   0.879   4.711   4.100 -2.2471  0.9750 -1.5505
 8064SOL    HW225092   0.814   4.628   4.225 -2.0040  1.3188 -1.1925
 8065SOL     OW25093   2.062   2.961   5.393 -0.3112 -0.3293  0.2221
 8065SOL    HW125094   1.992   2.891   5.407 -0.4541  0.0693  1.5222
 8065SOL    HW225095   2.134   2.950   5.461 -0.2988  0.7541  0.3878
 8066SOL     OW25096   2.162   4.562   1.082 -0.2323  0.3322 -0.2712
 8066SOL    HW125097   2.088   4.598   1.025 -0.2619  0.8836  0.1068
 8066SOL    HW225098   2.135   4.567   1.178  0.2879  0.5298 -0.1322
 8067SOL     OW25099   5.796   5.978   4.646 -0.8026  0.3218 -0.2319
 8067SOL    HW125100   5.802   5.974   4.745  2.3206  0.8540 -0.3012
 8067SOL    HW225101   5.810   6.073   4.615  1.0468 -0.2141 -1.2098
 8068SOL     OW25102   0.777   0.483   4.109  0.4673  0.2874 -0.2496
 8068SOL    HW125103   0.700   0.521   4.057  0.4896  1.0209  0.2360
 8068SOL    HW225104   0.802   0.394   4.071 -0.9552 -0.2040 -0.0708
 8069SOL     OW25105   0.682   6.033   0.350 -0.0574  0.1183  0.4158
 8069SOL    HW125106   0.647   6.126   0.343  0.5185  0.2712 -0.6618
 8069SOL    HW225107   0.636   5.985   0.425 -0.9357  1.0118  0.4628
 8070SOL     OW25108   5.339   6.699   0.458 -0.1563  0.0286 -0.2211
 8070SOL    HW125109   5.352   6.757   0.538  1.7906 -0.4017 -0.1693
 8070SOL    HW225110   5.269   6.739   0.399  0.5353  1.9751  0.2059
 8071SOL     OW25111   1.210   4.485   4.859  0.0282  0.1409 -0.0889
 8071SOL    HW125112   1.300   4.526   4.874 -0.3199  0.5891  0.8207
 8071SOL    HW225113   1.142   4.557   4.845 -0.1795 -0.1988 -0.9054
 8072SOL     OW25114   5.616   6.681   0.295  0.4652 -0.2376 -0.2863
 8072SOL    HW125115   5.628   6.586   0.324 -0.8401 -0.2365  0.3116
 8072SOL    HW225116   5.518   6.699   0.281  0.8571  0.3683 -2.6380
 8073SOL     OW25117   0.055   6.693   3.856 -0.1090  0.5873 -0.3238
 8073SOL    HW125118   0.030   6.726   3.765 -1.8085  2.5313  0.7582
 8073SOL    HW225119   0.007   6.607   3.874  0.2780  0.1631 -1.2557
 8074SOL     OW25120   4.487   2.820   6.319  0.2587  0.4530 -0.0604
 8074SOL    HW125121   4.489   2.865   6.230  1.1158  0.3383 -0.1149
 8074SOL    HW225122   4.399   2.774   6.332  0.4798 -0.3823 -1.2965
 8075SOL     OW25123   4.970   4.111   0.499  0.0889  0.1881 -0.3714
 8075SOL    HW125124   4.940   4.205   0.512  0.0704  0.0824  0.4292
 8075SOL    HW225125   4.966   4.087   0.402 -3.5664 -0.1998 -0.2568
 8076SOL     OW25126   1.566   1.961   1.334  0.4521  0.0700 -0.1848
 8076SOL    HW125127   1.648   1.905   1.337 -0.0673 -0.7498 -1.0884
 8076SOL    HW225128   1.488   1.909   1.370  0.0867  0.4139 -0.4689
 8077SOL     OW25129   3.337   0.210   6.878  0.2849 -0.6238 -0.2297
 8077SOL    HW125130   3.337   0.190   6.780 -1.6643  0.3723 -0.4822
 8077SOL    HW225131   3.385   0.296   6.894 -1.6148  0.6042 -0.7161
 8078SOL     OW25132   1.888   1.079   0.914  0.9624 -0.2869 -0.0804
 8078SOL    HW125133   1.951   1.127   0.853  1.1659  1.2103  1.2453
 8078SOL    HW225134   1.939   1.012   0.968  0.8587 -1.2769 -1.1562
 8079SOL     OW25135   0.250   3.601   1.290 -0.1488 -0.0417  0.0422
 8079SOL    HW125136   0.315   3.665   1.331 -1.3976  0.1177  1.9103
 8079SOL    HW225137   0.279   3.578   1.197  2.1767  0.5436  0.5630
 8080SOL     OW25138   6.592   1.848   1.046 -0.2349  0.1844 -0.2323
 8080SOL    HW125139   6.673   1.830   1.102 -2.0160 -0.8691  2.2150
 8080SOL    HW225140   6.588   1.945   1.023  2.2286  0.0816 -1.3652
 8081SOL     OW25141   4.556   1.036   4.799 -0.2147  0.3068  0.1183
 8081SOL    HW125142   4.549   1.001   4.892 -0.3368 -0.3657 -0.1418
 8081SOL    HW225143   4.518   0.970   4.735  0.9540  0.2281 -0.5311
 8082SOL     OW25144   0.924   6.930   5.609  0.0889  0.5787  0.6893
 8082SOL    HW125145   0.830   6.960   5.595 -0.7410 -1.9163  0.4294
 8082SOL    HW225146   0.938   6.841   5.566  2.4123  0.5994  1.2400
 8083SOL     OW25147   3.704   4.983   1.892  0.0208  0.1536  0.2562
 8083SOL    HW125148   3.662   4.904   1.935  4.1818 -2.3644  0.2454
 8083SOL    HW225149   3.649   5.012   1.813 -2.9442 -0.9873  1.7744
 8084SOL     OW25150   5.512   5.042   2.593  0.6226  0.4033 -0.2998
 8084SOL    HW125151   5.427   4.993   2.616 -0.3723  2.6261  1.0916
 8084SOL    HW225152   5.496   5.101   2.514  1.4807 -0.5873 -1.2435
 8085SOL     OW25153   6.061   5.812   2.690 -0.1443 -0.2315 -0.6854
 8085SOL    HW125154   6.079   5.898   2.644 -1.2692  0.6353  0.4257
 8085SOL    HW225155   6.000   5.828   2.768 -0.8726 -2.1182 -0.8202
 8086SOL     OW25156   5.033   1.424   4.274  0.5171  0.5351 -0.4061
 8086SOL    HW125157   5.015   1.479   4.192 -0.8147  1.0242  0.1907
 8086SOL    HW225158   4.972   1.344   4.274  1.3509 -0.1126 -0.4819
 8087SOL     OW25159   1.287   2.127   4.678 -0.1819  0.4131 -0.8002
 8087SOL    HW125160   1.212   2.089   4.733 -0.5491  0.4609 -1.2684
 8087SOL    HW225161   1.325   2.055   4.620  0.9453  0.0811  0.3155
 8088SOL     OW25162   3.771   6.766   0.586 -0.1286  0.3873 -0.5308
 8088SOL    HW125163   3.759   6.797   0.680  0.1484 -1.7032  0.2552
 8088SOL    HW225164   3.864   6.787   0.555 -0.7435  2.6686 -1.0385
 8089SOL     OW25165   2.275   4.462   0.702  0.1318  0.3394 -0.4588
 8089SOL    HW125166   2.329   4.409   0.637 -0.6279 -1.1245  0.0474
 8089SOL    HW225167   2.334   4.499   0.774  0.4661 -1.4862  0.2535
 8090SOL     OW25168   6.463   6.649   4.029 -0.0126  0.2476 -0.7061
 8090SOL    HW125169   6.403   6.725   4.051 -1.6820 -1.5323  1.3440
 8090SOL    HW225170   6.413   6.580   3.976  0.3780 -0.9120  0.3689
 8091SOL     OW25171   4.677   3.759   0.848 -0.1696 -0.1912  0.4902
 8091SOL    HW125172   4.705   3.663   0.840 -0.1337 -0.1819  0.5061
 8091SOL    HW225173   4.733   3.815   0.787 -0.8142 -0.3082 -0.2239
 8092SOL     OW25174   0.964   1.783   1.180  0.0746  0.6442  0.0820
 8092SOL    HW125175   1.056   1.818   1.162  0.3443 -0.6126 -1.1463
 8092SOL    HW225176   0.916   1.770   1.093  0.3393 -2.8822  0.3459
 8093SOL     OW25177   0.360   6.362   6.967 -0.4903  0.5782 -0.3766
 8093SOL    HW125178   0.421   6.292   6.929 -1.3438 -0.3673 -0.0242
 8093SOL    HW225179   0.328   6.422   6.893 -1.1320 -0.4748 -0.9738
 8094SOL     OW25180   2.126   0.518   6.882  0.1065  0.1111  0.0471
 8094SOL    HW125181   2.145   0.538   6.786  1.4239 -0.6154  0.1424
 8094SOL    HW225182   2.149   0.423   6.902  1.6072  0.7347  1.4941
 8095SOL     OW25183   1.572   2.194   4.787 -0.4657  1.0547 -0.0536
 8095SOL    HW125184   1.608   2.226   4.700  0.9236 -0.9028 -0.2683
 8095SOL    HW225185   1.517   2.112   4.773  2.3286 -1.2253  1.0453
 8096SOL     OW25186   0.019   2.519   6.954 -0.2600 -0.1198  0.1392
 8096SOL    HW125187   0.009   2.426   6.989 -0.2106 -0.1797 -0.0030
 8096SOL    HW225188   0.116   2.537   6.935 -0.3464 -0.2588 -0.4336
 8097SOL     OW25189   5.996   4.425   5.111 -0.4026 -0.0176 -0.1625
 8097SOL    HW125190   5.942   4.360   5.058 -0.3038 -0.8118  0.6943
 8097SOL    HW225191   5.989   4.404   5.208  0.6273  0.4971  0.0395
 8098SOL     OW25192   4.520   4.863   1.898  0.0806  0.0956 -0.6282
 8098SOL    HW125193   4.422   4.848   1.911  0.5027 -1.2453  1.3796
 8098SOL    HW225194   4.558   4.789   1.843 -0.0066  0.5960 -1.3751
 8099SOL     OW25195   4.497   4.888   3.769  0.2181  0.1935 -0.0511
 8099SOL    HW125196   4.410   4.850   3.738  0.0515  1.5976 -1.4585
 8099SOL    HW225197   4.532   4.834   3.846 -0.8565 -1.6318 -0.7778
 8100SOL     OW25198   4.432   5.757   1.937  0.4300  0.0821  0.0309
 8100SOL    HW125199   4.352   5.698   1.952  0.6931 -0.5200 -0.8102
 8100SOL    HW225200   4.413   5.822   1.864  0.2737  0.8057  0.7024
 8101SOL     OW25201   0.064   0.435   6.958  0.4258  0.0507  0.4783
 8101SOL    HW125202   0.096   0.384   7.038 -1.6825 -0.8020  0.8469
 8101SOL    HW225203  -0.007   0.499   6.986  0.3779  0.4870 -0.5831
 8102SOL     OW25204   6.270   6.911   4.682 -0.4143 -0.0520 -0.7584
 8102SOL    HW125205   6.170   6.912   4.686 -0.3763  0.7155  1.2915
 8102SOL    HW225206   6.307   6.908   4.775  1.4979 -2.5354 -1.4886
 8103SOL     OW25207   1.192   0.689   2.639  0.0204  0.2667  0.0234
 8103SOL    HW125208   1.211   0.631   2.719  1.7400 -1.1404 -1.3149
 8103SOL    HW225209   1.103   0.665   2.601 -0.3948  0.2890  0.9424
 8104SOL     OW25210   3.730   6.969   5.758 -0.1656 -0.3016  0.1116
 8104SOL    HW125211   3.637   6.982   5.793  0.4257 -0.7987  1.9865
 8104SOL    HW225212   3.765   7.056   5.722 -1.4642 -0.1965 -0.9948
 8105SOL     OW25213   1.237   2.942   1.110  0.5853  0.4184 -0.2501
 8105SOL    HW125214   1.154   2.991   1.083  1.2152  1.0303 -1.1323
 8105SOL    HW225215   1.268   2.976   1.199  0.0602  0.3927 -0.0540
 8106SOL     OW25216   2.144   6.652   2.683  0.5221  0.0156 -0.7537
 8106SOL    HW125217   2.124   6.597   2.602 -1.3371  0.0524 -0.3668
 8106SOL    HW225218   2.242   6.672   2.686  1.2818 -3.0722 -1.0363
 8107SOL     OW25219   2.961   1.678   3.794  0.2129  0.2479 -0.3499
 8107SOL    HW125220   2.882   1.632   3.753  0.0914 -0.0936  0.2556
 8107SOL    HW225221   2.953   1.676   3.893  0.0925  1.8030 -0.3127
 8108SOL     OW25222   6.333   4.714   0.455  0.1424 -0.1043  0.3964
 8108SOL    HW125223   6.426   4.710   0.491  0.8246  0.7929 -1.1805
 8108SOL    HW225224   6.331   4.770   0.373 -2.1952  1.6517  1.5329
 8109SOL     OW25225   6.199   3.503   6.458  0.0151 -0.1676 -0.2194
 8109SOL    HW125226   6.132   3.541   6.522  1.6858  0.6491  1.1334
 8109SOL    HW225227   6.204   3.404   6.471 -2.0855 -0.5015 -1.5292
 8110SOL     OW25228   6.836   4.309   4.711 -0.4283  0.7785 -0.3587
 8110SOL    HW125229   6.884   4.374   4.769 -1.6637  0.8450  0.6283
 8110SOL    HW225230   6.790   4.241   4.768  0.4597 -0.7223 -1.3503
 8111SOL     OW25231   0.590   3.769   0.663  0.4663 -0.1071  0.1290
 8111SOL    HW125232   0.672   3.722   0.628  1.2982  1.2460  0.1815
 8111SOL    HW225233   0.517   3.702   0.678  0.7032 -1.0201 -2.3341
 8112SOL     OW25234   3.543   2.100   2.625 -0.1575 -0.3868 -0.3476
 8112SOL    HW125235   3.518   2.039   2.549 -3.0738 -0.1607  0.3112
 8112SOL    HW225236   3.462   2.120   2.679  1.5815  0.6093  2.0414
 8113SOL     OW25237   1.157   4.890   2.809  0.1667  0.1289 -0.0756
 8113SOL    HW125238   1.112   4.934   2.887  1.9157  0.7025  0.6410
 8113SOL    HW225239   1.126   4.795   2.803 -0.3149  0.1900  1.0468
 8114SOL     OW25240   0.108   5.313   0.140  0.1859  0.1336 -0.3844
 8114SOL    HW125241   0.108   5.405   0.101 -0.0323  0.1193 -0.4166
 8114SOL    HW225242   0.025   5.264   0.112  0.6990 -0.3654 -1.0624
 8115SOL     OW25243   3.630   6.384   1.707  0.0135  0.3193 -0.2570
 8115SOL    HW125244   3.596   6.378   1.613 -0.3492  0.5205 -0.1388
 8115SOL    HW225245   3.693   6.308   1.724  0.3668  0.4864 -0.7784
 8116SOL     OW25246   5.839   3.492   3.518  0.1066  0.2482  0.1185
 8116SOL    HW125247   5.900   3.559   3.562 -1.5187  1.3301  0.8110
 8116SOL    HW225248   5.813   3.422   3.585  0.9555 -0.5123 -0.3185
 8117SOL     OW25249   3.038   0.334   5.445 -0.1529  0.9302 -0.4909
 8117SOL    HW125250   3.121   0.389   5.453 -0.6965  1.9229 -1.4592
 8117SOL    HW225251   2.965   0.389   5.404 -1.9337  0.7536  2.1564
 8118SOL     OW25252   4.025   6.737   3.707  0.3152  0.3443 -0.1346
 8118SOL    HW125253   4.099   6.733   3.774  0.7025 -1.3101 -0.6141
 8118SOL    HW225254   3.937   6.724   3.753  0.5227 -0.0779  0.1426
 8119SOL     OW25255   3.646   2.061   2.219 -0.2467  0.5616  0.9225
 8119SOL    HW125256   3.640   2.123   2.141 -1.4636  1.0784  1.3901
 8119SOL    HW225257   3.567   2.076   2.279 -0.9755 -1.9192  0.6966
 8120SOL     OW25258   2.834   4.821   2.572 -0.5354  0.3724 -0.7221
 8120SOL    HW125259   2.797   4.911   2.595 -0.5904 -0.1604  1.5112
 8120SOL    HW225260   2.798   4.753   2.635  0.9216 -0.9065 -1.1954
 8121SOL     OW25261   3.053   6.535   1.992 -0.1206 -0.2886  0.3486
 8121SOL    HW125262   3.152   6.549   1.996  0.0281 -1.3677  0.6355
 8121SOL    HW225263   3.023   6.482   2.071 -0.9097 -0.0947  0.1885
 8122SOL     OW25264   2.843   5.507   6.264  0.7656  0.2549 -0.3576
 8122SOL    HW125265   2.831   5.420   6.312  0.9889 -0.5814 -1.7532
 8122SOL    HW225266   2.860   5.489   6.167  0.3040  1.8826 -0.7710
 8123SOL     OW25267   0.715   1.755   1.932 -0.1843 -0.1792 -0.3300
 8123SOL    HW125268   0.747   1.691   2.002  0.5429  1.3427  0.7965
 8123SOL    HW225269   0.755   1.845   1.949 -2.4542  1.0035 -0.8880
 8124SOL     OW25270   3.007   7.015   3.371  0.1230  0.6624  0.3840
 8124SOL    HW125271   2.986   7.075   3.294  0.3381  0.0508 -0.1592
 8124SOL    HW225272   3.057   6.935   3.338 -1.5828 -0.6361  0.8652
 8125SOL     OW25273   1.866   3.368   2.295  0.2220 -0.1709 -0.0112
 8125SOL    HW125274   1.950   3.421   2.286 -0.7382  1.2879 -0.6891
 8125SOL    HW225275   1.808   3.382   2.215 -0.8757 -0.7797  0.6484
 8126SOL     OW25276   6.252   6.182   2.769 -0.1690  0.9288  0.4675
 8126SOL    HW125277   6.304   6.265   2.748  0.3403  0.5836  0.3513
 8126SOL    HW225278   6.155   6.205   2.779  0.1929  1.8537  2.2316
 8127SOL     OW25279   0.128   3.384   1.360 -0.0796 -0.0009 -0.2223
 8127SOL    HW125280   0.167   3.472   1.330  0.5017  0.4608  1.7674
 8127SOL    HW225281   0.089   3.337   1.281  0.5867  1.5374 -1.5310
 8128SOL     OW25282   6.100   2.570   6.969 -0.8910 -0.2966  0.6338
 8128SOL    HW125283   6.122   2.473   6.981 -1.1071 -0.2620  1.3751
 8128SOL    HW225284   6.174   2.615   6.918 -0.9994 -0.9358 -0.1106
 8129SOL     OW25285   3.872   6.580   1.632  0.1626  0.1648  0.0334
 8129SOL    HW125286   3.846   6.575   1.536 -1.6513 -1.1838  0.5359
 8129SOL    HW225287   3.795   6.549   1.689  0.9579  1.5295  1.9604
 8130SOL     OW25288   4.896   4.544   5.169  0.0853 -0.7177  0.5579
 8130SOL    HW125289   4.910   4.490   5.086 -1.5461 -1.1735  0.5332
 8130SOL    HW225290   4.923   4.638   5.153  0.9213 -1.0627 -0.1055
 8131SOL     OW25291   0.453   1.813   6.542 -0.0121 -0.3587 -0.6447
 8131SOL    HW125292   0.462   1.845   6.637 -1.0732 -0.9787 -0.3176
 8131SOL    HW225293   0.542   1.820   6.496  0.0809  1.8155 -0.2168
 8132SOL     OW25294   3.689   0.819   6.712 -0.0434  0.1767  0.1731
 8132SOL    HW125295   3.695   0.820   6.612  0.1606  0.0576  0.1812
 8132SOL    HW225296   3.701   0.725   6.745 -0.4134  0.1734  0.2932
 8133SOL     OW25297   6.156   6.799   0.080 -0.3448  0.0750 -0.1027
 8133SOL    HW125298   6.065   6.837   0.099  0.4171  0.7811  2.5606
 8133SOL    HW225299   6.205   6.861   0.018 -1.1858  0.3823 -0.4806
 8134SOL     OW25300   1.599   4.174   2.450  0.1371 -0.0457 -0.1063
 8134SOL    HW125301   1.675   4.110   2.442  1.1611  1.0196  0.7437
 8134SOL    HW225302   1.621   4.259   2.401  0.1232  0.8113  1.3115
 8135SOL     OW25303   0.656   2.352   6.198 -0.1410  0.0137  0.2751
 8135SOL    HW125304   0.666   2.344   6.297  1.9448 -1.5280  0.0081
 8135SOL    HW225305   0.593   2.281   6.165  0.8453 -0.9082  0.3106
 8136SOL     OW25306   6.085   0.553   2.268 -0.7926 -0.1319 -0.1551
 8136SOL    HW125307   6.115   0.504   2.350 -2.0789  1.0936  1.0911
 8136SOL    HW225308   6.091   0.651   2.284 -1.0424  0.1307 -1.5586
 8137SOL     OW25309   2.952   6.687   3.703 -0.0146 -0.1566 -0.1172
 8137SOL    HW125310   2.886   6.737   3.645  1.1977  0.2006 -1.2393
 8137SOL    HW225311   2.903   6.645   3.779 -1.1517  2.6374  0.8542
 8138SOL     OW25312   2.382   0.357   5.269  0.3695  0.2236  0.5777
 8138SOL    HW125313   2.378   0.396   5.361 -2.4778  0.1961  0.5719
 8138SOL    HW225314   2.320   0.279   5.264 -0.6113  1.0597 -1.6894
 8139SOL     OW25315   3.114   1.297   5.041 -0.5093 -0.0226 -0.4156
 8139SOL    HW125316   3.022   1.312   5.078 -0.1019  0.1217  0.5688
 8139SOL    HW225317   3.177   1.365   5.079  0.3232 -1.0899  0.1438
 8140SOL     OW25318   0.533   4.315   4.843  0.6647  0.0123 -0.0745
 8140SOL    HW125319   0.628   4.285   4.840 -0.1196 -2.8718  0.5041
 8140SOL    HW225320   0.523   4.387   4.911  2.6040  1.3000 -1.0660
 8141SOL     OW25321   0.611   3.720   6.696 -0.0826  0.1057 -0.4399
 8141SOL    HW125322   0.526   3.724   6.644  0.1974  3.1194 -0.8338
 8141SOL    HW225323   0.601   3.772   6.780  0.9569 -0.7458  0.2388
 8142SOL     OW25324   0.896   3.776   4.522 -0.1180  0.0908 -0.3641
 8142SOL    HW125325   0.827   3.848   4.526 -1.0183 -0.7988  0.4352
 8142SOL    HW225326   0.907   3.746   4.427  1.0878  2.0144 -0.8983
 8143SOL     OW25327   4.896   3.643   2.692 -0.0004 -0.8220  0.2156
 8143SOL    HW125328   4.863   3.562   2.643  0.6903 -0.3788 -1.0237
 8143SOL    HW225329   4.989   3.626   2.725 -0.5202 -1.1786  1.5636
 8144SOL     OW25330   0.541   0.698   0.256  0.2920  0.4399  0.7556
 8144SOL    HW125331   0.617   0.669   0.314  1.6127  0.1418 -1.0403
 8144SOL    HW225332   0.524   0.628   0.186 -1.8492  0.3656  1.2659
 8145SOL     OW25333   4.545   2.874   6.030  0.0892 -0.0733 -0.2293
 8145SOL    HW125334   4.568   2.913   5.941  0.4074 -0.6022 -0.3808
 8145SOL    HW225335   4.455   2.831   6.025 -0.9667  1.9204  0.3403
 8146SOL     OW25336   1.401   1.485   3.822  0.0879 -0.4376 -0.1969
 8146SOL    HW125337   1.478   1.457   3.879 -0.3147 -1.1376  0.0147
 8146SOL    HW225338   1.356   1.564   3.864 -0.2946 -1.0333  0.5614
 8147SOL     OW25339   2.633   1.600   5.766  0.3643  1.2876  0.0546
 8147SOL    HW125340   2.542   1.589   5.726  0.4762  0.9206 -0.1063
 8147SOL    HW225341   2.664   1.511   5.801  0.1271  1.6633  1.2733
 8148SOL     OW25342   1.312   6.222   5.597 -0.0570 -0.0518 -0.0265
 8148SOL    HW125343   1.349   6.197   5.687  1.6860  0.6919 -0.5039
 8148SOL    HW225344   1.274   6.315   5.602 -1.1766 -0.5045  0.2491
 8149SOL     OW25345   2.380   5.128   2.048 -0.1159 -0.0515  0.0108
 8149SOL    HW125346   2.305   5.086   2.099 -0.3748  0.5529  0.1449
 8149SOL    HW225347   2.343   5.202   1.991  0.3639  0.1571 -0.0278
 8150SOL     OW25348   0.471   0.992   4.315 -0.2968  0.6055 -0.3706
 8150SOL    HW125349   0.454   0.895   4.333  1.6683  0.3308  0.2333
 8150SOL    HW225350   0.464   1.009   4.216  1.4642 -0.6374 -0.7521
 8151SOL     OW25351   1.804   4.029   0.562 -0.4770 -0.7607  0.1911
 8151SOL    HW125352   1.854   4.029   0.475  0.8591  0.7296  0.9074
 8151SOL    HW225353   1.869   4.027   0.638 -1.0462  4.5770  1.2560
 8152SOL     OW25354   5.582   4.300   1.074  0.0825  0.0759  0.5711
 8152SOL    HW125355   5.608   4.305   0.977 -0.4573 -0.7757  0.3744
 8152SOL    HW225356   5.483   4.291   1.081  0.2349 -1.3746  1.1456
 8153SOL     OW25357   3.257   3.793   1.266  0.5481  0.1594 -0.2898
 8153SOL    HW125358   3.283   3.852   1.342  1.5539 -0.1117 -0.4123
 8153SOL    HW225359   3.197   3.720   1.299 -0.8681  1.3353 -0.1757
 8154SOL     OW25360   6.575   2.410   6.698 -0.3393  0.1608  0.3961
 8154SOL    HW125361   6.672   2.419   6.721 -0.8829 -1.2598  3.8538
 8154SOL    HW225362   6.531   2.347   6.761 -3.4937  0.3764 -1.3459
 8155SOL     OW25363   4.466   1.722   4.557 -0.0004  0.8762  0.4456
 8155SOL    HW125364   4.405   1.788   4.513  0.9483  1.2388 -0.3338
 8155SOL    HW225365   4.435   1.708   4.651 -0.4987  2.0722  0.4865
 8156SOL     OW25366   2.175   2.136   2.779  0.2397 -0.3178 -0.2975
 8156SOL    HW125367   2.167   2.228   2.818 -1.2832 -0.1322 -0.9765
 8156SOL    HW225368   2.190   2.070   2.853  4.1971  0.6924  0.0024
 8157SOL     OW25369   4.784   5.464   2.282 -0.2005  0.5215 -0.3555
 8157SOL    HW125370   4.863   5.439   2.337 -0.4082  1.6687  0.4928
 8157SOL    HW225371   4.703   5.470   2.340 -1.3325 -2.2356 -1.4423
 8158SOL     OW25372   6.408   6.118   2.165  0.0555  0.3425  0.2305
 8158SOL    HW125373   6.387   6.171   2.083  0.4892 -0.1678 -0.2265
 8158SOL    HW225374   6.435   6.179   2.239 -2.4992  0.9988  0.7109
 8159SOL     OW25375   0.680   4.829   6.078 -0.3422  0.5021 -0.1367
 8159SOL    HW125376   0.673   4.820   6.177  0.4056 -3.3638 -0.2797
 8159SOL    HW225377   0.776   4.845   6.053  0.3233 -2.8999 -0.2561
 8160SOL     OW25378   3.904   3.266   5.474 -0.3933 -0.8481  0.9126
 8160SOL    HW125379   3.970   3.337   5.448 -0.9197 -1.3360 -1.9932
 8160SOL    HW225380   3.826   3.268   5.412 -0.6259 -3.7034  0.9921
 8161SOL     OW25381   0.437   1.930   4.561  0.7413 -0.4166 -0.2492
 8161SOL    HW125382   0.475   1.955   4.649  0.4598  1.5043 -0.6401
 8161SOL    HW225383   0.475   1.988   4.489 -1.0221 -0.1197 -1.0139
 8162SOL     OW25384   3.469   6.611   1.230  0.4090  0.2673  0.4418
 8162SOL    HW125385   3.531   6.688   1.220  0.9788  0.0421  1.9533
 8162SOL    HW225386   3.375   6.640   1.209  0.7234  1.1493  0.2282
 8163SOL     OW25387   4.486   0.710   4.723 -0.1316 -0.0044  0.1099
 8163SOL    HW125388   4.453   0.775   4.654  1.4520  0.4346 -0.2604
 8163SOL    HW225389   4.407   0.672   4.772 -1.2238  0.5323 -1.1474
 8164SOL     OW25390   2.959   4.866   2.337  0.3420 -0.2982  0.0995
 8164SOL    HW125391   2.905   4.806   2.278 -0.6424  0.4455  0.2241
 8164SOL    HW225392   2.941   4.844   2.433 -0.0527  0.2102  0.1467
 8165SOL     OW25393   4.202   2.582   1.506  0.0650  0.1676  0.1841
 8165SOL    HW125394   4.122   2.523   1.512  0.3735 -0.4056 -0.9581
 8165SOL    HW225395   4.178   2.666   1.456  0.6426 -0.9446 -2.0768
 8166SOL     OW25396   5.040   4.243   2.045  0.4699 -0.2223  0.6711
 8166SOL    HW125397   5.004   4.330   2.080  1.9534  0.8107 -0.2782
 8166SOL    HW225398   4.964   4.189   2.008 -0.3275  1.1927  0.1588
 8167SOL     OW25399   0.529   0.963   4.816  0.1108 -0.0264 -0.1482
 8167SOL    HW125400   0.446   0.933   4.768 -0.2295  0.9557 -0.1858
 8167SOL    HW225401   0.609   0.923   4.771 -0.3270 -0.8677 -0.1989
 8168SOL     OW25402   4.049   6.911   6.363 -0.0710 -0.5193  0.2630
 8168SOL    HW125403   3.954   6.939   6.373 -0.0089 -0.8605  2.4617
 8168SOL    HW225404   4.107   6.970   6.418  0.2827 -3.4600  3.3858
 8169SOL     OW25405   2.667   0.108   5.567 -0.1699 -0.0564  0.3175
 8169SOL    HW125406   2.642   0.181   5.631  1.2244  0.3301  0.4628
 8169SOL    HW225407   2.730   0.045   5.612 -0.5241 -0.7570 -0.1501
 8170SOL     OW25408   5.370   4.452   1.210  0.2830  0.3861 -0.3838
 8170SOL    HW125409   5.339   4.460   1.304  0.5140 -0.2397 -0.2519
 8170SOL    HW225410   5.332   4.369   1.168  1.7473 -0.4100 -0.2119
 8171SOL     OW25411   2.735   0.880   0.995  0.4358  0.2473  0.3697
 8171SOL    HW125412   2.764   0.818   0.922 -0.1250 -1.3290  1.4291
 8171SOL    HW225413   2.643   0.914   0.975 -0.1947 -1.0972  0.8517
 8172SOL     OW25414   0.364   0.340   2.556 -0.7738  0.5074 -0.6399
 8172SOL    HW125415   0.320   0.327   2.468 -0.8233  0.3505 -0.5930
 8172SOL    HW225416   0.457   0.376   2.542 -1.1361  1.4383 -0.7098
 8173SOL     OW25417   5.028   1.297   3.876 -0.3545 -0.0367 -0.2228
 8173SOL    HW125418   5.005   1.369   3.941 -1.9730  0.0481 -0.8355
 8173SOL    HW225419   4.993   1.209   3.908  2.0514 -0.7107  0.7693
 8174SOL     OW25420   1.148   5.720   5.172  0.2394  1.0891  0.1377
 8174SOL    HW125421   1.237   5.763   5.159  1.2539  0.2738  3.5007
 8174SOL    HW225422   1.155   5.622   5.156  0.2044  0.8888  1.2763
 8175SOL     OW25423   0.027   1.577   4.213 -0.3179 -0.2114  0.5736
 8175SOL    HW125424   0.122   1.604   4.224  0.2619 -1.2497 -1.4787
 8175SOL    HW225425  -0.031   1.659   4.206  0.8229  0.4952 -1.1737
 8176SOL     OW25426   0.032   1.414   4.921 -0.2708 -0.6651 -0.0855
 8176SOL    HW125427   0.028   1.513   4.910  1.2953 -0.6012 -0.3927
 8176SOL    HW225428   0.068   1.391   5.011  1.3359 -0.8770 -0.7419
 8177SOL     OW25429   6.440   3.792   0.284 -0.0002 -0.5293 -0.7555
 8177SOL    HW125430   6.381   3.821   0.208 -1.0927 -0.3256  0.1469
 8177SOL    HW225431   6.536   3.798   0.256 -0.4041 -1.7602 -2.5773
 8178SOL     OW25432   4.884   5.913   0.175  0.1663 -0.0027  0.2907
 8178SOL    HW125433   4.813   5.883   0.111  0.5065  2.2285 -1.2705
 8178SOL    HW225434   4.843   5.932   0.264 -1.3706  1.6385 -0.6865
 8179SOL     OW25435   1.213   4.632   4.567  0.2274 -0.1856 -0.2209
 8179SOL    HW125436   1.256   4.653   4.655 -1.2241  0.3237  0.3937
 8179SOL    HW225437   1.278   4.582   4.510  1.6549  0.6230  0.6247
 8180SOL     OW25438   5.563   4.285   2.105  0.4037  0.5557 -0.0311
 8180SOL    HW125439   5.640   4.291   2.169  0.0547  1.6939  0.3076
 8180SOL    HW225440   5.554   4.371   2.056 -0.0529  0.0830 -0.7973
 8181SOL     OW25441   1.120   4.363   0.125  0.0829  0.1608 -0.2377
 8181SOL    HW125442   1.092   4.447   0.171  1.5150  0.1582  0.7075
 8181SOL    HW225443   1.168   4.387   0.040 -0.7753  0.2329 -0.7124
 8182SOL     OW25444   5.850   0.904   2.146  0.3201 -0.1496  0.8324
 8182SOL    HW125445   5.811   0.974   2.207 -1.8152 -1.2003  0.7916
 8182SOL    HW225446   5.922   0.854   2.194  0.5384  0.8004  1.5275
 8183SOL     OW25447   3.884   0.077   6.051  0.0329 -0.1705  0.1021
 8183SOL    HW125448   3.978   0.111   6.063  1.0729 -2.3327 -1.2778
 8183SOL    HW225449   3.883   0.009   5.978 -3.0677  1.4547 -1.5823
 8184SOL     OW25450   0.096   3.700   0.285  0.0496  0.2552  0.1673
 8184SOL    HW125451   0.064   3.794   0.303 -0.1989 -0.0364  1.3486
 8184SOL    HW225452   0.063   3.640   0.358  0.6538 -0.6575 -0.3021
 8185SOL     OW25453   0.551   4.446   2.409 -0.1594  0.2636 -0.4666
 8185SOL    HW125454   0.578   4.526   2.356  2.2298  1.2992  2.0331
 8185SOL    HW225455   0.457   4.458   2.441  0.0623  1.9943 -0.3367
 8186SOL     OW25456   6.270   2.826   3.117  0.1413 -0.0493  0.2001
 8186SOL    HW125457   6.248   2.760   3.045  0.2000  1.0667 -0.8834
 8186SOL    HW225458   6.186   2.863   3.156  0.0875  0.3807 -0.3036
 8187SOL     OW25459   6.253   4.998   2.484  0.6015  0.6371  0.2816
 8187SOL    HW125460   6.243   4.901   2.463  0.8868  0.6765 -0.0420
 8187SOL    HW225461   6.315   5.009   2.562 -0.1723  0.5116  0.9268
 8188SOL     OW25462   3.990   0.817   3.324 -0.5368  0.3398  0.5244
 8188SOL    HW125463   3.945   0.858   3.245 -0.2358 -0.6697 -0.1899
 8188SOL    HW225464   3.999   0.885   3.397  1.3040  1.9935 -1.1338
 8189SOL     OW25465   1.069   4.603   0.763  0.1835  0.6580 -0.0391
 8189SOL    HW125466   1.052   4.699   0.742 -1.6240  0.0511 -1.5876
 8189SOL    HW225467   1.068   4.590   0.862  0.7635  2.2577  0.2098
 8190SOL     OW25468   0.605   0.484   5.516 -0.4101 -0.0823 -0.2347
 8190SOL    HW125469   0.521   0.431   5.520 -0.6446  0.1311 -1.8632
 8190SOL    HW225470   0.584   0.579   5.494  0.2820 -0.1821 -1.4204
 8191SOL     OW25471   4.802   6.078   5.689 -0.1558 -0.2753  0.2479
 8191SOL    HW125472   4.770   5.986   5.715  0.2125  0.3105  3.0952
 8191SOL    HW225473   4.888   6.070   5.638  2.2234 -1.5628  4.0072
 8192SOL     OW25474   5.723   5.623   2.804  0.2091  0.3209  0.3521
 8192SOL    HW125475   5.745   5.711   2.846  1.0834  0.4033 -0.2480
 8192SOL    HW225476   5.807   5.570   2.792 -0.2508 -0.4008  0.2770
 8193SOL     OW25477   2.534   0.546   1.209  0.3184  0.3586  0.1916
 8193SOL    HW125478   2.568   0.542   1.303  0.7785  3.7150  0.2783
 8193SOL    HW225479   2.610   0.540   1.145  0.3236  0.8049  0.1507
 8194SOL     OW25480   1.143   5.437   0.816  0.4817 -0.2758 -0.4375
 8194SOL    HW125481   1.204   5.493   0.760 -0.6510  1.1383 -0.3065
 8194SOL    HW225482   1.162   5.340   0.799  1.1711  0.1154 -2.1492
 8195SOL     OW25483   3.942   2.970   1.065  0.0507 -0.1545 -0.2137
 8195SOL    HW125484   3.962   2.962   1.163  0.8301  0.6754 -0.2852
 8195SOL    HW225485   4.024   2.947   1.013 -0.3347 -0.4936 -0.6736
 8196SOL     OW25486   2.906   4.090   1.329  0.1367  0.3831  0.4516
 8196SOL    HW125487   2.946   4.018   1.386  0.7052 -0.6027 -1.1032
 8196SOL    HW225488   2.972   4.117   1.259 -0.6954  1.2051 -0.0431
 8197SOL     OW25489   1.723   0.196   2.939  0.0416  0.9348 -0.1710
 8197SOL    HW125490   1.788   0.207   3.014  2.8257 -1.9718 -1.9321
 8197SOL    HW225491   1.732   0.272   2.875  1.9846  0.4860 -0.4911
 8198SOL     OW25492   0.903   3.511   3.643 -0.1968 -0.0349 -0.2773
 8198SOL    HW125493   0.997   3.495   3.672 -0.5428  0.4329  1.1847
 8198SOL    HW225494   0.887   3.609   3.632 -0.5791 -0.0950 -0.2710
 8199SOL     OW25495   1.912   3.805   1.806  0.3081 -0.0330  0.1932
 8199SOL    HW125496   1.843   3.775   1.740 -1.0891 -0.4012  1.7591
 8199SOL    HW225497   1.930   3.731   1.871 -0.8485  1.3914  2.2187
 8200SOL     OW25498   5.899   4.669   2.117 -0.0701  0.1356  0.0138
 8200SOL    HW125499   5.803   4.690   2.132  0.1159  1.1076 -0.0649
 8200SOL    HW225500   5.908   4.579   2.074 -0.9672  0.2137 -0.3566
 8201SOL     OW25501   2.207   4.187   4.620  0.8791 -0.1380  0.6566
 8201SOL    HW125502   2.230   4.229   4.708 -0.8761  0.8447  0.6889
 8201SOL    HW225503   2.151   4.250   4.567  2.1058 -0.6142 -1.2995
 8202SOL     OW25504   3.210   3.395   0.058 -0.1181  0.1037 -0.1654
 8202SOL    HW125505   3.224   3.361   0.151  0.8969  1.0741  0.0576
 8202SOL    HW225506   3.114   3.385   0.032 -0.5298  0.4009  1.2180
 8203SOL     OW25507   0.246   0.639   3.925 -0.2198  0.4907  0.5319
 8203SOL    HW125508   0.227   0.663   3.830  3.5329  2.3136  0.0508
 8203SOL    HW225509   0.218   0.545   3.942  0.4820 -0.4709 -2.9027
 8204SOL     OW25510   2.617   0.198   6.041  0.0555 -0.2763  0.2575
 8204SOL    HW125511   2.668   0.281   6.065  0.2635 -0.2211 -0.3644
 8204SOL    HW225512   2.669   0.118   6.067  0.4853 -0.2199 -0.4085
 8205SOL     OW25513   5.324   4.756   2.052 -0.5427  0.0878 -0.1602
 8205SOL    HW125514   5.318   4.832   2.116  0.2575  0.4351 -0.4941
 8205SOL    HW225515   5.301   4.787   1.960 -0.8739 -0.2286 -0.1886
 8206SOL     OW25516   2.086   6.008   5.602  0.5004  0.3899 -0.3645
 8206SOL    HW125517   2.028   5.934   5.637 -0.3021  1.7803  1.3568
 8206SOL    HW225518   2.179   5.997   5.639  0.6840 -0.3395 -1.0007
 8207SOL     OW25519   1.991   4.166   2.538  0.0482  0.8394  0.4295
 8207SOL    HW125520   2.086   4.144   2.519 -0.0917 -0.6382  1.2350
 8207SOL    HW225521   1.986   4.242   2.602  0.6765  1.2149  0.0345
 8208SOL     OW25522   4.511   3.844   6.413  0.0683  0.0042 -0.5519
 8208SOL    HW125523   4.473   3.803   6.331 -0.7259 -1.4942  0.5224
 8208SOL    HW225524   4.593   3.896   6.389 -0.5492  0.2045 -2.3665
 8209SOL     OW25525   0.423   4.346   2.095  0.0893  0.0598 -0.3150
 8209SOL    HW125526   0.330   4.343   2.132  0.2475  0.3215  0.1042
 8209SOL    HW225527   0.485   4.299   2.157  0.0534 -1.1209 -1.1567
 8210SOL     OW25528   3.824   0.966   0.707 -0.0333 -0.6451 -0.1209
 8210SOL    HW125529   3.799   0.965   0.804  1.2368 -0.5209  0.2365
 8210SOL    HW225530   3.794   1.051   0.665 -0.5907 -0.6988  0.1652
 8211SOL     OW25531   5.957   1.450   3.177 -0.0128  0.1559  0.1554
 8211SOL    HW125532   5.893   1.400   3.119  1.0234 -2.1173  0.8573
 8211SOL    HW225533   5.996   1.527   3.125 -1.2730 -0.0444 -1.1529
 8212SOL     OW25534   4.498   3.720   0.558 -0.0289 -0.2567 -0.0167
 8212SOL    HW125535   4.518   3.721   0.461  0.7050 -0.2507  0.1272
 8212SOL    HW225536   4.400   3.707   0.572 -0.7949  3.5017 -0.8264
 8213SOL     OW25537   0.889   2.567   2.952 -0.1406  0.1117 -0.5394
 8213SOL    HW125538   0.963   2.599   2.892 -0.5003  0.5610 -0.7478
 8213SOL    HW225539   0.871   2.636   3.022 -0.4830  0.0759 -0.5929
 8214SOL     OW25540   2.724   1.162   3.524  0.7298 -0.0212  0.6451
 8214SOL    HW125541   2.741   1.260   3.541  1.7834  0.0252 -0.4771
 8214SOL    HW225542   2.632   1.138   3.554  1.0977  0.8951  2.6140
 8215SOL     OW25543   0.445   0.004   1.899  0.6268  0.2970  0.5971
 8215SOL    HW125544   0.358   0.006   1.948 -0.6880  0.6512 -1.5969
 8215SOL    HW225545   0.460  -0.087   1.860  0.3954  0.6621 -0.3868
 8216SOL     OW25546   1.386   5.804   5.710 -0.1048 -0.2625 -0.0608
 8216SOL    HW125547   1.405   5.709   5.683 -2.0115 -0.7560  0.1829
 8216SOL    HW225548   1.403   5.864   5.632 -0.1717 -0.9710 -0.6343
 8217SOL     OW25549   6.022   0.662   3.523 -0.4795  0.2883  0.3798
 8217SOL    HW125550   6.050   0.573   3.488  1.2741  0.5592  0.9858
 8217SOL    HW225551   6.103   0.712   3.556 -1.4159  2.0879  0.0969
 8218SOL     OW25552   1.150   4.337   1.761  0.3385 -0.1207 -0.0753
 8218SOL    HW125553   1.092   4.306   1.685  0.4603 -0.1015 -0.1753
 8218SOL    HW225554   1.111   4.305   1.847 -0.0967  0.3104 -0.1069
 8219SOL     OW25555   1.086   1.394   4.348 -0.0803 -0.0593 -0.0634
 8219SOL    HW125556   1.045   1.404   4.257  0.2861 -0.2165 -0.2516
 8219SOL    HW225557   1.038   1.452   4.413 -0.0129  0.4570 -0.4681
 8220SOL     OW25558   2.729   1.263   4.897 -0.3249 -0.4921 -0.1494
 8220SOL    HW125559   2.685   1.173   4.898 -0.9343 -0.1978 -0.0624
 8220SOL    HW225560   2.668   1.330   4.856 -0.4224  0.1580  1.0099
 8221SOL     OW25561   4.610   5.043   5.281 -1.1628 -0.4545  0.0059
 8221SOL    HW125562   4.613   4.961   5.339 -2.4463 -0.0239  0.7322
 8221SOL    HW225563   4.549   5.026   5.203 -2.9268  0.3453  1.1300
 8222SOL     OW25564   6.920   4.218   2.445  0.4116 -0.4236  0.4944
 8222SOL    HW125565   7.008   4.221   2.398  0.6547  0.1936  0.9779
 8222SOL    HW225566   6.905   4.126   2.482  1.3831 -0.2470  1.3898
 8223SOL     OW25567   0.329   4.442   5.025  0.2901  0.3773  0.1921
 8223SOL    HW125568   0.371   4.489   5.102 -2.6066  1.4449  1.2597
 8223SOL    HW225569   0.297   4.352   5.054 -0.9191  0.8315  0.3581
 8224SOL     OW25570   5.597   2.698   1.443 -0.5433 -0.5983 -0.1046
 8224SOL    HW125571   5.576   2.682   1.347 -1.3715  0.1472 -0.0658
 8224SOL    HW225572   5.511   2.704   1.495 -0.1329 -0.2125  0.5436
 8225SOL     OW25573   4.344   0.578   0.682 -0.6308 -0.0369  0.0136
 8225SOL    HW125574   4.313   0.577   0.586  2.2308  2.1836 -1.0902
 8225SOL    HW225575   4.439   0.548   0.686  0.0266  2.0312  1.7812
 8226SOL     OW25576   1.837   1.255   3.372 -0.2950 -0.5036 -0.0376
 8226SOL    HW125577   1.927   1.276   3.333 -0.1471  0.0877  0.6033
 8226SOL    HW225578   1.833   1.289   3.465 -1.7349  0.8966 -0.5669
 8227SOL     OW25579   6.341   4.750   4.271  0.5817 -0.1313 -0.1955
 8227SOL    HW125580   6.244   4.762   4.250  0.5760  0.5313  0.1925
 8227SOL    HW225581   6.355   4.753   4.370  1.0155 -0.0572 -0.2533
 8228SOL     OW25582   3.479   4.014   5.985 -0.4405  0.1736 -0.0704
 8228SOL    HW125583   3.536   4.083   6.031 -0.7723  0.1077  0.4533
 8228SOL    HW225584   3.436   4.055   5.905  0.1944  0.2771 -0.3625
 8229SOL     OW25585   6.267   6.142   4.945  0.2538 -0.4818 -0.6445
 8229SOL    HW125586   6.179   6.107   4.915 -0.0032  0.7422 -1.3620
 8229SOL    HW225587   6.266   6.242   4.945  0.8609 -0.4046  1.6731
 8230SOL     OW25588   2.459   4.058   6.349 -0.1295 -0.0784  0.6828
 8230SOL    HW125589   2.483   4.137   6.406 -0.1247 -0.2146  0.8714
 8230SOL    HW225590   2.373   4.076   6.301  1.0215  0.9657 -1.0571
 8231SOL     OW25591   1.068   0.272   6.432 -0.6088  0.2176 -0.5862
 8231SOL    HW125592   1.115   0.209   6.493 -0.3256  0.2200 -0.8016
 8231SOL    HW225593   1.134   0.335   6.392 -0.8314  0.3822 -0.6944
 8232SOL     OW25594   4.427   1.802   3.334  0.4154 -0.3135  0.1738
 8232SOL    HW125595   4.340   1.800   3.383  0.2087 -0.4897 -0.1928
 8232SOL    HW225596   4.501   1.822   3.398 -0.1387  2.2020  0.1314
 8233SOL     OW25597   6.591   3.308   2.966 -0.3971 -0.2711 -0.1223
 8233SOL    HW125598   6.597   3.363   3.049  0.5855  0.2173 -0.4955
 8233SOL    HW225599   6.500   3.318   2.926 -0.5183  0.3736  0.2955
 8234SOL     OW25600   5.513   5.780   3.808 -0.3744 -0.1426  0.2184
 8234SOL    HW125601   5.538   5.747   3.718  0.1311  0.6348  0.0621
 8234SOL    HW225602   5.425   5.741   3.835  0.5803 -2.2914  0.4413
 8235SOL     OW25603   1.057   1.880   1.728  0.0163  0.4920 -0.0680
 8235SOL    HW125604   1.100   1.964   1.763 -0.9400  1.3419 -0.8686
 8235SOL    HW225605   0.966   1.901   1.694  0.0452 -0.7406 -0.9772
 8236SOL     OW25606   0.180   4.074   6.219  0.2449 -0.1242  0.3231
 8236SOL    HW125607   0.090   4.049   6.185  0.0518  0.6357  0.2595
 8236SOL    HW225608   0.189   4.174   6.219  0.6541 -0.1540  1.4299
 8237SOL     OW25609   1.557   1.845   0.826  0.6068 -0.8875  0.7664
 8237SOL    HW125610   1.475   1.885   0.787  0.5590 -0.9358  0.8162
 8237SOL    HW225611   1.626   1.834   0.755  0.8438 -0.1449  0.8760
 8238SOL     OW25612   3.673   0.220   6.163  0.5540  0.4539  0.3717
 8238SOL    HW125613   3.738   0.167   6.108  0.9927  0.2664  1.0649
 8238SOL    HW225614   3.695   0.210   6.260  0.2817  1.4271  0.5426
 8239SOL     OW25615   3.838   5.084   3.617  0.3367 -0.3313 -0.2119
 8239SOL    HW125616   3.880   5.016   3.556  0.7773 -0.5470  0.3210
 8239SOL    HW225617   3.821   5.168   3.567  5.6081  1.4727  0.4692
 8240SOL     OW25618   4.286   3.839   1.651  0.1785 -0.1581 -0.4582
 8240SOL    HW125619   4.219   3.776   1.689 -0.3396  1.0814  0.7710
 8240SOL    HW225620   4.263   3.933   1.678 -0.3946  0.9024 -4.0843
 8241SOL     OW25621   1.301   2.554   6.911 -0.2411  0.4906 -0.1354
 8241SOL    HW125622   1.339   2.469   6.873 -1.2495  1.2955 -3.1600
 8241SOL    HW225623   1.367   2.628   6.898  0.3814  0.3655  1.9551
 8242SOL     OW25624   1.664   3.239   3.916  0.2177  0.6370  0.5293
 8242SOL    HW125625   1.709   3.299   3.849  1.1167 -0.7811 -0.1788
 8242SOL    HW225626   1.732   3.177   3.957 -1.0094 -1.5135 -0.5157
 8243SOL     OW25627   0.044   0.593   0.573 -0.0871  0.1896  0.5095
 8243SOL    HW125628   0.110   0.603   0.498  0.7714 -0.6198  1.1366
 8243SOL    HW225629  -0.001   0.504   0.566 -0.1743  0.2089  0.8293
 8244SOL     OW25630   4.352   4.265   1.406 -0.6102  0.4020  0.0486
 8244SOL    HW125631   4.274   4.203   1.394 -0.4728 -0.0764  1.4491
 8244SOL    HW225632   4.335   4.323   1.485  0.2319  0.6529  0.0449
 8245SOL     OW25633   5.502   0.880   3.172  0.2295  0.1291  0.2874
 8245SOL    HW125634   5.540   0.942   3.104  0.1719 -1.8352 -1.6655
 8245SOL    HW225635   5.556   0.884   3.256  1.2423  1.5267 -0.4033
 8246SOL     OW25636   0.622   5.902   4.066 -0.6793 -0.7240  0.4139
 8246SOL    HW125637   0.698   5.967   4.068 -1.1139 -0.1945  2.8155
 8246SOL    HW225638   0.546   5.940   4.013  0.0565 -0.4803 -0.4844
 8247SOL     OW25639   2.163   4.852   4.538 -0.2775  0.1842  0.0532
 8247SOL    HW125640   2.249   4.850   4.487 -1.4890  0.8239 -2.1621
 8247SOL    HW225641   2.182   4.839   4.635  2.2761  0.0838 -0.3731
 8248SOL     OW25642   0.598   6.937   3.199 -0.0864  0.2677  0.2690
 8248SOL    HW125643   0.566   6.850   3.237 -1.8612  0.9114  0.3784
 8248SOL    HW225644   0.548   7.012   3.243  0.6907  1.2791 -0.5350
 8249SOL     OW25645   0.451   4.966   3.190  0.2051 -0.2551 -0.6175
 8249SOL    HW125646   0.376   4.900   3.177  1.0238 -1.1551 -0.8989
 8249SOL    HW225647   0.530   4.937   3.138  0.4669  1.1991 -1.0621
 8250SOL     OW25648   4.413   4.597   4.312 -0.1945 -0.5026  0.0691
 8250SOL    HW125649   4.495   4.582   4.367 -0.1587 -1.2075 -0.1736
 8250SOL    HW225650   4.346   4.526   4.332 -0.3908 -0.4553 -0.4059
 8251SOL     OW25651   1.762   5.834   5.456  0.6084 -0.2153 -0.6233
 8251SOL    HW125652   1.816   5.749   5.455 -0.7797 -1.1820  1.1371
 8251SOL    HW225653   1.806   5.901   5.397  2.9914 -1.3941 -0.3328
 8252SOL     OW25654   5.214   4.407   1.416 -0.2289  0.6850  0.4242
 8252SOL    HW125655   5.192   4.380   1.510 -1.0928 -0.0662  0.0237
 8252SOL    HW225656   5.130   4.429   1.367  0.0449 -0.4425 -0.6187
 8253SOL     OW25657   1.064   6.293   2.566 -0.0201 -0.4813 -0.1805
 8253SOL    HW125658   1.131   6.344   2.511 -1.8760  2.2034 -0.1440
 8253SOL    HW225659   1.091   6.294   2.662  0.6143 -0.6891 -0.3551
 8254SOL     OW25660   4.546   4.780   2.368 -0.2144 -0.1471  0.4636
 8254SOL    HW125661   4.505   4.706   2.315  0.2100  0.1634 -0.3030
 8254SOL    HW225662   4.492   4.863   2.357  0.8810  0.4005 -0.9670
 8255SOL     OW25663   3.277   6.062   6.310 -0.1916  0.1237  0.0228
 8255SOL    HW125664   3.210   5.988   6.318 -0.4391  0.3234 -0.1709
 8255SOL    HW225665   3.254   6.120   6.231 -0.2857  0.6824  0.4469
 8256SOL     OW25666   4.768   4.075   0.095  0.5894  0.7483  0.2107
 8256SOL    HW125667   4.811   4.014   0.029  0.7975 -0.1994  1.1971
 8256SOL    HW225668   4.797   4.050   0.188 -1.0535  0.9278  0.8041
 8257SOL     OW25669   0.615   5.616   1.275 -0.9908 -0.2630 -0.3706
 8257SOL    HW125670   0.702   5.632   1.322 -1.7209  0.6389  0.7307
 8257SOL    HW225671   0.544   5.672   1.317 -1.9823 -0.5022 -1.6669
 8258SOL     OW25672   2.589   2.323   4.731  0.0683 -0.7163 -0.0436
 8258SOL    HW125673   2.628   2.337   4.822 -0.8139 -0.2287  0.2692
 8258SOL    HW225674   2.540   2.405   4.702 -0.9568 -1.3917 -0.3002
 8259SOL     OW25675   1.911   1.709   1.279 -0.5514  0.3433 -0.6860
 8259SOL    HW125676   1.833   1.650   1.260 -1.3585  0.4533  1.8940
 8259SOL    HW225677   1.947   1.746   1.193 -0.3677 -3.3531 -2.3875
 8260SOL     OW25678   0.704   6.621   0.800  0.8594  0.3617  0.5048
 8260SOL    HW125679   0.734   6.683   0.728 -0.5055  0.8868  0.3706
 8260SOL    HW225680   0.622   6.572   0.770  0.5227  0.2729  1.5279
 8261SOL     OW25681   4.533   0.151   1.709  0.4822  0.1047  0.0656
 8261SOL    HW125682   4.553   0.151   1.807  0.1419 -0.3894  0.1403
 8261SOL    HW225683   4.440   0.117   1.694  0.8867 -0.8060 -0.4972
 8262SOL     OW25684   6.979   6.259   0.315  0.2021  0.3470 -0.4073
 8262SOL    HW125685   7.059   6.284   0.261  0.0549  3.6229  0.6204
 8262SOL    HW225686   6.897   6.293   0.269  0.0905  3.4279  1.7160
 8263SOL     OW25687   1.223   3.936   3.097  0.4619 -0.3040  0.2890
 8263SOL    HW125688   1.286   3.994   3.149  0.7681  0.0630 -0.4765
 8263SOL    HW225689   1.233   3.841   3.127 -1.6211  0.2513  3.1596
 8264SOL     OW25690   6.845   4.096   4.160  0.1170  0.0378 -0.5351
 8264SOL    HW125691   6.746   4.110   4.157 -0.0898 -0.4751  1.6312
 8264SOL    HW225692   6.874   4.089   4.256  2.1867 -0.3622 -1.1419
 8265SOL     OW25693   5.920   6.221   4.960  0.2098  0.0496 -0.2262
 8265SOL    HW125694   5.965   6.284   4.898  0.0886  1.2635  0.8700
 8265SOL    HW225695   5.948   6.242   5.054 -0.6567 -0.8527  0.2482
 8266SOL     OW25696   2.896   4.851   5.752  0.1602  0.2887 -0.2457
 8266SOL    HW125697   2.818   4.874   5.694 -0.6223  0.6746  0.9434
 8266SOL    HW225698   2.891   4.755   5.778  1.1028 -0.1786 -1.6733
 8267SOL     OW25699   2.052   2.556   1.612  0.0705 -0.6266  0.2843
 8267SOL    HW125700   2.056   2.637   1.555 -1.0866 -0.2014  0.7752
 8267SOL    HW225701   2.118   2.564   1.686 -1.5547  0.9515  1.6609
 8268SOL     OW25702   3.006   1.650   6.859  0.9526 -0.2906 -0.0849
 8268SOL    HW125703   2.956   1.657   6.946  1.5880  3.4204  0.1044
 8268SOL    HW225704   2.947   1.604   6.792 -0.8021 -0.3848  1.4107
 8269SOL     OW25705   5.088   1.772   0.134 -0.8887 -0.2269 -0.4913
 8269SOL    HW125706   5.032   1.847   0.100 -0.7614 -0.2183 -0.6864
 8269SOL    HW225707   5.031   1.709   0.187 -1.2013 -0.5159 -1.1613
 8270SOL     OW25708   0.123   4.200   6.498 -0.2395 -0.2780 -0.1571
 8270SOL    HW125709   0.144   4.140   6.420 -0.3915  0.0039 -0.4200
 8270SOL    HW225710   0.029   4.185   6.527 -0.6244  0.5744 -0.9075
 8271SOL     OW25711   2.907   2.654   0.609 -0.1815 -0.0991 -0.0114
 8271SOL    HW125712   2.880   2.612   0.523 -0.0714  0.2691 -0.2270
 8271SOL    HW225713   2.952   2.586   0.667  1.0616 -0.0146 -0.8343
 8272SOL     OW25714   1.591   2.327   3.924 -0.1730  0.3700 -0.1675
 8272SOL    HW125715   1.567   2.328   3.827 -0.2324  0.3960 -0.1529
 8272SOL    HW225716   1.509   2.310   3.979 -0.2220  0.8314 -0.0976
 8273SOL     OW25717   1.242   1.400   5.889 -0.1291  0.7980 -0.3781
 8273SOL    HW125718   1.331   1.358   5.874 -1.8003 -2.6426 -1.7300
 8273SOL    HW225719   1.224   1.406   5.987  0.3683 -1.5220 -0.0815
 8274SOL     OW25720   5.629   3.326   1.967 -1.0659 -0.3270 -0.2428
 8274SOL    HW125721   5.633   3.231   1.937  3.1496  0.3770 -2.7922
 8274SOL    HW225722   5.700   3.342   2.037 -3.1515  0.6185  1.8132
 8275SOL     OW25723   6.700   2.845   6.848 -0.5006 -0.3802  0.1303
 8275SOL    HW125724   6.672   2.939   6.870  0.9568 -0.4422  2.6068
 8275SOL    HW225725   6.672   2.784   6.922  3.0806 -0.9478  1.2009
 8276SOL     OW25726   4.007   1.441   0.515  0.7003  0.4349  0.1694
 8276SOL    HW125727   3.962   1.488   0.440  0.2691 -1.0333 -0.5306
 8276SOL    HW225728   4.091   1.397   0.482  0.0084 -1.0367  0.2750
 8277SOL     OW25729   4.379   2.161   6.566  0.0998  0.1224  0.4150
 8277SOL    HW125730   4.344   2.092   6.629 -0.0181  0.1980  0.4332
 8277SOL    HW225731   4.322   2.243   6.572 -0.4207 -0.1603 -0.3756
 8278SOL     OW25732   4.436   1.308   3.253  0.0255 -0.3183  0.0724
 8278SOL    HW125733   4.475   1.351   3.334  2.7182  2.9207 -2.6016
 8278SOL    HW225734   4.506   1.252   3.209 -1.0972 -1.2942 -0.5233
 8279SOL     OW25735   0.203   5.567   0.037 -0.8289 -0.2407 -0.1230
 8279SOL    HW125736   0.203   5.646   0.099 -0.2792 -0.8649  0.6892
 8279SOL    HW225737   0.205   5.599  -0.058  0.8301  0.7308  0.2061
 8280SOL     OW25738   2.899   2.954   5.790  0.4122  0.0810 -0.2851
 8280SOL    HW125739   2.971   2.950   5.720 -0.4592 -4.1079 -1.2271
 8280SOL    HW225740   2.813   2.922   5.751 -0.5199 -0.7900  2.2753
 8281SOL     OW25741   4.877   4.334   6.436  0.4461 -0.2521  0.2552
 8281SOL    HW125742   4.869   4.428   6.404  0.7513 -0.1653  0.4353
 8281SOL    HW225743   4.947   4.328   6.507 -1.0241 -0.2156  1.7901
 8282SOL     OW25744   5.100   4.302   3.192  0.3794 -0.2730 -0.1723
 8282SOL    HW125745   5.106   4.400   3.212  1.2015 -0.3161 -0.1690
 8282SOL    HW225746   5.098   4.250   3.277  3.6308 -0.4427 -0.0901
 8283SOL     OW25747   3.706   2.182   0.374  0.7354  0.3186  0.0319
 8283SOL    HW125748   3.734   2.142   0.461  3.1421  1.7504  0.0114
 8283SOL    HW225749   3.736   2.277   0.370  1.3722  0.0846 -2.6469
 8284SOL     OW25750   4.889   5.301   3.701  0.5447  0.4482 -0.0296
 8284SOL    HW125751   4.834   5.347   3.632 -0.3124 -1.4661 -0.6953
 8284SOL    HW225752   4.845   5.310   3.790  0.2186  0.6429 -0.2094
 8285SOL     OW25753   4.573   5.122   1.915  0.0672  0.2965 -0.3124
 8285SOL    HW125754   4.660   5.139   1.962 -0.8337 -2.0591  2.4882
 8285SOL    HW225755   4.575   5.031   1.874 -1.1266  0.1172 -0.0111
 8286SOL     OW25756   4.475   6.477   1.509  0.0544  0.0411  0.0214
 8286SOL    HW125757   4.467   6.559   1.453  0.5169 -0.3092 -0.5770
 8286SOL    HW225758   4.563   6.476   1.556 -0.2517  0.2381  0.6047
 8287SOL     OW25759   3.653   5.408   5.711  0.3656  0.6051 -0.0579
 8287SOL    HW125760   3.619   5.495   5.676  0.0464  0.9485  1.0435
 8287SOL    HW225761   3.576   5.347   5.728  0.6727 -0.4407 -2.1248
 8288SOL     OW25762   5.904   4.838   5.697 -0.1259  0.2176 -0.4203
 8288SOL    HW125763   5.809   4.820   5.675 -0.2958 -0.5095  0.7872
 8288SOL    HW225764   5.909   4.899   5.776  0.4190  0.5198 -0.6791
 8289SOL     OW25765   1.591   0.373   3.510  0.1621  0.0023 -0.2420
 8289SOL    HW125766   1.647   0.409   3.436  0.1980  1.1400  0.3195
 8289SOL    HW225767   1.614   0.420   3.595  1.4245 -2.4844  0.9196
 8290SOL     OW25768   3.969   2.141   3.933 -0.1752 -0.6683 -0.4997
 8290SOL    HW125769   4.034   2.216   3.920 -1.5426  0.8069  0.7876
 8290SOL    HW225770   3.987   2.096   4.020 -1.4450  0.4163  0.3644
 8291SOL     OW25771   1.649   3.966   3.241  0.4664  0.3539  0.3028
 8291SOL    HW125772   1.726   3.923   3.288  1.6137  1.2054 -0.7415
 8291SOL    HW225773   1.630   3.917   3.156  0.5332  0.7674  0.0477
 8292SOL     OW25774   0.345   4.625   2.943 -0.3764  0.2356  0.6460
 8292SOL    HW125775   0.294   4.553   2.990  1.3054 -2.2345 -1.0765
 8292SOL    HW225776   0.413   4.584   2.883  0.4089  3.3119 -0.7616
 8293SOL     OW25777   5.492   6.209   6.920 -0.0547  0.0219 -0.4831
 8293SOL    HW125778   5.467   6.176   6.828 -1.4809 -4.1955  1.1861
 8293SOL    HW225779   5.592   6.218   6.926  0.0932  0.0247 -2.2909
 8294SOL     OW25780   5.948   3.444   1.510  0.3159  0.2902 -0.2824
 8294SOL    HW125781   5.995   3.370   1.462 -1.3496  0.0930 -1.6915
 8294SOL    HW225782   6.016   3.510   1.545  1.6631 -0.4459 -1.4228
 8295SOL     OW25783   0.028   4.333   2.701 -0.4394  0.1113 -0.3358
 8295SOL    HW125784  -0.039   4.363   2.768 -0.8667  0.8074 -1.0522
 8295SOL    HW225785   0.007   4.375   2.612 -0.0073 -0.9378 -0.9517
 8296SOL     OW25786   3.868   1.401   6.152  0.2205 -0.0181  0.2742
 8296SOL    HW125787   3.836   1.414   6.058 -0.4388 -0.7257  0.3901
 8296SOL    HW225788   3.968   1.405   6.154  0.3726 -1.9077 -0.8009
 8297SOL     OW25789   4.004   2.833   5.354 -0.4742 -0.4150  0.2394
 8297SOL    HW125790   3.915   2.813   5.313  0.0831 -1.1308 -0.6550
 8297SOL    HW225791   4.066   2.757   5.338  0.6633  0.5737 -0.1759
 8298SOL     OW25792   3.074   2.046   6.992  0.1100  0.0232  0.0600
 8298SOL    HW125793   3.007   2.087   6.931 -2.9507 -2.8483  1.1427
 8298SOL    HW225794   3.127   1.976   6.943 -0.5741 -0.5233  0.0908
 8299SOL     OW25795   6.651   5.765   1.322 -0.3802 -0.1840  0.2178
 8299SOL    HW125796   6.684   5.807   1.406 -0.8587  0.6708 -0.0082
 8299SOL    HW225797   6.696   5.677   1.308  0.5259  0.1846  0.7813
 8300SOL     OW25798   2.453   1.042   4.340 -0.2613  0.0456  0.1402
 8300SOL    HW125799   2.437   1.132   4.300 -0.0494 -0.1222 -0.3325
 8300SOL    HW225800   2.378   0.981   4.315  0.8688 -0.6455 -1.7868
 8301SOL     OW25801   1.465   4.702   5.036 -0.3833 -0.0202  0.5913
 8301SOL    HW125802   1.465   4.660   5.126  1.2560  0.3243  0.7913
 8301SOL    HW225803   1.423   4.792   5.040 -1.4485 -0.5143  0.7318
 8302SOL     OW25804   2.804   3.364   0.412  0.0714 -0.4882  0.4686
 8302SOL    HW125805   2.856   3.392   0.331 -1.4033 -1.2329 -0.7841
 8302SOL    HW225806   2.865   3.316   0.475  1.2772  0.2095 -0.1308
 8303SOL     OW25807   1.184   0.763   0.874 -0.3197 -0.5609 -0.5816
 8303SOL    HW125808   1.144   0.821   0.945 -0.6341 -0.8440 -0.5250
 8303SOL    HW225809   1.112   0.708   0.832 -0.0576 -0.7489 -0.7849
 8304SOL     OW25810   6.439   2.512   0.266  0.0314  0.5080  0.1708
 8304SOL    HW125811   6.421   2.444   0.195 -0.9003  2.3441 -1.4276
 8304SOL    HW225812   6.395   2.598   0.242  0.0949  1.3512  2.7651
 8305SOL     OW25813   0.733   1.518   2.094  0.5164 -0.1459 -0.1509
 8305SOL    HW125814   0.664   1.472   2.038 -0.4978  0.4591  0.5690
 8305SOL    HW225815   0.724   1.489   2.189 -0.9866  2.3465  0.5824
 8306SOL     OW25816   6.499   6.402   6.953  0.9414 -0.1945 -0.0945
 8306SOL    HW125817   6.455   6.316   6.925  1.9520 -0.8370  0.2061
 8306SOL    HW225818   6.502   6.408   7.053  2.0865 -0.4909 -0.0906
 8307SOL     OW25819   5.568   2.770   5.401 -0.2232 -0.7287 -0.0447
 8307SOL    HW125820   5.572   2.854   5.456 -0.3239  0.5589 -1.9121
 8307SOL    HW225821   5.473   2.751   5.376  0.0398  0.6049 -2.4318
 8308SOL     OW25822   4.122   3.522   3.272  0.1085 -0.1528 -0.2846
 8308SOL    HW125823   4.150   3.488   3.182  1.3058  0.1366 -0.0450
 8308SOL    HW225824   4.105   3.621   3.266  2.8761  0.4463  0.3314
 8309SOL     OW25825   5.326   5.223   0.466 -0.1150  0.2792 -0.0583
 8309SOL    HW125826   5.361   5.309   0.429  0.3302 -0.5068 -1.5671
 8309SOL    HW225827   5.314   5.231   0.565 -0.0392  2.0428 -0.1607
 8310SOL     OW25828   2.744   5.563   4.540  0.1567  0.2939 -0.4202
 8310SOL    HW125829   2.705   5.655   4.547  1.6981  0.8861  0.8314
 8310SOL    HW225830   2.669   5.496   4.537 -0.9998  1.3697  2.0476
 8311SOL     OW25831   5.730   3.047   2.502  0.0600 -0.3975  0.0903
 8311SOL    HW125832   5.715   3.114   2.575  0.1102 -0.7300  0.4121
 8311SOL    HW225833   5.643   3.021   2.462  0.1562  1.0276 -1.1127
 8312SOL     OW25834   3.124   0.855   2.788  0.1066 -0.2573  0.0733
 8312SOL    HW125835   3.114   0.890   2.881  0.0204  2.9721 -1.0370
 8312SOL    HW225836   3.209   0.890   2.747  0.7894 -2.6070 -0.7557
 8313SOL     OW25837   0.010   5.403   3.390 -0.2695  0.5253  0.5539
 8313SOL    HW125838   0.010   5.345   3.471 -2.6872  1.6058  1.4388
 8313SOL    HW225839  -0.001   5.499   3.418 -0.3473  1.0001 -1.0174
 8314SOL     OW25840   4.790   4.097   4.701 -0.0874 -0.0358  0.3089
 8314SOL    HW125841   4.885   4.072   4.681  0.3214  0.9973  0.8729
 8314SOL    HW225842   4.746   4.023   4.751  0.9988  0.2046  1.6734
 8315SOL     OW25843   6.310   3.673   5.208 -0.2572 -0.1128  0.4159
 8315SOL    HW125844   6.261   3.714   5.131 -1.3875 -0.6019  0.8536
 8315SOL    HW225845   6.279   3.714   5.293  0.2294 -0.3132  0.6961
 8316SOL     OW25846   0.165   6.518   0.887 -0.2597  0.5242 -0.3584
 8316SOL    HW125847   0.200   6.455   0.955 -1.5047  0.8872  0.6608
 8316SOL    HW225848   0.127   6.467   0.810 -0.3647  0.0575 -0.0019
 8317SOL     OW25849   5.758   1.869   1.890 -0.0341  0.0420 -0.5815
 8317SOL    HW125850   5.715   1.851   1.979  0.3121  0.5034 -0.3175
 8317SOL    HW225851   5.794   1.962   1.888  1.3261 -0.4488 -0.6271
 8318SOL     OW25852   0.665   6.061   5.352 -0.7786  0.3212 -0.1190
 8318SOL    HW125853   0.645   5.979   5.298  0.0476  1.0791 -1.6450
 8318SOL    HW225854   0.591   6.127   5.342 -1.0708  0.0925  0.4708
 8319SOL     OW25855   1.901   5.971   5.271 -0.2850  0.0770  0.1314
 8319SOL    HW125856   1.943   5.885   5.244  1.5382  0.5576  1.2509
 8319SOL    HW225857   1.966   6.046   5.256 -1.7743  1.2592 -0.6766
 8320SOL     OW25858   0.270   0.328   1.826 -0.0265 -0.0249 -0.2459
 8320SOL    HW125859   0.360   0.287   1.843  0.2424  0.2705 -0.9494
 8320SOL    HW225860   0.239   0.304   1.735  0.2451  1.5063 -0.7756
 8321SOL     OW25861   4.984   2.850   6.577 -0.4114 -0.8636  0.0275
 8321SOL    HW125862   4.990   2.831   6.479  1.7068  1.1889 -0.3353
 8321SOL    HW225863   5.038   2.783   6.627  0.3779 -0.6069 -0.4569
 8322SOL     OW25864   4.295   1.957   4.049  0.0709  0.3583  0.0971
 8322SOL    HW125865   4.245   2.018   4.110 -1.7141 -1.1532  0.2327
 8322SOL    HW225866   4.389   1.949   4.080 -0.3428  0.9795  1.6236
 8323SOL     OW25867   0.759   0.102   4.268  0.7190 -0.2195 -0.6605
 8323SOL    HW125868   0.786   0.116   4.172  0.6167 -1.0629 -0.8191
 8323SOL    HW225869   0.835   0.062   4.319  0.7682  0.2149 -0.3841
 8324SOL     OW25870   4.443   1.431   2.120  0.2819 -0.3276  0.5055
 8324SOL    HW125871   4.523   1.475   2.078  0.7855 -2.0337 -0.4046
 8324SOL    HW225872   4.374   1.501   2.140  2.0226  1.2147  1.4500
 8325SOL     OW25873   4.561   0.907   1.865  0.0226 -0.4617 -0.1745
 8325SOL    HW125874   4.461   0.913   1.871 -0.0662  0.1476 -1.8710
 8325SOL    HW225875   4.587   0.813   1.841 -0.2871 -0.2145 -1.5857
 8326SOL     OW25876   4.766   6.778   5.793  0.3422  0.3825 -0.0700
 8326SOL    HW125877   4.786   6.794   5.696 -1.1816  1.5618 -0.2305
 8326SOL    HW225878   4.732   6.685   5.805  0.6709  0.1798 -0.6320
 8327SOL     OW25879   2.551   1.633   1.834 -0.0385  0.0467 -0.5005
 8327SOL    HW125880   2.614   1.711   1.837 -0.4170  0.3729 -0.8623
 8327SOL    HW225881   2.567   1.582   1.749 -0.7497  0.5552 -0.9542
 8328SOL     OW25882   2.831   3.317   5.141 -0.2322 -0.3582 -0.2863
 8328SOL    HW125883   2.815   3.267   5.056 -0.2165 -2.8779  1.1052
 8328SOL    HW225884   2.759   3.296   5.207 -2.4123  4.4247 -0.7158
 8329SOL     OW25885   1.174   6.058   5.797  0.6543 -0.5659  0.2618
 8329SOL    HW125886   1.209   6.127   5.860  1.2492 -1.0737  0.4923
 8329SOL    HW225887   1.132   5.983   5.849 -1.5620  0.4161 -0.0176
 8330SOL     OW25888   1.512   1.298   6.463 -0.4119  0.0678  0.2133
 8330SOL    HW125889   1.496   1.386   6.507 -0.6804  0.3773 -0.4948
 8330SOL    HW225890   1.512   1.309   6.364 -0.8511 -0.7986  0.1071
 8331SOL     OW25891   4.245   4.686   2.161 -0.6299 -0.1500  0.8455
 8331SOL    HW125892   4.328   4.630   2.166  1.3428  2.4299 -0.3895
 8331SOL    HW225893   4.226   4.726   2.250  0.9052  1.0688  0.6729
 8332SOL     OW25894   4.703   6.968   5.363 -0.4153 -0.4380  0.7505
 8332SOL    HW125895   4.780   7.014   5.320 -0.0918  0.2561  2.0075
 8332SOL    HW225896   4.621   7.026   5.358 -1.1937 -1.6183 -1.5311
 8333SOL     OW25897   3.380   4.401   5.301 -0.4250  0.1001  0.3149
 8333SOL    HW125898   3.402   4.492   5.266 -0.7923 -0.0579 -0.3469
 8333SOL    HW225899   3.315   4.408   5.376 -1.6459  0.3046 -0.7383
 8334SOL     OW25900   1.092   2.785   0.207 -0.0703 -0.3434 -0.4270
 8334SOL    HW125901   1.135   2.698   0.185  0.8036  0.4777 -2.1297
 8334SOL    HW225902   0.995   2.771   0.227  0.2940 -1.8183  0.4229
 8335SOL     OW25903   4.930   3.241   4.919 -0.1070 -0.0052 -0.0234
 8335SOL    HW125904   4.884   3.257   5.006 -0.7583  0.8184 -0.5019
 8335SOL    HW225905   4.878   3.173   4.865 -0.2681  0.2451 -0.1862
 8336SOL     OW25906   6.203   1.690   2.214  0.1660 -0.0542  0.7276
 8336SOL    HW125907   6.250   1.739   2.141 -0.7876  1.3474  1.0082
 8336SOL    HW225908   6.240   1.720   2.303  0.7829 -1.1699  0.8657
 8337SOL     OW25909   5.648   6.488   1.682  0.4506 -0.0682  0.5724
 8337SOL    HW125910   5.710   6.419   1.719 -1.6059 -2.6889 -0.5715
 8337SOL    HW225911   5.700   6.555   1.630  2.5450 -0.6424  1.8091
 8338SOL     OW25912   4.705   1.313   0.934  0.2061 -0.2053  0.3145
 8338SOL    HW125913   4.609   1.283   0.931 -0.7472  2.6122 -2.2600
 8338SOL    HW225914   4.713   1.392   0.995  0.8212 -0.2223  0.2626
 8339SOL     OW25915   1.816   1.708   4.470  0.1500  0.3762 -0.6373
 8339SOL    HW125916   1.858   1.717   4.380 -0.4116 -0.5596 -1.0074
 8339SOL    HW225917   1.887   1.690   4.538  0.3506 -1.6893 -1.3308
 8340SOL     OW25918   2.865   3.438   6.663  0.3670 -0.1562  0.4012
 8340SOL    HW125919   2.872   3.516   6.725  0.4056 -0.1308  0.3649
 8340SOL    HW225920   2.769   3.412   6.655 -0.0440  1.7096 -1.8174
 8341SOL     OW25921   2.443   1.650   4.471 -0.4295  0.0515 -0.0060
 8341SOL    HW125922   2.509   1.726   4.474 -0.1015 -0.2645  1.2698
 8341SOL    HW225923   2.481   1.571   4.520 -1.1687 -0.6207 -0.5031
 8342SOL     OW25924   5.721   2.764   6.142 -0.7750  0.0218 -0.0085
 8342SOL    HW125925   5.744   2.683   6.195  1.4051  0.8073  0.3242
 8342SOL    HW225926   5.681   2.834   6.202  2.8104  1.3823  1.0339
 8343SOL     OW25927   0.295   1.995   0.312  0.1290 -0.2716 -0.0058
 8343SOL    HW125928   0.302   1.903   0.352  0.4109 -0.1578  0.2079
 8343SOL    HW225929   0.386   2.031   0.295  0.0074 -0.2746 -0.6560
 8344SOL     OW25930   2.949   5.245   5.361 -0.0005  0.4674 -0.4273
 8344SOL    HW125931   3.012   5.171   5.384 -1.0327 -0.1097  0.7020
 8344SOL    HW225932   3.000   5.322   5.325  1.0794 -0.9002 -1.9595
 8345SOL     OW25933   6.787   2.226   1.283 -0.5495 -0.6489 -0.2109
 8345SOL    HW125934   6.739   2.297   1.232 -0.0136  0.2775  0.5539
 8345SOL    HW225935   6.858   2.186   1.226  0.3582  0.7043 -0.0657
 8346SOL     OW25936   5.698   2.954   1.253  0.2920  0.4490  0.5852
 8346SOL    HW125937   5.696   2.915   1.345  3.8274 -2.2237 -0.2634
 8346SOL    HW225938   5.760   3.033   1.251  1.2135 -0.2670  0.2971
 8347SOL     OW25939   4.690   0.317   4.019  0.3313  0.1606 -0.2024
 8347SOL    HW125940   4.642   0.403   3.999 -1.1586 -0.0337  2.1627
 8347SOL    HW225941   4.636   0.240   3.987 -1.0983 -0.0620  2.5252
 8348SOL     OW25942   2.763   6.239   3.535 -0.6991  0.9143  0.4246
 8348SOL    HW125943   2.762   6.207   3.629 -2.7328  2.3504  0.9648
 8348SOL    HW225944   2.768   6.339   3.534  0.4021  0.8878 -1.0517
 8349SOL     OW25945   1.776   0.688   2.773  0.0891 -0.2036  0.1562
 8349SOL    HW125946   1.705   0.728   2.715  0.8151  0.4807 -0.2661
 8349SOL    HW225947   1.862   0.737   2.760 -0.1437  1.2421  3.1872
 8350SOL     OW25948   1.857   2.324   6.201  0.1598 -0.6430  0.3298
 8350SOL    HW125949   1.880   2.382   6.123 -1.7760 -0.6690 -0.3233
 8350SOL    HW225950   1.927   2.334   6.272  2.0450 -0.7268 -1.4313
 8351SOL     OW25951   0.428   2.203   6.200 -0.3259  0.3544 -0.2335
 8351SOL    HW125952   0.405   2.145   6.278  1.5061 -0.8510 -0.5422
 8351SOL    HW225953   0.345   2.222   6.147 -1.1550 -1.0565  0.4982
 8352SOL     OW25954   1.175   6.497   4.416  0.2559 -0.1734 -0.1397
 8352SOL    HW125955   1.114   6.501   4.337 -1.0686 -0.3128  0.8603
 8352SOL    HW225956   1.213   6.405   4.424 -1.8926 -1.0135  1.0428
 8353SOL     OW25957   3.245   0.932   5.844  0.6365  0.1753  0.3048
 8353SOL    HW125958   3.222   0.839   5.873  0.8994 -0.0517 -0.2078
 8353SOL    HW225959   3.161   0.983   5.827  0.3493 -1.1202 -3.0842
 8354SOL     OW25960   1.904   2.457   5.962  0.0518 -0.0002  0.0467
 8354SOL    HW125961   1.990   2.492   5.928  0.2125  0.0913  0.5330
 8354SOL    HW225962   1.830   2.520   5.940  0.4181  0.9461  1.3840
 8355SOL     OW25963   0.773   0.839   1.795  0.2006  0.2444 -0.2229
 8355SOL    HW125964   0.811   0.748   1.816  0.3777  0.1316 -1.0075
 8355SOL    HW225965   0.842   0.909   1.816  0.5376  0.1007 -0.8155
 8356SOL     OW25966   5.857   0.744   5.030  0.0308 -0.2907  0.3786
 8356SOL    HW125967   5.826   0.701   5.115  0.5429 -1.7119 -0.1267
 8356SOL    HW225968   5.838   0.842   5.034  4.0817  0.6931  4.1437
 8357SOL     OW25969   6.038   5.556   6.308  0.7862 -0.8463  0.8858
 8357SOL    HW125970   5.954   5.602   6.279 -1.0112 -3.2121  2.0474
 8357SOL    HW225971   6.075   5.603   6.388  0.8473  0.4555  0.1296
 8358SOL     OW25972   4.951   2.367   5.910 -0.2103 -0.0874 -0.1874
 8358SOL    HW125973   4.856   2.391   5.928  0.1985  0.2930  1.7418
 8358SOL    HW225974   4.987   2.316   5.988  0.7022 -1.7178 -1.6073
 8359SOL     OW25975   3.335   2.015   2.116  0.2387 -0.4316  0.1689
 8359SOL    HW125976   3.267   2.071   2.069 -0.1198  0.0577  1.2422
 8359SOL    HW225977   3.292   1.929   2.147  0.7007 -1.1695 -1.1690
 8360SOL     OW25978   5.084   4.148   2.564 -0.1882  0.9180 -0.1648
 8360SOL    HW125979   5.017   4.089   2.607  1.8951 -1.2998  0.2767
 8360SOL    HW225980   5.126   4.208   2.632  0.5247  0.0004  0.2233
 8361SOL     OW25981   2.589   5.345   4.520 -0.4724  0.3153  0.2328
 8361SOL    HW125982   2.610   5.249   4.539  0.9034  0.4426 -0.5322
 8361SOL    HW225983   2.562   5.355   4.424  1.5591  0.9966 -0.2961
 8362SOL     OW25984   6.200   6.126   6.556  0.0180  0.1995 -0.0816
 8362SOL    HW125985   6.182   6.130   6.654 -0.4690  0.0575 -0.1627
 8362SOL    HW225986   6.169   6.210   6.512 -1.1101 -0.3156 -0.3200
 8363SOL     OW25987   5.812   0.201   5.722  0.0905  0.3111 -0.1806
 8363SOL    HW125988   5.723   0.230   5.686  0.8562  1.2210 -1.4003
 8363SOL    HW225989   5.823   0.237   5.815 -0.9571 -0.1374  0.1385
 8364SOL     OW25990   6.825   5.620   5.381 -0.5418 -0.6580 -0.6818
 8364SOL    HW125991   6.875   5.551   5.433 -1.6816 -1.3858 -0.5079
 8364SOL    HW225992   6.889   5.671   5.323  0.5418 -0.7635  0.3887
 8365SOL     OW25993   3.606   4.909   3.073  0.3722  0.2970 -0.5200
 8365SOL    HW125994   3.670   4.900   2.997 -0.8718  0.5457 -1.6416
 8365SOL    HW225995   3.527   4.850   3.057  0.5661 -0.4913  1.1480
 8366SOL     OW25996   3.678   0.942   5.221  0.0236  0.0707  0.3113
 8366SOL    HW125997   3.587   0.909   5.193  0.0435 -0.9077  1.3413
 8366SOL    HW225998   3.687   0.935   5.320  0.6030  1.8115  0.4155
 8367SOL     OW25999   0.104   3.072   3.206 -0.3439  0.1284  0.3527
 8367SOL    HW126000   0.132   3.030   3.293 -1.2471 -1.7224 -0.1965
 8367SOL    HW226001   0.039   3.145   3.225  1.3970  1.5253  1.3484
 8368SOL     OW26002   6.729   4.231   5.852 -0.7902 -0.3849 -0.3774
 8368SOL    HW126003   6.789   4.174   5.796  2.7653 -1.6788  4.0888
 8368SOL    HW226004   6.691   4.176   5.926 -0.1567  2.1898  2.0439
 8369SOL     OW26005   2.907   6.701   1.225  0.2771  0.3965  0.5088
 8369SOL    HW126006   2.895   6.721   1.128  0.3038  0.0094  0.4220
 8369SOL    HW226007   2.823   6.660   1.260  0.5859 -0.3340  0.4196
 8370SOL     OW26008   5.069   4.585   5.646  0.3188  0.0669  0.9651
 8370SOL    HW126009   5.018   4.529   5.711  1.2266 -1.6736  0.2438
 8370SOL    HW226010   5.119   4.657   5.695 -1.8429  1.0880  1.7897
 8371SOL     OW26011   4.077   0.821   1.058  0.1845  0.1488 -0.3723
 8371SOL    HW126012   4.053   0.907   1.012  2.3716  0.0548 -1.8244
 8371SOL    HW226013   4.160   0.784   1.018 -0.0092 -2.0350  1.0873
 8372SOL     OW26014   0.399   5.076   3.450  0.3922  0.1451 -0.3324
 8372SOL    HW126015   0.396   5.025   3.364 -1.3592  1.3033 -1.0176
 8372SOL    HW226016   0.392   5.012   3.527 -2.0611 -0.7259 -1.1693
 8373SOL     OW26017   5.170   2.042   4.373  0.1868 -0.1607  0.0727
 8373SOL    HW126018   5.112   2.101   4.317  0.6933 -0.3229 -0.6393
 8373SOL    HW226019   5.265   2.049   4.341  0.5635  0.0422  1.1570
 8374SOL     OW26020   1.269   5.738   6.607 -0.2538  0.1094  0.1748
 8374SOL    HW126021   1.355   5.766   6.565 -0.6439 -1.0014 -1.4448
 8374SOL    HW226022   1.221   5.819   6.642  0.4312  1.0058 -0.8995
 8375SOL     OW26023   1.227   1.327   2.692 -0.4191  0.1203  0.4145
 8375SOL    HW126024   1.157   1.265   2.727 -0.9891  0.7709  0.4410
 8375SOL    HW226025   1.279   1.281   2.619  0.2560 -0.9651  1.5351
 8376SOL     OW26026   3.245   6.187   2.200 -0.1703 -0.7955 -0.1916
 8376SOL    HW126027   3.228   6.149   2.292 -2.6633  0.2753 -0.1338
 8376SOL    HW226028   3.311   6.261   2.207 -1.9506  0.7579  1.1766
 8377SOL     OW26029   0.603   6.393   1.069  0.1656 -0.4495  0.2078
 8377SOL    HW126030   0.530   6.431   1.013 -0.2390 -1.8162 -0.2403
 8377SOL    HW226031   0.692   6.408   1.024 -0.1872 -1.8645 -1.0267
 8378SOL     OW26032   1.489   3.378   6.420  0.0277  0.2256  0.4142
 8378SOL    HW126033   1.546   3.297   6.431 -0.8388 -0.2404  1.7400
 8378SOL    HW226034   1.447   3.402   6.508  0.4169  2.2486  0.1110
 8379SOL     OW26035   3.979   6.350   3.776 -0.3539  0.0277 -0.3098
 8379SOL    HW126036   4.058   6.329   3.833  0.0444 -0.6140 -1.0719
 8379SOL    HW226037   3.901   6.374   3.834 -0.1938 -1.4009  0.5388
 8380SOL     OW26038   1.100   2.431   3.176  0.5006 -0.0621  0.1384
 8380SOL    HW126039   1.108   2.530   3.187  0.3282 -0.0642  0.2943
 8380SOL    HW226040   1.040   2.410   3.100  0.1929 -0.0464  0.3767
 8381SOL     OW26041   3.691   3.490   3.933  0.5560 -0.6854 -0.1815
 8381SOL    HW126042   3.634   3.467   4.012 -1.2577  0.5583 -1.0476
 8381SOL    HW226043   3.672   3.426   3.859 -0.6703  0.4162 -0.8672
 8382SOL     OW26044   0.077   0.189   6.294  0.3363 -0.4301 -0.3294
 8382SOL    HW126045   0.008   0.195   6.223 -1.7367  0.5825  1.6453
 8382SOL    HW226046   0.076   0.097   6.335 -2.6533  0.5515  2.1884
 8383SOL     OW26047   2.092   4.996   2.628 -0.2055 -0.3209  0.6080
 8383SOL    HW126048   2.079   4.898   2.644 -1.3494 -0.7712 -2.3147
 8383SOL    HW226049   2.189   5.016   2.619  0.0020 -1.4116  0.2271
 8384SOL     OW26050   6.924   6.870   1.728 -0.5263  0.3789 -0.2874
 8384SOL    HW126051   6.900   6.864   1.825 -0.9349 -0.3572 -0.4314
 8384SOL    HW226052   7.014   6.913   1.719 -1.3537  2.3450  0.3033
 8385SOL     OW26053   5.673   4.270   5.225 -0.0888  0.1115 -0.0437
 8385SOL    HW126054   5.686   4.299   5.130  1.0168  1.8817  0.6031
 8385SOL    HW226055   5.591   4.314   5.262 -0.1382 -0.0423  0.0306
 8386SOL     OW26056   6.667   4.960   2.377 -0.9068  0.4405  0.0408
 8386SOL    HW126057   6.642   4.908   2.459  0.4644 -0.3881 -0.0277
 8386SOL    HW226058   6.728   5.035   2.402  0.0275 -0.1933 -0.2568
 8387SOL     OW26059   6.416   2.277   6.168  0.2395  0.1118 -0.0098
 8387SOL    HW126060   6.409   2.370   6.133  2.4856  1.1633  2.0236
 8387SOL    HW226061   6.503   2.237   6.139 -1.2139 -1.9169 -1.8966
 8388SOL     OW26062   0.821   1.994   2.003 -0.4675 -0.2939  0.8248
 8388SOL    HW126063   0.911   2.038   2.008 -0.6286  0.3621 -1.1639
 8388SOL    HW226064   0.752   2.054   2.043 -0.1917 -0.3109  1.3366
 8389SOL     OW26065   2.652   2.616   1.379 -0.0774  0.1242  0.1362
 8389SOL    HW126066   2.725   2.562   1.337 -1.3262 -1.2866 -0.3091
 8389SOL    HW226067   2.581   2.554   1.414 -2.5270  1.4678 -2.0734
 8390SOL     OW26068   1.570   4.384   1.492 -0.1590 -0.3426  0.0443
 8390SOL    HW126069   1.540   4.366   1.586 -1.9212  1.0063 -0.2026
 8390SOL    HW226070   1.627   4.465   1.490  1.5303 -1.4747  0.1620
 8391SOL     OW26071   1.022   3.347   6.316 -0.2478 -0.1581 -0.0376
 8391SOL    HW126072   0.927   3.373   6.336  0.0883  0.6626  0.5098
 8391SOL    HW226073   1.079   3.363   6.397  1.0160  2.5815 -1.3602
 8392SOL     OW26074   1.600   6.355   0.697 -0.0067 -0.0367 -0.1612
 8392SOL    HW126075   1.620   6.410   0.778 -3.1185 -1.3214  1.6840
 8392SOL    HW226076   1.684   6.310   0.666  1.7606  2.3723  0.7934
 8393SOL     OW26077   5.441   6.143   5.810 -0.2482 -0.3269  0.8169
 8393SOL    HW126078   5.474   6.120   5.901  1.5196  1.5996  0.7568
 8393SOL    HW226079   5.447   6.242   5.796 -2.2090 -0.3708 -0.7666
 8394SOL     OW26080   6.598   4.400   5.677 -0.2591 -0.1206 -0.5429
 8394SOL    HW126081   6.630   4.405   5.582  1.6045 -1.9396 -0.0785
 8394SOL    HW226082   6.651   4.331   5.726 -2.0800 -0.1644  1.4904
 8395SOL     OW26083   2.480   2.402   1.423 -0.1660  0.4472  0.3000
 8395SOL    HW126084   2.501   2.389   1.520  1.9851  0.4143 -0.1123
 8395SOL    HW226085   2.504   2.320   1.372 -1.6793  0.3121 -0.2266
 8396SOL     OW26086   3.966   5.802   3.001 -0.8025 -0.0449 -1.0664
 8396SOL    HW126087   4.038   5.734   3.016  1.1262  2.3926  1.8107
 8396SOL    HW226088   3.980   5.846   2.912  0.9484 -0.0183 -0.8179
 8397SOL     OW26089   6.015   0.639   0.942  0.2483 -0.5269  0.2599
 8397SOL    HW126090   6.039   0.552   0.900  1.7950 -1.0404  2.0727
 8397SOL    HW226091   6.027   0.633   1.041 -1.6688  1.1300  0.6442
 8398SOL     OW26092   2.530   6.967   1.602  0.5273 -0.4638 -0.1479
 8398SOL    HW126093   2.629   6.954   1.608  1.0401  2.9572  0.8715
 8398SOL    HW226094   2.510   7.055   1.561 -2.0987 -0.5918  0.6426
 8399SOL     OW26095   2.309   1.941   3.676 -0.1326  0.4480  0.7399
 8399SOL    HW126096   2.285   2.025   3.627 -0.2029 -0.0907 -0.1774
 8399SOL    HW226097   2.407   1.942   3.697  0.2705 -0.0389 -0.9269
 8400SOL     OW26098   3.861   4.594   5.905  0.5011 -0.2051 -0.3051
 8400SOL    HW126099   3.878   4.641   5.818 -0.8033 -0.5323 -0.7501
 8400SOL    HW226100   3.887   4.498   5.896 -0.2672 -0.3945 -0.5577
 8401SOL     OW26101   5.025   2.601   4.588 -0.4039 -0.0913 -0.4798
 8401SOL    HW126102   5.108   2.654   4.608 -0.4963 -0.6789  1.7202
 8401SOL    HW226103   5.029   2.567   4.494  0.3776  2.4577 -1.4442
 8402SOL     OW26104   4.443   1.883   0.140 -0.0955  0.7499  0.0274
 8402SOL    HW126105   4.472   1.809   0.200 -1.0748 -0.4154 -0.8858
 8402SOL    HW226106   4.465   1.971   0.182  2.4058 -0.0178  0.5162
 8403SOL     OW26107   0.235   5.058   5.704  0.2062  0.4030 -0.2229
 8403SOL    HW126108   0.154   5.076   5.647  0.4137  0.4404 -0.5090
 8403SOL    HW226109   0.295   5.138   5.702  1.3501 -0.4465 -1.8541
 8404SOL     OW26110   0.015   2.115   4.566 -0.5996  0.1140  0.3691
 8404SOL    HW126111   0.046   2.023   4.540  1.3791  0.7309  0.3492
 8404SOL    HW226112   0.015   2.123   4.666  1.3965  0.7063  0.3730
 8405SOL     OW26113   5.662   6.689   2.498  0.2952 -0.6139 -0.6987
 8405SOL    HW126114   5.695   6.609   2.448  0.2117  0.4564 -2.5821
 8405SOL    HW226115   5.565   6.703   2.478  0.3275 -0.0190 -0.4606
 8406SOL     OW26116   1.156   2.037   0.330 -0.2666  0.3805  0.0596
 8406SOL    HW126117   1.138   1.988   0.246 -0.7292  0.5939  0.0270
 8406SOL    HW226118   1.252   2.029   0.354 -0.6841 -2.3344  1.1917
 8407SOL     OW26119   4.595   2.584   0.869 -0.3009 -0.4772 -0.1645
 8407SOL    HW126120   4.512   2.622   0.829  0.8699  1.4765 -0.8734
 8407SOL    HW226121   4.597   2.606   0.966 -1.4654 -2.1684  0.2830
 8408SOL     OW26122   6.560   5.664   0.151 -0.2523 -0.5291 -0.4856
 8408SOL    HW126123   6.492   5.732   0.179  1.3614  0.8426  0.2235
 8408SOL    HW226124   6.533   5.627   0.062 -0.7258  1.7377 -1.3672
 8409SOL     OW26125   6.752   4.543   1.069 -0.9429 -0.0974 -0.5781
 8409SOL    HW126126   6.782   4.568   1.161  0.7326 -1.6526 -0.6139
 8409SOL    HW226127   6.730   4.445   1.067  0.9391 -0.5613 -2.1960
 8410SOL     OW26128   4.257   3.570   0.542 -0.5189 -0.0138 -0.1839
 8410SOL    HW126129   4.233   3.534   0.632  1.2409 -0.0680  0.2921
 8410SOL    HW226130   4.296   3.497   0.485  2.2567  0.8417  0.4894
 8411SOL     OW26131   4.513   5.330   1.103 -0.2039  0.5408  0.0703
 8411SOL    HW126132   4.611   5.326   1.122 -0.4705  1.0326  1.7663
 8411SOL    HW226133   4.471   5.242   1.127 -0.1166  0.1265 -1.2165
 8412SOL     OW26134   2.889   5.554   5.987 -0.6447 -0.0314 -0.2491
 8412SOL    HW126135   2.915   5.509   5.901 -1.0327 -2.3649  0.7682
 8412SOL    HW226136   2.856   5.646   5.968 -0.9258 -0.5523 -2.6102
 8413SOL     OW26137   0.639   1.823   4.777 -0.0240 -0.1811 -0.5351
 8413SOL    HW126138   0.670   1.814   4.683  1.5424 -0.1622 -0.0426
 8413SOL    HW226139   0.599   1.737   4.808  1.0074 -0.7279 -0.6908
 8414SOL     OW26140   2.780   3.891   1.725 -0.4078 -0.2360  0.1131
 8414SOL    HW126141   2.719   3.812   1.720 -0.0346 -0.4471 -2.0654
 8414SOL    HW226142   2.731   3.973   1.696  0.2337 -0.3538 -1.3558
 8415SOL     OW26143   6.176   0.647   1.555  0.4852 -0.1735 -0.4960
 8415SOL    HW126144   6.146   0.652   1.650  1.4368  0.6524 -0.2194
 8415SOL    HW226145   6.203   0.738   1.524 -0.7120 -0.2475 -1.8748
 8416SOL     OW26146   5.842   2.751   2.168 -0.0909  0.7983 -0.1831
 8416SOL    HW126147   5.813   2.739   2.263 -0.3610  1.1293 -0.2185
 8416SOL    HW226148   5.774   2.712   2.107 -1.2692  2.8931 -0.3164
 8417SOL     OW26149   1.407   0.766   6.861  0.0414 -0.1010  0.1023
 8417SOL    HW126150   1.415   0.761   6.762 -0.6666 -1.1050  0.0767
 8417SOL    HW226151   1.496   0.785   6.902  0.4374 -0.2596 -0.6845
 8418SOL     OW26152   3.665   2.920   1.060  0.5037  0.0282 -0.1501
 8418SOL    HW126153   3.763   2.903   1.048  0.8450  1.8747 -0.2457
 8418SOL    HW226154   3.619   2.913   0.971  0.5660 -0.6867 -0.1308
 8419SOL     OW26155   1.914   3.230   3.511  0.1907  0.1476  0.0902
 8419SOL    HW126156   1.886   3.253   3.417 -0.7014  0.0414  0.3169
 8419SOL    HW226157   2.013   3.235   3.518  0.1746  2.1561 -0.3345
 8420SOL     OW26158   3.301   3.887   5.596 -0.4746  0.4472  0.2353
 8420SOL    HW126159   3.372   3.885   5.525 -1.1561 -0.8703 -0.4499
 8420SOL    HW226160   3.311   3.807   5.655 -1.7274 -0.0588 -0.2239
 8421SOL     OW26161   3.492   2.656   5.342 -0.4983  0.1225 -0.1957
 8421SOL    HW126162   3.422   2.676   5.274 -1.2469  1.1238  0.8162
 8421SOL    HW226163   3.460   2.583   5.402 -1.4629  1.6922  1.2945
 8422SOL     OW26164   1.921   3.017   3.764  0.3097 -0.6244  0.6643
 8422SOL    HW126165   1.902   3.063   3.677  1.5639  0.7662  1.1045
 8422SOL    HW226166   2.019   3.007   3.776  0.3068  1.3123  2.9680
 8423SOL     OW26167   6.812   2.910   5.298  0.0712  0.5477  0.0526
 8423SOL    HW126168   6.716   2.916   5.326  0.4473  0.1782  1.4976
 8423SOL    HW226169   6.870   2.931   5.376  1.1930 -0.7660 -0.4062
 8424SOL     OW26170   3.275   0.657   3.399 -0.9787  0.2754 -0.6921
 8424SOL    HW126171   3.302   0.611   3.314 -0.3298  0.7712 -0.7717
 8424SOL    HW226172   3.245   0.590   3.466 -0.9921 -0.1709 -1.1416
 8425SOL     OW26173   2.976   1.480   1.398  0.3093 -0.2632  0.3096
 8425SOL    HW126174   3.057   1.449   1.447 -0.1414  0.9216  1.8618
 8425SOL    HW226175   2.983   1.452   1.302  2.5629 -0.1694  0.3871
 8426SOL     OW26176   6.810   3.785   0.682 -0.1758  0.6582 -0.1830
 8426SOL    HW126177   6.778   3.696   0.713 -0.0363  0.4751 -0.5647
 8426SOL    HW226178   6.826   3.844   0.761 -0.3058  0.3583  0.0667
 8427SOL     OW26179   6.939   4.398   5.879  0.4560  0.4577  0.1241
 8427SOL    HW126180   7.001   4.340   5.931  0.6494  0.3637 -0.2075
 8427SOL    HW226181   6.856   4.347   5.857  1.0923 -0.0884 -1.1382
 8428SOL     OW26182   3.345   5.703   5.054  0.1940 -0.0937 -0.5139
 8428SOL    HW126183   3.386   5.630   5.000 -0.9728 -0.4199 -0.9768
 8428SOL    HW226184   3.246   5.696   5.051 -0.0102  2.1523 -1.4944
 8429SOL     OW26185   6.532   5.787   6.468  0.0257  0.3494 -0.6282
 8429SOL    HW126186   6.549   5.750   6.559 -0.7326  0.9678 -0.2242
 8429SOL    HW226187   6.580   5.874   6.457  1.0212 -0.2519 -1.2324
 8430SOL     OW26188   5.446   5.502   1.032  0.1987 -0.1514  0.4049
 8430SOL    HW126189   5.348   5.519   1.025  0.2121 -0.4298 -0.6611
 8430SOL    HW226190   5.478   5.453   0.951  1.2425  0.0184  0.6871
 8431SOL     OW26191   1.680   6.547   1.473 -0.2110  0.3681  0.5097
 8431SOL    HW126192   1.750   6.499   1.420  0.1696  1.0319  0.3907
 8431SOL    HW226193   1.602   6.487   1.489  1.2945 -1.1549  2.5754
 8432SOL     OW26194   6.336   0.795   5.120  0.2073 -0.7101 -0.4834
 8432SOL    HW126195   6.386   0.709   5.124  1.7511  0.1551 -0.3036
 8432SOL    HW226196   6.280   0.798   5.037 -1.8738 -2.8932  0.7214
 8433SOL     OW26197   1.150   4.494   1.064 -0.0374 -0.0481 -0.0810
 8433SOL    HW126198   1.183   4.404   1.034 -2.7013 -1.1338 -0.0544
 8433SOL    HW226199   1.147   4.496   1.164  1.6297  0.7636 -0.0098
 8434SOL     OW26200   0.029   0.581   5.785 -0.1980  0.0264  0.0738
 8434SOL    HW126201  -0.008   0.489   5.775  1.5037 -0.6112 -0.6158
 8434SOL    HW226202   0.115   0.589   5.734 -1.2556  2.5665 -1.5479
 8435SOL     OW26203   6.057   3.896   0.530  0.3067 -0.4923 -0.1706
 8435SOL    HW126204   6.003   3.965   0.481  0.1213  0.1460  0.9040
 8435SOL    HW226205   6.144   3.936   0.558  0.9885 -1.2525 -1.1050
 8436SOL     OW26206   1.961   1.527   2.869 -0.0727 -0.0250  0.2701
 8436SOL    HW126207   1.980   1.619   2.835 -2.0057  0.0121 -0.8704
 8436SOL    HW226208   2.046   1.485   2.900  2.0034  0.0033 -4.5159
 8437SOL     OW26209   5.546   3.300   0.532  0.0693 -0.9628 -0.8265
 8437SOL    HW126210   5.505   3.210   0.548  1.5890 -1.4504  0.7420
 8437SOL    HW226211   5.630   3.307   0.586  0.5090  1.0401 -1.7078
 8438SOL     OW26212   0.298   4.055   3.457  0.0450 -0.0513  0.2044
 8438SOL    HW126213   0.370   4.090   3.516  0.3729  0.5047 -0.5197
 8438SOL    HW226214   0.223   4.121   3.453 -1.3389 -1.3493  2.3382
 8439SOL     OW26215   6.199   3.449   4.751  0.5581 -0.4035  0.0042
 8439SOL    HW126216   6.128   3.380   4.762  0.2653  0.1887  2.2496
 8439SOL    HW226217   6.159   3.540   4.761  1.4968 -0.0412  0.6321
 8440SOL     OW26218   3.688   5.074   2.637  0.3170  0.4878  0.0586
 8440SOL    HW126219   3.602   5.024   2.627 -0.1203  1.3433 -0.6019
 8440SOL    HW226220   3.764   5.009   2.640 -0.2734 -0.2334 -0.2713
 8441SOL     OW26221   6.981   1.606   0.686  0.4238  0.4377  0.3919
 8441SOL    HW126222   6.940   1.662   0.758  2.2496  1.5154  0.6727
 8441SOL    HW226223   6.970   1.509   0.708  0.5424  0.7434  1.8943
 8442SOL     OW26224   4.999   2.154   3.490 -0.4742  0.2770  0.2510
 8442SOL    HW126225   5.070   2.221   3.470 -1.0486 -0.2153 -4.5014
 8442SOL    HW226226   4.913   2.201   3.512 -0.2084  1.0216 -0.2893
 8443SOL     OW26227   0.795   6.079   4.449 -0.2927 -0.5004 -0.6500
 8443SOL    HW126228   0.723   6.118   4.507  0.7208  1.4978 -0.6842
 8443SOL    HW226229   0.835   6.150   4.392  2.8216 -1.1647  0.5117
 8444SOL     OW26230   1.283   1.018   2.102  0.3358 -0.4185  0.3676
 8444SOL    HW126231   1.275   0.922   2.128  0.1409 -0.1852  1.2000
 8444SOL    HW226232   1.221   1.073   2.158  0.5091  0.2006 -0.0433
 8445SOL     OW26233   6.223   2.966   0.079 -0.0683 -0.5425 -0.4126
 8445SOL    HW126234   6.273   2.890   0.121 -2.2067 -1.2878  0.9344
 8445SOL    HW226235   6.233   2.961  -0.021  1.7640 -1.1704 -0.2281
 8446SOL     OW26236   3.045   6.463   4.441  0.8935  0.1613  0.1562
 8446SOL    HW126237   3.103   6.428   4.368  0.4715 -0.9927  0.3610
 8446SOL    HW226238   3.013   6.555   4.417 -0.3132 -0.7049 -1.7192
 8447SOL     OW26239   3.841   3.600   6.412 -0.2444 -0.0152 -0.1217
 8447SOL    HW126240   3.901   3.678   6.433  0.0473 -0.0222 -0.9162
 8447SOL    HW226241   3.884   3.542   6.343  0.5707 -2.1269  2.0353
 8448SOL     OW26242   6.771   6.068   0.042 -0.7639 -0.1680  0.1081
 8448SOL    HW126243   6.755   5.987   0.099 -1.9014  0.8507  1.2825
 8448SOL    HW226244   6.784   6.148   0.100  1.9014  0.2909 -0.9979
 8449SOL     OW26245   2.065   1.489   3.694 -0.0308 -0.4254 -0.3378
 8449SOL    HW126246   2.115   1.478   3.780 -0.6184 -0.1396  0.0495
 8449SOL    HW226247   2.110   1.557   3.638 -0.7881  0.9273  0.6397
 8450SOL     OW26248   1.908   0.572   2.977  0.7677 -0.5851 -0.2471
 8450SOL    HW126249   1.848   0.626   2.919  1.1302 -0.5208 -0.5646
 8450SOL    HW226250   1.910   0.612   3.069 -0.2608 -1.0292 -0.0223
 8451SOL     OW26251   1.542   3.852   6.138 -0.3444  0.1726  0.2830
 8451SOL    HW126252   1.500   3.790   6.203 -3.3214 -0.2234 -1.7776
 8451SOL    HW226253   1.508   3.945   6.154  2.5789  1.0725  2.1131
 8452SOL     OW26254   5.888   6.200   1.344  0.0500  0.1208 -0.2586
 8452SOL    HW126255   5.838   6.287   1.337  0.6310  0.5527  0.6906
 8452SOL    HW226256   5.985   6.216   1.330  0.1239 -0.4350 -0.3953
 8453SOL     OW26257   4.592   4.137   1.741 -0.1420 -0.0673 -0.7774
 8453SOL    HW126258   4.579   4.125   1.643 -0.6444 -0.6920 -0.6403
 8453SOL    HW226259   4.521   4.197   1.778  0.5130  0.8198 -0.9205
 8454SOL     OW26260   0.099   6.474   3.436 -0.8560 -0.0233  0.7845
 8454SOL    HW126261   0.037   6.529   3.381 -1.2293 -0.6420  0.5845
 8454SOL    HW226262   0.144   6.405   3.379  0.3287  0.6683  0.8373
 8455SOL     OW26263   0.905   2.829   6.262  0.6559 -0.0224  0.0045
 8455SOL    HW126264   0.809   2.843   6.285  0.6255  0.8917 -0.6421
 8455SOL    HW226265   0.956   2.810   6.346  0.2690  1.5739  0.6476
 8456SOL     OW26266   0.998   4.301   2.007 -0.0739  0.3057 -0.4222
 8456SOL    HW126267   1.042   4.298   2.096 -1.5782 -0.2076  0.3392
 8456SOL    HW226268   0.921   4.238   2.006 -1.1104  1.5282 -1.5219
 8457SOL     OW26269   6.047   6.857   6.318  0.0274 -0.0572  0.1353
 8457SOL    HW126270   5.956   6.843   6.278 -0.5252  0.1883  1.2761
 8457SOL    HW226271   6.110   6.790   6.279 -0.7221 -0.4848 -0.3861
 8458SOL     OW26272   0.559   3.427   0.271  0.1743  0.4837  0.1353
 8458SOL    HW126273   0.599   3.443   0.181  0.1599 -0.4417 -0.0512
 8458SOL    HW226274   0.460   3.443   0.266 -0.3124 -2.1697 -0.7740
 8459SOL     OW26275   5.083   1.294   0.122 -0.4039  0.5759  0.2222
 8459SOL    HW126276   5.000   1.351   0.120  0.0206  1.2741 -3.0579
 8459SOL    HW226277   5.163   1.353   0.133 -0.2062  0.0949  1.4668
 8460SOL     OW26278   3.537   5.625   4.354  0.0710  0.0234  0.3080
 8460SOL    HW126279   3.615   5.655   4.409 -0.2404  1.5950 -0.0582
 8460SOL    HW226280   3.571   5.578   4.272  0.6584  1.0218 -0.0343
 8461SOL     OW26281   0.817   6.602   3.352  0.2534 -0.1579  0.2812
 8461SOL    HW126282   0.802   6.526   3.288  0.6258 -0.3926  0.4687
 8461SOL    HW226283   0.874   6.671   3.307 -1.4255  0.7850 -0.4689
 8462SOL     OW26284   6.307   1.568   2.695  0.5485 -0.5904  0.3021
 8462SOL    HW126285   6.244   1.492   2.682  1.6464 -1.2695 -1.4570
 8462SOL    HW226286   6.293   1.635   2.622  1.0101 -0.1423  0.6184
 8463SOL     OW26287   3.401   0.818   5.117  0.3431 -0.0591 -0.2160
 8463SOL    HW126288   3.335   0.890   5.095  1.3671  1.8315  2.3999
 8463SOL    HW226289   3.352   0.733   5.136 -1.1480  0.6832 -0.5402
 8464SOL     OW26290   2.441   2.995   6.717 -0.0256 -0.0391  0.2590
 8464SOL    HW126291   2.477   3.026   6.804  0.8751  0.8285 -0.4035
 8464SOL    HW226292   2.449   2.896   6.710  2.2044  0.1114  0.1667
 8465SOL     OW26293   1.723   0.476   3.289  0.3259  0.4406 -0.1076
 8465SOL    HW126294   1.644   0.494   3.232  1.2824 -2.4485 -2.6401
 8465SOL    HW226295   1.791   0.548   3.277  0.7321 -0.3311 -3.2949
 8466SOL     OW26296   2.030   1.107   4.059  0.2496 -0.8711  0.0364
 8466SOL    HW126297   1.982   1.161   4.128  2.5946  0.1843  0.9695
 8466SOL    HW226298   1.974   1.099   3.977 -1.6941 -0.2330  1.2527
 8467SOL     OW26299   1.409   1.936   2.888 -0.1698  0.1924  0.3503
 8467SOL    HW126300   1.311   1.930   2.866  0.0782  0.1961 -0.8169
 8467SOL    HW226301   1.453   2.000   2.825  0.9619 -1.3688 -0.4878
 8468SOL     OW26302   1.633   6.748   4.104  0.3214  0.2189 -0.1396
 8468SOL    HW126303   1.597   6.835   4.137  1.0886  1.9141 -3.4081
 8468SOL    HW226304   1.577   6.715   4.028  1.5001 -0.8644 -0.5729
 8469SOL     OW26305   3.206   3.675   2.160 -0.1432 -0.3258  0.3732
 8469SOL    HW126306   3.222   3.773   2.156  0.1406 -0.2568  2.2848
 8469SOL    HW226307   3.108   3.657   2.160 -0.2286 -0.2034 -1.8734
 8470SOL     OW26308   6.574   6.554   4.573 -0.3604  0.1853  0.4919
 8470SOL    HW126309   6.606   6.649   4.581  1.6240 -0.2965 -0.7619
 8470SOL    HW226310   6.584   6.524   4.478  2.3282 -2.2781  1.3907
 8471SOL     OW26311   3.208   0.521   1.210 -0.0559  0.0097  0.1941
 8471SOL    HW126312   3.249   0.548   1.298 -1.4352  1.1850  0.5020
 8471SOL    HW226313   3.109   0.519   1.219 -0.1511 -2.4753 -0.6301
 8472SOL     OW26314   6.713   0.283   6.328 -0.1265  0.4719  0.5082
 8472SOL    HW126315   6.723   0.374   6.286 -0.8730  0.2181 -0.2572
 8472SOL    HW226316   6.768   0.217   6.277 -1.0116  0.1679 -0.0771
 8473SOL     OW26317   2.940   5.142   5.842 -0.7213 -0.1877  0.0902
 8473SOL    HW126318   2.945   5.052   5.799  0.2635  0.3760 -1.0585
 8473SOL    HW226319   2.849   5.180   5.831 -0.8254 -0.5782 -0.4361
 8474SOL     OW26320   6.081   5.229   1.538  0.5691  0.0974  0.4586
 8474SOL    HW126321   6.021   5.309   1.535 -0.5468 -0.7122  0.3851
 8474SOL    HW226322   6.175   5.256   1.516  0.2841  1.4387  0.8290
 8475SOL     OW26323   5.757   5.552   1.196  0.2943 -0.1503 -0.5377
 8475SOL    HW126324   5.703   5.632   1.220 -0.8672 -1.2666  0.7280
 8475SOL    HW226325   5.705   5.493   1.135  0.7308 -0.4682 -0.6081
 8476SOL     OW26326   4.900   3.481   5.772  0.1558 -0.0497  0.4618
 8476SOL    HW126327   4.983   3.435   5.803  0.0449 -0.3766  0.2761
 8476SOL    HW226328   4.831   3.413   5.747  0.8590  0.1244 -2.2471
 8477SOL     OW26329   0.783   2.624   6.571 -0.1666 -0.4149  0.4491
 8477SOL    HW126330   0.793   2.561   6.647 -1.0112  0.0927  0.9938
 8477SOL    HW226331   0.689   2.622   6.537 -0.5056  1.3077  1.1664
 8478SOL     OW26332   6.084   1.003   0.661 -0.2011 -1.0150 -0.3167
 8478SOL    HW126333   6.012   1.068   0.637  0.4828 -0.9430 -2.4106
 8478SOL    HW226334   6.122   0.963   0.577  1.9579 -1.3076  0.7268
 8479SOL     OW26335   2.773   4.743   4.392  0.5902  0.0413  0.2597
 8479SOL    HW126336   2.848   4.782   4.339  1.4136 -1.0524  0.5794
 8479SOL    HW226337   2.786   4.764   4.489  1.6789 -1.9048  0.5901
 8480SOL     OW26338   1.739   0.192   1.860 -0.0841 -0.5945 -0.6515
 8480SOL    HW126339   1.799   0.143   1.924  0.1335  0.0181 -0.3766
 8480SOL    HW226340   1.660   0.136   1.839 -0.6476 -0.4440  0.9064
 8481SOL     OW26341   1.251   3.659   3.119  0.3768 -0.4911  0.1225
 8481SOL    HW126342   1.306   3.576   3.116  0.0713 -0.6793 -0.4118
 8481SOL    HW226343   1.211   3.676   3.029 -0.8924 -0.6680  0.6340
 8482SOL     OW26344   6.584   6.110   0.736 -0.0793 -0.3053  0.5510
 8482SOL    HW126345   6.612   6.144   0.826 -0.3978 -0.9277  0.8939
 8482SOL    HW226346   6.664   6.079   0.685  0.0077 -0.8277  0.9963
 8483SOL     OW26347   0.897   0.935   3.679  0.0995  0.1476 -0.3219
 8483SOL    HW126348   0.806   0.907   3.712  0.7803 -1.1016  0.6127
 8483SOL    HW226349   0.914   0.895   3.589  0.9768 -2.4757  0.9114
 8484SOL     OW26350   2.168   3.036   5.149 -0.8591 -0.0267  0.2509
 8484SOL    HW126351   2.261   3.011   5.124 -1.0497  0.8501 -1.4692
 8484SOL    HW226352   2.148   3.003   5.242  0.3919 -2.1672 -0.1693
 8485SOL     OW26353   1.063   3.487   6.850  0.1285  0.3570 -0.3955
 8485SOL    HW126354   1.133   3.556   6.834  0.6289  0.3353  1.4784
 8485SOL    HW226355   0.977   3.531   6.877  0.2606  0.2692  0.1667
 8486SOL     OW26356   4.457   2.500   5.904 -0.1999 -0.0409 -0.1772
 8486SOL    HW126357   4.466   2.546   5.815 -1.0899  0.7261  0.1202
 8486SOL    HW226358   4.394   2.550   5.962  0.0833 -0.7425  0.7732
 8487SOL     OW26359   6.812   3.399   4.625 -0.2881  0.0086 -0.1616
 8487SOL    HW126360   6.866   3.477   4.593 -1.0396  0.9581  0.7914
 8487SOL    HW226361   6.776   3.419   4.716  1.1831 -2.3024  1.0237
 8488SOL     OW26362   5.391   6.683   6.051 -0.3208 -0.5886  0.4665
 8488SOL    HW126363   5.312   6.735   6.083 -0.5783 -0.8763  0.3054
 8488SOL    HW226364   5.361   6.613   5.987  0.2275  0.3206 -0.8553
 8489SOL     OW26365   4.735   0.016   0.150  0.0531  0.4126 -0.1815
 8489SOL    HW126366   4.705   0.085   0.084 -1.1648  0.7068  0.6517
 8489SOL    HW226367   4.729  -0.075   0.109  0.6064  0.6928 -0.9155
 8490SOL     OW26368   1.656   6.260   2.724  0.2167 -0.4253  0.0818
 8490SOL    HW126369   1.574   6.246   2.669 -0.0858 -1.0396  0.6670
 8490SOL    HW226370   1.677   6.357   2.728 -0.0536 -0.3323 -0.6851
 8491SOL     OW26371   1.096   1.939   2.794  0.2271  0.2640 -0.5305
 8491SOL    HW126372   1.131   1.856   2.751  0.8372  0.5836 -0.6703
 8491SOL    HW226373   1.076   2.007   2.723  0.4508  0.4993 -0.3728
 8492SOL     OW26374   6.291   0.792   0.880  0.8536  0.2969 -0.0789
 8492SOL    HW126375   6.209   0.786   0.822  0.7082  0.0817  0.1417
 8492SOL    HW226376   6.333   0.882   0.870  0.6579  0.3662 -0.2897
 8493SOL     OW26377   3.265   5.166   4.223 -0.0653 -0.3231  0.0517
 8493SOL    HW126378   3.308   5.155   4.313  1.0648  1.2857 -0.2590
 8493SOL    HW226379   3.305   5.101   4.159  1.7021  0.8704 -0.1281
 8494SOL     OW26380   3.333   6.365   0.795  0.5347  0.0378 -0.2908
 8494SOL    HW126381   3.317   6.345   0.892  1.8788  1.1921  0.2030
 8494SOL    HW226382   3.344   6.279   0.745 -0.7524 -0.5820  0.4638
 8495SOL     OW26383   4.974   1.249   1.981 -0.5286  0.7103  0.5652
 8495SOL    HW126384   4.929   1.184   2.042 -1.0085  0.9186  0.4381
 8495SOL    HW226385   4.943   1.233   1.887 -0.0087  0.5756  0.4130
 8496SOL     OW26386   1.359   3.253   6.837 -0.7973  0.1906 -0.0358
 8496SOL    HW126387   1.295   3.177   6.850 -1.8786  1.1924  0.6609
 8496SOL    HW226388   1.448   3.216   6.808 -1.9118 -1.1758 -1.9789
 8497SOL     OW26389   6.961   3.790   6.451  0.0358  0.4735 -0.1749
 8497SOL    HW126390   6.951   3.890   6.453  0.7564  0.5551 -0.7769
 8497SOL    HW226391   6.904   3.752   6.378 -1.5797  0.2721  1.1260
 8498SOL     OW26392   2.580   1.936   4.773  0.2110 -0.4892  0.3621
 8498SOL    HW126393   2.616   1.952   4.864 -0.4971  0.5455  0.4818
 8498SOL    HW226394   2.610   2.010   4.712  1.0362 -1.3918 -0.3663
 8499SOL     OW26395   4.934   4.947   6.832 -0.2049 -0.4065  0.0075
 8499SOL    HW126396   4.887   5.022   6.878 -1.5228 -0.4700 -1.1349
 8499SOL    HW226397   4.886   4.927   6.746  1.8650 -0.5858 -1.1559
 8500SOL     OW26398   0.345   1.423   0.494 -0.3145  0.3974 -0.3122
 8500SOL    HW126399   0.279   1.496   0.510 -0.6424  0.0611 -0.1273
 8500SOL    HW226400   0.306   1.356   0.430  0.3668  0.8947 -1.2785
 8501SOL     OW26401   1.307   1.581   0.434  0.1617  0.5697 -0.0310
 8501SOL    HW126402   1.338   1.667   0.474  1.4795  0.2738 -0.3671
 8501SOL    HW226403   1.383   1.536   0.387 -0.7697 -0.2415 -0.8337
 8502SOL     OW26404   1.109   4.178   6.627  1.1969  0.4618  0.3323
 8502SOL    HW126405   1.054   4.248   6.582 -1.1952 -0.6301  1.3715
 8502SOL    HW226406   1.162   4.219   6.702  1.7500  1.5133 -0.6046
 8503SOL     OW26407   5.253   1.757   5.801  0.1350 -0.9159 -0.6685
 8503SOL    HW126408   5.285   1.674   5.755  0.2854 -0.4522 -1.4319
 8503SOL    HW226409   5.323   1.789   5.865  0.1392 -1.2930 -0.4829
 8504SOL     OW26410   0.056   0.074   4.273 -0.2362 -0.0550 -0.2110
 8504SOL    HW126411   0.065  -0.010   4.326  0.4985  0.2104  0.0912
 8504SOL    HW226412   0.136   0.132   4.288 -0.3530  0.3376 -1.0565
 8505SOL     OW26413   6.862   5.380   0.514  0.1861 -0.7704  0.2878
 8505SOL    HW126414   6.777   5.422   0.483 -0.2103 -1.2115  0.7537
 8505SOL    HW226415   6.922   5.450   0.552  0.4190 -0.3185 -0.8796
 8506SOL     OW26416   0.621   2.898   3.362  0.2814 -0.1287  0.2200
 8506SOL    HW126417   0.703   2.851   3.331  0.2301  0.3765 -0.6904
 8506SOL    HW226418   0.573   2.937   3.284  0.6381  1.9805  0.9972
 8507SOL     OW26419   4.342   3.990   6.577 -0.1285  0.2570 -0.7212
 8507SOL    HW126420   4.394   3.941   6.507  0.2373  1.2133 -1.1427
 8507SOL    HW226421   4.276   3.928   6.619  0.5719 -0.6825 -0.9721
 8508SOL     OW26422   3.259   0.688   6.574  0.1888  0.7338  0.2559
 8508SOL    HW126423   3.307   0.658   6.491 -1.1281  0.1294 -0.3178
 8508SOL    HW226424   3.247   0.787   6.570  0.3529  0.7413 -0.1465
 8509SOL     OW26425   0.510   2.803   2.332 -0.1469  0.3763 -0.3269
 8509SOL    HW126426   0.494   2.706   2.345 -0.6527  0.4685 -0.2307
 8509SOL    HW226427   0.519   2.848   2.421 -0.0853  0.4435 -0.3666
 8510SOL     OW26428   4.787   2.831   2.180  0.6073  0.1166 -0.1648
 8510SOL    HW126429   4.783   2.754   2.118  1.7387 -1.0123  1.0975
 8510SOL    HW226430   4.739   2.909   2.140 -1.0338 -1.3776 -1.2413
 8511SOL     OW26431   1.640   0.698   0.547 -0.4054  0.3641 -0.2892
 8511SOL    HW126432   1.710   0.674   0.614 -1.3792  1.1561  1.0552
 8511SOL    HW226433   1.656   0.646   0.463  0.3743 -1.2759  0.8087
 8512SOL     OW26434   0.231   6.279   2.222 -0.5674 -0.2099  0.0334
 8512SOL    HW126435   0.224   6.218   2.143 -1.1174 -1.0924  0.7472
 8512SOL    HW226436   0.142   6.322   2.238  0.0167  1.4348 -0.9554
 8513SOL     OW26437   5.532   5.459   4.920  0.1967  0.2210  0.2142
 8513SOL    HW126438   5.562   5.543   4.874 -0.0926  0.2106  0.0074
 8513SOL    HW226439   5.481   5.483   5.002 -1.0390  0.2762 -0.5496
 8514SOL     OW26440   4.472   5.993   5.276 -0.3833 -0.0802  0.7309
 8514SOL    HW126441   4.453   6.068   5.339 -1.6227  1.1130 -0.9488
 8514SOL    HW226442   4.563   5.957   5.293 -0.8407 -0.1209  3.4393
 8515SOL     OW26443   4.016   6.132   6.855  0.7974 -0.0469  0.2366
 8515SOL    HW126444   4.086   6.202   6.862 -0.1281  0.7869  1.5286
 8515SOL    HW226445   3.977   6.113   6.945 -0.8571 -0.2396 -0.4685
 8516SOL     OW26446   6.580   3.120   5.040  0.1474 -0.1738  0.0870
 8516SOL    HW126447   6.670   3.082   5.024 -0.1429 -0.1547 -1.8366
 8516SOL    HW226448   6.511   3.064   4.994 -0.6853  0.5081  0.4662
 8517SOL     OW26449   3.818   0.548   6.000  0.1451  0.3448 -0.0340
 8517SOL    HW126450   3.735   0.603   6.010 -0.7626 -1.3106  2.3626
 8517SOL    HW226451   3.794   0.457   5.969  0.8549 -0.5661  1.9401
 8518SOL     OW26452   4.824   2.665   0.710  0.6039  0.8639  0.2088
 8518SOL    HW126453   4.794   2.742   0.654  1.0699  0.9428  0.0642
 8518SOL    HW226454   4.746   2.629   0.762 -0.2749 -0.3235 -1.7933
 8519SOL     OW26455   3.386   5.503   3.962  0.2791  0.7595  0.6879
 8519SOL    HW126456   3.304   5.490   4.018  1.2385 -0.3666  1.8877
 8519SOL    HW226457   3.360   5.506   3.865 -1.0926 -0.5358  0.9799
 8520SOL     OW26458   6.012   1.831   0.454 -0.1240 -0.5100  0.4193
 8520SOL    HW126459   6.054   1.921   0.448 -0.0585 -0.5424  0.3817
 8520SOL    HW226460   6.014   1.787   0.364 -2.3156  0.4011 -0.1346
 8521SOL     OW26461   3.085   6.737   1.479  0.1545  0.5494 -0.7197
 8521SOL    HW126462   3.111   6.645   1.511  1.0539  0.3827 -1.8533
 8521SOL    HW226463   3.029   6.729   1.397  1.0899  1.0038 -1.4246
 8522SOL     OW26464   5.400   1.246   5.629  0.4283  0.7117  0.1204
 8522SOL    HW126465   5.448   1.191   5.561  0.1308  3.7358 -2.8018
 8522SOL    HW226466   5.466   1.304   5.677  0.1963  1.9880 -1.0489
 8523SOL     OW26467   3.771   0.532   3.826  0.0497  0.0092 -0.4585
 8523SOL    HW126468   3.827   0.579   3.894 -3.5551  1.4037  1.7929
 8523SOL    HW226469   3.798   0.563   3.734  1.9066  1.7112  0.5748
 8524SOL     OW26470   1.618   5.692   5.140  0.0098  0.1752  0.4011
 8524SOL    HW126471   1.576   5.643   5.064  1.6190 -1.6595  0.6320
 8524SOL    HW226472   1.690   5.752   5.106 -0.7044  1.0017  0.3049
 8525SOL     OW26473   6.124   4.417   1.819 -0.1365  0.0070  0.5051
 8525SOL    HW126474   6.121   4.514   1.795 -2.1172 -0.1575 -0.0933
 8525SOL    HW226475   6.209   4.376   1.785  0.3082  1.3235 -0.0222
 8526SOL     OW26476   0.882   5.981   2.526 -0.0616 -0.5202 -0.2884
 8526SOL    HW126477   0.974   6.005   2.495  0.5135 -0.2745  1.5082
 8526SOL    HW226478   0.830   6.064   2.543 -0.5639 -0.6588 -1.1189
 8527SOL     OW26479   6.271   5.322   3.006 -0.4985 -0.6555  0.2897
 8527SOL    HW126480   6.200   5.324   3.076 -1.0185 -0.2866 -0.2308
 8527SOL    HW226481   6.354   5.366   3.040  0.2951 -3.0701  1.7234
 8528SOL     OW26482   5.172   4.910   4.650  0.2367 -0.2262  0.1510
 8528SOL    HW126483   5.074   4.919   4.664  0.0526  0.4138 -1.3335
 8528SOL    HW226484   5.193   4.821   4.610  0.0909  0.1142 -0.7125
 8529SOL     OW26485   6.634   0.049   4.793  0.0815  0.2258  0.4991
 8529SOL    HW126486   6.634  -0.040   4.746 -1.8928  0.7397 -0.5886
 8529SOL    HW226487   6.661   0.035   4.888  0.8271 -1.3804  0.0981
 8530SOL     OW26488   2.451   0.679   3.901  0.1749  0.5669 -0.5852
 8530SOL    HW126489   2.521   0.619   3.938 -1.9312 -0.9250  1.2822
 8530SOL    HW226490   2.398   0.719   3.976 -0.3915  2.4321 -1.8967
 8531SOL     OW26491   1.429   2.056   0.385  0.2717  0.2938  0.2981
 8531SOL    HW126492   1.426   2.092   0.292 -0.2674 -2.0892 -0.6900
 8531SOL    HW226493   1.469   1.964   0.383  0.5746  0.3321  2.4907
 8532SOL     OW26494   6.014   3.025   3.144  0.1998 -0.2846 -0.2756
 8532SOL    HW126495   5.982   2.997   3.054  1.1759 -2.4091 -0.0281
 8532SOL    HW226496   6.002   2.949   3.209 -0.8011  1.3045  1.4924
 8533SOL     OW26497   1.548   4.628   6.260  1.2276  0.4013  0.6036
 8533SOL    HW126498   1.599   4.667   6.183 -1.0479 -0.9099 -1.7271
 8533SOL    HW226499   1.598   4.645   6.345  3.4631  2.6610 -1.0090
 8534SOL     OW26500   2.076   2.597   0.712 -0.0410 -0.6395  0.1512
 8534SOL    HW126501   2.158   2.651   0.691 -0.8774 -0.3110 -2.6260
 8534SOL    HW226502   2.086   2.505   0.673 -0.3860 -1.1264  1.1689
 8535SOL     OW26503   3.763   3.822   6.742 -0.1052  0.1945 -0.4207
 8535SOL    HW126504   3.852   3.799   6.703  0.6226  1.3855  0.4733
 8535SOL    HW226505   3.761   3.795   6.838  0.3665  2.6868  0.3454
 8536SOL     OW26506   5.624   6.571   2.773 -0.3106 -0.3207  0.8384
 8536SOL    HW126507   5.624   6.638   2.699  2.3028  0.7345  1.6970
 8536SOL    HW226508   5.545   6.510   2.762 -0.4622  0.2722 -2.3197
 8537SOL     OW26509   5.231   5.013   6.791 -0.0874  0.3099 -0.3879
 8537SOL    HW126510   5.135   4.983   6.789 -0.0822  0.3360 -0.9876
 8537SOL    HW226511   5.237   5.109   6.767  0.0591  0.3948 -0.0172
 8538SOL     OW26512   2.590   0.988   2.836 -0.4640 -0.0748  0.3446
 8538SOL    HW126513   2.494   1.017   2.832 -0.9624 -1.7989 -1.3100
 8538SOL    HW226514   2.596   0.889   2.826  1.4957 -0.0311  0.6735
 8539SOL     OW26515   4.799   6.789   1.460 -0.0791  0.2164  0.4728
 8539SOL    HW126516   4.896   6.763   1.458  0.3209  1.4534  2.1001
 8539SOL    HW226517   4.776   6.825   1.550 -2.4101 -1.2659  0.5438
 8540SOL     OW26518   5.990   6.553   3.584  0.4943  0.7055  0.8733
 8540SOL    HW126519   5.901   6.533   3.543  0.8868  0.6365  0.0256
 8540SOL    HW226520   6.040   6.468   3.597  1.8042  0.9208 -1.9009
 8541SOL     OW26521   4.053   5.677   5.767  0.1860 -0.0313  0.5674
 8541SOL    HW126522   4.022   5.653   5.859 -1.3488  0.1899  0.1385
 8541SOL    HW226523   4.086   5.772   5.768 -1.0145  0.4044  0.6467
 8542SOL     OW26524   3.613   6.710   3.549 -0.2234  0.1290  0.3755
 8542SOL    HW126525   3.665   6.696   3.464 -0.5242 -1.8245  0.4542
 8542SOL    HW226526   3.601   6.808   3.565 -0.3774  0.5527 -1.9593
 8543SOL     OW26527   5.211   0.123   1.860 -0.2856  0.2666 -0.4699
 8543SOL    HW126528   5.238   0.028   1.848  3.0721  0.5508  2.9298
 8543SOL    HW226529   5.246   0.178   1.784 -1.4404 -1.0122 -1.9695
 8544SOL     OW26530   5.281   5.766   6.194 -0.0341  0.0774 -0.5106
 8544SOL    HW126531   5.287   5.668   6.211  1.2663  0.0605 -0.9351
 8544SOL    HW226532   5.261   5.814   6.279  0.1968 -0.4865 -0.1367
 8545SOL     OW26533   1.968   5.610   6.019 -0.3059 -0.0186  0.1393
 8545SOL    HW126534   1.879   5.604   6.065 -0.4373 -1.8313 -0.2819
 8545SOL    HW226535   1.958   5.580   5.924  0.9852 -1.6452  0.4638
 8546SOL     OW26536   0.945   4.988   4.758 -0.2873 -0.1504 -0.0945
 8546SOL    HW126537   0.966   4.908   4.703 -0.2393 -2.3583  2.9063
 8546SOL    HW226538   0.846   4.997   4.769 -0.3520  0.8872 -1.2586
 8547SOL     OW26539   6.859   5.558   2.644  0.3664  0.0711  0.8903
 8547SOL    HW126540   6.809   5.473   2.626 -0.4572  0.6635  0.2975
 8547SOL    HW226541   6.956   5.538   2.654  0.0615 -1.0762  1.8268
 8548SOL     OW26542   2.012   5.724   6.682  0.0094 -0.1850 -0.4593
 8548SOL    HW126543   1.956   5.807   6.694 -0.0315 -0.2383 -0.2792
 8548SOL    HW226544   2.105   5.743   6.713 -0.1792 -0.4245  0.2894
 8549SOL     OW26545   5.395   6.971   3.779 -0.7663  0.4363  0.4585
 8549SOL    HW126546   5.395   7.061   3.822 -2.1641 -0.0970  1.6240
 8549SOL    HW226547   5.310   6.958   3.728 -0.9425 -0.5397  0.9873
 8550SOL     OW26548   2.757   2.314   3.511 -0.0377  0.0747 -0.4514
 8550SOL    HW126549   2.843   2.364   3.525  0.8019 -1.8585  2.1187
 8550SOL    HW226550   2.768   2.220   3.543 -3.3233 -0.0492  0.6686
 8551SOL     OW26551   6.079   1.823   4.529  0.4001  0.2024 -0.1045
 8551SOL    HW126552   6.001   1.765   4.553  0.8726 -0.3640  0.0932
 8551SOL    HW226553   6.130   1.847   4.611  0.3181  0.7472 -0.2085
 8552SOL     OW26554   5.938   4.434   2.452 -0.1551  0.5943 -0.0398
 8552SOL    HW126555   6.022   4.380   2.444 -1.0014 -0.8648  0.7077
 8552SOL    HW226556   5.930   4.469   2.545 -1.2289 -0.7308  0.3858
 8553SOL     OW26557   5.240   1.462   5.543 -0.4737  0.2286  0.1196
 8553SOL    HW126558   5.296   1.393   5.589  0.0168  0.9498  0.6298
 8553SOL    HW226559   5.299   1.523   5.490 -1.0007 -0.3615 -1.1851
 8554SOL     OW26560   6.366   7.001   5.839  0.4621 -0.3693 -0.4331
 8554SOL    HW126561   6.458   6.964   5.853  1.0000  1.1073  0.0850
 8554SOL    HW226562   6.368   7.100   5.849 -0.9911 -0.1982 -1.5533
 8555SOL     OW26563   5.394   2.793   0.197  0.5409 -0.0327  0.1738
 8555SOL    HW126564   5.366   2.820   0.288 -0.1477  1.6121 -0.4960
 8555SOL    HW226565   5.490   2.764   0.199  0.1473 -1.3600  1.6373
 8556SOL     OW26566   4.462   4.046   6.895 -0.2842 -0.1000 -0.1760
 8556SOL    HW126567   4.487   4.063   6.800  1.2453  1.6062  0.4573
 8556SOL    HW226568   4.494   3.955   6.922 -1.2291 -0.8298 -1.4144
 8557SOL     OW26569   5.012   2.830   7.002  0.4458  0.5887  0.0656
 8557SOL    HW126570   4.976   2.862   6.914  0.1579  0.6483  0.2064
 8557SOL    HW226571   4.936   2.806   7.062  0.6474  0.3350  0.2200
 8558SOL     OW26572   0.871   6.113   6.434  0.0067 -0.0839  0.2342
 8558SOL    HW126573   0.924   6.087   6.354  0.1368  1.2442 -0.1353
 8558SOL    HW226574   0.813   6.037   6.463  0.4082 -0.7722 -0.7533
 8559SOL     OW26575   6.439   3.248   0.999  0.1717  0.2145  0.1735
 8559SOL    HW126576   6.438   3.160   0.950  1.6079  0.0436  0.4026
 8559SOL    HW226577   6.349   3.291   0.992 -0.8608 -1.7059  0.8506
 8560SOL     OW26578   0.417   5.040   6.765  0.0825 -0.6071 -0.4510
 8560SOL    HW126579   0.326   5.024   6.804 -0.3722  0.3784 -1.0519
 8560SOL    HW226580   0.453   4.955   6.727 -0.0585 -1.2699  0.8659
 8561SOL     OW26581   6.335   5.196   4.599 -0.0521  0.1279 -0.2514
 8561SOL    HW126582   6.337   5.229   4.694  1.2741 -0.2869 -0.1161
 8561SOL    HW226583   6.428   5.184   4.566 -0.5045 -0.3228 -1.4174
 8562SOL     OW26584   0.365   3.139   5.578  0.0339 -0.0010  0.3375
 8562SOL    HW126585   0.458   3.135   5.540 -0.8132 -1.3664 -1.8202
 8562SOL    HW226586   0.353   3.064   5.643  0.0142 -0.7268 -0.4905
 8563SOL     OW26587   2.897   0.384   1.941  0.2476  0.5540 -0.1434
 8563SOL    HW126588   2.809   0.360   1.980 -0.8429  2.2942 -1.3448
 8563SOL    HW226589   2.911   0.334   1.855  0.5275  0.1481  0.1344
 8564SOL     OW26590   3.142   5.774   2.229 -0.4982  0.3565 -0.1533
 8564SOL    HW126591   3.108   5.852   2.177  0.0572  0.3742 -0.4984
 8564SOL    HW226592   3.240   5.762   2.211 -0.6399 -0.5974 -0.3286
 8565SOL     OW26593   5.899   0.467   1.278  0.0605  0.4295 -0.4315
 8565SOL    HW126594   5.984   0.422   1.249  0.3619  2.1111 -2.3941
 8565SOL    HW226595   5.922   0.550   1.330 -0.3442  1.0694 -1.2542
 8566SOL     OW26596   6.251   1.090   2.424  0.1571  0.1202  0.5150
 8566SOL    HW126597   6.246   1.079   2.523 -0.4267 -1.3033  0.3557
 8566SOL    HW226598   6.267   1.186   2.401 -0.8067  0.6538  1.9522
 8567SOL     OW26599   3.930   6.676   4.467  0.6105 -0.1748  0.4539
 8567SOL    HW126600   3.907   6.670   4.564 -0.3798  0.0466  0.2389
 8567SOL    HW226601   3.974   6.764   4.448  0.3752 -0.0219  0.6161
 8568SOL     OW26602   5.379   0.019   1.396  0.1248  0.0425 -0.7550
 8568SOL    HW126603   5.388  -0.064   1.341 -0.5527 -1.0055  0.6722
 8568SOL    HW226604   5.469   0.064   1.403  0.7234 -1.1360 -0.6507
 8569SOL     OW26605   2.713   6.916   3.081 -0.2857  0.1289 -0.2447
 8569SOL    HW126606   2.786   6.965   3.033 -0.2779 -0.9434 -1.3893
 8569SOL    HW226607   2.752   6.860   3.153  0.1222 -0.8623 -1.2033
 8570SOL     OW26608   1.840   0.267   0.444  0.5445  0.2236  0.1261
 8570SOL    HW126609   1.915   0.298   0.501  0.2740  1.0750  0.0309
 8570SOL    HW226610   1.844   0.313   0.355 -0.1340  0.3415  0.1506
 8571SOL     OW26611   2.278   0.738   4.080  0.0451 -0.2350  0.3289
 8571SOL    HW126612   2.279   0.816   4.144 -0.8243  0.1325 -0.0950
 8571SOL    HW226613   2.184   0.712   4.061  0.3277 -1.4747  0.5427
 8572SOL     OW26614   6.019   5.760   1.453  0.0815  0.3487  0.2614
 8572SOL    HW126615   6.082   5.702   1.504 -2.9555 -3.4605  0.1406
 8572SOL    HW226616   6.011   5.726   1.359 -0.0921  2.5495 -0.5923
 8573SOL     OW26617   3.188   6.507   2.966  0.8686  0.2336  0.4009
 8573SOL    HW126618   3.157   6.507   3.062  0.1690  2.0803  0.2308
 8573SOL    HW226619   3.108   6.504   2.906  1.2973 -0.6639 -0.1348
 8574SOL     OW26620   5.685   3.090   4.435  0.0975  0.0732  0.2990
 8574SOL    HW126621   5.662   3.184   4.462  2.0209  1.0579 -1.2346
 8574SOL    HW226622   5.774   3.065   4.473  0.8245 -0.1180 -1.4451
 8575SOL     OW26623   6.571   6.572   0.536  0.0562  0.0350 -0.5039
 8575SOL    HW126624   6.624   6.489   0.520  2.6604  1.3076  0.8939
 8575SOL    HW226625   6.517   6.561   0.620 -0.7515 -0.7200 -1.1030
 8576SOL     OW26626   1.399   3.515   4.144  0.0943  0.2928 -0.6867
 8576SOL    HW126627   1.443   3.431   4.176  2.2923  1.9908  1.0758
 8576SOL    HW226628   1.302   3.512   4.169  0.2379 -1.4704 -0.1466
 8577SOL     OW26629   4.681   3.805   6.072 -0.2224  0.4784  0.4478
 8577SOL    HW126630   4.670   3.719   6.022  3.2143  1.1078 -1.7556
 8577SOL    HW226631   4.673   3.882   6.008  1.2190  1.5183  1.4545
 8578SOL     OW26632   2.283   3.804   5.554  0.0894  0.1526 -0.6251
 8578SOL    HW126633   2.345   3.773   5.481  2.2754  1.4113  0.6219
 8578SOL    HW226634   2.216   3.867   5.515  0.5479 -0.0080 -1.7253
 8579SOL     OW26635   4.254   6.822   0.941  0.5193  0.5776 -0.5973
 8579SOL    HW126636   4.172   6.781   0.981  0.1324  0.8518 -1.0882
 8579SOL    HW226637   4.317   6.849   1.013  1.4897 -2.2507 -0.2802
 8580SOL     OW26638   2.459   6.545   2.352 -0.4878  0.0679 -0.1281
 8580SOL    HW126639   2.390   6.559   2.281 -0.4263 -0.4217 -0.2836
 8580SOL    HW226640   2.426   6.585   2.438 -0.5515  0.6839 -0.4293
 8581SOL     OW26641   5.049   0.617   3.570  0.5523  0.1629  0.1832
 8581SOL    HW126642   5.123   0.655   3.514 -0.1740  1.6660  0.2077
 8581SOL    HW226643   4.984   0.570   3.510 -0.3227  1.9257 -0.3186
 8582SOL     OW26644   1.544   4.360   6.289  0.2448 -0.3575  0.2516
 8582SOL    HW126645   1.598   4.330   6.367 -2.1940  0.5109  2.4056
 8582SOL    HW226646   1.537   4.460   6.290 -0.6499 -0.4017 -0.4815
 8583SOL     OW26647   6.709   6.967   6.919  0.1293  0.5183  0.5366
 8583SOL    HW126648   6.708   6.982   7.018  2.1431 -2.4204  1.1654
 8583SOL    HW226649   6.768   7.035   6.875 -0.0388  1.2946  1.4864
 8584SOL     OW26650   5.946   2.762   4.426  0.0450 -0.0386 -0.5160
 8584SOL    HW126651   6.021   2.769   4.360 -0.5812 -0.6879 -1.3271
 8584SOL    HW226652   5.963   2.686   4.489  0.0901 -0.1666 -0.6820
 8585SOL     OW26653   0.033   4.748   4.566 -0.6327  1.1301  0.1672
 8585SOL    HW126654   0.078   4.660   4.553  0.5627  1.5092  1.4651
 8585SOL    HW226655  -0.006   4.779   4.479  1.4233  0.6671 -0.9818
 8586SOL     OW26656   5.526   0.827   0.676 -0.3574 -0.2358 -0.1462
 8586SOL    HW126657   5.599   0.867   0.731 -1.0900  1.6067 -0.4581
 8586SOL    HW226658   5.487   0.896   0.616 -0.2570 -1.9515 -2.3015
 8587SOL     OW26659   0.862   5.476   0.781  0.4921  0.4870  0.3032
 8587SOL    HW126660   0.960   5.483   0.797  0.3675  2.7504  0.2951
 8587SOL    HW226661   0.820   5.422   0.854  1.4671  1.2877  1.4809
 8588SOL     OW26662   1.604   1.992   3.823  0.3899  0.5129  0.1364
 8588SOL    HW126663   1.576   1.945   3.908  2.5096 -3.2615 -1.0171
 8588SOL    HW226664   1.530   2.053   3.794 -1.1357  0.6825  3.7190
 8589SOL     OW26665   3.436   3.520   0.231 -0.2983  0.0242 -0.2254
 8589SOL    HW126666   3.463   3.424   0.230  0.1270  0.1498 -1.0834
 8589SOL    HW226667   3.419   3.552   0.138  1.5820  1.3420 -0.1603
 8590SOL     OW26668   6.684   5.219   0.916 -0.0813  0.2747 -0.1897
 8590SOL    HW126669   6.662   5.170   0.831  0.2524 -2.0786  1.0040
 8590SOL    HW226670   6.776   5.256   0.909  0.9395 -2.0322 -0.0271
 8591SOL     OW26671   0.620   5.263   2.883  0.1604 -0.2016 -0.4161
 8591SOL    HW126672   0.525   5.250   2.911  0.8115 -1.9754  1.2367
 8591SOL    HW226673   0.680   5.239   2.959  1.9535  0.1561 -1.6627
 8592SOL     OW26674   5.087   6.644   3.217 -0.0641 -0.8886 -0.6482
 8592SOL    HW126675   5.020   6.641   3.143  0.2628  0.6559 -1.0255
 8592SOL    HW226676   5.172   6.601   3.188  0.4467  0.6858 -1.6083
 8593SOL     OW26677   6.432   4.304   2.476  0.3696  0.6766  0.2714
 8593SOL    HW126678   6.482   4.234   2.426  1.9420  1.9194 -0.0004
 8593SOL    HW226679   6.385   4.365   2.412  0.0796  0.6395  0.4434
 8594SOL     OW26680   6.509   6.089   3.820 -0.1085  0.5515 -0.0025
 8594SOL    HW126681   6.532   6.149   3.743 -0.0739 -0.3735 -0.7365
 8594SOL    HW226682   6.590   6.078   3.879 -0.0458  1.0250  0.0036
 8595SOL     OW26683   2.745   0.758   2.616 -0.0804  0.2047 -0.4287
 8595SOL    HW126684   2.735   0.836   2.555 -2.7656  1.1924  1.0717
 8595SOL    HW226685   2.735   0.788   2.711 -2.0786 -1.9797  0.1678
 8596SOL     OW26686   4.328   5.883   3.789 -0.2299  0.1932 -0.1756
 8596SOL    HW126687   4.347   5.864   3.692 -0.5952  0.9487 -0.4001
 8596SOL    HW226688   4.245   5.939   3.797 -0.2987 -0.0026  0.5861
 8597SOL     OW26689   4.516   2.477   2.881 -0.1878 -0.2673 -0.2808
 8597SOL    HW126690   4.449   2.457   2.952 -0.6116  0.9950 -0.2991
 8597SOL    HW226691   4.608   2.458   2.915 -0.5487 -4.2362 -0.9879
 8598SOL     OW26692   3.100   0.140   6.177 -0.1507  0.0587  0.3898
 8598SOL    HW126693   3.198   0.135   6.193  0.0226 -2.6242 -0.9633
 8598SOL    HW226694   3.071   0.061   6.123 -2.8836  1.3620 -0.2230
 8599SOL     OW26695   1.571   4.395   2.289 -0.2085 -0.0832  0.2431
 8599SOL    HW126696   1.503   4.464   2.264  1.0761  0.0434 -3.5634
 8599SOL    HW226697   1.565   4.318   2.225  2.7511 -0.3294  0.1260
 8600SOL     OW26698   0.214   3.947   4.696  0.8634 -0.4566 -0.5658
 8600SOL    HW126699   0.188   4.016   4.764  1.4439 -1.9204  1.2061
 8600SOL    HW226700   0.249   3.866   4.742 -0.4373 -2.2466 -2.5608
 8601SOL     OW26701   1.635   0.582   6.571  0.0373  0.3316  0.1220
 8601SOL    HW126702   1.646   0.516   6.496 -0.7710  1.9889 -1.5277
 8601SOL    HW226703   1.545   0.625   6.566  0.4060  1.3344  1.3632
 8602SOL     OW26704   4.620   6.786   1.714  0.2049 -0.2093  0.1545
 8602SOL    HW126705   4.642   6.879   1.745  0.1411 -0.8144  2.1088
 8602SOL    HW226706   4.527   6.785   1.677  0.2636  0.5289 -0.0415
 8603SOL     OW26707   3.996   4.565   5.365  0.2576  0.4926 -0.5518
 8603SOL    HW126708   3.954   4.477   5.343 -0.0606  0.4527  0.1893
 8603SOL    HW226709   4.090   4.550   5.395  0.9679  0.6153 -2.5752
 8604SOL     OW26710   2.633   2.780   6.613 -0.1522  0.4808  0.1363
 8604SOL    HW126711   2.578   2.706   6.577 -0.3718  0.0746  1.2661
 8604SOL    HW226712   2.635   2.856   6.547 -0.7888 -0.1007 -0.5671
 8605SOL     OW26713   2.257   5.765   0.266  0.2397 -0.2790  0.1717
 8605SOL    HW126714   2.297   5.826   0.334  0.1589 -1.5085  1.3774
 8605SOL    HW226715   2.296   5.673   0.277  0.7836 -0.3503 -1.9553
 8606SOL     OW26716   6.757   5.413   5.999 -0.6178 -0.0097  0.3882
 8606SOL    HW126717   6.795   5.395   6.089  0.0950 -1.5681 -0.1813
 8606SOL    HW226718   6.671   5.463   6.008 -1.9146 -2.3783  2.0923
 8607SOL     OW26719   5.068   2.695   0.841 -0.2244  0.5035 -0.4156
 8607SOL    HW126720   5.009   2.647   0.777 -0.9805 -0.2108  0.7673
 8607SOL    HW226721   5.044   2.792   0.841 -2.9438 -0.0330  1.5017
 8608SOL     OW26722   1.566   5.264   1.229 -0.1675  0.3168 -0.0429
 8608SOL    HW126723   1.613   5.191   1.179 -0.8456  0.3118 -0.6944
 8608SOL    HW226724   1.472   5.271   1.196  0.1549  2.1318 -0.7064
 8609SOL     OW26725   4.791   2.828   4.107  0.2438 -0.1032  0.4822
 8609SOL    HW126726   4.873   2.784   4.143 -0.2807  0.0697  1.9302
 8609SOL    HW226727   4.713   2.808   4.166 -0.2920  1.6260  0.4113
 8610SOL     OW26728   2.677   4.552   1.407  0.3008  0.3341 -0.3942
 8610SOL    HW126729   2.619   4.473   1.383 -1.3507  1.4925 -0.4064
 8610SOL    HW226730   2.694   4.552   1.506  0.6213 -0.2138 -0.4407
 8611SOL     OW26731   2.050   6.346   1.549 -0.4037  0.1935  0.6903
 8611SOL    HW126732   2.091   6.274   1.606 -0.9499 -0.0500  0.7827
 8611SOL    HW226733   2.113   6.423   1.543  0.0882 -0.1922  0.7916
 8612SOL     OW26734   2.106   1.315   3.311 -0.3512  0.1412  0.2309
 8612SOL    HW126735   2.113   1.399   3.257 -1.1990 -0.3431 -0.6599
 8612SOL    HW226736   2.159   1.326   3.395  1.3977  0.7574 -0.8816
 8613SOL     OW26737   2.281   5.135   6.542  0.2000 -0.4256  0.2562
 8613SOL    HW126738   2.372   5.095   6.557 -0.1794 -1.5842 -0.3666
 8613SOL    HW226739   2.271   5.157   6.445  0.3192  1.0335  0.5534
 8614SOL     OW26740   2.619   6.180   5.857 -0.0606  0.4248  0.2672
 8614SOL    HW126741   2.653   6.274   5.860  0.2816  0.3288 -0.4271
 8614SOL    HW226742   2.523   6.178   5.887 -0.8767  1.3964 -2.0416
 8615SOL     OW26743   2.937   6.388   2.868 -0.1741 -0.4089 -0.0860
 8615SOL    HW126744   2.928   6.393   2.769  0.9576 -1.7970 -0.2993
 8615SOL    HW226745   2.867   6.327   2.905 -0.2335 -0.3499 -0.1011
 8616SOL     OW26746   0.814   3.023   4.922 -0.1179  0.2873  0.8651
 8616SOL    HW126747   0.806   3.028   5.022 -1.3802  1.2909  0.7441
 8616SOL    HW226748   0.835   3.114   4.886  0.5727 -0.1155  0.2253
 8617SOL     OW26749   5.178   6.791   4.273 -0.7467 -0.4629 -0.0844
 8617SOL    HW126750   5.184   6.694   4.248  0.3122 -0.4737  0.1735
 8617SOL    HW226751   5.267   6.834   4.260 -1.6423  0.9230 -1.9664
 8618SOL     OW26752   4.152   1.272   4.921  0.1554 -0.2960 -0.1588
 8618SOL    HW126753   4.252   1.274   4.932  0.2863 -0.8545 -1.1280
 8618SOL    HW226754   4.118   1.181   4.944 -0.0915 -0.1934 -0.1195
 8619SOL     OW26755   6.452   6.777   2.573  0.1605 -0.2093  0.6436
 8619SOL    HW126756   6.411   6.687   2.588  3.0730 -1.4203  2.1502
 8619SOL    HW226757   6.454   6.827   2.660  1.9454 -0.3107  0.7114
 8620SOL     OW26758   0.492   1.240   0.146  0.6058 -0.5609 -0.5291
 8620SOL    HW126759   0.547   1.159   0.163 -1.2731 -1.6307  0.8438
 8620SOL    HW226760   0.395   1.215   0.148 -0.0489  1.8034  0.4942
 8621SOL     OW26761   2.756   4.754   3.017 -0.1813 -0.2532 -0.1201
 8621SOL    HW126762   2.712   4.843   3.007  0.8577  0.2153 -0.6759
 8621SOL    HW226763   2.688   4.687   3.047 -1.5847  0.1866 -2.0567
 8622SOL     OW26764   4.898   3.698   0.311  0.1353 -0.4982 -0.3004
 8622SOL    HW126765   4.979   3.645   0.284  0.2359 -0.2701 -0.4498
 8622SOL    HW226766   4.837   3.640   0.365  1.1793 -0.2021  1.2641
 8623SOL     OW26767   3.115   3.841   3.848  0.3500  0.7576 -0.1139
 8623SOL    HW126768   3.119   3.861   3.750 -0.3491 -1.2762 -0.6075
 8623SOL    HW226769   3.135   3.744   3.862 -0.2529  0.8708  1.7062
 8624SOL     OW26770   3.273   3.428   5.077 -0.2938 -0.2806 -0.0904
 8624SOL    HW126771   3.306   3.341   5.112 -1.1592 -0.3794  0.5191
 8624SOL    HW226772   3.180   3.444   5.111 -0.5898  0.3219 -1.1505
 8625SOL     OW26773   6.334   5.570   1.813  0.3844 -0.3373  0.3983
 8625SOL    HW126774   6.330   5.473   1.837  2.9277 -0.2377  1.5489
 8625SOL    HW226775   6.411   5.612   1.860  0.1555  1.9633 -1.1537
 8626SOL     OW26776   4.395   5.420   5.827 -0.0702 -0.0459 -0.1306
 8626SOL    HW126777   4.395   5.320   5.824 -1.8310 -0.1806  1.7875
 8626SOL    HW226778   4.362   5.450   5.917 -0.5987  2.2704 -1.0370
 8627SOL     OW26779   3.067   5.317   3.039 -0.7129 -0.5085 -0.1067
 8627SOL    HW126780   3.155   5.346   3.076 -1.2635 -0.0061  0.8262
 8627SOL    HW226781   3.056   5.355   2.947  0.1298 -0.7543 -0.3212
 8628SOL     OW26782   0.298   0.214   6.652  0.4767  0.2034 -0.2519
 8628SOL    HW126783   0.326   0.212   6.556 -0.1155  1.1193 -0.4544
 8628SOL    HW226784   0.253   0.128   6.675 -1.6069  0.8950 -1.5081
 8629SOL     OW26785   0.378   5.954   3.928  0.3512  0.2275 -0.3936
 8629SOL    HW126786   0.303   6.019   3.919  0.1585 -0.0234 -0.6605
 8629SOL    HW226787   0.345   5.862   3.904  0.2853 -0.1862  1.1917
 8630SOL     OW26788   5.250   5.986   2.044 -0.5594 -0.2408  0.1301
 8630SOL    HW126789   5.300   6.042   1.977  0.4133 -1.8043 -0.5135
 8630SOL    HW226790   5.254   6.031   2.133  0.0572  0.7929 -0.3896
 8631SOL     OW26791   0.926   4.044   1.286 -0.1298 -0.4568  0.0473
 8631SOL    HW126792   0.837   4.091   1.287  1.3369  2.5748 -0.5124
 8631SOL    HW226793   0.925   3.973   1.217 -1.5524  0.8037 -1.3106
 8632SOL     OW26794   5.293   0.460   1.068  0.1617  0.3531 -0.0377
 8632SOL    HW126795   5.325   0.555   1.075 -0.9342  0.6286  2.3985
 8632SOL    HW226796   5.299   0.417   1.158  1.4797 -2.2348 -1.2551
 8633SOL     OW26797   5.526   0.471   3.668  0.1889  0.0634  0.1390
 8633SOL    HW126798   5.442   0.440   3.622 -0.1596  0.6663  0.3607
 8633SOL    HW226799   5.579   0.391   3.696 -0.5994 -0.3394  0.5246
 8634SOL     OW26800   4.595   2.192   5.387  0.4750  0.0658  0.1651
 8634SOL    HW126801   4.635   2.284   5.395 -0.9471  0.6000  1.7344
 8634SOL    HW226802   4.517   2.195   5.325  0.6588 -0.1718 -0.0790
 8635SOL     OW26803   2.456   0.960   5.378  0.7568  0.1659 -0.2419
 8635SOL    HW126804   2.452   1.059   5.395  2.2905  0.1449  0.3630
 8635SOL    HW226805   2.550   0.928   5.389  0.4850 -1.1746 -1.5574
 8636SOL     OW26806   5.452   0.255   5.931  0.4658  0.0454  0.3172
 8636SOL    HW126807   5.389   0.298   5.995 -0.0590 -0.2742  0.0200
 8636SOL    HW226808   5.415   0.167   5.901  2.1042 -1.2523  1.8798
 8637SOL     OW26809   2.675   5.580   6.647  0.2981 -0.3513  0.5799
 8637SOL    HW126810   2.703   5.555   6.739 -1.1976 -0.2606  1.0793
 8637SOL    HW226811   2.628   5.668   6.648  0.3398 -0.3048 -0.2823
 8638SOL     OW26812   1.205   2.313   3.530  0.0982 -0.4050 -0.2557
 8638SOL    HW126813   1.167   2.399   3.496 -1.5541 -0.4173  1.3754
 8638SOL    HW226814   1.135   2.242   3.524 -0.5941 -0.2825  3.4790
 8639SOL     OW26815   6.474   1.941   4.699 -0.0920 -0.4261  0.0081
 8639SOL    HW126816   6.498   1.944   4.602  0.4718  0.4196  0.1624
 8639SOL    HW226817   6.551   1.976   4.753 -0.7286 -0.0717  0.6963
 8640SOL     OW26818   2.379   1.481   3.662 -0.1127 -0.2621  0.3789
 8640SOL    HW126819   2.342   1.476   3.755  0.9783  1.3263  0.9515
 8640SOL    HW226820   2.449   1.553   3.658  2.0634 -2.2981 -0.9282
 8641SOL     OW26821   6.638   1.227   1.925 -0.2543  0.1641  0.2409
 8641SOL    HW126822   6.673   1.262   1.838  0.1821 -0.5136  0.1305
 8641SOL    HW226823   6.678   1.137   1.943 -1.2513 -0.2359  0.5653
 8642SOL     OW26824   0.855   3.121   6.930  0.4665 -0.4146  0.3040
 8642SOL    HW126825   0.920   3.193   6.954  1.2797 -0.8478 -0.5146
 8642SOL    HW226826   0.872   3.092   6.836  1.2141 -2.7573  1.1018
 8643SOL     OW26827   5.405   3.666   0.159  0.6541 -0.2113  0.1929
 8643SOL    HW126828   5.377   3.725   0.234  0.3830  0.2341 -0.2486
 8643SOL    HW226829   5.476   3.603   0.190  0.0353 -0.5137  0.9999
 8644SOL     OW26830   4.978   4.246   4.367  0.1129  0.0681  0.5298
 8644SOL    HW126831   5.023   4.326   4.406  0.6005  0.9258 -1.6776
 8644SOL    HW226832   4.887   4.270   4.334 -1.5813 -1.3494  3.7144
 8645SOL     OW26833   0.295   4.833   5.353  0.2942  0.0503 -0.6776
 8645SOL    HW126834   0.215   4.876   5.312 -1.0381 -0.0574  1.6166
 8645SOL    HW226835   0.270   4.741   5.386  0.8381  0.6196  1.4822
 8646SOL     OW26836   0.180   6.198   0.871  0.2146 -0.4782  0.1884
 8646SOL    HW126837   0.262   6.170   0.920  0.7663 -1.0615 -1.0322
 8646SOL    HW226838   0.206   6.243   0.785 -0.7230  0.8295  0.5576
 8647SOL     OW26839   2.929   2.071   5.138  0.0952  0.5767 -0.1510
 8647SOL    HW126840   2.993   2.097   5.211 -0.4729  0.4743  0.3886
 8647SOL    HW226841   2.937   2.137   5.063 -0.0668  1.3023  0.4526
 8648SOL     OW26842   4.324   6.472   1.171  0.3334  0.0591 -0.0628
 8648SOL    HW126843   4.344   6.374   1.177  1.1269  0.1478 -0.9527
 8648SOL    HW226844   4.372   6.511   1.092 -0.7287  0.9784 -0.2829
 8649SOL     OW26845   0.369   1.699   3.461 -0.6915 -0.2962  0.0770
 8649SOL    HW126846   0.285   1.753   3.450  0.9660  2.1988 -1.4403
 8649SOL    HW226847   0.401   1.669   3.371  0.8633  0.2104  0.4227
 8650SOL     OW26848   1.048   2.385   0.547  0.1669 -0.2073 -0.0369
 8650SOL    HW126849   1.122   2.344   0.601  1.1465  0.2036 -1.0067
 8650SOL    HW226850   1.042   2.482   0.568 -0.8771 -0.4531  0.8662
 8651SOL     OW26851   1.329   0.173   0.544 -0.3119 -0.4622  0.1021
 8651SOL    HW126852   1.333   0.258   0.596 -1.5771 -1.1067  1.3425
 8651SOL    HW226853   1.414   0.160   0.493  0.3835  0.9210  0.8713
 8652SOL     OW26854   3.202   0.383   0.205  0.1435  0.4848 -0.1794
 8652SOL    HW126855   3.209   0.285   0.191  2.2295  0.6119 -0.2619
 8652SOL    HW226856   3.174   0.427   0.119  0.8379  0.1102 -0.6080
 8653SOL     OW26857   5.723   1.710   0.500 -0.5488  0.5272  0.1238
 8653SOL    HW126858   5.811   1.674   0.467 -0.1619  1.7993 -0.2857
 8653SOL    HW226859   5.740   1.773   0.576 -1.1530  0.4024  0.3611
 8654SOL     OW26860   2.639   0.468   3.987  0.5738  0.5551  0.6901
 8654SOL    HW126861   2.677   0.500   4.074 -0.2820 -1.2977  1.8070
 8654SOL    HW226862   2.663   0.371   3.974  0.3473  0.6952 -0.9626
 8655SOL     OW26863   5.390   4.574   2.269 -0.3743 -0.3644  0.4192
 8655SOL    HW126864   5.446   4.494   2.247  0.2003  0.0981  0.1599
 8655SOL    HW226865   5.351   4.611   2.185 -2.8749 -1.9336  0.7710
 8656SOL     OW26866   6.944   4.778   3.875 -0.1372 -0.3526 -0.4461
 8656SOL    HW126867   7.041   4.800   3.877 -0.4342  1.5425  3.4924
 8656SOL    HW226868   6.922   4.715   3.949 -2.0600  0.2242 -0.4557
 8657SOL     OW26869   6.478   5.637   2.240 -0.0631  0.2432  0.1876
 8657SOL    HW126870   6.449   5.719   2.288  1.5251  1.3207 -0.6037
 8657SOL    HW226871   6.398   5.581   2.218 -1.2513  1.8604  0.2210
 8658SOL     OW26872   2.303   0.780   1.080 -0.5352  0.7144  0.0667
 8658SOL    HW126873   2.366   0.703   1.071 -0.6193  0.5893  0.5232
 8658SOL    HW226874   2.280   0.793   1.176  1.0043  2.5279  0.2454
 8659SOL     OW26875   6.192   4.031   4.648 -0.0621  0.1585 -0.0496
 8659SOL    HW126876   6.264   4.079   4.597 -1.4504  0.9803 -1.3302
 8659SOL    HW226877   6.103   4.059   4.613 -1.0248 -0.8238  1.5080
 8660SOL     OW26878   0.725   0.414   5.280 -0.0909 -0.3325  0.1712
 8660SOL    HW126879   0.692   0.443   5.370  1.4786 -1.3223  1.1226
 8660SOL    HW226880   0.817   0.376   5.289 -0.8792 -2.9003 -1.4249
 8661SOL     OW26881   3.295   0.407   5.517 -0.1037  0.0554 -0.2146
 8661SOL    HW126882   3.331   0.483   5.570  0.0900 -0.2073  0.0384
 8661SOL    HW226883   3.370   0.359   5.472 -0.2306  0.0569 -0.4280
 8662SOL     OW26884   3.094   3.824   5.844  0.6798 -0.2179 -0.2607
 8662SOL    HW126885   3.159   3.749   5.858 -0.0276 -0.5154  1.6217
 8662SOL    HW226886   3.032   3.800   5.770  2.5261 -0.0154 -1.9711
 8663SOL     OW26887   1.823   7.019   4.762 -0.2049 -0.2074 -0.0438
 8663SOL    HW126888   1.819   6.922   4.742  0.8377  0.1654 -2.4497
 8663SOL    HW226889   1.914   7.054   4.738 -0.5883  1.3837  0.6841
 8664SOL     OW26890   0.852   1.098   5.568  0.3239 -0.0757 -0.0498
 8664SOL    HW126891   0.951   1.115   5.565  0.7122 -2.1567 -1.2208
 8664SOL    HW226892   0.812   1.143   5.647  1.9391  2.0813 -0.3906
 8665SOL     OW26893   2.994   1.083   2.247 -0.5241 -0.5637 -0.2474
 8665SOL    HW126894   2.914   1.093   2.189 -1.5692  0.4638  1.2880
 8665SOL    HW226895   2.972   1.112   2.340  1.6237 -0.2781  0.2396
 8666SOL     OW26896   5.387   3.822   1.469  0.1425 -0.1484  0.5833
 8666SOL    HW126897   5.355   3.745   1.414 -1.5825  0.8505  0.1331
 8666SOL    HW226898   5.487   3.817   1.477  0.3324 -1.0132 -1.5986
 8667SOL     OW26899   5.208   4.117   1.409 -0.0592  0.3864  0.0588
 8667SOL    HW126900   5.299   4.127   1.369 -0.2934 -0.3001 -0.6616
 8667SOL    HW226901   5.214   4.130   1.508  0.6083  1.6245 -0.1224
 8668SOL     OW26902   3.332   2.426   5.423 -0.0530 -0.0464  0.3508
 8668SOL    HW126903   3.288   2.481   5.494 -0.0468 -0.0073  0.3252
 8668SOL    HW226904   3.269   2.415   5.346 -0.0655 -0.1015  0.3692
 8669SOL     OW26905   5.944   5.953   4.164 -0.1658  0.0506 -0.0704
 8669SOL    HW126906   5.877   5.939   4.236 -0.1388  0.2261 -0.0112
 8669SOL    HW226907   5.907   5.917   4.078 -1.5887  2.6828 -0.6777
 8670SOL     OW26908   3.614   5.207   4.120 -0.2368 -0.0083  0.2110
 8670SOL    HW126909   3.614   5.116   4.079 -1.6266  0.1471 -0.2076
 8670SOL    HW226910   3.619   5.199   4.219 -0.4070 -0.5518  0.1799
 8671SOL     OW26911   5.249   3.550   2.129  0.6175  0.3861 -0.3727
 8671SOL    HW126912   5.316   3.514   2.064  1.1088  0.7362 -0.0647
 8671SOL    HW226913   5.296   3.596   2.205  0.0694 -0.4766  0.5103
 8672SOL     OW26914   6.481   4.861   3.358  0.2999 -0.4894 -0.1532
 8672SOL    HW126915   6.525   4.781   3.399  0.9216 -0.1211 -0.0909
 8672SOL    HW226916   6.518   4.944   3.399 -1.2669 -0.1769  0.7250
 8673SOL     OW26917   6.094   1.743   6.143 -0.2002 -0.3675  0.7043
 8673SOL    HW126918   6.097   1.836   6.106 -1.5848 -0.8077 -0.6050
 8673SOL    HW226919   6.167   1.732   6.210  0.1782  1.5672  0.6775
 8674SOL     OW26920   5.531   2.319   0.181  0.4344 -0.5000  0.2299
 8674SOL    HW126921   5.494   2.258   0.250 -0.1726  0.6808  0.9703
 8674SOL    HW226922   5.480   2.308   0.095 -0.8885  0.2463  0.8881
 8675SOL     OW26923   3.000   5.226   4.316 -0.1824  0.4227 -0.1411
 8675SOL    HW126924   3.083   5.190   4.272 -1.2963 -2.0196 -0.4178
 8675SOL    HW226925   2.980   5.317   4.280  0.9190 -0.0343 -2.0339
 8676SOL     OW26926   4.434   1.271   0.300  0.5983  0.0074 -0.2091
 8676SOL    HW126927   4.482   1.343   0.250 -0.4314  1.5942  0.9748
 8676SOL    HW226928   4.343   1.258   0.260  1.2314 -1.5873 -1.2140
 8677SOL     OW26929   1.217   3.568   6.554  0.1092  0.5714 -0.1669
 8677SOL    HW126930   1.174   3.478   6.552  1.3407 -0.0175 -1.1635
 8677SOL    HW226931   1.300   3.564   6.611 -0.7788  1.5539  1.2790
 8678SOL     OW26932   3.998   3.348   4.814 -0.1602 -0.5020 -0.0301
 8678SOL    HW126933   3.992   3.447   4.809 -0.5957 -0.3968  1.8991
 8678SOL    HW226934   3.918   3.307   4.770 -0.9186  0.0739  0.7906
 8679SOL     OW26935   3.758   2.949   5.021 -0.5218 -0.2062 -0.1527
 8679SOL    HW126936   3.827   3.020   5.033  0.5916 -1.2310 -0.2259
 8679SOL    HW226937   3.791   2.864   5.062 -0.8994 -1.2230 -1.8578
 8680SOL     OW26938   4.380   5.130   5.881 -0.6318 -0.7787  0.2409
 8680SOL    HW126939   4.364   5.093   5.972  0.3420  0.0650  0.7761
 8680SOL    HW226940   4.477   5.119   5.857 -0.4218  0.8807  0.1980
 8681SOL     OW26941   5.748   6.222   6.861 -0.2313  0.0509  0.1565
 8681SOL    HW126942   5.823   6.198   6.922  1.0620  0.6226 -1.1351
 8681SOL    HW226943   5.747   6.159   6.783 -1.6621 -0.4831  0.5649
 8682SOL     OW26944   0.618   6.981   6.260 -0.8969  0.3192 -0.2146
 8682SOL    HW126945   0.568   6.943   6.182 -2.2989  0.4002  0.6222
 8682SOL    HW226946   0.715   6.956   6.252 -1.2286 -0.7177 -1.3432
 8683SOL     OW26947   3.335   5.417   3.140  0.3243 -0.2943  0.7338
 8683SOL    HW126948   3.303   5.477   3.214  0.5840 -2.0765  2.3722
 8683SOL    HW226949   3.381   5.338   3.179 -2.2479 -2.9336 -1.1318
 8684SOL     OW26950   3.171   3.588   3.750 -0.6745 -0.2959  0.2145
 8684SOL    HW126951   3.247   3.540   3.706  0.2153  0.0128  1.3543
 8684SOL    HW226952   3.101   3.522   3.779 -0.7935 -0.5964 -0.7224
 8685SOL     OW26953   1.490   3.223   3.445 -0.2076 -0.0935  0.1761
 8685SOL    HW126954   1.550   3.194   3.520  0.3690  1.4016  0.3276
 8685SOL    HW226955   1.500   3.321   3.431 -3.0631  0.3187  0.5777
 8686SOL     OW26956   4.850   3.014   2.469 -0.1477  0.2622  0.3438
 8686SOL    HW126957   4.825   3.068   2.389 -2.3543  1.0143  1.4444
 8686SOL    HW226958   4.811   2.922   2.462 -1.9830  0.8930  1.2712
 8687SOL     OW26959   1.565   6.004   2.490  0.4385 -0.7042  0.3408
 8687SOL    HW126960   1.555   6.098   2.523  0.0949 -1.0144  1.1393
 8687SOL    HW226961   1.616   6.005   2.404 -0.7153  0.3358 -0.3643
 8688SOL     OW26962   2.874   5.439   4.190  0.3118 -0.4873  0.1336
 8688SOL    HW126963   2.795   5.462   4.134  1.0945  0.2170 -0.7143
 8688SOL    HW226964   2.859   5.472   4.283  0.0997  0.7095 -0.3106
 8689SOL     OW26965   2.321   0.359   4.846 -0.1505 -0.3049  0.0923
 8689SOL    HW126966   2.385   0.305   4.900  0.1362 -1.9045 -1.7711
 8689SOL    HW226967   2.363   0.385   4.759 -1.6864 -0.5489 -0.7586
 8690SOL     OW26968   3.840   6.835   1.412 -0.1670 -0.3791 -0.1638
 8690SOL    HW126969   3.858   6.751   1.361 -0.5547 -0.7289  0.2694
 8690SOL    HW226970   3.752   6.874   1.382 -0.3770 -0.5652  0.2066
 8691SOL     OW26971   1.811   4.425   1.804 -0.1323  0.1565  0.4210
 8691SOL    HW126972   1.770   4.335   1.818  0.0117 -0.0916 -0.6374
 8691SOL    HW226973   1.870   4.448   1.881 -0.0330 -0.7339  0.6145
 8692SOL     OW26974   5.936   3.219   3.339 -0.1657  0.6948 -0.4562
 8692SOL    HW126975   5.993   3.190   3.262  1.4150 -1.9584  1.5300
 8692SOL    HW226976   5.850   3.168   3.339  0.7762 -1.0050  0.6387
 8693SOL     OW26977   2.212   1.716   3.540  0.2230  0.3128  0.9700
 8693SOL    HW126978   2.275   1.787   3.570  0.3054  1.6343 -2.0170
 8693SOL    HW226979   2.263   1.641   3.499  0.0917 -1.2714  3.5008
 8694SOL     OW26980   4.685   0.618   6.692  0.1152 -0.0048  0.1745
 8694SOL    HW126981   4.740   0.701   6.683  0.2190 -0.0135  0.6793
 8694SOL    HW226982   4.616   0.632   6.763  0.6940 -0.6480  0.8721
 8695SOL     OW26983   1.724   6.778   3.772 -0.3434  0.0013  0.5167
 8695SOL    HW126984   1.793   6.835   3.728 -1.2858  0.3797 -0.5225
 8695SOL    HW226985   1.768   6.713   3.833  1.1640 -1.4762 -2.0002
 8696SOL     OW26986   4.533   6.118   5.763  0.1708 -0.6415 -0.8453
 8696SOL    HW126987   4.514   6.045   5.829 -0.2366 -1.6177 -2.0206
 8696SOL    HW226988   4.631   6.121   5.743  0.2569 -0.5278 -0.4197
 8697SOL     OW26989   3.419   5.083   1.725  0.4855 -0.2516  0.3983
 8697SOL    HW126990   3.407   5.003   1.784  1.6536 -0.2667  0.6420
 8697SOL    HW226991   3.375   5.162   1.768 -2.4870 -1.1080 -0.7961
 8698SOL     OW26992   6.348   6.953   6.944  0.1611 -0.2199  0.0121
 8698SOL    HW126993   6.448   6.951   6.947  0.1574  0.4421  1.7738
 8698SOL    HW226994   6.316   6.890   6.873  1.8245 -0.0982 -0.9072
 8699SOL     OW26995   2.217   3.979   2.906 -0.5782 -0.3196 -0.0230
 8699SOL    HW126996   2.134   3.925   2.921  0.2261 -1.8205 -0.7794
 8699SOL    HW226997   2.286   3.954   2.975  0.0338 -0.7840 -0.7847
 8700SOL     OW26998   3.931   5.206   3.012 -0.1316  0.2686 -0.3377
 8700SOL    HW126999   3.845   5.251   2.988 -2.3138 -3.4811 -0.2928
 8700SOL    HW227000   3.965   5.155   2.933  0.0432 -1.1730  0.6221
 8701SOL     OW27001   4.525   2.156   0.215  0.1235 -0.7099  0.0729
 8701SOL    HW127002   4.521   2.171   0.116 -0.4600  1.5847  0.3987
 8701SOL    HW227003   4.478   2.230   0.262 -1.7195 -2.9611  2.0406
 8702SOL     OW27004   3.530   3.206   0.190  0.5807  0.2492 -0.3090
 8702SOL    HW127005   3.524   3.148   0.108  0.8838 -0.8728  0.4367
 8702SOL    HW227006   3.492   3.157   0.268  1.6132  0.7384  0.5183
 8703SOL     OW27007   3.734   5.421   5.972 -0.1001  0.2598 -0.1667
 8703SOL    HW127008   3.684   5.357   6.031  3.0108 -1.2789  1.0309
 8703SOL    HW227009   3.724   5.393   5.877 -0.1574 -1.0257  0.1942
 8704SOL     OW27010   5.564   5.805   1.548  0.4378  0.9106  1.0072
 8704SOL    HW127011   5.474   5.767   1.569 -0.9571  4.9447  3.3350
 8704SOL    HW227012   5.578   5.804   1.449 -0.1709 -3.5259  0.7345
 8705SOL     OW27013   2.347   0.140   2.705 -0.0654  0.4748 -0.4286
 8705SOL    HW127014   2.379   0.086   2.627 -0.5810  0.1621 -0.4271
 8705SOL    HW227015   2.252   0.116   2.725  0.1446  0.3734  0.4556
 8706SOL     OW27016   0.638   4.692   2.278  0.0075 -0.0864 -0.2536
 8706SOL    HW127017   0.601   4.718   2.189  0.0894 -0.1621 -0.3095
 8706SOL    HW227018   0.645   4.773   2.336  0.6387  0.0897 -0.5639
 8707SOL     OW27019   3.018   1.093   6.811 -0.6019  0.1100 -0.4832
 8707SOL    HW127020   2.963   1.072   6.730 -0.3081 -0.2923 -0.5807
 8707SOL    HW227021   3.050   1.008   6.853 -0.3495  0.3300 -0.2244
 8708SOL     OW27022   5.047   0.972   1.072 -0.0162 -0.7643  0.3502
 8708SOL    HW127023   5.003   0.935   0.990 -0.8041 -1.9667  1.2833
 8708SOL    HW227024   5.019   1.067   1.085 -0.6915 -0.8750 -0.2033
 8709SOL     OW27025   1.544   1.264   5.816  0.1398 -0.5805 -0.5989
 8709SOL    HW127026   1.543   1.356   5.857 -1.6312 -0.9481  0.2923
 8709SOL    HW227027   1.491   1.264   5.732  0.1883 -0.7681 -0.6300
 8710SOL     OW27028   1.504   2.313   6.569 -0.5263 -0.0223 -0.0129
 8710SOL    HW127029   1.438   2.338   6.498  1.2405  0.9936 -1.3830
 8710SOL    HW227030   1.554   2.231   6.542 -0.3313 -0.0436  0.3882
 8711SOL     OW27031   1.652   1.568   4.241  0.0829  0.2192 -0.0487
 8711SOL    HW127032   1.613   1.591   4.330 -0.9184 -1.4069 -0.0343
 8711SOL    HW227033   1.752   1.562   4.249  0.0371  0.5153  0.8561
 8712SOL     OW27034   0.183   5.345   1.754 -0.4215  0.4077  0.1736
 8712SOL    HW127035   0.109   5.284   1.783  0.0042 -0.9256 -1.3418
 8712SOL    HW227036   0.144   5.425   1.707 -0.9448  0.6367  0.9857
 8713SOL     OW27037   3.647   2.914   6.698  0.6181 -0.7859 -0.2842
 8713SOL    HW127038   3.721   2.856   6.664  0.2958 -0.1644 -2.2040
 8713SOL    HW227039   3.609   2.967   6.622 -1.3692 -0.6103  0.7627
 8714SOL     OW27040   2.106   2.732   6.678  0.5999 -0.5417 -0.5692
 8714SOL    HW127041   2.142   2.822   6.703 -2.2890  1.0050 -1.5979
 8714SOL    HW227042   2.120   2.717   6.580  0.0595 -0.7176 -0.6194
 8715SOL     OW27043   0.977   4.981   0.349  0.1812 -0.4350 -0.0496
 8715SOL    HW127044   1.040   4.934   0.410  0.6635  0.4888  0.1760
 8715SOL    HW227045   1.021   4.997   0.260  0.5836  0.9324  0.3696
 8716SOL     OW27046   5.657   2.857   5.153  0.0492 -0.5556  0.0368
 8716SOL    HW127047   5.633   2.817   5.242 -1.2610 -0.0043 -0.0417
 8716SOL    HW227048   5.739   2.913   5.162  0.5824 -1.4145  0.6415
 8717SOL     OW27049   1.503   3.760   4.260 -0.3417 -0.1950 -0.3876
 8717SOL    HW127050   1.452   3.692   4.207  0.8332 -1.3905 -0.0487
 8717SOL    HW227051   1.538   3.831   4.199 -0.5765 -0.5380 -0.9319
 8718SOL     OW27052   4.809   5.820   5.777 -0.0449 -0.5813 -0.2167
 8718SOL    HW127053   4.754   5.741   5.750  0.3533 -0.8269 -0.3293
 8718SOL    HW227054   4.800   5.835   5.875  0.3345 -1.1319 -0.0906
 8719SOL     OW27055   0.925   5.482   2.050  0.0811 -0.4076 -0.4218
 8719SOL    HW127056   0.946   5.558   1.988  0.9412 -1.3770 -1.3621
 8719SOL    HW227057   0.884   5.518   2.134  1.1515  1.1677 -0.5288
 8720SOL     OW27058   6.333   3.263   2.838 -0.9255 -0.0958 -0.5610
 8720SOL    HW127059   6.276   3.325   2.893 -2.1413 -0.8215 -0.9570
 8720SOL    HW227060   6.346   3.177   2.888 -1.9623 -0.7252 -1.3244
 8721SOL     OW27061   0.908   0.152   2.272  0.2556 -0.0142 -0.3036
 8721SOL    HW127062   0.834   0.157   2.339 -0.5161  0.5344 -1.1888
 8721SOL    HW227063   0.995   0.176   2.317  0.0948 -1.6212  0.9829
 8722SOL     OW27064   5.002   3.081   2.694  0.5345  0.0939 -0.5854
 8722SOL    HW127065   4.942   3.066   2.773 -0.1479 -0.7179 -1.2271
 8722SOL    HW227066   4.952   3.058   2.610  1.0446  1.5029 -1.3110
 8723SOL     OW27067   1.801   6.513   4.974 -0.0319 -0.1378 -0.0491
 8723SOL    HW127068   1.780   6.577   5.048  1.7156  0.3928  0.0506
 8723SOL    HW227069   1.732   6.521   4.902  0.0296  1.7520  0.0526
 8724SOL     OW27070   5.958   1.895   1.166  0.5095 -0.6510 -0.4240
 8724SOL    HW127071   6.024   1.823   1.185  1.2815  1.0771  4.9889
 8724SOL    HW227072   6.006   1.982   1.151 -0.5239 -0.2350 -1.5387
 8725SOL     OW27073   0.104   1.096   0.951 -0.0046  0.3451 -0.4482
 8725SOL    HW127074   0.059   1.184   0.935  0.7841  0.3045 -3.4096
 8725SOL    HW227075   0.038   1.031   0.988 -0.5324  2.1853  2.1329
 8726SOL     OW27076   1.789   4.107   2.968 -0.0872 -0.3441  0.2022
 8726SOL    HW127077   1.707   4.127   3.021 -1.1237  0.5743 -1.6636
 8726SOL    HW227078   1.857   4.178   2.983 -0.9433  0.7186 -0.7660
 8727SOL     OW27079   6.977   7.013   4.568 -0.0194  0.4839  0.3874
 8727SOL    HW127080   7.055   6.961   4.534 -1.6300 -1.1801 -0.9577
 8727SOL    HW227081   7.006   7.106   4.591  2.2174  0.1044 -0.6832
 8728SOL     OW27082   0.718   5.722   0.405  0.3846 -0.3456 -0.2241
 8728SOL    HW127083   0.676   5.632   0.395  1.9718 -1.1291 -0.2715
 8728SOL    HW227084   0.765   5.727   0.494 -0.3646  0.7466  0.1288
 8729SOL     OW27085   4.963   3.162   4.426  0.0507 -0.3658  0.4372
 8729SOL    HW127086   5.001   3.070   4.439  0.4781 -0.6757 -2.3010
 8729SOL    HW227087   4.886   3.157   4.362  2.3105  1.4507 -2.7456
 8730SOL     OW27088   5.805   3.688   6.315  0.3403 -0.2919 -0.5981
 8730SOL    HW127089   5.710   3.682   6.346  0.1089 -0.5741 -1.3384
 8730SOL    HW227090   5.828   3.606   6.263 -0.5789  1.7603 -4.6684
 8731SOL     OW27091   4.767   0.057   0.885 -0.2217 -0.3103  0.2072
 8731SOL    HW127092   4.756   0.153   0.859 -1.7016 -0.8701 -1.5027
 8731SOL    HW227093   4.690   0.004   0.848  0.0717 -2.0126  1.8948
 8732SOL     OW27094   3.651   0.737   2.604  0.0470  0.5521  0.2813
 8732SOL    HW127095   3.624   0.643   2.625  0.5225  0.5475  0.8938
 8732SOL    HW227096   3.571   0.796   2.605 -0.3635  0.0387 -0.8048
 8733SOL     OW27097   3.315   5.168   2.539 -0.4296  0.2032  0.0642
 8733SOL    HW127098   3.297   5.070   2.551  2.3400 -0.2475  1.4657
 8733SOL    HW227099   3.262   5.220   2.606 -1.0272 -0.4376  0.1075
 8734SOL     OW27100   6.863   1.107   2.647  0.0693  0.0573 -0.4636
 8734SOL    HW127101   6.851   1.073   2.740 -0.4696  1.3188 -0.0528
 8734SOL    HW227102   6.960   1.101   2.621  0.6987  2.0408  1.1539
 8735SOL     OW27103   4.005   0.689   3.934  0.1410 -0.1792  0.2187
 8735SOL    HW127104   4.087   0.651   3.892  0.7214  2.0126 -0.8024
 8735SOL    HW227105   4.002   0.664   4.031  1.3273 -1.3357 -0.0197
 8736SOL     OW27106   4.852   4.357   0.421  0.3269 -0.0567  0.2273
 8736SOL    HW127107   4.763   4.331   0.383  0.1909  1.0085 -0.2394
 8736SOL    HW227108   4.837   4.412   0.504  0.5828 -0.8001  0.7736
 8737SOL     OW27109   5.945   5.681   5.489 -0.3371  0.1158  0.6489
 8737SOL    HW127110   5.929   5.589   5.453 -1.8401  0.6126 -0.0368
 8737SOL    HW227111   5.858   5.729   5.496  0.2073  0.9314  2.5928
 8738SOL     OW27112   1.059   4.676   2.006 -0.6133 -0.4790  0.7156
 8738SOL    HW127113   1.026   4.624   2.085 -2.2257  1.0852  1.1483
 8738SOL    HW227114   0.980   4.712   1.956  0.4039  2.4988  1.1018
 8739SOL     OW27115   6.593   3.220   1.215  0.1740 -0.1961 -0.5227
 8739SOL    HW127116   6.557   3.219   1.122  1.3389  0.1260 -1.0029
 8739SOL    HW227117   6.548   3.292   1.268 -0.2848 -0.1897 -0.9180
 8740SOL     OW27118   6.148   6.358   6.415  0.0515 -0.1559 -0.0153
 8740SOL    HW127119   6.100   6.347   6.328  0.6251  0.0910 -0.3643
 8740SOL    HW227120   6.221   6.425   6.405  0.9022 -0.9973  0.3320
 8741SOL     OW27121   6.875   4.078   6.810  0.0502 -0.2641 -0.0593
 8741SOL    HW127122   6.892   3.995   6.863 -0.2005 -0.8176 -0.8399
 8741SOL    HW227123   6.805   4.132   6.856  1.3609  0.3470  1.3388
 8742SOL     OW27124   1.526   1.118   4.409 -0.2989 -0.5371  0.3350
 8742SOL    HW127125   1.514   1.171   4.492 -0.2015  0.8030 -0.4689
 8742SOL    HW227126   1.620   1.130   4.375 -0.6446 -0.1787 -0.5392
 8743SOL     OW27127   4.981   5.992   6.294 -0.3348  0.8572  0.1695
 8743SOL    HW127128   4.888   5.957   6.290  0.0192 -0.0943  0.0429
 8743SOL    HW227129   5.032   5.943   6.365 -0.5994  3.0724  2.0120
 8744SOL     OW27130   0.021   6.127   1.787  1.0209  0.6084 -0.0492
 8744SOL    HW127131   0.059   6.142   1.696  2.2103  1.7105  0.6022
 8744SOL    HW227132  -0.045   6.200   1.809  0.5405  0.2028 -0.1145
 8745SOL     OW27133   2.518   5.016   5.292  0.2478 -0.3939  0.0593
 8745SOL    HW127134   2.582   5.089   5.318  0.0168  0.5781 -1.9566
 8745SOL    HW227135   2.425   5.042   5.321  0.4567 -0.9731  1.3508
 8746SOL     OW27136   5.891   3.443   0.392 -0.2491 -0.3946 -0.0089
 8746SOL    HW127137   5.969   3.484   0.441 -0.2356  0.1212 -0.4543
 8746SOL    HW227138   5.921   3.410   0.303 -0.3445 -1.0380  0.1966
 8747SOL     OW27139   0.405   4.372   5.557 -0.0572 -0.0941  0.4769
 8747SOL    HW127140   0.490   4.371   5.609  0.5627 -1.0252 -0.5062
 8747SOL    HW227141   0.411   4.441   5.485  0.5788 -1.3318 -0.6879
 8748SOL     OW27142   5.568   2.392   3.680 -0.1789  0.0080 -0.4148
 8748SOL    HW127143   5.588   2.310   3.626  0.0564 -0.5404  0.4814
 8748SOL    HW227144   5.504   2.450   3.629  0.5738 -0.1430 -1.5768
 8749SOL     OW27145   1.610   5.975   4.830 -0.6763 -0.2019  0.9508
 8749SOL    HW127146   1.620   6.058   4.776 -2.0986 -0.0428  0.8830
 8749SOL    HW227147   1.611   5.895   4.769  0.8486 -0.2645  1.0320
 8750SOL     OW27148   0.167   4.854   3.902 -0.2998 -0.2641 -0.0704
 8750SOL    HW127149   0.206   4.835   3.992 -1.0552 -1.9456 -0.0656
 8750SOL    HW227150   0.218   4.928   3.859  1.9498 -1.3523  0.5495
 8751SOL     OW27151   4.506   2.634   0.488  0.1215 -0.4199 -0.5863
 8751SOL    HW127152   4.541   2.658   0.397  0.1313  1.1360 -0.1962
 8751SOL    HW227153   4.407   2.647   0.490  0.1385 -0.3211 -0.3400
 8752SOL     OW27154   4.339   2.333   5.621  0.4842  0.2410 -0.6619
 8752SOL    HW127155   4.284   2.358   5.542  0.8673  0.1433 -0.9653
 8752SOL    HW227156   4.416   2.397   5.629  1.5471 -0.8776 -1.5188
 8753SOL     OW27157   5.359   3.831   4.773  0.2154  0.5919  0.0623
 8753SOL    HW127158   5.435   3.896   4.776  0.6116  0.1153  0.8672
 8753SOL    HW227159   5.281   3.869   4.824  0.7362  0.1168  1.2724
 8754SOL     OW27160   4.846   2.691   5.439 -0.2824  0.2578  0.0371
 8754SOL    HW127161   4.833   2.719   5.534  0.5424  1.5289 -0.2026
 8754SOL    HW227162   4.772   2.629   5.412 -1.3289  1.0211  1.0746
 8755SOL     OW27163   4.164   5.765   2.192 -0.8320 -0.2422  0.2650
 8755SOL    HW127164   4.163   5.719   2.104  2.2452  1.9714 -1.1065
 8755SOL    HW227165   4.119   5.854   2.184  1.2716  0.8924  0.2162
 8756SOL     OW27166   2.185   1.901   1.013  0.4486  0.2816 -0.6639
 8756SOL    HW127167   2.142   1.977   0.963 -0.6953  1.5600  2.0396
 8756SOL    HW227168   2.239   1.937   1.089 -0.0807 -1.5902  0.6845
 8757SOL     OW27169   0.740   4.537   4.761 -0.2237 -0.1907  0.0487
 8757SOL    HW127170   0.751   4.577   4.852  0.5239 -0.2117 -0.0275
 8757SOL    HW227171   0.825   4.493   4.733 -0.7773 -1.1165 -0.2260
 8758SOL     OW27172   5.294   4.036   4.088  0.0160  0.0733  0.3422
 8758SOL    HW127173   5.375   4.001   4.041  0.2435  0.0259  0.7599
 8758SOL    HW227174   5.228   3.962   4.099  0.6970 -0.3762  1.6548
 8759SOL     OW27175   0.828   1.791   0.208  0.3937 -0.4752 -1.0352
 8759SOL    HW127176   0.844   1.791   0.307 -2.0359 -1.9227 -0.5723
 8759SOL    HW227177   0.839   1.884   0.172 -0.5999  0.4549  0.9481
 8760SOL     OW27178   4.841   5.150   6.607  0.1121  0.2968  0.1566
 8760SOL    HW127179   4.906   5.186   6.540 -0.0682 -0.1601 -0.2677
 8760SOL    HW227180   4.817   5.056   6.583 -1.9933  0.9885 -0.6400
 8761SOL     OW27181   1.140   1.903   0.566  0.0930 -0.0896  0.7501
 8761SOL    HW127182   1.135   1.977   0.499 -0.2099 -1.3104 -0.6258
 8761SOL    HW227183   1.235   1.894   0.599  0.1476  0.8293  0.8571
 8762SOL     OW27184   3.405   5.074   0.908 -0.0941 -0.2494  0.2124
 8762SOL    HW127185   3.311   5.096   0.882 -0.3042 -0.8424  0.4663
 8762SOL    HW227186   3.468   5.116   0.843 -0.5510 -0.2374 -0.2244
 8763SOL     OW27187   6.260   3.884   2.468 -0.4757 -0.1569  0.3250
 8763SOL    HW127188   6.331   3.899   2.538  0.2158 -1.0120 -0.1775
 8763SOL    HW227189   6.302   3.846   2.386 -1.2197  1.2293 -0.7255
 8764SOL     OW27190   5.532   1.135   6.990 -0.3745 -0.3552  0.4051
 8764SOL    HW127191   5.514   1.178   6.901 -1.0021  0.1433  0.7697
 8764SOL    HW227192   5.492   1.043   6.991 -1.8119  0.2475  0.7386
 8765SOL     OW27193   5.038   0.777   0.568  0.0878 -0.9099  0.3862
 8765SOL    HW127194   5.089   0.695   0.595  0.9053 -0.2768  0.8332
 8765SOL    HW227195   5.071   0.855   0.621  0.0817 -0.0841 -0.7891
 8766SOL     OW27196   3.983   2.552   0.535  0.1673 -0.1466  0.2356
 8766SOL    HW127197   3.969   2.633   0.479  2.6031 -0.4448 -0.9233
 8766SOL    HW227198   4.028   2.481   0.481  1.4026 -0.9365  2.2030
 8767SOL     OW27199   1.681   5.809   4.642 -0.0094  0.0086  0.2503
 8767SOL    HW127200   1.726   5.736   4.693  0.9160  0.7655  0.5511
 8767SOL    HW227201   1.710   5.805   4.546  2.3747  1.6862  0.8043
 8768SOL     OW27202   6.440   3.102   0.293  0.0290  0.2258  0.2011
 8768SOL    HW127203   6.346   3.094   0.259  0.1878  0.1988 -0.2350
 8768SOL    HW227204   6.464   3.198   0.302  0.5021  0.2665 -1.2285
 8769SOL     OW27205   6.419   1.942   7.008  0.2658  0.1416  0.4662
 8769SOL    HW127206   6.460   1.975   7.092 -1.2937 -0.8387  1.6737
 8769SOL    HW227207   6.459   1.853   6.984 -0.4026 -0.3351  1.0812
 8770SOL     OW27208   4.410   1.498   5.217  0.1771 -0.2976  0.2849
 8770SOL    HW127209   4.391   1.550   5.133  0.7109  0.5209  0.6529
 8770SOL    HW227210   4.363   1.543   5.294  1.3478  0.1689  0.7534
 8771SOL     OW27211   3.018   1.915   3.671 -0.0991  0.0314  0.1194
 8771SOL    HW127212   3.104   1.939   3.716  1.4147 -0.4377 -2.3328
 8771SOL    HW227213   2.977   1.835   3.716  0.0704  0.9747  2.0452
 8772SOL     OW27214   3.024   5.252   2.422  0.5498 -0.1211 -0.1651
 8772SOL    HW127215   3.110   5.214   2.456  0.7167 -0.9229 -1.3916
 8772SOL    HW227216   2.953   5.181   2.423 -0.6400  0.9731  2.4793
 8773SOL     OW27217   1.579   4.925   4.767  0.6820  0.0932  0.1805
 8773SOL    HW127218   1.566   4.964   4.676  0.0643  2.1246  1.0761
 8773SOL    HW227219   1.494   4.881   4.797  1.2827 -1.7738 -0.7010
 8774SOL     OW27220   6.538   2.236   4.984  0.7738  0.3365 -0.4873
 8774SOL    HW127221   6.513   2.288   4.902 -1.1578  0.6851  0.2704
 8774SOL    HW227222   6.570   2.300   5.055  3.6903 -0.0651 -1.3002
 8775SOL     OW27223   5.709   4.725   1.294 -0.3145 -0.0670  0.1277
 8775SOL    HW127224   5.717   4.651   1.360  3.1102  0.8220  0.8530
 8775SOL    HW227225   5.667   4.805   1.337 -0.2668 -0.2610  0.5305
 8776SOL     OW27226   6.643   0.834   6.915  0.3067 -0.1543  0.1700
 8776SOL    HW127227   6.638   0.738   6.940  1.6216 -0.1427  0.5346
 8776SOL    HW227228   6.685   0.842   6.824 -1.7763 -0.0254 -0.8429
 8777SOL     OW27229   4.853   5.041   3.542 -0.5600 -0.0434  0.4452
 8777SOL    HW127230   4.875   5.130   3.502  0.4390 -0.3284  0.3323
 8777SOL    HW227231   4.892   4.968   3.486 -1.0566 -0.5388  0.7333
 8778SOL     OW27232   4.760   6.952   3.612  0.0732  0.8972 -0.3593
 8778SOL    HW127233   4.745   6.985   3.519  0.5985 -0.7987 -1.0807
 8778SOL    HW227234   4.827   6.877   3.611 -1.1475 -0.2835  1.1608
 8779SOL     OW27235   0.583   0.581   1.358  0.1585  0.1137 -0.2174
 8779SOL    HW127236   0.498   0.529   1.349  0.3259  0.0690 -2.1760
 8779SOL    HW227237   0.659   0.527   1.321  0.5478  1.2110 -1.0947
 8780SOL     OW27238   5.220   6.194   1.638 -0.2285  0.3330  0.1597
 8780SOL    HW127239   5.181   6.146   1.560  0.7064  0.7709 -0.6077
 8780SOL    HW227240   5.302   6.244   1.609  0.1223  0.5399  1.4125
 8781SOL     OW27241   6.099   6.746   3.131  0.3285  0.2929  0.0900
 8781SOL    HW127242   6.177   6.806   3.151 -0.3966  1.0325  0.7722
 8781SOL    HW227243   6.082   6.744   3.033  1.0466  0.3256 -0.0397
 8782SOL     OW27244   6.158   5.216   6.018  0.5088  0.4075 -0.0173
 8782SOL    HW127245   6.082   5.273   6.050 -1.3225 -1.6469 -0.4012
 8782SOL    HW227246   6.194   5.162   6.094 -0.9200 -1.2749 -0.4706
 8783SOL     OW27247   1.437   0.126   0.999  0.5225  0.4727 -0.0734
 8783SOL    HW127248   1.530   0.150   1.026  0.3413  1.1638 -0.0478
 8783SOL    HW227249   1.395   0.068   1.069  0.6527  0.8302  0.2993
 8784SOL     OW27250   5.277   7.008   0.011 -0.5707 -0.1317 -0.1911
 8784SOL    HW127251   5.327   7.012  -0.075  1.6359 -0.5185  0.9921
 8784SOL    HW227252   5.201   6.943   0.003  1.8151 -3.0773 -0.8229
 8785SOL     OW27253   0.107   4.081   4.480 -0.2665  0.3601 -0.0080
 8785SOL    HW127254   0.190   4.102   4.428 -0.0302  1.2349  0.6977
 8785SOL    HW227255   0.132   4.046   4.570 -0.6254  1.5669  0.5905
 8786SOL     OW27256   0.717   0.598   3.133 -0.1381 -1.2106  0.0222
 8786SOL    HW127257   0.680   0.508   3.153 -1.6531 -0.5889  0.1854
 8786SOL    HW227258   0.657   0.645   3.067  0.5490 -0.2771  0.0401
 8787SOL     OW27259   0.834   0.746   5.579 -0.0113  0.1136 -0.0855
 8787SOL    HW127260   0.856   0.724   5.484  0.4632  1.4874 -0.3138
 8787SOL    HW227261   0.737   0.769   5.586 -0.0061  0.1996 -0.2755
 8788SOL     OW27262   1.303   6.964   1.145 -0.4850 -0.1208  0.4806
 8788SOL    HW127263   1.204   6.948   1.136 -0.5451  0.7196 -0.5704
 8788SOL    HW227264   1.339   6.906   1.218 -1.6535 -0.8551  0.5154
 8789SOL     OW27265   6.033   5.457   0.882  0.5760  0.2163 -0.0587
 8789SOL    HW127266   5.990   5.373   0.849 -2.4542  0.3236  2.9917
 8789SOL    HW227267   6.039   5.454   0.982  0.8951  3.3989  0.1233
 8790SOL     OW27268   1.645   3.191   0.156 -0.0358 -0.3203  0.5011
 8790SOL    HW127269   1.674   3.113   0.212  0.0873 -0.5678  0.1031
 8790SOL    HW227270   1.618   3.266   0.215  0.1586 -0.5514  0.8932
 8791SOL     OW27271   1.137   0.570   2.329 -0.3734  0.5977 -0.1858
 8791SOL    HW127272   1.194   0.650   2.307 -0.3806  0.1741 -1.8745
 8791SOL    HW227273   1.044   0.586   2.296 -0.7035  0.3945  0.6218
 8792SOL     OW27274   0.725   6.912   3.542  0.0052  0.0546  0.1450
 8792SOL    HW127275   0.691   6.826   3.582 -0.7316 -0.0393 -0.6520
 8792SOL    HW227276   0.824   6.916   3.553  0.2837 -1.7001 -1.2657
 8793SOL     OW27277   1.469   1.143   2.247 -0.3146  0.3245  0.5095
 8793SOL    HW127278   1.402   1.104   2.184 -1.1186 -0.4461  1.7782
 8793SOL    HW227279   1.451   1.241   2.258 -0.5528  0.3395  0.0317
 8794SOL     OW27280   5.003   0.484   5.265 -0.2236  0.0593 -0.3213
 8794SOL    HW127281   5.093   0.512   5.230 -0.2695  0.9032  0.2119
 8794SOL    HW227282   4.942   0.563   5.267 -0.7778 -0.3704 -0.0447
 8795SOL     OW27283   0.775   5.755   0.675 -0.2328 -0.0527 -0.1157
 8795SOL    HW127284   0.739   5.835   0.722  3.9479  1.8316  0.3658
 8795SOL    HW227285   0.811   5.690   0.742 -0.7271 -0.8283 -0.5867
 8796SOL     OW27286   6.071   5.824   4.983 -0.1828 -0.1789 -0.6438
 8796SOL    HW127287   6.100   5.761   5.056 -1.3512  0.3228  0.2884
 8796SOL    HW227288   6.151   5.868   4.944  0.6339 -1.8445 -0.9713
 8797SOL     OW27289   6.808   0.913   4.313  0.2980  0.0554  0.2544
 8797SOL    HW127290   6.709   0.917   4.301  0.3195 -0.6256 -0.2349
 8797SOL    HW227291   6.837   0.981   4.380 -0.4318  0.6458 -0.0275
 8798SOL     OW27292   5.054   1.135   2.268  0.0962 -0.1466  0.3270
 8798SOL    HW127293   5.114   1.209   2.236  1.9294 -1.2931  0.9432
 8798SOL    HW227294   5.026   1.154   2.363 -0.2331  0.2139  0.1609
 8799SOL     OW27295   0.153   6.206   4.132  0.0274  0.3826  0.3804
 8799SOL    HW127296   0.103   6.142   4.191  0.7007 -0.9868 -0.4963
 8799SOL    HW227297   0.136   6.300   4.163 -1.9461 -0.1237  0.9679
 8800SOL     OW27298   1.449   3.432   3.873 -0.2518  0.8946 -0.1534
 8800SOL    HW127299   1.433   3.490   3.953 -1.1119  0.8437 -0.2788
 8800SOL    HW227300   1.513   3.359   3.897 -2.7415 -0.9168  1.3885
 8801SOL     OW27301   5.285   1.319   2.514 -0.4764  0.8492 -0.5170
 8801SOL    HW127302   5.332   1.312   2.601  0.8557 -0.3384 -1.2994
 8801SOL    HW227303   5.192   1.283   2.523 -0.6437  1.5106  0.5857
 8802SOL     OW27304   1.604   5.319   6.229 -0.3837  0.1579 -0.1994
 8802SOL    HW127305   1.636   5.245   6.289 -3.0506 -1.0487 -0.1144
 8802SOL    HW227306   1.563   5.392   6.284 -3.1897 -1.1265 -0.3939
 8803SOL     OW27307   3.437   6.944   4.781 -0.0586  0.3342  0.2401
 8803SOL    HW127308   3.376   6.890   4.722 -0.6904 -2.0254  2.8591
 8803SOL    HW227309   3.382   6.994   4.848  0.7704 -0.6856  1.7183
 8804SOL     OW27310   4.278   0.856   0.709  0.3486  0.3689  0.0106
 8804SOL    HW127311   4.301   0.762   0.687  0.4275  0.2144  0.7493
 8804SOL    HW227312   4.202   0.858   0.773 -1.2977  0.8608 -1.8755
 8805SOL     OW27313   6.451   5.513   3.060 -0.1873  0.0248  0.6641
 8805SOL    HW127314   6.426   5.593   3.006 -1.3858 -1.3259 -0.8974
 8805SOL    HW227315   6.550   5.501   3.059 -0.0817  0.8891  0.0503
 8806SOL     OW27316   3.013   5.430   1.892 -0.3963  0.1651  0.3131
 8806SOL    HW127317   3.070   5.413   1.972 -0.6304  2.0235  0.9245
 8806SOL    HW227318   3.065   5.480   1.823 -0.6299 -0.1177 -0.0722
 8807SOL     OW27319   1.215   6.031   6.984 -0.6952 -0.0846 -0.2649
 8807SOL    HW127320   1.204   6.093   6.906 -0.4712 -2.0471 -1.9516
 8807SOL    HW227321   1.311   6.028   7.011 -0.1439 -1.8477 -2.1586
 8808SOL     OW27322   6.544   5.804   4.624  0.4466  0.2558  0.6324
 8808SOL    HW127323   6.497   5.774   4.541  1.1500 -1.6727  0.8886
 8808SOL    HW227324   6.635   5.837   4.600  0.3385  0.5146  0.5632
 8809SOL     OW27325   4.616   5.658   3.071 -0.2681  0.3168  0.2100
 8809SOL    HW127326   4.532   5.676   3.021 -0.5709 -0.3439  0.4725
 8809SOL    HW227327   4.601   5.673   3.169 -0.7282 -1.9191  0.5293
 8810SOL     OW27328   1.299   3.438   3.636  0.1232 -0.3366 -0.6490
 8810SOL    HW127329   1.371   3.456   3.569  0.7328 -1.8114 -0.4308
 8810SOL    HW227330   1.335   3.451   3.728 -0.3156  0.3373 -0.5692
 8811SOL     OW27331   5.771   2.048   1.024  0.2587  0.6180 -0.0612
 8811SOL    HW127332   5.817   1.972   1.069  1.0131  1.2458  0.2479
 8811SOL    HW227333   5.823   2.075   0.943 -0.1581  0.6216 -0.3291
 8812SOL     OW27334   4.992   5.965   1.911 -0.3822 -0.7044  0.4339
 8812SOL    HW127335   5.087   5.992   1.928 -0.3939 -1.6480  2.2423
 8812SOL    HW227336   4.972   5.975   1.814  1.6594 -0.7931 -0.0534
 8813SOL     OW27337   4.455   2.112   4.607  0.3835  0.3671  0.7631
 8813SOL    HW127338   4.378   2.058   4.641 -0.3288 -0.2915 -1.6938
 8813SOL    HW227339   4.534   2.052   4.593  0.2496  0.3422  0.0484
 8814SOL     OW27340   4.287   2.889   1.568  0.2354  0.2143  0.4158
 8814SOL    HW127341   4.269   2.985   1.591  0.9490  0.8689 -1.5700
 8814SOL    HW227342   4.382   2.868   1.587  0.6516  0.5656 -1.1147
 8815SOL     OW27343   4.887   1.519   5.683  0.0672  0.0799 -0.5522
 8815SOL    HW127344   4.928   1.560   5.602 -0.2329  0.9124 -0.2905
 8815SOL    HW227345   4.921   1.425   5.694  1.2819  0.4863 -0.7759
 8816SOL     OW27346   5.289   4.229   1.078  0.4102  0.3858 -0.6421
 8816SOL    HW127347   5.271   4.228   0.979 -0.2061 -0.9618 -0.5517
 8816SOL    HW227348   5.298   4.135   1.110  0.9051  0.8257  0.5428
 8817SOL     OW27349   0.697   0.953   2.751  0.2442  0.3875  0.4775
 8817SOL    HW127350   0.740   0.992   2.669  1.1681 -0.8785  0.3388
 8817SOL    HW227351   0.766   0.944   2.823 -0.6349  1.8130  1.5448
 8818SOL     OW27352   0.503   4.062   3.878 -0.4568  0.2912 -0.2749
 8818SOL    HW127353   0.520   4.091   3.784 -0.9748  0.2128 -0.3924
 8818SOL    HW227354   0.405   4.064   3.897 -0.8614 -3.8823 -1.1381
 8819SOL     OW27355   0.605   6.290   0.330  0.2150 -0.3648 -0.2429
 8819SOL    HW127356   0.662   6.342   0.394 -0.7786  0.9910 -0.4004
 8819SOL    HW227357   0.539   6.352   0.288 -0.8030 -1.7238 -0.7036
 8820SOL     OW27358   4.388   6.167   3.529 -0.0744  0.2378  0.1400
 8820SOL    HW127359   4.396   6.249   3.586  0.5548  0.0264  0.3613
 8820SOL    HW227360   4.323   6.104   3.571  0.3472  0.1051  0.6131
 8821SOL     OW27361   2.033   0.311   0.627  0.3617 -0.2230  0.2108
 8821SOL    HW127362   2.113   0.358   0.591 -0.1991  1.9733  1.6294
 8821SOL    HW227363   2.056   0.268   0.715  0.2244 -0.4087  0.1567
 8822SOL     OW27364   3.252   2.028   4.628 -0.4145 -0.8821  0.1111
 8822SOL    HW127365   3.294   1.937   4.623  2.0146  0.1952 -3.4732
 8822SOL    HW227366   3.318   2.093   4.666 -1.9676 -0.4311  2.2167
 8823SOL     OW27367   3.706   0.178   2.389 -0.2298 -0.0030  0.0978
 8823SOL    HW127368   3.622   0.131   2.360 -0.4414  0.9451 -0.8914
 8823SOL    HW227369   3.745   0.226   2.311  1.4000 -0.6459  0.4832
 8824SOL     OW27370   3.677   0.707   4.555 -0.3334 -0.0588 -0.1678
 8824SOL    HW127371   3.714   0.628   4.505  1.5461  0.8159 -0.2512
 8824SOL    HW227372   3.657   0.780   4.490 -0.1318  0.2493  0.1199
 8825SOL     OW27373   0.159   1.698   5.463  0.0460  0.4694 -0.0156
 8825SOL    HW127374   0.206   1.655   5.541  0.8713  0.0937 -0.7030
 8825SOL    HW227375   0.065   1.719   5.489  0.4525  0.8391  1.2609
 8826SOL     OW27376   0.399   5.751   1.410 -0.2367  0.5683 -0.5610
 8826SOL    HW127377   0.331   5.698   1.358 -1.2460  0.5212  0.7535
 8826SOL    HW227378   0.382   5.848   1.396 -0.8793  0.5613  0.1191
 8827SOL     OW27379   1.280   0.992   4.408  0.0108 -0.6658 -1.0703
 8827SOL    HW127380   1.367   1.042   4.412  0.5110 -1.5262 -0.6729
 8827SOL    HW227381   1.286   0.922   4.337  0.3072 -1.8765  0.0946
 8828SOL     OW27382   4.187   6.023   6.633 -0.0766 -0.6793  0.0828
 8828SOL    HW127383   4.209   5.925   6.628  2.0748 -0.2228 -0.1273
 8828SOL    HW227384   4.165   6.046   6.728 -0.4790 -1.3267  0.1588
 8829SOL     OW27385   4.344   0.441   6.313 -0.4379 -0.5189 -0.5423
 8829SOL    HW127386   4.255   0.401   6.291 -0.3950 -0.3957 -0.9482
 8829SOL    HW227387   4.392   0.464   6.229  0.6398 -1.9970 -0.3647
 8830SOL     OW27388   3.460   5.753   2.144  0.2113 -0.4883 -0.1005
 8830SOL    HW127389   3.390   5.734   2.074 -1.4020 -0.2499  1.3719
 8830SOL    HW227390   3.551   5.740   2.105 -0.6395 -0.6993 -2.1327
 8831SOL     OW27391   6.186   3.705   2.994 -0.1054 -0.0064  0.6055
 8831SOL    HW127392   6.154   3.797   3.014  0.7602  0.5129 -0.2972
 8831SOL    HW227393   6.278   3.709   2.955 -1.1183 -1.0255 -2.1333
 8832SOL     OW27394   2.816   1.385   0.335  0.8140  0.4552 -0.2307
 8832SOL    HW127395   2.815   1.481   0.304  1.2341  0.5602  0.0739
 8832SOL    HW227396   2.746   1.334   0.285  0.9443  0.8036 -0.7842
 8833SOL     OW27397   7.017   3.486   3.611 -0.4690 -0.7629  0.4867
 8833SOL    HW127398   7.032   3.581   3.582  2.1678 -1.1568  0.3596
 8833SOL    HW227399   6.919   3.471   3.625 -1.1062  1.5443 -0.9437
 8834SOL     OW27400   1.980   0.408   0.994  0.1890  0.0032  0.2626
 8834SOL    HW127401   1.985   0.330   0.931 -0.7569 -0.0782  0.2723
 8834SOL    HW227402   2.034   0.388   1.076 -0.5920 -0.9511  0.5723
 8835SOL     OW27403   5.597   0.615   2.562 -0.2324  0.1491  0.1067
 8835SOL    HW127404   5.534   0.661   2.624  2.0488  2.1903  1.0783
 8835SOL    HW227405   5.580   0.647   2.468 -0.4925  0.8601  0.3907
 8836SOL     OW27406   3.132   2.870   1.833  0.5778  0.1346  0.1450
 8836SOL    HW127407   3.136   2.777   1.796  0.7826  0.3631 -0.4179
 8836SOL    HW227408   3.201   2.880   1.905  0.3179 -0.2517  0.4509
 8837SOL     OW27409   5.990   3.962   5.414 -0.2955  0.5763  0.2684
 8837SOL    HW127410   5.993   4.040   5.476 -1.0394  1.0591 -0.2745
 8837SOL    HW227411   5.901   3.917   5.421 -0.7836  1.2473 -1.1359
 8838SOL     OW27412   3.698   5.840   4.822 -0.2509 -0.0143 -0.2156
 8838SOL    HW127413   3.740   5.791   4.746  0.1933 -0.7890  0.5116
 8838SOL    HW227414   3.693   5.938   4.801  1.2559 -0.0099 -0.6153
 8839SOL     OW27415   4.131   0.643   1.456 -0.0629 -0.9583 -0.2698
 8839SOL    HW127416   4.225   0.647   1.488 -0.0212 -1.2344 -0.3523
 8839SOL    HW227417   4.107   0.728   1.410 -0.9864  0.5774  2.8581
 8840SOL     OW27418   4.335   6.693   2.764 -0.3429 -0.0689  0.2070
 8840SOL    HW127419   4.369   6.784   2.739 -0.4599 -0.0703  0.0421
 8840SOL    HW227420   4.353   6.677   2.861 -0.4664  0.1946  0.2737
 8841SOL     OW27421   2.202   5.242   0.632  0.0109  0.2570  0.2593
 8841SOL    HW127422   2.120   5.192   0.659  0.3310 -0.6078 -0.3190
 8841SOL    HW227423   2.278   5.178   0.619  0.8900  1.0793  1.1317
 8842SOL     OW27424   1.990   5.128   3.359 -0.6219 -0.5189 -0.1563
 8842SOL    HW127425   1.977   5.105   3.263 -0.4345  1.6163 -0.7447
 8842SOL    HW227426   1.902   5.156   3.399 -0.4208  0.2077 -0.1993
 8843SOL     OW27427   3.948   5.024   5.836  0.4483  0.2641 -0.1846
 8843SOL    HW127428   3.870   5.015   5.773 -1.1932  0.1087  1.7803
 8843SOL    HW227429   3.972   5.120   5.846  1.2839  0.2415 -1.6367
 8844SOL     OW27430   4.036   6.084   1.886  0.5262  0.7304 -0.2676
 8844SOL    HW127431   4.051   6.005   1.944 -0.6647  0.6780  0.0016
 8844SOL    HW227432   4.055   6.168   1.937  0.2192  0.6608 -0.0382
 8845SOL     OW27433   4.828   1.984   1.949 -0.0629 -0.2210  0.1794
 8845SOL    HW127434   4.892   2.030   2.010 -1.2778 -0.2558  1.5246
 8845SOL    HW227435   4.762   2.050   1.913 -1.4022 -0.7350  1.5942
 8846SOL     OW27436   4.258   0.983   5.896  0.6996 -0.1702  0.6560
 8846SOL    HW127437   4.287   0.952   5.805 -1.6670  1.2518 -0.6812
 8846SOL    HW227438   4.164   0.952   5.913  0.8474  0.2074  2.3325
 8847SOL     OW27439   4.743   1.935   6.599 -0.3007 -0.3645 -0.0460
 8847SOL    HW127440   4.822   1.889   6.640  0.7396  1.6984  0.3543
 8847SOL    HW227441   4.713   1.882   6.519  1.5749 -1.1325 -0.3155
 8848SOL     OW27442   6.123   0.444   5.329 -0.0201 -0.2782 -0.0547
 8848SOL    HW127443   6.030   0.461   5.297 -0.3778 -0.4162  0.8769
 8848SOL    HW227444   6.121   0.420   5.426  1.0977  1.0021  0.3176
 8849SOL     OW27445   1.433   5.712   1.223  0.0384 -0.2185 -0.5438
 8849SOL    HW127446   1.510   5.661   1.186  0.1357  0.1976 -0.9239
 8849SOL    HW227447   1.461   5.761   1.305 -0.5098 -2.2005  0.9056
 8850SOL     OW27448   3.746   3.864   0.805  0.5943 -0.3499  0.0776
 8850SOL    HW127449   3.771   3.801   0.878 -0.3174 -0.5225  0.2593
 8850SOL    HW227450   3.760   3.821   0.716 -0.0048 -0.8002  0.2007
 8851SOL     OW27451   3.113   6.044   6.063 -0.3085  0.0593  0.3298
 8851SOL    HW127452   3.166   5.984   6.002 -0.4066  1.0563 -0.7756
 8851SOL    HW227453   3.128   6.139   6.036 -1.4280  0.4369  1.0211
 8852SOL     OW27454   4.779   0.303   4.958  0.0138  0.6208  0.8146
 8852SOL    HW127455   4.761   0.401   4.947  0.6120  0.6209 -0.2658
 8852SOL    HW227456   4.707   0.263   5.014 -0.5182  1.5818  0.8498
 8853SOL     OW27457   6.830   4.944   3.387  0.3143 -0.2591 -0.5138
 8853SOL    HW127458   6.741   4.980   3.416  0.1582 -0.8119 -0.2893
 8853SOL    HW227459   6.884   4.919   3.467  1.4934  1.9356 -0.5442
 8854SOL     OW27460   1.092   3.064   6.705  1.1217 -0.5165 -0.0107
 8854SOL    HW127461   1.010   3.009   6.688  0.9113 -0.0212 -0.6478
 8854SOL    HW227462   1.137   3.032   6.788 -0.8849  0.5417  1.5951
 8855SOL     OW27463   2.538   6.415   0.765 -0.2099 -0.0944  0.7121
 8855SOL    HW127464   2.541   6.324   0.723  0.6242 -0.6543  1.9323
 8855SOL    HW227465   2.610   6.472   0.725 -1.1453  0.2748 -0.5245
 8856SOL     OW27466   6.267   1.430   5.683 -0.5172  0.2455  0.4767
 8856SOL    HW127467   6.293   1.495   5.754 -0.5386  0.8150 -0.0301
 8856SOL    HW227468   6.205   1.361   5.722 -0.3175  0.3950  1.0663
 8857SOL     OW27469   6.964   3.841   6.907 -0.0874 -0.1820  0.1480
 8857SOL    HW127470   7.059   3.861   6.928 -0.0034 -1.7862  1.5291
 8857SOL    HW227471   6.945   3.744   6.925 -1.9744  0.0851 -0.1316
 8858SOL     OW27472   5.338   1.761   4.571 -0.3551 -0.3388 -0.4518
 8858SOL    HW127473   5.384   1.717   4.494 -0.3825 -1.0991 -0.0464
 8858SOL    HW227474   5.406   1.784   4.641 -0.3493  0.2228 -0.6360
 8859SOL     OW27475   5.672   3.100   6.257 -0.3865  0.2956 -0.1306
 8859SOL    HW127476   5.672   3.047   6.342 -2.1316 -0.8715 -0.7927
 8859SOL    HW227477   5.717   3.047   6.185 -0.8496  0.3300 -0.4492
 8860SOL     OW27478   2.195   5.032   2.237 -0.5676  0.4310 -0.5259
 8860SOL    HW127479   2.215   5.119   2.282 -0.8435 -0.6431  1.8275
 8860SOL    HW227480   2.204   4.958   2.303 -1.1428 -1.2653 -2.2674
 8861SOL     OW27481   2.362   1.983   2.309  0.1623  0.0547 -0.0640
 8861SOL    HW127482   2.273   2.011   2.273  0.8715  0.0160 -1.9663
 8861SOL    HW227483   2.351   1.952   2.404 -1.8372  0.0348 -0.2447
 8862SOL     OW27484   3.829   6.060   3.116 -0.4763 -0.1386 -0.0676
 8862SOL    HW127485   3.736   6.050   3.151 -0.0645 -3.0043  0.4262
 8862SOL    HW227486   3.826   6.090   3.020 -1.8899 -0.3909 -0.1211
 8863SOL     OW27487   2.681   6.495   3.636  0.2622 -0.3172  0.4592
 8863SOL    HW127488   2.669   6.471   3.732  1.0984  1.4255  1.0436
 8863SOL    HW227489   2.704   6.592   3.629 -2.5800  0.3268 -1.7059
 8864SOL     OW27490   6.064   6.455   5.083  0.0563 -0.0230 -0.5695
 8864SOL    HW127491   6.046   6.541   5.131  0.3049 -0.6336  0.6524
 8864SOL    HW227492   6.141   6.468   5.020  1.5143  0.1121  1.1779
 8865SOL     OW27493   2.913   1.069   2.513 -0.6868 -0.5861 -0.0770
 8865SOL    HW127494   2.835   1.021   2.474 -0.7694 -0.2534 -0.3261
 8865SOL    HW227495   2.906   1.166   2.492 -0.1168 -0.5804 -0.2513
 8866SOL     OW27496   1.268   0.486   5.095  0.2471  0.0443  0.3555
 8866SOL    HW127497   1.333   0.538   5.151 -0.4824  1.3326  0.0398
 8866SOL    HW227498   1.193   0.453   5.153 -0.2938  1.0264  0.2385
 8867SOL     OW27499   2.315   5.753   4.483 -0.0593 -0.5110  0.0682
 8867SOL    HW127500   2.235   5.719   4.533 -1.8818  1.4574 -1.3830
 8867SOL    HW227501   2.293   5.839   4.438  2.2647 -0.9221 -2.0873
 8868SOL     OW27502   0.846   0.418   4.497  0.2233 -0.2421 -0.5992
 8868SOL    HW127503   0.753   0.445   4.523  0.6191  0.3595  0.2375
 8868SOL    HW227504   0.842   0.339   4.435 -0.7805 -1.6358  1.1537
 8869SOL     OW27505   2.742   1.333   3.991  0.5881  0.1654  0.2313
 8869SOL    HW127506   2.719   1.237   3.976  2.7346 -0.4916  0.7573
 8869SOL    HW227507   2.735   1.354   4.088  0.2416  0.5215  0.1320
 8870SOL     OW27508   0.016   1.131   3.782 -0.5818 -0.2605 -0.0653
 8870SOL    HW127509   0.019   1.043   3.735  1.5331  0.2122 -0.8944
 8870SOL    HW227510  -0.055   1.128   3.854 -1.8502 -1.9620 -1.3104
 8871SOL     OW27511   6.244   6.699   1.932  0.0273  0.2135 -0.1716
 8871SOL    HW127512   6.156   6.709   1.978  0.2739  2.1776 -0.0122
 8871SOL    HW227513   6.230   6.689   1.834 -0.4249 -1.8783  0.0679
 8872SOL     OW27514   3.027   2.967   6.696  0.2583 -0.2537 -0.3902
 8872SOL    HW127515   3.086   3.020   6.757 -1.8314  1.0534  0.6238
 8872SOL    HW227516   2.965   2.910   6.750 -0.8300  0.0028 -1.3240
 8873SOL     OW27517   0.965   4.238   5.615  0.1036  0.5123 -0.5080
 8873SOL    HW127518   0.885   4.224   5.557  0.4833 -0.8412 -0.7411
 8873SOL    HW227519   0.948   4.202   5.706 -0.1674  1.8244 -0.0173
 8874SOL     OW27520   5.862   4.423   4.597 -0.7554  0.5736  0.2009
 8874SOL    HW127521   5.857   4.523   4.603 -0.3462  0.5965  0.1719
 8874SOL    HW227522   5.837   4.384   4.686 -0.4467  0.7194  0.3533
 8875SOL     OW27523   0.905   4.834   3.574 -0.3074 -0.0780 -0.1311
 8875SOL    HW127524   0.943   4.926   3.586  2.8899 -1.2563 -0.1698
 8875SOL    HW227525   0.895   4.814   3.476 -1.9449  0.5272 -0.1106
 8876SOL     OW27526   1.828   3.495   2.908 -0.4195  0.4749 -0.3506
 8876SOL    HW127527   1.800   3.458   2.819 -0.1592 -0.3038 -0.1199
 8876SOL    HW227528   1.928   3.498   2.913 -0.3770 -1.2206  0.5756
 8877SOL     OW27529   2.414   2.728   4.917 -0.3174 -0.0408  0.1361
 8877SOL    HW127530   2.472   2.749   4.838 -0.9215  0.0189 -0.3066
 8877SOL    HW227531   2.391   2.812   4.966 -0.1707 -0.0428  0.2070
 8878SOL     OW27532   0.839   1.756   6.039 -0.3074 -0.4223 -0.4684
 8878SOL    HW127533   0.753   1.771   5.990 -0.2166 -2.5468 -1.3996
 8878SOL    HW227534   0.903   1.709   5.979  1.4452  0.8839  0.3047
 8879SOL     OW27535   2.675   5.657   1.460  0.1964 -0.1470  0.3394
 8879SOL    HW127536   2.598   5.646   1.397  0.3571 -1.7598  0.3731
 8879SOL    HW227537   2.761   5.655   1.409  0.2905 -0.5120  0.5082
 8880SOL     OW27538   4.946   6.278   2.856 -0.1538 -0.5137 -0.0361
 8880SOL    HW127539   4.941   6.208   2.927  0.6703 -0.1276  0.4183
 8880SOL    HW227540   4.869   6.267   2.793  0.9833 -3.0457 -1.1214
 8881SOL     OW27541   3.687   0.718   4.233 -0.4368 -0.5258  0.3185
 8881SOL    HW127542   3.599   0.766   4.230 -1.3754 -2.1625  0.4274
 8881SOL    HW227543   3.676   0.625   4.197  0.3992 -2.0047  3.5126
 8882SOL     OW27544   3.833   3.483   6.657 -0.3750  0.1705 -0.4547
 8882SOL    HW127545   3.760   3.421   6.684 -2.7064  2.6484 -0.6500
 8882SOL    HW227546   3.816   3.515   6.564  0.3516  1.6251 -0.1101
 8883SOL     OW27547   5.842   3.396   2.126 -0.7325 -0.3264  0.1161
 8883SOL    HW127548   5.798   3.454   2.194 -0.3531  0.0759  0.0212
 8883SOL    HW227549   5.910   3.337   2.171 -0.2711  0.1490  0.0463
 8884SOL     OW27550   5.690   1.439   2.354  0.0291 -0.3625 -0.2501
 8884SOL    HW127551   5.705   1.495   2.435 -0.9509 -0.3520 -0.0628
 8884SOL    HW227552   5.778   1.415   2.313  0.5465 -0.4722  0.8815
 8885SOL     OW27553   3.576   3.714   6.325  0.3035  0.2766 -0.1301
 8885SOL    HW127554   3.566   3.811   6.347  1.1934  0.8285 -1.9558
 8885SOL    HW227555   3.670   3.685   6.343 -0.5330 -0.9614  2.7883
 8886SOL     OW27556   3.071   5.236   0.644  0.2406  0.0178 -0.1536
 8886SOL    HW127557   3.159   5.251   0.598 -0.8086 -0.6036 -2.5427
 8886SOL    HW227558   2.998   5.277   0.588 -1.3959 -2.9698 -0.3899
 8887SOL     OW27559   5.174   3.828   4.548 -0.5303  0.1262  0.6865
 8887SOL    HW127560   5.201   3.788   4.461  0.5623  0.0076  1.0641
 8887SOL    HW227561   5.244   3.810   4.617 -1.5163 -0.0557  1.6840
 8888SOL     OW27562   3.486   3.091   1.162  0.0596  0.8649 -0.0431
 8888SOL    HW127563   3.408   3.042   1.123 -0.5837  1.5723  0.3092
 8888SOL    HW227564   3.570   3.043   1.140 -0.3592  0.7491 -1.5114
 8889SOL     OW27565   0.823   2.404   5.454  0.8733  0.1649 -0.0130
 8889SOL    HW127566   0.855   2.496   5.477 -1.7550  0.8349  1.4023
 8889SOL    HW227567   0.780   2.406   5.363 -0.7386  0.8288  0.7233
 8890SOL     OW27568   1.778   4.516   5.194  0.0924  0.0647 -0.5212
 8890SOL    HW127569   1.756   4.556   5.283  0.4657  0.2699 -0.5150
 8890SOL    HW227570   1.852   4.450   5.205 -0.1631 -0.2342 -0.6134
 8891SOL     OW27571   6.884   4.412   2.926  0.6869  0.4111 -0.2144
 8891SOL    HW127572   6.827   4.494   2.917  1.5555  0.9941 -0.5854
 8891SOL    HW227573   6.843   4.351   2.994 -0.4125  0.7688 -0.5299
 8892SOL     OW27574   0.589   5.365   5.087 -0.1947 -0.3232  0.4333
 8892SOL    HW127575   0.495   5.364   5.120 -0.7044 -0.3549 -0.9889
 8892SOL    HW227576   0.611   5.276   5.047 -0.4272  0.4923 -1.5828
 8893SOL     OW27577   0.816   5.814   5.536  0.0210  0.2348  0.2138
 8893SOL    HW127578   0.895   5.760   5.507 -0.4371 -1.4964  1.9604
 8893SOL    HW227579   0.837   5.911   5.527  2.5227 -0.1694  0.9539
 8894SOL     OW27580   6.889   3.330   5.428  0.5374 -0.0600 -1.0794
 8894SOL    HW127581   6.932   3.243   5.451 -1.1915 -0.2301  2.0489
 8894SOL    HW227582   6.820   3.316   5.357  1.6915 -0.7800 -2.1089
 8895SOL     OW27583   6.475   4.397   0.862 -0.2255  0.1004  0.0736
 8895SOL    HW127584   6.426   4.380   0.776  1.4926 -0.6002 -0.8292
 8895SOL    HW227585   6.473   4.495   0.883 -1.3893  0.1693 -0.3075
 8896SOL     OW27586   3.929   0.632   2.290 -0.8368  0.1878 -0.4357
 8896SOL    HW127587   3.839   0.631   2.334 -0.4365  0.5497  0.4302
 8896SOL    HW227588   3.986   0.561   2.330 -1.2782 -1.2347 -2.2208
 8897SOL     OW27589   7.003   0.765   6.920  0.3222 -0.0358 -0.1218
 8897SOL    HW127590   6.965   0.677   6.947 -0.3745  0.3481  0.1752
 8897SOL    HW227591   7.091   0.751   6.874  0.0926 -0.9016 -0.3147
 8898SOL     OW27592   1.535   4.221   2.717  0.2025  0.1278  0.4148
 8898SOL    HW127593   1.609   4.266   2.767  1.6020 -0.8542 -0.6815
 8898SOL    HW227594   1.554   4.224   2.619 -1.4265  0.1902  0.0738
 8899SOL     OW27595   5.554   5.564   6.594  0.3449 -0.2481 -0.0296
 8899SOL    HW127596   5.608   5.606   6.666  0.8510 -1.1721  0.1429
 8899SOL    HW227597   5.475   5.622   6.573  0.7605  0.5343  0.5304
 8900SOL     OW27598   2.391   0.705   0.731  0.9516 -0.3011 -0.5501
 8900SOL    HW127599   2.413   0.684   0.636  1.0276 -0.0191 -0.5956
 8900SOL    HW227600   2.362   0.801   0.739 -1.1283 -0.8670 -0.6416
 8901SOL     OW27601   5.710   5.278   1.471  0.0131  0.1278 -0.5893
 8901SOL    HW127602   5.746   5.349   1.531 -0.1016 -0.6536  0.4361
 8901SOL    HW227603   5.690   5.317   1.381  0.0717  1.3531 -0.0887
 8902SOL     OW27604   5.339   1.035   6.595 -0.4479 -0.3256 -0.2617
 8902SOL    HW127605   5.352   0.940   6.623 -0.5826  0.1619  1.5955
 8902SOL    HW227606   5.407   1.093   6.640 -1.2350  0.6343 -0.2688
 8903SOL     OW27607   1.405   6.747   0.401 -0.0823  0.5882 -0.3468
 8903SOL    HW127608   1.316   6.733   0.357  0.2111 -0.6436 -0.5878
 8903SOL    HW227609   1.464   6.801   0.341 -0.1998  0.2016 -0.8176
 8904SOL     OW27610   0.729   3.856   3.064  0.6163  0.7881 -0.2424
 8904SOL    HW127611   0.652   3.840   3.126 -0.6980  0.1739 -1.9588
 8904SOL    HW227612   0.802   3.903   3.113  0.3933 -1.2398  2.2638
 8905SOL     OW27613   0.354   5.448   2.745 -0.0996  0.1253 -0.2577
 8905SOL    HW127614   0.362   5.440   2.845  1.9616 -0.7329 -0.4422
 8905SOL    HW227615   0.424   5.511   2.711 -1.3724  1.1129 -1.1043
 8906SOL     OW27616   5.857   1.169   1.427 -0.1643  0.4909  0.1606
 8906SOL    HW127617   5.890   1.240   1.489  1.0785  1.0157 -1.0654
 8906SOL    HW227618   5.799   1.211   1.357 -1.5625 -0.1009  0.9026
 8907SOL     OW27619   2.863   3.407   2.390 -0.8640  0.3258  0.1573
 8907SOL    HW127620   2.769   3.415   2.357  0.1786  4.2211 -2.5653
 8907SOL    HW227621   2.873   3.455   2.477 -1.1417  1.0799 -0.2239
 8908SOL     OW27622   5.571   3.518   0.929  0.0755  0.1839  0.1943
 8908SOL    HW127623   5.578   3.611   0.964 -0.6657  0.6184 -0.7643
 8908SOL    HW227624   5.628   3.457   0.985  0.1702  1.1091  1.1486
 8909SOL     OW27625   2.895   4.775   0.042  0.2665  0.2517  0.1570
 8909SOL    HW127626   2.814   4.783  -0.016 -0.8461 -1.8739  1.3075
 8909SOL    HW227627   2.916   4.678   0.057  1.5997  0.7524  1.8209
 8910SOL     OW27628   6.922   6.644   0.356 -0.6025 -0.1949 -0.5974
 8910SOL    HW127629   6.933   6.740   0.383 -0.1206  0.0750 -1.6698
 8910SOL    HW227630   6.923   6.586   0.437 -0.4157  0.6628  0.0311
 8911SOL     OW27631   3.870   2.236   6.982 -0.2665  0.3873  0.5628
 8911SOL    HW127632   3.901   2.179   7.058  2.2885  0.1961 -0.5037
 8911SOL    HW227633   3.915   2.205   6.898 -2.3015  1.1617 -0.8956
 8912SOL     OW27634   2.335   6.879   4.552  0.0925  0.3321  0.0467
 8912SOL    HW127635   2.261   6.895   4.486 -1.3887 -0.4442  1.4538
 8912SOL    HW227636   2.300   6.890   4.645  1.2512 -1.9648  0.8188
 8913SOL     OW27637   3.160   2.706   5.792  0.2951  0.8865 -0.2882
 8913SOL    HW127638   3.183   2.804   5.790 -0.9646  1.1825 -1.0765
 8913SOL    HW227639   3.100   2.688   5.870  1.1860  0.5735  0.3379
 8914SOL     OW27640   0.204   2.750   5.520 -0.9808  0.7670  0.0406
 8914SOL    HW127641   0.191   2.830   5.461 -0.7097  0.5482 -0.3190
 8914SOL    HW227642   0.184   2.667   5.468  1.0613  0.4572 -0.3203
 8915SOL     OW27643   2.614   1.784   6.429 -0.0384 -0.0662  0.0959
 8915SOL    HW127644   2.582   1.765   6.336 -0.7212  1.1605  0.0638
 8915SOL    HW227645   2.589   1.877   6.455  1.6903  0.2112  0.8751
 8916SOL     OW27646   5.804   6.897   3.578  0.3564 -0.2032 -0.3393
 8916SOL    HW127647   5.857   6.921   3.497  1.2289  1.0042  0.5438
 8916SOL    HW227648   5.813   6.970   3.646 -1.9777 -0.2425  0.0898
 8917SOL     OW27649   1.281   0.100   2.095 -0.0253 -0.2044  0.0119
 8917SOL    HW127650   1.309   0.195   2.084 -1.6096  0.4140  0.9553
 8917SOL    HW227651   1.360   0.044   2.118  1.0440  0.7399 -1.2216
 8918SOL     OW27652   3.390   6.240   2.655  0.2427 -0.3926  0.1289
 8918SOL    HW127653   3.348   6.164   2.705 -0.1293  0.1395  0.6397
 8918SOL    HW227654   3.399   6.215   2.558 -0.6267 -0.7834  0.1363
 8919SOL     OW27655   0.882   4.202   0.739 -0.1868  0.4506 -0.6373
 8919SOL    HW127656   0.846   4.124   0.687  1.9202 -0.9318 -0.1585
 8919SOL    HW227657   0.930   4.264   0.677 -2.4951  1.8826 -1.1459
 8920SOL     OW27658   5.386   2.198   6.960  0.0352  0.4374 -0.2041
 8920SOL    HW127659   5.393   2.205   6.860 -0.0677  3.8557 -0.0826
 8920SOL    HW227660   5.292   2.173   6.985  0.4954 -2.3782 -0.8978
 8921SOL     OW27661   1.240   4.694   5.198 -0.1752 -0.1620  0.2300
 8921SOL    HW127662   1.251   4.595   5.208  1.1510  0.0477  1.0662
 8921SOL    HW227663   1.236   4.717   5.101  4.5181 -0.6124 -0.3080
 8922SOL     OW27664   6.679   3.858   3.829  0.6690  0.2870  0.3008
 8922SOL    HW127665   6.583   3.883   3.840  0.6570  0.7974 -0.7654
 8922SOL    HW227666   6.733   3.941   3.819  1.1586 -0.0164  0.4254
 8923SOL     OW27667   0.335   4.163   0.305  0.3624  0.2531  0.8929
 8923SOL    HW127668   0.380   4.100   0.243  1.8778 -0.9324  3.0608
 8923SOL    HW227669   0.400   4.194   0.374 -1.4413  0.7944  2.4371
 8924SOL     OW27670   4.533   0.115   2.362  0.3207 -0.7145  0.3601
 8924SOL    HW127671   4.550   0.031   2.309 -0.7772 -0.2905 -0.7120
 8924SOL    HW227672   4.474   0.176   2.309  0.2617  0.3040  1.5613
 8925SOL     OW27673   6.272   4.445   2.236 -0.2636  0.0161  0.3155
 8925SOL    HW127674   6.303   4.517   2.174  0.8825 -0.2223  0.6058
 8925SOL    HW227675   6.193   4.398   2.195 -0.0247  0.3866 -0.5962
 8926SOL     OW27676   2.912   5.585   2.541  0.5147 -0.7759 -0.3561
 8926SOL    HW127677   2.951   5.660   2.487 -1.5688  0.6732  0.0334
 8926SOL    HW227678   2.940   5.497   2.502  2.1098  0.1979 -1.5024
 8927SOL     OW27679   6.919   1.875   5.226 -0.1649  0.1138 -0.2944
 8927SOL    HW127680   6.866   1.947   5.182  0.7238  0.8289 -0.2318
 8927SOL    HW227681   6.908   1.880   5.325 -0.1683  0.1090 -0.2947
 8928SOL     OW27682   0.675   1.460   2.347 -0.2463 -0.3221 -0.6288
 8928SOL    HW127683   0.578   1.436   2.344 -0.6005  1.1663 -2.0836
 8928SOL    HW227684   0.697   1.494   2.439 -1.5842  1.1429 -0.8069
 8929SOL     OW27685   0.053   5.496   5.222 -0.7068  0.5334  0.4519
 8929SOL    HW127686  -0.006   5.557   5.169 -0.4289 -0.1501 -0.6698
 8929SOL    HW227687   0.009   5.408   5.234  0.6184 -0.4998 -1.6722
 8930SOL     OW27688   1.864   6.205   1.912  0.0737 -0.6451 -0.3870
 8930SOL    HW127689   1.857   6.260   1.829  2.4362 -0.9991 -0.9141
 8930SOL    HW227690   1.856   6.265   1.992  0.4172  0.1343 -0.9213
 8931SOL     OW27691   6.506   1.593   6.449  0.6581 -0.2735  0.4011
 8931SOL    HW127692   6.520   1.504   6.405  0.3160  1.5141 -3.8222
 8931SOL    HW227693   6.569   1.659   6.409 -1.2088  2.0419  1.0786
 8932SOL     OW27694   0.196   6.824   2.233 -0.7958  0.3116  0.2937
 8932SOL    HW127695   0.231   6.730   2.239 -0.9383  0.2095 -0.4185
 8932SOL    HW227696   0.138   6.842   2.313 -0.0651  0.0949  0.8858
 8933SOL     OW27697   1.407   1.176   5.318 -0.6885 -0.1202 -0.2710
 8933SOL    HW127698   1.505   1.195   5.317 -0.3428 -1.2739  2.5608
 8933SOL    HW227699   1.385   1.111   5.245  0.8215 -0.4486 -0.4648
 8934SOL     OW27700   2.881   5.090   5.102  0.8813 -0.4864 -0.5730
 8934SOL    HW127701   2.924   5.153   5.166  0.4910  0.9763 -1.6884
 8934SOL    HW227702   2.854   5.006   5.150 -0.8603  1.1720  1.5635
 8935SOL     OW27703   0.015   3.145   2.891 -0.1974  0.1974  0.0454
 8935SOL    HW127704   0.023   3.198   2.807 -0.5200 -1.7340 -1.2922
 8935SOL    HW227705  -0.074   3.162   2.934  0.8868  3.0086  1.3854
 8936SOL     OW27706   2.503   3.572   0.922  0.2783  0.0172  0.2948
 8936SOL    HW127707   2.513   3.671   0.912  0.8210 -0.0432  0.1981
 8936SOL    HW227708   2.468   3.534   0.837 -3.5861  0.5612  1.4713
 8937SOL     OW27709   0.038   3.656   5.717 -0.4772 -0.2266 -0.6321
 8937SOL    HW127710  -0.035   3.588   5.714  0.3174 -1.0995 -0.6957
 8937SOL    HW227711   0.084   3.652   5.806  1.4159 -1.7896 -1.6087
 8938SOL     OW27712   4.021   0.963   4.035  0.0421  0.1193  0.6284
 8938SOL    HW127713   3.951   0.955   4.106 -1.3126  1.0850 -0.5251
 8938SOL    HW227714   4.030   0.875   3.988  0.9967 -0.5395  2.0074
 8939SOL     OW27715   6.643   2.752   3.986  0.0758  0.1438  0.6148
 8939SOL    HW127716   6.656   2.653   3.991  2.7437  0.4468  1.0956
 8939SOL    HW227717   6.550   2.772   3.956 -0.6874 -2.4844  0.9931
 8940SOL     OW27718   5.440   4.212   6.843 -0.1965  0.1291  0.2970
 8940SOL    HW127719   5.431   4.115   6.821  0.6027 -0.1525  1.1589
 8940SOL    HW227720   5.534   4.242   6.827 -0.2975  0.6151  0.5771
 8941SOL     OW27721   5.624   3.339   4.527  0.4197  0.4769  0.4343
 8941SOL    HW127722   5.592   3.430   4.551 -0.2652  1.1164 -2.5333
 8941SOL    HW227723   5.723   3.340   4.513  0.2178  1.2168 -1.1526
 8942SOL     OW27724   5.280   3.457   6.568  0.3531  0.4321  0.2528
 8942SOL    HW127725   5.295   3.393   6.493 -2.2077 -0.5063  0.4681
 8942SOL    HW227726   5.308   3.415   6.655  1.9861  0.9951  0.0398
 8943SOL     OW27727   2.131   2.577   5.877 -0.1618 -0.1725  0.1134
 8943SOL    HW127728   2.132   2.667   5.921 -0.1652 -0.1488  0.0653
 8943SOL    HW227729   2.219   2.533   5.889  0.0557  0.1091 -0.4242
 8944SOL     OW27730   5.134   6.333   1.286 -0.2199 -0.0404 -0.1965
 8944SOL    HW127731   5.199   6.311   1.213  1.6964 -0.5278  1.5797
 8944SOL    HW227732   5.153   6.425   1.320  2.2163 -1.5154  2.8909
 8945SOL     OW27733   0.446   3.281   1.091 -0.2039  0.3869  0.4282
 8945SOL    HW127734   0.359   3.311   1.051 -0.3647  0.9329  1.1547
 8945SOL    HW227735   0.453   3.316   1.185  0.4836 -0.2504  0.6262
 8946SOL     OW27736   0.118   6.723   4.130  0.3241  0.1741 -0.9984
 8946SOL    HW127737   0.211   6.708   4.097 -0.3285 -2.1078 -2.0033
 8946SOL    HW227738   0.053   6.704   4.057 -0.9684  2.4789 -0.5451
 8947SOL     OW27739   0.777   5.803   6.448 -0.3863  0.4260 -0.3750
 8947SOL    HW127740   0.828   5.747   6.513 -1.5479 -0.8195 -0.5004
 8947SOL    HW227741   0.810   5.786   6.356  0.3896  1.2290 -0.2594
 8948SOL     OW27742   4.870   3.726   6.535 -0.0855  0.1512  0.4712
 8948SOL    HW127743   4.809   3.757   6.607 -0.2103  0.5839  0.1822
 8948SOL    HW227744   4.826   3.653   6.483 -1.0285  1.5244 -0.7367
 8949SOL     OW27745   1.024   3.284   2.217 -0.2968  0.2589  0.0829
 8949SOL    HW127746   0.976   3.244   2.139 -0.5212  2.5424 -1.0248
 8949SOL    HW227747   1.111   3.323   2.187 -0.0219  0.5140  1.1444
 8950SOL     OW27748   2.452   6.168   1.686 -0.3183 -0.3736  0.1341
 8950SOL    HW127749   2.435   6.100   1.614  0.5068  0.2158 -0.6347
 8950SOL    HW227750   2.537   6.146   1.733 -0.7250 -0.6095  0.7915
 8951SOL     OW27751   3.821   1.173   3.710 -0.4511 -0.0861  0.0689
 8951SOL    HW127752   3.724   1.156   3.728 -1.0137  1.8991 -0.8573
 8951SOL    HW227753   3.869   1.182   3.797 -0.8249 -2.2337  0.5592
 8952SOL     OW27754   5.045   2.752   4.198 -0.3517 -0.0148 -0.0722
 8952SOL    HW127755   5.131   2.803   4.206 -0.5651  0.3100  0.2046
 8952SOL    HW227756   5.038   2.688   4.274 -1.0035  0.9647  0.7229
 8953SOL     OW27757   3.036   5.510   2.829  0.2814  0.3171  0.0392
 8953SOL    HW127758   3.135   5.502   2.820  0.1343 -0.9596 -0.6239
 8953SOL    HW227759   2.995   5.522   2.739 -0.3357 -1.7089 -0.0069
 8954SOL     OW27760   2.143   0.276   4.206 -0.2039  0.8035  0.1949
 8954SOL    HW127761   2.181   0.291   4.298  0.3740 -0.5343  0.1997
 8954SOL    HW227762   2.209   0.307   4.137 -0.1387  0.7316  0.2249
 8955SOL     OW27763   4.758   3.238   1.664 -0.1408  0.2125  0.0186
 8955SOL    HW127764   4.844   3.230   1.713 -0.6496 -1.8320  0.7022
 8955SOL    HW227765   4.683   3.210   1.725 -1.1715  0.9796 -0.8678
 8956SOL     OW27766   4.164   5.646   1.955 -0.1277 -0.2021  0.2122
 8956SOL    HW127767   4.179   5.686   1.864  3.3735 -0.7568  0.3957
 8956SOL    HW227768   4.094   5.575   1.950 -0.3573  0.1182 -1.9475
 8957SOL     OW27769   0.226   1.976   1.032  0.1055 -0.1932  0.5403
 8957SOL    HW127770   0.287   1.903   1.061 -1.5170 -1.3053  1.2937
 8957SOL    HW227771   0.189   1.956   0.941 -0.0585 -0.1182  0.5889
 8958SOL     OW27772   0.223   2.539   0.693  0.1892 -0.5084 -0.5680
 8958SOL    HW127773   0.286   2.493   0.755 -0.5429 -1.8156 -0.7570
 8958SOL    HW227774   0.265   2.623   0.657  0.9811 -0.2422  0.9348
 8959SOL     OW27775   6.403   4.985   6.261 -0.2543 -0.6922 -0.0434
 8959SOL    HW127776   6.470   4.950   6.327  2.0995  0.6133 -1.6017
 8959SOL    HW227777   6.426   4.951   6.170  0.0694  2.0383 -1.0688
 8960SOL     OW27778   3.277   1.450   1.024 -0.0892 -0.1996 -0.0147
 8960SOL    HW127779   3.198   1.423   1.079 -0.5293  0.7180 -0.1885
 8960SOL    HW227780   3.253   1.526   0.964  0.5837 -0.7334 -0.9949
 8961SOL     OW27781   4.996   5.168   0.484 -0.1018  0.2125 -0.4088
 8961SOL    HW127782   5.090   5.151   0.456  0.0336  1.3031 -0.6600
 8961SOL    HW227783   4.944   5.207   0.408 -0.8137 -0.5687 -0.3361
 8962SOL     OW27784   3.891   0.630   3.577  0.0117  0.3557  0.1531
 8962SOL    HW127785   3.864   0.720   3.613  0.9597  0.7321 -0.0587
 8962SOL    HW227786   3.844   0.614   3.490 -0.0548  0.7082  0.1216
 8963SOL     OW27787   0.506   0.616   4.786  0.2860 -0.0303 -0.2625
 8963SOL    HW127788   0.459   0.554   4.849 -1.8083  2.0143  0.3138
 8963SOL    HW227789   0.564   0.678   4.838  1.4843 -0.7273 -0.7345
 8964SOL     OW27790   0.159   4.134   6.885  0.3134 -0.4817  0.3653
 8964SOL    HW127791   0.159   4.051   6.940  0.4681 -1.6218 -1.2775
 8964SOL    HW227792   0.075   4.140   6.832  1.1274 -0.6681 -1.0148
 8965SOL     OW27793   0.190   5.054   1.676  0.0749 -0.0292  0.2549
 8965SOL    HW127794   0.217   5.037   1.581  2.0236  0.1072  0.7449
 8965SOL    HW227795   0.228   4.984   1.735  0.7751  1.1081  1.2015
 8966SOL     OW27796   1.696   3.029   4.929  0.4929  0.5021  0.6218
 8966SOL    HW127797   1.758   3.007   5.005 -1.5487 -3.2960  1.4754
 8966SOL    HW227798   1.746   3.022   4.843  2.2170  2.0961  1.4229
 8967SOL     OW27799   2.921   1.101   5.488 -0.0081  0.0882 -0.2773
 8967SOL    HW127800   2.992   1.093   5.559  1.0455  0.2998 -1.2797
 8967SOL    HW227801   2.932   1.187   5.440 -2.4738  1.2853  1.1078
 8968SOL     OW27802   6.202   6.554   0.012  0.4042  0.4608  0.8116
 8968SOL    HW127803   6.291   6.509   0.022  1.1321  1.1054 -1.8442
 8968SOL    HW227804   6.204   6.642   0.059  0.7406 -0.0428  1.7615
 8969SOL     OW27805   2.248   2.198   4.982  0.7277  0.5095 -0.2826
 8969SOL    HW127806   2.270   2.206   4.885  0.1288  0.0408 -0.4616
 8969SOL    HW227807   2.304   2.128   5.024  0.3224  0.0488 -0.5045
 8970SOL     OW27808   5.213   4.805   5.786 -0.1863  0.1759  0.0454
 8970SOL    HW127809   5.129   4.859   5.775  0.5026  1.2375 -0.2239
 8970SOL    HW227810   5.287   4.848   5.734  0.6926 -0.3527  0.8197
 8971SOL     OW27811   2.714   3.778   6.516  0.1382  0.0720  0.5911
 8971SOL    HW127812   2.712   3.842   6.439  2.4788 -0.0498  0.3454
 8971SOL    HW227813   2.626   3.732   6.523 -0.8237  1.5905 -0.7014
 8972SOL     OW27814   6.324   4.060   6.073 -1.0287  0.3918 -0.0582
 8972SOL    HW127815   6.234   4.093   6.101 -1.5718 -0.4473 -0.7506
 8972SOL    HW227816   6.319   4.023   5.980 -0.1810 -0.5158  0.2313
 8973SOL     OW27817   0.784   2.910   1.162  0.1677  0.4903  0.3606
 8973SOL    HW127818   0.739   2.980   1.106  2.3323  0.6494 -1.2946
 8973SOL    HW227819   0.742   2.821   1.144  0.6956  0.5698 -1.4506
 8974SOL     OW27820   4.384   2.773   5.505  0.4202  0.5640 -0.2992
 8974SOL    HW127821   4.288   2.758   5.525  0.9561 -0.5630  1.7316
 8974SOL    HW227822   4.411   2.716   5.427 -0.2021 -0.3430  0.1326
 8975SOL     OW27823   2.941   0.528   1.310  0.4246  0.2191 -0.2844
 8975SOL    HW127824   2.887   0.612   1.319  0.1811  0.1249 -0.8145
 8975SOL    HW227825   2.879   0.451   1.293  0.6988  0.0497 -0.5270
 8976SOL     OW27826   3.542   3.503   2.308 -0.0411  0.1620  0.0120
 8976SOL    HW127827   3.495   3.425   2.350 -1.1711  0.7535 -0.1161
 8976SOL    HW227828   3.564   3.481   2.213 -0.3260 -0.0193 -0.0137
 8977SOL     OW27829   5.684   2.720   3.243  0.3000 -0.4046 -0.0102
 8977SOL    HW127830   5.598   2.740   3.195  0.1285 -1.5808 -0.2117
 8977SOL    HW227831   5.712   2.626   3.224  0.9875 -0.4304  1.0699
 8978SOL     OW27832   5.817   4.708   0.100 -0.1598  0.2460  0.3570
 8978SOL    HW127833   5.741   4.769   0.121 -1.1481 -0.8527  0.0358
 8978SOL    HW227834   5.818   4.633   0.166  0.2771 -0.0839 -0.0211
 8979SOL     OW27835   5.209   7.009   6.123  0.2009 -0.3170 -0.2726
 8979SOL    HW127836   5.205   6.943   6.197 -0.8974 -0.3631 -0.3590
 8979SOL    HW227837   5.305   7.025   6.097  0.6517  0.2115  1.5822
 8980SOL     OW27838   0.835   5.832   3.376 -0.2612  0.3839  0.1439
 8980SOL    HW127839   0.898   5.799   3.446 -0.0698  1.5886  0.5729
 8980SOL    HW227840   0.815   5.759   3.311 -2.3023 -1.5276  2.7198
 8981SOL     OW27841   5.491   5.922   2.523 -0.3135 -0.7819 -0.6432
 8981SOL    HW127842   5.480   5.824   2.505  1.3703 -0.9286 -1.0474
 8981SOL    HW227843   5.566   5.958   2.468 -0.1508  0.4858  0.3559
 8982SOL     OW27844   4.509   2.121   2.990  0.2048  0.2555  0.3886
 8982SOL    HW127845   4.469   2.202   3.033 -2.8556 -0.9888  0.1846
 8982SOL    HW227846   4.477   2.039   3.038  0.6938 -0.9591 -1.2768
 8983SOL     OW27847   0.575   6.893   4.350 -0.1829 -0.1325  0.4303
 8983SOL    HW127848   0.636   6.971   4.333  0.4607 -0.8580 -0.7770
 8983SOL    HW227849   0.609   6.842   4.429 -0.2952  0.4897  0.8917
 8984SOL     OW27850   6.887   2.756   1.723  0.3565 -0.1784  0.1965
 8984SOL    HW127851   6.984   2.739   1.739  0.7380  2.0335  0.6220
 8984SOL    HW227852   6.845   2.790   1.807 -0.8902 -1.3810  0.1015
 8985SOL     OW27853   6.885   5.420   6.873  0.4850  0.1179 -0.2736
 8985SOL    HW127854   6.921   5.334   6.837  2.5624  0.7139  0.2178
 8985SOL    HW227855   6.834   5.402   6.957 -0.8920 -0.8265 -1.2729
 8986SOL     OW27856   0.810   0.730   0.696 -0.3243  0.0067 -0.2181
 8986SOL    HW127857   0.855   0.647   0.728 -1.8215 -0.8296 -0.2017
 8986SOL    HW227858   0.870   0.809   0.712  0.8112 -0.9685  0.4505
 8987SOL     OW27859   4.291   6.659   1.920 -0.1471 -0.3836 -0.1046
 8987SOL    HW127860   4.380   6.612   1.917 -0.0077 -0.1037 -0.3283
 8987SOL    HW227861   4.224   6.607   1.867 -0.1746 -0.7137  0.2487
 8988SOL     OW27862   4.713   2.198   3.194  0.3462 -0.2553  0.6317
 8988SOL    HW127863   4.708   2.177   3.096 -0.0504 -0.4964  0.7004
 8988SOL    HW227864   4.696   2.114   3.246 -3.2779  0.5063  0.9427
 8989SOL     OW27865   2.533   6.132   6.590  0.2835 -0.2909  0.4781
 8989SOL    HW127866   2.595   6.076   6.535 -0.0060  0.0928 -0.2595
 8989SOL    HW227867   2.552   6.229   6.573 -0.4285 -0.1684  0.3344
 8990SOL     OW27868   1.910   6.024   2.221 -0.1950  0.0826 -0.4222
 8990SOL    HW127869   1.817   5.993   2.200  0.1026 -0.3782 -1.0811
 8990SOL    HW227870   1.974   5.949   2.205  0.2099  0.1439  0.7935
 8991SOL     OW27871   2.705   5.705   4.043 -0.2067  0.0554  0.0843
 8991SOL    HW127872   2.612   5.703   4.007 -0.1428  2.7223 -0.4444
 8991SOL    HW227873   2.709   5.767   4.121  1.3876  1.2341 -0.8662
 8992SOL     OW27874   3.940   6.976   2.138  0.0912 -0.0921  0.6146
 8992SOL    HW127875   4.010   6.905   2.141  1.0878  0.8674  2.9165
 8992SOL    HW227876   3.855   6.942   2.178  0.6109  0.0173  1.8502
 8993SOL     OW27877   0.389   6.710   0.400 -0.2953 -0.2670  0.8151
 8993SOL    HW127878   0.386   6.777   0.326  0.4278 -1.0610  0.0415
 8993SOL    HW227879   0.322   6.735   0.471 -1.8775 -0.1451 -0.6563
 8994SOL     OW27880   4.978   0.662   1.576 -0.2415  0.2199  0.0954
 8994SOL    HW127881   4.991   0.654   1.477  1.3946  1.4727  0.1699
 8994SOL    HW227882   4.937   0.750   1.597 -0.1659  0.1432  0.5733
 8995SOL     OW27883   6.418   0.191   4.669 -0.2243  0.0891 -0.7458
 8995SOL    HW127884   6.487   0.140   4.720 -0.9812 -2.8458 -2.4167
 8995SOL    HW227885   6.336   0.203   4.726  0.1013 -0.2356 -0.1999
 8996SOL     OW27886   3.257   0.354   3.309  0.2237  0.2295 -0.4880
 8996SOL    HW127887   3.185   0.404   3.261  0.2238  0.6252 -0.0765
 8996SOL    HW227888   3.290   0.280   3.250  0.5514  0.9954 -1.2958
 8997SOL     OW27889   6.688   1.396   3.654 -0.0945 -0.3254  0.3072
 8997SOL    HW127890   6.779   1.361   3.632 -0.3524 -0.8258  0.0136
 8997SOL    HW227891   6.670   1.478   3.601  0.5405  0.3115  1.0460
 8998SOL     OW27892   3.878   2.748   0.407 -0.0070  0.1041 -0.3181
 8998SOL    HW127893   3.889   2.737   0.308  1.4640  2.1158 -0.4484
 8998SOL    HW227894   3.822   2.829   0.425  1.4186  0.9556  0.4580
 8999SOL     OW27895   5.492   0.026   6.139 -0.2498 -0.3491 -0.2251
 8999SOL    HW127896   5.557  -0.030   6.191 -1.0766 -0.7529  0.4151
 8999SOL    HW227897   5.524   0.035   6.045 -0.5232 -2.7158 -0.6200
 9000SOL     OW27898   4.161   3.159   6.154  0.5752  0.5922  0.1706
 9000SOL    HW127899   4.129   3.165   6.060 -0.2962 -0.2291  0.3930
 9000SOL    HW227900   4.118   3.081   6.199  1.3182  0.7025  1.1240
 9001SOL     OW27901   6.047   3.523   4.414  0.6802  0.4537  0.4788
 9001SOL    HW127902   6.049   3.554   4.319 -0.7303 -0.8156 -0.0010
 9001SOL    HW227903   6.131   3.473   4.435  2.3504  3.1750  0.8467
 9002SOL     OW27904   2.914   4.853   1.996 -0.1687  0.4700 -0.0298
 9002SOL    HW127905   2.867   4.770   2.024  1.3661 -1.8350 -3.5275
 9002SOL    HW227906   2.942   4.845   1.900  1.5194  4.3951 -0.0731
 9003SOL     OW27907   6.659   6.133   1.930  0.1034 -0.1311  0.0090
 9003SOL    HW127908   6.566   6.159   1.905  0.7600  0.1051 -2.3559
 9003SOL    HW227909   6.673   6.036   1.912  0.4753 -0.0527 -0.1333
 9004SOL     OW27910   0.011   6.971   1.264 -0.1036  0.2211  0.3314
 9004SOL    HW127911   0.094   6.956   1.318  0.2111  1.5834  0.2795
 9004SOL    HW227912   0.028   7.046   1.199 -1.2042  0.1487 -0.0523
 9005SOL     OW27913   4.808   1.412   4.993 -0.1443 -0.8339  0.1054
 9005SOL    HW127914   4.798   1.322   5.035  0.2829 -1.1853 -0.5360
 9005SOL    HW227915   4.905   1.435   4.987 -0.2938  0.4041  1.7786
 9006SOL     OW27916   3.540   5.517   2.753 -0.0921  0.2185  0.8704
 9006SOL    HW127917   3.577   5.597   2.801  1.3015  0.3464 -0.3413
 9006SOL    HW227918   3.577   5.434   2.794  3.3503  0.3607 -1.4988
 9007SOL     OW27919   3.830   2.122   2.575  0.4036  0.6299 -0.5476
 9007SOL    HW127920   3.845   2.090   2.481  0.0172  1.3788 -0.8649
 9007SOL    HW227921   3.732   2.130   2.593  0.3720 -1.4786  0.6023
 9008SOL     OW27922   5.382   5.122   0.818 -0.6163 -0.3962 -0.1226
 9008SOL    HW127923   5.317   5.150   0.889 -0.6932 -0.2889 -0.2368
 9008SOL    HW227924   5.458   5.073   0.861  0.9517  2.3211  0.4386
 9009SOL     OW27925   3.028   2.169   3.459  0.1936 -0.3042  0.2487
 9009SOL    HW127926   2.945   2.126   3.494 -0.5761  1.6755  1.0041
 9009SOL    HW227927   3.015   2.194   3.363 -0.6842  1.3038  0.7511
 9010SOL     OW27928   5.578   2.454   1.649 -0.3395 -0.0756  0.3789
 9010SOL    HW127929   5.570   2.385   1.578 -0.1400  0.9681 -0.6857
 9010SOL    HW227930   5.666   2.444   1.696 -0.3207 -0.5495  0.2418
 9011SOL     OW27931   4.378   2.326   3.665  0.4539  0.1041 -0.0599
 9011SOL    HW127932   4.436   2.400   3.699 -0.3332  0.2658  0.9717
 9011SOL    HW227933   4.408   2.239   3.704  0.7775 -0.0015 -0.5255
 9012SOL     OW27934   0.091   6.065   4.345  0.2241 -0.0802 -0.6255
 9012SOL    HW127935   0.029   6.124   4.396  0.0781 -1.1022  0.4226
 9012SOL    HW227936   0.052   5.973   4.339  0.9951 -0.3888 -1.1891
 9013SOL     OW27937   5.897   4.045   6.859 -0.1137 -0.2363  0.1877
 9013SOL    HW127938   5.923   4.131   6.815 -0.8153 -1.2927 -2.4781
 9013SOL    HW227939   5.977   4.007   6.905  0.7896  0.7626 -0.4888
 9014SOL     OW27940   6.190   1.369   1.158  0.2149 -0.3082 -0.0037
 9014SOL    HW127941   6.155   1.285   1.199 -1.3035  0.2910 -0.0038
 9014SOL    HW227942   6.157   1.376   1.064 -1.1131  1.0711  0.5157
 9015SOL     OW27943   3.108   6.554   2.444 -0.0781  0.2855 -0.1403
 9015SOL    HW127944   3.109   6.654   2.446  0.6101  0.3000 -0.7832
 9015SOL    HW227945   3.178   6.518   2.506 -0.8363  0.1746  0.6781
 9016SOL     OW27946   4.992   5.160   2.452 -0.0373 -0.2632 -0.2663
 9016SOL    HW127947   4.933   5.084   2.426 -1.6372  0.5463  0.8368
 9016SOL    HW227948   5.021   5.149   2.547  2.5724 -1.1932 -1.0524
 9017SOL     OW27949   6.003   1.707   2.498 -0.0170  0.8638  0.1309
 9017SOL    HW127950   5.933   1.734   2.433  0.3599 -0.2722 -0.7642
 9017SOL    HW227951   6.089   1.754   2.477  0.2771  0.0218 -0.6062
 9018SOL     OW27952   0.828   3.095   3.515 -0.5238  0.8083 -0.0702
 9018SOL    HW127953   0.797   3.125   3.605 -0.2740  1.4519 -0.1945
 9018SOL    HW227954   0.839   3.174   3.455 -2.7062  0.2221 -1.3219
 9019SOL     OW27955   5.588   0.986   2.598 -0.3223  0.0124  0.6586
 9019SOL    HW127956   5.513   0.944   2.650 -0.5941  0.8979  0.9928
 9019SOL    HW227957   5.552   1.054   2.535  0.2419  0.8624  1.2357
 9020SOL     OW27958   2.048   4.500   5.024 -0.1312 -0.6806 -0.2070
 9020SOL    HW127959   2.030   4.509   4.927  1.7490  0.9149 -0.4839
 9020SOL    HW227960   1.989   4.429   5.063 -1.6620 -0.6260 -2.2628
 9021SOL     OW27961   0.665   3.059   4.313 -0.4975 -0.5029 -0.4688
 9021SOL    HW127962   0.661   3.063   4.413  3.9969  1.4936 -0.1239
 9021SOL    HW227963   0.643   2.966   4.282 -1.5204 -1.3002  2.3647
 9022SOL     OW27964   4.618   3.708   5.659  0.7606 -0.1819  0.4921
 9022SOL    HW127965   4.643   3.659   5.576  0.6633  0.8676 -0.1707
 9022SOL    HW227966   4.553   3.654   5.712 -0.5062 -0.1290 -0.9622
 9023SOL     OW27967   5.676   4.924   3.758  0.3062 -0.1957  0.0121
 9023SOL    HW127968   5.764   4.965   3.735 -0.4508  1.3100 -0.3160
 9023SOL    HW227969   5.673   4.904   3.856  1.2040 -0.7685 -0.0690
 9024SOL     OW27970   5.637   0.042   2.571 -0.3543  0.0991  0.2679
 9024SOL    HW127971   5.668   0.133   2.601 -0.0562 -0.0719  0.4814
 9024SOL    HW227972   5.615   0.046   2.474 -2.6474  1.0032  0.7675
 9025SOL     OW27973   6.419   3.768   2.248 -0.2364 -0.2089  0.2000
 9025SOL    HW127974   6.446   3.829   2.173  0.9444 -1.3501 -0.3426
 9025SOL    HW227975   6.500   3.724   2.287 -0.8867 -0.0052  1.8474
 9026SOL     OW27976   2.100   3.268   2.016  0.2290  0.1176  0.0218
 9026SOL    HW127977   2.160   3.347   2.032 -0.4038  0.3730  1.3669
 9026SOL    HW227978   2.056   3.276   1.927  2.1637 -0.0740 -0.9809
 9027SOL     OW27979   5.551   2.009   3.087  0.5851  1.1276  0.5705
 9027SOL    HW127980   5.472   1.948   3.077 -0.1286  1.9895  0.8622
 9027SOL    HW227981   5.615   1.970   3.153  1.1279 -0.2968 -0.7332
 9028SOL     OW27982   0.583   5.459   4.787  0.1944  0.8019 -0.3804
 9028SOL    HW127983   0.595   5.558   4.778 -0.8856  1.5291  3.8735
 9028SOL    HW227984   0.486   5.438   4.797  0.5845  0.1520  3.8051
 9029SOL     OW27985   5.475   1.638   5.678  0.7285  0.1630  0.1176
 9029SOL    HW127986   5.496   1.706   5.748  1.0146  0.0669  0.1276
 9029SOL    HW227987   5.516   1.550   5.703 -0.4424 -0.2658  0.5799
 9030SOL     OW27988   2.393   0.186   6.429  0.2571  0.2043  0.0104
 9030SOL    HW127989   2.467   0.188   6.496  0.5345 -0.4336 -0.2674
 9030SOL    HW227990   2.422   0.234   6.346  0.2765  0.1581 -0.0097
 9031SOL     OW27991   1.769   3.945   3.955  0.3527 -0.5323 -0.1653
 9031SOL    HW127992   1.786   3.847   3.962  0.0520 -0.5980 -0.3214
 9031SOL    HW227993   1.690   3.970   4.012  1.4394 -0.0932  1.2112
 9032SOL     OW27994   5.406   5.645   2.497  0.0812 -0.6530 -0.6791
 9032SOL    HW127995   5.479   5.584   2.527  0.9531  0.4685 -0.4728
 9032SOL    HW227996   5.396   5.640   2.398  1.2166  0.0316 -0.8353
 9033SOL     OW27997   6.512   3.484   3.816 -0.4137 -0.3327 -0.1865
 9033SOL    HW127998   6.565   3.493   3.900  0.1524 -2.6866 -0.2392
 9033SOL    HW227999   6.553   3.541   3.745 -0.0933  0.6132  0.7256
 9034SOL     OW28000   6.207   3.457   1.797 -0.2068  0.0465 -0.0664
 9034SOL    HW128001   6.265   3.520   1.849 -0.8169  0.1955  0.4525
 9034SOL    HW228002   6.229   3.363   1.822 -0.1170  0.0982  0.0501
 9035SOL     OW28003   3.433   0.001   3.804  0.3081 -0.2692  0.3550
 9035SOL    HW128004   3.469  -0.078   3.854 -1.8340 -1.1700  0.5999
 9035SOL    HW228005   3.398  -0.030   3.715 -1.5753  0.1324  0.9054
 9036SOL     OW28006   5.478   4.679   1.692  0.2080  0.8074 -0.0000
 9036SOL    HW128007   5.569   4.710   1.719  0.3932  0.7641 -0.5790
 9036SOL    HW228008   5.416   4.687   1.771  0.3591  2.2092  0.0034
 9037SOL     OW28009   2.353   5.589   6.879  0.1270  0.5559  0.4334
 9037SOL    HW128010   2.329   5.491   6.875 -3.1713  1.2057  1.2553
 9037SOL    HW228011   2.343   5.629   6.788  1.0864  0.2278  0.1761
 9038SOL     OW28012   0.799   6.069   3.248 -0.1313  0.2890 -0.2265
 9038SOL    HW128013   0.817   6.147   3.308 -1.2485  0.1912  0.2593
 9038SOL    HW228014   0.811   5.984   3.300  1.6261  0.0747 -0.8935
 9039SOL     OW28015   3.349   3.033   3.105  0.2660  0.4724  0.1417
 9039SOL    HW128016   3.252   3.051   3.118  0.1588  0.9463 -1.1759
 9039SOL    HW228017   3.380   2.968   3.174 -1.3495 -0.9260 -0.3699
 9040SOL     OW28018   4.104   0.696   4.568  0.8246 -0.1074  0.6679
 9040SOL    HW128019   4.116   0.629   4.495  0.0731 -0.4596  0.8631
 9040SOL    HW228020   4.020   0.677   4.618  1.1995  0.2868  1.4677
 9041SOL     OW28021   3.484   6.951   4.173  0.2491 -0.4181  0.3952
 9041SOL    HW128022   3.570   6.937   4.222  0.7568  0.1846 -0.2925
 9041SOL    HW228023   3.420   7.002   4.231  1.8253  2.8041 -0.4304
 9042SOL     OW28024   3.799   6.494   4.171 -0.1456  0.6347 -0.4178
 9042SOL    HW128025   3.797   6.592   4.192  2.9034  0.4535  1.1238
 9042SOL    HW228026   3.808   6.482   4.072  2.8313  2.0949 -0.4369
 9043SOL     OW28027   1.422   1.541   1.097 -0.8597 -0.4080 -0.4457
 9043SOL    HW128028   1.388   1.567   1.006 -2.8906 -1.4803 -0.0420
 9043SOL    HW228029   1.365   1.583   1.167  0.7558  0.4923  0.3757
 9044SOL     OW28030   2.788   1.572   0.646 -0.3796  0.0061 -0.1684
 9044SOL    HW128031   2.705   1.591   0.593  0.2455 -0.1448 -1.2333
 9044SOL    HW228032   2.861   1.633   0.616 -0.0955  0.1228  0.7490
 9045SOL     OW28033   3.975   4.900   4.887 -0.6471  0.0649 -0.3310
 9045SOL    HW128034   4.072   4.904   4.864 -0.5278  1.1042  0.2817
 9045SOL    HW228035   3.921   4.899   4.803 -0.1437  0.6647 -0.6690
 9046SOL     OW28036   1.291   3.452   0.349  0.5470  0.2709  0.1790
 9046SOL    HW128037   1.195   3.476   0.343 -0.5628 -3.8260 -2.2622
 9046SOL    HW228038   1.341   3.492   0.273  0.3045  0.6204  0.2035
 9047SOL     OW28039   2.331   5.341   5.264 -0.3909  0.2383 -0.0837
 9047SOL    HW128040   2.238   5.372   5.280  0.0846  1.1017  1.2138
 9047SOL    HW228041   2.359   5.281   5.339 -0.6987 -2.0203 -1.6843
 9048SOL     OW28042   1.375   0.177   5.380 -0.1245 -0.1128  0.1020
 9048SOL    HW128043   1.388   0.078   5.374 -0.5985 -0.1348 -0.8550
 9048SOL    HW228044   1.441   0.224   5.321 -0.4594  0.0835 -0.1276
 9049SOL     OW28045   1.395   0.707   2.427  0.1636 -0.0653  0.2443
 9049SOL    HW128046   1.330   0.691   2.502  0.5142  0.6231  0.7061
 9049SOL    HW228047   1.472   0.644   2.435  0.7472  0.7199  1.1254
 9050SOL     OW28048   4.604   3.641   6.584 -0.1367  0.2523 -0.0733
 9050SOL    HW128049   4.541   3.629   6.661 -1.8049 -2.0219 -1.6491
 9050SOL    HW228050   4.577   3.721   6.531 -2.0356 -0.8731 -0.9132
 9051SOL     OW28051   6.979   6.627   3.266  0.6879 -0.2374 -0.8094
 9051SOL    HW128052   6.900   6.610   3.206 -2.2990 -2.2945  3.1707
 9051SOL    HW228053   6.984   6.724   3.288  0.1097  0.1170 -2.1504
 9052SOL     OW28054   6.382   5.146   5.837 -0.3758 -0.3783 -0.2398
 9052SOL    HW128055   6.389   5.047   5.833 -1.8059 -0.4691 -1.1716
 9052SOL    HW228056   6.342   5.174   5.925 -1.9041 -0.7842 -0.7804
 9053SOL     OW28057   1.896   2.629   5.077  0.1234  0.7071  0.1959
 9053SOL    HW128058   1.923   2.664   4.988 -1.1116 -0.1569 -0.5496
 9053SOL    HW228059   1.876   2.531   5.070 -2.6901  1.1719  0.7662
 9054SOL     OW28060   6.436   0.025   1.536  0.1341  0.1479  0.2246
 9054SOL    HW128061   6.433  -0.074   1.529  0.5626  0.0729  0.9300
 9054SOL    HW228062   6.508   0.061   1.477  1.3959 -0.1589  1.5025
 9055SOL     OW28063   3.575   1.742   2.545 -0.3874  0.4815  0.2458
 9055SOL    HW128064   3.581   1.772   2.450  1.0194 -1.1900 -0.2547
 9055SOL    HW228065   3.662   1.761   2.592 -0.3890 -0.3988  0.6333
 9056SOL     OW28066   5.743   0.568   4.137  0.1560  0.2948  0.4128
 9056SOL    HW128067   5.818   0.541   4.196  0.2919 -0.8731 -0.2526
 9056SOL    HW228068   5.671   0.499   4.141  0.1435  0.2235 -0.7167
 9057SOL     OW28069   4.824   3.902   5.686 -0.4672  0.0424 -0.0246
 9057SOL    HW128070   4.811   3.942   5.777 -2.1368 -0.3313 -0.0668
 9057SOL    HW228071   4.754   3.833   5.670 -0.3346  0.2622 -1.6919
 9058SOL     OW28072   0.109   2.260   5.292  0.2856 -0.6121 -0.3511
 9058SOL    HW128073   0.154   2.203   5.224 -0.5942 -0.7611 -0.8248
 9058SOL    HW228074   0.018   2.286   5.259 -0.4276 -1.2405  1.0312
 9059SOL     OW28075   3.513   1.545   1.946 -0.0710  0.0210 -0.8142
 9059SOL    HW128076   3.554   1.557   2.037 -2.6627  0.6574  0.3674
 9059SOL    HW228077   3.517   1.448   1.920 -0.0855 -0.3239  0.4047
 9060SOL     OW28078   3.532   4.430   0.885 -1.1429 -0.2041  0.4668
 9060SOL    HW128079   3.439   4.404   0.910 -0.9903  0.6771  2.0858
 9060SOL    HW228080   3.591   4.424   0.966 -0.0342  0.2810 -0.2864
 9061SOL     OW28081   4.239   5.531   5.632  0.1796 -0.1374 -0.5008
 9061SOL    HW128082   4.175   5.577   5.694  1.3231  1.7763 -0.6733
 9061SOL    HW228083   4.306   5.480   5.686  0.0411 -0.0424 -0.2385
 9062SOL     OW28084   1.956   1.855   1.715 -0.5596  0.0331  0.3358
 9062SOL    HW128085   2.010   1.775   1.741  1.1420  0.8525 -0.4902
 9062SOL    HW228086   1.872   1.859   1.770 -0.2821 -1.8427  0.9506
 9063SOL     OW28087   3.292   2.169   0.812  0.4833 -0.4228  0.4177
 9063SOL    HW128088   3.294   2.113   0.730  1.1045  0.1387  0.0421
 9063SOL    HW228089   3.295   2.110   0.893 -0.0344 -0.9727  0.0443
 9064SOL     OW28090   5.863   5.414   3.116 -0.1493 -0.5279 -0.3875
 9064SOL    HW128091   5.889   5.359   3.037 -0.3131  0.9455 -1.5206
 9064SOL    HW228092   5.767   5.399   3.138 -0.1127 -0.9124 -0.4934
 9065SOL     OW28093   5.586   5.033   1.165 -0.0795  0.2439 -0.1935
 9065SOL    HW128094   5.668   5.081   1.136  0.0006 -0.3157 -0.9192
 9065SOL    HW228095   5.544   4.988   1.086 -0.0412 -1.0387  0.4954
 9066SOL     OW28096   0.288   3.327   0.707  0.3362 -0.2093  0.2877
 9066SOL    HW128097   0.329   3.289   0.624  1.1082 -0.2847  0.6898
 9066SOL    HW228098   0.209   3.272   0.734  1.2551 -1.3750  0.6949
 9067SOL     OW28099   3.714   0.824   0.164  0.0259 -0.9193  0.9839
 9067SOL    HW128100   3.758   0.912   0.148 -1.2690 -0.1857  1.3604
 9067SOL    HW228101   3.757   0.754   0.107  0.0680  0.2482 -0.4475
 9068SOL     OW28102   1.175   6.737   5.592  0.0302  0.5070 -0.1300
 9068SOL    HW128103   1.163   6.742   5.691 -1.6679  0.2329 -0.2809
 9068SOL    HW228104   1.226   6.816   5.560  0.8934  0.4266  0.9932
 9069SOL     OW28105   2.996   3.258   5.433  0.3818  0.1644 -0.3023
 9069SOL    HW128106   2.951   3.259   5.344  1.2761 -1.6439 -0.8200
 9069SOL    HW228107   2.928   3.240   5.504  0.0697 -1.3311 -0.9427
 9070SOL     OW28108   0.812   5.813   1.456 -0.1039  0.1008  0.0607
 9070SOL    HW128109   0.818   5.726   1.506 -1.0079  0.1181  0.2156
 9070SOL    HW228110   0.893   5.868   1.475 -1.6984  1.4464  3.9940
 9071SOL     OW28111   5.497   4.494   1.965 -0.0760  0.3717 -0.4504
 9071SOL    HW128112   5.511   4.457   1.873  1.8050  1.5590 -0.6821
 9071SOL    HW228113   5.494   4.594   1.961  1.4783  0.5101  0.9268
 9072SOL     OW28114   2.417   4.801   5.156  0.2117  0.6279 -0.0934
 9072SOL    HW128115   2.432   4.896   5.182  0.3131  0.0110  2.3569
 9072SOL    HW228116   2.399   4.746   5.238 -0.3023 -1.3999 -1.4759
 9073SOL     OW28117   4.938   3.499   1.955  0.5921  0.5161  0.4111
 9073SOL    HW128118   4.989   3.488   1.870  1.9006  1.8187  0.9771
 9073SOL    HW228119   4.908   3.594   1.963  0.8836  0.5164  1.6130
 9074SOL     OW28120   3.844   2.908   4.281 -0.0596 -0.0510 -0.9122
 9074SOL    HW128121   3.910   2.833   4.276  0.5140  0.3352  0.4014
 9074SOL    HW228122   3.875   2.975   4.349 -2.7328 -0.7996  1.2228
 9075SOL     OW28123   4.133   3.193   0.726 -0.2918 -0.3065 -0.6379
 9075SOL    HW128124   4.221   3.199   0.678  0.0644 -0.4355 -0.0234
 9075SOL    HW228125   4.102   3.285   0.749  1.1878 -0.3209  1.7640
 9076SOL     OW28126   2.519   3.069   5.928 -0.0410  0.0891 -0.5800
 9076SOL    HW128127   2.570   3.013   5.862 -1.8848 -0.1896 -1.8773
 9076SOL    HW228128   2.472   3.143   5.879 -0.8145  0.3759  0.5545
 9077SOL     OW28129   2.427   3.645   0.220  0.2101 -0.0570 -0.3909
 9077SOL    HW128130   2.506   3.590   0.247 -1.1880 -1.9484  0.0973
 9077SOL    HW228131   2.445   3.741   0.237  2.0488 -0.5386  0.5680
 9078SOL     OW28132   5.116   3.975   6.030  0.1698 -0.0080 -0.0162
 9078SOL    HW128133   5.152   3.912   5.961  0.1826 -0.5554  0.4784
 9078SOL    HW228134   5.035   3.934   6.073  0.8545 -0.2257  1.1274
 9079SOL     OW28135   6.734   0.929   2.364  0.6140  0.2334  0.0302
 9079SOL    HW128136   6.780   0.841   2.358  1.1816  0.4571  0.9367
 9079SOL    HW228137   6.733   0.961   2.459 -1.7403  0.0750  0.1285
 9080SOL     OW28138   4.733   4.867   2.685 -0.9803 -0.0927 -0.1919
 9080SOL    HW128139   4.701   4.962   2.683 -1.6096 -0.2967 -2.1603
 9080SOL    HW228140   4.818   4.860   2.632 -1.3064 -0.7317 -0.6426
 9081SOL     OW28141   1.102   4.397   3.219 -0.3549  0.4066 -0.8096
 9081SOL    HW128142   1.058   4.313   3.251  0.7040 -0.0611 -0.5519
 9081SOL    HW228143   1.119   4.457   3.296 -0.3190  0.4892 -0.8817
 9082SOL     OW28144   5.581   5.330   1.221  0.9929 -0.1371  0.3235
 9082SOL    HW128145   5.500   5.388   1.216  0.5462 -0.7791 -0.2342
 9082SOL    HW228146   5.553   5.234   1.211  1.9262 -0.2932 -1.1125
 9083SOL     OW28147   1.706   2.341   4.274 -0.1663 -0.1320 -0.3241
 9083SOL    HW128148   1.767   2.411   4.310  1.7004 -1.3583 -0.9393
 9083SOL    HW228149   1.743   2.305   4.188 -1.9341 -0.7367 -0.8876
 9084SOL     OW28150   3.554   4.028   1.639 -0.7112 -0.0266 -0.1567
 9084SOL    HW128151   3.528   3.935   1.666  0.4861 -0.2496  0.3395
 9084SOL    HW228152   3.601   4.072   1.716 -0.0449  0.4885 -0.8481
 9085SOL     OW28153   1.916   5.197   6.136  0.2304 -0.4103  0.6841
 9085SOL    HW128154   1.822   5.187   6.168 -0.1225 -0.9489 -0.4714
 9085SOL    HW228155   1.955   5.282   6.172 -1.4986  1.0793 -0.7891
 9086SOL     OW28156   0.931   5.108   3.730  0.7142 -0.2850 -0.7594
 9086SOL    HW128157   1.017   5.147   3.762 -1.0335  3.7548 -0.3938
 9086SOL    HW228158   0.929   5.108   3.630  2.2780 -3.5899 -0.9352
 9087SOL     OW28159   3.341   4.879   1.928 -0.2579  0.7991 -0.5499
 9087SOL    HW128160   3.316   4.889   2.024  1.8839  0.8594  0.0553
 9087SOL    HW228161   3.432   4.837   1.921 -0.9179 -0.4676 -2.5927
 9088SOL     OW28162   5.718   3.745   1.939  0.0728 -0.0499  0.0223
 9088SOL    HW128163   5.729   3.712   2.033  0.3773  1.5244  0.5623
 9088SOL    HW228164   5.804   3.734   1.890  0.1116 -0.2451  0.1332
 9089SOL     OW28165   5.002   6.096   1.212  0.4043 -0.5824 -0.0392
 9089SOL    HW128166   5.080   6.127   1.266 -0.6088  0.7811  0.6999
 9089SOL    HW228167   5.014   6.126   1.117  0.4804  0.2274  0.2119
 9090SOL     OW28168   3.191   6.691   0.807 -0.5149 -0.5156  0.8748
 9090SOL    HW128169   3.285   6.693   0.841 -0.4645 -1.8152  0.8710
 9090SOL    HW228170   3.154   6.784   0.805  1.3410  0.2643 -0.7354
 9091SOL     OW28171   6.847   6.975   3.093  0.1462  0.0518  0.4757
 9091SOL    HW128172   6.936   6.972   3.047 -0.1652  1.2489 -0.2430
 9091SOL    HW228173   6.861   6.991   3.191  0.7110  1.5496  0.1794
 9092SOL     OW28174   4.910   2.872   3.351  0.2697 -0.6717  0.4201
 9092SOL    HW128175   4.989   2.860   3.412 -0.5969 -1.8003  1.3563
 9092SOL    HW228176   4.902   2.793   3.291  0.3635 -0.1409 -0.3112
 9093SOL     OW28177   2.767   0.893   0.559  0.1241 -0.0694 -0.2334
 9093SOL    HW128178   2.778   0.956   0.636 -1.0171  0.1123 -0.2076
 9093SOL    HW228179   2.808   0.933   0.477 -1.7991  1.3848 -0.5580
 9094SOL     OW28180   4.876   6.048   3.577  0.3382  0.3275 -0.0936
 9094SOL    HW128181   4.852   6.134   3.624  0.8934  0.0783  0.6672
 9094SOL    HW228182   4.946   6.066   3.508 -0.5293  0.7097 -0.9019
 9095SOL     OW28183   4.925   1.211   1.708 -0.2789  0.0746  0.1558
 9095SOL    HW128184   4.948   1.229   1.613 -0.1716 -0.1977  0.1291
 9095SOL    HW228185   4.832   1.174   1.714 -1.8910  3.7731  0.4934
 9096SOL     OW28186   1.496   0.662   3.015  0.3164  0.6875 -0.0484
 9096SOL    HW128187   1.409   0.650   3.064  0.2893  0.1017 -0.2254
 9096SOL    HW228188   1.498   0.751   2.971 -0.2098  0.6953 -0.0634
 9097SOL     OW28189   1.293   4.312   4.646  0.0544  0.1794 -0.1339
 9097SOL    HW128190   1.353   4.348   4.575  4.6426 -0.6544  2.8806
 9097SOL    HW228191   1.273   4.384   4.713 -0.0646 -0.2085  0.2593
 9098SOL     OW28192   3.318   3.756   2.726  0.4339 -0.6453  0.4455
 9098SOL    HW128193   3.364   3.767   2.814  0.4897  0.2532  0.3164
 9098SOL    HW228194   3.259   3.836   2.709 -0.8159 -1.5439  0.3932
 9099SOL     OW28195   0.849   1.138   0.983  0.0064  0.2531 -0.1842
 9099SOL    HW128196   0.902   1.175   0.907  0.8089 -0.0115  0.2319
 9099SOL    HW228197   0.761   1.185   0.989 -0.0276  0.3318 -1.2158
 9100SOL     OW28198   5.166   2.981   0.823 -0.6140 -0.7195 -0.4191
 9100SOL    HW128199   5.179   3.077   0.799 -0.8799 -0.5718  0.0010
 9100SOL    HW228200   5.254   2.936   0.830 -0.3394  0.0029  1.3782
 9101SOL     OW28201   2.569   0.632   2.413  0.2608  0.1795 -0.2195
 9101SOL    HW128202   2.483   0.601   2.453 -1.0281  3.5250 -0.0597
 9101SOL    HW228203   2.634   0.654   2.486  0.0314  0.8151 -0.2082
 9102SOL     OW28204   6.094   5.861   3.311 -0.4536 -0.3150 -0.1783
 9102SOL    HW128205   6.047   5.875   3.398 -0.3506 -0.9674 -0.0193
 9102SOL    HW228206   6.149   5.942   3.290 -1.7226  0.5065 -0.4206
 9103SOL     OW28207   5.991   6.952   5.283 -0.0605 -0.0359  0.2723
 9103SOL    HW128208   6.025   6.965   5.376  1.2549  0.5878 -0.2705
 9103SOL    HW228209   5.902   6.997   5.274 -0.3870 -0.4386  1.3230
 9104SOL     OW28210   2.075   6.659   3.835 -0.2639 -0.8291  1.0292
 9104SOL    HW128211   1.984   6.648   3.876 -1.0913 -0.4703 -0.5992
 9104SOL    HW228212   2.096   6.756   3.826 -0.1170 -0.8964  0.6040
 9105SOL     OW28213   4.181   4.353   6.855  0.0514 -0.2463 -0.4067
 9105SOL    HW128214   4.144   4.399   6.774  1.5783  1.5850 -0.1194
 9105SOL    HW228215   4.229   4.419   6.912  1.0435 -1.9546  0.8235
 9106SOL     OW28216   5.039   4.064   4.582 -0.3290 -0.5469 -0.8571
 9106SOL    HW128217   5.108   3.992   4.578  2.5146  1.9685 -1.4680
 9106SOL    HW228218   5.027   4.103   4.491 -0.9423  0.4666 -0.3621
 9107SOL     OW28219   0.100   1.941   5.017 -0.5351 -0.4570 -0.4416
 9107SOL    HW128220   0.080   1.855   4.969 -1.9354  0.4290 -1.5721
 9107SOL    HW228221   0.037   1.952   5.094  0.3472 -0.9306  0.3483
 9108SOL     OW28222   0.795   6.311   1.562  0.1021  0.3222  0.0086
 9108SOL    HW128223   0.762   6.392   1.513  0.8788 -0.0899 -1.2392
 9108SOL    HW228224   0.856   6.340   1.637 -1.6519  0.9878  1.2456
 9109SOL     OW28225   1.581   3.720   7.008 -0.1162 -1.0062 -0.5419
 9109SOL    HW128226   1.561   3.788   6.937 -1.7386 -1.0063 -0.1051
 9109SOL    HW228227   1.677   3.730   7.036  0.2873 -0.3530 -2.0065
 9110SOL     OW28228   3.068   1.784   0.167  0.2636  0.5519 -0.3583
 9110SOL    HW128229   3.157   1.788   0.121  0.8584  2.0611  0.8346
 9110SOL    HW228230   3.049   1.872   0.210 -1.7335  0.1891 -0.4044
 9111SOL     OW28231   3.558   3.589   3.110 -0.2947 -0.0604 -0.5953
 9111SOL    HW128232   3.641   3.548   3.148 -1.1827 -1.7648 -0.4221
 9111SOL    HW228233   3.521   3.529   3.040 -2.4119 -0.2565  0.6272
 9112SOL     OW28234   5.403   3.803   4.285 -1.0596 -0.4598 -0.2209
 9112SOL    HW128235   5.411   3.708   4.314  0.4200 -0.0914  0.7180
 9112SOL    HW228236   5.481   3.826   4.226 -0.1988  0.7194  1.2932
 9113SOL     OW28237   6.315   0.977   1.844  0.4169 -0.1948  0.0307
 9113SOL    HW128238   6.375   1.057   1.839  0.4423 -0.0965  1.4348
 9113SOL    HW228239   6.261   0.981   1.929  1.4206 -2.3629  0.8498
 9114SOL     OW28240   3.167   5.933   0.260  0.1211 -0.1086  0.3095
 9114SOL    HW128241   3.105   5.868   0.302 -1.3385  1.2291  0.3171
 9114SOL    HW228242   3.192   5.901   0.168 -2.2386  0.2909 -0.5184
 9115SOL     OW28243   3.739   0.427   4.493 -0.0066  0.4942  0.6665
 9115SOL    HW128244   3.672   0.377   4.438  0.5520  1.3278 -0.8550
 9115SOL    HW228245   3.805   0.363   4.532  0.9941  0.0080 -1.6627
 9116SOL     OW28246   2.561   1.599   5.309 -0.4933 -0.2697 -0.0194
 9116SOL    HW128247   2.624   1.589   5.232 -0.9262  0.9056 -0.5391
 9116SOL    HW228248   2.477   1.643   5.278 -1.1895 -0.9342  0.8753
 9117SOL     OW28249   4.016   2.249   6.263  0.7088  0.3405 -0.4484
 9117SOL    HW128250   4.022   2.152   6.289 -1.4244  0.0737 -0.7114
 9117SOL    HW228251   3.989   2.256   6.167  2.6119  1.2525 -0.9522
 9118SOL     OW28252   5.759   0.015   5.994  0.1532 -0.1021  0.0993
 9118SOL    HW128253   5.808   0.093   6.031  0.2720  0.3778 -1.0269
 9118SOL    HW228254   5.809  -0.022   5.915 -0.6464 -0.3914 -0.2833
 9119SOL     OW28255   6.797   6.311   3.337 -0.2615  0.3322  0.1951
 9119SOL    HW128256   6.873   6.250   3.315  0.1065 -0.4002  3.0870
 9119SOL    HW228257   6.714   6.258   3.351 -0.6596  0.8319 -0.2592
 9120SOL     OW28258   3.079   6.503   0.962  0.0802  0.7673  0.2353
 9120SOL    HW128259   3.128   6.559   0.895 -0.0493  0.7012  0.0841
 9120SOL    HW228260   3.112   6.409   0.958 -0.8938  0.4459 -0.7208
 9121SOL     OW28261   3.906   3.732   3.046 -0.5027 -0.3060 -0.0197
 9121SOL    HW128262   3.922   3.638   3.015  0.2277 -0.4987  0.8904
 9121SOL    HW228263   3.967   3.752   3.123  1.4583  1.8637 -1.9684
 9122SOL     OW28264   1.493   0.014   1.814 -0.3821  0.1127  0.1806
 9122SOL    HW128265   1.527  -0.021   1.901 -1.6430  0.5453  0.8753
 9122SOL    HW228266   1.430   0.090   1.831  1.1644  1.8097 -1.2096
 9123SOL     OW28267   5.142   0.042   5.105  0.4122 -0.0786  0.0264
 9123SOL    HW128268   5.214   0.002   5.049  0.2545  0.3368 -0.4769
 9123SOL    HW228269   5.109   0.126   5.063  0.4960  0.4055  0.8937
 9124SOL     OW28270   3.711   5.768   2.836 -0.1674  0.1023  0.1133
 9124SOL    HW128271   3.775   5.815   2.898 -2.1879  2.4113  0.6070
 9124SOL    HW228272   3.762   5.729   2.760  2.0671 -0.1964  1.6571
 9125SOL     OW28273   3.244   0.712   4.609 -0.0925 -0.6461 -0.2307
 9125SOL    HW128274   3.328   0.668   4.640  1.7852  1.4473 -1.9855
 9125SOL    HW228275   3.208   0.769   4.683  1.5406  0.4552 -0.2217
 9126SOL     OW28276   0.016   4.688   2.848 -0.2988  0.2613  0.2939
 9126SOL    HW128277   0.024   4.626   2.926  2.0480 -2.4481 -1.9013
 9126SOL    HW228278   0.065   4.773   2.868  0.3412 -0.4075  1.7219
 9127SOL     OW28279   3.312   0.252   3.816 -0.0227  0.0925  0.1103
 9127SOL    HW128280   3.367   0.175   3.847  0.6251  0.4348 -0.1732
 9127SOL    HW228281   3.307   0.251   3.716  0.4056  0.6938  0.0769
 9128SOL     OW28282   3.715   5.390   2.964  0.4125 -0.2347 -0.0062
 9128SOL    HW128283   3.778   5.419   2.892  0.0986 -0.3331 -0.3270
 9128SOL    HW228284   3.685   5.470   3.016  2.6281 -0.4227  1.6998
 9129SOL     OW28285   5.354   3.581   1.338  0.3085  0.1471  0.4240
 9129SOL    HW128286   5.298   3.520   1.394  2.9645 -1.6549  1.3141
 9129SOL    HW228287   5.334   3.566   1.241 -0.9591 -0.1703  0.7173
 9130SOL     OW28288   1.718   2.969   4.303 -0.7155  0.0404  0.5100
 9130SOL    HW128289   1.621   2.994   4.306 -0.8924 -0.3852 -0.8132
 9130SOL    HW228290   1.727   2.870   4.298 -0.3091  0.1164 -0.9661
 9131SOL     OW28291   6.317   6.999   0.628 -0.0994 -0.1035 -0.3738
 9131SOL    HW128292   6.309   7.048   0.715 -1.4664 -0.0968 -0.4808
 9131SOL    HW228293   6.341   7.063   0.555  0.3079  0.0219 -0.1251
 9132SOL     OW28294   2.969   5.909   3.403  0.4574 -0.1785  0.5187
 9132SOL    HW128295   2.956   5.889   3.306 -0.8258  0.7979  0.4608
 9132SOL    HW228296   2.919   5.993   3.427  0.2637 -0.7207  2.1593
 9133SOL     OW28297   1.538   3.491   3.416 -0.1809 -0.1356  0.1213
 9133SOL    HW128298   1.572   3.571   3.465  0.0937 -0.8052  1.0438
 9133SOL    HW228299   1.541   3.508   3.317  3.2919 -0.2883  0.0885
 9134SOL     OW28300   3.932   2.061   6.064 -0.6007 -0.4642  0.4990
 9134SOL    HW128301   3.850   2.096   6.110 -1.3100 -0.0581 -1.0102
 9134SOL    HW228302   3.947   2.112   5.980  1.5476 -0.1649  1.0047
 9135SOL     OW28303   2.397   4.395   3.109 -0.4885  0.2024  0.5927
 9135SOL    HW128304   2.379   4.339   3.028  0.3569  1.6685 -0.6763
 9135SOL    HW228305   2.410   4.336   3.188  0.6965 -1.4276 -0.7428
 9136SOL     OW28306   0.451   3.778   1.361  0.3967 -0.3749 -0.2106
 9136SOL    HW128307   0.437   3.775   1.460 -0.1825 -1.2204 -0.3085
 9136SOL    HW228308   0.439   3.872   1.329  0.6006 -0.0899  0.5182
 9137SOL     OW28309   0.775   4.220   4.620 -0.4703 -0.0426 -0.0290
 9137SOL    HW128310   0.719   4.284   4.567  1.4413  0.8732 -1.0699
 9137SOL    HW228311   0.839   4.174   4.558 -2.5623 -3.9994  0.4598
 9138SOL     OW28312   5.596   4.736   4.033 -0.2237 -0.4116  0.0642
 9138SOL    HW128313   5.538   4.759   3.955  1.0770 -0.8206 -1.0757
 9138SOL    HW228314   5.546   4.675   4.094 -1.7326  0.9447  0.2614
 9139SOL     OW28315   3.839   5.447   3.970  0.4374  0.1397  0.1295
 9139SOL    HW128316   3.886   5.535   3.958 -0.1260  0.3250 -0.7527
 9139SOL    HW228317   3.766   5.458   4.037  2.2400 -0.3908  2.3043
 9140SOL     OW28318   2.607   1.948   3.711  0.4716 -0.0249 -0.3403
 9140SOL    HW128319   2.586   2.039   3.746 -1.7949 -0.3596 -0.7133
 9140SOL    HW228320   2.573   1.879   3.775  0.2635 -0.6151 -1.0747
 9141SOL     OW28321   3.481   6.735   1.506 -0.5399  0.4727  0.3838
 9141SOL    HW128322   3.410   6.686   1.556  0.4834 -0.3964  1.0454
 9141SOL    HW228323   3.533   6.792   1.571 -1.0132  1.5880 -0.1934
 9142SOL     OW28324   3.063   0.347   1.493  0.2647  0.1924  0.5036
 9142SOL    HW128325   3.027   0.395   1.413  1.7329 -1.0809 -1.0136
 9142SOL    HW228326   3.162   0.338   1.485  0.1877 -2.1482  1.1904
 9143SOL     OW28327   1.224   3.818   1.136  0.2918 -0.2530  0.0584
 9143SOL    HW128328   1.256   3.908   1.165 -1.1318  1.3076 -2.7550
 9143SOL    HW228329   1.301   3.765   1.100  1.1113 -0.1764  1.5998
 9144SOL     OW28330   3.301   5.471   2.874 -0.7530  0.2610 -0.2740
 9144SOL    HW128331   3.319   5.460   2.972 -0.6963  3.1171  0.1015
 9144SOL    HW228332   3.382   5.443   2.823 -1.3545 -2.9102  0.2772
 9145SOL     OW28333   0.605   2.553   6.907  0.1230  0.0408 -1.0461
 9145SOL    HW128334   0.571   2.469   6.865  0.0020  0.5960 -2.1025
 9145SOL    HW228335   0.694   2.536   6.949 -0.6560 -1.0026  0.2262
 9146SOL     OW28336   0.895   6.534   6.314 -0.7082 -0.0007  0.5247
 9146SOL    HW128337   0.972   6.547   6.251 -0.6451  0.5001  0.7070
 9146SOL    HW228338   0.915   6.577   6.402 -0.8093 -0.6744  0.8837
 9147SOL     OW28339   1.303   3.310   2.475 -0.1450 -0.3198  0.2693
 9147SOL    HW128340   1.281   3.219   2.441 -2.6614  0.7302 -1.2826
 9147SOL    HW228341   1.241   3.334   2.550 -0.3740  0.5325 -0.1695
 9148SOL     OW28342   6.589   3.918   6.740 -0.1091 -0.1050  0.4792
 9148SOL    HW128343   6.598   4.007   6.785  0.7239  0.1677 -0.1942
 9148SOL    HW228344   6.519   3.924   6.669 -0.2234 -0.0643  0.5930
 9149SOL     OW28345   2.799   5.007   6.260 -0.4387 -0.3622  0.5079
 9149SOL    HW128346   2.734   5.014   6.184 -0.5884  0.8309  0.7323
 9149SOL    HW228347   2.804   4.912   6.290 -1.6515 -0.5710  0.1092
 9150SOL     OW28348   4.470   5.908   5.935  0.0737 -0.0845 -0.5136
 9150SOL    HW128349   4.559   5.921   5.978  0.2968  0.5023 -1.1403
 9150SOL    HW228350   4.412   5.853   5.995  0.6987 -0.0848  0.1032
 9151SOL     OW28351   4.676   0.871   6.456  0.0161  0.6638 -0.1374
 9151SOL    HW128352   4.588   0.855   6.410  1.9230 -2.7687 -3.0367
 9151SOL    HW228353   4.711   0.961   6.429 -2.2244  1.8704  0.6408
 9152SOL     OW28354   6.441   0.646   3.445  0.0179  0.1228 -0.3687
 9152SOL    HW128355   6.518   0.587   3.420 -0.1548 -0.3066  0.1041
 9152SOL    HW228356   6.467   0.742   3.431  0.1461 -0.0626 -1.5859
 9153SOL     OW28357   0.622   3.922   1.975  0.6178  0.3538  0.1762
 9153SOL    HW128358   0.547   3.988   1.966 -1.3238 -1.5151  1.7504
 9153SOL    HW228359   0.617   3.878   2.064  2.5946 -1.0724 -0.3591
 9154SOL     OW28360   6.607   2.200   0.464 -0.0759  0.0883 -0.0815
 9154SOL    HW128361   6.559   2.163   0.544 -0.6555  2.3900  0.7114
 9154SOL    HW228362   6.700   2.226   0.490 -0.7141  2.1444  0.2608
 9155SOL     OW28363   6.844   2.523   3.335  0.1472  0.1952 -0.1929
 9155SOL    HW128364   6.911   2.579   3.383 -1.4136  1.1971  0.8874
 9155SOL    HW228365   6.865   2.522   3.238  2.1643 -0.1769  0.1891
 9156SOL     OW28366   2.485   4.558   6.732 -0.1361  0.0235  0.1809
 9156SOL    HW128367   2.505   4.630   6.665  2.2120  1.8062  2.6095
 9156SOL    HW228368   2.553   4.485   6.725 -0.4461 -0.2541  0.0231
 9157SOL     OW28369   0.378   5.385   6.801  0.4472  0.8490 -0.4594
 9157SOL    HW128370   0.287   5.360   6.768  1.2947  0.7846 -2.9387
 9157SOL    HW228371   0.429   5.302   6.825  0.0116  0.8655  0.5847
 9158SOL     OW28372   6.989   1.920   1.107 -0.1710 -0.1441 -0.6998
 9158SOL    HW128373   6.982   1.918   1.207 -1.7801  2.4173 -0.6727
 9158SOL    HW228374   7.080   1.953   1.081 -0.7221  2.1692  0.0630
 9159SOL     OW28375   1.779   0.180   6.269  0.0808 -1.0695 -0.0427
 9159SOL    HW128376   1.792   0.130   6.355 -0.1837 -0.9949  0.0392
 9159SOL    HW228377   1.702   0.141   6.219 -0.1496 -0.7130  0.0392
 9160SOL     OW28378   1.978   1.050   2.736  0.2304  0.3262 -0.1105
 9160SOL    HW128379   1.888   1.090   2.753  0.6750  0.9640  0.8453
 9160SOL    HW228380   2.044   1.123   2.718  0.7626 -0.0551  0.2566
 9161SOL     OW28381   4.611   4.790   3.510  0.3872  0.5269  0.0602
 9161SOL    HW128382   4.632   4.695   3.535 -2.2951 -0.4613 -1.0242
 9161SOL    HW228383   4.598   4.844   3.593  0.5645 -0.4160  0.7265
 9162SOL     OW28384   6.731   5.430   0.092 -0.2530 -0.4004 -0.2764
 9162SOL    HW128385   6.683   5.514   0.117 -0.7981 -1.1654  1.4370
 9162SOL    HW228386   6.677   5.351   0.121  0.1980 -1.3611 -1.9513
 9163SOL     OW28387   5.303   4.944   2.241  0.2441  0.3873  0.0677
 9163SOL    HW128388   5.366   4.956   2.318 -1.4205 -0.3674  1.6443
 9163SOL    HW228389   5.252   5.028   2.226 -0.7632 -0.0006  1.1069
 9164SOL     OW28390   2.233   2.390   5.186  0.4011 -0.0534  0.2759
 9164SOL    HW128391   2.136   2.390   5.207  0.1951 -2.6497 -0.3503
 9164SOL    HW228392   2.257   2.307   5.136  2.6970  1.2048 -0.8881
 9165SOL     OW28393   4.748   4.842   0.301  0.3517  0.3034  0.4163
 9165SOL    HW128394   4.706   4.775   0.239 -0.6704  0.4143  0.9717
 9165SOL    HW228395   4.845   4.823   0.310 -0.0951 -1.7576  1.3626
 9166SOL     OW28396   0.225   3.365   6.478 -0.1820 -0.4487  0.1403
 9166SOL    HW128397   0.267   3.359   6.388  0.3940  0.3734  0.3390
 9166SOL    HW228398   0.222   3.461   6.507 -0.3972 -0.6977  0.9769
 9167SOL     OW28399   6.065   2.388   0.782 -0.5075 -0.4607  0.3843
 9167SOL    HW128400   6.017   2.459   0.730 -0.4551 -0.9540 -0.3422
 9167SOL    HW228401   6.130   2.341   0.723 -0.9588 -1.5084  0.7048
 9168SOL     OW28402   0.714   5.016   3.275 -0.6296  0.0734 -0.0211
 9168SOL    HW128403   0.726   5.082   3.202  2.6485  0.2481  0.5164
 9168SOL    HW228404   0.619   5.019   3.308 -2.2938 -0.1401 -4.2195
 9169SOL     OW28405   4.733   0.065   1.367  0.4823 -0.1721  0.0966
 9169SOL    HW128406   4.762   0.105   1.454 -0.2355  0.1797  0.1860
 9169SOL    HW228407   4.788  -0.016   1.348  1.4043  0.3905  0.3144
 9170SOL     OW28408   1.781   1.019   5.555 -0.3705  0.2586 -0.5973
 9170SOL    HW128409   1.743   0.928   5.538  2.0541 -0.5828 -1.9532
 9170SOL    HW228410   1.834   1.019   5.640 -0.8373  0.5893 -0.2978
 9171SOL     OW28411   2.696   5.210   1.020 -0.0482  0.2445  0.6649
 9171SOL    HW128412   2.683   5.282   1.089 -1.0844  0.3228  0.4138
 9171SOL    HW228413   2.709   5.122   1.066 -0.6726  0.3063  0.9727
 9172SOL     OW28414   3.350   4.886   0.141 -0.1111 -0.3820 -0.5840
 9172SOL    HW128415   3.418   4.946   0.099 -0.5237  0.2301 -0.3976
 9172SOL    HW228416   3.361   4.793   0.106 -1.6638  0.4276 -3.5587
 9173SOL     OW28417   0.905   4.167   2.871 -0.5272  0.2413 -0.3283
 9173SOL    HW128418   0.885   4.112   2.952 -2.6432  1.1078 -0.1854
 9173SOL    HW228419   0.945   4.110   2.800 -1.1630 -1.1366  0.3833
 9174SOL     OW28420   0.764   4.615   1.143 -0.1027  0.0316  0.8498
 9174SOL    HW128421   0.800   4.694   1.192  0.0210 -0.8183  2.1744
 9174SOL    HW228422   0.721   4.645   1.058 -0.2363  1.5376  1.4256
 9175SOL     OW28423   4.937   1.413   3.641  0.0078 -0.4444  0.0055
 9175SOL    HW128424   4.999   1.491   3.633  0.1272 -0.6057 -0.7743
 9175SOL    HW228425   4.924   1.389   3.737 -2.3340  2.3975  0.5642
 9176SOL     OW28426   1.362   0.504   1.496 -0.5729 -0.1922 -0.0143
 9176SOL    HW128427   1.397   0.527   1.586 -2.2188 -0.0118  0.6277
 9176SOL    HW228428   1.373   0.406   1.479  1.3124  0.0580 -0.3691
 9177SOL     OW28429   0.904   4.276   3.605  0.5419  0.3837  0.5219
 9177SOL    HW128430   0.852   4.357   3.578 -0.4686 -0.6341 -0.6811
 9177SOL    HW228431   0.912   4.273   3.705 -0.6044  1.2328  0.6568
 9178SOL     OW28432   2.632   3.486   5.639  0.1108  0.7218  0.0792
 9178SOL    HW128433   2.604   3.436   5.557 -1.8338  0.0050  1.1128
 9178SOL    HW228434   2.726   3.462   5.663 -0.9582 -3.2752  1.0077
 9179SOL     OW28435   1.875   4.060   1.599 -0.0166  0.3872  0.2043
 9179SOL    HW128436   1.801   4.049   1.665 -0.2940 -0.3012 -0.2122
 9179SOL    HW228437   1.841   4.109   1.519 -0.3927 -1.0630 -0.5582
 9180SOL     OW28438   4.103   3.659   4.458  0.5545 -0.1321  0.5347
 9180SOL    HW128439   4.104   3.758   4.471  2.6235 -0.2532  1.7610
 9180SOL    HW228440   4.082   3.638   4.362  1.2271  1.5455 -0.0112
 9181SOL     OW28441   4.537   3.170   5.933  0.1963  0.0897  0.4014
 9181SOL    HW128442   4.500   3.166   6.026 -1.9940 -1.8874 -0.4566
 9181SOL    HW228443   4.526   3.081   5.889  2.9608  0.3988 -1.1605
 9182SOL     OW28444   6.620   1.009   1.041 -0.4003  0.4536  0.6742
 9182SOL    HW128445   6.614   1.091   0.983 -0.9810  1.0397  1.5433
 9182SOL    HW228446   6.716   0.987   1.057 -0.2375  0.8784  0.3154
 9183SOL     OW28447   6.656   5.061   5.354 -0.3737  0.2014  0.3873
 9183SOL    HW128448   6.583   5.095   5.414  0.5572  2.5367  0.3136
 9183SOL    HW228449   6.618   5.045   5.263 -1.0788 -0.0218  0.7043
 9184SOL     OW28450   3.603   3.589   5.651  0.2149  0.8752 -0.6229
 9184SOL    HW128451   3.700   3.569   5.638 -0.2760 -0.6741 -2.2266
 9184SOL    HW228452   3.592   3.647   5.732  2.3100 -0.2099  0.5235
 9185SOL     OW28453   2.249   2.839   5.874 -0.2550  0.5458 -0.2279
 9185SOL    HW128454   2.271   2.828   5.777  0.1848  0.5290 -0.1259
 9185SOL    HW228455   2.222   2.934   5.891 -2.5746  0.0489 -0.8080
 9186SOL     OW28456   1.772   0.056   6.971 -0.3771 -0.4508  0.2594
 9186SOL    HW128457   1.822   0.134   6.933 -0.4654  0.7829  2.4836
 9186SOL    HW228458   1.837  -0.008   7.012 -0.4418  0.7484  2.4169
 9187SOL     OW28459   0.696   2.236   6.462 -0.3566  0.0813  0.2044
 9187SOL    HW128460   0.745   2.250   6.548  0.1685 -1.3699  0.1658
 9187SOL    HW228461   0.598   2.232   6.479 -0.2202 -0.8197  0.8385
 9188SOL     OW28462   2.337   3.733   6.295 -0.3934  0.3539  0.1260
 9188SOL    HW128463   2.356   3.753   6.391  0.6252 -0.5493  0.1343
 9188SOL    HW228464   2.424   3.724   6.245 -0.8899  0.0010 -0.6949
 9189SOL     OW28465   2.254   1.377   6.882 -0.3464  0.5067  0.3605
 9189SOL    HW128466   2.259   1.333   6.972  0.6682  0.1734  0.1559
 9189SOL    HW228467   2.159   1.398   6.860 -0.5020  2.0603  2.2191
 9190SOL     OW28468   1.182   4.792   3.285 -0.3120  0.1981 -0.0165
 9190SOL    HW128469   1.161   4.728   3.359 -0.3903 -2.0374 -1.8571
 9190SOL    HW228470   1.202   4.882   3.324  1.8227 -1.3570  2.8625
 9191SOL     OW28471   6.877   4.717   5.663  0.2277  0.0405 -0.8263
 9191SOL    HW128472   6.858   4.781   5.737  0.8225 -0.0285 -0.6081
 9191SOL    HW228473   6.853   4.759   5.576  0.5056  0.5221 -0.6746
 9192SOL     OW28474   1.174   2.594   1.595 -0.5745 -0.5832 -0.7592
 9192SOL    HW128475   1.170   2.680   1.545  0.4741  0.3486  0.6607
 9192SOL    HW228476   1.123   2.602   1.681  2.5261  0.0171  1.2111
 9193SOL     OW28477   2.446   6.687   2.593 -0.1369  0.2275  0.0939
 9193SOL    HW128478   2.468   6.784   2.603  1.7445 -0.2751  1.2368
 9193SOL    HW228479   2.506   6.632   2.651 -0.6615 -1.6988 -1.0646
 9194SOL     OW28480   4.126   5.590   2.385  0.3448  0.4075  0.3661
 9194SOL    HW128481   4.136   5.669   2.324 -4.7943  3.1910  2.4497
 9194SOL    HW228482   4.090   5.512   2.333 -0.5834  1.5734 -0.8164
 9195SOL     OW28483   4.130   3.830   6.661  0.6211 -0.4169  0.2154
 9195SOL    HW128484   4.075   3.904   6.700  3.5231  1.0631  1.8541
 9195SOL    HW228485   4.163   3.771   6.735  2.9676  0.0869 -0.3435
 9196SOL     OW28486   6.594   0.778   6.550 -0.5370  0.2631  0.1114
 9196SOL    HW128487   6.540   0.696   6.569 -0.8302  0.5883  0.7170
 9196SOL    HW228488   6.678   0.776   6.604 -1.5658  1.3899  1.8685
 9197SOL     OW28489   1.117   5.294   6.767  0.0331 -0.2452  0.3501
 9197SOL    HW128490   1.100   5.363   6.838  0.2047  0.0069  0.1522
 9197SOL    HW228491   1.060   5.214   6.783 -0.0193 -0.1382  0.7014
 9198SOL     OW28492   4.735   3.306   0.257  0.3136  0.2163  0.6130
 9198SOL    HW128493   4.708   3.306   0.161 -1.4010 -0.7690  1.0504
 9198SOL    HW228494   4.831   3.277   0.265  0.5470  0.5600 -0.8032
 9199SOL     OW28495   3.087   0.118   6.465 -0.0746 -0.1409  0.1789
 9199SOL    HW128496   3.182   0.091   6.449 -0.5038 -1.3187 -0.4870
 9199SOL    HW228497   3.049   0.160   6.383 -0.1420  0.2838  0.4271
 9200SOL     OW28498   0.216   5.556   5.560 -0.1502  0.4192  0.2913
 9200SOL    HW128499   0.254   5.483   5.616 -0.3940  1.8297  2.3997
 9200SOL    HW228500   0.134   5.592   5.604 -1.3753  0.4668 -1.8805
 9201SOL     OW28501   3.557   3.974   6.293 -0.0849  0.5542  0.1851
 9201SOL    HW128502   3.467   4.011   6.316 -0.2526  0.2244  0.0691
 9201SOL    HW228503   3.628   4.028   6.339 -0.3107  1.1443 -0.1424
 9202SOL     OW28504   1.073   3.276   4.488 -0.3053  0.4854 -0.3437
 9202SOL    HW128505   1.013   3.293   4.410  1.6422 -0.0345 -2.0649
 9202SOL    HW228506   1.131   3.356   4.503  0.0613  0.1780 -0.1173
 9203SOL     OW28507   6.719   3.434   0.520  0.0197  0.4623 -0.4743
 9203SOL    HW128508   6.734   3.350   0.572  0.9379  1.0224  0.1930
 9203SOL    HW228509   6.806   3.465   0.481 -0.3401  1.0153 -0.8414
 9204SOL     OW28510   6.005   2.640   3.639  0.3259 -0.5002 -0.3687
 9204SOL    HW128511   6.060   2.563   3.609 -2.1630 -2.0156 -1.4385
 9204SOL    HW228512   5.932   2.608   3.699  0.0062  1.2343  0.2324
 9205SOL     OW28513   3.784   0.216   0.931 -0.4310  0.4285 -0.2995
 9205SOL    HW128514   3.728   0.262   1.000 -1.3114  0.1550 -0.8181
 9205SOL    HW228515   3.725   0.180   0.859  0.3597 -0.4528 -0.5204
 9206SOL     OW28516   6.523   3.776   0.961  0.3779  0.3087  0.5044
 9206SOL    HW128517   6.423   3.778   0.961  0.3694  1.1188 -0.9400
 9206SOL    HW228518   6.557   3.801   0.870  1.8834 -1.4426  0.5175
 9207SOL     OW28519   3.766   5.851   1.983  0.0184  0.3119  0.4408
 9207SOL    HW128520   3.684   5.891   1.942  0.3223  0.9469  0.4358
 9207SOL    HW228521   3.805   5.784   1.920 -0.0287  0.6191  0.0782
 9208SOL     OW28522   1.919   4.696   1.141  0.6871  0.5943  0.6192
 9208SOL    HW128523   1.854   4.666   1.210 -1.0531  1.9263 -0.3523
 9208SOL    HW228524   1.980   4.766   1.179 -0.4588  1.5411  0.7661
 9209SOL     OW28525   6.700   3.005   1.302 -0.0475 -0.2300 -0.2660
 9209SOL    HW128526   6.652   3.087   1.272  0.1311 -0.6462 -1.7672
 9209SOL    HW228527   6.648   2.961   1.374 -1.2437  0.0597 -0.9205
 9210SOL     OW28528   2.377   1.787   6.802 -0.6259 -0.3087  0.2442
 9210SOL    HW128529   2.371   1.803   6.901 -1.3465  0.1352  0.1382
 9210SOL    HW228530   2.398   1.873   6.756 -1.6850 -0.2150 -0.0965
 9211SOL     OW28531   6.409   4.791   3.696 -0.2819  0.4451 -0.4643
 9211SOL    HW128532   6.313   4.815   3.678  0.1528  2.4623 -0.3248
 9211SOL    HW228533   6.433   4.821   3.788  0.9230  1.4670 -1.0852
 9212SOL     OW28534   0.642   5.283   4.197  0.0035  0.3619  0.4550
 9212SOL    HW128535   0.722   5.259   4.143 -0.0091  1.1377  0.0633
 9212SOL    HW228536   0.560   5.248   4.152  0.0602  0.2967  0.4028
 9213SOL     OW28537   2.495   1.200   5.523  0.2285  0.1378 -0.3847
 9213SOL    HW128538   2.437   1.276   5.494 -0.3998 -0.7733 -1.5808
 9213SOL    HW228539   2.591   1.226   5.514  0.0271  0.9335 -0.3508
 9214SOL     OW28540   5.596   0.204   1.392 -0.0239  0.4339 -0.2398
 9214SOL    HW128541   5.577   0.290   1.439 -1.1915 -0.9226  1.9336
 9214SOL    HW228542   5.609   0.221   1.294 -0.3946  3.0213  0.1013
 9215SOL     OW28543   1.895   0.991   5.853 -0.1871 -0.1863 -0.1899
 9215SOL    HW128544   1.977   0.988   5.796 -0.3549 -0.3651 -0.4207
 9215SOL    HW228545   1.897   1.075   5.909  1.1567 -1.1263  1.2915
 9216SOL     OW28546   0.468   4.572   4.761 -0.5256 -0.5533 -0.6039
 9216SOL    HW128547   0.468   4.472   4.760  0.1737 -0.7623  3.3266
 9216SOL    HW228548   0.562   4.605   4.751 -0.7001 -0.2713 -1.4177
 9217SOL     OW28549   3.301   5.237   4.698  0.3719 -0.0233  0.0096
 9217SOL    HW128550   3.207   5.222   4.730  0.3850 -0.8843 -0.3200
 9217SOL    HW228551   3.312   5.333   4.674 -1.0325 -0.2422 -1.7701
 9218SOL     OW28552   5.078   0.390   5.965  0.4715 -0.5488 -0.5993
 9218SOL    HW128553   5.031   0.405   6.052  0.9317  0.6189 -0.5424
 9218SOL    HW228554   5.041   0.451   5.895  2.2802  0.8615 -0.3936
 9219SOL     OW28555   4.284   4.444   5.900 -0.2767  0.4699 -0.0965
 9219SOL    HW128556   4.227   4.371   5.936 -1.0666  1.6120  1.0325
 9219SOL    HW228557   4.345   4.478   5.972 -0.7529  1.7049 -0.2556
 9220SOL     OW28558   2.758   6.009   6.124 -0.1564  0.7148  0.0527
 9220SOL    HW128559   2.751   5.965   6.214 -0.7550  0.3451 -0.1732
 9220SOL    HW228560   2.668   6.040   6.094 -0.0654  0.2758 -0.6998
 9221SOL     OW28561   0.453   2.806   6.887  1.0242 -0.2807 -0.2949
 9221SOL    HW128562   0.416   2.713   6.897 -0.5393  0.4079  0.8633
 9221SOL    HW228563   0.550   2.806   6.913  0.6820 -1.3465  1.1731
 9222SOL     OW28564   6.050   5.272   5.213  0.0313 -0.5088 -0.0158
 9222SOL    HW128565   6.148   5.252   5.210  0.1004 -0.1819  0.0056
 9222SOL    HW228566   6.003   5.200   5.264  0.3688 -0.2649  0.6558
 9223SOL     OW28567   4.811   6.901   4.951  0.2753 -0.2815  0.4121
 9223SOL    HW128568   4.862   6.842   4.888  1.2568 -0.4738  1.3655
 9223SOL    HW228569   4.751   6.961   4.898  0.8253 -0.6745 -0.6944
 9224SOL     OW28570   3.195   1.606   4.674  0.3819  0.5213 -0.3659
 9224SOL    HW128571   3.181   1.624   4.577  2.3876  2.4597 -0.3761
 9224SOL    HW228572   3.179   1.509   4.693 -0.6357  0.2244 -2.4803
 9225SOL     OW28573   5.541   4.733   6.969 -0.2099  0.1362 -0.1608
 9225SOL    HW128574   5.484   4.721   6.888  0.3481 -3.0457 -0.2016
 9225SOL    HW228575   5.516   4.665   7.038  0.9937  1.1678  1.3683
 9226SOL     OW28576   6.288   0.288   4.104  0.0459  0.3979 -0.0034
 9226SOL    HW128577   6.258   0.287   4.199  2.2962 -0.1475  0.7799
 9226SOL    HW228578   6.343   0.371   4.088  0.8339 -0.1840 -0.3968
 9227SOL     OW28579   0.215   0.815   0.725 -0.0976 -0.2842  0.1891
 9227SOL    HW128580   0.125   0.791   0.688  0.8925 -1.2102 -1.7879
 9227SOL    HW228581   0.243   0.904   0.690  1.5859 -1.9039 -2.9569
 9228SOL     OW28582   1.831   4.796   3.195  0.2973  0.1469 -0.0315
 9228SOL    HW128583   1.786   4.767   3.111  0.0531 -1.0048  0.4744
 9228SOL    HW228584   1.764   4.801   3.269  0.3365  2.0377 -0.0769
 9229SOL     OW28585   4.064   1.918   1.192  0.5982 -0.0711 -0.5320
 9229SOL    HW128586   4.026   1.829   1.167  0.5129  0.2561 -1.6342
 9229SOL    HW228587   4.029   1.946   1.281  0.8661 -1.2700 -0.0412
 9230SOL     OW28588   4.531   2.556   5.642  0.1979  0.5076  1.1650
 9230SOL    HW128589   4.607   2.540   5.579 -1.3227 -0.9683 -0.4007
 9230SOL    HW228590   4.484   2.641   5.616  0.0152  0.2819  0.7449
 9231SOL     OW28591   4.219   1.424   5.726 -0.1628  0.4180 -0.1415
 9231SOL    HW128592   4.256   1.516   5.715  1.7455 -0.2654  0.2480
 9231SOL    HW228593   4.282   1.368   5.779  0.7945 -2.2965 -3.7251
 9232SOL     OW28594   1.147   3.579   2.569 -0.4945 -0.0389  0.1657
 9232SOL    HW128595   1.081   3.642   2.610  0.4175  0.9029  0.2307
 9232SOL    HW228596   1.114   3.485   2.580 -3.1061  0.4856 -2.0752
 9233SOL     OW28597   6.839   3.603   0.038 -0.1768  0.0169  0.1350
 9233SOL    HW128598   6.906   3.544   0.084 -1.6388 -0.3824  1.8774
 9233SOL    HW228599   6.806   3.557  -0.044 -1.9449 -2.1593  1.9199
 9234SOL     OW28600   6.744   3.938   1.329  0.1142 -0.0944 -0.0372
 9234SOL    HW128601   6.714   3.921   1.423 -2.2426  2.2992 -0.2064
 9234SOL    HW228602   6.831   3.987   1.330  1.0664 -1.7405  0.7756
 9235SOL     OW28603   1.588   3.050   2.154  0.1067  0.0103 -0.5536
 9235SOL    HW128604   1.650   3.092   2.219 -0.5049 -0.5768  0.4286
 9235SOL    HW228605   1.628   3.055   2.062  2.4694 -1.9250  0.2625
 9236SOL     OW28606   4.897   3.390   2.574  0.2219  0.0613 -0.3779
 9236SOL    HW128607   4.861   3.415   2.484  1.2302 -0.2083 -0.8720
 9236SOL    HW228608   4.912   3.291   2.577 -0.8060 -0.0781  0.4645
 9237SOL     OW28609   2.342   1.551   5.706  0.3988 -0.0228 -0.1885
 9237SOL    HW128610   2.276   1.502   5.649  0.7396 -0.0464 -0.5650
 9237SOL    HW228611   2.368   1.493   5.783 -0.9632  0.4615  0.6629
 9238SOL     OW28612   3.170   5.445   6.143  0.5136  0.1370  0.2976
 9238SOL    HW128613   3.130   5.355   6.158 -0.3192  0.5401  0.5964
 9238SOL    HW228614   3.113   5.497   6.080  1.4625  0.1536 -0.5781
 9239SOL     OW28615   1.909   5.439   4.603  0.7610 -0.8549 -0.0919
 9239SOL    HW128616   1.854   5.455   4.521 -0.0865  2.2689  0.9382
 9239SOL    HW228617   1.894   5.346   4.636 -0.8978 -1.3223 -1.9999
 9240SOL     OW28618   5.043   1.650   1.475  0.2290  0.1028 -0.0140
 9240SOL    HW128619   5.023   1.558   1.509  1.2383 -0.7702 -1.6535
 9240SOL    HW228620   4.957   1.696   1.451 -0.2354 -0.7727 -0.0676
 9241SOL     OW28621   0.423   0.135   0.939 -0.2324 -0.2293  0.7556
 9241SOL    HW128622   0.459   0.224   0.913  1.0228 -1.0459 -0.3895
 9241SOL    HW228623   0.454   0.112   1.031 -1.8117  1.1352  1.6877
 9242SOL     OW28624   6.789   0.722   4.720  0.7355 -0.0416 -0.0754
 9242SOL    HW128625   6.855   0.796   4.731 -0.5456  1.1632 -0.0819
 9242SOL    HW228626   6.835   0.640   4.688  2.3002  0.5702  0.5268
 9243SOL     OW28627   3.565   0.527   0.275  0.4578  0.0466 -0.5591
 9243SOL    HW128628   3.552   0.618   0.315  1.0778 -0.1958  0.2157
 9243SOL    HW228629   3.539   0.458   0.342  2.1485 -0.3843 -0.3150
 9244SOL     OW28630   5.785   6.302   5.841  0.6361  0.0995 -0.3664
 9244SOL    HW128631   5.697   6.341   5.812  0.2246 -1.3816 -1.1935
 9244SOL    HW228632   5.777   6.203   5.847  1.9473  0.0364  0.6859
 9245SOL     OW28633   0.916   2.489   6.784 -0.3017 -0.5825  0.0204
 9245SOL    HW128634   0.986   2.560   6.774  0.5004 -1.3456  0.0584
 9245SOL    HW228635   0.907   2.465   6.881  0.0930 -1.1623 -0.0775
 9246SOL     OW28636   2.161   2.672   4.823  0.1656 -0.2425  0.3785
 9246SOL    HW128637   2.123   2.753   4.867  0.4418  0.3368 -0.4255
 9246SOL    HW228638   2.245   2.645   4.869 -1.4719 -1.9455  2.6242
 9247SOL     OW28639   1.247   2.891   3.075 -0.3545 -0.1661  0.3875
 9247SOL    HW128640   1.233   2.989   3.065 -0.4834 -0.1893  0.3410
 9247SOL    HW228641   1.329   2.864   3.023 -0.6217 -0.1690 -0.0368
 9248SOL     OW28642   6.225   6.970   1.295 -0.4271 -0.5815 -0.4556
 9248SOL    HW128643   6.160   6.994   1.224  0.8774  0.2525 -1.4046
 9248SOL    HW228644   6.228   7.042   1.365  0.9553  0.4254 -1.5002
 9249SOL     OW28645   0.674   5.816   2.578 -0.2066 -0.5089  0.0311
 9249SOL    HW128646   0.602   5.885   2.567  0.4802  0.6164  2.1387
 9249SOL    HW228647   0.760   5.852   2.543  0.7553  0.9214  3.4149
 9250SOL     OW28648   4.446   6.687   4.556  0.2541  0.0006 -0.4764
 9250SOL    HW128649   4.391   6.620   4.605  2.1432 -3.4344 -2.6512
 9250SOL    HW228650   4.518   6.722   4.616  0.4635 -1.5208  0.1977
 9251SOL     OW28651   2.417   5.443   4.736 -0.3977 -1.0521  0.0654
 9251SOL    HW128652   2.365   5.358   4.743 -1.0977 -0.6976 -0.6487
 9251SOL    HW228653   2.474   5.440   4.654 -1.6542 -0.2025 -0.8809
 9252SOL     OW28654   0.991   1.579   3.816 -0.4450  0.5214  0.4865
 9252SOL    HW128655   0.975   1.486   3.849 -1.9162  0.7626  0.5051
 9252SOL    HW228656   1.015   1.577   3.719  3.7238 -0.1788  1.3570
 9253SOL     OW28657   0.190   4.229   5.662 -0.5122  0.0212  0.2784
 9253SOL    HW128658   0.205   4.133   5.636 -1.8166 -0.2892  0.5641
 9253SOL    HW228659   0.261   4.286   5.622  0.6316 -1.1369  0.5721
 9254SOL     OW28660   1.641   4.261   3.310  0.8427  0.6140  0.0620
 9254SOL    HW128661   1.690   4.175   3.295  1.0194  0.4806  1.2780
 9254SOL    HW228662   1.685   4.312   3.384  1.9912  2.7547 -1.9696
 9255SOL     OW28663   4.790   5.175   2.770 -0.1232 -0.4170  0.1918
 9255SOL    HW128664   4.774   5.267   2.734  0.7527 -0.5914 -0.6912
 9255SOL    HW228665   4.887   5.151   2.758 -0.4949 -1.7585 -0.3127
 9256SOL     OW28666   2.520   1.387   1.686 -0.5175 -0.2793 -0.0244
 9256SOL    HW128667   2.528   1.295   1.725 -1.1876 -0.1789  0.3623
 9256SOL    HW228668   2.597   1.403   1.624 -0.1802 -0.9526  0.2028
 9257SOL     OW28669   3.753   6.974   5.356 -0.3088 -0.2271  0.1228
 9257SOL    HW128670   3.662   6.954   5.392 -0.0706 -1.8296 -0.1227
 9257SOL    HW228671   3.813   7.002   5.431 -0.7806  0.0282  0.4095
 9258SOL     OW28672   1.021   3.775   0.676 -0.2260  0.4017 -0.2577
 9258SOL    HW128673   1.083   3.828   0.734  0.3568  0.9780 -1.3739
 9258SOL    HW228674   1.005   3.824   0.590 -0.8329 -0.5719 -0.7225
 9259SOL     OW28675   2.413   5.747   1.803 -0.2570 -0.7379 -0.0728
 9259SOL    HW128676   2.366   5.730   1.890  1.1352 -1.1840  0.6141
 9259SOL    HW228677   2.511   5.739   1.816  0.0658  0.6215 -1.3873
 9260SOL     OW28678   4.741   0.509   3.593 -0.1045  0.5610  0.4759
 9260SOL    HW128679   4.778   0.446   3.661  1.9744  0.2981 -0.8207
 9260SOL    HW228680   4.652   0.476   3.563  0.9898 -1.9476 -0.3102
 9261SOL     OW28681   6.348   1.548   1.246  0.2783  0.3145 -0.2804
 9261SOL    HW128682   6.427   1.529   1.303  0.3301  0.9004 -0.1435
 9261SOL    HW228683   6.296   1.464   1.231  1.4334 -0.2667 -1.1646
 9262SOL     OW28684   2.860   0.875   6.957  0.2666  0.2954 -0.2016
 9262SOL    HW128685   2.772   0.867   6.910  0.2815  1.0823 -0.3799
 9262SOL    HW228686   2.870   0.967   6.994  1.2656  0.4031 -0.6970
 9263SOL     OW28687   2.552   6.343   4.265 -0.3534 -0.4019 -0.1247
 9263SOL    HW128688   2.601   6.427   4.287 -0.7327 -0.8350  2.7873
 9263SOL    HW228689   2.518   6.347   4.171 -0.5595  2.7942 -0.0141
 9264SOL     OW28690   5.926   6.483   5.688 -0.1565  0.0407  0.6212
 9264SOL    HW128691   5.866   6.558   5.716 -1.6386 -0.7662 -0.2227
 9264SOL    HW228692   5.885   6.396   5.716  1.4751 -0.4820  1.4824
 9265SOL     OW28693   0.945   3.776   3.752 -0.7393 -0.5320 -0.8059
 9265SOL    HW128694   0.931   3.805   3.847 -0.1449 -1.1179 -0.5318
 9265SOL    HW228695   1.021   3.827   3.712  0.7190 -2.0710 -0.1255
 9266SOL     OW28696   3.669   4.534   0.432 -0.1107 -0.0775  0.4142
 9266SOL    HW128697   3.631   4.546   0.524 -0.7891 -0.5377  0.2033
 9266SOL    HW228698   3.706   4.441   0.424 -0.5245 -0.2185  0.0664
 9267SOL     OW28699   0.168   3.382   4.672 -0.0911 -0.5424  0.3142
 9267SOL    HW128700   0.143   3.343   4.584  1.8292 -0.1861 -0.4386
 9267SOL    HW228701   0.104   3.455   4.696  0.6681  0.9843 -1.9527
 9268SOL     OW28702   2.758   5.926   2.863  0.5122  0.7647 -0.2241
 9268SOL    HW128703   2.839   5.913   2.806  0.0459  1.1237 -0.9772
 9268SOL    HW228704   2.763   5.865   2.942  1.1106  0.1803 -0.7037
 9269SOL     OW28705   3.328   1.836   0.962  0.2376  0.4527 -0.3240
 9269SOL    HW128706   3.232   1.818   0.985  0.4848 -0.0540  0.3696
 9269SOL    HW228707   3.352   1.928   0.990 -0.6432  1.4330 -2.5541
 9270SOL     OW28708   5.437   6.963   5.094 -0.2265 -0.2389  0.3765
 9270SOL    HW128709   5.439   7.033   5.023  0.5710 -2.9923 -2.5794
 9270SOL    HW228710   5.449   7.005   5.184  1.6549  3.2012 -1.2950
 9271SOL     OW28711   6.590   2.072   4.104 -0.1705 -0.2860 -0.1048
 9271SOL    HW128712   6.554   2.152   4.057 -2.4845  0.6585  2.9369
 9271SOL    HW228713   6.688   2.085   4.122  0.2038  0.3741 -2.3555
 9272SOL     OW28714   5.754   4.224   6.021 -0.7438 -0.2130  0.2175
 9272SOL    HW128715   5.737   4.298   5.956  0.4653 -1.8232 -2.0669
 9272SOL    HW228716   5.777   4.263   6.110  1.0826  2.2615 -1.1876
 9273SOL     OW28717   2.243   4.613   4.695 -0.1793 -0.3099  0.3646
 9273SOL    HW128718   2.157   4.580   4.735 -0.3534  0.8279  0.9823
 9273SOL    HW228719   2.319   4.558   4.730 -0.5793 -0.8956  0.3377
 9274SOL     OW28720   5.990   1.976   5.178  0.0642 -0.1042 -0.2056
 9274SOL    HW128721   5.912   1.965   5.117 -0.4518 -0.7063  0.5371
 9274SOL    HW228722   6.003   1.891   5.230  0.0210  0.6602  1.0704
 9275SOL     OW28723   3.037   1.384   1.139  0.5735  0.0846  0.1640
 9275SOL    HW128724   3.040   1.286   1.158 -1.4956  0.4885  3.1784
 9275SOL    HW228725   2.986   1.400   1.055 -0.8275 -1.3701  0.6964
 9276SOL     OW28726   5.503   0.788   3.680  0.3015  0.5128  0.6188
 9276SOL    HW128727   5.508   0.757   3.776  0.7359 -1.0733  0.1137
 9276SOL    HW228728   5.516   0.710   3.619 -1.6162  1.1914 -0.7647
 9277SOL     OW28729   0.374   5.102   6.473  0.7821 -0.5117  0.1042
 9277SOL    HW128730   0.291   5.149   6.441  0.5008 -1.2283 -0.2520
 9277SOL    HW228731   0.394   5.128   6.567 -0.2223 -0.8139  0.4129
 9278SOL     OW28732   5.656   0.139   2.285  0.1223  0.2088  0.3445
 9278SOL    HW128733   5.643   0.057   2.228 -2.1939 -0.5223  1.7766
 9278SOL    HW228734   5.618   0.218   2.239 -1.2163 -0.2776  0.5573
 9279SOL     OW28735   4.661   0.529   2.435  0.6904 -0.1360 -0.2702
 9279SOL    HW128736   4.740   0.589   2.421  2.3142 -2.1006  0.0687
 9279SOL    HW228737   4.684   0.460   2.504 -1.4467 -0.5826  0.0470
 9280SOL     OW28738   6.786   1.463   3.312 -0.1515  0.0270 -0.2909
 9280SOL    HW128739   6.747   1.467   3.220  1.5794  0.3104 -1.0436
 9280SOL    HW228740   6.755   1.542   3.364 -0.4892  0.3105 -0.9058
 9281SOL     OW28741   6.313   4.649   3.331  0.0808 -0.1202  0.1466
 9281SOL    HW128742   6.375   4.728   3.333 -1.1585  0.8652  1.7402
 9281SOL    HW228743   6.281   4.635   3.237  1.0602  0.6660 -0.3304
 9282SOL     OW28744   2.144   1.305   4.597 -0.0552 -0.0822 -0.2182
 9282SOL    HW128745   2.108   1.395   4.575  0.6321  0.8242  2.0953
 9282SOL    HW228746   2.242   1.303   4.579  0.6288  0.8445  2.8462
 9283SOL     OW28747   4.033   6.470   0.551  0.2834 -0.4082 -0.1813
 9283SOL    HW128748   4.107   6.519   0.598  0.7285 -0.2466 -1.0452
 9283SOL    HW228749   3.969   6.435   0.619  1.4533 -1.0506  0.6263
 9284SOL     OW28750   6.304   2.483   1.009  0.2866  0.0316  0.2311
 9284SOL    HW128751   6.302   2.491   0.909 -2.2071 -0.8630  0.1318
 9284SOL    HW228752   6.211   2.466   1.043  1.0509  0.4010  2.7353
 9285SOL     OW28753   3.128   6.081   2.420  0.2914 -0.0943 -0.0758
 9285SOL    HW128754   3.101   6.138   2.497  0.5459  0.0078 -0.0594
 9285SOL    HW228755   3.058   6.011   2.403 -1.1662  1.5926 -1.5076
 9286SOL     OW28756   4.151   2.359   6.595  0.5709  0.5215  0.0623
 9286SOL    HW128757   4.062   2.376   6.552  1.1327  0.8573 -1.0261
 9286SOL    HW228758   4.195   2.446   6.617  1.8323  0.4985 -2.0489
 9287SOL     OW28759   1.959   0.914   1.954  0.2525 -0.2664 -0.9610
 9287SOL    HW128760   1.922   1.006   1.966  0.1668 -0.6110  2.0581
 9287SOL    HW228761   1.911   0.868   1.879 -3.7782  0.2236  1.0573
 9288SOL     OW28762   3.004   2.184   3.194 -0.0256 -0.1489 -0.2215
 9288SOL    HW128763   2.930   2.152   3.135 -0.5391 -0.5413  0.6259
 9288SOL    HW228764   3.091   2.176   3.146 -0.2367 -1.9863 -0.3635
 9289SOL     OW28765   5.743   0.800   3.049  0.2302 -0.0208 -0.0290
 9289SOL    HW128766   5.667   0.754   3.094  0.2406  1.0391  1.1505
 9289SOL    HW228767   5.821   0.805   3.112  0.1017  1.8934  0.0340
 9290SOL     OW28768   1.110   0.561   4.448 -0.1507 -0.3013  0.0258
 9290SOL    HW128769   1.109   0.657   4.475  0.1834 -0.7494  1.7598
 9290SOL    HW228770   1.032   0.514   4.490 -0.5163 -0.7371 -1.0951
 9291SOL     OW28771   3.353   3.529   4.541 -0.5890  0.1776  0.0175
 9291SOL    HW128772   3.414   3.586   4.596 -0.2588  0.7569 -0.9357
 9291SOL    HW228773   3.314   3.583   4.467  0.0641 -0.9191 -1.1765
 9292SOL     OW28774   1.563   0.080   6.166  0.1714 -0.3173 -0.4068
 9292SOL    HW128775   1.472   0.109   6.197  0.8115 -0.8181  2.1462
 9292SOL    HW228776   1.557   0.045   6.072 -2.4316 -1.1386 -0.0074
 9293SOL     OW28777   1.064   6.488   2.071 -0.4954 -0.3826 -0.3815
 9293SOL    HW128778   0.975   6.450   2.098 -0.3573  0.0625  0.7428
 9293SOL    HW228779   1.120   6.501   2.152 -1.1677  3.9445 -0.3788
 9294SOL     OW28780   4.289   0.502   1.761  0.3033  0.2058 -0.6418
 9294SOL    HW128781   4.203   0.451   1.755  0.9427 -0.7826 -2.2662
 9294SOL    HW228782   4.335   0.481   1.847 -1.3872  1.3376  0.6023
 9295SOL     OW28783   0.644   6.146   2.791  0.1074  0.0065 -0.3556
 9295SOL    HW128784   0.642   6.046   2.783  0.0692 -0.2137  1.8764
 9295SOL    HW228785   0.728   6.181   2.749  0.4465 -1.0134 -0.5577
 9296SOL     OW28786   4.095   0.079   3.081 -0.0869 -0.2865  0.3802
 9296SOL    HW128787   4.135   0.169   3.101 -0.1656  0.1409 -1.2812
 9296SOL    HW228788   4.110   0.057   2.985 -1.9735 -1.0861  0.2411
 9297SOL     OW28789   4.182   3.792   5.351 -0.6161  0.3057  0.3242
 9297SOL    HW128790   4.083   3.785   5.367 -0.6013  0.9793  0.7720
 9297SOL    HW228791   4.203   3.757   5.260 -1.3992  0.9892 -0.1359
 9298SOL     OW28792   0.247   3.084   6.603  0.0637 -0.2785  0.3236
 9298SOL    HW128793   0.267   3.170   6.557 -0.8239 -1.1097 -1.7629
 9298SOL    HW228794   0.274   3.090   6.699  0.1104  2.2641  0.2139
 9299SOL     OW28795   3.292   0.328   5.170 -0.6750 -0.5990  0.0319
 9299SOL    HW128796   3.200   0.289   5.163 -0.1372 -2.3749  1.7810
 9299SOL    HW228797   3.342   0.282   5.244  1.4469  0.6938 -0.5060
 9300SOL     OW28798   1.057   6.216   2.160 -0.1860 -0.1220 -0.7035
 9300SOL    HW128799   1.068   6.124   2.198 -0.9813  0.5795  1.4142
 9300SOL    HW228800   1.135   6.238   2.102  1.6021 -1.0153  1.2158
 9301SOL     OW28801   6.110   5.264   5.725 -0.0782  0.5645 -0.6152
 9301SOL    HW128802   6.026   5.307   5.759  0.6453  1.4772  0.0905
 9301SOL    HW228803   6.164   5.232   5.803  1.0811  1.6624 -0.9350
 9302SOL     OW28804   1.716   3.554   2.418 -0.4612 -0.4548  0.9306
 9302SOL    HW128805   1.627   3.565   2.373  0.9042 -0.5654 -2.0372
 9302SOL    HW228806   1.749   3.461   2.403  0.6617 -0.0771  0.9737
 9303SOL     OW28807   4.060   5.195   6.660  0.3878  0.3954  0.6584
 9303SOL    HW128808   4.095   5.129   6.594 -1.3200 -0.2600  0.3589
 9303SOL    HW228809   3.961   5.182   6.671  0.6920 -0.1154  3.9555
 9304SOL     OW28810   0.099   4.628   4.940  0.2261  0.6280 -0.1206
 9304SOL    HW128811   0.138   4.594   4.854  1.7078 -0.9671  1.0979
 9304SOL    HW228812   0.173   4.659   4.999 -0.6950  0.9100  0.9101
 9305SOL     OW28813   3.322   5.513   0.085 -0.3465  0.3260 -0.6838
 9305SOL    HW128814   3.374   5.476   0.163 -2.2762  0.9887  1.0149
 9305SOL    HW228815   3.344   5.609   0.073 -0.6046  0.4175 -0.4433
 9306SOL     OW28816   5.174   3.421   3.236  0.2375 -0.1314 -0.2196
 9306SOL    HW128817   5.227   3.458   3.159  1.1104 -0.7991  0.0409
 9306SOL    HW228818   5.077   3.441   3.222  0.2987 -0.7112 -1.7888
 9307SOL     OW28819   4.538   6.510   5.272  0.3643 -0.0545  0.4893
 9307SOL    HW128820   4.548   6.580   5.342  0.5655  0.4654 -0.0492
 9307SOL    HW228821   4.594   6.533   5.192  1.1014 -1.2663  0.6263
 9308SOL     OW28822   1.036   4.392   0.563 -0.5110  0.1386  0.1372
 9308SOL    HW128823   1.059   4.473   0.617 -0.8356  0.2876  0.0578
 9308SOL    HW228824   0.957   4.412   0.505  0.2573  0.2045 -0.9232
 9309SOL     OW28825   0.255   6.387   1.147  0.6195  0.4515 -0.2306
 9309SOL    HW128826   0.209   6.308   1.189  0.6968  0.2036 -0.6063
 9309SOL    HW228827   0.238   6.469   1.202 -0.1620  0.3357 -0.2901
 9310SOL     OW28828   1.656   0.213   5.761 -0.3621 -0.3341  0.9337
 9310SOL    HW128829   1.662   0.158   5.678 -2.5766 -0.4803  0.8129
 9310SOL    HW228830   1.741   0.265   5.773  0.3856 -1.0589 -0.8624
 9311SOL     OW28831   6.616   1.389   2.570 -0.1915  0.2079  1.0892
 9311SOL    HW128832   6.546   1.460   2.561  1.0665  1.4545  0.8510
 9311SOL    HW228833   6.595   1.332   2.650 -3.3261 -1.6600 -0.8280
 9312SOL     OW28834   5.714   5.628   6.803  0.6582  0.4747  0.6964
 9312SOL    HW128835   5.790   5.564   6.815  0.7780 -0.2425 -2.7520
 9312SOL    HW228836   5.738   5.716   6.844  2.3090 -0.4202  1.7699
 9313SOL     OW28837   1.665   3.071   3.667 -0.0682  0.1182  0.1999
 9313SOL    HW128838   1.702   3.016   3.741  1.9715 -1.7715 -2.0388
 9313SOL    HW228839   1.698   3.165   3.676  2.0943 -0.5961  0.5060
 9314SOL     OW28840   5.564   3.637   0.622 -0.3094  0.2634  0.0675
 9314SOL    HW128841   5.627   3.675   0.690  0.2576  0.2622 -0.4471
 9314SOL    HW228842   5.520   3.555   0.658 -1.6043  1.4245  1.2304
 9315SOL     OW28843   2.777   0.789   2.885 -0.3219  0.2096 -0.4384
 9315SOL    HW128844   2.870   0.771   2.851  0.1271  3.3320 -1.2283
 9315SOL    HW228845   2.780   0.804   2.984  0.0487  0.3330 -0.4654
 9316SOL     OW28846   0.394   3.577   0.725  0.5535 -0.2018 -0.1897
 9316SOL    HW128847   0.362   3.630   0.804  0.9056 -0.9932  0.5010
 9316SOL    HW228848   0.347   3.489   0.723  2.1142 -1.0853  0.4219
 9317SOL     OW28849   6.532   3.152   1.654 -0.5623 -0.3742 -0.4618
 9317SOL    HW128850   6.529   3.056   1.624  0.2280 -0.4356 -0.3767
 9317SOL    HW228851   6.478   3.162   1.737  1.4267 -1.3256  1.0233
 9318SOL     OW28852   0.774   1.262   4.203 -0.4064 -0.3152 -0.1577
 9318SOL    HW128853   0.795   1.258   4.301 -0.0889 -1.3613 -0.2481
 9318SOL    HW228854   0.680   1.233   4.187 -1.0960  1.6961 -0.0094
 9319SOL     OW28855   2.182   2.038   6.160  0.0352 -0.4354  0.0444
 9319SOL    HW128856   2.140   1.948   6.157 -1.1956  0.1357 -0.6159
 9319SOL    HW228857   2.118   2.103   6.201  0.4582  0.3630 -0.5434
 9320SOL     OW28858   5.450   1.668   1.289 -0.0865 -0.1013 -0.3192
 9320SOL    HW128859   5.547   1.674   1.264  0.6528  0.5752  2.3645
 9320SOL    HW228860   5.442   1.625   1.379 -2.2340  0.4265 -0.2107
 9321SOL     OW28861   1.161   5.461   6.078 -0.7031  0.5316 -0.3307
 9321SOL    HW128862   1.116   5.444   6.166  0.0443  1.3225  0.2226
 9321SOL    HW228863   1.160   5.377   6.023 -0.8740 -0.0764  0.5743
 9322SOL     OW28864   5.730   0.175   7.024 -0.7537  0.1175  0.2397
 9322SOL    HW128865   5.713   0.204   7.118  0.5887  0.0493  0.5336
 9322SOL    HW228866   5.644   0.167   6.974 -1.3847  1.4602  1.0778
 9323SOL     OW28867   1.097   5.695   6.388 -0.8703  0.2790  0.4366
 9323SOL    HW128868   1.159   5.713   6.464 -0.4432 -0.4315  0.2596
 9323SOL    HW228869   1.121   5.754   6.311  1.1310 -1.6157 -0.4767
 9324SOL     OW28870   2.538   0.343   0.601 -0.0437 -0.0523  0.5673
 9324SOL    HW128871   2.463   0.324   0.664 -1.6838 -0.8718 -1.5177
 9324SOL    HW228872   2.527   0.435   0.562 -0.8416 -0.7044 -0.8178
 9325SOL     OW28873   6.049   1.982   6.044 -0.5426  0.1212 -0.0367
 9325SOL    HW128874   5.974   2.046   6.059 -1.1497 -0.6113  0.1091
 9325SOL    HW228875   6.133   2.033   6.023 -0.5066  1.0547  2.1545
 9326SOL     OW28876   1.537   6.969   2.090 -0.2520 -0.1869 -0.0605
 9326SOL    HW128877   1.573   6.888   2.136  1.3535  0.2850 -0.4226
 9326SOL    HW228878   1.602   7.044   2.098 -0.7328  0.4374 -1.5599
 9327SOL     OW28879   1.249   1.697   3.903  0.3765  0.0671 -0.5205
 9327SOL    HW128880   1.165   1.667   3.858  0.6094 -1.5559  0.0656
 9327SOL    HW228881   1.256   1.797   3.897 -1.0466  0.1375 -1.4975
 9328SOL     OW28882   6.255   4.603   5.691 -0.2339  0.5005 -0.5207
 9328SOL    HW128883   6.290   4.565   5.605  0.5652 -2.0831  0.8683
 9328SOL    HW228884   6.161   4.573   5.705 -0.0298  0.0928 -0.0215
 9329SOL     OW28885   0.242   5.922   6.343  0.3554 -0.8577  0.1971
 9329SOL    HW128886   0.202   6.000   6.392  0.7451 -0.3366 -0.2957
 9329SOL    HW228887   0.188   5.902   6.262  0.3289 -1.0230  0.2546
 9330SOL     OW28888   3.013   2.211   0.943 -0.4025  0.3719  0.4281
 9330SOL    HW128889   3.012   2.141   1.014 -0.8947 -0.1427 -0.0832
 9330SOL    HW228890   3.106   2.224   0.910 -0.3789 -0.4096  0.1694
 9331SOL     OW28891   1.647   1.488   1.238 -0.8730  0.5992 -0.4665
 9331SOL    HW128892   1.644   1.422   1.313 -1.6377 -0.6688 -1.5922
 9331SOL    HW228893   1.560   1.489   1.190 -1.0720  2.8144 -0.1950
 9332SOL     OW28894   5.381   2.555   2.898  0.4257  0.3844  0.4453
 9332SOL    HW128895   5.297   2.504   2.918  0.5615  0.4459  1.2104
 9332SOL    HW228896   5.360   2.632   2.838 -0.2774  1.0553  1.5162
 9333SOL     OW28897   1.007   6.946   2.131 -0.3784  0.1053 -0.5076
 9333SOL    HW128898   0.990   7.023   2.192  0.4173  1.5029 -1.9814
 9333SOL    HW228899   1.065   6.879   2.177  0.5623  1.3165  0.1368
 9334SOL     OW28900   1.701   0.438   4.799  0.3046 -0.5199 -0.3308
 9334SOL    HW128901   1.742   0.445   4.708  2.4620 -1.5135  0.4807
 9334SOL    HW228902   1.774   0.436   4.868 -1.1773 -1.6139  1.2858
 9335SOL     OW28903   6.790   6.528   3.528  0.4244 -0.4331  0.3503
 9335SOL    HW128904   6.804   6.461   3.456 -1.1667 -1.5536  1.0215
 9335SOL    HW228905   6.706   6.580   3.511  0.6209  0.0592  0.8232
 9336SOL     OW28906   3.217   1.348   3.074  0.1580  0.2915  0.1125
 9336SOL    HW128907   3.240   1.260   3.114  0.8061  0.8400  0.9992
 9336SOL    HW228908   3.205   1.338   2.975  1.9224 -0.4805 -0.0593
 9337SOL     OW28909   4.101   1.996   3.127 -0.5881  0.5700 -0.1487
 9337SOL    HW128910   4.094   2.051   3.044  0.8153  0.0371 -0.6476
 9337SOL    HW228911   4.168   1.923   3.113  0.1133  0.8226  1.6419
 9338SOL     OW28912   4.388   4.792   4.995  0.1723 -0.4179  0.3588
 9338SOL    HW128913   4.381   4.695   4.974  0.4257 -0.1903 -0.8142
 9338SOL    HW228914   4.325   4.814   5.070 -0.1679 -1.4075  0.3757
 9339SOL     OW28915   3.561   3.333   6.285  0.1955  0.1068  0.6963
 9339SOL    HW128916   3.613   3.367   6.207 -0.6400 -0.5750 -0.1788
 9339SOL    HW228917   3.464   3.352   6.272 -0.0485 -0.7530  1.1789
 9340SOL     OW28918   6.677   1.890   0.161 -0.6720 -0.1832 -0.1735
 9340SOL    HW128919   6.732   1.836   0.224 -0.2160 -0.1021 -0.4981
 9340SOL    HW228920   6.620   1.954   0.213 -0.9618 -0.7361  0.1937
 9341SOL     OW28921   0.369   6.969   4.626 -0.2752 -0.0693  0.6988
 9341SOL    HW128922   0.461   7.007   4.627  0.2348 -1.2041 -0.2785
 9341SOL    HW228923   0.342   6.943   4.718  1.4671 -2.2009  0.6693
 9342SOL     OW28924   5.792   6.681   1.565 -0.2304  0.6939 -0.2652
 9342SOL    HW128925   5.876   6.708   1.519  2.4194 -3.7731  1.3610
 9342SOL    HW228926   5.793   6.715   1.659 -0.6157  1.1554 -0.4206
 9343SOL     OW28927   4.012   0.246   5.395 -0.6383 -0.3536 -0.2741
 9343SOL    HW128928   4.016   0.332   5.445 -0.3455 -0.9211  0.7180
 9343SOL    HW228929   4.025   0.263   5.297 -0.9508  0.7540 -0.1342
 9344SOL     OW28930   6.398   6.836   0.946 -0.5866 -0.1351  0.0326
 9344SOL    HW128931   6.356   6.804   1.030 -1.1700  0.4652 -0.0230
 9344SOL    HW228932   6.355   6.922   0.918 -0.0264 -0.0491 -0.5820
 9345SOL     OW28933   5.181   3.923   3.174  0.3326 -0.0276 -0.3226
 9345SOL    HW128934   5.101   3.892   3.122  0.3378  0.4326 -0.6096
 9345SOL    HW228935   5.151   3.988   3.244  0.5677  1.0063 -1.1465
 9346SOL     OW28936   1.426   1.243   2.866 -0.2502  0.1486 -0.0215
 9346SOL    HW128937   1.486   1.203   2.796 -0.5309 -0.9784  0.3703
 9346SOL    HW228938   1.339   1.269   2.824 -0.0511  0.3947 -0.2878
 9347SOL     OW28939   5.586   0.640   3.890 -0.3714  0.1879 -0.7063
 9347SOL    HW128940   5.567   0.575   3.817 -1.0566  0.7264 -1.0140
 9347SOL    HW228941   5.656   0.602   3.951 -0.5155 -0.6814 -1.0731
 9348SOL     OW28942   2.729   2.748   7.026  0.1004  0.3079  0.4439
 9348SOL    HW128943   2.780   2.832   7.046 -0.3518  1.3701 -2.3767
 9348SOL    HW228944   2.765   2.707   6.942 -0.5930 -1.6035  1.0428
 9349SOL     OW28945   0.171   4.932   6.881  0.1819  0.2157  1.1707
 9349SOL    HW128946   0.154   4.868   6.956  1.2635 -1.8478 -0.2517
 9349SOL    HW228947   0.157   4.885   6.794  0.2410  2.1794  0.0549
 9350SOL     OW28948   0.871   1.289   0.257 -0.6034  0.0049  0.2703
 9350SOL    HW128949   0.895   1.381   0.227 -1.6503  0.0388 -0.5241
 9350SOL    HW228950   0.939   1.223   0.225  0.0779  0.4680  0.7291
 9351SOL     OW28951   5.509   4.083   6.489 -0.3703  0.1370 -0.2528
 9351SOL    HW128952   5.567   4.049   6.414 -0.3630  2.3859 -1.3515
 9351SOL    HW228953   5.565   4.094   6.571  0.0217 -0.6652 -0.3949
 9352SOL     OW28954   1.489   6.487   6.437  0.5434 -0.2315 -0.0790
 9352SOL    HW128955   1.397   6.454   6.455  0.1583  0.9849  0.2816
 9352SOL    HW228956   1.556   6.425   6.480 -0.1801 -0.0346  1.3959
 9353SOL     OW28957   2.063   3.804   5.841 -0.6494  0.5079  0.4118
 9353SOL    HW128958   2.162   3.799   5.831 -0.6818 -0.0335  0.3277
 9353SOL    HW228959   2.039   3.813   5.938 -0.6127 -2.8708  0.8544
 9354SOL     OW28960   5.242   5.209   3.214 -0.2339 -0.2524 -0.5042
 9354SOL    HW128961   5.286   5.202   3.124  0.4036  1.9546 -0.4185
 9354SOL    HW228962   5.201   5.121   3.238 -2.9262 -0.2617 -4.2238
 9355SOL     OW28963   0.878   1.719   6.648 -0.6415  0.2525  0.1586
 9355SOL    HW128964   0.804   1.724   6.581 -1.7999 -0.7814  1.3014
 9355SOL    HW228965   0.950   1.659   6.614  0.0792  1.9020 -1.3131
 9356SOL     OW28966   2.557   4.977   2.702 -0.2383 -0.0069 -0.2177
 9356SOL    HW128967   2.625   5.045   2.675 -0.3810  0.7933  1.3288
 9356SOL    HW228968   2.599   4.886   2.705 -0.0629 -0.0373 -2.3666
 9357SOL     OW28969   4.362   6.825   1.644 -0.1956  0.9024  0.4835
 9357SOL    HW128970   4.322   6.905   1.600 -1.7331  0.0647  0.2859
 9357SOL    HW228971   4.318   6.809   1.732 -2.5043 -1.6959 -0.9738
 9358SOL     OW28972   0.922   2.141   4.561 -0.0892  0.5156  0.2133
 9358SOL    HW128973   1.008   2.090   4.552  0.5418  1.2269  1.8178
 9358SOL    HW228974   0.938   2.238   4.544 -0.3701  0.7723  1.2964
 9359SOL     OW28975   0.926   5.848   1.083 -0.6539  0.4358  0.0660
 9359SOL    HW128976   0.871   5.764   1.075  1.0683 -0.8805  1.2545
 9359SOL    HW228977   0.895   5.900   1.162 -0.8953  0.2598  0.0885
 9360SOL     OW28978   5.488   5.434   6.930  0.0799 -0.5064  0.1466
 9360SOL    HW128979   5.529   5.375   7.000  1.1338 -2.3027 -1.8703
 9360SOL    HW228980   5.559   5.483   6.881 -0.7330  1.8208  1.1374
 9361SOL     OW28981   1.276   3.782   5.755  0.0170 -0.2658 -0.1819
 9361SOL    HW128982   1.351   3.725   5.786  0.7266  1.2254  0.9902
 9361SOL    HW228983   1.301   3.828   5.670 -0.3399 -1.2074 -0.8204
 9362SOL     OW28984   4.201   1.561   1.510 -0.6277 -0.4369 -0.0694
 9362SOL    HW128985   4.114   1.583   1.553 -0.7277 -1.0172  0.0430
 9362SOL    HW228986   4.189   1.483   1.448 -0.1187 -0.7866  0.2586
 9363SOL     OW28987   5.105   3.364   1.750 -0.5713 -0.4308 -0.3827
 9363SOL    HW128988   5.047   3.298   1.799  0.9098 -0.0827  2.0477
 9363SOL    HW228989   5.198   3.328   1.744 -0.2592  0.4592 -1.1203
 9364SOL     OW28990   1.893   0.494   1.965  0.0612  0.1774 -0.4440
 9364SOL    HW128991   1.968   0.557   1.987 -0.0250 -0.2860  1.3461
 9364SOL    HW228992   1.929   0.413   1.920  0.5652  0.1898 -0.0680
 9365SOL     OW28993   5.754   2.833   0.989  0.5740 -0.2271  0.3113
 9365SOL    HW128994   5.678   2.835   0.924  0.5364 -1.8469  0.2756
 9365SOL    HW228995   5.730   2.888   1.069  0.0232  0.5727 -0.3758
 9366SOL     OW28996   6.202   4.523   3.566 -0.1981  0.6854  0.1077
 9366SOL    HW128997   6.122   4.576   3.594  0.8270  2.6928 -0.5518
 9366SOL    HW228998   6.239   4.562   3.482  0.1216 -1.6696 -0.9194
 9367SOL     OW28999   3.981   6.387   4.449  0.1443 -0.5357 -0.3055
 9367SOL    HW129000   3.953   6.478   4.418  0.5553  0.8549  2.9743
 9367SOL    HW229001   3.899   6.334   4.472 -0.0650 -0.0558  0.0913
 9368SOL     OW29002   6.167   1.579   5.488 -0.7662  0.0319 -0.0818
 9368SOL    HW129003   6.180   1.546   5.395  1.5305  0.3701  0.0606
 9368SOL    HW229004   6.191   1.507   5.554 -0.5227  0.3936  0.2327
 9369SOL     OW29005   2.499   5.527   2.976 -0.3344  0.5524  0.2078
 9369SOL    HW129006   2.594   5.496   2.980  1.1434  4.4655 -0.1738
 9369SOL    HW229007   2.447   5.467   2.914  2.4891 -0.3293 -1.5053
 9370SOL     OW29008   4.050   0.558   6.132 -0.4997  0.3456  0.1113
 9370SOL    HW129009   3.960   0.564   6.089 -0.8923  0.4918  0.9382
 9370SOL    HW229010   4.073   0.461   6.148 -0.8919  0.3365  0.6662
 9371SOL     OW29011   2.090   5.608   1.566 -0.0692 -0.3366 -0.5625
 9371SOL    HW129012   2.189   5.601   1.575 -0.3046 -2.4396  1.3278
 9371SOL    HW229013   2.048   5.597   1.656 -2.1199 -2.3710 -1.6738
 9372SOL     OW29014   1.847   5.876   5.707  0.0439  0.5788 -0.5316
 9372SOL    HW129015   1.787   5.866   5.628  0.6089  0.7013 -0.9786
 9372SOL    HW229016   1.794   5.912   5.784 -1.1445 -1.9423 -0.0543
 9373SOL     OW29017   2.601   4.585   4.636 -0.8388  0.5774 -0.2079
 9373SOL    HW129018   2.694   4.620   4.640 -0.4414 -0.3298 -1.0951
 9373SOL    HW229019   2.579   4.539   4.723 -1.0494  2.1776  0.6129
 9374SOL     OW29020   5.676   1.755   2.680  0.9397 -0.3998  0.0307
 9374SOL    HW129021   5.608   1.828   2.690  2.1730  0.5898  1.7149
 9374SOL    HW229022   5.717   1.760   2.590  1.0964  1.1038  0.1641
 9375SOL     OW29023   0.220   5.662   0.566 -0.2208  0.7092  0.0909
 9375SOL    HW129024   0.261   5.725   0.632  0.2329  1.7751 -1.1724
 9375SOL    HW229025   0.282   5.586   0.550  0.3457  1.2273 -0.2234
 9376SOL     OW29026   6.739   6.054   0.999  0.2218 -0.1048  0.2302
 9376SOL    HW129027   6.836   6.060   0.975 -0.0313 -0.2645 -0.8661
 9376SOL    HW229028   6.707   6.144   1.028  0.1815  0.4664 -1.4874
 9377SOL     OW29029   5.684   5.725   0.923 -0.1146 -0.0575 -0.7164
 9377SOL    HW129030   5.647   5.722   1.016 -3.5635  0.9557 -1.8769
 9377SOL    HW229031   5.752   5.799   0.917  1.0972 -0.9438  1.2149
 9378SOL     OW29032   4.649   2.176   2.056  0.4252  0.0665  0.2397
 9378SOL    HW129033   4.611   2.091   2.092  0.3461 -0.3780 -0.8656
 9378SOL    HW229034   4.595   2.253   2.091 -1.3226 -0.5275 -1.0076
 9379SOL     OW29035   5.510   4.117   2.409  0.3666 -0.3681  0.3158
 9379SOL    HW129036   5.500   4.200   2.464 -3.0427 -0.8332  0.6064
 9379SOL    HW229037   5.462   4.130   2.322  0.8528 -1.6362 -0.1542
 9380SOL     OW29038   5.539   0.294   2.104  0.4082  0.1402  0.2570
 9380SOL    HW129039   5.577   0.231   2.037 -0.2635 -0.9707  0.8745
 9380SOL    HW229040   5.550   0.388   2.073  2.4093 -0.2117 -0.1933
 9381SOL     OW29041   5.301   5.623   3.558  0.0279 -0.2986 -0.4261
 9381SOL    HW129042   5.304   5.572   3.472 -0.3190 -0.9615 -0.0555
 9381SOL    HW229043   5.319   5.720   3.540  0.2446 -0.4756 -1.2025
 9382SOL     OW29044   3.929   0.175   1.977  0.3970 -0.6847 -1.1850
 9382SOL    HW129045   4.024   0.203   1.970  0.5799 -1.2376 -0.9762
 9382SOL    HW229046   3.923   0.090   2.030 -0.2323 -0.5264 -0.9942
 9383SOL     OW29047   4.448   6.433   3.312 -0.0891 -0.3750 -0.7002
 9383SOL    HW129048   4.469   6.339   3.286 -2.8393 -0.6290 -2.3898
 9383SOL    HW229049   4.349   6.444   3.321  0.1710  2.2961 -0.2690
 9384SOL     OW29050   1.190   5.994   3.425  0.3662 -0.1740  0.1750
 9384SOL    HW129051   1.146   5.974   3.338  0.7140  1.5074 -0.4376
 9384SOL    HW229052   1.250   5.919   3.450 -0.8124 -1.3178 -0.3044
 9385SOL     OW29053   0.875   6.594   2.696  0.2721  0.3985  0.5835
 9385SOL    HW129054   0.920   6.643   2.621  2.1066 -0.7841  0.8340
 9385SOL    HW229055   0.797   6.544   2.660 -0.0941  1.4528 -0.1438
 9386SOL     OW29056   1.960   6.741   1.615 -0.2821  0.1829 -0.0568
 9386SOL    HW129057   2.013   6.798   1.553 -2.3197  1.8123 -0.4036
 9386SOL    HW229058   1.863   6.763   1.606 -0.9997 -2.2607  0.9696
 9387SOL     OW29059   6.388   2.221   2.543 -0.2406 -0.1273 -0.5619
 9387SOL    HW129060   6.331   2.302   2.526  1.2144  0.9940 -0.3323
 9387SOL    HW229061   6.398   2.170   2.458 -0.1836  0.6230 -1.0198
 9388SOL     OW29062   5.564   1.309   4.705  0.2297  0.0761  0.1075
 9388SOL    HW129063   5.566   1.232   4.641 -0.3003  0.3188 -0.2055
 9388SOL    HW229064   5.469   1.333   4.726  0.3622  1.2404 -0.5334
 9389SOL     OW29065   0.944   4.660   6.338 -0.5330 -0.5367 -0.3729
 9389SOL    HW129066   0.898   4.583   6.381  2.2452 -1.7989  0.5794
 9389SOL    HW229067   1.031   4.678   6.385  0.1371  1.4833 -2.2098
 9390SOL     OW29068   5.436   0.169   1.018  0.3711  0.1056  0.3487
 9390SOL    HW129069   5.360   0.125   1.066  0.8080  0.3882  1.3353
 9390SOL    HW229070   5.401   0.216   0.937 -0.4920  0.1386  0.7202
 9391SOL     OW29071   0.860   5.976   7.021 -0.3654 -0.2569 -0.1198
 9391SOL    HW129072   0.815   6.063   7.002 -1.9103 -0.7817  0.9450
 9391SOL    HW229073   0.919   5.951   6.944 -0.8895  1.0925 -0.9885
 9392SOL     OW29074   4.710   4.199   4.457 -0.3323 -0.2865 -0.0895
 9392SOL    HW129075   4.758   4.163   4.537 -0.8297 -0.4429  0.1416
 9392SOL    HW229076   4.695   4.126   4.391 -1.2396 -0.4848  0.3295
 9393SOL     OW29077   6.156   4.808   2.045 -0.3244  0.4941 -0.3976
 9393SOL    HW129078   6.169   4.899   2.085 -0.0732  0.8686 -1.3233
 9393SOL    HW229079   6.081   4.762   2.092 -2.2493  2.1966 -1.6529
 9394SOL     OW29080   2.376   1.032   3.828  0.5749 -0.4158  0.1123
 9394SOL    HW129081   2.312   1.029   3.751  0.8572 -1.9903 -0.1036
 9394SOL    HW229082   2.454   0.973   3.808  0.6746 -0.8055  1.5667
 9395SOL     OW29083   6.999   4.414   5.565  0.1855  0.7292  0.7247
 9395SOL    HW129084   6.980   4.487   5.631 -0.4027  1.6535 -0.4123
 9395SOL    HW229085   7.034   4.333   5.612 -2.1138  0.6255  2.4281
 9396SOL     OW29086   0.821   0.964   5.083  0.3092 -0.2312 -0.0139
 9396SOL    HW129087   0.754   1.035   5.063 -0.7508 -0.9970  0.6964
 9396SOL    HW229088   0.785   0.875   5.053  0.2671 -0.8860  1.8094
 9397SOL     OW29089   2.787   1.881   5.734 -0.0715 -0.2954 -0.1227
 9397SOL    HW129090   2.727   1.803   5.750 -0.2997 -0.6318 -2.3495
 9397SOL    HW229091   2.864   1.853   5.677  0.0474  1.0121 -0.6412
 9398SOL     OW29092   5.974   4.129   5.613  1.4783 -0.6627 -0.1287
 9398SOL    HW129093   5.953   4.065   5.687 -0.6282 -0.0303 -0.1058
 9398SOL    HW229094   5.995   4.219   5.651 -0.6941 -0.0464 -0.2532
 9399SOL     OW29095   1.728   1.241   1.053  0.0058 -0.0543  0.7401
 9399SOL    HW129096   1.759   1.277   1.141  0.2373  1.6662  0.0114
 9399SOL    HW229097   1.801   1.187   1.011  1.3337  2.1380  0.0286
 9400SOL     OW29098   3.791   4.648   1.456  0.7608 -0.0090  0.1294
 9400SOL    HW129099   3.812   4.645   1.554 -1.3227 -0.9717  0.6073
 9400SOL    HW229100   3.758   4.558   1.426  0.0999  0.6349 -1.1479
 9401SOL     OW29101   2.953   3.268   0.952 -0.1487  0.2284  0.3751
 9401SOL    HW129102   3.044   3.274   0.912  0.2190 -0.6459  1.0384
 9401SOL    HW229103   2.914   3.360   0.960  1.1427  0.7545  1.1292
 9402SOL     OW29104   0.821   6.973   2.531 -0.1717  0.6149 -0.1974
 9402SOL    HW129105   0.909   6.952   2.574 -0.0558  3.6362  1.3269
 9402SOL    HW229106   0.809   6.916   2.449  0.8915 -3.3870  2.1504
 9403SOL     OW29107   5.147   2.032   5.408 -0.2363  0.0861  0.0632
 9403SOL    HW129108   5.060   1.990   5.383  1.4460 -1.6704 -3.4744
 9403SOL    HW229109   5.137   2.131   5.411 -2.2652 -0.0669 -0.4718
 9404SOL     OW29110   4.972   3.712   1.474 -0.3084 -0.8665  0.2244
 9404SOL    HW129111   4.996   3.785   1.410 -0.5630 -0.1826  0.8872
 9404SOL    HW229112   5.045   3.644   1.476  0.5744  0.0604  0.5863
 9405SOL     OW29113   2.448   4.752   6.504 -0.0217  0.3399 -0.1879
 9405SOL    HW129114   2.488   4.843   6.510  0.3823  0.1529  0.0302
 9405SOL    HW229115   2.361   4.756   6.455 -0.3632  0.9543  0.4512
 9406SOL     OW29116   5.426   6.397   4.204  0.4615 -0.4844  0.4231
 9406SOL    HW129117   5.408   6.367   4.110 -0.5652  1.1557  0.0628
 9406SOL    HW229118   5.472   6.323   4.254  1.2540 -1.2976 -1.4166
 9407SOL     OW29119   3.043   5.574   0.924  0.1749  0.1094 -0.1549
 9407SOL    HW129120   2.965   5.521   0.888  0.2271  0.1320 -0.3047
 9407SOL    HW229121   3.009   5.656   0.970  0.0006 -0.7657  1.3511
 9408SOL     OW29122   6.247   2.619   1.873  0.1716  0.0978  0.2362
 9408SOL    HW129123   6.265   2.709   1.913  0.6027  0.3141 -0.4397
 9408SOL    HW229124   6.187   2.567   1.935  0.9215  0.3756  1.2247
 9409SOL     OW29125   5.855   1.520   6.121  0.0348  0.2492 -0.5349
 9409SOL    HW129126   5.912   1.532   6.202 -0.1422 -0.5725 -0.2752
 9409SOL    HW229127   5.771   1.574   6.130 -0.5832 -0.8131  0.4363
 9410SOL     OW29128   5.707   6.688   6.670 -0.4305 -0.0416 -0.0909
 9410SOL    HW129129   5.756   6.613   6.716 -0.5591 -0.8648 -1.2387
 9410SOL    HW229130   5.669   6.750   6.738 -0.7521 -1.2998  0.9103
 9411SOL     OW29131   6.718   1.200   2.888  0.0393 -0.1549 -0.0326
 9411SOL    HW129132   6.636   1.219   2.834  0.4305  0.7628 -0.3223
 9411SOL    HW229133   6.780   1.279   2.884 -0.5914  0.6551  2.9768
 9412SOL     OW29134   3.086   5.447   5.002 -0.6158 -0.3488 -0.1569
 9412SOL    HW129135   3.084   5.406   4.911  1.2058 -0.7922 -0.0267
 9412SOL    HW229136   3.075   5.546   4.994 -3.5105 -0.6156 -0.5864
 9413SOL     OW29137   6.269   4.261   3.541  0.0313 -0.7553  0.1599
 9413SOL    HW129138   6.283   4.223   3.632  0.5797 -0.6369  0.1322
 9413SOL    HW229139   6.267   4.361   3.546  0.6711 -0.7255 -0.0276
 9414SOL     OW29140   6.002   2.219   5.295  0.1091 -0.0944 -0.3641
 9414SOL    HW129141   6.007   2.126   5.259  2.4638  0.3031 -1.2387
 9414SOL    HW229142   6.070   2.231   5.368  0.7304  1.2758 -1.1289
 9415SOL     OW29143   2.037   4.655   4.401 -0.5272 -0.3533  0.2204
 9415SOL    HW129144   2.090   4.731   4.439  0.0661 -1.1137  0.9234
 9415SOL    HW229145   2.047   4.654   4.302 -2.1503  1.7055 -0.0446
 9416SOL     OW29146   5.400   3.590   4.677 -0.6010 -0.4289  0.6360
 9416SOL    HW129147   5.366   3.676   4.716 -0.2449 -0.5554  1.2289
 9416SOL    HW229148   5.389   3.516   4.743  1.9406 -0.2480  1.3644
 9417SOL     OW29149   6.517   4.971   3.115 -0.3078  0.5068  0.1669
 9417SOL    HW129150   6.523   5.063   3.152  0.9907  0.3532  0.3905
 9417SOL    HW229151   6.499   4.906   3.189  0.5054  0.4013  0.2841
 9418SOL     OW29152   1.693   0.794   5.833  0.2860  0.0181  0.1085
 9418SOL    HW129153   1.770   0.857   5.826 -0.8284  1.3297 -0.7409
 9418SOL    HW229154   1.688   0.758   5.926  0.3042  2.0647  0.9470
 9419SOL     OW29155   2.712   5.029   6.797 -0.1553  0.0827  0.3796
 9419SOL    HW129156   2.690   5.095   6.870  0.5129  0.1971  0.4812
 9419SOL    HW229157   2.692   4.936   6.829  0.2658  0.1219  0.7661
 9420SOL     OW29158   2.194   6.256   3.335  0.2072  0.5139  0.1192
 9420SOL    HW129159   2.247   6.213   3.262  0.0321  1.4816 -0.5857
 9420SOL    HW229160   2.257   6.301   3.399  0.2744  1.1061 -0.3600
 9421SOL     OW29161   2.895   0.094   5.899  0.6104 -0.3049 -0.6897
 9421SOL    HW129162   2.951   0.035   5.957  0.2650 -0.7933 -0.8418
 9421SOL    HW229163   2.925   0.189   5.908 -0.4061 -0.1467  1.4147
 9422SOL     OW29164   0.933   3.937   6.756 -0.1861 -0.2781  0.1447
 9422SOL    HW129165   0.964   4.032   6.762 -0.5532  0.0638 -2.3924
 9422SOL    HW229166   0.986   3.881   6.820  1.8819  1.1778 -0.1893
 9423SOL     OW29167   4.705   1.196   2.504  0.0209 -0.5214 -0.2980
 9423SOL    HW129168   4.678   1.134   2.578 -1.4503 -0.3364 -0.6554
 9423SOL    HW229169   4.696   1.290   2.534  1.3592 -0.4515 -0.0670
 9424SOL     OW29170   2.290   5.696   6.648 -0.8669  0.3355 -0.4318
 9424SOL    HW129171   2.309   5.608   6.604 -0.1416 -0.3923  1.2885
 9424SOL    HW229172   2.353   5.765   6.612  0.4939 -0.5091  0.2717
 9425SOL     OW29173   1.012   1.948   5.886  0.2612 -0.2358 -0.5318
 9425SOL    HW129174   1.077   2.024   5.890 -0.9024  0.7674  0.4519
 9425SOL    HW229175   0.949   1.954   5.964 -0.6740 -1.4757 -1.1489
 9426SOL     OW29176   2.488   2.226   0.387 -0.3621  0.5193 -0.1265
 9426SOL    HW129177   2.574   2.243   0.435  0.3848  0.3377 -1.3496
 9426SOL    HW229178   2.493   2.136   0.342 -0.2745  1.4532 -2.0704
 9427SOL     OW29179   6.216   2.034   4.433  0.3310  0.6545 -0.3392
 9427SOL    HW129180   6.164   1.961   4.476  0.7186  0.3066 -0.4555
 9427SOL    HW229181   6.154   2.091   4.378  0.1515 -0.0753 -0.9145
 9428SOL     OW29182   6.223   1.157   2.989 -0.1277  0.2233 -0.1550
 9428SOL    HW129183   6.149   1.098   2.957 -0.1782 -0.4150  1.1045
 9428SOL    HW229184   6.279   1.108   3.055  1.8059  0.4926 -1.5039
 9429SOL     OW29185   2.754   6.758   6.706 -0.7601 -0.2590 -0.2094
 9429SOL    HW129186   2.681   6.737   6.771 -0.4663  0.8584  0.5245
 9429SOL    HW229187   2.841   6.762   6.755 -0.1264 -1.8823 -1.1210
 9430SOL     OW29188   4.905   6.575   6.913  0.1013  0.1167 -0.1714
 9430SOL    HW129189   4.833   6.643   6.897 -0.8859 -0.8184  0.1510
 9430SOL    HW229190   4.863   6.485   6.924  1.3479 -0.4689 -0.0925
 9431SOL     OW29191   2.158   3.545   6.631 -0.6756 -0.6562  0.2311
 9431SOL    HW129192   2.185   3.638   6.657 -0.0198 -1.1873  1.5443
 9431SOL    HW229193   2.062   3.546   6.604  0.1319  0.9858 -3.0611
 9432SOL     OW29194   1.621   6.569   5.771  0.0972  0.7544  0.3471
 9432SOL    HW129195   1.673   6.617   5.701  0.8447 -0.2042  0.2235
 9432SOL    HW229196   1.683   6.535   5.842 -0.4843  0.5099  0.7532
 9433SOL     OW29197   0.416   6.686   1.541  0.2233 -0.2352  0.3442
 9433SOL    HW129198   0.384   6.594   1.517 -0.4482  0.3583 -1.1170
 9433SOL    HW229199   0.473   6.722   1.467 -0.6199  1.0532  0.2965
 9434SOL     OW29200   1.136   0.167   3.183 -0.1809  0.2268 -0.3482
 9434SOL    HW129201   1.194   0.096   3.143 -1.5851 -1.6261  0.7543
 9434SOL    HW229202   1.173   0.194   3.272 -0.4141 -0.1852 -0.1223
 9435SOL     OW29203   4.671   2.060   3.697 -0.0956 -0.5371 -0.2897
 9435SOL    HW129204   4.605   2.100   3.760 -0.3332 -0.3667 -0.6429
 9435SOL    HW229205   4.712   2.132   3.641 -0.7849 -0.8064 -1.1749
 9436SOL     OW29206   1.514   5.561   4.910 -0.6145 -0.1563  0.0877
 9436SOL    HW129207   1.422   5.586   4.881 -1.5889 -1.9059  1.4238
 9436SOL    HW229208   1.521   5.461   4.917  2.2486 -0.2966 -2.5485
 9437SOL     OW29209   4.591   2.341   0.765 -0.3353  0.3049  0.1536
 9437SOL    HW129210   4.621   2.426   0.807 -0.5868  0.9960 -1.0258
 9437SOL    HW229211   4.588   2.269   0.834  0.5955  1.0667  1.0163
 9438SOL     OW29212   2.158   5.275   1.516  0.0645  0.5483  0.2312
 9438SOL    HW129213   2.238   5.262   1.457  0.4512  0.4281  0.7755
 9438SOL    HW229214   2.163   5.364   1.560  0.8886 -0.2039  1.7365
 9439SOL     OW29215   5.071   1.637   3.571 -0.4083 -0.2370  0.4855
 9439SOL    HW129216   5.075   1.614   3.473 -1.2561 -1.8020  0.7787
 9439SOL    HW229217   5.079   1.736   3.582  1.1960 -0.1444 -1.0537
 9440SOL     OW29218   0.830   1.515   6.839  0.6713  0.2974 -0.0280
 9440SOL    HW129219   0.809   1.588   6.773  2.6020  1.8102  0.9355
 9440SOL    HW229220   0.749   1.498   6.895  0.0602  1.4584 -0.5012
 9441SOL     OW29221   3.566   2.826   0.796  0.3831  0.2253  0.4233
 9441SOL    HW129222   3.611   2.739   0.813 -1.3440 -1.0374 -1.0468
 9441SOL    HW229223   3.618   2.878   0.728  0.0554 -0.9086 -0.7430
 9442SOL     OW29224   3.751   6.099   6.298  0.3779 -0.5796 -0.3410
 9442SOL    HW129225   3.835   6.066   6.341  0.3228 -0.7952 -0.3995
 9442SOL    HW229226   3.675   6.040   6.325  0.2919 -0.5433 -0.5030
 9443SOL     OW29227   1.758   3.384   6.935 -0.0797  0.4103 -0.1392
 9443SOL    HW129228   1.833   3.422   6.988 -0.9834 -0.4225  1.8300
 9443SOL    HW229229   1.696   3.334   6.995 -2.0402  0.7622 -1.7312
 9444SOL     OW29230   4.713   1.678   2.211  0.2029 -0.0699  0.3383
 9444SOL    HW129231   4.766   1.686   2.126 -1.0492  0.6533 -0.4087
 9444SOL    HW229232   4.737   1.593   2.257  1.5485 -0.0565 -0.2900
 9445SOL     OW29233   5.753   1.766   2.414  0.4021 -0.2172  0.1476
 9445SOL    HW129234   5.788   1.790   2.324  1.7868 -1.0990  0.4141
 9445SOL    HW229235   5.654   1.756   2.411  0.3183  0.8466 -1.0115
 9446SOL     OW29236   0.347   2.729   3.752  0.2497 -0.3609  0.0205
 9446SOL    HW129237   0.416   2.733   3.680  0.8280  1.9696  0.6254
 9446SOL    HW229238   0.332   2.634   3.778  0.5280 -1.2298 -2.6493
 9447SOL     OW29239   4.846   5.812   4.313 -0.3816  0.3658 -0.3739
 9447SOL    HW129240   4.833   5.910   4.326 -0.5635  0.4296 -0.9972
 9447SOL    HW229241   4.773   5.762   4.361 -1.2751  0.6080 -1.4390
 9448SOL     OW29242   6.726   6.822   2.549 -0.2923 -0.4499  0.3354
 9448SOL    HW129243   6.749   6.914   2.518 -1.2540  0.9728  3.3993
 9448SOL    HW229244   6.627   6.808   2.541  0.0541 -2.0011 -1.8542
 9449SOL     OW29245   4.725   0.084   3.356  0.0498  0.5423  0.0228
 9449SOL    HW129246   4.701   0.179   3.338 -0.6399  0.0338 -2.0726
 9449SOL    HW229247   4.660   0.024   3.309  1.8081 -0.9397 -0.6433
 9450SOL     OW29248   5.805   5.829   3.927 -0.0965  0.2076 -0.1741
 9450SOL    HW129249   5.817   5.736   3.891 -0.1527 -0.5618  1.6658
 9450SOL    HW229250   5.708   5.853   3.925 -0.0354  0.4122 -1.0489
 9451SOL     OW29251   0.449   7.007   2.379 -0.1730 -0.1543  0.1834
 9451SOL    HW129252   0.376   6.975   2.319 -0.0695  1.4519 -0.8574
 9451SOL    HW229253   0.429   6.980   2.473 -0.9204 -1.7232 -0.3945
 9452SOL     OW29254   5.215   4.143   6.503  0.6603 -0.2520  0.1556
 9452SOL    HW129255   5.220   4.239   6.473 -1.5450  1.1617  3.6145
 9452SOL    HW229256   5.307   4.106   6.511  1.8026  2.4738  1.0449
 9453SOL     OW29257   5.290   2.878   4.243  0.0987  0.1132  0.0259
 9453SOL    HW129258   5.348   2.903   4.321  0.0567  0.4884 -0.0585
 9453SOL    HW229259   5.239   2.959   4.214 -1.5676 -0.5312  1.0109
 9454SOL     OW29260   3.378   3.522   3.513  0.3365  0.1460  0.4417
 9454SOL    HW129261   3.376   3.579   3.431  2.7104  1.1642  1.0072
 9454SOL    HW229262   3.303   3.455   3.509 -0.9792  1.6049 -1.4531
 9455SOL     OW29263   6.127   0.453   5.901  0.0959  0.2076  0.2503
 9455SOL    HW129264   6.053   0.494   5.955  0.6957 -0.2932  1.4776
 9455SOL    HW229265   6.190   0.524   5.872  0.2762  0.3672  1.0208
 9456SOL     OW29266   3.255   6.206   2.943 -0.3833  0.1548  0.0155
 9456SOL    HW129267   3.200   6.179   3.021 -0.3513  1.9912  0.7299
 9456SOL    HW229268   3.246   6.305   2.928  2.3450  0.4694 -0.0964
 9457SOL     OW29269   1.082   4.553   3.441  0.2918  0.2877 -0.3194
 9457SOL    HW129270   0.983   4.568   3.437  0.5247  1.8986 -0.5258
 9457SOL    HW229271   1.119   4.592   3.526  0.9625  1.0965 -0.9675
 9458SOL     OW29272   1.189   6.044   2.937  0.0602 -0.1382 -0.4558
 9458SOL    HW129273   1.163   6.135   2.903 -0.5793 -1.3156 -3.3193
 9458SOL    HW229274   1.117   5.978   2.914  0.7414 -1.5074  1.1433
 9459SOL     OW29275   2.753   4.043   1.104 -0.4258 -0.0167 -0.0137
 9459SOL    HW129276   2.762   4.132   1.059  0.0316  0.4512  0.9628
 9459SOL    HW229277   2.800   4.046   1.193  0.5559 -1.5793 -0.4455
 9460SOL     OW29278   4.181   5.439   6.014 -0.3162 -0.3477 -0.6632
 9460SOL    HW129279   4.087   5.472   6.010  0.0116  0.4885 -2.0955
 9460SOL    HW229280   4.208   5.426   6.109 -2.0004 -1.0092 -0.2343
 9461SOL     OW29281   3.863   6.320   6.637  0.0955  0.1302 -0.2383
 9461SOL    HW129282   3.790   6.325   6.569 -0.7647 -0.0469  0.6564
 9461SOL    HW229283   3.831   6.357   6.724  1.4027  1.0000 -0.0959
 9462SOL     OW29284   4.801   3.055   4.726 -0.2579  0.3294  0.2362
 9462SOL    HW129285   4.852   2.994   4.666  1.3666 -0.2704  2.1050
 9462SOL    HW229286   4.724   3.095   4.676  1.9816  1.2711 -2.7500
 9463SOL     OW29287   1.483   5.627   6.994  0.1935  1.1842  0.0774
 9463SOL    HW129288   1.548   5.580   7.054  1.3583  2.9930  0.3082
 9463SOL    HW229289   1.430   5.693   7.047 -1.7337 -0.0803 -0.1598
 9464SOL     OW29290   3.814   1.821   4.431  0.3826 -0.1026 -0.0444
 9464SOL    HW129291   3.890   1.755   4.439  0.9848 -0.0034 -3.5689
 9464SOL    HW229292   3.733   1.783   4.475  1.1931 -2.4221 -0.4005
 9465SOL     OW29293   1.034   1.353   6.969 -0.1227  0.0626 -0.1929
 9465SOL    HW129294   1.102   1.388   7.034 -0.8892 -0.2462  0.8151
 9465SOL    HW229295   0.978   1.429   6.936  0.4644  0.2663 -0.7541
 9466SOL     OW29296   3.305   6.490   2.609 -0.3193  0.7232 -0.1530
 9466SOL    HW129297   3.342   6.401   2.636  1.3016  1.8037  1.3946
 9466SOL    HW229298   3.329   6.559   2.678 -1.2027  2.4576 -1.4939
 9467SOL     OW29299   4.039   3.215   4.552  0.1443  0.3773 -0.5212
 9467SOL    HW129300   3.998   3.125   4.533  2.2859 -0.9653  0.7030
 9467SOL    HW229301   4.073   3.216   4.646  3.6014  0.9547 -1.6189
 9468SOL     OW29302   3.323   2.893   4.746 -0.0769  0.2970  0.4626
 9468SOL    HW129303   3.256   2.953   4.701 -0.5840 -1.5342 -1.3764
 9468SOL    HW229304   3.276   2.811   4.779  0.9706 -0.1214  0.9348
 9469SOL     OW29305   1.771   6.937   5.769 -0.1150  0.1801  0.2330
 9469SOL    HW129306   1.776   6.843   5.734  1.4532  0.8492 -1.5166
 9469SOL    HW229307   1.765   7.000   5.691  3.3196  1.7642  1.0908
 9470SOL     OW29308   5.725   1.300   6.359  0.1409 -0.2723  0.1626
 9470SOL    HW129309   5.802   1.311   6.295  0.4951 -0.3376  0.5678
 9470SOL    HW229310   5.651   1.362   6.333  0.0337 -0.7439 -0.6708
 9471SOL     OW29311   6.017   2.008   5.678  0.3061  0.1182 -0.1690
 9471SOL    HW129312   6.031   1.951   5.760 -0.0333  2.3111  1.5207
 9471SOL    HW229313   6.107   2.035   5.642  0.4841 -1.9141 -1.3723
 9472SOL     OW29314   6.938   1.312   0.833 -0.1373 -0.2304  1.0018
 9472SOL    HW129315   7.009   1.380   0.852 -0.0764 -0.5573  1.9906
 9472SOL    HW229316   6.961   1.263   0.748 -1.7367  2.9995 -1.5030
 9473SOL     OW29317   0.140   2.785   1.745  0.4335  0.2651 -0.2426
 9473SOL    HW129318   0.176   2.861   1.799  0.0954  0.6147 -0.5084
 9473SOL    HW229319   0.208   2.757   1.677  0.5393  0.3591 -0.1762
 9474SOL     OW29320   5.995   5.124   0.492 -0.2269 -0.5032  0.1966
 9474SOL    HW129321   5.938   5.106   0.411 -0.2757  0.9799 -0.1156
 9474SOL    HW229322   6.068   5.056   0.496 -0.5185 -0.9003 -0.8201
 9475SOL     OW29323   3.775   2.104   6.371 -0.2395  0.3047  0.0150
 9475SOL    HW129324   3.740   2.114   6.278 -1.4896  1.8415  0.6110
 9475SOL    HW229325   3.752   2.185   6.424 -2.7570 -1.9527  2.6907
 9476SOL     OW29326   4.550   6.717   1.369 -0.6608  0.2753 -0.1227
 9476SOL    HW129327   4.477   6.783   1.387 -0.2209  0.9581 -0.8188
 9476SOL    HW229328   4.636   6.751   1.407 -0.5675 -0.2224  0.1173
 9477SOL     OW29329   2.896   4.260   0.710 -0.8744  0.1783 -0.0051
 9477SOL    HW129330   2.992   4.235   0.719 -0.6716 -0.2399 -2.6841
 9477SOL    HW229331   2.851   4.252   0.800  1.3097 -0.6900  1.0750
 9478SOL     OW29332   5.250   4.857   1.809 -0.1572  0.4603 -0.7712
 9478SOL    HW129333   5.297   4.860   1.721 -0.3765  0.5050 -0.8869
 9478SOL    HW229334   5.168   4.914   1.806  0.3696  1.2734 -0.2188
 9479SOL     OW29335   3.211   6.380   0.531 -0.3492  0.8244 -0.0410
 9479SOL    HW129336   3.259   6.431   0.602  0.7959  0.6275 -0.6436
 9479SOL    HW229337   3.278   6.338   0.469 -1.2993  0.0864 -0.5996
 9480SOL     OW29338   5.199   6.597   2.350 -0.3449 -0.4100  0.1979
 9480SOL    HW129339   5.189   6.645   2.263 -1.4317 -0.5089  0.2523
 9480SOL    HW229340   5.109   6.569   2.383  0.0878 -0.6842  1.1845
 9481SOL     OW29341   4.689   2.217   2.570 -0.3033 -0.1598 -0.1986
 9481SOL    HW129342   4.636   2.274   2.633 -2.0597  0.2244 -1.9267
 9481SOL    HW229343   4.787   2.232   2.586 -0.6726  3.0582 -0.2814
 9482SOL     OW29344   0.718   5.347   1.558 -0.3083 -0.1080  0.1040
 9482SOL    HW129345   0.738   5.260   1.513  1.4819  0.7847 -0.9548
 9482SOL    HW229346   0.745   5.343   1.654  0.8616 -0.3768 -0.2249
 9483SOL     OW29347   0.798   5.277   0.949 -0.3241 -0.1056  0.5944
 9483SOL    HW129348   0.868   5.215   0.914  0.5171  1.7837 -1.2528
 9483SOL    HW229349   0.711   5.256   0.904 -0.0734 -0.0234  0.0656
 9484SOL     OW29350   1.349   0.734   2.134  0.2919 -0.0957 -0.4022
 9484SOL    HW129351   1.404   0.728   2.217  1.1583  1.0842 -0.8647
 9484SOL    HW229352   1.369   0.655   2.074  1.2240  0.1413 -0.4105
 9485SOL     OW29353   3.651   1.530   2.192  0.1865 -0.2179  0.8714
 9485SOL    HW129354   3.625   1.625   2.208 -0.6652 -0.3657  0.3805
 9485SOL    HW229355   3.748   1.527   2.167  0.6238  0.3583  2.4108
 9486SOL     OW29356   2.098   2.064   6.533 -0.2655  0.9403 -0.1083
 9486SOL    HW129357   2.092   1.986   6.471 -0.5963  1.3430 -0.6028
 9486SOL    HW229358   2.177   2.120   6.509 -0.0579  0.7823  0.2116
 9487SOL     OW29359   6.364   6.365   3.446 -1.0493  0.3335 -0.1776
 9487SOL    HW129360   6.368   6.460   3.415  0.7036  0.3171 -0.1057
 9487SOL    HW229361   6.414   6.307   3.382 -0.9870 -0.3302  0.4583
 9488SOL     OW29362   1.762   2.100   6.660  0.2247  0.5210  0.2218
 9488SOL    HW129363   1.797   2.011   6.689 -0.5095  0.5620  1.3322
 9488SOL    HW229364   1.735   2.096   6.564  1.1741 -0.1358 -0.0325
 9489SOL     OW29365   0.661   6.844   1.011  0.3583 -0.7549 -1.2121
 9489SOL    HW129366   0.706   6.755   1.009  1.2381 -0.4689  1.3354
 9489SOL    HW229367   0.730   6.916   1.004 -0.1062 -0.2856 -1.0140
 9490SOL     OW29368   1.023   3.204   0.400 -0.4376  0.1018 -1.2597
 9490SOL    HW129369   0.963   3.259   0.342  0.7337  2.5231 -0.3407
 9490SOL    HW229370   1.033   3.249   0.489 -0.2676 -2.2398 -0.0327
 9491SOL     OW29371   3.061   6.578   0.404 -0.2289 -0.4450  0.1535
 9491SOL    HW129372   2.997   6.543   0.335 -1.3763  0.6252  0.6246
 9491SOL    HW229373   3.084   6.505   0.468  0.3479 -1.2868 -0.9768
 9492SOL     OW29374   3.505   3.076   4.939  0.3853  0.5326  0.3260
 9492SOL    HW129375   3.568   3.024   4.997  0.9008 -0.3242 -0.9579
 9492SOL    HW229376   3.478   3.021   4.861 -1.5781  1.0749  0.5569
 9493SOL     OW29377   6.392   6.488   6.501 -0.3068  0.1713 -0.0816
 9493SOL    HW129378   6.452   6.548   6.447  0.8263 -0.8342  0.0245
 9493SOL    HW229379   6.405   6.507   6.598 -1.3152  0.9988 -0.0799
 9494SOL     OW29380   1.306   3.682   6.859 -0.1233  0.1720 -0.0803
 9494SOL    HW129381   1.363   3.646   6.933 -0.0120 -0.4752 -0.4668
 9494SOL    HW229382   1.360   3.747   6.804 -0.1298  0.4622  0.2541
 9495SOL     OW29383   0.047   0.929   3.488  0.4418 -0.0709  0.2975
 9495SOL    HW129384   0.054   0.932   3.588 -2.8025  1.6439  0.6141
 9495SOL    HW229385   0.063   1.020   3.451  0.6608 -0.4939 -0.6816
 9496SOL     OW29386   2.578   6.717   0.984  0.2110  0.4340 -0.2973
 9496SOL    HW129387   2.551   6.713   0.888 -0.0194 -0.3904 -0.2050
 9496SOL    HW229388   2.521   6.785   1.032 -1.6699 -1.1694 -0.1357
 9497SOL     OW29389   6.977   3.605   4.496 -0.4409 -0.3589 -0.8826
 9497SOL    HW129390   7.074   3.602   4.472 -0.2059 -0.2807  0.0033
 9497SOL    HW229391   6.922   3.575   4.419  0.2649  0.0391 -1.5486
 9498SOL     OW29392   0.817   4.315   4.255  0.3568  0.3597  0.4517
 9498SOL    HW129393   0.777   4.266   4.178  0.6187 -0.2012  0.6635
 9498SOL    HW229394   0.793   4.412   4.250 -1.3677 -0.0110  0.7922
 9499SOL     OW29395   3.905   4.176   6.472  0.1268 -0.3612 -0.0219
 9499SOL    HW129396   3.942   4.145   6.385 -0.1589  0.1095 -0.3152
 9499SOL    HW229397   3.829   4.239   6.456 -0.7207 -1.2080  0.5703
 9500SOL     OW29398   3.418   0.661   3.856  0.4005  0.1112 -0.1881
 9500SOL    HW129399   3.504   0.666   3.805  0.1076  0.9161 -0.6150
 9500SOL    HW229400   3.345   0.632   3.794 -0.0772  1.6839 -0.3879
 9501SOL     OW29401   2.977   5.034   0.402  0.0569  0.1852  0.8818
 9501SOL    HW129402   3.053   4.971   0.418  0.8726  0.8045 -0.3909
 9501SOL    HW229403   2.982   5.068   0.308 -0.2421  2.2827  1.5805
 9502SOL     OW29404   2.061   6.604   0.689 -0.3698  0.1131  0.1962
 9502SOL    HW129405   2.038   6.589   0.593  0.4619 -1.7398  0.2330
 9502SOL    HW229406   1.978   6.624   0.740 -0.7318  1.9517 -0.9998
 9503SOL     OW29407   4.672   5.587   5.715 -0.3306  0.3884  0.0114
 9503SOL    HW129408   4.592   5.545   5.759  1.2366 -1.3791  1.3794
 9503SOL    HW229409   4.726   5.516   5.670  0.7049  1.4786 -0.5149
 9504SOL     OW29410   1.059   3.315   2.617  0.5308  0.5502 -0.3151
 9504SOL    HW129411   0.969   3.291   2.581 -0.8464  1.3129  2.3969
 9504SOL    HW229412   1.102   3.233   2.654 -0.5548  0.7157  1.4066
 9505SOL     OW29413   1.522   0.008   7.020  0.6216  0.0022 -0.2434
 9505SOL    HW129414   1.622   0.018   7.014  0.5085  4.1300  1.4312
 9505SOL    HW229415   1.479   0.075   6.959 -1.0339  0.3363  1.2252
 9506SOL     OW29416   1.001   5.982   4.613 -0.2018  0.7212  0.0258
 9506SOL    HW129417   0.975   6.037   4.693  0.1981  0.2471  0.4870
 9506SOL    HW229418   0.954   6.017   4.532  0.6716  2.2814  0.1449
 9507SOL     OW29419   5.931   3.733   0.092  0.3726 -0.3409 -0.4541
 9507SOL    HW129420   5.930   3.827   0.127 -3.3927  0.2754 -1.6898
 9507SOL    HW229421   5.891   3.672   0.160  1.2572 -0.7719 -0.3084
 9508SOL     OW29422   3.600   0.379   1.355  0.2852  0.7893 -0.2231
 9508SOL    HW129423   3.676   0.327   1.394 -1.5217 -0.9610  1.1753
 9508SOL    HW229424   3.602   0.473   1.390  1.6793  0.7290 -0.0900
 9509SOL     OW29425   1.846   2.985   2.999 -0.4717 -0.3116 -0.3936
 9509SOL    HW129426   1.800   3.071   2.978 -1.8004  0.1921  3.6721
 9509SOL    HW229427   1.784   2.908   2.981 -0.6084 -0.1328 -0.6885
 9510SOL     OW29428   4.324   0.718   6.711 -0.1890  0.0162  0.0066
 9510SOL    HW129429   4.341   0.642   6.647 -0.1921  0.1770 -0.1855
 9510SOL    HW229430   4.398   0.721   6.778 -1.3395 -1.6032  1.4407
 9511SOL     OW29431   6.162   2.121   4.871  0.3370 -0.7322  0.5326
 9511SOL    HW129432   6.244   2.065   4.880  0.6271 -1.0585 -2.8190
 9511SOL    HW229433   6.082   2.062   4.859  0.1643 -0.4242  0.1475
 9512SOL     OW29434   2.228   5.501   0.628 -0.0238  0.1094  0.4633
 9512SOL    HW129435   2.209   5.541   0.538 -0.2910 -0.4537  0.2671
 9512SOL    HW229436   2.212   5.403   0.625 -0.4311  0.1466  1.2473
 9513SOL     OW29437   3.943   6.045   6.550 -0.0417 -0.4847 -0.7133
 9513SOL    HW129438   3.904   6.134   6.573 -1.1191 -0.7336 -1.5127
 9513SOL    HW229439   4.039   6.043   6.579 -0.4960  0.2666  0.9405
 9514SOL     OW29440   4.945   3.962   0.279  0.1385  0.1189  0.2473
 9514SOL    HW129441   4.915   3.869   0.303  0.2671 -0.0120 -0.0900
 9514SOL    HW229442   5.024   3.956   0.218  0.8516  0.4642  1.1217
 9515SOL     OW29443   7.021   1.875   1.377 -0.1334  0.2520 -0.0978
 9515SOL    HW129444   7.080   1.801   1.409 -0.1801  0.7950  1.3265
 9515SOL    HW229445   7.071   1.962   1.381 -0.5450  0.5069 -0.3416
 9516SOL     OW29446   4.727   6.516   5.835  0.7754 -0.2394 -0.9593
 9516SOL    HW129447   4.736   6.487   5.930 -0.5616  1.4696 -0.2696
 9516SOL    HW229448   4.651   6.468   5.792  1.1840 -0.7790 -1.0994
 9517SOL     OW29449   3.634   0.326   3.487 -0.0062  0.4896  0.2071
 9517SOL    HW129450   3.586   0.414   3.495  0.5767  1.0442 -1.7071
 9517SOL    HW229451   3.649   0.287   3.578 -0.9548  1.9882  1.0495
 9518SOL     OW29452   6.960   1.555   5.992 -0.4956 -0.1865 -0.1606
 9518SOL    HW129453   6.886   1.611   6.028 -1.9110 -2.4396  0.6407
 9518SOL    HW229454   7.012   1.515   6.067  1.1789  0.8268 -0.7154
 9519SOL     OW29455   2.280   2.885   0.943  0.4918 -0.5687  0.8202
 9519SOL    HW129456   2.263   2.794   0.980  0.7944 -0.5313  1.0544
 9519SOL    HW229457   2.320   2.876   0.852 -0.3207 -0.6588  0.4633
 9520SOL     OW29458   5.181   2.094   6.252 -0.7085 -0.1626 -0.3723
 9520SOL    HW129459   5.179   2.194   6.244 -0.2406 -0.1642 -0.5525
 9520SOL    HW229460   5.182   2.054   6.160 -0.8982 -0.3345 -0.2997
 9521SOL     OW29461   6.162   3.876   3.985  0.2534  0.0585  0.0692
 9521SOL    HW129462   6.251   3.849   3.949  1.1065 -0.0230  2.1006
 9521SOL    HW229463   6.167   3.882   4.085 -1.5682  1.7084  0.1287
 9522SOL     OW29464   2.143   1.564   2.515  0.9540  0.2941  0.4432
 9522SOL    HW129465   2.176   1.537   2.424  2.1001 -0.6026  1.1018
 9522SOL    HW229466   2.138   1.484   2.574 -2.4254  0.3540  0.4457
 9523SOL     OW29467   1.581   0.956   4.638 -0.3054  0.3538 -0.3935
 9523SOL    HW129468   1.520   0.989   4.710  1.1237  2.3991 -0.0470
 9523SOL    HW229469   1.541   0.976   4.548 -1.6002 -1.2588 -0.2237
 9524SOL     OW29470   6.919   3.131   4.628 -0.0049 -0.0894 -0.1004
 9524SOL    HW129471   6.860   3.212   4.632 -0.4120 -0.2497 -2.0219
 9524SOL    HW229472   6.997   3.144   4.689 -0.9812  0.9786  0.9747
 9525SOL     OW29473   2.214   0.441   0.429  0.3880 -0.3467 -0.4071
 9525SOL    HW129474   2.169   0.521   0.390  0.0156 -0.6667 -0.6431
 9525SOL    HW229475   2.272   0.398   0.359  1.2336  0.1803 -0.0473
 9526SOL     OW29476   5.611   3.396   5.409 -0.0121 -0.0441 -0.1204
 9526SOL    HW129477   5.701   3.405   5.365 -0.8560  1.0894 -1.7144
 9526SOL    HW229478   5.579   3.487   5.435 -0.4280 -0.5110  1.0377
 9527SOL     OW29479   0.358   3.289   2.488 -0.1582 -0.3591 -0.0608
 9527SOL    HW129480   0.364   3.389   2.487  0.3243 -0.3803  0.3445
 9527SOL    HW229481   0.366   3.254   2.395 -0.7455 -0.0022 -0.2555
 9528SOL     OW29482   5.786   6.045   5.694 -0.5204  0.1477  0.1688
 9528SOL    HW129483   5.838   6.035   5.778  1.1258  2.2474 -0.5340
 9528SOL    HW229484   5.848   6.058   5.617 -2.0084  2.6558 -0.7252
 9529SOL     OW29485   5.834   1.315   1.693  0.3757 -0.4620 -0.1031
 9529SOL    HW129486   5.926   1.278   1.678 -0.1844 -1.4885 -1.1830
 9529SOL    HW229487   5.819   1.329   1.791  0.9594 -2.2616  0.2804
 9530SOL     OW29488   4.852   5.774   1.106  0.9566  0.7180  0.0057
 9530SOL    HW129489   4.873   5.830   1.185  0.8329  0.6805  0.0659
 9530SOL    HW229490   4.916   5.794   1.032  1.3713  0.4066  0.2792
 9531SOL     OW29491   6.456   6.109   6.142 -0.0106 -0.1568 -0.1512
 9531SOL    HW129492   6.413   6.068   6.222  0.9427 -1.2050 -0.1496
 9531SOL    HW229493   6.541   6.155   6.169  0.0846 -0.1282 -0.4931
 9532SOL     OW29494   0.721   3.759   5.664 -0.3059 -0.3973 -0.0216
 9532SOL    HW129495   0.776   3.739   5.582 -0.0075  2.4520 -0.6001
 9532SOL    HW229496   0.779   3.802   5.733 -1.3408  0.6467  0.2130
 9533SOL     OW29497   4.899   3.381   3.314 -0.1281  0.5400 -0.2005
 9533SOL    HW129498   4.888   3.297   3.261 -2.0403  1.0860 -0.7411
 9533SOL    HW229499   4.887   3.361   3.411  3.1262 -0.4164  0.1222
 9534SOL     OW29500   5.303   0.362   0.377  0.5444 -0.3050 -0.0133
 9534SOL    HW129501   5.263   0.316   0.456  0.4807  1.0232  0.7558
 9534SOL    HW229502   5.400   0.339   0.370  0.9473  0.8001  1.4319
 9535SOL     OW29503   4.843   4.445   2.138 -0.3806  0.0527  0.1813
 9535SOL    HW129504   4.805   4.473   2.050  0.8684 -0.9548 -0.7393
 9535SOL    HW229505   4.777   4.386   2.185 -1.6165  1.7001  0.5812
 9536SOL     OW29506   0.341   5.032   5.087  1.0139  0.5632  0.8947
 9536SOL    HW129507   0.336   4.934   5.068 -0.1248  0.8250 -0.3231
 9536SOL    HW229508   0.362   5.047   5.183 -0.1383 -0.8638  1.3905
 9537SOL     OW29509   6.597   5.432   4.945 -1.1326  0.7560 -0.2055
 9537SOL    HW129510   6.515   5.420   5.001 -1.9196 -0.8958 -1.6237
 9537SOL    HW229511   6.580   5.398   4.853  1.7332 -1.5895 -0.0236
 9538SOL     OW29512   1.980   1.749   5.184 -0.6006 -0.1986 -0.5361
 9538SOL    HW129513   1.997   1.704   5.271 -0.4058  1.4621  0.3370
 9538SOL    HW229514   2.006   1.689   5.109  2.3345 -0.4993  0.6104
 9539SOL     OW29515   3.644   6.192   3.383  0.0494 -0.2507  0.1319
 9539SOL    HW129516   3.662   6.234   3.471  0.4654  1.0832 -0.5588
 9539SOL    HW229517   3.560   6.229   3.344  0.8810  0.6557 -0.8768
 9540SOL     OW29518   2.151   2.686   6.406  0.2329 -0.1143 -0.1536
 9540SOL    HW129519   2.163   2.596   6.363  2.2432 -0.5848  1.2567
 9540SOL    HW229520   2.225   2.746   6.378 -0.5088  0.7838 -0.2339
 9541SOL     OW29521   3.346   2.187   6.852 -0.6827  0.3570 -0.0110
 9541SOL    HW129522   3.381   2.133   6.776  0.5714  2.3525 -0.9072
 9541SOL    HW229523   3.384   2.152   6.938 -1.3256 -1.2730 -0.3443
 9542SOL     OW29524   3.124   6.873   4.068  0.2358  0.2157 -0.4489
 9542SOL    HW129525   3.107   6.969   4.048  1.0277  0.6761  0.9107
 9542SOL    HW229526   3.180   6.834   3.995 -2.3465 -0.0185 -2.4349
 9543SOL     OW29527   0.157   6.135   3.849 -0.0155  0.5433  0.6397
 9543SOL    HW129528   0.123   6.176   3.934 -0.4992  0.6879  0.3825
 9543SOL    HW229529   0.177   6.207   3.783  0.8729  0.4632  0.8089
 9544SOL     OW29530   1.865   5.271   2.101 -0.1058  0.6249 -0.1660
 9544SOL    HW129531   1.789   5.210   2.122  1.4476 -1.3876 -0.1087
 9544SOL    HW229532   1.941   5.254   2.163  1.0625  1.3241 -1.3416
 9545SOL     OW29533   2.591   5.459   5.906  0.3917 -0.0496  0.2191
 9545SOL    HW129534   2.591   5.530   5.976  1.0877  0.4487 -0.2767
 9545SOL    HW229535   2.507   5.406   5.913 -0.5079  1.3210  0.0967
 9546SOL     OW29536   5.607   6.244   5.510 -0.1369  0.1271 -0.0370
 9546SOL    HW129537   5.653   6.213   5.594  0.8719 -1.6532 -1.1679
 9546SOL    HW229538   5.637   6.187   5.434 -0.1348  2.4366 -1.8630
 9547SOL     OW29539   0.333   2.023   5.157  0.9917  0.1637 -0.2016
 9547SOL    HW129540   0.252   1.990   5.108  1.2155  0.7657 -0.9974
 9547SOL    HW229541   0.335   1.982   5.249 -0.8895  1.1204  0.3166
 9548SOL     OW29542   2.964   1.336   0.650  0.2608  0.0410 -0.1691
 9548SOL    HW129543   3.050   1.373   0.615  0.3553  1.6043  1.5657
 9548SOL    HW229544   2.888   1.392   0.618  0.2364  0.7157  0.9950
 9549SOL     OW29545   2.031   1.042   5.090  0.0027  0.4456 -0.3284
 9549SOL    HW129546   1.943   0.997   5.078 -0.2430  0.4063  1.3868
 9549SOL    HW229547   2.097   0.978   5.129  0.2845  0.9564  0.0464
 9550SOL     OW29548   3.986   3.308   3.389 -0.2311  0.2066  0.3618
 9550SOL    HW129549   4.038   3.382   3.347 -0.8284  0.9636  0.9184
 9550SOL    HW229550   4.001   3.223   3.338  0.7689  0.6183 -0.0518
 9551SOL     OW29551   4.457   1.951   5.424 -0.6045  0.1242  0.1192
 9551SOL    HW129552   4.516   1.885   5.469  0.9688  0.0357 -1.9329
 9551SOL    HW229553   4.483   2.044   5.451  1.3175  0.1472 -1.5837
 9552SOL     OW29554   0.471   3.960   0.801 -0.0078 -0.6288 -0.2720
 9552SOL    HW129555   0.497   3.883   0.743 -0.4908 -0.3761 -0.8272
 9552SOL    HW229556   0.397   4.011   0.758 -1.5798 -1.4248  1.3550
 9553SOL     OW29557   3.523   6.037   2.484 -0.0731 -0.5200 -0.1099
 9553SOL    HW129558   3.612   6.079   2.463 -0.1739  0.2839  0.9621
 9553SOL    HW229559   3.511   6.033   2.583 -1.2872 -0.5117 -0.2448
 9554SOL     OW29560   4.505   0.918   3.737 -0.2763  0.1904 -0.1039
 9554SOL    HW129561   4.541   0.844   3.681 -0.0333  0.0147  0.2843
 9554SOL    HW229562   4.423   0.955   3.693  0.4794  0.7375 -1.0990
 9555SOL     OW29563   3.915   0.585   1.008 -0.1922 -0.4933  0.1957
 9555SOL    HW129564   3.862   0.606   0.926 -1.1782  0.3147  1.0183
 9555SOL    HW229565   3.959   0.668   1.041 -0.3419 -0.6756  0.8634
 9556SOL     OW29566   1.500   1.822   6.369  0.0161  0.1651  0.5939
 9556SOL    HW129567   1.434   1.832   6.295  1.7926  0.4919 -1.0410
 9556SOL    HW229568   1.567   1.752   6.345  0.7650  0.4157  1.8094
 9557SOL     OW29569   1.474   4.503   2.579  0.3095  0.1397  0.8816
 9557SOL    HW129570   1.396   4.445   2.599  0.9126 -0.7432  0.7050
 9557SOL    HW229571   1.447   4.599   2.589 -1.2204 -0.0861 -0.6120
 9558SOL     OW29572   4.122   6.519   2.779  0.0950  0.3764 -0.2376
 9558SOL    HW129573   4.051   6.576   2.736  1.0542 -0.4061 -3.1111
 9558SOL    HW229574   4.210   6.566   2.773  0.1133  0.7138  1.9914
 9559SOL     OW29575   2.882   1.529   6.645  0.8568 -1.4016 -0.2044
 9559SOL    HW129576   2.871   1.434   6.675 -0.3482 -1.2443 -0.1003
 9559SOL    HW229577   2.892   1.532   6.546 -1.6683 -1.5054 -0.5288
 9560SOL     OW29578   6.051   2.566   2.120 -0.2394  0.0077 -0.2895
 9560SOL    HW129579   6.030   2.470   2.138 -0.3445  0.4678  2.7252
 9560SOL    HW229580   5.977   2.623   2.157  0.2383  1.2895 -1.2253
 9561SOL     OW29581   5.546   0.409   6.858 -0.2079  0.3208  0.4465
 9561SOL    HW129582   5.623   0.393   6.796  1.2529  0.9268  2.0039
 9561SOL    HW229583   5.462   0.376   6.816  1.2130 -2.6172 -0.3599
 9562SOL     OW29584   2.280   2.845   0.379  0.2085 -0.4578 -0.2054
 9562SOL    HW129585   2.301   2.801   0.466  1.7548 -1.7858 -1.2096
 9562SOL    HW229586   2.357   2.902   0.350 -0.2079 -0.1867 -0.8226
 9563SOL     OW29587   0.507   1.634   5.580 -0.4595 -0.4161 -0.1812
 9563SOL    HW129588   0.536   1.728   5.596 -1.6853 -0.1921  0.9306
 9563SOL    HW229589   0.519   1.611   5.483  1.2106  0.3807 -0.1875
 9564SOL     OW29590   1.362   5.376   0.117 -0.2484 -0.2921  0.5680
 9564SOL    HW129591   1.443   5.362   0.060 -0.7983 -1.0606 -0.0581
 9564SOL    HW229592   1.370   5.324   0.201  0.8441  1.3305  1.5201
 9565SOL     OW29593   5.812   1.337   1.972  0.1049 -0.4217  0.1431
 9565SOL    HW129594   5.805   1.430   2.007  0.2159  0.0386 -1.0034
 9565SOL    HW229595   5.900   1.298   2.000  0.6597  0.3263 -0.5110
 9566SOL     OW29596   6.048   0.112   2.474 -0.2029 -0.0385 -0.2102
 9566SOL    HW129597   5.982   0.060   2.419  1.2950 -1.1254 -1.0550
 9566SOL    HW229598   6.048   0.077   2.567  0.8164 -1.6473 -0.7766
 9567SOL     OW29599   1.829   6.386   5.476 -0.0750  0.3109 -0.4676
 9567SOL    HW129600   1.850   6.355   5.383  0.4593 -0.2388 -0.1704
 9567SOL    HW229601   1.734   6.364   5.497  0.3651 -1.4394 -0.1594
 9568SOL     OW29602   1.998   4.483   4.761  0.3560  0.1981  0.0008
 9568SOL    HW129603   2.005   4.433   4.675 -0.4125  0.8811 -0.4656
 9568SOL    HW229604   1.919   4.544   4.759  1.7737  2.1596  0.1605
 9569SOL     OW29605   3.769   6.692   3.799  0.2859 -0.0593  0.5035
 9569SOL    HW129606   3.728   6.676   3.710  1.5602  0.0294 -0.1271
 9569SOL    HW229607   3.715   6.759   3.850  0.6727  1.4787 -1.0344
 9570SOL     OW29608   1.356   1.680   4.867 -0.1546 -0.1211  0.0609
 9570SOL    HW129609   1.291   1.638   4.930  0.8977 -0.7156  0.7916
 9570SOL    HW229610   1.316   1.686   4.776 -1.0878 -0.8163  0.4168
 9571SOL     OW29611   0.556   0.159   6.825  0.2615  0.3752  0.1501
 9571SOL    HW129612   0.594   0.087   6.769 -0.8424  0.1730 -0.3626
 9571SOL    HW229613   0.458   0.168   6.807 -0.4435 -0.5845  2.9649
 9572SOL     OW29614   1.178   2.781   1.388 -0.5200 -0.0099 -0.1704
 9572SOL    HW129615   1.230   2.863   1.366 -1.0393  0.1788 -0.7461
 9572SOL    HW229616   1.188   2.714   1.314  0.0828 -0.5565  0.4025
 9573SOL     OW29617   1.253   5.837   3.833  0.1041 -0.1726  0.3966
 9573SOL    HW129618   1.201   5.896   3.771  0.3031  0.1667  0.5506
 9573SOL    HW229619   1.297   5.892   3.903  2.7658 -0.1128 -1.1691
 9574SOL     OW29620   3.843   0.687   5.118  0.4178 -0.3042  0.2733
 9574SOL    HW129621   3.810   0.780   5.131 -0.5257 -0.7422  1.1624
 9574SOL    HW229622   3.828   0.659   5.023 -0.7545 -0.0869  0.3817
 9575SOL     OW29623   1.439   4.361   1.742 -0.5024  0.1881  0.2749
 9575SOL    HW129624   1.340   4.354   1.727 -0.6269 -0.8048  1.4120
 9575SOL    HW229625   1.457   4.405   1.830  0.0301 -0.7451  0.6449
 9576SOL     OW29626   4.913   5.951   1.636 -0.0679 -0.0008 -0.3872
 9576SOL    HW129627   4.870   6.042   1.636 -1.1986 -0.5195 -1.0230
 9576SOL    HW229628   4.849   5.885   1.676  0.6773 -0.5603 -0.1081
 9577SOL     OW29629   3.021   2.242   6.470 -0.3542  0.0519  0.2748
 9577SOL    HW129630   3.043   2.159   6.421  1.3755  0.4788  0.2671
 9577SOL    HW229631   3.062   2.239   6.561  1.3119  1.6217 -0.3665
 9578SOL     OW29632   3.615   6.440   4.361  0.4184  0.1712  0.1739
 9578SOL    HW129633   3.707   6.431   4.324  0.8186  1.5167  0.7771
 9578SOL    HW229634   3.619   6.462   4.458 -0.5606 -0.4296  0.3702
 9579SOL     OW29635   5.920   5.442   5.806 -0.5443  0.1444 -0.2436
 9579SOL    HW129636   5.820   5.437   5.810 -0.4484 -1.3496  1.1225
 9579SOL    HW229637   5.948   5.537   5.792 -2.1070  0.8393  1.0429
 9580SOL     OW29638   6.030   4.714   3.655  0.8773 -0.2149 -0.0478
 9580SOL    HW129639   6.061   4.808   3.672  0.8091 -0.3511  0.9158
 9580SOL    HW229640   5.999   4.674   3.742  0.3480 -0.9247 -0.5574
 9581SOL     OW29641   5.853   5.027   0.259  0.1469  0.4137  0.2773
 9581SOL    HW129642   5.796   4.944   0.262  0.7197 -0.0121 -0.3569
 9581SOL    HW229643   5.894   5.036   0.168 -1.6919  2.6240 -0.4352
 9582SOL     OW29644   4.455   4.894   4.280 -0.2773  0.1532  0.0421
 9582SOL    HW129645   4.449   4.853   4.371  1.3448  0.8694  0.5261
 9582SOL    HW229646   4.545   4.873   4.241 -0.4164  1.0442 -0.7775
 9583SOL     OW29647   4.169   3.485   3.006  0.1247  0.9825  0.2015
 9583SOL    HW129648   4.238   3.412   3.006 -0.2337  0.6354  1.0243
 9583SOL    HW229649   4.146   3.508   2.911 -0.4975 -0.6850 -0.0974
 9584SOL     OW29650   2.142   5.817   3.085  0.0098  0.0965  0.1244
 9584SOL    HW129651   2.160   5.784   3.178 -1.0252 -2.9514 -0.6262
 9584SOL    HW229652   2.218   5.791   3.025 -0.5899 -0.5204 -0.3917
 9585SOL     OW29653   6.370   0.126   3.644  0.0460  0.0558 -0.2103
 9585SOL    HW129654   6.305   0.199   3.662  2.6194  2.5360 -0.3272
 9585SOL    HW229655   6.370   0.062   3.721 -3.1348 -0.6410 -0.6548
 9586SOL     OW29656   1.659   2.415   0.215  0.1851 -0.5460 -0.2907
 9586SOL    HW129657   1.725   2.468   0.163 -0.2137 -0.5549 -0.8080
 9586SOL    HW229658   1.706   2.368   0.290  0.4434  1.0179  0.5607
 9587SOL     OW29659   0.599   3.609   5.363  0.0633  0.2071  0.0318
 9587SOL    HW129660   0.695   3.598   5.390  0.3202 -0.0540 -0.9483
 9587SOL    HW229661   0.578   3.706   5.356  1.1168  0.3253 -2.5781
 9588SOL     OW29662   6.737   3.705   6.626  0.4585  0.1868  0.1696
 9588SOL    HW129663   6.817   3.745   6.582  1.4790  0.3800  2.0814
 9588SOL    HW229664   6.704   3.768   6.697 -1.2476 -0.0005 -0.4227
 9589SOL     OW29665   2.811   1.646   0.302  0.0289 -0.0279 -0.3034
 9589SOL    HW129666   2.741   1.717   0.303 -0.2453 -0.2985 -0.1059
 9589SOL    HW229667   2.901   1.688   0.288 -0.1858  0.3062 -0.6817
 9590SOL     OW29668   5.568   1.756   4.010  0.3863  0.0840 -0.0842
 9590SOL    HW129669   5.637   1.708   3.955  0.0283  0.5782 -0.9805
 9590SOL    HW229670   5.480   1.710   4.000  0.0691  0.8165 -0.8457
 9591SOL     OW29671   2.344   6.013   1.956 -0.3274 -0.0376  0.2461
 9591SOL    HW129672   2.265   6.010   1.896  0.4100  1.7122 -0.8815
 9591SOL    HW229673   2.426   6.034   1.903  0.5931  0.1132  1.6673
 9592SOL     OW29674   3.068   4.623   0.884 -0.7710  0.1255  0.1175
 9592SOL    HW129675   3.082   4.587   0.792 -0.8135  1.1979 -0.3204
 9592SOL    HW229676   3.037   4.718   0.879  3.3377  1.7314  1.2275
 9593SOL     OW29677   1.994   4.164   6.583  0.6672 -0.2702  0.2566
 9593SOL    HW129678   1.942   4.143   6.499  0.3753 -3.7888  1.1397
 9593SOL    HW229679   2.082   4.204   6.558  0.2185 -0.3519 -1.6901
 9594SOL     OW29680   7.025   1.154   1.791  0.0139 -0.4870 -0.0189
 9594SOL    HW129681   7.015   1.103   1.877 -0.0926  0.2637  0.4224
 9594SOL    HW229682   6.979   1.242   1.799  2.2757  0.7664  0.1448
 9595SOL     OW29683   1.780   2.241   0.809  0.2141  0.2273  0.2524
 9595SOL    HW129684   1.765   2.170   0.878 -0.9292  0.1911 -0.0013
 9595SOL    HW229685   1.796   2.328   0.854  1.3752 -0.1367  0.5648
 9596SOL     OW29686   2.164   0.458   6.098  0.2436  0.5178  0.1289
 9596SOL    HW129687   2.126   0.523   6.164 -0.5163  0.2256 -0.0105
 9596SOL    HW229688   2.101   0.382   6.087  1.2106 -0.3476  0.4326
 9597SOL     OW29689   6.305   3.305   0.561 -0.0635  0.0371 -0.1355
 9597SOL    HW129690   6.224   3.288   0.505 -0.2556  1.3834 -0.3067
 9597SOL    HW229691   6.340   3.397   0.542 -0.0351  0.4719  1.8261
 9598SOL     OW29692   4.051   2.402   0.771 -0.2303  0.3438  0.0407
 9598SOL    HW129693   3.960   2.384   0.809  0.1807  1.5181  1.6475
 9598SOL    HW229694   4.042   2.447   0.682 -1.2081 -0.3010 -0.2013
 9599SOL     OW29695   1.597   6.286   6.585  0.1951  0.7033 -0.1806
 9599SOL    HW129696   1.503   6.261   6.605  0.8035 -0.2326  1.7119
 9599SOL    HW229697   1.639   6.327   6.666  1.5503  0.6826 -0.8472
 9600SOL     OW29698   5.786   4.036   1.448  0.1122 -0.0419  0.2025
 9600SOL    HW129699   5.759   3.982   1.528 -1.1193 -0.3306 -0.3735
 9600SOL    HW229700   5.799   3.975   1.370  1.5743  0.2105  0.2334
 9601SOL     OW29701   3.851   0.026   0.672 -0.0047  0.1052  0.2368
 9601SOL    HW129702   3.775   0.045   0.610 -0.8877 -0.7859  0.9982
 9601SOL    HW229703   3.937   0.041   0.625 -0.6494 -0.0500 -1.0396
 9602SOL     OW29704   3.354   4.303   0.390  0.1132 -0.5021 -0.3769
 9602SOL    HW129705   3.381   4.248   0.469  0.9668  2.9873  1.9874
 9602SOL    HW229706   3.420   4.291   0.317  1.8861 -0.5185  1.1573
 9603SOL     OW29707   5.431   5.856   0.881 -0.1427  0.1362  0.0434
 9603SOL    HW129708   5.356   5.809   0.927  0.9065  0.1399  1.8264
 9603SOL    HW229709   5.516   5.805   0.896  0.4468  0.8345 -0.8183
 9604SOL     OW29710   1.580   5.153   0.699  0.0239 -0.3597 -0.3720
 9604SOL    HW129711   1.494   5.104   0.690 -0.4792  0.4546 -0.1822
 9604SOL    HW229712   1.582   5.229   0.634  0.6267 -0.4107 -0.4187
 9605SOL     OW29713   6.957   0.007   4.860  0.2140  0.2286  0.1833
 9605SOL    HW129714   6.944  -0.076   4.915 -1.8537 -0.3239 -1.0350
 9605SOL    HW229715   6.954  -0.016   4.763 -0.5734  1.7401 -0.1830
 9606SOL     OW29716   6.768   4.793   5.410 -0.1460  0.0116 -0.0118
 9606SOL    HW129717   6.800   4.751   5.326  0.4634 -1.0611  0.7291
 9606SOL    HW229718   6.748   4.890   5.394  2.9100  0.6409 -0.7089
 9607SOL     OW29719   0.197   3.548   3.362  0.3925  0.1069 -0.3386
 9607SOL    HW129720   0.250   3.564   3.446  0.2701  2.7886 -0.6884
 9607SOL    HW229721   0.248   3.487   3.302  1.4767 -0.1232  0.7705
 9608SOL     OW29722   0.192   0.688   6.774 -0.3943  0.1140 -0.7453
 9608SOL    HW129723   0.275   0.637   6.750 -0.4356 -0.4514  0.2601
 9608SOL    HW229724   0.121   0.669   6.707  0.0881  0.0952 -1.2563
 9609SOL     OW29725   3.111   0.926   3.047 -0.3942 -0.3816  0.3441
 9609SOL    HW129726   3.137   0.888   3.136 -1.9729 -1.8207  0.2406
 9609SOL    HW229727   3.065   1.013   3.060  5.0462  2.9234  0.4854
 9610SOL     OW29728   1.416   2.952   0.688 -0.0359  0.3723 -0.4654
 9610SOL    HW129729   1.427   2.905   0.776  1.3619  2.5177  0.5964
 9610SOL    HW229730   1.475   2.908   0.620  0.8334  0.2049  0.3634
 9611SOL     OW29731   0.773   2.815   4.043 -0.0752  0.1152 -0.2281
 9611SOL    HW129732   0.720   2.775   4.119 -2.0164  0.0950 -1.5230
 9611SOL    HW229733   0.850   2.755   4.021  0.1550 -0.1855  1.3011
 9612SOL     OW29734   6.318   0.285   0.273  0.1074 -0.2001 -0.3733
 9612SOL    HW129735   6.347   0.381   0.267 -2.9242  0.8172 -0.3613
 9612SOL    HW229736   6.330   0.241   0.184 -0.4874  0.8409 -0.9872
 9613SOL     OW29737   0.636   4.212   5.176 -0.5125 -0.3189  0.4466
 9613SOL    HW129738   0.545   4.195   5.213 -0.3997 -2.6256 -0.1794
 9613SOL    HW229739   0.643   4.173   5.084  1.1252 -0.3220  0.5332
 9614SOL     OW29740   2.562   0.914   6.920 -0.1550 -0.4147  0.0384
 9614SOL    HW129741   2.511   0.828   6.912  1.8319 -1.5771 -0.5763
 9614SOL    HW229742   2.557   0.964   6.834 -0.2043 -0.5465 -0.0358
 9615SOL     OW29743   1.933   3.714   0.664 -0.2816  0.2541 -0.5274
 9615SOL    HW129744   1.850   3.749   0.708 -0.7568  0.7001 -1.7356
 9615SOL    HW229745   1.956   3.625   0.702 -1.2840  0.1557 -0.1236
 9616SOL     OW29746   0.924   6.246   0.289 -0.3497  0.3326  0.0252
 9616SOL    HW129747   0.841   6.283   0.332  0.0430 -0.7782  1.8482
 9616SOL    HW229748   0.916   6.147   0.282  1.2293  0.0837  1.2425
 9617SOL     OW29749   3.614   5.416   0.858 -0.0588 -0.3111  0.1624
 9617SOL    HW129750   3.650   5.363   0.935  0.1397 -1.1003 -0.4566
 9617SOL    HW229751   3.575   5.353   0.790  0.4445  0.3174 -0.7240
 9618SOL     OW29752   6.037   1.033   6.163 -0.0564 -0.2785 -0.0307
 9618SOL    HW129753   5.938   1.023   6.152 -0.1745  1.6173 -1.0720
 9618SOL    HW229754   6.082   1.021   6.074  0.2094  2.8058 -0.4080
 9619SOL     OW29755   2.193   3.793   2.030 -0.6681 -0.0729 -0.7235
 9619SOL    HW129756   2.100   3.803   1.996 -0.4976  1.7318 -0.7119
 9619SOL    HW229757   2.218   3.696   2.028 -2.6928 -0.6648 -0.3002
 9620SOL     OW29758   1.128   2.995   4.125  0.6161 -0.1898 -0.2997
 9620SOL    HW129759   1.208   3.009   4.066  0.0067  2.6405 -0.6031
 9620SOL    HW229760   1.045   2.996   4.069  0.1309  1.0917  0.4002
 9621SOL     OW29761   6.205   4.383   6.229  0.3808  0.1437 -0.2648
 9621SOL    HW129762   6.261   4.402   6.148 -0.7103 -1.8103 -1.5487
 9621SOL    HW229763   6.177   4.469   6.271  1.2084  1.2084 -1.7941
 9622SOL     OW29764   4.643   1.767   5.571  0.2505  0.4288 -0.1496
 9622SOL    HW129765   4.649   1.742   5.668 -2.1986  0.4701  0.0834
 9622SOL    HW229766   4.611   1.688   5.518  1.1723  0.5291 -0.8790
 9623SOL     OW29767   0.058   5.632   2.912 -0.1819  0.4236 -0.2246
 9623SOL    HW129768   0.062   5.536   2.937  1.9630  0.7648  0.9718
 9623SOL    HW229769   0.081   5.642   2.815 -1.4582 -0.3095 -0.6308
 9624SOL     OW29770   6.688   6.415   3.856  0.3052  0.3056 -0.2419
 9624SOL    HW129771   6.637   6.496   3.830  0.0521 -0.6133 -3.0289
 9624SOL    HW229772   6.633   6.358   3.917 -0.5198  1.0272 -0.2987
 9625SOL     OW29773   0.683   6.005   1.283 -0.1477  0.4018  0.0332
 9625SOL    HW129774   0.715   5.927   1.336 -0.2150  1.4052  1.6334
 9625SOL    HW229775   0.583   6.011   1.291 -0.0234  1.4461  1.1469
 9626SOL     OW29776   4.322   1.248   4.264 -0.7042 -0.6019  0.4541
 9626SOL    HW129777   4.303   1.244   4.166 -1.3288  0.4989  0.5034
 9626SOL    HW229778   4.411   1.209   4.283 -1.3622 -2.5615 -0.2940
 9627SOL     OW29779   6.593   1.408   5.026 -0.0337  0.0490  0.0323
 9627SOL    HW129780   6.553   1.499   5.015 -0.9010 -0.4168 -0.9435
 9627SOL    HW229781   6.611   1.390   5.122 -1.3261  0.6575  0.4102
 9628SOL     OW29782   1.283   2.143   5.507 -0.3272  0.2839  0.1282
 9628SOL    HW129783   1.351   2.178   5.571 -0.0989  0.0356  0.0221
 9628SOL    HW229784   1.246   2.218   5.453  1.1515  0.1877 -1.0583
 9629SOL     OW29785   5.321   4.158   6.081 -0.4622  0.4576 -0.2758
 9629SOL    HW129786   5.256   4.083   6.067  0.9714 -0.5477 -1.8678
 9629SOL    HW229787   5.294   4.210   6.163 -2.4001 -0.7960 -0.0476
 9630SOL     OW29788   1.104   0.610   5.631  0.3627 -0.0931  0.3547
 9630SOL    HW129789   1.086   0.513   5.644  1.8937 -0.3282  0.8792
 9630SOL    HW229790   1.017   0.658   5.615 -0.7006 -1.1536  2.5403
 9631SOL     OW29791   1.202   6.325   5.300  0.3404 -0.1922  0.2418
 9631SOL    HW129792   1.204   6.225   5.306 -1.5853 -0.1832  2.0032
 9631SOL    HW229793   1.203   6.364   5.392 -1.2509  1.3096 -0.3318
 9632SOL     OW29794   4.401   0.585   5.821 -0.1614 -0.5716  0.2473
 9632SOL    HW129795   4.339   0.511   5.849  0.8865 -1.5104  0.1373
 9632SOL    HW229796   4.377   0.614   5.728 -0.6776 -0.6607  0.3481
 9633SOL     OW29797   6.821   1.021   5.074 -0.5303  0.1407  0.0911
 9633SOL    HW129798   6.784   1.111   5.052 -0.7554  0.2210  0.7717
 9633SOL    HW229799   6.920   1.027   5.088 -0.4356  0.1485 -0.5357
 9634SOL     OW29800   5.566   4.813   4.682  0.4318 -0.1791  0.4348
 9634SOL    HW129801   5.588   4.887   4.619  1.9689  0.5860  1.8003
 9634SOL    HW229802   5.503   4.848   4.752  0.2033 -0.5107  0.3968
 9635SOL     OW29803   0.819   4.407   0.401 -0.3500  0.2912  0.1513
 9635SOL    HW129804   0.768   4.326   0.429 -0.5424  0.3331 -0.0743
 9635SOL    HW229805   0.841   4.400   0.304 -1.3239  1.0229 -0.1267
 9636SOL     OW29806   3.736   3.678   1.104 -0.3728 -0.2944 -0.9215
 9636SOL    HW129807   3.719   3.727   1.189  0.7187  0.6545 -1.2136
 9636SOL    HW229808   3.655   3.624   1.080  0.4242 -3.2907  2.3997
 9637SOL     OW29809   2.330   5.861   3.510 -0.7214 -0.7379  0.0041
 9637SOL    HW129810   2.245   5.810   3.497 -0.1392 -1.6991 -0.1789
 9637SOL    HW229811   2.343   5.924   3.434 -0.7992 -1.2927 -0.4815
 9638SOL     OW29812   0.531   1.089   5.538  0.0344 -0.3258  0.2769
 9638SOL    HW129813   0.461   1.145   5.495 -0.3980 -1.0940 -0.0423
 9638SOL    HW229814   0.620   1.133   5.526 -0.3945  0.7031  0.7747
 9639SOL     OW29815   6.489   4.524   6.550 -0.3292 -0.2259 -0.5044
 9639SOL    HW129816   6.424   4.556   6.620 -1.5730 -1.0963 -1.2210
 9639SOL    HW229817   6.517   4.430   6.571 -1.1801 -0.7152 -1.4574
 9640SOL     OW29818   4.666   0.217   1.127  0.1590  0.2915  0.3389
 9640SOL    HW129819   4.663   0.246   1.223  0.8098  1.1326  0.1224
 9640SOL    HW229820   4.712   0.128   1.121 -0.1066  0.1179  0.8318
 9641SOL     OW29821   0.722   6.296   6.291  0.3015 -0.3847 -0.0826
 9641SOL    HW129822   0.755   6.391   6.292  0.7904 -0.5552  0.3682
 9641SOL    HW229823   0.789   6.237   6.335 -0.2323 -0.8655  0.0957
 9642SOL     OW29824   6.679   6.145   1.573  0.1977 -0.1288 -0.6710
 9642SOL    HW129825   6.632   6.157   1.486 -0.0461  1.5292 -0.3507
 9642SOL    HW229826   6.698   6.048   1.589 -2.3222 -0.7743 -1.2146
 9643SOL     OW29827   2.912   1.478   0.904 -0.0251 -0.0207 -0.2201
 9643SOL    HW129828   2.826   1.529   0.909  0.1551  0.3156 -0.5248
 9643SOL    HW229829   2.921   1.438   0.813  0.2330  0.1071 -0.2522
 9644SOL     OW29830   1.533   5.651   2.402  0.5803 -0.1291  0.2687
 9644SOL    HW129831   1.616   5.617   2.357  0.7602  0.7519 -0.0860
 9644SOL    HW229832   1.493   5.578   2.457  1.2120 -0.7697 -0.1012
 9645SOL     OW29833   6.029   6.717   1.399 -0.2911  0.0256 -0.3040
 9645SOL    HW129834   6.102   6.732   1.467 -0.5138 -0.9681  0.1711
 9645SOL    HW229835   6.000   6.805   1.362  0.6552  0.4959  0.0259
 9646SOL     OW29836   1.528   6.239   4.419  0.1913  0.1724 -0.1678
 9646SOL    HW129837   1.607   6.299   4.433 -0.3173  1.0936 -1.0646
 9646SOL    HW229838   1.539   6.190   4.333 -0.3732  0.5843 -0.4809
 9647SOL     OW29839   6.120   6.467   3.021 -0.0238 -0.1167  0.6318
 9647SOL    HW129840   6.115   6.547   3.082 -1.6296 -0.0162  0.3928
 9647SOL    HW229841   6.146   6.387   3.074 -0.5901  0.1309  1.3041
 9648SOL     OW29842   3.195   2.679   5.302 -0.1109 -0.7840 -0.6927
 9648SOL    HW129843   3.175   2.594   5.254  0.3281 -1.7888  0.8310
 9648SOL    HW229844   3.188   2.664   5.400  1.1446  0.6406 -0.3536
 9649SOL     OW29845   0.187   2.305   1.667  0.3325  0.0826  0.2412
 9649SOL    HW129846   0.285   2.326   1.664  0.2227  0.6817 -3.7427
 9649SOL    HW229847   0.135   2.380   1.628 -1.6558 -0.7464  1.1598
 9650SOL     OW29848   4.542   5.355   6.138  0.5319 -0.3578 -0.4450
 9650SOL    HW129849   4.585   5.398   6.059 -0.1875  0.2710 -0.5043
 9650SOL    HW229850   4.613   5.323   6.202  1.0926  1.1677 -0.2636
 9651SOL     OW29851   0.896   3.058   3.112 -0.0376 -0.8169 -0.7137
 9651SOL    HW129852   0.934   3.093   3.027 -1.0502  1.5454 -0.2763
 9651SOL    HW229853   0.826   3.122   3.146 -1.8688 -3.2214  0.3106
 9652SOL     OW29854   6.415   6.907   2.827 -0.5064 -0.0003 -0.5209
 9652SOL    HW129855   6.382   7.000   2.814 -1.4346  0.0331  1.6180
 9652SOL    HW229856   6.479   6.905   2.904  0.8300 -0.8816 -1.6081
 9653SOL     OW29857   6.922   1.687   3.770  0.0660 -0.0061  0.4578
 9653SOL    HW129858   6.998   1.751   3.766 -1.4046  1.9864  2.0521
 9653SOL    HW229859   6.935   1.625   3.847 -1.5094  2.7364  3.1523
 9654SOL     OW29860   0.559   0.765   5.459 -0.0756  0.4145 -0.4830
 9654SOL    HW129861   0.614   0.834   5.411 -0.1334 -0.1923 -1.4520
 9654SOL    HW229862   0.480   0.809   5.501  0.0226  0.9832 -0.8778
 9655SOL     OW29863   5.128   0.881   4.130  0.2557 -0.0484  0.7577
 9655SOL    HW129864   5.148   0.952   4.198  0.2770  0.9198 -0.2320
 9655SOL    HW229865   5.212   0.833   4.106  0.2099 -0.5583  1.5710
 9656SOL     OW29866   6.997   3.243   6.527  0.4525 -0.5487 -0.5802
 9656SOL    HW129867   7.083   3.230   6.478 -0.1900  0.1680 -1.9706
 9656SOL    HW229868   6.964   3.336   6.512  0.0449 -0.4262  0.9543
 9657SOL     OW29869   0.213   1.118   4.064 -0.0108 -0.1000  0.2907
 9657SOL    HW129870   0.199   1.166   4.151 -1.5749 -0.9169  0.5235
 9657SOL    HW229871   0.134   1.130   4.005  1.6191  1.6554 -1.6844
 9658SOL     OW29872   3.360   4.141   5.777  0.4102  1.0612  0.2923
 9658SOL    HW129873   3.299   4.177   5.848  0.7341  0.6028  0.8134
 9658SOL    HW229874   3.306   4.117   5.696 -0.2625 -0.1808  1.0694
 9659SOL     OW29875   1.586   6.242   5.510  0.2492  0.0768 -0.4519
 9659SOL    HW129876   1.495   6.274   5.482  0.6363  0.5776 -1.1682
 9659SOL    HW229877   1.589   6.233   5.609 -1.2095 -1.8718 -0.5169
 9660SOL     OW29878   5.954   0.497   0.129 -0.2037  0.0639  0.5894
 9660SOL    HW129879   5.969   0.460   0.221 -1.3755  2.1196  1.6936
 9660SOL    HW229880   5.880   0.447   0.085  0.7568 -1.3227  0.4997
 9661SOL     OW29881   1.572   5.529   1.611 -0.5243  0.0653  0.0507
 9661SOL    HW129882   1.571   5.576   1.700  0.4000  1.2186 -0.5350
 9661SOL    HW229883   1.621   5.584   1.544  0.9757 -1.9263 -0.5732
 9662SOL     OW29884   5.018   4.102   3.391 -0.0059  0.2036 -0.3196
 9662SOL    HW129885   5.059   4.062   3.473 -0.5728  2.1895  0.9993
 9662SOL    HW229886   4.945   4.042   3.358 -0.3335 -0.2441  1.1353
 9663SOL     OW29887   0.674   5.025   2.745 -0.2332 -0.4667  0.3678
 9663SOL    HW129888   0.587   4.982   2.772 -2.4131  3.0228 -0.4335
 9663SOL    HW229889   0.672   5.122   2.769  3.6458 -0.2723  0.5128
 9664SOL     OW29890   6.861   4.434   3.225 -0.1978 -0.5200 -0.5702
 9664SOL    HW129891   6.878   4.507   3.159  0.1366 -0.3424 -0.2891
 9664SOL    HW229892   6.766   4.404   3.217  0.1800 -1.4317 -2.0575
 9665SOL     OW29893   2.083   3.856   6.117 -0.2917  0.6123 -0.9351
 9665SOL    HW129894   1.988   3.887   6.118 -0.9931 -1.3970 -0.0364
 9665SOL    HW229895   2.094   3.779   6.180  2.2786  1.7118  0.1148
 9666SOL     OW29896   2.248   0.415   1.573  0.0246 -0.0940  0.5480
 9666SOL    HW129897   2.319   0.345   1.564  2.1733  2.0604 -0.8851
 9666SOL    HW229898   2.224   0.450   1.482 -2.5848 -0.4011  1.0490
 9667SOL     OW29899   4.788   4.784   0.006  0.0194  0.0594 -0.3603
 9667SOL    HW129900   4.777   4.741  -0.084 -0.6241 -0.5587  0.0093
 9667SOL    HW229901   4.885   4.802   0.022  0.2349 -0.6562 -0.7920
 9668SOL     OW29902   1.632   6.553   1.807  0.0877  0.7373  0.1037
 9668SOL    HW129903   1.732   6.551   1.796  0.1040 -2.9828 -0.4376
 9668SOL    HW229904   1.592   6.615   1.740  1.9670  2.1206  0.1695
 9669SOL     OW29905   3.299   2.087   1.093 -0.0258  0.0233  0.8399
 9669SOL    HW129906   3.370   2.102   1.161  1.2878 -3.2393  0.3711
 9669SOL    HW229907   3.209   2.094   1.136  0.6668  0.9483  2.1959
 9670SOL     OW29908   1.913   5.845   3.462 -0.0668  0.0717 -0.6901
 9670SOL    HW129909   1.907   5.858   3.561 -0.4669  1.0119 -0.8202
 9670SOL    HW229910   1.950   5.755   3.442 -0.4521 -0.3256  0.3131
 9671SOL     OW29911   3.685   2.531   6.369  0.3281 -0.0984  0.4255
 9671SOL    HW129912   3.653   2.512   6.277  0.5714 -0.1907  0.3591
 9671SOL    HW229913   3.612   2.574   6.422  0.1382 -0.1917  0.2386
 9672SOL     OW29914   3.166   1.816   3.055  0.3294  0.0101 -0.6139
 9672SOL    HW129915   3.176   1.792   3.151  1.2165 -0.1166 -0.7277
 9672SOL    HW229916   3.093   1.760   3.014  0.7319 -0.7622 -0.2930
 9673SOL     OW29917   2.046   3.721   0.421  0.2184 -0.5358  0.8760
 9673SOL    HW129918   2.034   3.635   0.371  1.0606 -0.4785  0.5623
 9673SOL    HW229919   2.000   3.715   0.510  1.7491 -1.9743  1.6187
 9674SOL     OW29920   4.895   2.316   2.023 -0.3583 -0.1212 -0.3686
 9674SOL    HW129921   4.812   2.261   2.025  0.3262 -1.2146 -1.1457
 9674SOL    HW229922   4.894   2.381   2.099 -1.6134 -0.5575  0.0084
 9675SOL     OW29923   0.780   5.314   6.904 -0.2709  0.3925 -0.7119
 9675SOL    HW129924   0.872   5.346   6.879 -0.4096  0.9721 -0.4926
 9675SOL    HW229925   0.788   5.233   6.962  0.1388  1.1225  0.2734
 9676SOL     OW29926   2.017   5.538   1.805  0.0161  0.3570  0.7792
 9676SOL    HW129927   2.024   5.440   1.828 -0.9118  0.0243 -0.2448
 9676SOL    HW229928   1.956   5.582   1.871 -2.4244 -0.5389 -0.7154
 9677SOL     OW29929   1.406   4.424   3.649 -0.6901  0.0603 -0.6377
 9677SOL    HW129930   1.374   4.420   3.554  1.3023 -1.8508 -1.3023
 9677SOL    HW229931   1.472   4.351   3.665 -0.6480  0.6139  2.1333
 9678SOL     OW29932   0.350   1.422   5.197 -0.1949  0.4176  0.7019
 9678SOL    HW129933   0.316   1.516   5.197 -0.1906  0.4309 -0.6950
 9678SOL    HW229934   0.354   1.387   5.104  0.1884 -0.8425  1.1628
 9679SOL     OW29935   0.052   0.862   2.569 -0.5205  0.7002  0.6043
 9679SOL    HW129936   0.120   0.868   2.496 -0.9198 -2.9185 -0.2663
 9679SOL    HW229937  -0.039   0.858   2.530 -0.8698  0.4503  1.4180
 9680SOL     OW29938   2.161   6.183   0.148  0.0896  0.4212 -0.1372
 9680SOL    HW129939   2.116   6.253   0.203  2.4198  0.9239  1.2808
 9680SOL    HW229940   2.259   6.183   0.168  0.4680 -1.9293 -1.5924
 9681SOL     OW29941   0.742   2.589   1.096  0.4050  0.7686  0.0694
 9681SOL    HW129942   0.801   2.510   1.110  1.0300  1.4422  1.3522
 9681SOL    HW229943   0.692   2.609   1.180 -1.0355  0.7357 -0.7346
 9682SOL     OW29944   5.125   0.806   5.083  0.0186 -0.1804 -0.6684
 9682SOL    HW129945   5.174   0.725   5.115  1.0997  0.5433 -0.4547
 9682SOL    HW229946   5.111   0.869   5.160  0.9342  0.7103 -1.2187
 9683SOL     OW29947   0.028   4.779   6.685 -0.1645 -0.5337  0.0361
 9683SOL    HW129948  -0.020   4.853   6.732 -0.2366 -0.2363 -0.5050
 9683SOL    HW229949   0.074   4.814   6.604  2.6070 -0.4177  1.5454
 9684SOL     OW29950   5.494   1.171   6.084 -0.0971 -0.4818  0.2597
 9684SOL    HW129951   5.451   1.246   6.034  1.0799  0.4721  0.6544
 9684SOL    HW229952   5.506   1.197   6.180  3.2331  0.1760 -0.2189
 9685SOL     OW29953   2.090   3.911   3.938 -0.4015 -0.8730 -0.0456
 9685SOL    HW129954   2.131   3.933   4.027 -0.7292 -1.1876  0.1895
 9685SOL    HW229955   2.028   3.984   3.911 -0.2220 -0.7279 -0.0653
 9686SOL     OW29956   6.098   2.290   6.979  0.1300  0.3616  0.1441
 9686SOL    HW129957   6.017   2.323   6.931  0.9333 -0.3756 -1.7981
 9686SOL    HW229958   6.075   2.208   7.032 -0.2536 -0.2833 -0.9930
 9687SOL     OW29959   0.403   2.668   5.058 -1.1298 -0.0193  0.0223
 9687SOL    HW129960   0.455   2.680   5.142  0.1006 -0.0311 -0.7133
 9687SOL    HW229961   0.311   2.705   5.070 -1.7452 -1.9778  2.0830
 9688SOL     OW29962   5.544   1.978   3.819  0.3680  0.0111  0.1897
 9688SOL    HW129963   5.579   1.907   3.880 -0.0280  0.6159  1.1430
 9688SOL    HW229964   5.538   1.942   3.726 -0.1229 -1.3133  0.7020
 9689SOL     OW29965   6.075   1.427   3.590 -0.1497 -0.3856  0.3560
 9689SOL    HW129966   6.161   1.477   3.598  0.6727 -1.5776 -0.7324
 9689SOL    HW229967   6.037   1.411   3.682  2.0334 -1.9121  1.0712
 9690SOL     OW29968   5.207   3.054   2.993  0.1208  0.1714 -0.0258
 9690SOL    HW129969   5.211   3.050   3.093 -0.9833 -2.4408 -0.0099
 9690SOL    HW229970   5.112   3.050   2.963  0.1634  4.1030 -1.2188
 9691SOL     OW29971   1.284   0.212   1.760  0.1705  0.0105  0.2603
 9691SOL    HW129972   1.213   0.282   1.751 -0.3551 -0.6929 -1.5002
 9691SOL    HW229973   1.343   0.214   1.679  0.7611 -0.9107  0.6548
 9692SOL     OW29974   0.056   5.525   1.599 -0.5249  0.5777  0.0853
 9692SOL    HW129975   0.046   5.462   1.522 -0.2950 -0.4715  0.8853
 9692SOL    HW229976  -0.031   5.571   1.617 -0.9770 -0.2813  0.1248
 9693SOL     OW29977   4.202   5.066   0.109 -0.6434 -0.2469 -0.3795
 9693SOL    HW129978   4.132   5.031   0.172  0.1479 -1.5461 -0.1792
 9693SOL    HW229979   4.206   5.166   0.116 -0.3570 -0.3510  1.9076
 9694SOL     OW29980   2.952   6.406   1.721  0.2571  0.4704  0.1063
 9694SOL    HW129981   2.856   6.423   1.703  0.1077 -1.0654 -0.7046
 9694SOL    HW229982   2.981   6.457   1.802 -0.9362  1.8161 -0.2813
 9695SOL     OW29983   5.586   0.457   1.857 -0.0936  0.1323  0.1043
 9695SOL    HW129984   5.586   0.358   1.841  1.2398  0.0979  0.1671
 9695SOL    HW229985   5.558   0.504   1.774 -1.0964 -0.3020  0.1821
 9696SOL     OW29986   3.231   0.663   1.453  0.5775 -0.0037 -0.1501
 9696SOL    HW129987   3.141   0.685   1.491  0.4191 -1.4759  0.4121
 9696SOL    HW229988   3.293   0.740   1.465 -0.5157  0.9192 -0.2712
 9697SOL     OW29989   1.585   2.910   0.187 -0.4282  0.2259  0.0292
 9697SOL    HW129990   1.491   2.893   0.158 -1.0083  0.7671  1.5127
 9697SOL    HW229991   1.602   2.862   0.273  0.2845  1.0525  0.3600
 9698SOL     OW29992   4.271   3.139   5.663  0.1641 -0.6612 -0.3792
 9698SOL    HW129993   4.193   3.093   5.620 -0.0681 -0.8639  0.2509
 9698SOL    HW229994   4.353   3.124   5.608 -0.2152 -0.5430 -0.9894
 9699SOL     OW29995   6.863   6.748   1.290 -0.1947 -0.0528  0.1119
 9699SOL    HW129996   6.848   6.741   1.388 -0.9403  1.2855  0.1129
 9699SOL    HW229997   6.917   6.830   1.270 -1.3922  0.5549 -0.7087
 9700SOL     OW29998   1.421   4.789   2.599  0.2693 -0.1439 -0.6394
 9700SOL    HW129999   1.404   4.793   2.697 -0.2359  1.4170 -0.7588
 9700SOL    HW230000   1.431   4.882   2.563 -1.0004 -0.5859 -2.2868
 9701SOL     OW30001   5.033   2.978   2.116  0.6682 -0.1657 -0.2472
 9701SOL    HW130002   4.987   3.041   2.178 -0.6063 -1.4799  0.2059
 9701SOL    HW230003   4.965   2.939   2.053  1.7495  0.3050 -1.7590
 9702SOL     OW30004   3.939   2.065   1.953 -0.6859  0.5091  0.4522
 9702SOL    HW130005   3.860   2.121   1.978 -2.0897 -0.5915 -1.2418
 9702SOL    HW230006   3.962   2.004   2.029 -2.7536 -0.4971  0.3482
 9703SOL     OW30007   4.631   0.442   5.268  0.6245 -0.4166  0.3512
 9703SOL    HW130008   4.582   0.519   5.227  0.4145 -0.0078  1.3534
 9703SOL    HW230009   4.657   0.465   5.362  0.8788 -1.4363  0.5401
 9704SOL     OW30010   1.624   6.117   2.953  0.2173  0.8891 -0.0731
 9704SOL    HW130011   1.638   6.151   2.860 -2.9252  0.2225 -0.9349
 9704SOL    HW230012   1.583   6.188   3.009  1.3601  1.0335  0.6113
 9705SOL     OW30013   3.415   4.010   2.464 -0.4647 -0.2678  0.2091
 9705SOL    HW130014   3.323   4.009   2.424  0.0845 -1.0793 -1.0844
 9705SOL    HW230015   3.448   3.917   2.475  0.9688  0.0174 -1.2132
 9706SOL     OW30016   0.046   2.939   6.282 -0.5169 -0.6451  0.0736
 9706SOL    HW130017   0.035   2.896   6.372 -1.2971  0.6917  0.6475
 9706SOL    HW230018   0.143   2.955   6.265 -0.2047 -2.5936 -0.1693
 9707SOL     OW30019   0.343   6.930   3.035  0.0967  0.4659  0.0071
 9707SOL    HW130020   0.308   6.970   3.120  0.2988 -0.0165  0.3285
 9707SOL    HW230021   0.429   6.974   3.011 -0.0719  0.7544 -0.0634
 9708SOL     OW30022   6.633   5.238   0.242 -0.4453  0.2523 -0.5411
 9708SOL    HW130023   6.557   5.233   0.307 -0.9443 -1.8488 -1.2081
 9708SOL    HW230024   6.708   5.181   0.275 -0.2957  0.0200 -1.2709
 9709SOL     OW30025   5.750   6.265   6.456  0.6132 -0.5940  0.1195
 9709SOL    HW130026   5.829   6.260   6.394  0.7358 -0.1697  0.2400
 9709SOL    HW230027   5.704   6.353   6.444  0.8350 -0.3721  0.8738
 9710SOL     OW30028   1.748   6.509   2.709  0.0095 -0.4323  0.8240
 9710SOL    HW130029   1.841   6.519   2.744  1.0021 -0.1819 -1.6357
 9710SOL    HW230030   1.691   6.584   2.740  0.4234 -0.9191  2.8702
 9711SOL     OW30031   1.757   1.549   5.750 -0.0636 -0.2793 -0.3762
 9711SOL    HW130032   1.705   1.570   5.832 -0.2723  1.2103 -0.8645
 9711SOL    HW230033   1.694   1.531   5.674  0.1278  0.0940 -0.6259
 9712SOL     OW30034   3.034   3.800   0.265  0.1530 -0.6493 -0.1248
 9712SOL    HW130035   3.051   3.830   0.359  1.7829 -0.4363 -0.4668
 9712SOL    HW230036   2.988   3.873   0.215 -0.6708 -0.7419  0.4773
 9713SOL     OW30037   5.785   0.605   3.676 -0.1821  0.1877 -0.0664
 9713SOL    HW130038   5.716   0.533   3.665 -0.0561  0.3392 -2.3482
 9713SOL    HW230039   5.859   0.590   3.609  0.8076  1.3677  0.7251
 9714SOL     OW30040   0.974   0.005   4.390  0.0394 -1.1780 -0.1916
 9714SOL    HW130041   1.067   0.042   4.395  0.1867 -1.5965  0.3231
 9714SOL    HW230042   0.950  -0.034   4.479 -0.1023 -2.3253 -0.7198
 9715SOL     OW30043   1.306   5.140   2.702 -0.0987  0.3029  0.2511
 9715SOL    HW130044   1.250   5.223   2.708 -0.4614  0.1129 -0.4262
 9715SOL    HW230045   1.247   5.060   2.706  0.1648  0.0931 -0.0252
 9716SOL     OW30046   4.686   2.748   1.389 -0.1737 -0.0550 -0.4661
 9716SOL    HW130047   4.637   2.825   1.349  0.2683 -0.2203 -1.3656
 9716SOL    HW230048   4.626   2.669   1.395 -1.0262  0.6817  1.6719
 9717SOL     OW30049   4.352   5.638   2.981  0.2914 -0.1591 -0.3197
 9717SOL    HW130050   4.386   5.569   2.916  0.7417  0.0447 -0.3024
 9717SOL    HW230051   4.271   5.602   3.028 -0.8583  0.1974 -1.9388
 9718SOL     OW30052   2.320   1.000   0.013 -0.5058 -0.0911 -0.3716
 9718SOL    HW130053   2.410   0.980  -0.026 -0.1457 -1.7386  1.1481
 9718SOL    HW230054   2.325   1.085   0.066  0.3713 -0.5085  0.2502
 9719SOL     OW30055   3.810   6.415   0.201  0.2335  0.7999  0.6331
 9719SOL    HW130056   3.818   6.475   0.281  2.5209  1.0844  0.2459
 9719SOL    HW230057   3.854   6.458   0.122 -0.4243 -0.2606 -0.3346
 9720SOL     OW30058   2.886   4.165   5.595  0.9672 -0.7723 -0.0998
 9720SOL    HW130059   2.803   4.110   5.600  0.7232 -0.5334 -1.3425
 9720SOL    HW230060   2.869   4.249   5.544  1.2669  0.6485  2.0026
 9721SOL     OW30061   1.554   5.235   5.472 -0.3935  0.4101 -0.1972
 9721SOL    HW130062   1.599   5.284   5.397 -0.3160  0.5648 -0.0512
 9721SOL    HW230063   1.502   5.158   5.435  1.5508 -0.9616 -0.2239
 9722SOL     OW30064   5.123   5.224   7.009  0.3056 -0.3577  0.3228
 9722SOL    HW130065   5.196   5.264   6.952  0.1366 -0.8502 -0.2519
 9722SOL    HW230066   5.038   5.274   6.993  0.0615 -1.0068 -0.4996
 9723SOL     OW30067   5.813   2.457   0.291  0.1269  0.1174 -0.1292
 9723SOL    HW130068   5.761   2.529   0.244 -0.4221  0.5509  1.0776
 9723SOL    HW230069   5.806   2.372   0.240 -0.1458  0.6549 -1.0096
 9724SOL     OW30070   5.289   6.720   1.509  0.7289  0.1616 -0.3470
 9724SOL    HW130071   5.321   6.689   1.598  0.0013 -0.5956 -0.3313
 9724SOL    HW230072   5.366   6.752   1.455  1.3484 -0.5261  0.1092
 9725SOL     OW30073   5.033   0.115   5.979  0.2091  0.1697 -0.0080
 9725SOL    HW130074   5.063   0.210   5.983 -1.3933  0.6874  1.3393
 9725SOL    HW230075   5.101   0.057   6.023  0.7534  0.8246  0.0375
 9726SOL     OW30076   6.106   4.325   3.317  0.2269  0.6632  0.0104
 9726SOL    HW130077   6.131   4.292   3.408 -2.0347  0.6334  0.6850
 9726SOL    HW230078   6.044   4.403   3.326  1.2563  1.7219 -1.5506
 9727SOL     OW30079   3.610   6.429   5.528  0.1716 -0.1575  0.1447
 9727SOL    HW130080   3.553   6.443   5.608 -0.0134  0.4074 -0.0814
 9727SOL    HW230081   3.557   6.383   5.456 -0.2187  0.9622 -0.3093
 9728SOL     OW30082   2.708   1.298   6.702  0.3478 -0.2370 -0.8027
 9728SOL    HW130083   2.735   1.317   6.608 -2.2101 -1.3063 -1.8339
 9728SOL    HW230084   2.656   1.376   6.738 -0.1736 -0.5382 -0.9011
 9729SOL     OW30085   3.590   3.325   1.544  0.2612 -0.0310 -0.0678
 9729SOL    HW130086   3.510   3.314   1.485 -1.1730  0.0038  1.7951
 9729SOL    HW230087   3.627   3.235   1.568 -0.7435 -0.1589  1.0468
 9730SOL     OW30088   3.745   5.286   1.768 -0.4062  0.0603 -0.0140
 9730SOL    HW130089   3.685   5.285   1.848 -0.1640  1.0296  0.1923
 9730SOL    HW230090   3.753   5.193   1.731 -0.7868 -0.3402  0.8799
 9731SOL     OW30091   6.044   3.031   6.369 -0.3285  0.0958 -0.1060
 9731SOL    HW130092   6.093   2.946   6.350 -1.7425 -0.5221 -1.2095
 9731SOL    HW230093   6.028   3.080   6.283  0.6889  1.6454  0.5393
 9732SOL     OW30094   0.685   5.393   3.579  0.4726  0.3027 -0.5325
 9732SOL    HW130095   0.774   5.398   3.623  0.1994  0.7502 -0.0096
 9732SOL    HW230096   0.645   5.485   3.575  0.0749  0.1185 -0.8348
 9733SOL     OW30097   3.165   2.126   5.329 -0.1635 -0.7089  0.4901
 9733SOL    HW130098   3.165   2.207   5.271  0.4269 -1.1603 -0.1620
 9733SOL    HW230099   3.110   2.143   5.411  0.5496  0.6000  0.7236
 9734SOL     OW30100   4.935   6.268   5.830  0.1713 -0.3822  0.1998
 9734SOL    HW130101   4.851   6.322   5.823 -0.2328 -1.1611 -1.4571
 9734SOL    HW230102   4.917   6.175   5.799  1.5507 -0.6923  0.2623
 9735SOL     OW30103   6.308   2.270   6.413 -0.0451  0.2886  0.4246
 9735SOL    HW130104   6.312   2.363   6.450  0.7216  0.2202  0.5370
 9735SOL    HW230105   6.350   2.268   6.323 -2.7197  0.6422 -0.9261
 9736SOL     OW30106   0.058   1.932   2.818  0.2123  0.1865 -0.3716
 9736SOL    HW130107   0.132   1.891   2.765  0.1259 -2.0552  1.1600
 9736SOL    HW230108   0.071   1.914   2.915  0.3505  4.1736  0.5501
 9737SOL     OW30109   4.495   4.557   2.217 -0.5220 -0.0662 -0.1539
 9737SOL    HW130110   4.474   4.467   2.180 -0.4633 -0.6892  1.2443
 9737SOL    HW230111   4.576   4.594   2.172  0.2886 -1.3380  0.2261
 9738SOL     OW30112   5.724   0.611   1.641 -0.3367 -0.0510  0.0691
 9738SOL    HW130113   5.810   0.567   1.668  0.2452  0.9990 -0.0293
 9738SOL    HW230114   5.709   0.693   1.696 -0.4087  0.7094 -1.0380
 9739SOL     OW30115   5.892   6.893   4.987  0.0935 -0.2564  0.2976
 9739SOL    HW130116   5.943   6.964   5.036  0.2494  0.5872 -1.0544
 9739SOL    HW230117   5.886   6.812   5.045  2.1756 -0.0697  0.8879
 9740SOL     OW30118   1.933   2.793   2.740  0.1689 -0.5699  0.1438
 9740SOL    HW130119   1.870   2.867   2.714  1.1365  0.3039  0.2110
 9740SOL    HW230120   1.901   2.750   2.825 -0.8281 -0.7629 -0.3162
 9741SOL     OW30121   6.000   3.575   6.634 -0.2848  0.8875 -0.0334
 9741SOL    HW130122   6.026   3.603   6.726  1.0305 -0.4226  0.0408
 9741SOL    HW230123   5.946   3.490   6.640 -0.5719  1.0396 -0.4497
 9742SOL     OW30124   2.207   5.851   3.816 -0.0719 -0.1106 -0.3033
 9742SOL    HW130125   2.166   5.760   3.822  0.6002 -0.4140 -0.2072
 9742SOL    HW230126   2.141   5.915   3.776 -1.5847  0.0107  2.1660
 9743SOL     OW30127   5.705   4.782   1.823 -0.4276  0.0552  0.7473
 9743SOL    HW130128   5.781   4.775   1.758 -0.1599 -0.7943  1.1387
 9743SOL    HW230129   5.727   4.851   1.892 -0.6044  0.7810  0.0932
 9744SOL     OW30130   6.976   3.616   3.308  0.1449 -0.1706 -0.4682
 9744SOL    HW130131   7.063   3.613   3.356  0.2198 -0.3164 -0.6136
 9744SOL    HW230132   6.960   3.708   3.273  0.4316 -0.2442 -0.7959
 9745SOL     OW30133   5.720   0.322   4.584 -0.4460  0.2981 -0.1822
 9745SOL    HW130134   5.677   0.289   4.668  0.8769  0.9087  0.7832
 9745SOL    HW230135   5.738   0.420   4.592  2.5993 -0.1762  0.2349
 9746SOL     OW30136   2.597   2.356   2.746  0.4106 -0.0316  0.4255
 9746SOL    HW130137   2.641   2.362   2.835 -0.2518 -0.7628  0.8155
 9746SOL    HW230138   2.615   2.266   2.706 -0.2978 -0.1573  0.3694
 9747SOL     OW30139   5.794   3.175   6.971  0.4839  0.1932  0.4804
 9747SOL    HW130140   5.715   3.119   6.947 -0.9872  1.8806  1.1408
 9747SOL    HW230141   5.848   3.129   7.041 -0.5068 -0.5452  0.7860
 9748SOL     OW30142   3.317   0.355   1.042  0.3424 -0.4279 -0.0580
 9748SOL    HW130143   3.349   0.417   0.971 -1.3493 -0.2541 -0.7041
 9748SOL    HW230144   3.283   0.407   1.120 -0.6126 -0.5360 -0.3924
 9749SOL     OW30145   5.007   5.399   4.520 -0.2870 -0.5405  0.0324
 9749SOL    HW130146   5.014   5.340   4.440  0.2955 -0.0444 -0.3013
 9749SOL    HW230147   5.072   5.475   4.511 -0.9192  0.0729  0.5103
 9750SOL     OW30148   6.853   3.765   4.066  0.3282  0.2378  0.5900
 9750SOL    HW130149   6.888   3.848   4.109  1.3990 -0.3482  0.8790
 9750SOL    HW230150   6.781   3.789   4.000  1.0580  1.4539  0.2048
 9751SOL     OW30151   5.998   3.184   3.627  0.0332 -0.2435 -0.1953
 9751SOL    HW130152   6.092   3.162   3.654  0.8376  2.1257 -0.8236
 9751SOL    HW230153   5.995   3.199   3.528 -0.4436  1.9924  0.0999
 9752SOL     OW30154   2.426   4.488   4.863  0.6181  0.3639  0.3716
 9752SOL    HW130155   2.482   4.509   4.943  1.7529  0.0329 -0.3103
 9752SOL    HW230156   2.381   4.400   4.875  0.9705  0.2076  0.5518
 9753SOL     OW30157   0.644   1.771   6.977  0.1694  0.0786  0.1061
 9753SOL    HW130158   0.593   1.685   6.980 -0.4609  0.4681  0.8628
 9753SOL    HW230159   0.689   1.787   7.065  0.0434  0.6631  0.0729
 9754SOL     OW30160   5.995   3.390   1.144 -0.1262 -0.2503  0.5227
 9754SOL    HW130161   5.897   3.379   1.128  0.1443 -1.8736 -0.2795
 9754SOL    HW230162   6.023   3.336   1.223  0.2109 -0.3009  0.3734
 9755SOL     OW30163   1.854   3.005   5.159 -0.7344  0.4554 -0.3060
 9755SOL    HW130164   1.784   3.016   5.230 -0.8158 -0.9557 -0.1334
 9755SOL    HW230165   1.942   2.988   5.202 -0.2436  2.2330 -0.5237
 9756SOL     OW30166   4.108   6.649   6.244 -0.8184 -0.2026 -0.1543
 9756SOL    HW130167   4.071   6.721   6.303 -1.5357 -0.9982  0.3785
 9756SOL    HW230168   4.054   6.566   6.254 -0.0410 -0.8081 -0.8161
 9757SOL     OW30169   3.391   1.532   4.316  0.1895 -0.4836  0.4571
 9757SOL    HW130170   3.406   1.433   4.319 -3.4986 -1.2945 -1.5067
 9757SOL    HW230171   3.393   1.563   4.221  0.2482  1.1436  0.9574
 9758SOL     OW30172   5.631   2.308   6.670  0.1915 -0.2682 -0.5655
 9758SOL    HW130173   5.573   2.384   6.698  0.3854 -0.6743  1.0150
 9758SOL    HW230174   5.714   2.343   6.625 -0.3812  0.3809 -1.1256
 9759SOL     OW30175   4.081   1.022   4.985  0.0731 -0.1519  0.0664
 9759SOL    HW130176   4.105   0.961   4.910 -0.2366 -0.1477 -0.0361
 9759SOL    HW230177   4.157   1.027   5.050  2.1467  3.1896 -2.3462
 9760SOL     OW30178   6.383   1.815   1.232 -0.2084 -0.2379 -0.1598
 9760SOL    HW130179   6.458   1.825   1.168 -0.6417  0.3095 -0.5918
 9760SOL    HW230180   6.357   1.718   1.239 -1.9518 -0.0787 -2.9406
 9761SOL     OW30181   5.105   6.896   1.613  0.0283  0.5572 -0.2697
 9761SOL    HW130182   5.084   6.989   1.582  0.2558  1.0523  1.0205
 9761SOL    HW230183   5.172   6.854   1.552 -0.2909  1.1248 -1.0208
 9762SOL     OW30184   6.070   5.274   0.222 -0.6262 -0.6188 -0.6969
 9762SOL    HW130185   6.156   5.224   0.228 -1.0313 -1.5669 -2.2584
 9762SOL    HW230186   6.011   5.232   0.153 -2.0181  0.5107 -0.2581
 9763SOL     OW30187   4.904   6.073   4.509  0.2690 -0.5948 -1.0772
 9763SOL    HW130188   4.877   5.980   4.532  0.0672 -0.5520 -1.1425
 9763SOL    HW230189   4.854   6.103   4.428 -0.6644  0.0610 -0.2639
 9764SOL     OW30190   5.772   2.460   6.914  0.6996  0.4607 -0.1694
 9764SOL    HW130191   5.718   2.377   6.896  2.3958 -1.0475  1.2588
 9764SOL    HW230192   5.840   2.472   6.842  1.3095 -0.1915  0.2749
 9765SOL     OW30193   6.639   2.287   6.440 -0.1574  0.2561 -0.1050
 9765SOL    HW130194   6.701   2.229   6.492 -0.5940 -1.4415 -1.3824
 9765SOL    HW230195   6.597   2.354   6.501 -1.6539 -2.4567  2.0601
 9766SOL     OW30196   4.309   2.728   6.018 -0.0757  0.2510 -0.2560
 9766SOL    HW130197   4.241   2.715   6.090 -0.2186 -2.3067 -0.7787
 9766SOL    HW230198   4.270   2.701   5.930  1.3030 -0.3451 -0.7036
 9767SOL     OW30199   1.608   2.132   3.395  0.4397 -0.1767  0.6514
 9767SOL    HW130200   1.541   2.132   3.320 -0.8482  0.6359  1.7698
 9767SOL    HW230201   1.697   2.160   3.359 -0.5981  2.2239 -0.2377
 9768SOL     OW30202   6.445   5.770   5.595  0.3355  0.2473 -0.1868
 9768SOL    HW130203   6.429   5.865   5.570 -2.8266  0.4853  2.2536
 9768SOL    HW230204   6.451   5.715   5.512 -0.8637  2.1366 -1.6107
 9769SOL     OW30205   0.595   3.789   1.765  0.6945 -0.9288 -0.6093
 9769SOL    HW130206   0.597   3.854   1.841  0.5117  2.0100 -2.9409
 9769SOL    HW230207   0.539   3.710   1.790  1.2412 -0.4756  2.5077
 9770SOL     OW30208   1.442   3.066   2.850  0.0354  0.2034 -0.0670
 9770SOL    HW130209   1.447   3.091   2.946  1.3674  1.4318 -0.4300
 9770SOL    HW230210   1.477   3.141   2.793  0.9812 -1.1851 -1.4011
 9771SOL     OW30211   3.616   6.787   6.254  0.0766  0.2430 -0.0161
 9771SOL    HW130212   3.542   6.783   6.187  0.5327  0.5400 -0.5455
 9771SOL    HW230213   3.597   6.723   6.329 -0.3317 -0.2627 -0.5411
 9772SOL     OW30214   3.526   3.622   6.585  0.3463 -0.2242  0.4042
 9772SOL    HW130215   3.491   3.630   6.491  1.1713 -0.4303  0.0757
 9772SOL    HW230216   3.625   3.630   6.585  0.6480 -2.9642  0.8994
 9773SOL     OW30217   1.560   5.014   5.246 -0.0772  0.3070  0.6073
 9773SOL    HW130218   1.581   4.961   5.328 -0.2769  0.2997  0.6551
 9773SOL    HW230219   1.613   4.979   5.169  0.5743  0.7109  0.8683
 9774SOL     OW30220   0.272   6.961   0.878  0.3304  0.5083 -0.1593
 9774SOL    HW130221   0.330   6.898   0.826 -1.2373  0.9100 -2.6048
 9774SOL    HW230222   0.325   7.042   0.902  2.0126 -1.0616  1.8929
 9775SOL     OW30223   3.503   1.288   2.198 -0.2745  0.0249 -0.6316
 9775SOL    HW130224   3.568   1.363   2.184 -0.7149  1.0346  2.0432
 9775SOL    HW230225   3.548   1.213   2.246 -0.9065  0.5637  0.8721
 9776SOL     OW30226   6.206   2.695   1.335 -0.3583  0.6806 -0.1578
 9776SOL    HW130227   6.131   2.653   1.285  1.4227 -1.9266 -0.8230
 9776SOL    HW230228   6.199   2.673   1.432  0.6447 -1.4387 -0.5208
 9777SOL     OW30229   6.536   3.089   6.855 -0.2798 -0.1130 -0.6388
 9777SOL    HW130230   6.571   3.161   6.915  0.4699  0.1626 -1.4013
 9777SOL    HW230231   6.436   3.084   6.864 -0.1348 -0.5437  1.1386
 9778SOL     OW30232   3.976   1.675   1.177  0.4377 -0.8145  0.0954
 9778SOL    HW130233   3.917   1.687   1.257 -0.8015  0.0512 -0.9088
 9778SOL    HW230234   4.033   1.594   1.190  1.0760 -0.0902  2.3262
 9779SOL     OW30235   4.460   0.427   2.785  0.0328  0.0565 -0.4665
 9779SOL    HW130236   4.427   0.360   2.851 -1.8778  1.7006  0.3832
 9779SOL    HW230237   4.513   0.381   2.714 -0.1745 -2.1443  0.7103
 9780SOL     OW30238   5.932   0.122   4.536  0.0313 -0.2487  0.2669
 9780SOL    HW130239   5.849   0.176   4.520 -0.4642 -1.3018 -0.9006
 9780SOL    HW230240   5.913   0.025   4.519  1.6258 -0.4603 -0.5680
 9781SOL     OW30241   5.012   4.782   5.462  0.0188 -0.8589  0.1826
 9781SOL    HW130242   4.918   4.801   5.432 -0.0034  1.0248  1.2775
 9781SOL    HW230243   5.013   4.701   5.520 -0.6046 -2.0234 -1.3828
 9782SOL     OW30244   2.445   5.986   1.067 -0.2075  0.5999 -0.3300
 9782SOL    HW130245   2.494   6.074   1.065  1.9836 -0.5528 -1.8255
 9782SOL    HW230246   2.363   5.995   1.124  0.9084  3.0953  1.0785
 9783SOL     OW30247   6.583   3.723   6.915  0.3946 -0.0199 -0.1890
 9783SOL    HW130248   6.670   3.690   6.950 -0.9336 -0.3287  3.1999
 9783SOL    HW230249   6.595   3.814   6.875  2.0764  0.5296  1.4396
 9784SOL     OW30250   3.971   2.314   1.827 -0.3109  0.1579  0.0875
 9784SOL    HW130251   3.992   2.221   1.858  1.4753  0.7820  0.8709
 9784SOL    HW230252   3.890   2.347   1.874 -1.1892 -1.1043 -0.4605
 9785SOL     OW30253   5.994   3.007   4.860  0.2144  0.6248 -0.3415
 9785SOL    HW130254   5.994   3.002   4.960  3.5723  1.8921 -0.1190
 9785SOL    HW230255   6.038   2.926   4.822 -3.8466 -1.4182 -1.1475
 9786SOL     OW30256   3.105   0.086   5.533  0.4086  0.5993  0.3546
 9786SOL    HW130257   3.026   0.037   5.570  0.7783 -0.9814 -0.8450
 9786SOL    HW230258   3.078   0.179   5.509 -1.1196  0.0805 -0.0594
 9787SOL     OW30259   3.929   1.356   2.563 -0.1234  0.2885 -0.4078
 9787SOL    HW130260   3.831   1.334   2.568 -0.0685 -0.1153 -1.0558
 9787SOL    HW230261   3.983   1.272   2.568  0.1600  0.4418 -0.7950
 9788SOL     OW30262   2.447   1.168   4.817 -0.5101  0.3466 -0.0745
 9788SOL    HW130263   2.487   1.147   4.728 -1.2944  1.1691 -0.6350
 9788SOL    HW230264   2.465   1.092   4.880 -0.5976 -0.5798 -1.1300
 9789SOL     OW30265   6.338   4.629   3.056 -0.4141 -0.3976 -0.1324
 9789SOL    HW130266   6.421   4.604   3.006 -1.1388 -2.8031 -0.2872
 9789SOL    HW230267   6.291   4.703   3.007  1.5283  0.9519 -0.0844
 9790SOL     OW30268   5.139   5.175   0.991  0.0760 -0.5502  0.1760
 9790SOL    HW130269   5.110   5.095   1.043  1.0953 -1.7825 -1.0669
 9790SOL    HW230270   5.111   5.164   0.895  1.2817  0.0040 -0.2610
 9791SOL     OW30271   2.127   3.553   4.528  0.3684  0.6338 -0.9043
 9791SOL    HW130272   2.032   3.582   4.518  0.7128  2.1835 -0.0411
 9791SOL    HW230273   2.133   3.454   4.518 -1.0981  0.6647 -2.5460
 9792SOL     OW30274   5.844   1.387   0.489  0.0578  0.0914  0.3846
 9792SOL    HW130275   5.747   1.368   0.473  0.0589 -0.1676  0.6654
 9792SOL    HW230276   5.900   1.319   0.442  0.2145  1.8039 -2.0872
 9793SOL     OW30277   1.243   5.419   2.122  0.5853 -0.6164 -0.4801
 9793SOL    HW130278   1.144   5.412   2.126  0.5222  0.6248  1.0641
 9793SOL    HW230279   1.276   5.378   2.037 -1.1278 -2.0270 -0.5143
 9794SOL     OW30280   1.904   3.339   4.800 -0.4004  0.8278 -0.3350
 9794SOL    HW130281   1.949   3.304   4.882 -0.9039 -1.3541 -0.9319
 9794SOL    HW230282   1.972   3.355   4.729 -0.3784 -1.4339 -0.8812
 9795SOL     OW30283   6.471   1.361   2.105 -0.3937 -0.3563  0.0004
 9795SOL    HW130284   6.498   1.351   2.201  2.1968  0.2764 -0.5907
 9795SOL    HW230285   6.527   1.300   2.048 -0.8593  0.3451 -1.2495
 9796SOL     OW30286   5.208   1.354   2.223  0.4032 -0.4445 -0.3397
 9796SOL    HW130287   5.165   1.440   2.197 -0.1648  0.3275  2.7153
 9796SOL    HW230288   5.307   1.365   2.226  0.2622  0.6694  1.5867
 9797SOL     OW30289   4.574   0.248   6.383  0.5117 -0.2241  0.2127
 9797SOL    HW130290   4.538   0.339   6.402  1.2138  0.6064 -2.0664
 9797SOL    HW230291   4.663   0.236   6.428  2.4458  1.9063 -2.6766
 9798SOL     OW30292   0.114   4.897   0.688  0.5455 -0.5377 -0.5220
 9798SOL    HW130293   0.168   4.930   0.765  0.5031 -0.4553 -0.5278
 9798SOL    HW230294   0.102   4.798   0.695  1.9593 -0.7871 -1.3007
 9799SOL     OW30295   0.782   2.991   1.999  0.0147  0.1716 -0.0485
 9799SOL    HW130296   0.780   2.967   2.096  0.0261  1.2759  0.2395
 9799SOL    HW230297   0.824   3.081   1.988  1.1232 -0.4501 -1.1960
 9800SOL     OW30298   6.513   7.008   5.159  0.0798 -0.7297 -0.4117
 9800SOL    HW130299   6.508   6.938   5.230  1.3484 -0.7805 -0.3437
 9800SOL    HW230300   6.608   7.038   5.149 -0.3106  0.3675 -1.0373
 9801SOL     OW30301   3.731   4.864   6.954 -0.6079 -0.0499 -0.1182
 9801SOL    HW130302   3.707   4.767   6.947  1.3916 -0.6096  0.0572
 9801SOL    HW230303   3.826   4.872   6.984  0.2915  1.9074 -3.0467
 9802SOL     OW30304   3.340   0.095   6.597 -0.0128 -0.2881 -0.8106
 9802SOL    HW130305   3.416   0.044   6.558 -0.9024 -0.6851 -2.0426
 9802SOL    HW230306   3.274   0.032   6.637  0.6734  0.0890  1.0337
 9803SOL     OW30307   1.804   3.965   2.436  0.0870  0.6016 -0.7633
 9803SOL    HW130308   1.836   3.879   2.474 -1.0469  0.2677 -0.5215
 9803SOL    HW230309   1.862   4.040   2.469 -0.0031  0.1453  0.4840
 9804SOL     OW30310   1.248   0.896   6.424 -0.2605 -0.3629  0.6633
 9804SOL    HW130311   1.159   0.857   6.445  0.2559 -1.0853  1.5968
 9804SOL    HW230312   1.264   0.976   6.483  0.5509 -1.4763  2.0147
 9805SOL     OW30313   5.073   0.442   2.550  0.3034  0.1487  0.2810
 9805SOL    HW130314   5.132   0.484   2.480  0.2673  0.6161  0.5236
 9805SOL    HW230315   5.017   0.513   2.593  1.2805  0.1022  1.7075
 9806SOL     OW30316   0.006   6.093   6.998  0.3592 -0.4036  0.1576
 9806SOL    HW130317  -0.088   6.071   7.023  0.1430 -1.8476 -1.7191
 9806SOL    HW230318   0.034   6.177   7.044 -2.1841  0.6170 -0.0264
 9807SOL     OW30319   6.621   1.185   1.350  0.3998 -0.1377  0.1494
 9807SOL    HW130320   6.621   1.282   1.326  1.0919  0.0629  0.9112
 9807SOL    HW230321   6.528   1.149   1.338 -0.1026  0.8633  0.7607
 9808SOL     OW30322   4.196   0.342   1.450 -0.2065  0.7378 -0.4044
 9808SOL    HW130323   4.162   0.278   1.519 -0.2523  0.3501 -0.7871
 9808SOL    HW230324   4.184   0.436   1.483  2.0644  0.5440  1.2294
 9809SOL     OW30325   3.507   5.670   5.617  0.7923 -0.1171 -0.0175
 9809SOL    HW130326   3.539   5.755   5.660  1.0133 -0.0842 -0.2417
 9809SOL    HW230327   3.435   5.630   5.672 -0.0128  0.7408 -0.4128
 9810SOL     OW30328   6.981   2.251   3.141  0.2948  0.0617 -0.2555
 9810SOL    HW130329   7.023   2.325   3.193 -0.0470 -0.2074  0.4130
 9810SOL    HW230330   6.941   2.287   3.057  1.4149  0.4013 -0.6515
 9811SOL     OW30331   6.851   6.291   6.004  0.4853  0.5649  0.1647
 9811SOL    HW130332   6.904   6.211   5.976 -1.9830 -0.8947 -0.7005
 9811SOL    HW230333   6.788   6.265   6.077  1.2118  2.3527  1.4986
 9812SOL     OW30334   6.508   4.938   6.891  0.2325 -0.1116 -0.1448
 9812SOL    HW130335   6.413   4.939   6.922  0.4445 -0.1261  0.5014
 9812SOL    HW230336   6.569   4.919   6.968  0.7427 -0.3887 -0.6056
 9813SOL     OW30337   3.929   3.071   1.675 -0.2465  0.0496  0.0633
 9813SOL    HW130338   3.957   3.165   1.692 -1.6491  0.2611  1.4662
 9813SOL    HW230339   3.936   3.018   1.759 -1.1443 -0.6405 -0.2718
 9814SOL     OW30340   6.226   0.355   6.214 -0.2871 -0.3122  0.0045
 9814SOL    HW130341   6.255   0.314   6.128 -0.1268  0.8666 -0.5271
 9814SOL    HW230342   6.142   0.407   6.200  0.0688  0.3971  0.4105
 9815SOL     OW30343   4.129   0.086   5.552  0.0253  0.4978 -0.1101
 9815SOL    HW130344   4.084   0.118   5.469 -0.2421  1.3732  0.3511
 9815SOL    HW230345   4.111  -0.011   5.565  0.7878  0.1436 -1.5233
 9816SOL     OW30346   0.407   4.058   1.339  0.0185  0.0283 -0.0905
 9816SOL    HW130347   0.425   4.138   1.283  0.2201 -1.0170 -1.5792
 9816SOL    HW230348   0.444   4.072   1.431  0.6614  1.3431 -0.5306
 9817SOL     OW30349   4.901   3.415   3.585 -0.2248  0.1130 -0.7203
 9817SOL    HW130350   4.989   3.462   3.591 -0.9801  1.5254  0.0818
 9817SOL    HW230351   4.828   3.480   3.609 -1.4857 -1.0010 -1.4353
 9818SOL     OW30352   3.997   5.520   1.429 -0.0660  0.1428  0.8110
 9818SOL    HW130353   3.968   5.611   1.460 -1.5159 -0.0510  0.0682
 9818SOL    HW230354   3.941   5.450   1.473  0.2704 -0.3379  0.4866
 9819SOL     OW30355   2.367   2.215   1.957  0.6421  0.2347 -0.1365
 9819SOL    HW130356   2.456   2.235   1.997  1.3143  0.5290 -1.6759
 9819SOL    HW230357   2.376   2.137   1.895 -0.0710  0.5351 -0.6319
 9820SOL     OW30358   0.323   4.123   0.654  0.2776  0.2633  0.3551
 9820SOL    HW130359   0.281   4.212   0.668  0.1316  0.0246  1.5842
 9820SOL    HW230360   0.408   4.133   0.603 -0.1766  0.9908 -0.2781
 9821SOL     OW30361   4.725   6.496   1.642  0.1762  0.2173  0.1580
 9821SOL    HW130362   4.754   6.468   1.734 -0.3010  0.8503  0.5051
 9821SOL    HW230363   4.733   6.595   1.634 -3.8871  0.7860  1.0355
 9822SOL     OW30364   4.540   5.069   4.563  0.3365  0.1691  0.1911
 9822SOL    HW130365   4.497   4.980   4.579 -0.3400  0.5036  0.2684
 9822SOL    HW230366   4.495   5.114   4.486 -1.6742  1.9069  2.2329
 9823SOL     OW30367   2.120   1.795   0.566 -0.1385 -0.5319  0.1438
 9823SOL    HW130368   2.079   1.871   0.617  1.7113  0.3914  0.3420
 9823SOL    HW230369   2.105   1.809   0.468  2.3214  1.5556 -0.0544
 9824SOL     OW30370   0.722   4.192   5.459  0.3597  0.2922  0.5836
 9824SOL    HW130371   0.703   4.105   5.504  1.3003 -0.0416  0.3723
 9824SOL    HW230372   0.678   4.193   5.369  1.5989 -0.6371 -0.0774
 9825SOL     OW30373   0.135   1.932   4.236  0.4243  0.3173 -0.5819
 9825SOL    HW130374   0.123   2.031   4.230  0.1716  0.2812 -0.6940
 9825SOL    HW230375   0.096   1.899   4.322  1.2643  0.4247 -0.1530
 9826SOL     OW30376   0.966   0.664   3.922  0.3181 -0.0234  0.6748
 9826SOL    HW130377   0.912   0.673   4.006  0.8413  0.7197  0.9375
 9826SOL    HW230378   1.027   0.586   3.931 -0.0076 -0.2723  0.7692
 9827SOL     OW30379   4.705   1.309   0.604  0.7164 -0.0444 -0.4783
 9827SOL    HW130380   4.698   1.279   0.699  0.8145  0.3725 -0.3380
 9827SOL    HW230381   4.621   1.357   0.578  1.5441  1.8100  0.0974
 9828SOL     OW30382   1.921   0.702   2.428 -0.2730  0.1144  0.2649
 9828SOL    HW130383   1.979   0.755   2.491 -0.3359 -0.9767  1.2756
 9828SOL    HW230384   1.903   0.756   2.346  2.1279  0.5325 -0.0631
 9829SOL     OW30385   2.369   0.465   5.514 -0.1201  1.2427  0.3526
 9829SOL    HW130386   2.332   0.558   5.517 -1.4020  0.8406 -1.4159
 9829SOL    HW230387   2.304   0.402   5.557 -0.0425  0.9476  0.0407
 9830SOL     OW30388   5.909   0.902   6.560  0.3352  0.0304  0.0541
 9830SOL    HW130389   5.903   0.986   6.615  0.1475  1.0515 -1.4657
 9830SOL    HW230390   6.004   0.873   6.555  0.3803  0.0322  0.7424
 9831SOL     OW30391   6.700   1.778   6.352  0.1973  0.3744  0.6663
 9831SOL    HW130392   6.658   1.842   6.417 -0.0763 -1.6114  2.5722
 9831SOL    HW230393   6.798   1.772   6.370  0.5274  1.4621 -0.6320
 9832SOL     OW30394   3.076   6.609   5.803  1.0101 -0.1773  0.2551
 9832SOL    HW130395   3.138   6.659   5.743  0.7061 -0.3879 -0.2379
 9832SOL    HW230396   3.062   6.517   5.767 -0.6355  0.2956 -0.3729
 9833SOL     OW30397   1.400   4.626   0.677 -0.6386  0.1364 -0.0232
 9833SOL    HW130398   1.381   4.676   0.762  1.2304 -0.7778  0.9973
 9833SOL    HW230399   1.429   4.533   0.699 -2.4651 -0.9425 -1.8239
 9834SOL     OW30400   6.565   3.133   5.714  0.2319  0.7321  0.6443
 9834SOL    HW130401   6.592   3.045   5.752  0.7919  0.5210 -0.2084
 9834SOL    HW230402   6.646   3.192   5.706 -0.2232  1.5469  1.7350
 9835SOL     OW30403   3.501   2.172   1.241  0.0744 -0.3536 -0.0041
 9835SOL    HW130404   3.489   2.272   1.246 -2.2814 -0.5952  0.6487
 9835SOL    HW230405   3.503   2.134   1.333  1.5584 -0.8770 -0.2409
 9836SOL     OW30406   5.968   2.345   2.544 -0.0423  0.1717 -0.4550
 9836SOL    HW130407   5.917   2.288   2.479 -0.5727 -0.9127  0.8634
 9836SOL    HW230408   5.903   2.400   2.597  0.3515  0.6284 -0.4401
 9837SOL     OW30409   1.053   3.547   0.356  0.8204 -0.3218 -0.5520
 9837SOL    HW130410   1.008   3.481   0.296 -0.7701 -1.0878  1.3551
 9837SOL    HW230411   0.986   3.585   0.420  2.5993 -0.3966  1.4707
 9838SOL     OW30412   6.958   0.465   0.233 -0.1581 -0.0790 -0.3490
 9838SOL    HW130413   7.035   0.404   0.216  0.0704  0.1162 -0.0211
 9838SOL    HW230414   6.910   0.435   0.315 -0.5575 -0.3232 -0.6690
 9839SOL     OW30415   7.000   2.164   0.637  0.6363 -0.0897  0.0044
 9839SOL    HW130416   7.087   2.203   0.668  1.3200  0.8391 -2.8551
 9839SOL    HW230417   7.017   2.088   0.575 -0.5835  0.3032 -0.8456
 9840SOL     OW30418   3.801   3.324   1.290 -0.5702  0.2432  0.0474
 9840SOL    HW130419   3.705   3.340   1.316 -0.1996  0.9197  1.0885
 9840SOL    HW230420   3.830   3.393   1.225 -1.3037 -1.0487 -1.7257
 9841SOL     OW30421   1.364   5.211   0.350  0.1817  0.5007  0.0880
 9841SOL    HW130422   1.434   5.242   0.413  0.4419  1.3781 -0.6073
 9841SOL    HW230423   1.401   5.139   0.291  0.7758  1.4991 -0.8015
 9842SOL     OW30424   4.187   2.434   5.426  0.4661  0.5316  0.4684
 9842SOL    HW130425   4.127   2.354   5.431 -1.1038  1.5745 -0.7373
 9842SOL    HW230426   4.170   2.483   5.341  3.3438  0.6833 -0.1274
 9843SOL     OW30427   4.833   5.160   2.045 -0.2788  0.3082 -0.1057
 9843SOL    HW130428   4.895   5.210   2.107 -1.3376  2.3567 -0.6130
 9843SOL    HW230429   4.842   5.197   1.953  0.0205 -1.5532 -0.8517
 9844SOL     OW30430   3.482   0.151   2.084 -0.2273 -0.6047  0.0196
 9844SOL    HW130431   3.511   0.245   2.102  1.0575 -0.5941 -1.8247
 9844SOL    HW230432   3.401   0.130   2.138 -1.1691  1.9128 -0.2924
 9845SOL     OW30433   6.093   3.566   0.521  0.0127 -0.6986  0.5982
 9845SOL    HW130434   6.057   3.659   0.513  0.4780 -0.3195  2.4700
 9845SOL    HW230435   6.181   3.560   0.473 -0.4372 -0.4385 -0.2840
 9846SOL     OW30436   5.424   1.044   0.489  0.2274 -0.0263  0.1908
 9846SOL    HW130437   5.511   1.092   0.477  0.0785  0.1612 -0.1444
 9846SOL    HW230438   5.362   1.069   0.415 -0.5382  0.7883  1.0933
 9847SOL     OW30439   5.861   6.401   1.069  0.0401  0.1279 -0.1867
 9847SOL    HW130440   5.879   6.476   1.005  0.0231 -0.2901 -0.6956
 9847SOL    HW230441   5.830   6.437   1.156 -0.5644  0.6920 -0.6269
 9848SOL     OW30442   0.773   3.336   5.562 -0.5507 -0.1578 -0.3942
 9848SOL    HW130443   0.697   3.376   5.613 -1.1211 -2.8808  1.0565
 9848SOL    HW230444   0.853   3.330   5.622 -0.5122 -1.2385 -0.5443
 9849SOL     OW30445   0.768   4.658   4.414  0.2605 -0.3071 -0.3560
 9849SOL    HW130446   0.686   4.703   4.450 -0.5389 -2.3062  0.5144
 9849SOL    HW230447   0.846   4.719   4.421 -1.0976  1.6242 -1.0881
 9850SOL     OW30448   4.236   5.102   5.058  0.1866  0.1331 -0.4838
 9850SOL    HW130449   4.223   5.142   5.149  2.5184 -1.0715  0.4632
 9850SOL    HW230450   4.152   5.112   5.005 -1.4036  0.4927  1.9408
 9851SOL     OW30451   2.398   4.251   3.659  0.0678 -0.0869  0.0945
 9851SOL    HW130452   2.353   4.234   3.747 -0.7013 -1.4711 -0.5253
 9851SOL    HW230453   2.393   4.349   3.637 -2.0574 -0.0777  0.3953
 9852SOL     OW30454   4.651   5.479   6.995  0.1057  0.0681  0.1372
 9852SOL    HW130455   4.568   5.465   6.940  0.1904 -0.9065  0.2476
 9852SOL    HW230456   4.626   5.525   7.081 -0.4009 -0.6390  0.3772
 9853SOL     OW30457   2.070   4.513   0.068 -0.4431 -0.1903  0.3789
 9853SOL    HW130458   2.027   4.572   0.136  2.1689 -0.1279  2.1165
 9853SOL    HW230459   2.145   4.462   0.111  2.0983  0.6970 -2.6564
 9854SOL     OW30460   5.419   0.899   2.234 -0.7495  0.6707 -0.6371
 9854SOL    HW130461   5.439   0.846   2.151 -1.8266 -0.5338 -0.1585
 9854SOL    HW230462   5.377   0.986   2.209  1.7892  1.7560 -1.4823
 9855SOL     OW30463   3.050   0.833   2.504 -0.3267  0.3312  0.1721
 9855SOL    HW130464   3.062   0.928   2.473 -3.1217  0.4131 -0.9332
 9855SOL    HW230465   3.041   0.832   2.604  0.1802  1.1547  0.2409
 9856SOL     OW30466   6.096   5.935   6.240  0.0210 -0.0634 -0.2974
 9856SOL    HW130467   6.170   5.965   6.299 -0.1380 -0.7092  0.2410
 9856SOL    HW230468   6.128   5.860   6.182 -0.1840 -0.2891 -0.1218
 9857SOL     OW30469   2.651   2.574   5.242  0.2755  0.5191  0.5666
 9857SOL    HW130470   2.688   2.645   5.302 -0.8215  0.5543  1.2182
 9857SOL    HW230471   2.557   2.598   5.216  0.2520 -0.1938 -0.0423
 9858SOL     OW30472   3.181   1.976   4.368 -0.4790  0.5990  0.2368
 9858SOL    HW130473   3.215   2.040   4.299 -1.8568  0.8452 -0.2502
 9858SOL    HW230474   3.218   2.001   4.457  1.0975  0.4527 -0.3443
 9859SOL     OW30475   6.294   5.121   0.263  0.0110 -0.1873  0.2571
 9859SOL    HW130476   6.318   5.075   0.178  0.7732  1.7837 -0.6453
 9859SOL    HW230477   6.334   5.071   0.340  0.8152 -1.0182 -0.6788
 9860SOL     OW30478   4.742   5.630   4.047  0.3044 -0.5049  0.2634
 9860SOL    HW130479   4.710   5.618   4.141 -0.9894  0.3445 -0.0480
 9860SOL    HW230480   4.802   5.710   4.042 -0.6377  0.1968  0.1367
 9861SOL     OW30481   0.298   5.413   4.856 -0.0560 -0.4047  0.1699
 9861SOL    HW130482   0.315   5.426   4.758  1.7626 -1.1646  0.3561
 9861SOL    HW230483   0.200   5.426   4.874 -0.0719  2.2279 -1.3175
 9862SOL     OW30484   5.593   5.146   0.304 -0.0508 -0.1757  0.3525
 9862SOL    HW130485   5.546   5.138   0.392  1.1032  0.0543  0.9998
 9862SOL    HW230486   5.691   5.132   0.316  0.4004  1.8060 -0.5445
 9863SOL     OW30487   3.695   4.588   6.915  0.2153  0.8027  0.1269
 9863SOL    HW130488   3.644   4.571   6.831  1.5594  0.6666 -0.6794
 9863SOL    HW230489   3.757   4.512   6.932 -0.2795  0.6670  1.4450
 9864SOL     OW30490   5.535   5.679   4.596  0.2230  0.3166 -0.0698
 9864SOL    HW130491   5.583   5.718   4.674 -0.0869  1.0408 -0.2406
 9864SOL    HW230492   5.482   5.599   4.627 -2.3673  2.3511  1.1373
 9865SOL     OW30493   5.226   5.953   6.432 -0.0414 -0.0337  0.1528
 9865SOL    HW130494   5.233   6.023   6.361 -1.9412 -0.1214 -0.1574
 9865SOL    HW230495   5.179   5.991   6.512  1.7633 -0.0359  1.2899
 9866SOL     OW30496   4.986   4.254   2.956 -0.3354 -0.3407  0.3929
 9866SOL    HW130497   5.051   4.246   3.032 -1.2067  0.8620  1.3074
 9866SOL    HW230498   5.033   4.293   2.876  0.5856 -1.6089  0.2897
 9867SOL     OW30499   4.746   6.469   6.116 -0.0977 -0.0734 -0.1702
 9867SOL    HW130500   4.843   6.457   6.096 -0.3788 -0.7784 -1.1937
 9867SOL    HW230501   4.722   6.566   6.112  0.2212 -0.0399 -1.6458
 9868SOL     OW30502   5.335   3.654   5.727  0.2067  0.1404 -0.0760
 9868SOL    HW130503   5.412   3.709   5.756  0.5182  0.8383 -2.0728
 9868SOL    HW230504   5.250   3.695   5.760  0.6148 -0.0701  1.2728
 9869SOL     OW30505   0.015   0.839   3.760  0.0750 -0.0641 -0.0715
 9869SOL    HW130506   0.048   0.752   3.723  1.2068  0.0582  0.5817
 9869SOL    HW230507  -0.028   0.823   3.849 -1.6744 -0.2186 -0.9132
 9870SOL     OW30508   3.997   3.336   1.476 -0.1890  0.3414 -0.1589
 9870SOL    HW130509   3.932   3.322   1.401 -0.2048  2.2126 -0.5461
 9870SOL    HW230510   3.970   3.416   1.529 -0.0967 -0.8701  1.8106
 9871SOL     OW30511   1.126   2.804   2.068  0.7544 -0.1444  0.1011
 9871SOL    HW130512   1.102   2.901   2.068  0.4466 -0.1685  2.2985
 9871SOL    HW230513   1.217   2.793   2.108 -0.0558 -0.8659  1.8685
 9872SOL     OW30514   0.935   4.560   2.510 -0.5206  0.4431 -0.2102
 9872SOL    HW130515   0.851   4.581   2.561  0.0417  1.5297  0.3202
 9872SOL    HW230516   1.009   4.542   2.575 -0.4433 -1.0269 -0.6748
 9873SOL     OW30517   4.798   6.778   0.935  0.3503 -0.2639 -0.7155
 9873SOL    HW130518   4.789   6.876   0.918  0.4868 -0.3372 -1.2189
 9873SOL    HW230519   4.723   6.748   0.994  0.9458  0.3556  0.4028
 9874SOL     OW30520   0.452   5.272   3.715  0.2306 -0.3572 -0.1222
 9874SOL    HW130521   0.445   5.330   3.796  2.1516 -0.1686 -0.0620
 9874SOL    HW230522   0.547   5.267   3.684 -0.2636 -1.4540 -1.6252
 9875SOL     OW30523   2.343   1.742   0.796 -0.2655 -0.5855 -0.5061
 9875SOL    HW130524   2.293   1.814   0.842  0.8733 -0.2968  0.3273
 9875SOL    HW230525   2.309   1.653   0.826  1.2408 -0.4363  1.9163
 9876SOL     OW30526   2.786   2.774   5.394  0.3691  0.2648  0.1183
 9876SOL    HW130527   2.714   2.842   5.409  1.1101  1.3448 -1.0569
 9876SOL    HW230528   2.866   2.818   5.353 -0.2020 -1.7498 -3.5199
 9877SOL     OW30529   5.126   2.401   6.286  0.5866  0.5538 -0.3735
 9877SOL    HW130530   5.143   2.475   6.221 -1.5010  0.4783 -1.0597
 9877SOL    HW230531   5.044   2.422   6.340 -1.4423 -2.1908 -2.1453
 9878SOL     OW30532   1.603   5.642   1.864  0.7204 -0.8510  0.0754
 9878SOL    HW130533   1.687   5.644   1.918  1.6657 -0.3295 -1.3752
 9878SOL    HW230534   1.531   5.597   1.917  1.1676  0.9380  2.3735
 9879SOL     OW30535   6.376   4.430   1.436  0.1994 -0.3276 -0.1126
 9879SOL    HW130536   6.299   4.494   1.435  1.4386  1.2460  0.6226
 9879SOL    HW230537   6.367   4.368   1.514  0.5223  0.9530  0.9619
 9880SOL     OW30538   3.373   6.990   6.320  0.0418  0.0459 -0.0374
 9880SOL    HW130539   3.443   6.978   6.391 -0.1802 -1.5655 -0.0370
 9880SOL    HW230540   3.379   7.082   6.282  3.3061 -0.5382 -1.2493
 9881SOL     OW30541   4.929   6.495   1.091  0.4067  1.2853 -0.6408
 9881SOL    HW130542   4.997   6.439   1.043 -3.1761 -2.5077 -1.9637
 9881SOL    HW230543   4.920   6.464   1.185  0.9842  2.2734 -0.2535
 9882SOL     OW30544   3.426   5.327   2.342 -0.5334  0.0977  0.3810
 9882SOL    HW130545   3.517   5.336   2.301 -0.7591  2.5428  0.2514
 9882SOL    HW230546   3.429   5.259   2.415  1.1409 -0.5652 -0.2453
 9883SOL     OW30547   5.629   6.084   1.755  0.2188  0.1177 -0.2744
 9883SOL    HW130548   5.622   6.024   1.676 -1.3764  0.6184 -0.5625
 9883SOL    HW230549   5.636   6.029   1.839 -0.1952 -0.4537 -0.6108
 9884SOL     OW30550   4.778   5.254   1.335  0.6999  0.4152 -0.0371
 9884SOL    HW130551   4.774   5.315   1.414 -0.7620 -0.2172  0.4192
 9884SOL    HW230552   4.783   5.159   1.367 -1.7011  0.0201 -0.5872
 9885SOL     OW30553   4.198   2.156   2.901 -0.3143  0.4520  0.0752
 9885SOL    HW130554   4.148   2.184   2.819  0.5383  0.3806 -0.4786
 9885SOL    HW230555   4.244   2.069   2.884 -0.4669  0.2280  0.7740
 9886SOL     OW30556   0.844   4.396   5.155  0.3414 -0.1340 -0.5258
 9886SOL    HW130557   0.772   4.333   5.183  2.0789 -2.2985 -0.6224
 9886SOL    HW230558   0.803   4.479   5.118 -2.0477 -0.2257  1.6287
 9887SOL     OW30559   4.604   1.060   3.947  0.0290  0.5964 -0.3283
 9887SOL    HW130560   4.584   0.983   3.887 -2.1680  1.4991 -0.8610
 9887SOL    HW230561   4.581   1.145   3.900  1.6544  1.5648  0.5307
 9888SOL     OW30562   3.455   1.217   0.920  0.3786 -0.3617  0.7691
 9888SOL    HW130563   3.407   1.169   0.846 -2.3811 -0.7339  2.6518
 9888SOL    HW230564   3.469   1.312   0.894 -1.2402 -0.2825  0.0454
 9889SOL     OW30565   6.547   6.784   1.538 -0.1319 -0.7892 -0.2483
 9889SOL    HW130566   6.573   6.710   1.600  1.4066  0.4227  0.6303
 9889SOL    HW230567   6.622   6.850   1.531 -0.8700 -0.0851 -2.2188
 9890SOL     OW30568   0.833   6.889   0.045  0.1160 -0.0482  0.0513
 9890SOL    HW130569   0.733   6.886   0.044  0.1283 -0.5314 -0.4169
 9890SOL    HW230570   0.867   6.827   0.116  0.0906 -0.2822 -0.1393
 9891SOL     OW30571   2.527   4.277   6.518 -0.6754 -0.1373 -0.0887
 9891SOL    HW130572   2.530   4.367   6.473 -1.6843 -0.2656 -0.4283
 9891SOL    HW230573   2.434   4.258   6.549 -0.2802 -0.6655  0.8284
 9892SOL     OW30574   6.456   3.010   2.955  0.3490  0.1578  0.2527
 9892SOL    HW130575   6.551   3.031   2.977  0.4641  0.0381 -0.1202
 9892SOL    HW230576   6.427   2.929   3.007  1.4541 -1.7708 -1.9408
 9893SOL     OW30577   7.008   2.690   1.246 -0.2533 -0.3062  0.1782
 9893SOL    HW130578   6.923   2.691   1.299  0.0945  3.4127  0.8732
 9893SOL    HW230579   6.988   2.708   1.150 -0.2585  2.2749  0.5889
 9894SOL     OW30580   0.477   1.162   0.752 -0.5684 -0.6175 -0.4421
 9894SOL    HW130581   0.536   1.161   0.670 -0.3213 -2.2200 -0.2806
 9894SOL    HW230582   0.532   1.137   0.832 -1.1918 -0.8412 -0.0821
 9895SOL     OW30583   5.602   4.030   5.364  0.1861  0.3960  0.6951
 9895SOL    HW130584   5.660   3.949   5.360  0.1859  0.4116  0.4007
 9895SOL    HW230585   5.638   4.100   5.303  0.9406  1.1097  1.9155
 9896SOL     OW30586   6.076   1.677   1.250 -0.2446  0.0860  0.3030
 9896SOL    HW130587   6.012   1.677   1.327 -0.9949  0.1635 -0.3062
 9896SOL    HW230588   6.161   1.632   1.277 -0.7526 -0.5025  0.9620
 9897SOL     OW30589   5.212   5.434   6.476  0.4476 -0.1930 -0.1391
 9897SOL    HW130590   5.252   5.519   6.509  0.3738  0.0734 -0.7294
 9897SOL    HW230591   5.272   5.394   6.406  0.6539 -0.8044  0.3713
 9898SOL     OW30592   1.832   6.040   3.170  0.6666 -0.2139  0.0723
 9898SOL    HW130593   1.755   6.064   3.110  0.4799 -0.9530  0.0012
 9898SOL    HW230594   1.867   5.950   3.144  1.6580  0.1701  0.0094
 9899SOL     OW30595   2.392   3.866   1.379 -0.3074  0.2247 -0.9894
 9899SOL    HW130596   2.446   3.888   1.460  0.0942 -0.9343 -0.9236
 9899SOL    HW230597   2.296   3.892   1.394  0.0164  1.2896 -0.6913
 9900SOL     OW30598   1.608   3.123   5.743 -0.0508 -0.0290  0.2940
 9900SOL    HW130599   1.551   3.044   5.720 -2.4106  1.0456  2.0169
 9900SOL    HW230600   1.705   3.096   5.742 -0.4923 -1.9378 -2.7193
 9901SOL     OW30601   2.561   3.155   1.298 -0.6203  0.2805 -0.4829
 9901SOL    HW130602   2.562   3.056   1.312  4.2017  0.1468 -0.0083
 9901SOL    HW230603   2.562   3.175   1.200 -0.5242 -0.1869 -0.5783
 9902SOL     OW30604   2.652   5.906   1.592 -0.1792 -0.0155 -0.0154
 9902SOL    HW130605   2.665   5.815   1.553 -1.9436 -0.3013 -0.0309
 9902SOL    HW230606   2.679   5.976   1.526 -2.4512 -0.4977 -1.5329
 9903SOL     OW30607   3.154   4.577   0.598 -0.5993  0.4185  0.0450
 9903SOL    HW130608   3.084   4.570   0.527 -0.2925  1.3876 -0.3762
 9903SOL    HW230609   3.244   4.571   0.557 -0.3822  2.3531  0.1183
 9904SOL     OW30610   3.924   1.205   3.445 -0.0087  0.2549 -0.6503
 9904SOL    HW130611   3.871   1.201   3.529  1.1937 -0.8445  0.0907
 9904SOL    HW230612   3.862   1.193   3.366 -1.0729  0.8295  0.0704
 9905SOL     OW30613   3.505   1.265   5.755 -0.1772  0.0628  0.3395
 9905SOL    HW130614   3.411   1.240   5.733  0.4734 -1.2275 -1.2511
 9905SOL    HW230615   3.563   1.246   5.675  1.3080  1.5444  1.0192
 9906SOL     OW30616   3.766   0.712   0.818 -0.0579 -0.6164 -0.6535
 9906SOL    HW130617   3.672   0.746   0.814 -0.4041 -1.2431  1.1507
 9906SOL    HW230618   3.822   0.761   0.751 -1.6856 -0.3541 -1.8855
 9907SOL     OW30619   6.904   0.752   4.042  0.6125 -0.3623 -0.3901
 9907SOL    HW130620   6.892   0.733   4.140  2.2099  0.3726 -0.0136
 9907SOL    HW230621   6.848   0.832   4.017  0.2948 -0.4749 -0.0463
 9908SOL     OW30622   6.073   4.619   1.016 -0.6075  0.3994 -0.0265
 9908SOL    HW130623   6.028   4.601   1.103 -0.0571 -2.3021 -0.2267
 9908SOL    HW230624   6.166   4.651   1.032 -1.4494  2.8819  0.3392
 9909SOL     OW30625   1.022   1.467   0.986 -0.3216 -0.2173  0.1820
 9909SOL    HW130626   0.927   1.480   1.013 -1.1458 -1.5448 -1.8454
 9909SOL    HW230627   1.028   1.391   0.921  1.9422  0.7452 -0.8263
 9910SOL     OW30628   5.290   2.699   4.954 -0.2543 -0.3212 -0.0251
 9910SOL    HW130629   5.235   2.622   4.921 -0.9419  0.7024 -1.3430
 9910SOL    HW230630   5.385   2.670   4.966  0.0652 -0.8020 -2.9587
 9911SOL     OW30631   5.333   0.034   4.116  0.7301 -0.0751 -0.3122
 9911SOL    HW130632   5.373  -0.035   4.177 -0.1497  0.1624  0.5433
 9911SOL    HW230633   5.265   0.088   4.165 -0.8714 -0.6424 -1.7926
 9912SOL     OW30634   4.760   3.106   6.993 -1.0675  0.5695 -0.3507
 9912SOL    HW130635   4.767   3.036   6.921  2.1462  1.0839 -0.6683
 9912SOL    HW230636   4.694   3.075   7.062  0.6633 -3.1521 -0.1015
 9913SOL     OW30637   4.826   6.320   1.857  0.1908 -0.2968  0.0622
 9913SOL    HW130638   4.882   6.252   1.904 -0.5495  0.0465  1.5212
 9913SOL    HW230639   4.795   6.388   1.924 -0.3788  0.5841 -1.0724
 9914SOL     OW30640   4.195   1.808   6.525  0.0825 -0.4944 -0.5175
 9914SOL    HW130641   4.133   1.740   6.486  1.7141 -3.0788  1.0585
 9914SOL    HW230642   4.255   1.843   6.454  0.9137 -2.7183 -0.9774
 9915SOL     OW30643   4.751   3.570   5.463  0.0020 -0.1765  0.1835
 9915SOL    HW130644   4.735   3.592   5.367  0.3058  2.6985  0.7183
 9915SOL    HW230645   4.850   3.565   5.480 -0.0448 -0.0443  0.4892
 9916SOL     OW30646   2.502   4.982   3.869 -0.6747 -0.0200 -1.1532
 9916SOL    HW130647   2.525   4.947   3.779  1.4896  0.9743 -1.0637
 9916SOL    HW230648   2.557   4.935   3.938 -2.0437 -0.5200 -0.3727
 9917SOL     OW30649   5.673   3.278   2.690  0.0751  0.7082 -0.3936
 9917SOL    HW130650   5.745   3.277   2.759  2.3255 -0.5172 -2.5674
 9917SOL    HW230651   5.584   3.263   2.733  1.2266  1.1252  2.2895
 9918SOL     OW30652   0.555   5.911   3.156  0.2135  0.1086 -0.3445
 9918SOL    HW130653   0.495   5.979   3.114  0.8749  0.3263 -0.9466
 9918SOL    HW230654   0.619   5.956   3.218  0.7543  0.0636 -0.8597
 9919SOL     OW30655   4.926   5.571   4.966  0.5363  0.1698  0.6229
 9919SOL    HW130656   4.910   5.489   4.912  0.2922 -0.3829  1.5176
 9919SOL    HW230657   4.999   5.624   4.924  0.6451 -0.4583 -0.0077
 9920SOL     OW30658   5.931   6.349   2.582 -0.3174  0.4130 -0.1389
 9920SOL    HW130659   5.832   6.339   2.571 -0.5321  1.3824  0.7510
 9920SOL    HW230660   5.978   6.301   2.508 -1.4025 -1.6661  0.4417
 9921SOL     OW30661   6.154   1.888   3.763 -0.5442 -0.1777  0.5738
 9921SOL    HW130662   6.233   1.830   3.744  1.2614  1.9313  1.1808
 9921SOL    HW230663   6.118   1.867   3.854 -1.5042 -1.9547 -0.1626
 9922SOL     OW30664   6.968   2.238   0.035 -0.0560 -0.1942  0.1806
 9922SOL    HW130665   6.897   2.248   0.105  1.2135 -0.0892  1.4920
 9922SOL    HW230666   7.009   2.148   0.042 -0.7882 -0.6824 -1.3245
 9923SOL     OW30667   1.359   4.990   0.659 -0.9950  0.4248 -0.0928
 9923SOL    HW130668   1.363   4.915   0.726 -0.0547 -2.1393 -2.8242
 9923SOL    HW230669   1.288   4.970   0.591  0.7491  0.8328 -2.1279
 9924SOL     OW30670   0.093   5.355   1.369  0.0166  0.2393  0.3378
 9924SOL    HW130671   0.021   5.347   1.300  1.1948  0.9134 -1.0239
 9924SOL    HW230672   0.160   5.282   1.356  1.0235  1.2285 -0.2175
 9925SOL     OW30673   3.870   3.823   0.220  0.5691  0.4050  0.3538
 9925SOL    HW130674   3.952   3.879   0.205  0.4120  0.4110 -0.4935
 9925SOL    HW230675   3.825   3.806   0.133  0.2223 -0.4510  0.6932
 9926SOL     OW30676   0.560   5.646   2.111 -0.3765 -0.1277 -0.0049
 9926SOL    HW130677   0.653   5.662   2.146 -0.2803  0.7399 -0.6285
 9926SOL    HW230678   0.564   5.582   2.034 -0.1714  0.5724 -0.5944
 9927SOL     OW30679   5.702   0.607   2.046 -0.1095  0.1458 -0.5362
 9927SOL    HW130680   5.708   0.698   2.004 -0.0383 -0.4027 -1.7628
 9927SOL    HW230681   5.672   0.541   1.978 -1.6504 -0.5108  0.7202
 9928SOL     OW30682   4.165   4.764   4.284  0.7076 -0.1275  0.2379
 9928SOL    HW130683   4.154   4.804   4.375  0.0278 -0.1718  0.1827
 9928SOL    HW230684   4.250   4.712   4.281  1.4739  1.0640  0.3973
 9929SOL     OW30685   1.803   2.802   6.671  0.7027 -0.2215 -0.6843
 9929SOL    HW130686   1.780   2.851   6.587 -1.7642 -2.3526 -1.3674
 9929SOL    HW230687   1.902   2.805   6.685  0.9303  2.4015 -2.2064
 9930SOL     OW30688   2.764   3.323   6.354  0.1906 -0.0189 -0.3777
 9930SOL    HW130689   2.781   3.264   6.275 -0.9077 -0.5418 -0.2488
 9930SOL    HW230690   2.819   3.291   6.431  1.0651  0.3288 -0.8404
 9931SOL     OW30691   2.297   6.594   2.145  0.4409 -0.3297  0.0189
 9931SOL    HW130692   2.337   6.669   2.091  0.3609 -0.5339 -0.3306
 9931SOL    HW230693   2.197   6.597   2.137  0.3262  0.5819  1.4280
 9932SOL     OW30694   5.139   4.496   6.823 -0.4309 -0.3853  0.7372
 9932SOL    HW130695   5.138   4.476   6.921 -1.5202 -0.9338  0.6242
 9932SOL    HW230696   5.067   4.445   6.778 -0.4889  0.5222 -0.2337
 9933SOL     OW30697   2.773   6.676   3.219 -0.5263  0.1469  0.1297
 9933SOL    HW130698   2.814   6.599   3.268  1.9051  0.8748 -0.6037
 9933SOL    HW230699   2.674   6.678   3.236 -0.3972 -2.0663  1.5562
 9934SOL     OW30700   4.604   5.123   3.729  0.2668  0.6700 -0.0637
 9934SOL    HW130701   4.701   5.113   3.706  0.4936  2.2296  0.0909
 9934SOL    HW230702   4.564   5.033   3.746  0.5544 -0.4938 -4.3811
 9935SOL     OW30703   5.722   0.939   4.749  0.0081 -0.1290  0.3296
 9935SOL    HW130704   5.693   0.843   4.752  1.4590 -0.5769  1.0546
 9935SOL    HW230705   5.736   0.972   4.842  0.8001  0.3761  0.0340
 9936SOL     OW30706   2.181   1.107   4.855 -0.0787  0.4705  0.4030
 9936SOL    HW130707   2.161   1.067   4.944 -0.5183 -0.1045  0.0590
 9936SOL    HW230708   2.279   1.119   4.844 -0.0363  0.6741  1.0158
 9937SOL     OW30709   1.150   3.479   4.301  1.2386  0.3066  0.2568
 9937SOL    HW130710   1.181   3.388   4.273 -0.3334 -0.2434  0.1761
 9937SOL    HW230711   1.202   3.509   4.381  0.2704 -1.7094  1.7419
 9938SOL     OW30712   6.988   0.846   2.215 -0.1655 -0.2059 -0.0067
 9938SOL    HW130713   7.045   0.890   2.284  0.5398  0.4488 -0.9945
 9938SOL    HW230714   6.988   0.747   2.231 -0.9064  0.0170  1.5794
 9939SOL     OW30715   2.015   6.112   6.941  0.4641 -0.2689 -0.9645
 9939SOL    HW130716   2.090   6.066   6.894  0.8075 -1.8902  1.0145
 9939SOL    HW230717   2.045   6.140   7.032 -0.7617  0.9070 -0.8910
 9940SOL     OW30718   1.814   3.784   3.447 -0.5292 -0.2856  0.0358
 9940SOL    HW130719   1.759   3.738   3.516 -0.6295 -0.9410 -0.4676
 9940SOL    HW230720   1.893   3.727   3.424 -0.9736 -0.4987 -1.0263
 9941SOL     OW30721   3.483   3.754   1.567 -0.3987 -0.0594  0.2336
 9941SOL    HW130722   3.421   3.712   1.633  0.2903  1.0358  1.6441
 9941SOL    HW230723   3.567   3.700   1.561 -0.7321 -0.5247 -0.2553
 9942SOL     OW30724   4.105   1.001   0.553 -0.1273 -0.1783  0.4475
 9942SOL    HW130725   4.086   1.074   0.619 -0.0021  0.4360 -0.1818
 9942SOL    HW230726   4.182   0.946   0.585 -2.3825 -2.2730  2.6917
 9943SOL     OW30727   0.436   0.719   5.788 -0.2265 -0.0687  0.2699
 9943SOL    HW130728   0.429   0.757   5.880  0.7544  1.0830 -0.0961
 9943SOL    HW230729   0.457   0.621   5.793  2.5304  0.4808  1.3409
 9944SOL     OW30730   3.103   2.766   6.545 -0.1238 -0.1134  0.2343
 9944SOL    HW130731   3.177   2.774   6.479 -0.2501  0.4897  0.1601
 9944SOL    HW230732   3.058   2.856   6.557 -2.5236 -0.9430 -1.6477
 9945SOL     OW30733   4.594   0.797   0.935  0.0743  0.6601  0.2473
 9945SOL    HW130734   4.602   0.852   1.018 -2.8537 -1.1155  1.8707
 9945SOL    HW230735   4.563   0.855   0.860 -3.3695  1.3436  1.9974
 9946SOL     OW30736   3.276   0.956   6.527  0.0805  0.5252 -0.1417
 9946SOL    HW130737   3.274   1.022   6.602  0.5240  0.7614 -0.3304
 9946SOL    HW230738   3.333   0.992   6.453  1.5654 -0.7045  0.3443
 9947SOL     OW30739   5.179   5.920   0.177 -0.2580  0.2734 -0.2637
 9947SOL    HW130740   5.194   5.926   0.078 -0.3360  0.9525 -0.2377
 9947SOL    HW230741   5.081   5.913   0.196 -0.1938 -0.9145 -0.2749
 9948SOL     OW30742   2.299   6.612   6.158 -0.2292  0.0031 -0.5168
 9948SOL    HW130743   2.363   6.558   6.214 -1.1971  0.4414  1.0937
 9948SOL    HW230744   2.340   6.700   6.137  0.4254 -0.4347 -1.1317
 9949SOL     OW30745   6.865   0.657   5.520  0.2757 -0.2043 -0.1110
 9949SOL    HW130746   6.827   0.679   5.610 -0.2711  1.6122 -0.7280
 9949SOL    HW230747   6.808   0.698   5.449  1.0450 -1.0729 -1.2748
 9950SOL     OW30748   6.529   3.849   0.650  0.2783  0.1442 -0.1010
 9950SOL    HW130749   6.542   3.940   0.610  1.6147 -1.0572 -2.6736
 9950SOL    HW230750   6.616   3.800   0.650 -0.4223 -1.1678  1.1776
 9951SOL     OW30751   2.843   2.536   5.573  0.4280  0.3271 -0.0891
 9951SOL    HW130752   2.875   2.535   5.478  0.6772 -0.5498 -0.0010
 9951SOL    HW230753   2.744   2.519   5.575 -0.1029  2.9422 -0.3544
 9952SOL     OW30754   0.992   3.657   3.302 -0.5005  0.4679 -0.8780
 9952SOL    HW130755   1.019   3.583   3.364  0.1780  0.4768 -1.1538
 9952SOL    HW230756   1.057   3.663   3.227  0.3157  2.3108 -0.0853
 9953SOL     OW30757   6.437   2.819   6.513 -0.6388  0.2432 -0.6088
 9953SOL    HW130758   6.386   2.889   6.462  0.1659 -0.1532 -2.0150
 9953SOL    HW230759   6.528   2.855   6.535 -0.2089 -0.3473 -1.3712
 9954SOL     OW30760   0.849   1.367   0.526  0.1421  0.2868  0.0088
 9954SOL    HW130761   0.858   1.339   0.431 -1.8147  3.2161 -1.1881
 9954SOL    HW230762   0.938   1.363   0.571  0.9367 -2.0732 -1.6119
 9955SOL     OW30763   3.357   1.706   0.717 -0.2369 -0.0550  0.2745
 9955SOL    HW130764   3.348   1.755   0.803  0.5936  1.2734 -0.3619
 9955SOL    HW230765   3.437   1.647   0.720  0.2716  0.6138  0.1422
 9956SOL     OW30766   0.130   4.847   1.087 -0.0773  0.0519 -1.0195
 9956SOL    HW130767   0.079   4.768   1.055 -0.1753 -0.6443  0.7480
 9956SOL    HW230768   0.067   4.922   1.107 -0.0594  0.3246 -1.9397
 9957SOL     OW30769   6.723   5.077   6.078 -0.9179 -0.1467 -0.3274
 9957SOL    HW130770   6.769   5.041   5.997 -2.1971  0.7626 -1.5036
 9957SOL    HW230771   6.635   5.031   6.089 -2.1001  1.7815 -1.2388
 9958SOL     OW30772   1.111   3.005   5.841 -0.1434  0.1060 -0.0011
 9958SOL    HW130773   1.162   3.089   5.863 -1.4345  1.0051 -0.3169
 9958SOL    HW230774   1.013   3.024   5.842 -0.5066 -1.6216  0.7271
 9959SOL     OW30775   3.564   3.931   4.635  0.2016  0.2386 -0.5855
 9959SOL    HW130776   3.585   4.028   4.650 -0.8467  0.3739  0.1610
 9959SOL    HW230777   3.616   3.897   4.557  1.1090  1.2195 -0.4315
 9960SOL     OW30778   1.092   6.621   6.164 -0.3061  0.2702  0.2824
 9960SOL    HW130779   1.105   6.636   6.066 -0.4301  1.6884  0.4533
 9960SOL    HW230780   1.149   6.544   6.194 -0.1957 -0.1193 -0.8741
 9961SOL     OW30781   0.755   3.001   1.534  0.0049 -0.1098 -0.3906
 9961SOL    HW130782   0.794   2.917   1.497 -1.7047 -1.2286  0.1923
 9961SOL    HW230783   0.680   3.032   1.475  0.9212  1.3137 -0.8598
 9962SOL     OW30784   4.596   6.670   3.273  0.3114 -0.2309  0.4488
 9962SOL    HW130785   4.555   6.579   3.279 -2.8892  1.0924  0.9590
 9962SOL    HW230786   4.686   6.669   3.317  0.1443 -2.9827  0.9217
 9963SOL     OW30787   2.704   1.372   4.562 -0.9529  0.0140  0.4580
 9963SOL    HW130788   2.659   1.427   4.632 -1.2563  0.4055 -0.0378
 9963SOL    HW230789   2.792   1.340   4.596  0.9766  3.8112 -0.5018
 9964SOL     OW30790   1.710   5.783   4.372  0.0761 -0.2293 -0.1736
 9964SOL    HW130791   1.805   5.814   4.374  0.1382 -0.3868 -0.5674
 9964SOL    HW230792   1.701   5.706   4.309 -0.3058 -0.2375 -0.1138
 9965SOL     OW30793   6.540   5.678   4.858 -0.4423 -0.0789  0.2131
 9965SOL    HW130794   6.593   5.593   4.860  0.5359  0.4979 -0.3596
 9965SOL    HW230795   6.528   5.707   4.764 -1.6858 -0.1230  0.3477
 9966SOL     OW30796   1.202   3.945   0.812  0.1205 -0.2657 -0.2858
 9966SOL    HW130797   1.185   3.897   0.898  0.4076 -1.0032 -0.6375
 9966SOL    HW230798   1.297   3.930   0.784  0.0247 -0.0399 -0.7375
 9967SOL     OW30799   6.323   5.555   6.931  0.3625 -0.0622  0.3540
 9967SOL    HW130800   6.379   5.485   6.973  0.1326  0.3884  1.4408
 9967SOL    HW230801   6.253   5.586   6.996  0.0316  0.6880 -0.3378
 9968SOL     OW30802   3.065   2.751   6.998  0.2968 -0.5324 -0.1043
 9968SOL    HW130803   3.110   2.693   6.930  0.0138 -1.2797  0.3357
 9968SOL    HW230804   3.104   2.732   7.089  0.0764 -0.1616  0.0697
 9969SOL     OW30805   3.859   0.845   3.731 -0.2282  1.0215  0.0613
 9969SOL    HW130806   3.913   0.805   3.805  1.6751  1.9049 -0.7923
 9969SOL    HW230807   3.915   0.909   3.679 -1.6787  0.8621 -1.8136
 9970SOL     OW30808   0.438   5.475   3.907 -0.0431 -0.0738  0.0455
 9970SOL    HW130809   0.518   5.518   3.947  1.3836 -3.5110  1.2262
 9970SOL    HW230810   0.373   5.452   3.979 -0.7741  0.0770 -0.5496
 9971SOL     OW30811   3.251   2.366   1.566 -0.0087  0.2223 -0.2126
 9971SOL    HW130812   3.192   2.320   1.632 -1.1497  2.1014  0.1518
 9971SOL    HW230813   3.227   2.463   1.562  3.6145  1.3072  0.5876
 9972SOL     OW30814   6.825   1.725   4.495  0.0102  0.1272  0.0294
 9972SOL    HW130815   6.801   1.628   4.494  0.7966 -0.0814  0.4065
 9972SOL    HW230816   6.820   1.761   4.402 -1.4179  0.0280  0.0441
 9973SOL     OW30817   4.494   6.525   2.576  0.4183  0.0556  0.0081
 9973SOL    HW130818   4.410   6.471   2.585  1.0637 -1.0674 -0.4464
 9973SOL    HW230819   4.495   6.597   2.644  0.0601 -1.2398  1.4482
 9974SOL     OW30820   0.965   1.925   0.848 -0.6372 -0.3095  0.4687
 9974SOL    HW130821   0.917   1.842   0.817 -0.1981 -0.4895  0.2558
 9974SOL    HW230822   1.046   1.940   0.791  0.1231 -0.5735  1.4447
 9975SOL     OW30823   5.863   0.259   6.433 -0.0361 -0.1168  0.5302
 9975SOL    HW130824   5.789   0.298   6.379  0.8203 -0.5600 -1.0224
 9975SOL    HW230825   5.854   0.160   6.436 -0.5242 -0.0417  1.9066
 9976SOL     OW30826   4.087   6.504   1.301 -0.0083 -0.1690  0.5716
 9976SOL    HW130827   4.167   6.485   1.244  1.5522  1.7213  1.9838
 9976SOL    HW230828   4.112   6.496   1.398 -2.0068 -1.1354  1.0606
 9977SOL     OW30829   5.221   5.738   0.997 -0.0780  0.3701 -0.0176
 9977SOL    HW130830   5.144   5.800   0.980 -1.0852 -0.8247  0.0560
 9977SOL    HW230831   5.187   5.646   1.012  1.3297 -0.0439  0.8315
 9978SOL     OW30832   1.467   1.567   4.453  0.6472 -0.2847 -0.2866
 9978SOL    HW130833   1.407   1.557   4.374 -0.7515  0.6647  0.6174
 9978SOL    HW230834   1.518   1.482   4.467 -1.2787 -1.5250 -0.4281
 9979SOL     OW30835   3.604   5.030   1.339 -0.7397 -0.4439  0.4763
 9979SOL    HW130836   3.525   5.076   1.298 -0.2345 -0.5042 -0.5728
 9979SOL    HW230837   3.590   4.931   1.335 -1.0235 -0.4396  1.1439
 9980SOL     OW30838   1.064   0.975   1.024 -0.1048 -0.0894  0.2522
 9980SOL    HW130839   1.133   1.031   1.071 -0.3010 -0.2393  0.7265
 9980SOL    HW230840   0.982   1.030   1.008 -0.1499 -0.1233  0.3619
 9981SOL     OW30841   4.092   3.243   4.102 -0.5118  0.2072  0.5681
 9981SOL    HW130842   4.119   3.297   4.022 -1.3563  0.6799  0.5882
 9981SOL    HW230843   4.094   3.300   4.184  1.3506 -0.5327  1.0945
 9982SOL     OW30844   5.603   3.075   0.342  0.5368 -0.0502  0.1424
 9982SOL    HW130845   5.674   3.124   0.392  1.5877 -1.4840  0.1019
 9982SOL    HW230846   5.526   3.057   0.403  0.7171  0.4507  0.5253
 9983SOL     OW30847   4.644   1.622   6.995  0.6963 -0.4845  0.0596
 9983SOL    HW130848   4.639   1.718   6.967  0.0590 -0.7240 -0.6932
 9983SOL    HW230849   4.694   1.569   6.926  2.1414 -0.4958  1.0726
 9984SOL     OW30850   1.080   3.304   0.005 -0.1937  0.0176 -0.5538
 9984SOL    HW130851   1.087   3.363  -0.075  1.9627  0.5114 -0.0750
 9984SOL    HW230852   1.168   3.303   0.053 -0.5908 -2.4674  0.2652
 9985SOL     OW30853   2.831   2.173   1.824 -0.6967 -0.0687  0.1390
 9985SOL    HW130854   2.792   2.126   1.904 -0.9602 -0.1019 -0.0095
 9985SOL    HW230855   2.891   2.246   1.855 -0.2481 -0.5299  0.3755
 9986SOL     OW30856   2.001   1.175   0.666  0.0119  0.3407 -0.5054
 9986SOL    HW130857   1.941   1.255   0.671 -2.3115 -1.3214 -0.0654
 9986SOL    HW230858   1.985   1.127   0.579 -0.5747 -1.0330  0.3247
 9987SOL     OW30859   4.518   6.198   1.375 -0.4327  0.1296  0.2862
 9987SOL    HW130860   4.503   6.285   1.421  0.4581  0.2544  0.3552
 9987SOL    HW230861   4.445   6.182   1.309 -1.5334  0.1166  1.4719
 9988SOL     OW30862   5.383   2.800   6.309 -0.0563  0.3929  0.0119
 9988SOL    HW130863   5.358   2.716   6.358 -0.4342  0.9062  0.7101
 9988SOL    HW230864   5.466   2.839   6.348 -1.2318  1.6757  1.3512
 9989SOL     OW30865   4.992   5.484   0.480  0.0827  0.1493  0.5122
 9989SOL    HW130866   4.953   5.410   0.424  1.1198 -1.1640  1.4379
 9989SOL    HW230867   5.092   5.477   0.479  0.1840  1.3435  0.9128
 9990SOL     OW30868   1.017   0.171   5.980  0.3895  0.2813 -0.7003
 9990SOL    HW130869   0.963   0.175   6.064 -2.1751 -3.3668 -1.9099
 9990SOL    HW230870   0.985   0.242   5.917 -1.2641 -0.1384 -0.3868
 9991SOL     OW30871   0.439   1.184   2.142  0.3104  0.4749  0.4325
 9991SOL    HW130872   0.350   1.148   2.116  1.5043 -2.1901 -0.2617
 9991SOL    HW230873   0.428   1.241   2.224 -1.8615 -0.8759  1.1939
 9992SOL     OW30874   3.553   6.934   0.923  0.0789 -0.8114 -0.5574
 9992SOL    HW130875   3.530   6.853   0.870 -1.4716 -0.1435 -0.9477
 9992SOL    HW230876   3.508   6.931   1.012  0.2620 -0.5133 -0.4502
 9993SOL     OW30877   6.916   2.759   4.313  0.0183 -0.6227 -0.0994
 9993SOL    HW130878   6.844   2.689   4.320  0.5332 -1.0499  1.1190
 9993SOL    HW230879   6.888   2.828   4.245 -0.6552 -1.8055 -1.0808
 9994SOL     OW30880   1.448   5.037   2.984  0.3403 -0.5676  0.0757
 9994SOL    HW130881   1.468   5.117   2.927  0.7930 -0.4140  0.4469
 9994SOL    HW230882   1.349   5.024   2.989  0.2961 -0.9093 -1.1874
 9995SOL     OW30883   0.503   5.537   6.551 -0.0036 -0.0530 -0.0052
 9995SOL    HW130884   0.449   5.566   6.472  1.9308  0.5470 -1.1737
 9995SOL    HW230885   0.447   5.478   6.610 -1.7471  0.1562 -1.3739
 9996SOL     OW30886   0.890   6.925   6.235  0.1608 -0.3794  0.3916
 9996SOL    HW130887   0.983   6.895   6.256  0.4900  0.1234 -0.3157
 9996SOL    HW230888   0.867   6.900   6.141  0.1697  0.9003  0.0291
 9997SOL     OW30889   4.119   6.772   2.095 -0.4488  0.5756 -0.2260
 9997SOL    HW130890   4.059   6.693   2.087  1.4490 -0.8494 -1.4491
 9997SOL    HW230891   4.171   6.783   2.010  0.8048  1.8956  0.6609
 9998SOL     OW30892   4.233   0.240   6.727  0.2385  0.6988  0.4532
 9998SOL    HW130893   4.199   0.249   6.821  2.9388 -1.0194  1.7347
 9998SOL    HW230894   4.180   0.170   6.680  0.3631 -0.1641  1.5411
 9999SOL     OW30895   4.500   6.017   2.755  0.3651  0.1732  0.3235
 9999SOL    HW130896   4.548   6.027   2.842  1.2529 -0.2202 -0.1127
 9999SOL    HW230897   4.489   5.920   2.734  0.1050  0.2675  0.0160
10000SOL     OW30898   3.216   6.737   4.286  0.1610  0.4947 -0.2714
10000SOL    HW130899   3.311   6.759   4.310 -0.7362  2.6291  1.8724
10000SOL    HW230900   3.194   6.778   4.198  0.8339  1.3874 -0.0507
10001SOL     OW30901   6.520   6.127   5.772 -1.1307 -0.0350 -0.4396
10001SOL    HW130902   6.436   6.098   5.818 -0.9340  1.2049  0.7778
10001SOL    HW230903   6.506   6.126   5.673 -2.9028  0.9642 -0.2541
10002SOL     OW30904   6.041   5.703   5.744  0.7941 -0.1993  0.5526
10002SOL    HW130905   6.025   5.699   5.645  0.5914  1.3023  0.5127
10002SOL    HW230906   6.138   5.690   5.762  1.1948  1.6772 -0.0303
10003SOL     OW30907   1.524   1.248   1.779 -0.3880  0.2286 -0.4652
10003SOL    HW130908   1.577   1.164   1.767  0.4361  0.5218  0.9183
10003SOL    HW230909   1.542   1.286   1.870 -2.4860  0.6903 -0.1896
10004SOL     OW30910   3.568   0.426   0.798 -0.6893 -0.8163 -0.1117
10004SOL    HW130911   3.629   0.347   0.798 -1.4733 -1.4584  1.7072
10004SOL    HW230912   3.622   0.509   0.787  0.7193 -1.2780  2.5440
10005SOL     OW30913   6.606   2.256   1.651  0.1522 -0.0559 -0.0020
10005SOL    HW130914   6.582   2.168   1.610  1.6294  0.6736 -2.6481
10005SOL    HW230915   6.695   2.249   1.696 -0.8039 -0.4700  1.9154
10006SOL     OW30916   0.911   2.297   3.008 -0.0510  0.7971  0.0390
10006SOL    HW130917   0.862   2.230   2.953  1.0157 -1.5340  1.7532
10006SOL    HW230918   0.859   2.383   3.011 -1.8264 -0.1452 -1.6562
10007SOL     OW30919   0.086   5.788   1.607 -0.3939  0.2885  0.3231
10007SOL    HW130920   0.138   5.706   1.582  0.4753  0.9612 -0.1338
10007SOL    HW230921   0.070   5.844   1.526 -1.7730  0.1512  0.4736
10008SOL     OW30922   6.886   2.556   3.832  0.2222 -0.4453 -0.2466
10008SOL    HW130923   6.931   2.644   3.849 -2.6052  1.0249  0.3887
10008SOL    HW230924   6.831   2.532   3.912 -0.6187 -1.7712 -1.1913
10009SOL     OW30925   5.624   5.004   1.429  0.0315 -0.1507  0.1823
10009SOL    HW130926   5.625   5.032   1.332  0.1233 -0.0743  0.2049
10009SOL    HW230927   5.664   5.077   1.484 -0.1092 -0.1548  0.2893
10010SOL     OW30928   6.119   5.538   1.647 -0.4177  0.6491 -0.1616
10010SOL    HW130929   6.161   5.517   1.559  1.1354 -2.3904  1.1658
10010SOL    HW230930   6.189   5.569   1.711 -1.2136  1.0618  0.5335
10011SOL     OW30931   0.919   0.330   3.861  0.1646  0.7594 -0.1767
10011SOL    HW130932   0.953   0.361   3.772  2.6550 -0.6551  0.1986
10011SOL    HW230933   0.982   0.360   3.933 -0.9075  0.4347  0.9420
10012SOL     OW30934   6.619   4.557   1.437 -0.4087  0.1372  0.0489
10012SOL    HW130935   6.679   4.479   1.417  0.7873  0.5327  1.8081
10012SOL    HW230936   6.524   4.532   1.418  0.1635 -0.8946 -1.7586
10013SOL     OW30937   6.539   1.060   6.469 -0.1905  0.6053 -0.3537
10013SOL    HW130938   6.637   1.062   6.449 -0.4608  0.0216 -1.9002
10013SOL    HW230939   6.516   0.976   6.519  0.3933  1.7649  2.0115
10014SOL     OW30940   0.601   6.243   2.246 -0.7001 -0.3817 -0.5949
10014SOL    HW130941   0.531   6.172   2.244 -0.7068 -0.3825 -0.3449
10014SOL    HW230942   0.588   6.301   2.326 -0.3617 -0.4379 -0.4978
10015SOL     OW30943   6.070   6.830   0.663 -0.0581  0.2956 -0.0652
10015SOL    HW130944   5.998   6.895   0.689 -0.7242 -0.9276  1.2812
10015SOL    HW230945   6.157   6.878   0.656 -0.6414  1.4443  0.3071
10016SOL     OW30946   4.599   2.724   3.241  0.1558 -0.3638  0.8123
10016SOL    HW130947   4.628   2.765   3.155 -1.4919 -1.9954 -0.6095
10016SOL    HW230948   4.644   2.636   3.253  0.1089 -0.3021  1.4659
10017SOL     OW30949   5.757   2.389   1.875  0.3671  0.5126  0.0833
10017SOL    HW130950   5.788   2.477   1.841  0.5035  0.2166 -0.5823
10017SOL    HW230951   5.826   2.351   1.937  2.3484 -1.0099 -2.8453
10018SOL     OW30952   0.735   1.791   6.426 -0.1817 -0.7613  0.5460
10018SOL    HW130953   0.761   1.710   6.372  0.5195 -0.1199 -0.1079
10018SOL    HW230954   0.755   1.874   6.373  1.5319 -0.0587  2.1754
10019SOL     OW30955   6.206   2.993   3.493 -0.2769 -0.2275  0.2833
10019SOL    HW130956   6.246   2.904   3.513  0.1495 -0.3559 -1.0609
10019SOL    HW230957   6.260   3.064   3.538 -0.5174 -0.6216  1.2167
10020SOL     OW30958   1.203   1.107   3.978  0.1052  0.0138 -0.7258
10020SOL    HW130959   1.278   1.154   4.023 -0.7430  1.8717 -1.1623
10020SOL    HW230960   1.221   1.008   3.978  1.0018  0.0975  1.9785
10021SOL     OW30961   2.379   4.838   3.360 -0.7416  0.2865 -0.1421
10021SOL    HW130962   2.321   4.878   3.289 -3.4107  0.2120  1.8254
10021SOL    HW230963   2.367   4.739   3.361  0.7592  0.0771 -0.7622
10022SOL     OW30964   6.350   6.908   4.951  0.2174 -0.1295 -0.1959
10022SOL    HW130965   6.410   6.932   5.028  0.9082 -1.8575 -0.1464
10022SOL    HW230966   6.302   6.823   4.972 -1.6163  0.7508 -0.6203
10023SOL     OW30967   5.339   1.451   4.186 -0.2774  0.6020  0.4337
10023SOL    HW130968   5.374   1.378   4.128  1.4947  2.7782 -1.4676
10023SOL    HW230969   5.244   1.470   4.164 -0.4185 -0.3707  0.1766
10024SOL     OW30970   6.446   1.037   4.950 -0.0712 -0.3186 -0.6817
10024SOL    HW130971   6.364   1.016   4.896  1.1377  0.6429 -3.0325
10024SOL    HW230972   6.499   0.954   4.965 -1.3560 -0.9319  0.7759
10025SOL     OW30973   6.925   6.800   6.114 -0.4393 -0.1015 -0.6563
10025SOL    HW130974   6.896   6.722   6.057  0.1376 -0.2837 -0.7015
10025SOL    HW230975   7.000   6.848   6.070  0.1880 -0.3966  0.0680
10026SOL     OW30976   4.422   3.016   6.700  0.1581  0.0813  0.3598
10026SOL    HW130977   4.354   3.087   6.718 -0.4893 -0.6501  0.8758
10026SOL    HW230978   4.490   3.050   6.636 -1.2874  0.4833 -1.0282
10027SOL     OW30979   3.491   3.002   7.018  0.3092  0.0042  0.1702
10027SOL    HW130980   3.460   2.961   7.104  3.2377  0.3712  1.4913
10027SOL    HW230981   3.554   2.939   6.972  1.9663  1.4455  0.3799
10028SOL     OW30982   5.066   3.383   0.480  0.6508 -0.1191 -0.2646
10028SOL    HW130983   5.134   3.452   0.457  0.8379 -0.7180 -1.6205
10028SOL    HW230984   5.010   3.363   0.399 -1.0148  0.2038  0.7509
10029SOL     OW30985   2.664   4.892   0.627  0.0911 -0.1851 -0.1237
10029SOL    HW130986   2.735   4.846   0.573  0.6601 -1.3518  1.5269
10029SOL    HW230987   2.593   4.827   0.651 -0.5650  0.5171 -0.1483
10030SOL     OW30988   4.501   6.392   5.725  0.2611  0.2878 -0.1997
10030SOL    HW130989   4.485   6.392   5.626 -0.5325  0.1869 -0.0736
10030SOL    HW230990   4.477   6.303   5.763  0.2815  0.4236  0.1317
10031SOL     OW30991   2.740   5.993   5.686  0.2956  0.0779 -0.0013
10031SOL    HW130992   2.722   5.895   5.692  1.1816 -0.0788  0.1453
10031SOL    HW230993   2.721   6.036   5.775  0.5949 -0.0808  0.1416
10032SOL     OW30994   4.272   1.958   4.802  0.1382 -0.2696 -0.5206
10032SOL    HW130995   4.311   1.866   4.800  0.0083 -0.3410  0.1328
10032SOL    HW230996   4.329   2.017   4.860 -0.8689 -0.4499  0.6820
10033SOL     OW30997   6.928   0.572   1.979  0.0691  0.1185 -0.1214
10033SOL    HW130998   6.837   0.597   2.011 -0.7808 -3.0248  0.2567
10033SOL    HW230999   6.992   0.576   2.056 -0.6249 -1.3192  0.5790
10034SOL     OW31000   2.918   2.250   4.936 -0.1150 -0.4294  0.6793
10034SOL    HW131001   2.989   2.307   4.976 -1.9881  2.1885  0.5905
10034SOL    HW231002   2.936   2.237   4.839 -0.5069  1.6396  0.2762
10035SOL     OW31003   5.930   4.572   3.860 -0.4027 -0.5040  0.0536
10035SOL    HW131004   5.966   4.480   3.865  0.6151 -0.2064 -1.2607
10035SOL    HW231005   5.840   4.571   3.817  0.4965 -0.7160 -1.9268
10036SOL     OW31006   2.588   4.797   1.401 -0.0561 -0.1627  0.4998
10036SOL    HW131007   2.636   4.884   1.411 -2.0277  1.1061 -0.4427
10036SOL    HW231008   2.651   4.728   1.365  1.2772  1.1575  0.2015
10037SOL     OW31009   6.286   6.093   0.700  0.3971  0.5317  0.0836
10037SOL    HW131010   6.261   6.021   0.765  1.6795  0.6045  0.6918
10037SOL    HW231011   6.373   6.133   0.727  0.1948  1.6327 -0.8239
10038SOL     OW31012   5.197   0.136   4.677  0.1049 -0.3692  0.2876
10038SOL    HW131013   5.116   0.158   4.732 -0.3251 -0.2283 -0.3940
10038SOL    HW231014   5.169   0.086   4.595  0.5671  0.6767 -0.5402
10039SOL     OW31015   1.657   1.245   5.434 -0.1132  0.4970  0.1612
10039SOL    HW131016   1.701   1.172   5.487  0.5726  0.7940  0.0101
10039SOL    HW231017   1.641   1.324   5.493 -0.3181  0.4439  0.1793
10040SOL     OW31018   6.358   1.134   3.908  0.8605 -0.1814 -0.0950
10040SOL    HW131019   6.368   1.227   3.873  0.6658 -0.4130 -0.7793
10040SOL    HW231020   6.305   1.079   3.843  0.7380 -0.6980  0.4292
10041SOL     OW31021   0.447   4.715   6.638 -0.0401 -0.0983  0.5683
10041SOL    HW131022   0.360   4.722   6.590 -0.3971  2.1952  1.4145
10041SOL    HW231023   0.432   4.711   6.737  0.7960 -0.6677  0.6900
10042SOL     OW31024   5.353   3.177   0.871 -0.0080 -0.7497 -0.4081
10042SOL    HW131025   5.354   3.246   0.799  0.9839  0.2717  0.5585
10042SOL    HW231026   5.342   3.221   0.960  0.2151 -1.8631  0.1917
10043SOL     OW31027   1.446   4.115   6.218  0.1939  0.0811 -0.2630
10043SOL    HW131028   1.461   4.210   6.248 -0.1405  0.0973 -0.1452
10043SOL    HW231029   1.367   4.112   6.157 -0.1747 -0.2169  0.2216
10044SOL     OW31030   3.487   5.706   3.673  0.2084  0.0048  0.4102
10044SOL    HW131031   3.556   5.774   3.647 -1.1918  1.1165 -0.5101
10044SOL    HW231032   3.455   5.726   3.766 -1.0050  1.3547 -0.2539
10045SOL     OW31033   1.572   6.378   6.877  0.3706 -0.4977  0.3541
10045SOL    HW131034   1.483   6.342   6.907 -0.1679  0.2915 -0.2359
10045SOL    HW231035   1.586   6.469   6.918  0.2449 -0.0067 -0.6699
10046SOL     OW31036   2.757   0.721   0.770 -0.6546  0.0029  0.3076
10046SOL    HW131037   2.681   0.660   0.747 -0.7384  0.4711 -0.7167
10046SOL    HW231038   2.771   0.786   0.695  0.8405 -0.1512  0.4345
10047SOL     OW31039   2.712   6.999   0.691 -0.1096  0.2679 -0.2483
10047SOL    HW131040   2.752   6.963   0.607 -2.4351  0.4842 -1.5230
10047SOL    HW231041   2.667   6.925   0.741 -1.1464  0.6110 -0.6513
10048SOL     OW31042   1.008   5.309   4.987  0.6583  0.1550 -0.0560
10048SOL    HW131043   0.938   5.241   5.008  1.8134 -0.3961  2.4056
10048SOL    HW231044   0.965   5.388   4.943 -1.1796 -0.9284 -0.3164
10049SOL     OW31045   1.960   0.206   6.787 -0.6014  0.2960 -0.0689
10049SOL    HW131046   1.931   0.146   6.712 -0.5916 -0.3126  0.4161
10049SOL    HW231047   2.058   0.194   6.803 -1.1869 -2.1574  2.3095
10050SOL     OW31048   2.867   3.186   6.862  0.1320  0.0569  0.4596
10050SOL    HW131049   2.880   3.243   6.781 -1.2123 -0.9663 -0.5193
10050SOL    HW231050   2.882   3.241   6.945 -0.6048  1.6818 -0.4500
10051SOL     OW31051   5.660   2.370   2.204  0.6992  0.4092  1.0442
10051SOL    HW131052   5.572   2.390   2.246 -1.1742 -1.8229 -1.5371
10051SOL    HW231053   5.684   2.444   2.141  1.4314  1.6857  2.7509
10052SOL     OW31054   1.846   1.489   2.183  0.3066  0.4645 -0.1633
10052SOL    HW131055   1.769   1.543   2.217  0.3374  1.0687 -0.9981
10052SOL    HW231056   1.912   1.551   2.138  0.3930 -0.2519 -1.0537
10053SOL     OW31057   6.345   3.082   0.810  0.2484  0.3604  0.5482
10053SOL    HW131058   6.416   3.021   0.775 -0.7937  0.0558 -1.2170
10053SOL    HW231059   6.332   3.158   0.746 -1.0204  0.3829  0.8061
10054SOL     OW31060   2.051   0.050   4.626  0.5438 -0.9784  1.2384
10054SOL    HW131061   2.119   0.021   4.694  0.2255 -0.8016  1.6413
10054SOL    HW231062   2.075   0.013   4.537  1.5106 -0.4043  1.2520
10055SOL     OW31063   2.971   5.856   3.144 -0.0157 -0.3645  0.4468
10055SOL    HW131064   3.069   5.847   3.127 -0.0468 -1.6233  0.8040
10055SOL    HW231065   2.927   5.768   3.127 -0.7554 -0.4057  2.3769
10056SOL     OW31066   4.710   5.632   0.410 -0.0915  0.7405 -0.3908
10056SOL    HW131067   4.795   5.606   0.456 -1.0386 -1.0782  0.4114
10056SOL    HW231068   4.637   5.569   0.435 -1.0371  0.5597 -3.2369
10057SOL     OW31069   6.180   5.068   5.532  0.5233 -0.7217  0.5512
10057SOL    HW131070   6.105   5.004   5.520 -0.1918 -0.0584  1.3621
10057SOL    HW231071   6.158   5.132   5.606 -0.0492  2.2768 -2.0047
10058SOL     OW31072   6.082   6.630   4.545 -0.1287  0.0255  0.2484
10058SOL    HW131073   6.055   6.692   4.619 -0.3660 -0.0468  0.2243
10058SOL    HW231074   6.094   6.682   4.460 -0.4957  0.0152  0.1882
10059SOL     OW31075   4.859   3.168   2.189  0.4800 -0.3060 -0.3914
10059SOL    HW131076   4.797   3.124   2.124 -0.2792 -1.3950  1.0127
10059SOL    HW231077   4.835   3.264   2.198  0.0167 -0.3535 -1.0427
10060SOL     OW31078   1.076   1.852   5.632 -0.1806  0.0125  0.0913
10060SOL    HW131079   1.033   1.929   5.584  3.0554  1.0923 -1.3986
10060SOL    HW231080   1.069   1.865   5.730 -0.2524  1.9036 -0.1346
10061SOL     OW31081   5.011   2.233   0.499  0.0631 -0.4681 -0.3476
10061SOL    HW131082   4.932   2.173   0.513 -0.3742 -0.2456 -1.7297
10061SOL    HW231083   4.984   2.328   0.516  0.1210 -0.4244 -0.5032
10062SOL     OW31084   0.529   3.936   0.216 -0.1675  0.2733  0.6429
10062SOL    HW131085   0.616   3.927   0.265  0.5955  2.2839 -0.2073
10062SOL    HW231086   0.546   3.933   0.118 -1.1525  0.0835  0.4703
10063SOL     OW31087   0.545   0.674   1.613 -0.4131 -1.1795 -0.3507
10063SOL    HW131088   0.570   0.650   1.519  0.7597  0.7167 -0.5745
10063SOL    HW231089   0.628   0.693   1.665 -1.1537  0.2899  0.3377
10064SOL     OW31090   3.064   5.472   5.264  0.0941 -0.1051 -0.1512
10064SOL    HW131091   2.990   5.534   5.289  0.7546 -0.2744  2.5836
10064SOL    HW231092   3.066   5.459   5.165 -2.3885  1.2715 -0.4411
10065SOL     OW31093   0.244   6.806   6.478  0.2098  0.3579 -0.1209
10065SOL    HW131094   0.318   6.785   6.542 -2.2495 -2.3237  2.1356
10065SOL    HW231095   0.194   6.886   6.510  0.1165  0.1437  0.2778
10066SOL     OW31096   2.553   6.620   6.876 -0.0392 -0.5793  0.0746
10066SOL    HW131097   2.608   6.615   6.959  1.1243 -0.4434 -0.6473
10066SOL    HW231098   2.464   6.661   6.896 -0.0093 -1.1064  1.3486
10067SOL     OW31099   4.197   4.118   1.677 -0.4764 -0.1118 -0.4300
10067SOL    HW131100   4.120   4.182   1.678 -2.1968 -2.0850 -0.7441
10067SOL    HW231101   4.268   4.150   1.740 -0.1857  3.2746 -2.2353
10068SOL     OW31102   6.216   1.103   4.141 -0.1719  0.2743 -0.0763
10068SOL    HW131103   6.279   1.079   4.067  1.7793  0.3376  1.5106
10068SOL    HW231104   6.157   1.024   4.160 -0.9573  0.3622 -1.8587
10069SOL     OW31105   1.815   6.136   6.442 -0.1790 -0.4241 -0.6686
10069SOL    HW131106   1.749   6.177   6.505  0.2301 -1.8095  0.7017
10069SOL    HW231107   1.892   6.198   6.430 -0.1597 -0.2365  0.3594
10070SOL     OW31108   4.026   5.190   2.559  0.6958  0.4763 -0.2298
10070SOL    HW131109   3.935   5.233   2.562 -2.3369 -5.0318  0.4254
10070SOL    HW231110   4.056   5.183   2.464 -0.5040  0.7582 -0.6520
10071SOL     OW31111   4.708   5.857   6.294  0.0213  0.1596  0.4931
10071SOL    HW131112   4.681   5.766   6.327 -0.5893  0.9435  2.2920
10071SOL    HW231113   4.650   5.926   6.337  1.3678  1.5069  0.2165
10072SOL     OW31114   0.636   6.911   6.765 -0.1650  0.4786  0.3857
10072SOL    HW131115   0.727   6.943   6.737 -0.0569 -0.5517 -0.5361
10072SOL    HW231116   0.639   6.885   6.861  0.1629  1.6675  0.7137
10073SOL     OW31117   5.588   5.443   2.642 -0.1279  0.2371  0.1957
10073SOL    HW131118   5.553   5.368   2.698  1.8073 -0.8012  0.0846
10073SOL    HW231119   5.618   5.518   2.701  1.1928 -0.5398  0.5414
10074SOL     OW31120   4.282   5.923   6.956  0.5287  0.4379 -0.0993
10074SOL    HW131121   4.286   5.876   7.044  2.2612  0.1183 -0.2995
10074SOL    HW231122   4.230   6.008   6.966  0.0402  0.0208  1.0408
10075SOL     OW31123   3.934   0.507   1.561 -0.1966  0.2180  0.1230
10075SOL    HW131124   4.020   0.551   1.538 -0.0186  0.6507  1.5255
10075SOL    HW231125   3.951   0.414   1.593 -0.0199  0.8639  2.0657
10076SOL     OW31126   5.628   2.662   2.037 -0.7534  0.6485 -0.1973
10076SOL    HW131127   5.559   2.708   2.093  1.0361  2.0584  0.9736
10076SOL    HW231128   5.616   2.688   1.941 -0.5024  2.7252  0.2832
10077SOL     OW31129   6.586   0.577   7.007  0.3400 -0.7159  0.1010
10077SOL    HW131130   6.547   0.598   7.097 -1.2558  0.5597 -0.8383
10077SOL    HW231131   6.527   0.513   6.959  0.1099  0.1487 -0.7980
10078SOL     OW31132   1.461   6.363   5.844 -0.1033 -0.1398 -0.0742
10078SOL    HW131133   1.485   6.444   5.792 -1.2118 -0.2126 -0.7333
10078SOL    HW231134   1.544   6.311   5.866  0.6389  1.2145  0.4806
10079SOL     OW31135   4.494   6.327   0.100  0.4276 -0.2228 -0.9932
10079SOL    HW131136   4.419   6.355   0.039 -0.3409  0.6732  0.2944
10079SOL    HW231137   4.574   6.302   0.046  0.4545  2.4519 -2.3696
10080SOL     OW31138   0.096   5.267   3.170 -0.3833  0.1901  0.3972
10080SOL    HW131139   0.083   5.313   3.259 -0.5225  1.0454 -0.0540
10080SOL    HW231140   0.018   5.208   3.151 -0.1277 -0.3838  1.0637
10081SOL     OW31141   5.274   1.483   3.255  0.0848 -0.0764 -0.4400
10081SOL    HW131142   5.201   1.439   3.306  0.5924 -1.1235 -0.5890
10081SOL    HW231143   5.259   1.582   3.253 -1.1401 -0.2491 -0.2028
10082SOL     OW31144   3.862   4.318   5.302  0.1539  0.0330 -0.0694
10082SOL    HW131145   3.777   4.312   5.250 -0.4146 -0.7953  0.9378
10082SOL    HW231146   3.894   4.227   5.326  0.5370  0.3938  0.8330
10083SOL     OW31147   3.327   2.890   2.813  0.1807 -0.2481 -0.2845
10083SOL    HW131148   3.415   2.885   2.766  0.0163 -0.2630 -0.5879
10083SOL    HW231149   3.339   2.941   2.899  0.5663 -0.5922 -0.1283
10084SOL     OW31150   1.227   3.294   5.795  0.0247  0.5606  0.4021
10084SOL    HW131151   1.313   3.327   5.757  0.4510 -0.9132  0.0613
10084SOL    HW231152   1.236   3.282   5.893  0.0294  0.9349  0.4489
10085SOL     OW31153   3.393   1.241   5.171  0.1395 -0.0424  0.4232
10085SOL    HW131154   3.391   1.277   5.078 -2.3009  0.0799  0.4559
10085SOL    HW231155   3.450   1.300   5.229  0.3578  0.8194 -0.6386
10086SOL     OW31156   0.649   3.066   5.563  0.5631 -0.3585 -0.7769
10086SOL    HW131157   0.668   2.986   5.620 -1.2734  0.0308  0.4815
10086SOL    HW231158   0.658   3.149   5.618 -1.0184  0.0479 -1.0897
10087SOL     OW31159   1.105   2.680   6.771  0.0017  0.1950  0.3931
10087SOL    HW131160   1.176   2.637   6.826  1.8032  1.5970 -0.7373
10087SOL    HW231161   1.125   2.777   6.760 -2.7082  0.9143  0.9454
10088SOL     OW31162   6.677   6.824   0.929  0.0222  0.2568 -0.7742
10088SOL    HW131163   6.705   6.907   0.882  2.1674  1.7029  2.6514
10088SOL    HW231164   6.578   6.824   0.941 -0.2371  1.2470 -2.6032
10089SOL     OW31165   1.014   6.643   2.958 -0.1586  0.0068 -0.0068
10089SOL    HW131166   0.973   6.556   2.984  1.2613 -1.0919 -1.1961
10089SOL    HW231167   0.997   6.660   2.861  3.5461 -1.4903 -1.1346
10090SOL     OW31168   6.624   1.269   2.323  0.0138 -0.4450 -0.7876
10090SOL    HW131169   6.640   1.171   2.336 -0.8666 -0.5767 -0.6120
10090SOL    HW231170   6.628   1.315   2.412 -0.2061 -0.4315 -0.7823
10091SOL     OW31171   2.044   5.451   4.369  0.3029 -0.7715  0.2046
10091SOL    HW131172   2.011   5.472   4.461  1.7152 -1.6274  0.9520
10091SOL    HW231173   2.091   5.363   4.370 -1.0281 -1.5920 -1.7046
10092SOL     OW31174   4.029   1.545   5.582  0.0820  0.8687  0.0087
10092SOL    HW131175   4.108   1.509   5.632 -0.0035  0.5049 -0.1143
10092SOL    HW231176   3.987   1.472   5.528 -1.0738  0.7649  1.0225
10093SOL     OW31177   6.391   0.220   5.076  0.2237  0.3805 -0.7029
10093SOL    HW131178   6.431   0.133   5.104 -0.2191  0.5765  0.6082
10093SOL    HW231179   6.292   0.209   5.065 -0.1880  1.1797  1.6358
10094SOL     OW31180   6.143   6.405   4.237 -0.2558  0.3648 -0.6141
10094SOL    HW131181   6.063   6.393   4.180 -0.5794 -1.3846  0.1296
10094SOL    HW231182   6.171   6.316   4.274  1.1454  1.1489  0.3082
10095SOL     OW31183   4.158   1.446   1.144  0.4139  1.0585  0.0685
10095SOL    HW131184   4.230   1.470   1.210  0.1703  2.9624 -0.3189
10095SOL    HW231185   4.188   1.470   1.052 -0.2641  0.7642 -0.2294
10096SOL     OW31186   2.072   2.169   0.846 -0.3434 -0.3006  0.2723
10096SOL    HW131187   2.030   2.171   0.937 -1.4238  0.7089 -0.2362
10096SOL    HW231188   2.172   2.175   0.855 -0.4490 -0.0746  1.3714
10097SOL     OW31189   4.602   4.205   6.133  0.0015  0.4650 -0.0483
10097SOL    HW131190   4.632   4.202   6.228  0.4430  1.5701 -0.1460
10097SOL    HW231191   4.633   4.122   6.086  0.0899  0.0794  0.6701
10098SOL     OW31192   2.234   1.484   3.909 -0.6331 -0.6151  0.1990
10098SOL    HW131193   2.228   1.541   3.991 -1.9506 -1.4255  0.7046
10098SOL    HW231194   2.267   1.393   3.934 -2.0361 -1.2002  0.0478
10099SOL     OW31195   6.815   6.579   5.981 -0.5881 -0.2204 -0.5668
10099SOL    HW131196   6.859   6.493   6.006 -1.3566 -0.6008 -0.4998
10099SOL    HW231197   6.731   6.561   5.930 -0.6813  0.4932 -0.6820
10100SOL     OW31198   3.789   0.270   2.896 -0.3054  0.0351 -0.3525
10100SOL    HW131199   3.857   0.320   2.949  0.4446  0.4716 -1.6778
10100SOL    HW231200   3.834   0.223   2.820 -1.2109 -1.4264 -0.0220
10101SOL     OW31201   2.944   0.427   6.508 -0.2606  0.3284  0.3602
10101SOL    HW131202   2.888   0.452   6.586  0.1239  0.2568  0.6632
10101SOL    HW231203   2.887   0.388   6.436 -0.7368  1.1573  0.2702
10102SOL     OW31204   2.056   5.293   1.883 -0.0262  0.1329 -0.4541
10102SOL    HW131205   2.048   5.222   1.814  0.5191 -0.1910 -0.1859
10102SOL    HW231206   1.995   5.272   1.960  1.3721 -0.9425  0.3893
10103SOL     OW31207   5.570   4.013   6.048 -0.0298  0.2385 -0.1504
10103SOL    HW131208   5.633   4.090   6.045  0.5127  0.0914  3.2549
10103SOL    HW231209   5.476   4.046   6.038  0.3193  1.0127 -0.9754
10104SOL     OW31210   6.326   5.152   5.277 -0.2245  1.0168  0.1963
10104SOL    HW131211   6.404   5.113   5.228  2.4631  4.2438  1.5188
10104SOL    HW231212   6.285   5.082   5.336 -0.4282 -1.6005 -2.8090
10105SOL     OW31213   2.614   6.054   5.386  0.4843 -0.1216 -0.0791
10105SOL    HW131214   2.572   5.964   5.380  1.2628 -0.5224  0.3138
10105SOL    HW231215   2.713   6.044   5.395  0.4367  0.7068  1.7310
10106SOL     OW31216   0.296   0.297   0.402  0.3949  0.3407 -0.0663
10106SOL    HW131217   0.371   0.338   0.453 -0.2580  0.6657  0.6416
10106SOL    HW231218   0.298   0.198   0.415 -0.2157  0.4876  1.2118
10107SOL     OW31219   6.948   1.056   4.509 -0.7154  0.1873  0.1738
10107SOL    HW131220   7.007   1.119   4.458 -0.9033  0.3551  0.1652
10107SOL    HW231221   6.941   1.087   4.604 -0.4766 -0.0493  0.2717
10108SOL     OW31222   1.492   3.564   6.232 -0.3090 -0.3464 -0.1655
10108SOL    HW131223   1.519   3.482   6.281 -1.3795 -1.8758 -2.0035
10108SOL    HW231224   1.429   3.617   6.289 -0.7719 -1.5534  0.4868
10109SOL     OW31225   5.492   1.685   2.445 -0.3576 -0.2185 -0.0549
10109SOL    HW131226   5.418   1.753   2.437 -0.4788 -0.5120 -2.3650
10109SOL    HW231227   5.469   1.605   2.389  0.4250 -1.5861  1.5129
10110SOL     OW31228   6.326   2.550   0.749 -0.3311 -0.0814  0.1444
10110SOL    HW131229   6.420   2.517   0.744 -1.0341 -2.7974  2.3505
10110SOL    HW231230   6.265   2.481   0.709 -1.6045  0.2528  1.4268
10111SOL     OW31231   1.586   1.097   0.388  0.2473  0.2009  0.0884
10111SOL    HW131232   1.624   1.005   0.375  0.4437 -0.0115  1.8525
10111SOL    HW231233   1.501   1.091   0.441  0.8699  1.0779  1.2494
10112SOL     OW31234   3.131   4.987   5.050 -0.3830  0.3210 -0.4744
10112SOL    HW131235   3.137   4.941   4.961  0.9995  0.4489 -0.4781
10112SOL    HW231236   3.037   5.015   5.067 -0.6730  0.2997 -1.9017
10113SOL     OW31237   4.098   2.122   0.735  0.2413 -0.1220 -0.5720
10113SOL    HW131238   4.091   2.222   0.739 -0.6292 -0.1831 -0.4039
10113SOL    HW231239   4.140   2.095   0.648  1.6499  0.4290 -0.0987
10114SOL     OW31240   2.929   1.122   0.791  0.0396  0.3877  0.1059
10114SOL    HW131241   2.880   1.161   0.869  0.1586 -0.0067  0.3821
10114SOL    HW231242   2.961   1.195   0.731 -0.3322  0.6788  0.2579
10115SOL     OW31243   4.508   0.630   0.270  0.5537 -0.0441 -0.5173
10115SOL    HW131244   4.535   0.537   0.295 -2.4073 -0.5435  1.3133
10115SOL    HW231245   4.553   0.696   0.331  1.4696 -0.3697 -0.8243
10116SOL     OW31246   6.325   4.552   6.784 -0.1391  0.7306  0.0585
10116SOL    HW131247   6.317   4.509   6.873 -0.4360 -0.9853 -0.7529
10116SOL    HW231248   6.240   4.538   6.732  0.9086 -0.5398 -1.4128
10117SOL     OW31249   3.868   4.380   6.968 -0.4420 -0.2627 -0.6739
10117SOL    HW131250   3.867   4.281   6.983 -0.5547 -0.0592  0.7566
10117SOL    HW231251   3.947   4.420   7.015 -1.7468  0.6208  0.8329
10118SOL     OW31252   2.405   4.533   2.835  0.1436 -0.4693 -0.2429
10118SOL    HW131253   2.402   4.521   2.934 -0.7870  1.7987  0.0795
10118SOL    HW231254   2.332   4.480   2.792 -1.2629  0.7147  0.6115
10119SOL     OW31255   2.450   4.708   0.575  0.3397  0.6057  0.0453
10119SOL    HW131256   2.429   4.611   0.573  0.7435  0.5095  0.2143
10119SOL    HW231257   2.370   4.759   0.605 -0.4226  0.5067 -1.7167
10120SOL     OW31258   4.025   3.994   0.522 -0.0985 -0.9382  0.3227
10120SOL    HW131259   4.025   3.991   0.422  0.2414  2.0297  0.1431
10120SOL    HW231260   4.041   4.088   0.552 -0.0715 -1.7797  3.1958
10121SOL     OW31261   3.507   3.010   6.480 -0.3427 -0.0462  0.5425
10121SOL    HW131262   3.429   3.055   6.524 -2.3026 -0.6876 -2.0421
10121SOL    HW231263   3.571   3.079   6.446 -0.5692  0.5435  1.2908
10122SOL     OW31264   5.825   3.439   0.728  0.3432  0.2112 -0.8988
10122SOL    HW131265   5.848   3.343   0.745  0.0740  0.3076  0.0666
10122SOL    HW231266   5.735   3.459   0.767  0.8582  1.1229 -0.1341
10123SOL     OW31267   0.303   6.017   0.424  0.5892 -0.2748  0.1315
10123SOL    HW131268   0.367   5.977   0.489  2.3315  1.5074 -0.3731
10123SOL    HW231269   0.250   6.089   0.469  0.4475 -0.3209  0.0406
10124SOL     OW31270   6.829   2.583   0.660 -0.2019 -0.0068 -0.0195
10124SOL    HW131271   6.841   2.486   0.641 -0.3873 -0.0035 -0.1559
10124SOL    HW231272   6.734   2.609   0.644 -0.2998  0.0584  0.6281
10125SOL     OW31273   4.342   6.224   6.522  0.5001 -0.7161  0.3893
10125SOL    HW131274   4.289   6.307   6.536  1.5278  0.2203 -0.9553
10125SOL    HW231275   4.295   6.146   6.563 -1.6487  0.1415 -0.3187
10126SOL     OW31276   5.732   5.298   5.539  0.5808  0.4718 -0.1656
10126SOL    HW131277   5.810   5.346   5.498  0.4947  0.2667 -0.5679
10126SOL    HW231278   5.714   5.336   5.630  2.8231 -1.1802  1.0789
10127SOL     OW31279   4.325   3.966   1.228 -0.8734 -0.5606 -0.6451
10127SOL    HW131280   4.410   3.926   1.264 -1.6480 -2.7819 -1.1540
10127SOL    HW231281   4.268   3.996   1.304  0.3545  1.0938 -0.2952
10128SOL     OW31282   6.431   6.615   5.911  0.0207 -0.0708  0.9618
10128SOL    HW131283   6.456   6.708   5.883  0.3120 -1.0454 -2.5859
10128SOL    HW231284   6.346   6.588   5.865 -1.4462 -0.7935  3.8786
10129SOL     OW31285   4.743   5.530   1.093 -0.4582  0.4088 -0.0328
10129SOL    HW131286   4.781   5.623   1.091 -0.7973  0.5461 -0.0340
10129SOL    HW231287   4.817   5.464   1.078 -0.2350  0.6844 -0.1546
10130SOL     OW31288   3.644   5.751   0.874 -0.0959 -0.1057 -0.4553
10130SOL    HW131289   3.684   5.679   0.817 -0.4472 -1.4082  0.8643
10130SOL    HW231290   3.716   5.809   0.911  0.2300 -0.0155 -1.2140
10131SOL     OW31291   5.372   5.820   3.377  0.3507  0.2013 -0.2398
10131SOL    HW131292   5.411   5.908   3.353  0.5187  0.0732 -0.4400
10131SOL    HW231293   5.360   5.764   3.295 -0.8370  0.4636 -0.2612
10132SOL     OW31294   3.284   5.807   2.829  0.3774 -0.1505  0.0133
10132SOL    HW131295   3.353   5.874   2.803  0.8379 -0.6343 -0.0137
10132SOL    HW231296   3.308   5.717   2.791 -1.3033  0.0648 -1.7869
10133SOL     OW31297   6.296   3.164   4.749 -0.3296 -0.1038  0.1309
10133SOL    HW131298   6.268   3.258   4.732 -2.0536 -0.5925  0.0845
10133SOL    HW231299   6.374   3.141   4.690  1.2059  1.7526  1.2833
10134SOL     OW31300   4.978   0.965   3.890 -0.2159  0.1231  0.1879
10134SOL    HW131301   5.036   0.945   3.968 -0.2938 -1.1716 -0.0634
10134SOL    HW231302   5.017   0.924   3.807 -0.5317  0.8169 -0.3191
10135SOL     OW31303   1.208   1.155   6.878 -0.1219 -0.7701  0.2845
10135SOL    HW131304   1.167   1.080   6.827 -0.3185 -1.0214  0.8095
10135SOL    HW231305   1.141   1.229   6.889 -0.7527 -1.5367  1.8971
10136SOL     OW31306   3.745   1.274   4.829  0.3804 -1.0208  0.0281
10136SOL    HW131307   3.748   1.186   4.783  0.9686 -1.7095  1.3310
10136SOL    HW231308   3.739   1.260   4.928 -0.2958  0.4074  0.2168
10137SOL     OW31309   6.136   2.871   4.263  0.7149 -0.3070 -0.3089
10137SOL    HW131310   6.186   2.954   4.289 -0.4740  0.0255  1.0311
10137SOL    HW231311   6.108   2.878   4.168 -2.2700  2.4317  0.5905
10138SOL     OW31312   0.218   4.995   0.292 -0.8759 -0.4729 -0.1252
10138SOL    HW131313   0.286   4.976   0.222 -1.2491 -2.5713  0.0273
10138SOL    HW231314   0.260   5.048   0.366  0.7617 -2.0825  0.1720
10139SOL     OW31315   2.733   0.264   2.744  0.2197 -0.1844  0.1669
10139SOL    HW131316   2.777   0.339   2.694  1.3310  2.0836  4.0780
10139SOL    HW231317   2.635   0.284   2.755 -0.4063 -1.5462 -2.3310
10140SOL     OW31318   4.643   6.180   0.604 -0.1248 -0.2599  0.2725
10140SOL    HW131319   4.604   6.242   0.536  0.8996 -0.2922 -0.3569
10140SOL    HW231320   4.582   6.101   0.616 -1.7193  1.0629  1.4639
10141SOL     OW31321   6.410   0.990   4.553 -0.6775  0.2975 -0.2564
10141SOL    HW131322   6.501   1.006   4.590 -0.7893  1.2413 -0.3601
10141SOL    HW231323   6.359   0.931   4.616  0.3542 -1.1589 -0.7424
10142SOL     OW31324   1.089   2.326   0.263  0.3803  0.0033 -0.6494
10142SOL    HW131325   1.065   2.381   0.343  1.3528 -0.4925 -0.0036
10142SOL    HW231326   1.119   2.236   0.292 -0.3561 -0.5853 -1.6542
10143SOL     OW31327   0.489   2.070   3.946  0.0509 -0.1280  0.0970
10143SOL    HW131328   0.547   2.149   3.962  2.7774 -1.3715 -2.5171
10143SOL    HW231329   0.465   2.027   4.033 -0.7964  2.9480  1.5222
10144SOL     OW31330   3.299   1.657   1.830  0.3701 -0.4680  0.0044
10144SOL    HW131331   3.388   1.630   1.868  0.3414  1.0655  1.2671
10144SOL    HW231332   3.230   1.654   1.902 -0.6018 -1.5047 -0.9353
10145SOL     OW31333   3.040   3.610   6.060  0.1098 -0.3489 -0.3970
10145SOL    HW131334   3.073   3.551   6.134 -2.4534 -3.8778 -1.7730
10145SOL    HW231335   3.108   3.614   5.987  0.2724 -1.8346 -0.3566
10146SOL     OW31336   5.136   2.267   0.257  0.9838 -0.0887  0.3686
10146SOL    HW131337   5.108   2.203   0.186 -0.7057  0.8594  0.1351
10146SOL    HW231338   5.092   2.242   0.343  0.4642  0.6174  0.3173
10147SOL     OW31339   4.252   4.834   1.904  0.6473  0.2848  0.2806
10147SOL    HW131340   4.220   4.808   1.995  0.5364  0.2008  0.2176
10147SOL    HW231341   4.174   4.839   1.842  0.5725  1.3904  0.4362
10148SOL     OW31342   0.396   3.522   0.002 -0.2993 -0.5411  0.1763
10148SOL    HW131343   0.368   3.573  -0.080  0.1114  0.8351  0.8561
10148SOL    HW231344   0.387   3.581   0.083 -0.1708 -1.6886  1.0584
10149SOL     OW31345   0.078   1.991   0.149 -0.0367 -0.0261 -0.1712
10149SOL    HW131346   0.073   1.892   0.132 -0.8728 -0.1273  0.5913
10149SOL    HW231347   0.152   2.009   0.214 -0.4202 -0.2484  0.3330
10150SOL     OW31348   0.269   5.080   4.224  0.0973 -0.6286 -0.2645
10150SOL    HW131349   0.261   4.981   4.211 -1.3302 -0.4914 -0.6069
10150SOL    HW231350   0.179   5.119   4.242  0.5162  0.7236 -0.9392
10151SOL     OW31351   0.045   0.661   2.759 -0.4268  0.5513 -0.0078
10151SOL    HW131352   0.016   0.721   2.684  2.7630 -0.0951 -1.9123
10151SOL    HW231353   0.144   0.652   2.758 -0.1175  0.8532  4.6527
10152SOL     OW31354   0.991   0.513   0.719 -0.0143 -0.3937 -0.1039
10152SOL    HW131355   0.991   0.413   0.715  2.4060 -0.5433  1.6400
10152SOL    HW231356   1.066   0.549   0.664  0.2914  0.3409  0.7691
10153SOL     OW31357   3.824   4.004   2.713  0.0990  0.0090  0.3300
10153SOL    HW131358   3.744   4.053   2.678 -0.2514  0.8876  2.2194
10153SOL    HW231359   3.826   4.010   2.813  1.9598 -0.9065  0.4012
10154SOL     OW31360   0.997   6.049   6.203  0.3355  0.2557 -0.2219
10154SOL    HW131361   1.079   5.992   6.194 -0.9543 -1.6994 -0.2619
10154SOL    HW231362   0.952   6.056   6.114  0.7594  1.8851 -0.3471
10155SOL     OW31363   3.760   2.926   6.948  0.1602 -0.6314 -0.0818
10155SOL    HW131364   3.842   2.981   6.933 -1.0915  1.3612  0.0514
10155SOL    HW231365   3.711   2.914   6.862 -0.2538 -0.4021  0.1193
10156SOL     OW31366   1.638   4.991   3.592 -0.7290 -0.2005 -0.0666
10156SOL    HW131367   1.578   5.028   3.663  0.9740  2.1952  0.2286
10156SOL    HW231368   1.582   4.960   3.515 -2.4314  0.2386  0.9328
10157SOL     OW31369   0.688   2.129   3.591  0.2571  0.3495 -0.7832
10157SOL    HW131370   0.662   2.068   3.516 -2.0799  0.3433 -0.0570
10157SOL    HW231371   0.716   2.075   3.670  0.0658  0.2709 -0.7686
10158SOL     OW31372   0.143   1.934   3.230  0.1081 -0.0025 -0.1896
10158SOL    HW131373   0.092   1.982   3.159  1.6833 -0.4917 -1.7130
10158SOL    HW231374   0.135   1.835   3.216  1.9315 -0.0854 -0.8294
10159SOL     OW31375   0.310   6.576   3.804 -0.2559 -0.2854  0.0749
10159SOL    HW131376   0.229   6.616   3.847  2.4459  2.2647  3.3733
10159SOL    HW231377   0.321   6.615   3.712 -2.3634 -0.2796 -0.2436
10160SOL     OW31378   3.556   3.031   1.835  0.1902  0.1752 -0.1946
10160SOL    HW131379   3.541   3.120   1.877 -0.2879  0.6654 -1.3754
10160SOL    HW231380   3.530   2.959   1.899 -2.8160  0.9161 -0.4133
10161SOL     OW31381   6.902   0.514   1.694  0.6149 -0.4280  0.3837
10161SOL    HW131382   6.928   0.518   1.790 -1.6594 -0.4212  1.0564
10161SOL    HW231383   6.803   0.531   1.685  0.6985 -0.8026 -1.9199
10162SOL     OW31384   5.741   1.925   4.157 -0.3082  1.5866  0.0528
10162SOL    HW131385   5.806   1.886   4.222 -0.2086  1.2474 -0.2438
10162SOL    HW231386   5.670   1.857   4.137 -0.1664  1.5781 -0.4280
10163SOL     OW31387   1.565   5.600   3.513 -0.5807 -0.3595  0.2565
10163SOL    HW131388   1.608   5.570   3.428 -0.9315 -0.4015  0.0920
10163SOL    HW231389   1.615   5.561   3.590  0.5976  0.8160  0.1189
10164SOL     OW31390   3.621   3.319   6.728 -0.1457 -0.3292 -0.4598
10164SOL    HW131391   3.674   3.318   6.813  1.2327 -1.8667 -1.2814
10164SOL    HW231392   3.524   3.311   6.748  0.1742 -0.8152  0.9592
10165SOL     OW31393   4.512   4.480   4.758 -0.0030  0.2350  0.6354
10165SOL    HW131394   4.600   4.527   4.760 -0.2068  0.6489  0.1303
10165SOL    HW231395   4.465   4.494   4.845  0.3231  0.2174  0.8162
10166SOL     OW31396   3.661   3.464   0.874 -0.1697  0.1075 -0.4847
10166SOL    HW131397   3.758   3.483   0.889 -0.3644  1.4044 -0.7521
10166SOL    HW231398   3.614   3.463   0.962 -0.4035  2.5222 -0.4971
10167SOL     OW31399   1.632   4.822   1.606  0.4182  0.0730 -0.2405
10167SOL    HW131400   1.583   4.902   1.571  1.4475  0.9154  0.1760
10167SOL    HW231401   1.597   4.799   1.697 -1.2337 -1.1996 -1.1503
10168SOL     OW31402   0.519   4.354   1.801 -0.2143 -0.5410  0.4526
10168SOL    HW131403   0.457   4.374   1.726  1.5502 -1.3462 -1.2962
10168SOL    HW231404   0.494   4.411   1.880 -2.8516 -0.5361 -0.2773
10169SOL     OW31405   4.236   1.807   3.559  0.1708  0.2049  0.3939
10169SOL    HW131406   4.244   1.836   3.655 -0.8389 -2.1873  1.2849
10169SOL    HW231407   4.140   1.812   3.531 -0.2098 -2.7940  0.8662
10170SOL     OW31408   4.529   6.943   0.789 -0.1507 -0.3403 -0.5698
10170SOL    HW131409   4.463   7.016   0.770 -1.7355 -1.2841  0.9565
10170SOL    HW231410   4.521   6.873   0.718  0.2056  0.1895 -1.1425
10171SOL     OW31411   1.788   6.728   5.582  0.4509 -0.4089  0.2258
10171SOL    HW131412   1.699   6.729   5.536  0.1827 -0.4313  0.7279
10171SOL    HW231413   1.858   6.695   5.519 -0.0284 -1.1015  0.0410
10172SOL     OW31414   1.839   2.588   3.147  0.4785  0.2892  0.4024
10172SOL    HW131415   1.844   2.501   3.098  0.3478 -0.6425  1.9807
10172SOL    HW231416   1.794   2.574   3.236  0.2318  2.0206  0.5871
10173SOL     OW31417   1.548   1.506   6.641  0.6866  0.3196 -0.3190
10173SOL    HW131418   1.457   1.549   6.637  0.6640  0.4097  0.6778
10173SOL    HW231419   1.547   1.434   6.710  1.6818  1.1233  0.5851
10174SOL     OW31420   2.598   5.653   0.020  0.2532  0.5460 -0.0852
10174SOL    HW131421   2.531   5.674  -0.051 -0.8764 -1.3929  0.3318
10174SOL    HW231422   2.676   5.605  -0.021 -0.0810  0.0296 -0.1189
10175SOL     OW31423   3.553   1.581   0.470  0.1513  0.0323 -0.0416
10175SOL    HW131424   3.606   1.524   0.406 -1.0449 -0.2077 -0.8658
10175SOL    HW231425   3.490   1.639   0.418  0.1144  0.8396  0.8819
10176SOL     OW31426   6.430   6.445   2.198  0.1405  1.2213  0.3572
10176SOL    HW131427   6.526   6.467   2.213  0.9737 -2.3629  1.1957
10176SOL    HW231428   6.418   6.408   2.106 -0.7781  2.9934 -0.2718
10177SOL     OW31429   3.872   5.913   0.960  0.3186 -0.1197 -0.8844
10177SOL    HW131430   3.870   5.998   0.908  2.0967  1.2094  1.0181
10177SOL    HW231431   3.967   5.881   0.969  0.0228 -0.6354  0.9292
10178SOL     OW31432   1.173   3.171   3.158 -0.6629 -0.1717 -0.2861
10178SOL    HW131433   1.130   3.124   3.235  0.8795  0.2625  0.8721
10178SOL    HW231434   1.116   3.249   3.131 -0.8957  0.0618  0.8405
10179SOL     OW31435   6.642   4.778   1.862  0.1343 -0.1399  0.6236
10179SOL    HW131436   6.731   4.819   1.843 -0.3717  0.6469 -0.1228
10179SOL    HW231437   6.602   4.745   1.777 -0.7913  0.5822  0.7611
10180SOL     OW31438   6.687   4.119   4.848 -0.6887 -0.6160 -0.1146
10180SOL    HW131439   6.631   4.041   4.823 -0.3118 -1.7258  2.2410
10180SOL    HW231440   6.661   4.152   4.939  1.0683  0.1480  0.1651
10181SOL     OW31441   0.401   4.821   4.785  0.0770 -0.3569  0.2188
10181SOL    HW131442   0.396   4.855   4.691  1.5550  0.5828  0.4507
10181SOL    HW231443   0.419   4.723   4.783 -2.4867 -0.8893 -0.4481
10182SOL     OW31444   4.899   1.932   1.131  0.6624 -0.3038  0.0434
10182SOL    HW131445   4.885   1.999   1.058  1.2189 -1.2812 -1.0059
10182SOL    HW231446   4.839   1.953   1.208 -0.2213  0.5477 -0.8484
10183SOL     OW31447   0.710   0.013   1.351  0.2039  0.4822 -0.3543
10183SOL    HW131448   0.788  -0.013   1.294 -1.9412 -2.0726 -2.3208
10183SOL    HW231449   0.735   0.002   1.447  1.7891 -1.9230 -0.9375
10184SOL     OW31450   4.420   0.093   4.457 -0.0672 -0.3556 -0.1539
10184SOL    HW131451   4.457   0.067   4.368  0.8283 -1.5962  0.5457
10184SOL    HW231452   4.450   0.185   4.481  2.2322 -1.1504  0.1850
10185SOL     OW31453   4.098   3.565   2.737 -0.0815  0.1238 -0.0948
10185SOL    HW131454   4.156   3.525   2.666  1.0492  0.2148  0.7485
10185SOL    HW231455   4.082   3.661   2.717 -0.8725 -0.1580 -0.9011
10186SOL     OW31456   2.699   1.674   6.961 -0.0563 -0.1896 -0.2569
10186SOL    HW131457   2.696   1.772   6.983  0.3227 -0.0865 -0.6507
10186SOL    HW231458   2.699   1.662   6.862 -2.2796 -0.6607 -0.2554
10187SOL     OW31459   4.273   4.996   3.330 -0.3719 -0.1040  0.3147
10187SOL    HW131460   4.342   5.032   3.393  0.3178  1.5439 -1.2885
10187SOL    HW231461   4.230   5.072   3.281  0.1129 -1.3406 -2.1701
10188SOL     OW31462   5.145   3.989   0.866 -0.1173  0.1881  0.2483
10188SOL    HW131463   5.070   3.952   0.811 -1.1082  0.7314  1.1793
10188SOL    HW231464   5.167   4.082   0.835 -1.5029  0.9704  1.4795
10189SOL     OW31465   2.547   0.974   4.961  0.0107  0.2548  0.0586
10189SOL    HW131466   2.489   0.892   4.965 -0.2305  0.4327  0.2412
10189SOL    HW231467   2.573   1.000   5.054  0.9100 -0.1917 -0.0611
10190SOL     OW31468   5.187   2.341   3.436  0.1364 -0.1971 -0.5951
10190SOL    HW131469   5.276   2.296   3.428  0.0741 -1.3937  3.4980
10190SOL    HW231470   5.199   2.440   3.429  2.1327 -0.2260  1.5381
10191SOL     OW31471   0.795   4.415   0.907  0.2155  0.3036  0.3000
10191SOL    HW131472   0.811   4.501   0.859  0.4530 -0.3586 -0.8636
10191SOL    HW231473   0.820   4.339   0.847  1.7092 -0.5542  1.9251
10192SOL     OW31474   6.848   6.330   4.129 -0.4306 -0.6856 -0.3482
10192SOL    HW131475   6.906   6.393   4.076 -1.3546  0.3841 -0.1216
10192SOL    HW231476   6.759   6.324   4.085 -0.6607 -1.0950  0.1759
10193SOL     OW31477   3.314   2.960   5.293  0.0058  0.2804  0.2353
10193SOL    HW131478   3.357   2.992   5.377  0.7555 -0.1393  0.0140
10193SOL    HW231479   3.294   2.863   5.300 -1.7357  0.6313  0.6737
10194SOL     OW31480   6.913   5.282   5.504  0.1881 -0.4166  0.4166
10194SOL    HW131481   6.894   5.292   5.407  0.5536 -0.5705  0.3320
10194SOL    HW231482   6.826   5.276   5.554 -0.0318 -2.9114 -0.1489
10195SOL     OW31483   1.971   4.266   7.011  0.1636  0.5942 -0.0245
10195SOL    HW131484   1.978   4.364   7.028 -0.9665  0.6476  0.1981
10195SOL    HW231485   1.940   4.251   6.917 -1.6954  0.5232  0.5694
10196SOL     OW31486   6.892   2.910   4.069  0.0158  0.3796 -0.7035
10196SOL    HW131487   6.824   2.844   4.039  0.0510  0.5813 -1.2438
10196SOL    HW231488   6.881   2.995   4.017  1.3773  0.0400 -1.5732
10197SOL     OW31489   1.201   6.564   2.485  0.5097  0.2381  0.1487
10197SOL    HW131490   1.107   6.592   2.466  0.3021 -0.5904 -0.0929
10197SOL    HW231491   1.254   6.562   2.401  0.0363 -1.8020 -0.1511
10198SOL     OW31492   0.487   0.832   6.387  0.0994 -0.3264  0.5707
10198SOL    HW131493   0.400   0.870   6.416 -0.5823 -1.5876  0.2730
10198SOL    HW231494   0.491   0.831   6.287  1.1098  1.1080  0.5686
10199SOL     OW31495   0.712   3.964   4.471  0.0648 -0.1456  0.2046
10199SOL    HW131496   0.670   3.998   4.555 -1.9909  0.6129 -1.0440
10199SOL    HW231497   0.651   3.984   4.394  0.8322 -2.7899 -1.1888
10200SOL     OW31498   0.196   6.358   3.666  0.1823 -0.0819 -0.2745
10200SOL    HW131499   0.147   6.388   3.584  1.0263 -0.1367 -0.8050
10200SOL    HW231500   0.230   6.438   3.715 -2.8554  0.1666  1.6727
10201SOL     OW31501   6.319   4.224   6.859 -0.0138  0.3012 -0.3523
10201SOL    HW131502   6.227   4.215   6.821 -0.0820  0.9534 -0.3515
10201SOL    HW231503   6.382   4.254   6.787  0.0725  0.4911 -0.1955
10202SOL     OW31504   6.519   0.551   5.686 -0.7102 -1.0799  0.4909
10202SOL    HW131505   6.459   0.603   5.626  0.6393  0.2144  0.2053
10202SOL    HW231506   6.600   0.605   5.707  1.1401 -3.3417 -0.4108
10203SOL     OW31507   5.889   2.617   1.789  0.4823  0.2512  0.2683
10203SOL    HW131508   5.899   2.682   1.864  1.2984  1.2776 -0.6898
10203SOL    HW231509   5.859   2.666   1.707  0.9104 -0.6181 -0.4259
10204SOL     OW31510   1.504   3.632   1.516 -0.8044 -0.5728  0.2332
10204SOL    HW131511   1.515   3.574   1.435  0.1277  0.6590 -0.5599
10204SOL    HW231512   1.433   3.700   1.499 -0.1972  0.0679  0.2066
10205SOL     OW31513   4.903   1.826   5.486  0.3746 -0.2900  0.8262
10205SOL    HW131514   4.953   1.739   5.485 -1.2701 -1.4498 -3.2839
10205SOL    HW231515   4.812   1.811   5.525  0.4825 -0.0994  1.1569
10206SOL     OW31516   3.757   2.006   1.327  0.3628  0.1746  0.3949
10206SOL    HW131517   3.832   2.067   1.301  1.4506 -0.1272  2.6022
10206SOL    HW231518   3.679   2.022   1.267  2.1593  0.4861 -2.0289
10207SOL     OW31519   0.130   0.940   0.391 -0.0988 -0.5519 -0.4564
10207SOL    HW131520   0.181   1.001   0.452 -0.8745 -1.7912  1.5043
10207SOL    HW231521   0.185   0.859   0.372 -0.2595 -0.6321 -0.5822
10208SOL     OW31522   6.028   5.945   7.012 -0.3566  0.4092 -1.1130
10208SOL    HW131523   6.005   6.026   7.065  0.3852  0.0661 -0.2643
10208SOL    HW231524   5.944   5.892   6.995 -0.3049 -0.9206  2.1123
10209SOL     OW31525   0.709   6.247   3.047 -0.0121  0.4701 -0.0103
10209SOL    HW131526   0.727   6.156   3.085  4.6184  0.6311 -1.2342
10209SOL    HW231527   0.680   6.238   2.952  1.8944  0.1643 -0.6108
10210SOL     OW31528   0.885   4.958   2.230 -0.4418 -0.3530  0.2498
10210SOL    HW131529   0.938   4.896   2.288  1.3955 -0.3481 -1.3298
10210SOL    HW231530   0.936   4.977   2.146 -2.4683  0.6176 -0.8284
10211SOL     OW31531   4.349   6.391   4.686 -0.5025 -0.3289 -0.4525
10211SOL    HW131532   4.272   6.380   4.749  2.0666 -2.2283  2.6713
10211SOL    HW231533   4.386   6.301   4.662  0.8534  0.5170 -1.7024
10212SOL     OW31534   5.914   5.351   2.250  0.5622  0.3866 -0.2194
10212SOL    HW131535   5.919   5.317   2.156 -3.4469  0.3678 -0.6102
10212SOL    HW231536   5.977   5.299   2.308  0.1807 -2.4994 -2.1905
10213SOL     OW31537   3.071   2.591   1.733  0.0953 -0.4145  0.3475
10213SOL    HW131538   3.028   2.591   1.643 -1.3697  2.4153  0.9538
10213SOL    HW231539   3.024   2.526   1.793 -0.3670 -0.6691 -0.2865
10214SOL     OW31540   6.671   1.256   4.381  0.5081  0.5430  0.1510
10214SOL    HW131541   6.724   1.207   4.311 -1.0531  0.2512 -0.8921
10214SOL    HW231542   6.574   1.244   4.362 -0.0157 -0.6606  3.1754
10215SOL     OW31543   3.905   2.512   5.387 -0.1141 -0.5307 -0.3847
10215SOL    HW131544   3.975   2.457   5.340  0.2523 -0.8388  0.4912
10215SOL    HW231545   3.842   2.451   5.435  0.6445 -0.2010  1.0925
10216SOL     OW31546   5.900   5.570   1.917  0.9465  0.0410  0.4081
10216SOL    HW131547   5.918   5.592   2.013  0.4480 -2.7541  1.2161
10216SOL    HW231548   5.809   5.603   1.893  0.5788 -0.2874  1.2875
10217SOL     OW31549   6.613   5.456   6.698  0.0297 -1.1724  0.4114
10217SOL    HW131550   6.654   5.378   6.746 -1.3313 -1.7649  0.6612
10217SOL    HW231551   6.558   5.423   6.621 -1.9245 -0.6446  1.5034
10218SOL     OW31552   4.171   6.526   0.812  0.0311 -0.4933  0.2913
10218SOL    HW131553   4.252   6.523   0.872 -0.4305  0.2211  0.9797
10218SOL    HW231554   4.168   6.615   0.765 -1.3010  0.2408  1.6697
10219SOL     OW31555   3.858   4.805   0.912  0.6105 -0.2378 -0.6127
10219SOL    HW131556   3.895   4.884   0.961  0.4841 -0.7209  0.2868
10219SOL    HW231557   3.919   4.781   0.837  0.6911  0.6609 -0.8500
10220SOL     OW31558   0.755   5.633   3.174 -0.4894  0.4205  0.1997
10220SOL    HW131559   0.756   5.661   3.078 -0.0459  1.2775  0.4464
10220SOL    HW231560   0.665   5.594   3.196  0.5483 -3.4396 -1.5427
10221SOL     OW31561   0.839   0.652   1.187 -0.6692  0.3593  0.2529
10221SOL    HW131562   0.758   0.710   1.198  0.5823  2.7925 -2.1523
10221SOL    HW231563   0.849   0.628   1.091  0.3460 -1.7458  0.8271
10222SOL     OW31564   5.774   3.069   5.964 -0.1468 -0.5969  0.7128
10222SOL    HW131565   5.812   3.102   5.878  1.0469 -0.0814  1.4153
10222SOL    HW231566   5.695   3.011   5.945 -1.4727  1.5050 -0.6301
10223SOL     OW31567   0.932   6.174   0.675 -0.0116  1.1506 -0.4017
10223SOL    HW131568   0.942   6.120   0.591 -0.4467  1.6379 -0.7752
10223SOL    HW231569   0.939   6.272   0.653 -1.3679  1.3411 -0.0706
10224SOL     OW31570   5.915   5.741   3.607  0.0838  0.1350 -0.1645
10224SOL    HW131571   5.861   5.675   3.659 -1.3737  0.6438 -0.9954
10224SOL    HW231572   5.935   5.704   3.516 -0.1249  0.5548 -0.3815
10225SOL     OW31573   1.249   5.180   0.809 -0.7803  0.3967 -0.8046
10225SOL    HW131574   1.327   5.230   0.847 -0.8322  0.0489 -0.2369
10225SOL    HW231575   1.280   5.094   0.769 -0.6348  1.0400 -2.1327
10226SOL     OW31576   2.731   4.193   1.527  0.4348  0.1092  0.0828
10226SOL    HW131577   2.800   4.170   1.458  0.6019 -0.5244  0.4554
10226SOL    HW231578   2.652   4.235   1.482  0.3464 -0.7094 -0.5522
10227SOL     OW31579   4.584   0.533   1.029  0.1983 -0.5106 -0.4824
10227SOL    HW131580   4.586   0.632   1.015 -2.3734  0.0444  2.0800
10227SOL    HW231581   4.668   0.503   1.074  0.0232  0.9669  0.9205
10228SOL     OW31582   6.966   3.938   2.089  0.4138 -0.0347 -0.8301
10228SOL    HW131583   6.912   3.999   2.147 -0.1065 -3.2113  2.3438
10228SOL    HW231584   6.914   3.917   2.006 -0.8866  1.0740 -0.3474
10229SOL     OW31585   6.430   6.030   5.496  0.2791  0.1264  0.2841
10229SOL    HW131586   6.335   6.010   5.471 -0.0750  0.2564  1.4787
10229SOL    HW231587   6.478   6.066   5.416 -1.1831  1.8751  0.1134
10230SOL     OW31588   2.493   5.182   5.562  0.3984  0.5694  0.0167
10230SOL    HW131589   2.473   5.280   5.565  0.4991  0.5920 -0.0350
10230SOL    HW231590   2.579   5.167   5.513  0.2295  0.4295 -0.2356
10231SOL     OW31591   2.252   2.168   5.927 -0.1555  0.0484 -0.4502
10231SOL    HW131592   2.228   2.123   6.013 -0.7937  0.1252 -0.5853
10231SOL    HW231593   2.335   2.222   5.940  0.7650 -1.3452 -0.3510
10232SOL     OW31594   4.629   0.404   2.180  0.7666 -0.0938 -0.2739
10232SOL    HW131595   4.668   0.314   2.199  1.6987  0.1005 -1.1630
10232SOL    HW231596   4.603   0.448   2.266  0.3818 -1.1648  0.1750
10233SOL     OW31597   4.382   6.579   6.306  0.0341 -0.1623  0.3553
10233SOL    HW131598   4.395   6.525   6.223 -1.5462  1.7336 -1.2191
10233SOL    HW231599   4.289   6.615   6.309 -0.2013 -0.7374  3.3658
10234SOL     OW31600   1.771   5.265   3.875  0.0808  0.6916 -0.0336
10234SOL    HW131601   1.822   5.332   3.929  0.3530  0.9309 -0.5868
10234SOL    HW231602   1.832   5.193   3.844 -0.4427 -0.5233  1.6285
10235SOL     OW31603   0.394   4.220   5.329  0.1020 -0.3523 -0.0001
10235SOL    HW131604   0.402   4.268   5.417 -1.4554  3.2509 -1.6465
10235SOL    HW231605   0.304   4.176   5.323 -0.4066  0.7017 -0.3298
10236SOL     OW31606   2.259   5.732   5.546 -0.8963  0.5761 -0.2493
10236SOL    HW131607   2.260   5.753   5.644 -1.6062  0.5460 -0.2300
10236SOL    HW231608   2.344   5.764   5.504 -0.3459  0.0908  0.4783
10237SOL     OW31609   3.039   5.812   1.877  0.3236  0.5944  0.1538
10237SOL    HW131610   3.052   5.861   1.790  0.1748  0.8881  0.2959
10237SOL    HW231611   3.065   5.872   1.953 -0.9981  0.9003  0.3954
10238SOL     OW31612   0.008   3.299   2.649 -0.2268  0.5200 -0.6529
10238SOL    HW131613  -0.088   3.325   2.639 -0.3024  0.1387 -0.9299
10238SOL    HW231614   0.063   3.381   2.665 -0.4912  0.8283 -1.3052
10239SOL     OW31615   2.013   6.603   5.454 -0.0228  0.0667 -0.1192
10239SOL    HW131616   2.100   6.560   5.431  0.1599  1.5108 -2.4192
10239SOL    HW231617   1.944   6.533   5.471  1.5172 -1.1067  1.7360
10240SOL     OW31618   0.066   2.551   2.470 -0.3174  0.4111 -0.3370
10240SOL    HW131619   0.040   2.647   2.462 -0.6827  0.2541 -1.0904
10240SOL    HW231620   0.009   2.495   2.410  0.1471 -0.2341 -0.1969
10241SOL     OW31621   4.394   6.882   1.178 -0.1021  0.3490 -0.1843
10241SOL    HW131622   4.466   6.943   1.212 -0.7300  2.0123 -1.6894
10241SOL    HW231623   4.327   6.866   1.250 -1.6633  4.1505 -0.5394
10242SOL     OW31624   1.845   4.191   6.795  0.3371  0.1877  0.1152
10242SOL    HW131625   1.906   4.183   6.716  0.4627  1.0188  0.1189
10242SOL    HW231626   1.767   4.249   6.771  0.2169  0.1919  0.5076
10243SOL     OW31627   3.979   3.097   6.854 -0.2060 -0.1709  0.0965
10243SOL    HW131628   4.051   3.131   6.915  0.0186  0.6075 -0.5939
10243SOL    HW231629   4.001   3.121   6.760  0.1272 -2.4880 -0.4940
10244SOL     OW31630   5.481   1.465   6.006 -0.7898  0.1963 -0.0413
10244SOL    HW131631   5.394   1.464   6.055 -0.5221 -0.0415  0.4449
10244SOL    HW231632   5.533   1.546   6.032 -0.5533 -0.0434  0.2512
10245SOL     OW31633   4.491   4.281   0.043 -0.8499 -0.3681  0.3749
10245SOL    HW131634   4.588   4.295   0.023 -1.0274  0.4999  0.0736
10245SOL    HW231635   4.458   4.202  -0.008 -0.1162 -1.1863  1.1212
10246SOL     OW31636   0.846   0.228   6.822  0.2277  0.0445  0.1260
10246SOL    HW131637   0.895   0.268   6.745  0.1615 -0.9940 -0.4648
10246SOL    HW231638   0.749   0.254   6.816 -0.0380 -1.0785 -0.8835
10247SOL     OW31639   1.739   4.128   5.086  0.4462 -0.1455  0.6260
10247SOL    HW131640   1.665   4.147   5.021  0.9153 -0.8059 -0.1268
10247SOL    HW231641   1.701   4.109   5.176 -0.3013 -0.4694  0.2491
10248SOL     OW31642   3.255   6.943   1.433 -0.8197 -0.4359  0.2844
10248SOL    HW131643   3.188   6.877   1.468  1.0337 -1.8782  1.3152
10248SOL    HW231644   3.323   6.962   1.504  0.7543 -0.2243 -1.2199
10249SOL     OW31645   2.434   6.664   4.453  0.4098  0.2041 -0.1052
10249SOL    HW131646   2.405   6.591   4.515  3.1642  0.0608  1.1690
10249SOL    HW231647   2.396   6.751   4.483 -0.3104 -0.2435  0.2979
10250SOL     OW31648   4.971   4.993   1.519 -0.0319 -0.3402  0.1935
10250SOL    HW131649   4.997   4.991   1.615  0.7915  0.9787  0.0198
10250SOL    HW231650   4.871   4.994   1.512 -0.1154 -1.4405  0.9854
10251SOL     OW31651   4.516   4.454   2.734  0.2698  0.1669  0.0500
10251SOL    HW131652   4.564   4.385   2.789  0.8713  0.8278  0.3634
10251SOL    HW231653   4.548   4.450   2.640 -1.5317 -1.7026 -0.5567
10252SOL     OW31654   1.470   4.338   0.759  0.3095  0.5236  0.2390
10252SOL    HW131655   1.551   4.280   0.745 -0.2724 -0.3870  0.5513
10252SOL    HW231656   1.388   4.287   0.732 -0.3129  0.8166  1.4971
10253SOL     OW31657   4.060   0.265   1.692  0.3007  0.3660  0.3081
10253SOL    HW131658   3.977   0.209   1.687  0.6663 -0.1158 -0.4215
10253SOL    HW231659   4.124   0.223   1.756  0.7418 -0.2898 -0.5440
10254SOL     OW31660   2.640   6.744   0.394  0.0143 -0.2965 -0.0916
10254SOL    HW131661   2.642   6.648   0.367  0.1773 -1.1380  2.6771
10254SOL    HW231662   2.733   6.780   0.397  0.0324 -0.3457 -0.0832
10255SOL     OW31663   6.908   4.221   4.475 -0.4939 -0.2869 -0.2854
10255SOL    HW131664   7.001   4.184   4.482 -0.7149 -0.7326  0.5021
10255SOL    HW231665   6.874   4.240   4.567 -1.7613 -1.6364 -0.4348
10256SOL     OW31666   3.007   2.423   6.240  0.6651  0.6333  0.0438
10256SOL    HW131667   3.012   2.409   6.339 -1.2311 -0.3765  0.0373
10256SOL    HW231668   3.034   2.340   6.193 -1.2625  0.0842 -0.1854
10257SOL     OW31669   0.848   0.473   1.369 -0.3422 -0.7960  0.1214
10257SOL    HW131670   0.923   0.490   1.433 -0.4272 -0.2513  0.0849
10257SOL    HW231671   0.844   0.548   1.302 -0.4470 -1.2027 -0.3325
10258SOL     OW31672   0.430   6.347   6.208 -0.0204  0.2752  0.5671
10258SOL    HW131673   0.404   6.253   6.186 -1.6988  1.0669 -1.1300
10258SOL    HW231674   0.528   6.360   6.194  0.2856 -1.2918  1.1562
10259SOL     OW31675   2.269   4.114   2.465 -0.0661 -0.4468  0.0134
10259SOL    HW131676   2.349   4.174   2.466 -0.9281  0.7397  0.1750
10259SOL    HW231677   2.224   4.120   2.376 -0.5672 -0.2870  0.2734
10260SOL     OW31678   4.955   6.281   6.456  0.1268 -0.5425 -0.5013
10260SOL    HW131679   4.976   6.379   6.451 -1.1665 -0.0883  1.7821
10260SOL    HW231680   4.881   6.260   6.393  1.5155 -0.4577 -2.2626
10261SOL     OW31681   3.159   6.303   1.327 -0.0316  0.1186 -0.2609
10261SOL    HW131682   3.173   6.379   1.390  1.7148  0.0322 -0.4809
10261SOL    HW231683   3.201   6.220   1.365 -0.2629 -0.2841 -0.8685
10262SOL     OW31684   3.778   3.893   0.451 -0.3727  0.3897  0.3297
10262SOL    HW131685   3.813   3.875   0.359 -0.9178  0.7216  0.0520
10262SOL    HW231686   3.851   3.931   0.508  0.9530 -2.8801  1.0346
10263SOL     OW31687   1.267   3.534   4.542 -0.2614 -0.1131  0.1255
10263SOL    HW131688   1.286   3.631   4.533 -2.2039  0.4181  1.1644
10263SOL    HW231689   1.330   3.493   4.608  1.8502 -0.0499 -1.7341
10264SOL     OW31690   1.787   4.467   3.830  0.4167  0.1617  0.1950
10264SOL    HW131691   1.826   4.557   3.852 -0.6004  0.7852 -0.4536
10264SOL    HW231692   1.798   4.406   3.909  1.2464  0.7976  0.5971
10265SOL     OW31693   3.335   6.576   1.972 -0.2376  0.1874 -0.0641
10265SOL    HW131694   3.389   6.656   1.942 -1.9955  0.9101 -1.5332
10265SOL    HW231695   3.381   6.531   2.048  2.6774  0.4571 -1.5408
10266SOL     OW31696   0.507   4.804   4.481 -0.5005 -0.2580  0.2479
10266SOL    HW131697   0.414   4.837   4.495 -1.0410 -1.1502 -1.0635
10266SOL    HW231698   0.571   4.879   4.496 -1.2732 -0.0270  2.8437
10267SOL     OW31699   5.742   6.345   2.050  0.9611  0.3927 -0.2827
10267SOL    HW131700   5.763   6.337   1.953 -0.6102 -0.7362 -0.5766
10267SOL    HW231701   5.791   6.274   2.101 -0.3525 -0.8450 -0.6706
10268SOL     OW31702   2.422   4.205   0.050 -0.0200 -0.5214  0.3191
10268SOL    HW131703   2.384   4.194  -0.042  0.9705 -2.4694  0.0857
10268SOL    HW231704   2.521   4.192   0.047  0.1329  0.2119  1.5476
10269SOL     OW31705   1.234   5.347   1.488 -0.5157  0.1127 -0.5483
10269SOL    HW131706   1.186   5.267   1.523 -0.8638  0.6497  0.2352
10269SOL    HW231707   1.327   5.322   1.463 -0.8690 -0.7118 -1.1088
10270SOL     OW31708   1.218   2.602   4.161  0.4595 -0.0052 -0.6090
10270SOL    HW131709   1.210   2.637   4.068  0.7360  0.7137 -0.3720
10270SOL    HW231710   1.295   2.538   4.166  0.4949  0.0171 -0.8609
10271SOL     OW31711   0.257   0.620   1.537  0.1052  0.1809 -0.2318
10271SOL    HW131712   0.180   0.679   1.561 -0.2575  0.1138 -1.1756
10271SOL    HW231713   0.338   0.648   1.588 -0.7573 -0.3395  1.5009
10272SOL     OW31714   0.571   4.240   0.033 -0.0989 -0.5632  0.0450
10272SOL    HW131715   0.539   4.167  -0.028 -1.2587  0.9465 -1.2582
10272SOL    HW231716   0.495   4.301   0.054  1.4552  2.3119 -1.9151
10273SOL     OW31717   3.068   3.889   5.378  0.0221 -0.2792 -0.8338
10273SOL    HW131718   3.140   3.954   5.353 -0.2925 -0.0570 -1.1638
10273SOL    HW231719   2.981   3.918   5.338 -1.0435  1.4004  2.3298
10274SOL     OW31720   6.000   4.562   5.691  0.1877 -0.6351 -0.3086
10274SOL    HW131721   5.974   4.658   5.703  0.7463 -0.6574  1.3766
10274SOL    HW231722   5.930   4.514   5.639 -1.4482  0.0987  1.1179
10275SOL     OW31723   2.440   4.454   4.388 -0.2477  0.5951  0.1447
10275SOL    HW131724   2.466   4.487   4.297  0.2380  0.4143  0.2124
10275SOL    HW231725   2.491   4.504   4.457 -1.6599  1.7297  0.4091
10276SOL     OW31726   3.947   2.537   5.758 -0.0087 -0.2044 -0.4755
10276SOL    HW131727   3.927   2.525   5.661 -0.7490 -0.7842 -0.2637
10276SOL    HW231728   3.861   2.551   5.809 -0.0542 -3.3116  0.5402
10277SOL     OW31729   3.252   4.115   4.591 -0.3524  0.3690 -0.0220
10277SOL    HW131730   3.168   4.065   4.612 -0.5348  0.8744  0.4857
10277SOL    HW231731   3.302   4.068   4.519 -1.2320  0.2361 -0.5520
10278SOL     OW31732   1.381   0.681   6.570 -0.1267 -0.5523 -0.2508
10278SOL    HW131733   1.338   0.751   6.513 -0.5508 -1.2637 -0.8150
10278SOL    HW231734   1.312   0.615   6.600  0.1563 -0.3918  0.8013
10279SOL     OW31735   0.256   5.862   4.179  0.2661 -0.0884 -0.1894
10279SOL    HW131736   0.249   5.944   4.236  1.0460  0.1370 -0.4086
10279SOL    HW231737   0.316   5.880   4.101 -1.4718 -0.1192 -1.5768
10280SOL     OW31738   2.280   0.143   1.307 -0.2961 -0.2458  0.1737
10280SOL    HW131739   2.279   0.078   1.231 -1.0465 -0.1148  0.0649
10280SOL    HW231740   2.246   0.231   1.275 -1.5036 -0.4456  0.8784
10281SOL     OW31741   4.602   0.820   0.456 -0.2226  0.2016  0.5112
10281SOL    HW131742   4.581   0.913   0.424 -0.0051  0.6905  1.7334
10281SOL    HW231743   4.653   0.826   0.542  1.0561 -1.0234 -0.1166
10282SOL     OW31744   5.915   3.422   3.114 -0.4542  0.5529  0.2279
10282SOL    HW131745   5.895   3.415   3.212 -0.0173 -0.0138  0.2868
10282SOL    HW231746   5.840   3.468   3.067 -0.9870  0.1919  0.7213
10283SOL     OW31747   0.342   4.604   4.331  0.1895  0.4217  0.0602
10283SOL    HW131748   0.388   4.534   4.277  0.8120 -0.7031  1.9387
10283SOL    HW231749   0.411   4.661   4.377 -0.3099  0.6598  0.5203
10284SOL     OW31750   3.330   1.205   3.565 -0.3611 -0.0859 -0.0474
10284SOL    HW131751   3.392   1.239   3.494  0.2276 -1.8099 -0.4090
10284SOL    HW231752   3.238   1.241   3.548  0.1218  0.8932 -0.6835
10285SOL     OW31753   2.456   3.168   6.521 -0.1335 -0.3617 -0.3926
10285SOL    HW131754   2.378   3.231   6.521  0.3226  0.2058 -0.5021
10285SOL    HW231755   2.445   3.102   6.595  0.2310  0.9195  0.8583
10286SOL     OW31756   4.823   3.866   2.541  0.4432 -0.4402  0.5348
10286SOL    HW131757   4.803   3.943   2.602  2.3671  0.3217  0.2454
10286SOL    HW231758   4.830   3.782   2.596 -2.8924 -0.7497  0.7189
10287SOL     OW31759   5.009   2.521   1.546 -0.6762  0.2071 -0.0598
10287SOL    HW131760   4.933   2.484   1.600 -1.6167  0.2555 -1.2967
10287SOL    HW231761   5.001   2.621   1.542 -1.4059  0.1264 -1.3551
10288SOL     OW31762   2.055   6.917   6.414  0.9402 -0.5171  0.4547
10288SOL    HW131763   2.054   6.914   6.514 -0.1939 -1.0714  0.4461
10288SOL    HW231764   2.057   7.012   6.384  2.3478 -0.3624  0.9885
10289SOL     OW31765   3.742   3.265   6.950 -0.0724  0.2044 -0.1973
10289SOL    HW131766   3.835   3.230   6.962 -0.4990 -0.5089  1.3234
10289SOL    HW231767   3.678   3.188   6.949 -0.7934  0.7728  0.6391
10290SOL     OW31768   4.408   2.513   1.705  0.3619  0.8214 -0.2354
10290SOL    HW131769   4.358   2.540   1.623 -0.6505  0.7471  0.3522
10290SOL    HW231770   4.348   2.463   1.767  1.1866  0.6382  0.4413
10291SOL     OW31771   1.023   2.310   5.313  0.1479  0.3103  1.1928
10291SOL    HW131772   0.931   2.324   5.348  0.3739  0.9621  1.5458
10291SOL    HW231773   1.061   2.398   5.282 -0.4470 -0.3622 -1.7303
10292SOL     OW31774   3.383   6.819   2.354 -0.1715  0.0978  0.2874
10292SOL    HW131775   3.409   6.729   2.387 -1.3544 -0.2987  0.1628
10292SOL    HW231776   3.286   6.834   2.369  0.1063  1.5906  0.8420
10293SOL     OW31777   3.482   1.545   5.868 -0.1112  0.3457 -0.0918
10293SOL    HW131778   3.556   1.597   5.826 -2.4723  1.8912 -2.6489
10293SOL    HW231779   3.483   1.451   5.833  0.1950  0.5806 -0.7210
10294SOL     OW31780   1.357   3.074   3.751  0.2637 -0.2339  0.1394
10294SOL    HW131781   1.441   3.119   3.720  1.3213 -1.5773  0.9081
10294SOL    HW231782   1.308   3.036   3.673 -1.6445  3.6994 -0.7783
10295SOL     OW31783   1.881   2.874   6.078 -0.6016  0.3485  0.1713
10295SOL    HW131784   1.806   2.939   6.092 -0.3594  0.6076  0.2570
10295SOL    HW231785   1.909   2.836   6.166 -0.8104  0.0492  0.1111
10296SOL     OW31786   1.450   6.664   3.592 -0.9787  0.3732 -0.6117
10296SOL    HW131787   1.398   6.746   3.617  0.8830  1.6293 -0.5943
10296SOL    HW231788   1.548   6.683   3.602 -0.4921 -2.0482 -0.1192
10297SOL     OW31789   2.557   2.529   6.822 -0.0471 -0.2999  0.0980
10297SOL    HW131790   2.543   2.611   6.877 -0.0750 -0.8409  0.9183
10297SOL    HW231791   2.519   2.543   6.731  3.1223  1.9623 -1.0822
10298SOL     OW31792   4.279   0.625   0.985  0.2977  0.3895 -0.3579
10298SOL    HW131793   4.347   0.605   0.914  0.7851  1.8165 -0.3233
10298SOL    HW231794   4.266   0.545   1.042 -0.2413 -0.8832 -2.1589
10299SOL     OW31795   1.489   6.959   5.892 -0.0771 -0.2343 -0.1487
10299SOL    HW131796   1.481   6.861   5.908  0.1769  0.1028  2.6815
10299SOL    HW231797   1.576   6.980   5.848  0.2411 -1.2208 -0.0041
10300SOL     OW31798   0.924   5.547   4.083 -0.1322 -0.3785 -0.4299
10300SOL    HW131799   0.998   5.553   4.016 -0.6178 -0.3420 -0.9615
10300SOL    HW231800   0.940   5.467   4.142  0.3643 -0.3333 -0.4919
10301SOL     OW31801   3.802   5.007   5.609  0.3093  0.1791 -0.1725
10301SOL    HW131802   3.837   5.096   5.578  0.3148  0.2512  0.0373
10301SOL    HW231803   3.711   4.992   5.571  0.1420  0.4563  0.1157
10302SOL     OW31804   2.834   0.560   0.017 -0.0261 -0.0858 -0.4243
10302SOL    HW131805   2.800   0.652  -0.005 -1.5445 -0.3192  0.7325
10302SOL    HW231806   2.895   0.565   0.096 -0.2377 -0.0664 -0.2581
10303SOL     OW31807   3.702   6.942   3.636  0.7605 -0.4661  0.2077
10303SOL    HW131808   3.739   6.944   3.543  1.3405 -1.1603  0.4093
10303SOL    HW231809   3.772   6.973   3.700  0.4911 -0.3594  0.4498
10304SOL     OW31810   1.804   4.059   3.527 -0.2212 -0.4627  1.0716
10304SOL    HW131811   1.893   4.073   3.571  0.0936  0.2460  0.2405
10304SOL    HW231812   1.796   3.963   3.500  1.6319  0.0117 -1.5650
10305SOL     OW31813   5.089   3.974   3.620  0.4583  0.6263 -0.5003
10305SOL    HW131814   5.130   4.041   3.683  3.6545 -0.8679 -0.7626
10305SOL    HW231815   5.148   3.893   3.616 -1.7781 -1.0204 -2.3765
10306SOL     OW31816   1.300   0.669   5.461 -0.0026  0.5560  0.0517
10306SOL    HW131817   1.231   0.639   5.526 -0.7369  1.1224 -0.4542
10306SOL    HW231818   1.275   0.758   5.424  0.0328 -0.0715 -1.5503
10307SOL     OW31819   3.909   3.365   5.936  0.4251 -0.0142  0.0170
10307SOL    HW131820   3.989   3.305   5.941 -1.3852 -2.5073  0.7227
10307SOL    HW231821   3.866   3.354   5.846 -0.5041 -0.6213  0.5221
10308SOL     OW31822   4.717   2.358   3.859 -0.0403 -0.1658 -0.3727
10308SOL    HW131823   4.810   2.393   3.871 -0.3992  1.1046 -1.0666
10308SOL    HW231824   4.657   2.400   3.926 -0.1813 -0.7302 -0.1437
10309SOL     OW31825   6.192   5.677   2.136  0.2223 -0.2897  0.1240
10309SOL    HW131826   6.104   5.663   2.183  2.0253 -1.6623  3.4263
10309SOL    HW231827   6.222   5.590   2.096 -0.3561  0.4396 -2.0755
10310SOL     OW31828   4.947   4.418   3.586  0.6261  0.3120  0.5957
10310SOL    HW131829   4.891   4.348   3.542 -0.2765  1.1786  0.3318
10310SOL    HW231830   4.971   4.389   3.679 -0.1483 -0.1308  0.6575
10311SOL     OW31831   0.456   1.967   6.752  0.1380  0.0831 -0.0191
10311SOL    HW131832   0.547   1.942   6.787  1.6911  3.0895 -1.5051
10311SOL    HW231833   0.408   2.021   6.820  1.4526  2.3870 -0.8058
10312SOL     OW31834   2.559   2.923   1.550  0.0235  0.0439  0.2454
10312SOL    HW131835   2.525   2.890   1.462 -0.9142 -1.2522  1.0618
10312SOL    HW231836   2.587   2.846   1.606  2.2001  0.9439  0.5105
10313SOL     OW31837   1.081   3.642   1.928 -0.1522  0.3721 -0.0836
10313SOL    HW131838   1.170   3.644   1.974  0.5996 -0.8385 -1.4137
10313SOL    HW231839   1.014   3.691   1.984  1.2983  1.1810  1.0228
10314SOL     OW31840   4.521   5.663   0.167  0.2983 -0.1496  0.1965
10314SOL    HW131841   4.582   5.670   0.246 -0.9713  0.3092  1.1519
10314SOL    HW231842   4.434   5.708   0.186 -1.8792 -3.9830  0.3323
10315SOL     OW31843   4.487   3.045   0.683  0.5509 -0.3198  0.1676
10315SOL    HW131844   4.415   2.980   0.661  1.9628 -1.4106 -1.4741
10315SOL    HW231845   4.518   3.091   0.600  0.8446  1.1565  1.0400
10316SOL     OW31846   1.040   2.176   1.972  0.0606 -0.2988 -0.2704
10316SOL    HW131847   1.103   2.163   1.896 -0.1572  1.3257 -0.7685
10316SOL    HW231848   1.091   2.173   2.058  0.2085 -2.8033 -0.3946
10317SOL     OW31849   1.317   3.827   2.398 -0.2558 -0.4393 -0.1968
10317SOL    HW131850   1.261   3.749   2.370 -0.7408 -0.5942  1.1509
10317SOL    HW231851   1.387   3.797   2.462  0.6830 -0.0523 -1.0147
10318SOL     OW31852   1.358   3.904   4.900 -0.4729 -0.4853 -0.4325
10318SOL    HW131853   1.410   3.831   4.856  0.5982 -0.3990  0.6389
10318SOL    HW231854   1.381   3.907   4.997 -1.3669  0.5421 -0.2371
10319SOL     OW31855   0.585   6.139   4.635 -0.1939 -0.0951 -0.2436
10319SOL    HW131856   0.538   6.055   4.608  0.3496 -0.3487 -0.4019
10319SOL    HW231857   0.590   6.144   4.735  0.0776 -0.4192 -0.2403
10320SOL     OW31858   6.631   3.934   2.549  0.0748  0.4297  0.2078
10320SOL    HW131859   6.625   3.839   2.518  1.7419  0.6303 -0.8774
10320SOL    HW231860   6.711   3.944   2.609 -1.0501  0.8281  1.7012
10321SOL     OW31861   5.806   4.343   2.226 -0.0599 -0.2519 -0.6624
10321SOL    HW131862   5.848   4.392   2.303  2.7048 -2.8093 -0.3647
10321SOL    HW231863   5.849   4.371   2.141 -1.1653  0.5338 -0.9881
10322SOL     OW31864   3.656   5.035   3.819  0.1924 -0.4089 -0.2962
10322SOL    HW131865   3.711   5.029   3.736  0.2342 -0.5571 -0.2580
10322SOL    HW231866   3.638   4.943   3.854 -0.7469 -0.3960 -0.7427
10323SOL     OW31867   5.855   0.087   3.215 -0.2439  0.5532  0.4371
10323SOL    HW131868   5.840   0.167   3.157 -2.7090 -0.3508 -0.3331
10323SOL    HW231869   5.767   0.050   3.243  0.8194  0.4701  4.2446
10324SOL     OW31870   3.708   3.869   4.418 -0.0274 -0.2803 -0.5311
10324SOL    HW131871   3.643   3.856   4.343 -0.0361 -0.5611 -0.4765
10324SOL    HW231872   3.795   3.902   4.382  0.0702 -0.7220 -0.7016
10325SOL     OW31873   4.718   1.652   5.831  0.4440 -0.0800 -0.1393
10325SOL    HW131874   4.774   1.597   5.769  0.3543  0.1870 -0.4626
10325SOL    HW231875   4.776   1.713   5.885  0.5245 -0.3273  0.0538
10326SOL     OW31876   6.936   5.535   6.595  0.2165  0.6508  0.0643
10326SOL    HW131877   6.939   5.635   6.595  1.1768  0.6277  0.3737
10326SOL    HW231878   6.878   5.503   6.670 -0.2542  0.9739 -0.1589
10327SOL     OW31879   6.435   3.921   6.520 -0.4611  0.0429 -0.3442
10327SOL    HW131880   6.338   3.925   6.541  0.1125 -0.8062  3.0087
10327SOL    HW231881   6.448   3.886   6.427 -3.3177 -0.4050 -0.6445
10328SOL     OW31882   3.229   3.127   0.693 -0.2831  0.2219  0.2065
10328SOL    HW131883   3.292   3.197   0.727 -0.4435  0.3226  0.2977
10328SOL    HW231884   3.231   3.047   0.753 -0.6448  0.4419  0.5151
10329SOL     OW31885   6.131   3.877   4.282  0.5409  0.3838  0.4291
10329SOL    HW131886   6.191   3.833   4.349 -1.7780 -0.1456  2.3359
10329SOL    HW231887   6.108   3.969   4.315 -1.1640 -0.1350  0.7888
10330SOL     OW31888   2.985   1.878   2.012  0.0374  0.1818  0.0667
10330SOL    HW131889   2.894   1.883   1.972 -0.4589  1.9751  1.2987
10330SOL    HW231890   3.012   1.783   2.022 -0.5013 -0.3856 -2.8787
10331SOL     OW31891   0.849   3.253   2.432  0.4474  0.9736 -0.4162
10331SOL    HW131892   0.815   3.159   2.435 -1.4144  1.5271 -2.1643
10331SOL    HW231893   0.926   3.258   2.369  0.5328  0.6222 -0.3438
10332SOL     OW31894   5.578   6.173   5.077  0.3683  0.2575 -0.0657
10332SOL    HW131895   5.494   6.118   5.073  0.5901 -0.0243 -2.3267
10332SOL    HW231896   5.555   6.269   5.087 -0.0965 -0.0236  1.9289
10333SOL     OW31897   6.402   3.792   1.624  0.4890  0.2696 -0.1812
10333SOL    HW131898   6.497   3.772   1.599  0.3319  0.1854 -0.7277
10333SOL    HW231899   6.381   3.748   1.712  0.9649  0.3222 -0.0350
10334SOL     OW31900   3.827   0.368   0.672  0.5129  0.4912 -0.5625
10334SOL    HW131901   3.848   0.455   0.629 -3.1048  1.1135 -1.4024
10334SOL    HW231902   3.791   0.304   0.604  1.0065 -0.9054  0.4258
10335SOL     OW31903   4.744   1.510   1.120 -0.1910  0.4487 -0.6475
10335SOL    HW131904   4.687   1.588   1.095 -0.0544  1.1060  0.9762
10335SOL    HW231905   4.833   1.543   1.151 -0.3627 -0.2956  0.6881
10336SOL     OW31906   0.266   1.145   5.004  0.0486  0.2548 -0.1268
10336SOL    HW131907   0.202   1.174   5.075  2.3521  1.8914  1.4324
10336SOL    HW231908   0.323   1.070   5.039 -0.9664 -1.2369 -1.5163
10337SOL     OW31909   4.474   4.776   5.426  0.6895  0.1773  0.6411
10337SOL    HW131910   4.434   4.852   5.478  1.5964  0.2735  1.2302
10337SOL    HW231911   4.401   4.721   5.385 -0.0719  0.0235  2.1289
10338SOL     OW31912   2.084   2.305   1.349  0.2154  0.1643  0.1480
10338SOL    HW131913   2.076   2.214   1.308 -0.5913  0.7213 -1.0097
10338SOL    HW231914   1.995   2.332   1.387  0.7571 -0.0142  1.6100
10339SOL     OW31915   6.570   6.498   2.914 -0.1534 -0.1791  0.3610
10339SOL    HW131916   6.514   6.415   2.907  1.2605 -1.1106 -0.2465
10339SOL    HW231917   6.610   6.519   2.825 -0.7004  1.3335  0.4418
10340SOL     OW31918   6.733   6.537   3.143  0.4079  0.1429  0.2676
10340SOL    HW131919   6.763   6.443   3.155 -1.5958 -0.5790  0.0162
10340SOL    HW231920   6.674   6.544   3.062  3.4512  2.3883 -1.9639
10341SOL     OW31921   6.292   6.307   0.476  0.7221  0.3447 -0.0526
10341SOL    HW131922   6.294   6.276   0.571  2.4550 -0.0722 -0.1811
10341SOL    HW231923   6.208   6.358   0.459 -0.1902 -0.5977  1.3637
10342SOL     OW31924   2.639   6.918   5.941  0.4561  0.1657 -0.1237
10342SOL    HW131925   2.588   6.997   5.907  0.2322  1.2205  2.4653
10342SOL    HW231926   2.680   6.869   5.864 -2.5732  0.5390 -2.1199
10343SOL     OW31927   6.422   1.303   6.434 -0.0786  0.0787  0.1611
10343SOL    HW131928   6.460   1.212   6.451  1.0248  0.5477  0.2926
10343SOL    HW231929   6.393   1.344   6.521  1.4245  0.6954  0.3969
10344SOL     OW31930   5.481   4.068   3.281 -0.6795 -0.2519 -0.0805
10344SOL    HW131931   5.538   4.077   3.363 -1.4520  1.0497  0.3453
10344SOL    HW231932   5.431   3.982   3.285 -0.3049 -0.4511  0.5585
10345SOL     OW31933   6.670   3.975   3.529  0.5549 -0.7077  0.3479
10345SOL    HW131934   6.700   3.892   3.575 -0.5044 -1.6126 -0.5328
10345SOL    HW231935   6.570   3.980   3.531  0.6108  0.9150  0.9827
10346SOL     OW31936   0.055   1.853   4.489  0.8203 -0.3093 -0.0347
10346SOL    HW131937  -0.021   1.790   4.503  0.3126  0.4090  0.5275
10346SOL    HW231938   0.142   1.805   4.501  0.4372 -0.8325  0.7143
10347SOL     OW31939   4.046   6.150   3.551 -0.1145  0.1086 -0.5007
10347SOL    HW131940   4.091   6.075   3.600  0.8266 -0.0989 -1.6513
10347SOL    HW231941   4.042   6.231   3.611 -0.0364 -0.4810  0.3184
10348SOL     OW31942   5.074   1.660   5.179 -0.0041  0.2986 -0.3749
10348SOL    HW131943   5.052   1.590   5.111  0.6948  0.8825 -1.2210
10348SOL    HW231944   5.036   1.748   5.148 -1.4470  0.2022  0.9877
10349SOL     OW31945   2.929   2.206   5.457 -0.3310 -0.5050  0.5014
10349SOL    HW131946   2.928   2.296   5.415  1.4079 -0.8844 -0.4711
10349SOL    HW231947   2.839   2.164   5.448 -0.8623  0.6951  0.0011
10350SOL     OW31948   2.171   2.993   6.816 -0.0234 -0.2162 -0.0378
10350SOL    HW131949   2.193   2.978   6.913  1.3760 -2.2978 -0.6206
10350SOL    HW231950   2.254   3.017   6.766 -0.8698  1.6490 -0.6500
10351SOL     OW31951   6.849   6.253   4.394  0.2038  0.0378 -0.1942
10351SOL    HW131952   6.825   6.163   4.357  0.8284 -0.2791  0.1426
10351SOL    HW231953   6.869   6.316   4.319 -0.2270 -0.1038 -0.4330
10352SOL     OW31954   3.059   3.713   3.434  0.0746  0.3012  0.4271
10352SOL    HW131955   3.027   3.748   3.346 -1.5017 -0.1950  0.7569
10352SOL    HW231956   3.143   3.759   3.461  1.1045 -0.1920 -1.7677
10353SOL     OW31957   5.299   3.134   5.187 -0.1558 -0.5949 -0.1691
10353SOL    HW131958   5.240   3.062   5.151 -0.2041 -1.5055  1.6661
10353SOL    HW231959   5.257   3.223   5.170 -0.8173 -1.0695 -1.1055
10354SOL     OW31960   6.753   5.482   2.092 -0.2100 -0.0264  0.4332
10354SOL    HW131961   6.658   5.491   2.120 -0.4139 -1.3510  0.2280
10354SOL    HW231962   6.812   5.517   2.165 -0.8347  0.7244  0.5964
10355SOL     OW31963   6.134   5.465   4.788  0.1493  0.0534  0.2624
10355SOL    HW131964   6.060   5.531   4.779  0.9075  0.6439 -3.1668
10355SOL    HW231965   6.097   5.372   4.780 -0.4685  0.2049  1.1855
10356SOL     OW31966   2.230   4.729   5.536 -0.0539  0.3578 -0.1563
10356SOL    HW131967   2.238   4.782   5.620  1.8895  1.8977 -1.2072
10356SOL    HW231968   2.148   4.758   5.486 -0.1528  0.8584  0.2919
10357SOL     OW31969   5.114   0.851   4.451 -0.2974 -0.2906  0.0837
10357SOL    HW131970   5.213   0.853   4.434 -0.5788  0.8108 -1.7595
10357SOL    HW231971   5.094   0.900   4.536  0.6155  1.3106 -0.5738
10358SOL     OW31972   4.125   4.219   6.009 -0.2539 -0.1573  0.5063
10358SOL    HW131973   4.206   4.201   6.066  0.6593  1.3001 -0.2670
10358SOL    HW231974   4.084   4.132   5.982 -0.2695 -0.9031  2.7200
10359SOL     OW31975   5.065   6.180   7.022 -0.0072 -0.2958  0.5139
10359SOL    HW131976   5.103   6.095   6.985  1.0256 -0.2170  1.3285
10359SOL    HW231977   5.140   6.241   7.047 -0.7388  0.9878 -0.3303
10360SOL     OW31978   1.210   4.837   5.459 -0.4500  0.3005 -0.5250
10360SOL    HW131979   1.213   4.789   5.372 -1.4806 -0.9098  0.0850
10360SOL    HW231980   1.183   4.774   5.531  0.8955  1.1585  0.7773
10361SOL     OW31981   2.687   4.388   6.751  0.3014 -1.0014  0.0490
10361SOL    HW131982   2.687   4.290   6.732 -1.6419 -0.7442 -1.5459
10361SOL    HW231983   2.739   4.435   6.680 -1.7188 -0.6077 -1.2439
10362SOL     OW31984   2.432   3.875   0.385  0.2041  0.2403 -0.3527
10362SOL    HW131985   2.351   3.894   0.441 -0.2480 -0.8896 -0.5996
10362SOL    HW231986   2.508   3.851   0.445  0.1565  0.5554 -0.1581
10363SOL     OW31987   3.308   0.269   1.713 -0.1217  0.2237  0.1781
10363SOL    HW131988   3.270   0.360   1.728 -0.7877 -0.1447  0.8274
10363SOL    HW231989   3.337   0.260   1.618 -3.0293  0.0670 -0.7986
10364SOL     OW31990   1.015   2.128   3.237 -0.0950 -0.2469 -0.1869
10364SOL    HW131991   0.974   2.194   3.173 -1.4132 -0.3746  0.4944
10364SOL    HW231992   0.999   2.035   3.205 -3.1541 -0.4552  1.5795
10365SOL     OW31993   3.768   6.449   3.914 -0.4126 -0.1705  0.1181
10365SOL    HW131994   3.674   6.416   3.923 -0.2503 -0.6194  0.1594
10365SOL    HW231995   3.767   6.539   3.870 -0.7334 -0.9768 -1.5993
10366SOL     OW31996   0.190   2.268   6.401  0.3140 -0.9094 -0.0931
10366SOL    HW131997   0.131   2.193   6.430 -1.6245 -0.1040 -1.6683
10366SOL    HW231998   0.154   2.306   6.315  2.2241  0.7049 -0.2306
10367SOL     OW31999   6.161   2.085   1.594 -0.3192  0.1238  0.1046
10367SOL    HW132000   6.066   2.074   1.565 -0.0954 -0.8119 -0.2888
10367SOL    HW232001   6.217   2.012   1.555  0.8166  1.4161 -0.7699
10368SOL     OW32002   6.443   3.480   6.993  0.4044 -0.4439  0.2452
10368SOL    HW132003   6.483   3.565   6.958 -0.5064  0.6209  1.7004
10368SOL    HW232004   6.517   3.420   7.025  0.9687  1.6191  3.1790
10369SOL     OW32005   2.234   0.812   6.167  0.2986  0.2426  0.2739
10369SOL    HW132006   2.197   0.721   6.187 -2.2945  0.7016 -1.7837
10369SOL    HW232007   2.199   0.878   6.233 -0.5970  0.2472 -0.1830
10370SOL     OW32008   2.345   3.189   1.020  0.7477  0.0522 -0.2522
10370SOL    HW132009   2.304   3.110   1.066  1.6199 -1.2700 -1.6281
10370SOL    HW232010   2.318   3.188   0.923  2.3038  0.3325 -0.7183
10371SOL     OW32011   0.453   2.071   5.757  0.9270  0.4338 -0.2820
10371SOL    HW132012   0.537   2.120   5.733  2.7628 -2.0342  0.5746
10371SOL    HW232013   0.428   2.010   5.682  0.5354  0.3779 -0.1061
10372SOL     OW32014   5.024   5.888   0.917 -1.1894  0.1843  0.1906
10372SOL    HW132015   5.030   5.987   0.904 -1.4116  0.2686  0.7159
10372SOL    HW232016   4.965   5.849   0.847 -1.4085  0.4702  0.2147
10373SOL     OW32017   1.933   1.390   1.609 -0.7341 -0.4307 -0.4270
10373SOL    HW132018   1.898   1.328   1.539 -0.5400 -1.9708  0.7769
10373SOL    HW232019   2.015   1.350   1.650 -0.4538  0.7652  0.2170
10374SOL     OW32020   0.277   1.703   5.712 -0.2410 -0.0680 -0.1627
10374SOL    HW132021   0.369   1.698   5.672 -1.0553 -0.3136 -2.1044
10374SOL    HW232022   0.248   1.799   5.715 -0.1844 -0.0510 -0.1465
10375SOL     OW32023   5.874   5.873   2.889 -0.3599 -0.2632  0.0023
10375SOL    HW132024   5.797   5.931   2.862 -2.1490 -2.0122  1.0796
10375SOL    HW232025   5.902   5.897   2.981  0.4167  0.3622 -0.3841
10376SOL     OW32026   5.934   6.200   4.463  0.0396  0.0331  0.6687
10376SOL    HW132027   5.923   6.107   4.429 -0.0187  0.1356  0.4052
10376SOL    HW232028   6.018   6.239   4.428 -0.5844  0.5399 -0.2966
10377SOL     OW32029   4.896   1.513   6.234 -0.4665  0.4617  0.6859
10377SOL    HW132030   4.934   1.438   6.287  0.0230 -0.5171 -0.9640
10377SOL    HW232031   4.966   1.549   6.172 -1.6620 -0.1756 -1.1306
10378SOL     OW32032   2.099   3.914   1.263 -0.1847  0.5114 -0.9103
10378SOL    HW132033   2.035   3.906   1.340  2.4582 -0.9305  1.3231
10378SOL    HW232034   2.134   4.007   1.258  0.4232  0.3748  0.3920
10379SOL     OW32035   3.277   1.821   3.308  0.6975  0.0922 -0.6842
10379SOL    HW132036   3.315   1.912   3.291  1.5515 -0.0717  0.2389
10379SOL    HW232037   3.335   1.773   3.374 -0.8097 -0.4013  0.3178
10380SOL     OW32038   5.197   2.211   1.367  0.3447  0.2005  0.0210
10380SOL    HW132039   5.226   2.216   1.463  0.9066  0.0129 -0.1318
10380SOL    HW232040   5.172   2.117   1.345  0.4478  0.1955 -0.0774
10381SOL     OW32041   5.093   0.228   2.377  0.0296  0.2689  0.1458
10381SOL    HW132042   5.083   0.298   2.447  0.2503 -0.5902  1.0604
10381SOL    HW232043   5.150   0.262   2.303  0.8563  0.7573  0.9932
10382SOL     OW32044   2.259   4.259   2.911  0.2691  0.8302 -0.0057
10382SOL    HW132045   2.248   4.286   2.815 -0.0760  1.3619  0.1800
10382SOL    HW232046   2.262   4.159   2.917 -1.0593  0.7432 -0.4398
10383SOL     OW32047   6.714   1.554   2.112  0.2629 -0.0704 -0.2128
10383SOL    HW132048   6.814   1.562   2.112  0.3652 -1.0986  0.6763
10383SOL    HW232049   6.688   1.458   2.120 -0.8078  0.1936 -0.3425
10384SOL     OW32050   1.971   4.319   4.292 -0.2566  0.1844 -0.0124
10384SOL    HW132051   2.048   4.344   4.351 -0.9356  3.3198 -0.2532
10384SOL    HW232052   1.947   4.223   4.307  2.6047 -0.4355  1.2575
10385SOL     OW32053   3.820   0.196   4.592 -0.2610 -0.1450 -0.5641
10385SOL    HW132054   3.738   0.138   4.591  0.3006 -1.0222  0.7610
10385SOL    HW232055   3.901   0.139   4.576  0.4014  0.0304  1.8012
10386SOL     OW32056   4.044   5.662   0.155 -0.0787  0.2523 -0.1797
10386SOL    HW132057   3.965   5.607   0.181  0.3617 -0.3694 -0.1275
10386SOL    HW232058   4.068   5.724   0.230 -1.1107  1.1523 -0.5738
10387SOL     OW32059   3.034   2.643   6.033  0.0191 -0.4769  0.1131
10387SOL    HW132060   3.047   2.591   6.117  0.2124 -1.6911 -0.6450
10387SOL    HW232061   2.993   2.585   5.963 -1.7853  0.9880 -0.1308
10388SOL     OW32062   2.137   2.427   2.844 -0.4588  0.4120  0.1415
10388SOL    HW132063   2.225   2.473   2.831 -0.9455  1.6519  1.0044
10388SOL    HW232064   2.079   2.442   2.764 -0.5738  1.2290  0.3707
10389SOL     OW32065   0.504   1.896   1.985 -0.2340 -0.1521  0.4876
10389SOL    HW132066   0.457   1.903   2.073  0.5778 -1.2403  1.0362
10389SOL    HW232067   0.583   1.834   1.995  0.6758  0.7968 -0.6639
10390SOL     OW32068   0.967   0.238   0.760 -0.2474 -0.2593 -0.3661
10390SOL    HW132069   0.975   0.197   0.670  1.7943 -0.4969 -0.1362
10390SOL    HW232070   0.947   0.167   0.828  0.2474 -0.4130 -0.3764
10391SOL     OW32071   1.493   6.274   0.373 -0.4921  0.3199  0.2993
10391SOL    HW132072   1.522   6.351   0.315 -0.7696  0.4814  0.3729
10391SOL    HW232073   1.572   6.214   0.390 -0.9927 -1.3989 -2.6995
10392SOL     OW32074   0.533   2.598   0.154 -0.5515  0.9479 -0.0066
10392SOL    HW132075   0.455   2.655   0.180  0.0432  2.2217 -0.9049
10392SOL    HW232076   0.531   2.582   0.055 -0.0156  0.4403  0.0569
10393SOL     OW32077   6.523   2.906   1.824 -0.7060  0.0212 -0.5271
10393SOL    HW132078   6.532   2.877   1.729 -1.9695  1.1594 -1.0334
10393SOL    HW232079   6.431   2.883   1.857  0.2252 -1.7563  0.9431
10394SOL     OW32080   3.166   0.537   3.751  1.0875  0.3386  0.0440
10394SOL    HW132081   3.093   0.536   3.820  0.9383 -1.3251 -0.1059
10394SOL    HW232082   3.232   0.465   3.772  1.2990  0.1349 -1.2829
10395SOL     OW32083   1.023   1.525   2.596 -0.3312  0.2750  0.6855
10395SOL    HW132084   0.927   1.524   2.568  0.4376 -1.8666 -2.5820
10395SOL    HW232085   1.041   1.447   2.657 -0.5316  0.1922  0.6391
10396SOL     OW32086   3.701   5.583   2.093  0.0244 -0.2796  0.1683
10396SOL    HW132087   3.629   5.536   2.043 -1.3732  0.6790  1.1999
10396SOL    HW232088   3.741   5.655   2.036 -1.2217  0.4872  0.2335
10397SOL     OW32089   5.791   1.474   0.034  0.6390  0.3892 -0.1989
10397SOL    HW132090   5.709   1.529   0.050  0.8432 -0.1030  3.6119
10397SOL    HW232091   5.772   1.378   0.056  1.7028 -0.1140 -1.3588
10398SOL     OW32092   6.677   6.873   3.664 -0.4533 -0.1235 -0.0633
10398SOL    HW132093   6.704   6.907   3.574 -1.0106 -0.0092 -0.1935
10398SOL    HW232094   6.626   6.944   3.712  0.6787  0.1752  0.7463
10399SOL     OW32095   2.059   0.824   4.462  0.4834 -0.8910 -0.2152
10399SOL    HW132096   2.094   0.828   4.555 -0.7352 -1.7807  0.3019
10399SOL    HW232097   2.045   0.729   4.435 -1.0029 -0.6051 -0.5686
10400SOL     OW32098   2.520   4.830   4.894 -0.2224 -0.5301 -0.5386
10400SOL    HW132099   2.563   4.755   4.843 -1.1922 -0.8047 -0.9736
10400SOL    HW232100   2.498   4.798   4.987  1.8552  0.0747  0.2202
10401SOL     OW32101   4.281   0.667   2.933 -0.2017 -0.4000  0.3478
10401SOL    HW132102   4.207   0.678   2.999 -0.4257 -0.1330  0.0607
10401SOL    HW232103   4.326   0.579   2.947  0.2645 -0.0146  1.3588
10402SOL     OW32104   5.805   1.178   3.770 -0.0641  0.5938 -0.1851
10402SOL    HW132105   5.773   1.148   3.860 -0.0856 -0.6311 -0.5846
10402SOL    HW232106   5.881   1.242   3.781  0.1084  0.2483  0.7005
10403SOL     OW32107   0.369   5.303   5.681  0.5072  0.0633  0.0297
10403SOL    HW132108   0.463   5.274   5.659  0.6689  0.5603  0.0353
10403SOL    HW232109   0.368   5.346   5.771 -0.4359 -3.2988  1.7500
10404SOL     OW32110   3.837   5.657   1.855 -0.6960 -0.1112 -0.1689
10404SOL    HW132111   3.823   5.691   1.762  0.2023 -0.5394 -0.4722
10404SOL    HW232112   3.904   5.583   1.853  0.3000  0.7215  0.9868
10405SOL     OW32113   1.206   0.898   5.357 -0.1116  0.1143  0.2447
10405SOL    HW132114   1.187   0.983   5.407  1.5294 -0.3554  1.7249
10405SOL    HW232115   1.260   0.919   5.276  1.0841  0.4069  1.1019
10406SOL     OW32116   3.975   3.981   5.938 -0.0970 -0.0044  0.2052
10406SOL    HW132117   3.876   3.995   5.931  0.0137  2.0848  1.7771
10406SOL    HW232118   3.998   3.890   5.903 -2.3704 -0.0548 -1.4454
10407SOL     OW32119   6.377   2.170   3.486  0.4641  0.2764  0.3365
10407SOL    HW132120   6.411   2.262   3.508 -1.6711  0.7040  2.2425
10407SOL    HW232121   6.307   2.177   3.415 -0.4162  0.2914  1.1841
10408SOL     OW32122   4.486   5.213   1.489 -0.3048  0.1025 -0.1111
10408SOL    HW132123   4.493   5.311   1.470 -1.1930  0.2382  0.2279
10408SOL    HW232124   4.403   5.177   1.448 -1.0883 -0.0635  1.5666
10409SOL     OW32125   3.000   3.824   1.890  0.2928 -0.3622 -0.4872
10409SOL    HW132126   2.922   3.829   1.828  0.2369  0.4689 -0.3713
10409SOL    HW232127   3.034   3.730   1.894  0.1878 -0.4689 -1.6367
10410SOL     OW32128   3.552   4.935   2.147 -1.1778 -0.1349  0.2353
10410SOL    HW132129   3.464   4.971   2.179 -0.4644  1.4315  0.5204
10410SOL    HW232130   3.536   4.870   2.072 -2.5126  1.1235 -0.6336
10411SOL     OW32131   2.911   6.271   6.056  0.2808  0.4225  0.6821
10411SOL    HW132132   2.928   6.260   5.959 -1.1776  1.4598  0.2682
10411SOL    HW232133   2.852   6.196   6.088  1.5117 -0.4419  1.0130
10412SOL     OW32134   1.778   0.489   4.507 -0.5347  0.1104  0.0574
10412SOL    HW132135   1.726   0.565   4.544 -0.9539 -0.4037  0.5465
10412SOL    HW232136   1.842   0.522   4.438 -0.2658  0.9795  0.7180
10413SOL     OW32137   4.865   0.677   3.939 -0.0337 -0.5283 -0.3902
10413SOL    HW132138   4.962   0.660   3.920  0.0757 -0.4565  0.0853
10413SOL    HW232139   4.812   0.594   3.920  0.2857 -0.9332  0.4369
10414SOL     OW32140   2.672   2.794   1.097  0.4834  0.1643  0.3476
10414SOL    HW132141   2.678   2.733   1.175 -0.3286 -0.8770 -0.3820
10414SOL    HW232142   2.703   2.747   1.015 -1.2616  0.2922 -0.4395
10415SOL     OW32143   4.832   3.316   5.168 -0.4181  0.4010  0.7605
10415SOL    HW132144   4.811   3.414   5.174  2.6938  1.1781  0.6516
10415SOL    HW232145   4.914   3.296   5.221  0.9589 -1.4747 -1.8424
10416SOL     OW32146   3.613   6.897   5.036  0.3114 -0.3109  0.5490
10416SOL    HW132147   3.516   6.870   5.038  0.3603 -0.8749 -1.8356
10416SOL    HW232148   3.619   6.996   5.037 -0.2780 -0.2689  0.7700
10417SOL     OW32149   6.127   0.703   4.917  0.3508  0.1775 -0.5594
10417SOL    HW132150   6.027   0.704   4.924  0.4101  1.2938  0.4399
10417SOL    HW232151   6.161   0.616   4.954 -0.0339  1.5902  3.6608
10418SOL     OW32152   5.245   2.301   5.371  0.0066 -0.1407 -0.3952
10418SOL    HW132153   5.269   2.316   5.275  0.6180  0.8152 -0.1057
10418SOL    HW232154   5.178   2.369   5.400 -0.6693 -0.8257 -0.3091
10419SOL     OW32155   3.787   4.065   3.561  0.0631 -0.0379  0.1073
10419SOL    HW132156   3.776   4.143   3.622  2.9552  0.3925  0.2484
10419SOL    HW232157   3.698   4.035   3.528 -1.1691  3.1535  0.2138
10420SOL     OW32158   3.380   0.348   0.425 -0.1599  0.0143  0.4954
10420SOL    HW132159   3.361   0.403   0.506  2.1435  0.9811  0.4300
10420SOL    HW232160   3.315   0.372   0.352 -2.0779 -0.6669  1.8966
10421SOL     OW32161   1.060   3.331   4.814  0.1117  0.7885 -0.8938
10421SOL    HW132162   0.962   3.314   4.798  0.0208  0.1520  0.2620
10421SOL    HW232163   1.082   3.424   4.786 -1.0972  1.3541 -0.0688
10422SOL     OW32164   5.253   1.881   1.857  0.5390 -0.1095 -0.3724
10422SOL    HW132165   5.193   1.960   1.865 -0.3247 -0.5039 -2.2020
10422SOL    HW232166   5.233   1.834   1.771  1.5784 -1.8582  0.2953
10423SOL     OW32167   0.039   1.987   0.446 -0.2118  0.1363 -0.2868
10423SOL    HW132168   0.125   1.936   0.447 -0.7095 -0.7642 -1.4210
10423SOL    HW232169   0.051   2.073   0.396  0.5693  1.0776  1.4347
10424SOL     OW32170   3.513   2.061   1.537 -0.0639  0.1870  0.1629
10424SOL    HW132171   3.510   2.143   1.594 -1.2485  1.2365 -1.3283
10424SOL    HW232172   3.606   2.025   1.536  0.1216  0.4924  2.2123
10425SOL     OW32173   2.647   4.653   3.460 -0.0071 -0.1642  0.2472
10425SOL    HW132174   2.651   4.646   3.360 -2.3625 -0.6521  0.1235
10425SOL    HW232175   2.735   4.684   3.495  1.0233 -0.4610 -1.9317
10426SOL     OW32176   3.538   3.359   3.301 -0.3904 -0.3440 -0.0025
10426SOL    HW132177   3.550   3.313   3.389 -0.1594  1.1648  0.7857
10426SOL    HW232178   3.625   3.400   3.273 -1.0777  1.5488  0.4768
10427SOL     OW32179   1.497   4.519   3.199 -0.2035  0.0865  0.0258
10427SOL    HW132180   1.587   4.497   3.163 -0.3736 -0.7128  0.0726
10427SOL    HW232181   1.445   4.569   3.129 -1.0936 -2.7948 -1.5482
10428SOL     OW32182   1.327   6.274   2.310 -0.3971 -0.0228 -0.6399
10428SOL    HW132183   1.332   6.193   2.251 -2.3565  1.2173 -2.6683
10428SOL    HW232184   1.364   6.353   2.261 -2.7416  1.1898 -0.5791
10429SOL     OW32185   5.460   4.633   0.511  0.0679  0.4108 -1.0075
10429SOL    HW132186   5.380   4.626   0.451  0.1286  2.3981 -1.3809
10429SOL    HW232187   5.453   4.716   0.567  1.0134 -0.3351  0.2825
10430SOL     OW32188   3.761   0.610   3.343 -0.0721 -0.1176 -0.1568
10430SOL    HW132189   3.740   0.683   3.278  0.7692  1.3683  1.1751
10430SOL    HW232190   3.676   0.575   3.383 -0.4744  0.1821 -0.7490
10431SOL     OW32191   4.165   2.529   1.228  0.6871 -0.2963  0.1375
10431SOL    HW132192   4.144   2.465   1.302 -1.3351 -0.9665 -0.9308
10431SOL    HW232193   4.227   2.600   1.262  1.2480 -1.5797  1.9534
10432SOL     OW32194   1.013   1.039   6.716 -0.6971 -0.0326  0.2568
10432SOL    HW132195   0.932   1.096   6.733 -1.3141 -0.2780 -1.6909
10432SOL    HW232196   0.985   0.956   6.669  0.6153 -0.5024  0.2924
10433SOL     OW32197   2.553   6.439   6.664 -0.4926  0.1409  0.8607
10433SOL    HW132198   2.482   6.469   6.601 -0.9150 -1.0117  0.7540
10433SOL    HW232199   2.551   6.494   6.747 -0.3396  1.2681  0.1456
10434SOL     OW32200   1.600   6.865   0.948  0.3728  0.2400 -0.5184
10434SOL    HW132201   1.553   6.819   1.022  1.2704  1.0398  0.5817
10434SOL    HW232202   1.538   6.878   0.871 -0.8409  0.1986  0.4341
10435SOL     OW32203   3.675   3.398   0.303 -0.8138  0.6690  0.8595
10435SOL    HW132204   3.615   3.327   0.265 -0.5087  1.0597 -0.3926
10435SOL    HW232205   3.620   3.478   0.328 -0.9369  0.6531  0.6404
10436SOL     OW32206   6.910   2.762   6.033 -0.0694  0.7728 -0.0696
10436SOL    HW132207   6.927   2.860   6.048 -0.7706  0.6051  2.1210
10436SOL    HW232208   6.996   2.716   6.013  0.6658  1.4610  1.3293
10437SOL     OW32209   5.463   6.908   2.730 -0.0354 -0.2788 -0.0852
10437SOL    HW132210   5.414   6.858   2.658  0.1722  0.6606 -0.8916
10437SOL    HW232211   5.548   6.946   2.692  0.4527 -0.4099  0.8559
10438SOL     OW32212   6.814   2.433   2.624 -0.2265 -0.2368  0.0439
10438SOL    HW132213   6.776   2.425   2.532 -1.2974  2.1181  0.2043
10438SOL    HW232214   6.815   2.343   2.668 -0.3473 -1.2867 -1.9792
10439SOL     OW32215   2.051   1.899   0.279  0.1428 -0.4314  0.2621
10439SOL    HW132216   1.982   1.926   0.211 -0.7165  2.3354  2.0428
10439SOL    HW232217   2.142   1.909   0.239 -0.3584  0.5621 -0.6941
10440SOL     OW32218   4.552   1.555   2.952 -0.7257  0.2172  0.4398
10440SOL    HW132219   4.465   1.520   2.985 -0.7432 -0.6950 -0.5205
10440SOL    HW232220   4.553   1.553   2.852  1.3230 -2.2339  0.3989
10441SOL     OW32221   1.043   2.806   2.551 -0.1211 -0.0290  0.8969
10441SOL    HW132222   1.047   2.779   2.647  1.1370  2.6288  1.6841
10441SOL    HW232223   1.092   2.738   2.495  2.5841  0.3027  2.6761
10442SOL     OW32224   2.476   0.546   3.595  0.2781  0.2650 -0.0961
10442SOL    HW132225   2.533   0.588   3.524 -2.5784  2.8709 -1.0823
10442SOL    HW232226   2.461   0.612   3.668 -1.8975 -0.0849 -0.1794
10443SOL     OW32227   5.470   1.944   2.767 -0.7987 -0.4589 -0.1713
10443SOL    HW132228   5.513   2.026   2.804  1.5253 -1.4362 -0.5484
10443SOL    HW232229   5.423   1.895   2.841  0.4322 -0.3561  0.7137
10444SOL     OW32230   0.080   4.558   4.133 -0.6758 -0.1148  0.0312
10444SOL    HW132231   0.022   4.531   4.210  1.2843 -0.9230  1.3055
10444SOL    HW232232   0.123   4.476   4.095  0.2204  0.5413 -0.3842
10445SOL     OW32233   0.897   0.387   6.607 -0.0884  0.7685  0.8542
10445SOL    HW132234   0.961   0.353   6.539 -0.3760  0.2779  0.8275
10445SOL    HW232235   0.809   0.406   6.563 -1.8598 -3.9546  1.7618
10446SOL     OW32236   7.000   4.101   0.587  0.3345  0.5962  0.2983
10446SOL    HW132237   6.993   4.169   0.660  0.5878 -1.7110  2.6170
10446SOL    HW232238   6.935   4.124   0.514 -1.0881  2.1636  1.9491
10447SOL     OW32239   5.467   6.673   5.594 -0.3637  0.0279  0.1385
10447SOL    HW132240   5.369   6.689   5.579 -0.2456  0.3922 -0.2992
10447SOL    HW232241   5.498   6.726   5.673 -0.6314 -0.5238  0.6196
10448SOL     OW32242   5.229   6.368   5.023  0.0002  0.4363  0.2205
10448SOL    HW132243   5.235   6.271   5.000  0.5283  0.7011 -0.8442
10448SOL    HW232244   5.224   6.379   5.122 -1.6622 -0.7449  0.2948
10449SOL     OW32245   6.074   0.822   4.502  0.3032 -0.3786 -0.4331
10449SOL    HW132246   6.078   0.902   4.562 -0.2590 -1.0601  0.5355
10449SOL    HW232247   6.155   0.766   4.517  0.6432 -0.0694 -1.0354
10450SOL     OW32248   2.517   5.434   3.912 -0.0135 -0.0564  0.7116
10450SOL    HW132249   2.479   5.526   3.913 -1.8104 -0.5043 -3.6234
10450SOL    HW232250   2.444   5.368   3.896  1.7514 -1.6998 -1.1784
10451SOL     OW32251   5.496   6.522   1.357  0.3007  0.2798  0.1164
10451SOL    HW132252   5.422   6.554   1.415 -0.1033  1.1545 -0.8494
10451SOL    HW232253   5.460   6.460   1.288  0.8517 -1.1376  1.0483
10452SOL     OW32254   3.381   2.448   6.239 -0.2121  0.4963 -0.3225
10452SOL    HW132255   3.321   2.405   6.306 -0.9547 -1.3654 -2.0792
10452SOL    HW232256   3.344   2.538   6.214 -0.1300  1.0464  1.4065
10453SOL     OW32257   5.676   6.819   0.541  0.0331  0.6103 -0.0340
10453SOL    HW132258   5.671   6.799   0.443  1.3678 -0.5934  0.1003
10453SOL    HW232259   5.586   6.844   0.575 -0.7897 -0.5817 -1.2509
10454SOL     OW32260   6.748   6.367   0.771  0.4061  0.0227 -0.4873
10454SOL    HW132261   6.834   6.317   0.758  1.1405  0.7957  1.0494
10454SOL    HW232262   6.769   6.463   0.791 -0.6574 -0.2181  2.1498
10455SOL     OW32263   3.443   2.144   4.775 -0.1279 -0.3378  0.0106
10455SOL    HW132264   3.469   2.107   4.864 -1.2925 -0.1996  0.4206
10455SOL    HW232265   3.463   2.242   4.773  2.3174 -0.7725 -0.8350
10456SOL     OW32266   1.161   3.084   2.737 -0.4464  0.3274 -0.3858
10456SOL    HW132267   1.229   3.025   2.781  0.4082  0.4262 -1.5055
10456SOL    HW232268   1.077   3.084   2.790  0.6679  0.7843  1.4444
10457SOL     OW32269   3.692   4.892   2.391 -0.3481 -0.0703  0.3593
10457SOL    HW132270   3.616   4.895   2.455 -1.5813 -0.2789 -1.0368
10457SOL    HW232271   3.657   4.888   2.298  1.3826 -0.4554 -0.3176
10458SOL     OW32272   2.795   1.457   3.513 -0.1916  0.3339 -0.1319
10458SOL    HW132273   2.757   1.513   3.586 -1.1343  1.0167 -1.1270
10458SOL    HW232274   2.763   1.490   3.424 -1.5834 -2.3067 -0.7372
10459SOL     OW32275   5.166   3.990   4.858  0.4176 -0.2827  0.3484
10459SOL    HW132276   5.225   4.066   4.883  1.1134 -1.6317  3.2151
10459SOL    HW232277   5.111   4.015   4.778  1.3959  2.7600  0.5140
10460SOL     OW32278   4.948   1.079   6.657 -0.2430 -0.4076  0.4481
10460SOL    HW132279   5.031   1.070   6.601 -0.0560 -2.9686  0.9986
10460SOL    HW232280   4.900   1.163   6.632  1.2951 -0.0308 -1.5267
10461SOL     OW32281   6.681   4.160   5.419  0.2118 -0.6630 -0.5360
10461SOL    HW132282   6.583   4.179   5.419  0.4172  0.4330  0.1017
10461SOL    HW232283   6.695   4.061   5.422 -0.9035 -0.8474  3.0282
10462SOL     OW32284   2.129   4.996   5.785  0.0965 -0.9787 -0.3338
10462SOL    HW132285   2.229   4.987   5.792 -0.0279 -1.0607  2.2051
10462SOL    HW232286   2.087   4.958   5.867 -1.9685  0.2613 -0.7676
10463SOL     OW32287   0.348   5.776   4.843  0.4350  0.1298  0.0693
10463SOL    HW132288   0.441   5.751   4.870  0.3932 -1.4247 -1.0958
10463SOL    HW232289   0.341   5.774   4.743 -0.6011  1.2200  0.0954
10464SOL     OW32290   0.018   4.496   2.197  0.6341  0.0054 -0.2632
10464SOL    HW132291  -0.005   4.582   2.243 -1.4102 -1.1263  0.9778
10464SOL    HW232292  -0.065   4.441   2.187  1.7529 -1.4758 -1.8123
10465SOL     OW32293   5.088   0.844   3.038  0.0382 -0.1115 -0.4142
10465SOL    HW132294   4.992   0.844   3.068 -0.0747  2.2434 -0.5885
10465SOL    HW232295   5.117   0.938   3.019  2.6794 -0.6623  0.5122
10466SOL     OW32296   3.690   5.349   2.259  0.3353 -0.1150  0.1431
10466SOL    HW132297   3.720   5.432   2.212  0.5345 -0.5245 -0.4742
10466SOL    HW232298   3.770   5.298   2.291  0.2626 -0.6408 -0.4983
10467SOL     OW32299   6.365   1.165   6.793  0.4287 -0.0818 -0.2074
10467SOL    HW132300   6.363   1.259   6.760 -2.0597  0.6771  1.7846
10467SOL    HW232301   6.382   1.165   6.892  1.5555 -1.8489 -0.3521
10468SOL     OW32302   0.054   3.555   6.864  0.4668 -0.0644  0.1307
10468SOL    HW132303   0.005   3.485   6.812  3.4402 -0.6734 -2.1434
10468SOL    HW232304   0.040   3.539   6.962 -1.9868 -1.4452 -0.3470
10469SOL     OW32305   2.115   5.588   4.129 -0.6031 -0.0512  0.0223
10469SOL    HW132306   2.210   5.605   4.154 -0.5639 -1.5632  1.0092
10469SOL    HW232307   2.063   5.561   4.210 -1.8000  0.4017 -0.5704
10470SOL     OW32308   4.064   6.775   3.347 -0.7179  0.0070  0.7264
10470SOL    HW132309   4.078   6.744   3.441 -3.3393 -1.1546  0.8126
10470SOL    HW232310   4.124   6.853   3.329  1.4338 -1.0798  2.6007
10471SOL     OW32311   6.734   1.050   5.845 -0.3159  0.4957  0.0554
10471SOL    HW132312   6.700   1.054   5.751  1.2529 -2.3245 -0.7459
10471SOL    HW232313   6.659   1.025   5.907 -1.2723  1.9792 -0.4416
10472SOL     OW32314   1.320   1.677   5.808 -0.4136 -0.1124 -0.4209
10472SOL    HW132315   1.266   1.593   5.803 -1.3601  0.4941 -0.4316
10472SOL    HW232316   1.342   1.709   5.716  1.6061 -1.3654 -0.4561
10473SOL     OW32317   3.070   3.203   1.554  0.7456  0.0692  0.0768
10473SOL    HW132318   3.030   3.261   1.626  0.2290 -0.1139 -0.0568
10473SOL    HW232319   3.148   3.154   1.591  1.4765  1.1873  0.0713
10474SOL     OW32320   3.199   6.172   3.926  0.2377  0.9064 -0.4235
10474SOL    HW132321   3.211   6.104   3.854 -0.0589  1.5453 -1.0829
10474SOL    HW232322   3.152   6.131   4.004 -0.8447  0.6108 -1.2197
10475SOL     OW32323   1.619   4.068   6.895 -0.0384 -0.5067 -0.4631
10475SOL    HW132324   1.591   4.002   6.825  0.3304 -1.1516 -0.0051
10475SOL    HW232325   1.702   4.115   6.865 -2.0373  2.1871 -2.3312
10476SOL     OW32326   3.867   1.704   0.398  0.8420 -0.2369 -0.2051
10476SOL    HW132327   3.845   1.733   0.305  0.0356 -1.4024 -0.4056
10476SOL    HW232328   3.786   1.662   0.439  1.4348 -0.5079  0.7110
10477SOL     OW32329   1.338   5.152   4.659 -0.1480  0.1514  0.4030
10477SOL    HW132330   1.267   5.136   4.727  1.7596 -2.7099  1.9390
10477SOL    HW232331   1.314   5.106   4.574 -0.8222  0.5151  0.3935
10478SOL     OW32332   5.787   3.941   3.442  0.0052  0.1667 -0.2944
10478SOL    HW132333   5.856   3.950   3.513 -0.4721  0.8608  0.0949
10478SOL    HW232334   5.798   4.015   3.376 -1.4724  1.3683  0.7526
10479SOL     OW32335   5.091   4.199   4.116  0.7830  0.2653  0.4730
10479SOL    HW132336   5.069   4.223   4.210  1.0177  0.3575  0.5055
10479SOL    HW232337   5.187   4.173   4.110  0.6141 -0.3533  0.3743
10480SOL     OW32338   5.097   5.022   3.334 -0.3446 -0.0295 -0.7384
10480SOL    HW132339   5.051   4.934   3.343 -0.1927  0.0891  1.9165
10480SOL    HW232340   5.035   5.096   3.361  0.5725  0.3427  0.4503
10481SOL     OW32341   6.503   6.959   6.250 -0.4005 -0.4626 -0.0129
10481SOL    HW132342   6.416   6.954   6.200 -0.0111  1.0515 -0.8901
10481SOL    HW232343   6.503   7.041   6.308 -0.2078 -1.3623  1.3117
10482SOL     OW32344   2.471   1.842   5.964 -0.6771 -0.1961 -0.9933
10482SOL    HW132345   2.472   1.936   5.998 -0.7126 -0.3115 -0.6627
10482SOL    HW232346   2.459   1.780   6.041  0.6089 -0.5423 -1.0428
10483SOL     OW32347   1.686   1.764   6.605  0.3283 -0.4316  0.1045
10483SOL    HW132348   1.650   1.680   6.646 -0.7925 -0.0643 -0.1003
10483SOL    HW232349   1.640   1.781   6.518  1.7290 -0.4802 -0.6663
10484SOL     OW32350   1.115   5.724   3.064  0.1145  0.3723  0.1566
10484SOL    HW132351   1.115   5.805   3.122  0.5606 -0.2654  1.0852
10484SOL    HW232352   1.039   5.664   3.090 -0.1402  0.4307 -0.4387
10485SOL     OW32353   6.735   2.609   5.772  0.2514  0.4496 -0.7423
10485SOL    HW132354   6.701   2.577   5.860 -1.1673 -2.4874 -2.2115
10485SOL    HW232355   6.833   2.628   5.778  1.0666 -3.3533  0.6411
10486SOL     OW32356   4.870   0.686   6.315 -0.3332  0.8891  0.2943
10486SOL    HW132357   4.847   0.783   6.317 -0.8458  0.7646  1.3326
10486SOL    HW232358   4.808   0.636   6.376  1.6666  0.3196  2.0012
10487SOL     OW32359   0.105   0.847   4.487 -0.3625  0.1830 -0.3940
10487SOL    HW132360   0.139   0.814   4.399  1.8585  3.4419 -0.9460
10487SOL    HW232361   0.026   0.907   4.472 -0.1527  0.5256 -0.1545
10488SOL     OW32362   0.050   6.202   4.869  0.5314 -0.4899 -0.4247
10488SOL    HW132363   0.028   6.106   4.851 -0.6624 -0.6301  1.5619
10488SOL    HW232364   0.102   6.210   4.954  0.7158  0.6225 -0.6219
10489SOL     OW32365   3.216   1.758   5.360 -0.3099 -0.1900  0.1376
10489SOL    HW132366   3.223   1.825   5.287  0.0902 -0.6881 -0.2871
10489SOL    HW232367   3.307   1.723   5.383 -0.6033 -1.2986 -0.3203
10490SOL     OW32368   4.504   3.956   5.651 -0.1138 -0.2448 -0.4332
10490SOL    HW132369   4.510   3.916   5.560  0.3856 -0.8985 -0.1276
10490SOL    HW232370   4.545   3.893   5.718  0.4958  0.6904  0.0980
10491SOL     OW32371   0.790   1.788   3.481 -0.2038  0.2275  0.0008
10491SOL    HW132372   0.772   1.696   3.447  0.6186  0.2685 -0.5939
10491SOL    HW232373   0.714   1.848   3.456 -0.8526 -0.3362  0.5972
10492SOL     OW32374   1.410   6.648   0.931 -0.2553  0.3127 -0.7121
10492SOL    HW132375   1.370   6.580   0.868 -0.8446 -0.7261  0.7267
10492SOL    HW232376   1.415   6.736   0.885 -1.1572 -0.2868 -2.0473
10493SOL     OW32377   0.095   4.108   1.942  0.0234  0.5597 -0.7364
10493SOL    HW132378   0.052   4.054   2.014  0.7890 -0.7734 -1.2523
10493SOL    HW232379   0.037   4.188   1.922 -0.1806  0.9906  1.3419
10494SOL     OW32380   1.327   4.104   2.381 -0.3571 -0.3211 -0.3667
10494SOL    HW132381   1.423   4.122   2.403 -0.3893 -0.7711  0.1781
10494SOL    HW232382   1.320   4.021   2.327 -0.6460 -2.2469  2.3943
10495SOL     OW32383   6.694   3.565   0.757  0.1762 -0.0668 -0.5457
10495SOL    HW132384   6.673   3.511   0.838  0.5689  0.0025 -0.3953
10495SOL    HW232385   6.627   3.546   0.686  0.4704 -0.9508 -0.5898
10496SOL     OW32386   1.625   5.702   6.758  0.0162  0.3480 -0.2894
10496SOL    HW132387   1.570   5.654   6.826 -1.2611 -2.2765 -2.9662
10496SOL    HW232388   1.718   5.667   6.760 -0.3159 -0.5667 -0.6675
10497SOL     OW32389   6.272   5.924   2.033 -0.0191 -0.3887  0.1093
10497SOL    HW132390   6.325   5.978   2.098  1.1087 -0.8049 -0.4213
10497SOL    HW232391   6.259   5.831   2.068 -0.4156 -0.2766  0.2533
10498SOL     OW32392   0.207   4.978   1.427  0.1863  0.3777 -0.0053
10498SOL    HW132393   0.252   5.057   1.386  0.6648 -0.0465 -0.3212
10498SOL    HW232394   0.258   4.895   1.403 -0.6164 -0.0868 -0.1394
10499SOL     OW32395   3.251   1.219   5.689 -0.4958 -0.2416  0.7979
10499SOL    HW132396   3.218   1.305   5.730 -0.0217  0.5095 -0.3522
10499SOL    HW232397   3.186   1.189   5.619 -0.0538 -0.1708  0.3574
10500SOL     OW32398   4.532   6.392   6.756  0.0442  0.2939  0.6429
10500SOL    HW132399   4.513   6.294   6.761 -0.3249  0.3394  0.1489
10500SOL    HW232400   4.619   6.406   6.708 -0.3081  0.2433 -0.0212
10501SOL     OW32401   2.443   3.733   5.311  0.3100  0.0993 -0.2067
10501SOL    HW132402   2.434   3.818   5.258 -0.0371  0.2386  0.0670
10501SOL    HW232403   2.377   3.666   5.277 -1.6571  1.0057  1.5860
10502SOL     OW32404   0.576   1.712   1.692 -0.3018 -0.2497 -0.0376
10502SOL    HW132405   0.617   1.744   1.777  1.5518  2.1978 -1.7006
10502SOL    HW232406   0.626   1.631   1.659  2.1292  1.5071 -1.0103
10503SOL     OW32407   6.933   2.845   2.748  0.0022 -0.5008 -0.4574
10503SOL    HW132408   6.901   2.883   2.834 -0.5618 -0.0172 -0.8738
10503SOL    HW232409   6.977   2.916   2.693  1.4403 -1.0609 -0.0803
10504SOL     OW32410   3.130   2.974   2.453 -0.6212 -0.2624 -0.1561
10504SOL    HW132411   3.114   2.973   2.552  1.6209 -0.2619  0.2506
10504SOL    HW232412   3.087   3.054   2.413 -0.7390  0.2569  0.9740
10505SOL     OW32413   3.583   4.766   1.311  0.0081  0.3964  0.0417
10505SOL    HW132414   3.664   4.751   1.367 -0.0343  1.7206  0.5075
10505SOL    HW232415   3.502   4.734   1.360 -0.1421  2.3714  1.2286
10506SOL     OW32416   6.269   0.369   6.486 -0.5453  0.2614 -0.5641
10506SOL    HW132417   6.256   0.359   6.387  1.9885 -0.4808 -0.8983
10506SOL    HW232418   6.310   0.457   6.506 -2.5065  1.0958  0.0633
10507SOL     OW32419   6.781   1.874   2.694 -0.2709  0.2979 -0.0244
10507SOL    HW132420   6.729   1.860   2.778 -2.2746 -0.7341 -1.3493
10507SOL    HW232421   6.878   1.884   2.715 -0.7553  0.2950  2.4015
10508SOL     OW32422   6.382   5.533   0.548  0.0100  0.7869 -0.5558
10508SOL    HW132423   6.318   5.550   0.474  0.7395 -0.2498 -1.4553
10508SOL    HW232424   6.332   5.526   0.634 -0.9556  1.0553 -1.0819
10509SOL     OW32425   1.346   3.536   5.991 -0.1728 -0.0210  0.0743
10509SOL    HW132426   1.370   3.465   5.924  0.7433  0.7505 -0.4483
10509SOL    HW232427   1.425   3.553   6.050 -0.5609  0.1977  0.5296
10510SOL     OW32428   5.176   2.004   5.997  0.5715 -0.6170  0.3158
10510SOL    HW132429   5.149   1.939   5.926  2.7397 -1.1598 -0.0704
10510SOL    HW232430   5.192   2.093   5.956 -2.0038  0.1669  0.7877
10511SOL     OW32431   2.121   1.636   1.769  0.2461  0.2196 -0.3276
10511SOL    HW132432   2.128   1.548   1.721 -1.1908 -0.1873  0.1562
10511SOL    HW232433   2.194   1.643   1.837  1.2860  0.0711 -1.3948
10512SOL     OW32434   2.382   6.003   5.660  0.1617 -0.4616  0.2359
10512SOL    HW132435   2.378   6.054   5.746 -0.1865  2.6071 -1.4587
10512SOL    HW232436   2.477   5.984   5.637  0.4900  1.2762 -0.0182
10513SOL     OW32437   5.380   4.849   3.293 -0.2297  0.0785 -0.3200
10513SOL    HW132438   5.297   4.889   3.331  0.4007  1.8270 -0.6861
10513SOL    HW232439   5.443   4.827   3.367 -0.2312  0.6082 -0.1584
10514SOL     OW32440   4.242   6.540   0.116  0.0379 -0.5620 -0.6222
10514SOL    HW132441   4.156   6.501   0.083 -1.2497  1.1429  0.4746
10514SOL    HW232442   4.267   6.497   0.203 -0.8451  0.3100  0.0885
10515SOL     OW32443   4.515   3.603   0.304 -0.3633  0.4433 -0.5475
10515SOL    HW132444   4.564   3.624   0.220  0.5255  0.1671 -0.1076
10515SOL    HW232445   4.490   3.506   0.305 -0.3562  0.4421 -0.4837
10516SOL     OW32446   0.771   2.801   5.615 -0.1046 -0.4123 -0.1357
10516SOL    HW132447   0.835   2.780   5.541 -0.8462 -0.5040 -0.7620
10516SOL    HW232448   0.689   2.745   5.605 -2.0362  2.4585 -1.6949
10517SOL     OW32449   6.641   1.814   2.174 -0.1914  0.0318  0.0676
10517SOL    HW132450   6.668   1.718   2.181 -0.8936 -0.2656 -1.1151
10517SOL    HW232451   6.608   1.834   2.082 -0.6027  1.2694  0.4518
10518SOL     OW32452   1.471   1.153   3.714  0.1607  0.0435  0.3768
10518SOL    HW132453   1.510   1.242   3.740  0.5946  0.1115 -0.4744
10518SOL    HW232454   1.438   1.157   3.620 -2.9423  0.3147  1.3702
10519SOL     OW32455   1.093   6.214   1.147  0.1370  0.0950  0.0096
10519SOL    HW132456   1.044   6.232   1.061  0.4223 -3.8427 -1.1717
10519SOL    HW232457   1.026   6.197   1.220 -0.2298 -0.6849 -0.4885
10520SOL     OW32458   0.391   3.783   4.157  0.1304  0.1825 -0.6555
10520SOL    HW132459   0.384   3.721   4.079  2.4831  0.8817 -1.5266
10520SOL    HW232460   0.311   3.843   4.160 -1.4390 -1.8040 -0.7008
10521SOL     OW32461   6.709   3.078   3.047 -0.1530  0.6449 -0.1512
10521SOL    HW132462   6.690   3.167   3.006  0.3406  0.3079 -1.1721
10521SOL    HW232463   6.666   3.072   3.136 -1.2412  1.4468 -0.5996
10522SOL     OW32464   5.334   3.404   4.860  0.2358  0.2074  0.1259
10522SOL    HW132465   5.291   3.344   4.792  0.6049  0.9518 -0.7799
10522SOL    HW232466   5.284   3.397   4.947 -0.0707 -0.9673 -0.1306
10523SOL     OW32467   2.000   2.284   3.777  0.3866  0.2013 -0.6792
10523SOL    HW132468   1.965   2.190   3.770 -1.6776  0.5571  2.7353
10523SOL    HW232469   2.098   2.285   3.755  0.7680 -2.9763  0.3845
10524SOL     OW32470   6.329   6.849   2.334 -0.2089 -0.3680  0.2846
10524SOL    HW132471   6.232   6.841   2.309 -0.1682  0.2229 -0.0765
10524SOL    HW232472   6.345   6.802   2.421 -0.6010 -1.4099 -0.1910
10525SOL     OW32473   6.470   0.079   3.374 -0.7760 -0.2748 -0.2336
10525SOL    HW132474   6.459   0.102   3.471 -0.5679  0.3397 -0.3565
10525SOL    HW232475   6.496   0.161   3.323 -0.0134 -0.7783 -0.6710
10526SOL     OW32476   5.186   4.942   2.919  0.2517 -0.1032  0.2591
10526SOL    HW132477   5.127   4.865   2.944  1.0630 -1.1750 -0.9870
10526SOL    HW232478   5.280   4.921   2.945  0.5395  0.2968 -0.4386
10527SOL     OW32479   1.961   3.280   6.190 -0.5296 -0.0236  0.5408
10527SOL    HW132480   2.039   3.228   6.224  0.4903  1.1640  0.0517
10527SOL    HW232481   1.991   3.369   6.158 -2.2148  0.8012  1.1361
10528SOL     OW32482   4.949   0.090   3.856 -0.0755  0.5297 -0.3861
10528SOL    HW132483   4.980   0.007   3.901  0.9128  2.0449  1.9115
10528SOL    HW232484   4.884   0.066   3.784  1.0703 -2.2662 -0.6265
10529SOL     OW32485   6.262   4.117   4.904 -0.6805 -0.0934 -0.4668
10529SOL    HW132486   6.222   4.208   4.917 -0.0319  0.2651 -0.9166
10529SOL    HW232487   6.243   4.085   4.811  0.3315  0.2197 -0.7923
10530SOL     OW32488   1.862   5.155   4.620 -0.4565 -0.7011 -0.3261
10530SOL    HW132489   1.910   5.088   4.564  1.2309 -0.0619  0.2934
10530SOL    HW232490   1.875   5.134   4.717 -1.4930 -0.5312 -0.1316
10531SOL     OW32491   3.576   3.895   4.939  0.0550  0.2283 -0.0256
10531SOL    HW132492   3.539   3.842   4.863  1.0795  0.6120 -0.8253
10531SOL    HW232493   3.547   3.990   4.932  0.0642  0.2430  0.1196
10532SOL     OW32494   3.338   2.637   1.776  0.2938 -0.2173 -0.1841
10532SOL    HW132495   3.239   2.628   1.767  0.1887 -0.4983  1.1233
10532SOL    HW232496   3.359   2.688   1.859  1.2380  0.5544 -0.8742
10533SOL     OW32497   6.086   3.223   1.361 -0.2083  0.0999  0.3357
10533SOL    HW132498   6.154   3.225   1.435 -0.1587  1.4628  0.2810
10533SOL    HW232499   6.113   3.155   1.293 -0.1318 -1.0203  1.4346
10534SOL     OW32500   2.233   2.905   4.054 -0.0696  0.4344  0.0443
10534SOL    HW132501   2.298   2.915   4.129  1.7857 -0.5137 -1.3300
10534SOL    HW232502   2.175   2.825   4.070 -0.1380  0.6223  0.7641
10535SOL     OW32503   0.443   1.757   0.953  0.3021  0.4026 -0.4412
10535SOL    HW132504   0.424   1.798   0.864 -0.7347 -1.1498 -0.9874
10535SOL    HW232505   0.449   1.657   0.942  3.3647  0.3602  0.6962
10536SOL     OW32506   0.678   0.996   4.483  0.2702  0.0381 -0.2575
10536SOL    HW132507   0.621   1.007   4.401  1.0362  0.7875 -0.7069
10536SOL    HW232508   0.737   0.916   4.471 -1.1544 -1.1632  0.5090
10537SOL     OW32509   5.482   6.988   0.200 -0.4082 -0.3661  0.3655
10537SOL    HW132510   5.402   7.000   0.142  0.3102 -1.1106 -0.8101
10537SOL    HW232511   5.542   6.918   0.161  0.2966 -0.6058  1.7956
10538SOL     OW32512   3.281   0.697   0.364 -0.3683 -0.1878  0.3356
10538SOL    HW132513   3.378   0.700   0.389 -0.0306  1.3558 -0.9526
10538SOL    HW232514   3.237   0.782   0.393 -0.7137  0.2327 -1.3153
10539SOL     OW32515   6.415   6.669   3.103 -0.9892 -1.0161 -0.1172
10539SOL    HW132516   6.464   6.607   3.042  1.3249  0.4367  0.1182
10539SOL    HW232517   6.345   6.719   3.051 -0.3248 -1.1418 -1.1570
10540SOL     OW32518   6.424   6.044   1.153 -0.3238  0.4162 -0.0832
10540SOL    HW132519   6.502   6.003   1.106 -0.5670 -0.1519 -0.0050
10540SOL    HW232520   6.456   6.105   1.225  0.0491  0.7077 -0.4951
10541SOL     OW32521   0.198   6.985   6.785  0.0096 -0.1347 -0.3859
10541SOL    HW132522   0.276   6.929   6.758  1.1932  1.8497 -1.2648
10541SOL    HW232523   0.126   6.977   6.716  0.2187 -0.4498 -0.5709
10542SOL     OW32524   6.574   4.607   6.065  0.1019  0.2362 -0.3134
10542SOL    HW132525   6.512   4.546   6.015  0.8575 -1.6532  0.9309
10542SOL    HW232526   6.544   4.615   6.160 -0.0253  1.9427 -0.4569
10543SOL     OW32527   2.339   3.447   0.627  0.3836 -0.4900  0.0960
10543SOL    HW132528   2.439   3.439   0.619  0.3108 -0.8280 -0.4907
10543SOL    HW232529   2.301   3.475   0.539 -0.0273 -0.2024  0.3654
10544SOL     OW32530   6.132   0.826   2.310 -0.1913  0.2350  0.0833
10544SOL    HW132531   6.116   0.819   2.409  1.2043  1.2086  0.4056
10544SOL    HW232532   6.174   0.914   2.289 -0.6660  0.1318 -1.4253
10545SOL     OW32533   6.644   3.398   4.074 -0.0093  0.6933 -0.1860
10545SOL    HW132534   6.632   3.299   4.068 -0.0895  0.4027  3.0419
10545SOL    HW232535   6.556   3.441   4.093 -0.1156  1.5398 -2.3231
10546SOL     OW32536   5.693   1.328   1.259  0.8458 -0.4966 -0.2606
10546SOL    HW132537   5.665   1.361   1.169 -0.4243 -0.1384  0.2500
10546SOL    HW232538   5.703   1.406   1.322  0.0486 -0.8725  0.3505
10547SOL     OW32539   1.699   0.586   2.361 -0.4611 -0.8805  0.1270
10547SOL    HW132540   1.690   0.632   2.272  1.4354  0.3201  0.4815
10547SOL    HW232541   1.786   0.612   2.403 -0.8289 -2.2642  1.8793
10548SOL     OW32542   0.624   4.918   2.495  0.2818 -0.3399 -0.8829
10548SOL    HW132543   0.654   4.953   2.583 -0.6262 -0.9464 -0.3204
10548SOL    HW232544   0.653   4.981   2.422 -0.0721  0.8251 -0.0454
10549SOL     OW32545   6.464   4.630   5.171 -0.2800 -0.1264  0.3485
10549SOL    HW132546   6.381   4.679   5.195 -0.0306 -0.2668  1.5839
10549SOL    HW232547   6.510   4.676   5.095 -0.4163  1.1586  1.0231
10550SOL     OW32548   5.005   0.265   6.409 -0.5165 -0.2283 -0.3472
10550SOL    HW132549   5.001   0.350   6.356  0.3619  1.4749  2.1788
10550SOL    HW232550   4.953   0.194   6.361 -1.2315  1.6787 -2.5700
10551SOL     OW32551   6.969   3.501   0.731  0.1525  0.4236 -0.0986
10551SOL    HW132552   6.977   3.441   0.810  0.7956 -1.2201 -1.3639
10551SOL    HW232553   6.885   3.555   0.739  0.3585  0.5331  1.8331
10552SOL     OW32554   3.464   3.988   5.395 -0.0378 -0.0435  0.3706
10552SOL    HW132555   3.429   4.062   5.452 -0.4755 -0.7428  1.0294
10552SOL    HW232556   3.400   3.970   5.320  0.7226  1.1317 -0.5888
10553SOL     OW32557   3.257   1.827   2.541 -0.0974 -0.8028  0.0164
10553SOL    HW132558   3.196   1.760   2.583 -1.3004 -0.2359 -0.7702
10553SOL    HW232559   3.351   1.796   2.551 -0.5035 -1.8014  1.0884
10554SOL     OW32560   4.575   5.540   1.914 -0.7264  0.5694 -0.1786
10554SOL    HW132561   4.574   5.464   1.849 -0.6220  1.0729 -0.7781
10554SOL    HW232562   4.521   5.616   1.878  2.2799  2.3101 -1.4934
10555SOL     OW32563   1.996   6.900   2.693 -0.4749 -0.2479  0.4231
10555SOL    HW132564   1.935   6.923   2.617 -1.3805  0.4894  1.3360
10555SOL    HW232565   2.048   6.818   2.671 -1.7846 -0.8869 -0.4113
10556SOL     OW32566   5.584   0.884   1.300  0.6864 -1.0626  0.2347
10556SOL    HW132567   5.655   0.901   1.368 -0.2744  1.8501  0.6807
10556SOL    HW232568   5.602   0.939   1.219  0.7507 -2.9934 -1.1326
10557SOL     OW32569   0.025   3.772   1.354 -0.1896  0.5689  0.2354
10557SOL    HW132570   0.055   3.837   1.424 -0.2130  0.7771  0.0549
10557SOL    HW232571   0.103   3.717   1.325  0.0473  1.1597 -0.2860
10558SOL     OW32572   0.139   2.592   4.103  0.1023 -0.8912  0.1566
10558SOL    HW132573   0.136   2.669   4.040  0.5916 -1.0995 -0.1264
10558SOL    HW232574   0.122   2.624   4.196  0.4945 -0.4135  0.0647
10559SOL     OW32575   4.355   7.000   4.762  0.2648  0.4608  0.5534
10559SOL    HW132576   4.364   7.006   4.663  1.1479 -1.7932  0.4495
10559SOL    HW232577   4.317   7.086   4.797 -0.3137  1.2089 -1.7393
10560SOL     OW32578   6.627   6.593   4.311  0.2102  0.3402 -0.0624
10560SOL    HW132579   6.584   6.559   4.228 -0.2927  0.9363 -0.0558
10560SOL    HW232580   6.648   6.691   4.299  2.5722 -0.1592 -0.4842
10561SOL     OW32581   1.230   0.666   3.688  0.1968  0.4819 -0.0703
10561SOL    HW132582   1.319   0.670   3.642  0.2708  0.4615  0.0711
10561SOL    HW232583   1.206   0.756   3.724  1.0570  0.0905  1.5893
10562SOL     OW32584   1.588   0.395   1.978 -0.4505  0.2725  1.1003
10562SOL    HW132585   1.649   0.397   2.058 -0.4569  1.3263  1.0879
10562SOL    HW232586   1.631   0.340   1.906 -1.2183 -2.2135  2.3969
10563SOL     OW32587   4.263   5.858   4.828 -0.4173  0.1754  0.1960
10563SOL    HW132588   4.304   5.767   4.835 -0.0914  0.4047  1.8685
10563SOL    HW232589   4.311   5.920   4.890 -0.9669  1.3682 -0.5409
10564SOL     OW32590   1.979   1.152   5.382  0.9358 -0.2237  0.0371
10564SOL    HW132591   2.004   1.137   5.287  0.7626  0.6384 -0.1467
10564SOL    HW232592   1.890   1.110   5.400 -0.3987  2.0553 -0.9499
10565SOL     OW32593   1.174   5.671   2.574 -0.1098  0.2483 -0.0005
10565SOL    HW132594   1.163   5.685   2.673  0.4169 -1.6130  0.3798
10565SOL    HW232595   1.235   5.741   2.537 -1.2125  1.6590  0.7479
10566SOL     OW32596   6.199   6.716   4.995 -0.4008  0.2456 -0.1851
10566SOL    HW132597   6.162   6.721   5.088  1.5213 -0.4893  0.6616
10566SOL    HW232598   6.224   6.622   4.975  0.5853  0.6524 -0.8870
10567SOL     OW32599   6.273   6.060   2.519 -0.0810 -0.7782 -0.2929
10567SOL    HW132600   6.365   6.023   2.533 -0.0334 -0.6380 -0.2412
10567SOL    HW232601   6.238   6.097   2.605  0.0915 -0.1955 -0.4706
10568SOL     OW32602   2.872   2.896   1.701  0.3249  0.5203 -0.6062
10568SOL    HW132603   2.838   2.990   1.706 -0.2980  0.2304  3.2307
10568SOL    HW232604   2.954   2.886   1.758 -0.0756 -1.4547 -0.2999
10569SOL     OW32605   3.780   6.987   6.385  0.3998 -0.1632  0.5402
10569SOL    HW132606   3.735   6.913   6.335 -0.6467  1.2542 -0.7270
10569SOL    HW232607   3.711   7.040   6.435  0.4261  2.3716 -1.8533
10570SOL     OW32608   6.311   2.077   6.029 -0.3710  0.3838 -0.4075
10570SOL    HW132609   6.348   2.148   6.090 -0.7171 -0.6582  1.0848
10570SOL    HW232610   6.348   1.988   6.056  0.7821  0.0482 -2.8263
10571SOL     OW32611   2.450   1.608   0.060 -0.6541  0.3379 -0.2229
10571SOL    HW132612   2.537   1.616   0.011  0.5376  0.6776  1.8361
10571SOL    HW232613   2.442   1.682   0.126 -1.2465 -1.1659  1.4648
10572SOL     OW32614   6.640   5.190   6.836 -0.3909 -0.2086  0.4892
10572SOL    HW132615   6.586   5.123   6.887  0.9139 -2.3981 -0.8399
10572SOL    HW232616   6.625   5.178   6.738  0.7034  0.7126  0.1843
10573SOL     OW32617   4.252   0.820   3.860  0.8340  0.1782 -0.0431
10573SOL    HW132618   4.257   0.720   3.864  1.4736  0.1480 -1.1057
10573SOL    HW232619   4.344   0.858   3.860  0.6096  0.9200  2.4394
10574SOL     OW32620   5.248   3.262   3.467  0.1218  0.3546  0.0657
10574SOL    HW132621   5.193   3.317   3.404 -0.2389  0.4347  0.4485
10574SOL    HW232622   5.331   3.312   3.492  0.8414 -0.1272 -1.2243
10575SOL     OW32623   4.913   2.046   1.560 -0.0482  0.4521  0.1877
10575SOL    HW132624   4.976   2.109   1.515  0.0606  0.0082 -0.2859
10575SOL    HW232625   4.963   1.964   1.590 -0.1946  0.5675  0.7651
10576SOL     OW32626   1.883   2.071   2.711  0.1072  0.4563  0.0169
10576SOL    HW132627   1.975   2.112   2.716 -0.3343  1.3276  1.6486
10576SOL    HW232628   1.815   2.138   2.740 -0.9117 -0.6349  0.2219
10577SOL     OW32629   0.036   3.530   0.471  0.3050  0.4407 -0.1025
10577SOL    HW132630   0.085   3.446   0.451 -0.6757 -0.2318  0.2872
10577SOL    HW232631   0.001   3.527   0.564 -1.7861  0.2485 -0.8532
10578SOL     OW32632   1.633   2.872   5.440  0.2542  0.5056 -0.0814
10578SOL    HW132633   1.644   2.818   5.357  1.1927  1.0608 -0.3323
10578SOL    HW232634   1.541   2.909   5.445 -0.4384 -1.1588  0.1287
10579SOL     OW32635   2.957   0.637   1.911  0.4537  0.2635 -0.0752
10579SOL    HW132636   2.924   0.544   1.928 -0.3428  0.5081 -0.2393
10579SOL    HW232637   2.913   0.700   1.975  0.7128  0.5845 -0.2087
10580SOL     OW32638   0.741   5.815   3.710 -0.1450  0.0806  0.5924
10580SOL    HW132639   0.809   5.774   3.650 -0.6190  0.6616 -0.3580
10580SOL    HW232640   0.773   5.809   3.805  0.4524 -1.1623  0.3427
10581SOL     OW32641   4.859   1.449   0.070 -0.3781 -0.4515 -0.5647
10581SOL    HW132642   4.772   1.404   0.089 -0.7701  0.3972 -0.2898
10581SOL    HW232643   4.857   1.491  -0.020 -0.0147 -0.9732 -0.8201
10582SOL     OW32644   2.255   4.276   6.521 -0.2886  0.3215 -0.0562
10582SOL    HW132645   2.252   4.372   6.548  2.1592  0.2950  0.4811
10582SOL    HW232646   2.252   4.269   6.421  1.0454  1.0766 -0.1629
10583SOL     OW32647   6.528   1.850   3.945 -0.1486  0.1234 -0.7727
10583SOL    HW132648   6.599   1.859   3.876  0.0427 -0.0611 -0.5992
10583SOL    HW232649   6.544   1.917   4.018  0.4509 -0.6256 -0.2060
10584SOL     OW32650   6.987   3.715   2.245 -0.0977  0.4346  0.1581
10584SOL    HW132651   7.033   3.627   2.238 -0.9844 -0.0128 -0.0753
10584SOL    HW232652   7.012   3.772   2.167 -1.4363 -0.5193 -0.9890
10585SOL     OW32653   2.680   5.982   4.674 -0.0223 -0.2385  0.3904
10585SOL    HW132654   2.607   5.968   4.742  0.4989  0.8234  1.1864
10585SOL    HW232655   2.721   6.072   4.686 -0.3381  0.2599 -1.7607
10586SOL     OW32656   5.855   6.404   0.191  0.0810 -0.5550  0.8009
10586SOL    HW132657   5.907   6.426   0.274  0.1717  0.6632  0.4402
10586SOL    HW232658   5.867   6.478   0.124 -0.2605 -1.3641 -0.1717
10587SOL     OW32659   6.555   4.035   1.139 -0.2585  0.3375  0.7530
10587SOL    HW132660   6.631   4.003   1.196 -1.6788 -0.3830  2.3591
10587SOL    HW232661   6.521   3.959   1.084 -0.4305  0.4099  0.7600
10588SOL     OW32662   1.393   5.061   6.171 -0.5777 -0.1712  0.5256
10588SOL    HW132663   1.430   5.072   6.263  0.9320 -1.7923  0.1842
10588SOL    HW232664   1.438   4.983   6.127 -0.2599  1.3484 -2.0586
10589SOL     OW32665   4.185   1.917   5.456 -0.1751 -0.2257  0.0853
10589SOL    HW132666   4.125   1.985   5.413 -0.6473  0.3508  1.5764
10589SOL    HW232667   4.279   1.951   5.456 -0.2551  0.0012 -0.0459
10590SOL     OW32668   2.488   4.848   4.601  0.4738 -0.9018 -0.1553
10590SOL    HW132669   2.500   4.749   4.605  0.0252 -0.9564 -0.0551
10590SOL    HW232670   2.480   4.885   4.693 -0.1131 -0.8752 -0.2103
10591SOL     OW32671   0.256   3.339   3.175 -0.0121 -0.9121  0.0336
10591SOL    HW132672   0.191   3.263   3.176 -0.3499 -0.7547 -2.5327
10591SOL    HW232673   0.256   3.382   3.085 -0.0513  2.3774  1.4630
10592SOL     OW32674   6.042   5.635   1.185 -0.4360 -0.0577 -0.1994
10592SOL    HW132675   5.943   5.645   1.197 -0.1954  0.8496  1.1835
10592SOL    HW232676   6.067   5.667   1.093 -1.5401 -1.3466 -0.9890
10593SOL     OW32677   6.221   5.331   3.922 -0.0801  0.0030  0.3747
10593SOL    HW132678   6.290   5.395   3.891  0.3231 -0.5359  0.1405
10593SOL    HW232679   6.215   5.334   4.022 -0.0717  0.4065  0.3635
10594SOL     OW32680   5.149   6.845   5.802 -0.4514 -0.3713  0.0951
10594SOL    HW132681   5.081   6.904   5.757 -0.9847 -1.0636 -0.0196
10594SOL    HW232682   5.176   6.772   5.740  0.9748  0.3060 -0.1412
10595SOL     OW32683   2.170   4.306   6.261  0.3954 -0.6468  0.6315
10595SOL    HW132684   2.227   4.288   6.181 -0.2959 -0.6662  0.1402
10595SOL    HW232685   2.138   4.400   6.260  2.4105  0.1335  2.1983
10596SOL     OW32686   1.203   3.744   2.874 -0.0751 -0.3204 -0.0513
10596SOL    HW132687   1.302   3.751   2.870  0.3843 -4.4847 -1.3529
10596SOL    HW232688   1.164   3.780   2.789  0.6222 -0.7924 -0.5921
10597SOL     OW32689   6.629   4.202   5.097  0.2997  0.0302 -0.1835
10597SOL    HW132690   6.623   4.135   5.171  0.3937 -1.5914 -1.5875
10597SOL    HW232691   6.558   4.271   5.109  0.7217  0.2025  1.7526
10598SOL     OW32692   3.038   5.107   2.098 -0.2284 -0.3394  0.0389
10598SOL    HW132693   2.974   5.149   2.162  0.8324  0.1951  0.7707
10598SOL    HW232694   3.018   5.009   2.090 -0.3896 -0.4063  1.1633
10599SOL     OW32695   0.452   2.094   4.337 -0.0195  0.9627  0.4555
10599SOL    HW132696   0.439   2.005   4.294  1.6648  1.8192 -2.0775
10599SOL    HW232697   0.389   2.160   4.296 -0.5399  1.1752  1.5684
10600SOL     OW32698   0.969   5.808   3.901 -0.1905 -0.4034  0.4204
10600SOL    HW132699   0.999   5.859   3.820 -0.6383 -1.2407 -0.2849
10600SOL    HW232700   0.928   5.871   3.966  0.7285  0.3754  0.2704
10601SOL     OW32701   6.821   6.288   1.784 -0.0470  0.8509 -0.4550
10601SOL    HW132702   6.773   6.284   1.696 -1.0824  3.1739 -0.0787
10601SOL    HW232703   6.772   6.234   1.852  0.2569 -0.2233 -1.0720
10602SOL     OW32704   2.763   7.004   3.677  0.1100 -0.4029  0.3115
10602SOL    HW132705   2.716   7.023   3.591 -0.4259 -0.0954  0.6687
10602SOL    HW232706   2.830   7.077   3.695 -0.9872  0.4646  1.0003
10603SOL     OW32707   2.831   4.856   5.206 -0.3581 -0.2586 -0.0766
10603SOL    HW132708   2.807   4.770   5.162 -1.0039  0.0563 -0.3595
10603SOL    HW232709   2.903   4.841   5.273  0.6399 -0.7531 -1.2287
10604SOL     OW32710   6.488   0.066   4.415  0.0541 -0.0710 -0.0795
10604SOL    HW132711   6.587   0.083   4.421  0.3333 -1.8335  1.0919
10604SOL    HW232712   6.444   0.096   4.499 -0.2014 -0.4646 -0.0729
10605SOL     OW32713   3.204   6.374   3.709 -0.1026 -0.5120  0.1889
10605SOL    HW132714   3.112   6.413   3.719  0.5320  1.0859 -0.0229
10605SOL    HW232715   3.231   6.330   3.794 -1.0093 -0.9236  0.2823
10606SOL     OW32716   3.853   6.592   5.540  0.1637 -0.0603  0.0752
10606SOL    HW132717   3.873   6.568   5.635 -1.3081 -1.9467 -0.0249
10606SOL    HW232718   3.759   6.564   5.518  0.7376 -0.3959 -2.1601
10607SOL     OW32719   1.854   3.308   3.244  0.4318 -0.1835  0.2168
10607SOL    HW132720   1.781   3.312   3.176  1.0435  0.7682 -0.4089
10607SOL    HW232721   1.935   3.266   3.203  1.4113  2.0372 -0.2778
10608SOL     OW32722   0.060   5.920   6.155  0.2081  0.6556  0.5788
10608SOL    HW132723   0.061   5.999   6.094  1.7464  0.2481  0.0165
10608SOL    HW232724  -0.033   5.903   6.186 -0.6380  0.9410 -1.5955
10609SOL     OW32725   0.868   3.629   1.463 -0.1912 -0.8537 -0.6340
10609SOL    HW132726   0.932   3.577   1.520 -0.4738 -0.6184 -0.0896
10609SOL    HW232727   0.887   3.611   1.367  1.1577 -0.2333 -0.5012
10610SOL     OW32728   3.417   5.320   3.613 -0.1212 -0.3550  0.3575
10610SOL    HW132729   3.352   5.248   3.635  1.0567 -1.4041  0.4994
10610SOL    HW232730   3.489   5.322   3.682 -0.2737  1.1568  0.5077
10611SOL     OW32731   0.802   4.538   5.418 -0.2419 -0.7162  0.1654
10611SOL    HW132732   0.840   4.447   5.405 -0.8874 -1.2295  1.6376
10611SOL    HW232733   0.792   4.557   5.516 -0.4338  0.8034 -0.1170
10612SOL     OW32734   3.325   1.135   0.693 -0.2750  0.4141  0.7509
10612SOL    HW132735   3.246   1.193   0.675 -0.0882 -0.1587 -2.5685
10612SOL    HW232736   3.294   1.044   0.722 -0.9314  0.1102 -0.7852
10613SOL     OW32737   2.438   5.238   1.469  0.4736 -0.0737 -0.0845
10613SOL    HW132738   2.516   5.276   1.519 -0.0942 -0.7668  1.3833
10613SOL    HW232739   2.420   5.145   1.502 -2.2545  0.7755  1.1645
10614SOL     OW32740   2.692   2.457   1.820  0.2396 -0.4420  0.3214
10614SOL    HW132741   2.783   2.433   1.853  1.7386  1.5822 -2.0113
10614SOL    HW232742   2.663   2.389   1.753  0.0476 -1.0390  0.9973
10615SOL     OW32743   6.484   3.517   4.377  0.3274 -0.1337 -0.6963
10615SOL    HW132744   6.499   3.531   4.475 -2.0472  0.3610 -0.3633
10615SOL    HW232745   6.513   3.425   4.352  0.6893 -0.3718  0.5244
10616SOL     OW32746   5.115   1.976   2.147  0.6256 -0.1152 -0.4302
10616SOL    HW132747   5.172   2.057   2.160 -0.2769  0.5740 -0.6620
10616SOL    HW232748   5.065   1.957   2.232  0.8505 -0.4477 -0.3694
10617SOL     OW32749   1.103   0.032   4.791  0.3552  0.0505  0.4705
10617SOL    HW132750   1.152   0.091   4.855  2.6535 -0.3074 -0.8496
10617SOL    HW232751   1.167  -0.035   4.751 -0.9088  0.3603 -2.3053
10618SOL     OW32752   0.103   4.374   1.162 -0.3919  0.3133  0.4032
10618SOL    HW132753   0.046   4.310   1.111  0.2963 -0.1036  0.1415
10618SOL    HW232754   0.048   4.454   1.187 -0.9256  0.2165 -0.3921
10619SOL     OW32755   3.574   2.905   4.340  0.7691 -0.0416 -0.3853
10619SOL    HW132756   3.549   2.846   4.416  0.0466  0.8387  0.0640
10619SOL    HW232757   3.667   2.881   4.309  1.2025 -0.1815  0.9700
10620SOL     OW32758   0.487   0.956   6.037 -0.2768 -0.1185  0.0360
10620SOL    HW132759   0.570   1.010   6.021  1.2918 -2.3688  0.1117
10620SOL    HW232760   0.422   1.010   6.091  1.6015  1.3444  0.9569
10621SOL     OW32761   2.239   5.261   3.170 -0.5357 -0.1941 -0.5241
10621SOL    HW132762   2.236   5.223   3.263  2.4821  3.8538  1.5362
10621SOL    HW232763   2.148   5.294   3.144 -1.0301  0.7195  2.0897
10622SOL     OW32764   1.704   0.302   0.747 -0.0360 -0.1518  0.4897
10622SOL    HW132765   1.783   0.346   0.705  0.9626 -0.4286  1.9891
10622SOL    HW232766   1.625   0.308   0.686  0.5264  2.1284 -0.0809
10623SOL     OW32767   0.403   2.321   1.370  0.2051  0.4530  0.5196
10623SOL    HW132768   0.324   2.381   1.384 -0.9364 -1.0959  1.0034
10623SOL    HW232769   0.398   2.281   1.279  1.2144  1.4053  0.0239
10624SOL     OW32770   0.109   6.532   6.921  0.1471 -0.7907  0.4085
10624SOL    HW132771   0.085   6.542   7.017  0.8007 -0.9218  0.5852
10624SOL    HW232772   0.026   6.515   6.868 -0.2312 -0.5908  0.9261
10625SOL     OW32773   1.300   0.355   6.315 -0.4762 -0.1123 -0.1846
10625SOL    HW132774   1.321   0.273   6.261  2.0406  1.3123 -1.5419
10625SOL    HW232775   1.274   0.429   6.254 -1.0549  0.5846  0.8876
10626SOL     OW32776   1.752   2.731   2.934  0.2488 -0.0593 -0.5368
10626SOL    HW132777   1.791   2.699   3.021 -0.1069  0.2211 -0.2682
10626SOL    HW232778   1.683   2.665   2.903  0.5288 -0.2674 -0.7164
10627SOL     OW32779   2.611   1.289   2.237 -0.1276  0.2180 -0.8669
10627SOL    HW132780   2.644   1.359   2.300 -0.9211 -0.8982  0.8395
10627SOL    HW232781   2.549   1.331   2.171 -1.3993  0.9834  0.7451
10628SOL     OW32782   0.789   3.296   1.342  0.0807 -0.3524 -0.0861
10628SOL    HW132783   0.852   3.337   1.277  1.1144  0.1895  1.2045
10628SOL    HW232784   0.791   3.348   1.428 -1.1282 -1.1196  0.4348
10629SOL     OW32785   2.187   0.762   3.766 -1.1032 -0.5367 -0.4297
10629SOL    HW132786   2.266   0.764   3.828 -0.4900 -0.2149 -1.2139
10629SOL    HW232787   2.129   0.683   3.789 -0.7896 -0.5276  0.4277
10630SOL     OW32788   2.602   3.727   6.213  0.2623  0.0117  0.0495
10630SOL    HW132789   2.609   3.717   6.113  1.2826 -0.1554  0.1301
10630SOL    HW232790   2.654   3.807   6.241 -1.7745  1.3624  0.2342
10631SOL     OW32791   3.536   5.221   2.819 -0.7084 -0.9679 -0.5857
10631SOL    HW132792   3.611   5.245   2.881 -0.7226 -0.8554 -0.6123
10631SOL    HW232793   3.573   5.177   2.737 -0.5316  0.4649 -1.3036
10632SOL     OW32794   2.250   4.754   6.335 -0.4501  0.5595  0.3136
10632SOL    HW132795   2.298   4.715   6.256 -0.0029 -0.7935  1.2069
10632SOL    HW232796   2.153   4.730   6.330 -0.2389 -0.4598  0.6786
10633SOL     OW32797   0.060   0.161   1.098 -0.0063  0.0189  0.4493
10633SOL    HW132798   0.036   0.212   1.182 -0.3312  1.4548 -0.4753
10633SOL    HW232799   0.141   0.202   1.057  0.2230 -0.7623  0.1293
10634SOL     OW32800   2.788   6.453   0.941  0.8398  0.3919 -0.3277
10634SOL    HW132801   2.744   6.529   0.894  2.0139  0.0599 -2.0736
10634SOL    HW232802   2.880   6.480   0.970  0.5312  0.2423  0.8073
10635SOL     OW32803   5.571   5.053   2.858  0.0281  0.1336  0.2330
10635SOL    HW132804   5.544   5.038   2.763  0.1971 -0.8923  0.3381
10635SOL    HW232805   5.519   4.991   2.918  2.1348 -1.4623  0.5004
10636SOL     OW32806   6.155   0.962   5.304  0.1136 -0.2035  0.3438
10636SOL    HW132807   6.207   1.046   5.323  1.4764 -0.6007 -1.3473
10636SOL    HW232808   6.200   0.912   5.230 -1.7598 -1.4701  0.0065
10637SOL     OW32809   5.142   5.784   5.770 -0.3305  0.6263  0.5939
10637SOL    HW132810   5.076   5.744   5.706 -0.3812 -0.8627  1.5289
10637SOL    HW232811   5.102   5.787   5.861  1.0023 -0.7416  1.2762
10638SOL     OW32812   4.698   2.431   6.010  0.0286 -0.1870  0.2207
10638SOL    HW132813   4.726   2.526   6.024  0.8945  0.2756 -3.6118
10638SOL    HW232814   4.614   2.429   5.957 -0.5043 -1.6110  1.0792
10639SOL     OW32815   2.815   3.996   6.063 -0.0193 -0.4868  0.1460
10639SOL    HW132816   2.869   3.917   6.036  2.2482  0.9541  0.2090
10639SOL    HW232817   2.826   4.069   5.996  0.8402  1.0236  1.8550
10640SOL     OW32818   3.837   6.286   6.057 -0.3329 -0.6784 -0.1355
10640SOL    HW132819   3.867   6.250   5.968  0.0856 -0.4972 -0.0682
10640SOL    HW232820   3.766   6.227   6.094 -0.6296 -0.6686 -0.6668
10641SOL     OW32821   3.645   2.092   4.508 -0.1046 -0.0291  0.1983
10641SOL    HW132822   3.682   2.004   4.477  2.0741  1.0945 -0.5015
10641SOL    HW232823   3.563   2.114   4.454  0.2773 -0.8630 -0.7613
10642SOL     OW32824   1.036   4.169   1.521  0.2605 -0.1648 -0.0801
10642SOL    HW132825   1.006   4.099   1.587 -0.1572  0.2374  0.1655
10642SOL    HW232826   1.005   4.144   1.430  1.7655 -1.2879 -0.3287
10643SOL     OW32827   2.793   4.275   0.983  0.0095 -0.0464 -0.4314
10643SOL    HW132828   2.841   4.353   1.023 -0.4429  1.3553 -2.4726
10643SOL    HW232829   2.694   4.293   0.984  0.0604  1.1262 -4.0921
10644SOL     OW32830   2.722   2.785   6.169  0.4053  0.4261  0.1534
10644SOL    HW132831   2.775   2.850   6.114 -0.1327  1.7391  1.1190
10644SOL    HW232832   2.715   2.820   6.263 -2.0932  0.2783  0.0795
10645SOL     OW32833   5.249   1.838   2.378 -0.1986 -0.1995 -0.0514
10645SOL    HW132834   5.200   1.755   2.405 -0.5465 -0.2927 -0.9323
10645SOL    HW232835   5.244   1.849   2.278 -1.2082  1.5235  0.1530
10646SOL     OW32836   2.720   2.190   6.522  0.2834  0.6738  0.1175
10646SOL    HW132837   2.748   2.249   6.597  0.1755  0.8280  0.0357
10646SOL    HW232838   2.786   2.116   6.512  2.0157  2.3233 -1.5841
10647SOL     OW32839   4.667   4.409   5.952 -0.7890  0.2428  0.1145
10647SOL    HW132840   4.631   4.362   5.871 -0.9510 -0.6706  0.7025
10647SOL    HW232841   4.651   4.353   6.033  0.2493  0.6960  0.6535
10648SOL     OW32842   5.057   5.221   5.293 -0.5655  0.0392  0.0620
10648SOL    HW132843   5.024   5.311   5.323 -1.7279 -0.9535  1.9785
10648SOL    HW232844   5.136   5.195   5.347 -0.6650 -0.3842  0.0052
10649SOL     OW32845   5.974   6.321   4.058  0.0756 -0.0583 -0.1017
10649SOL    HW132846   5.912   6.246   4.080 -0.9746  1.1794  1.3634
10649SOL    HW232847   6.008   6.310   3.964 -1.8513 -1.1125 -0.7264
10650SOL     OW32848   2.415   6.941   2.449 -0.0093 -0.5147 -0.0499
10650SOL    HW132849   2.492   6.994   2.415  0.2791 -0.6868  0.3345
10650SOL    HW232850   2.350   6.926   2.374 -1.0522  1.9913  0.2589
10651SOL     OW32851   1.095   5.505   5.750 -0.3174  0.0995  0.1845
10651SOL    HW132852   1.001   5.491   5.781 -0.5167  0.0445 -0.4365
10651SOL    HW232853   1.096   5.517   5.651  0.7323 -3.9292 -0.4765
10652SOL     OW32854   3.024   3.261   4.067  0.1723  0.1696  0.3795
10652SOL    HW132855   3.070   3.176   4.092  2.5566  0.9987 -0.9330
10652SOL    HW232856   3.018   3.320   4.147  0.5835 -0.3152  0.7788
10653SOL     OW32857   4.056   5.832   2.734  0.9213  0.4375 -0.4912
10653SOL    HW132858   4.029   5.920   2.695  1.4385  0.2919 -1.1988
10653SOL    HW232859   4.023   5.758   2.674 -1.0586  0.0327  0.9829
10654SOL     OW32860   2.328   3.955   6.067  0.0791  0.0267  0.0396
10654SOL    HW132861   2.233   3.930   6.084 -0.5538  2.9221  1.3079
10654SOL    HW232862   2.388   3.888   6.112 -1.3844 -0.8502  0.7761
10655SOL     OW32863   6.303   6.503   4.651  0.5512  0.3210  0.4259
10655SOL    HW132864   6.244   6.526   4.573  0.8792 -0.6886 -0.1293
10655SOL    HW232865   6.396   6.532   4.632  1.4062 -2.9826 -1.1272
10656SOL     OW32866   6.948   6.520   0.606  0.5582  0.2644  0.5283
10656SOL    HW132867   6.920   6.567   0.690 -0.9357  0.0271  0.1903
10656SOL    HW232868   6.966   6.424   0.626 -0.9362 -0.0716  0.4082
10657SOL     OW32869   1.149   4.984   5.814 -0.4359 -0.4651  0.4805
10657SOL    HW132870   1.156   4.910   5.746  0.1260 -0.1466  0.1828
10657SOL    HW232871   1.082   4.959   5.884 -0.7589 -0.9585  0.0069
10658SOL     OW32872   2.893   5.318   3.286  0.6859  0.4064  0.0319
10658SOL    HW132873   2.910   5.416   3.274  0.4961  0.3184 -1.0946
10658SOL    HW232874   2.944   5.267   3.217 -0.7332 -0.1345 -0.6556
10659SOL     OW32875   1.880   1.242   4.529  0.3350  0.3781 -0.3769
10659SOL    HW132876   1.820   1.318   4.556  1.5929  1.4555 -0.5464
10659SOL    HW232877   1.970   1.255   4.570  0.8155 -0.5922 -1.1094
10660SOL     OW32878   3.814   3.543   5.225  0.0291  0.2580 -0.6068
10660SOL    HW132879   3.746   3.471   5.229 -3.1762  3.1124  1.5641
10660SOL    HW232880   3.793   3.605   5.149 -1.4400  2.4352  1.4176
10661SOL     OW32881   6.142   4.429   4.556  0.2578  0.5310  0.3002
10661SOL    HW132882   6.166   4.341   4.598 -1.1491 -1.6922 -3.0812
10661SOL    HW232883   6.052   4.458   4.589 -1.2240 -1.6184 -1.5599
10662SOL     OW32884   6.521   0.323   5.493  0.0229  0.7683  0.4548
10662SOL    HW132885   6.540   0.393   5.562  1.7456  2.5102 -1.6490
10662SOL    HW232886   6.480   0.365   5.412 -1.3408 -1.1186  0.0763
10663SOL     OW32887   4.024   4.843   2.060  0.4440  0.0062  0.0699
10663SOL    HW132888   3.967   4.874   2.135 -0.9556 -0.5086 -0.7452
10663SOL    HW232889   4.077   4.763   2.089  3.4152  2.4413  1.8971
10664SOL     OW32890   1.808   4.331   6.162 -0.5226  0.9403  0.1619
10664SOL    HW132891   1.721   4.375   6.185 -1.5249 -0.8292 -0.0609
10664SOL    HW232892   1.794   4.265   6.089  0.1716 -2.0731  2.5480
10665SOL     OW32893   1.108   0.430   4.021  0.6342  0.2086  0.0311
10665SOL    HW132894   1.205   0.446   4.007  0.4954  0.7745 -0.3045
10665SOL    HW232895   1.093   0.387   4.110  1.1921  0.0484  0.0491
10666SOL     OW32896   4.400   6.528   0.565  0.0170  0.5212 -0.1426
10666SOL    HW132897   4.447   6.486   0.643  1.9622  0.6953 -1.1456
10666SOL    HW232898   4.399   6.464   0.489  0.6833  1.3250 -0.8526
10667SOL     OW32899   4.540   2.548   3.692  0.4799 -0.2992 -0.4750
10667SOL    HW132900   4.621   2.581   3.740 -0.0054 -0.6902  0.6530
10667SOL    HW232901   4.529   2.597   3.605  0.4075  1.6806  0.6077
10668SOL     OW32902   6.445   2.470   4.746 -0.0570 -0.1849  0.0615
10668SOL    HW132903   6.388   2.524   4.683  2.1148  2.7872  0.4652
10668SOL    HW232904   6.530   2.444   4.700  2.0813  2.9873  1.8370
10669SOL     OW32905   0.470   3.239   6.357 -0.1940 -0.5490  0.0233
10669SOL    HW132906   0.471   3.317   6.294  1.1510 -0.8725 -0.3979
10669SOL    HW232907   0.537   3.171   6.327 -1.3266 -1.8785  0.3924
10670SOL     OW32908   1.844   4.082   5.545 -0.4488 -0.0384 -0.3773
10670SOL    HW132909   1.816   3.986   5.538  0.3373 -0.1775 -3.4499
10670SOL    HW232910   1.798   4.135   5.474  1.4584  1.1843 -0.7728
10671SOL     OW32911   4.015   1.228   2.861 -0.1788  0.4162 -0.5468
10671SOL    HW132912   3.999   1.146   2.917 -0.7597  1.0174  0.1873
10671SOL    HW232913   4.113   1.246   2.856 -0.1069  0.2624  0.1605
10672SOL     OW32914   5.910   6.615   0.013 -0.3835  0.8697 -0.2935
10672SOL    HW132915   6.010   6.620   0.012 -0.2628 -0.2522  1.1952
10672SOL    HW232916   5.878   6.569  -0.069  0.5316 -0.8504  0.2622
10673SOL     OW32917   3.327   1.637   4.064  0.3546 -0.0903 -0.2857
10673SOL    HW132918   3.394   1.590   4.006  1.9996  0.5013  1.0454
10673SOL    HW232919   3.369   1.720   4.102 -1.4473  0.7636 -0.0782
10674SOL     OW32920   1.610   4.678   5.416 -0.2521 -0.6139  0.5184
10674SOL    HW132921   1.574   4.768   5.441  0.4898 -0.6619  1.8535
10674SOL    HW232922   1.586   4.612   5.487  1.6640 -0.8286  1.0371
10675SOL     OW32923   0.205   7.008   5.324 -0.3078  0.4438 -0.5386
10675SOL    HW132924   0.238   6.918   5.354 -1.5962 -0.9563 -3.0105
10675SOL    HW232925   0.116   7.026   5.364  1.2542  2.1848  2.5088
10676SOL     OW32926   3.538   0.437   3.204 -0.5046 -0.4403  0.0056
10676SOL    HW132927   3.482   0.367   3.248  0.1830 -1.0920 -0.1449
10676SOL    HW232928   3.634   0.410   3.207 -0.1602  0.7620  0.4466
10677SOL     OW32929   5.205   2.049   0.497  0.0002  0.3417  0.3689
10677SOL    HW132930   5.133   2.117   0.503 -0.4019 -0.0722  0.2488
10677SOL    HW232931   5.252   2.043   0.585 -1.2299 -0.5999  0.9913
10678SOL     OW32932   6.866   2.322   0.472  0.0868  0.6575  0.1401
10678SOL    HW132933   6.915   2.380   0.407 -0.3401  0.2359 -0.5723
10678SOL    HW232934   6.931   2.264   0.521  0.2192 -1.4901 -2.3493
10679SOL     OW32935   4.221   3.563   0.835  0.3922  0.9807 -0.4449
10679SOL    HW132936   4.276   3.646   0.822  0.6904  0.7038 -0.9982
10679SOL    HW232937   4.253   3.515   0.916  0.3845  1.2759 -0.2639
10680SOL     OW32938   6.509   5.261   3.851 -0.0286  0.2988  0.1223
10680SOL    HW132939   6.442   5.191   3.828  1.3648 -1.5928  1.5472
10680SOL    HW232940   6.466   5.329   3.912 -1.3609  0.6898 -1.1964
10681SOL     OW32941   6.459   2.214   2.023  0.6890 -0.1970  0.0550
10681SOL    HW132942   6.412   2.224   1.935  0.0047 -1.5456  0.2463
10681SOL    HW232943   6.522   2.137   2.018  1.1183  0.1149  0.5641
10682SOL     OW32944   0.321   0.218   6.391  0.0490  0.9755 -0.0348
10682SOL    HW132945   0.238   0.175   6.354  1.0820 -2.2106  0.9761
10682SOL    HW232946   0.302   0.313   6.416 -2.6383  1.0230 -1.8621
10683SOL     OW32947   2.599   3.326   1.047 -0.0217  0.3218 -0.4287
10683SOL    HW132948   2.533   3.265   1.003  1.4470 -0.0451 -2.2741
10683SOL    HW232949   2.584   3.419   1.016 -0.1240  0.3480 -0.2989
10684SOL     OW32950   5.902   5.384   0.407 -0.0329 -0.2865  0.3859
10684SOL    HW132951   5.962   5.315   0.366  0.8819  1.6509 -1.7919
10684SOL    HW232952   5.851   5.343   0.482  0.2794 -3.3659 -0.9116
10685SOL     OW32953   0.212   4.358   0.675 -0.0756  0.8479  0.0882
10685SOL    HW132954   0.252   4.427   0.735 -1.4018  0.1749  1.8293
10685SOL    HW232955   0.115   4.348   0.695 -0.4455  0.1564 -1.8013
10686SOL     OW32956   1.878   4.065   4.335  0.8690  0.1211 -0.1998
10686SOL    HW132957   1.849   4.031   4.245 -3.2297  1.1971  0.5339
10686SOL    HW232958   1.842   4.005   4.406  0.2862  1.6717  0.8435
10687SOL     OW32959   6.282   0.081   1.775  0.4961  0.0414 -0.2346
10687SOL    HW132960   6.310   0.028   1.695 -1.8522 -1.2785 -0.2832
10687SOL    HW232961   6.312   0.035   1.858  0.9953  0.2266 -0.3074
10688SOL     OW32962   0.932   1.177   6.057 -0.6715  0.2663 -0.7788
10688SOL    HW132963   0.983   1.101   6.018  0.1798  0.9852 -1.0951
10688SOL    HW232964   0.844   1.186   6.010 -0.2306  0.2716 -1.6245
10689SOL     OW32965   6.039   6.850   1.794 -0.3276 -0.4337  0.0182
10689SOL    HW132966   6.065   6.926   1.853 -3.0287 -1.2987  2.5513
10689SOL    HW232967   6.108   6.839   1.722  2.2782  1.7558  1.9511
10690SOL     OW32968   1.872   1.697   5.562 -0.6077  0.2436  0.0950
10690SOL    HW132969   1.837   1.641   5.637 -2.7315  1.7764  0.3629
10690SOL    HW232970   1.866   1.647   5.476  1.9256 -1.5661  0.8516
10691SOL     OW32971   0.373   0.833   4.608  0.1622  0.3774  0.3334
10691SOL    HW132972   0.293   0.816   4.551  1.3127 -2.5755 -0.5831
10691SOL    HW232973   0.397   0.750   4.657  0.6664  2.1747  3.3449
10692SOL     OW32974   3.029   5.198   0.894 -0.8395  0.5443 -0.2236
10692SOL    HW132975   2.934   5.169   0.882 -1.0579  1.5784 -1.1848
10692SOL    HW232976   3.065   5.231   0.807 -0.0294  1.3972  0.4050
10693SOL     OW32977   2.200   6.206   6.567  0.0091  0.4278  0.3128
10693SOL    HW132978   2.223   6.121   6.614  1.9161  0.9597  0.4172
10693SOL    HW232979   2.150   6.185   6.483 -0.3165 -0.7394  0.7875
10694SOL     OW32980   1.508   4.676   2.274  0.2776 -0.0318  0.3351
10694SOL    HW132981   1.582   4.637   2.329  0.6923  0.0308 -0.1707
10694SOL    HW232982   1.534   4.767   2.242  0.5769 -0.5693 -1.0175
10695SOL     OW32983   2.060   4.714   6.899  1.1390  0.5659  0.7428
10695SOL    HW132984   2.044   4.633   6.955  0.6119 -0.5732 -0.9861
10695SOL    HW232985   2.067   4.795   6.958 -0.4351 -0.4161  2.3621
10696SOL     OW32986   0.898   3.133   2.841  0.1179  0.0417 -0.0229
10696SOL    HW132987   0.830   3.067   2.808  0.5157 -0.9505  1.0596
10696SOL    HW232988   0.857   3.223   2.848 -1.3459 -0.6850  1.3347
10697SOL     OW32989   4.347   2.325   0.661  0.2345  0.2884 -0.4853
10697SOL    HW132990   4.277   2.343   0.731  0.3017 -0.7195 -0.1469
10697SOL    HW232991   4.437   2.351   0.698  0.1750  0.5307 -0.5069
10698SOL     OW32992   4.411   4.598   3.173 -0.3184  0.1014 -0.2388
10698SOL    HW132993   4.371   4.601   3.081  0.9946  0.7888 -0.8162
10698SOL    HW232994   4.350   4.645   3.238 -0.7326  0.6050 -0.9764
10699SOL     OW32995   0.319   0.546   0.779 -0.1693 -0.0960 -0.1156
10699SOL    HW132996   0.329   0.546   0.878  0.4647 -0.4429 -0.1774
10699SOL    HW232997   0.272   0.630   0.751 -0.0364  0.1728  0.4417
10700SOL     OW32998   5.431   2.501   2.338  0.1427  0.0530 -0.6392
10700SOL    HW132999   5.365   2.567   2.302 -0.0729 -0.5237 -1.3080
10700SOL    HW233000   5.384   2.430   2.389  0.3363  0.1761 -0.2884
10701SOL     OW33001   6.435   3.560   0.530 -0.2365 -0.5618  0.5434
10701SOL    HW133002   6.527   3.526   0.511 -0.8582 -1.2475 -1.5235
10701SOL    HW233003   6.437   3.660   0.534  0.7171 -0.5955  1.3238
10702SOL     OW33004   3.419   5.866   4.850 -0.4621  0.3795  0.3589
10702SOL    HW133005   3.413   5.816   4.937 -2.7018 -1.5890 -0.8112
10702SOL    HW233006   3.481   5.818   4.788 -0.3595  0.7063  0.2034
10703SOL     OW33007   5.612   6.386   3.011 -0.3627  0.4430 -0.1568
10703SOL    HW133008   5.650   6.453   2.947  2.6154 -0.1830  0.7965
10703SOL    HW233009   5.584   6.432   3.095 -1.4479  0.8790 -0.7441
10704SOL     OW33010   0.699   6.887   1.637 -0.4976 -0.2265  0.0680
10704SOL    HW133011   0.630   6.839   1.690  0.2518 -0.5196  0.8060
10704SOL    HW233012   0.770   6.823   1.608  1.1612  0.5409  2.1158
10705SOL     OW33013   3.339   6.129   4.755 -0.4054 -0.5078  0.1083
10705SOL    HW133014   3.408   6.057   4.768  0.1350  0.1722  1.1252
10705SOL    HW233015   3.360   6.179   4.671  0.4045 -0.2577  0.4439
10706SOL     OW33016   0.701   5.435   2.429  0.3148 -0.4224 -0.3173
10706SOL    HW133017   0.746   5.346   2.416  0.5313 -0.1753 -1.3323
10706SOL    HW233018   0.633   5.427   2.502  0.9902 -1.1745  0.2599
10707SOL     OW33019   4.828   4.507   5.438  0.8450  0.2940  0.4544
10707SOL    HW133020   4.770   4.585   5.460 -1.3958 -1.0176 -0.4326
10707SOL    HW233021   4.847   4.506   5.340 -2.1345 -1.9971 -0.2775
10708SOL     OW33022   0.003   2.625   0.839 -0.2484  0.0796  0.0530
10708SOL    HW133023  -0.079   2.598   0.789 -0.4762 -2.1218  1.4740
10708SOL    HW233024   0.083   2.581   0.799 -0.4623 -1.8891  1.6634
10709SOL     OW33025   0.807   3.750   6.997  0.0563 -0.0539  0.3030
10709SOL    HW133026   0.777   3.813   6.925  0.7992 -0.3519 -0.2879
10709SOL    HW233027   0.902   3.770   7.021 -0.0128 -0.3232  0.8043
10710SOL     OW33028   4.903   4.036   2.803  0.1685 -0.3488 -0.3876
10710SOL    HW133029   4.943   4.107   2.861 -1.5974  1.1027 -0.8675
10710SOL    HW233030   4.853   3.971   2.861 -2.0235  1.3764 -0.1917
10711SOL     OW33031   6.051   1.139   1.242  0.2111  0.0840 -0.5249
10711SOL    HW133032   6.068   1.041   1.245 -0.0864  0.0519  0.9451
10711SOL    HW233033   5.989   1.165   1.316  2.4202  1.7589  0.8769
10712SOL     OW33034   5.753   1.554   4.903 -0.4705  0.1730  0.1412
10712SOL    HW133035   5.739   1.595   4.994 -2.5236 -0.6731  0.2534
10712SOL    HW233036   5.675   1.575   4.845  0.4217 -0.0439 -1.1744
10713SOL     OW33037   5.868   6.885   4.446 -0.6871 -0.1210 -0.4806
10713SOL    HW133038   5.833   6.802   4.488 -0.9404  0.5492  0.6683
10713SOL    HW233039   5.805   6.916   4.375 -1.5529  0.1029  0.3649
10714SOL     OW33040   2.327   4.783   2.704  0.3573  0.2936 -0.2013
10714SOL    HW133041   2.344   4.691   2.738  0.2926  0.3854  0.0769
10714SOL    HW233042   2.403   4.843   2.728  0.4105  0.3070 -0.4031
10715SOL     OW33043   5.214   1.387   6.854 -0.0712 -0.1948 -0.1314
10715SOL    HW133044   5.221   1.478   6.893 -0.9613 -0.0835 -0.1994
10715SOL    HW233045   5.187   1.322   6.925 -0.4116 -0.2216 -0.2794
10716SOL     OW33046   3.051   4.805   2.921 -0.5725 -0.4377  0.4794
10716SOL    HW133047   3.086   4.841   3.007  0.9213  0.2973 -0.3947
10716SOL    HW233048   2.960   4.764   2.936 -0.9056  0.8012  2.1302
10717SOL     OW33049   4.900   5.866   5.518  0.0297 -0.7544  0.0991
10717SOL    HW133050   4.969   5.937   5.512 -2.0942  1.3106 -2.1553
10717SOL    HW233051   4.863   5.861   5.611 -1.4146  2.8949 -0.1394
10718SOL     OW33052   1.115   0.410   1.716 -0.3319 -0.7404  0.0267
10718SOL    HW133053   1.023   0.378   1.740 -0.3990 -1.2729 -0.8842
10718SOL    HW233054   1.110   0.467   1.634  0.0721 -0.1878  0.3804
10719SOL     OW33055   1.489   2.301   5.287  0.6793  0.0385  0.1931
10719SOL    HW133056   1.496   2.308   5.187  1.2765 -0.4646  0.1969
10719SOL    HW233057   1.514   2.389   5.328 -0.1229  0.4185 -0.1229
10720SOL     OW33058   5.492   1.422   3.826 -0.9507  0.1033 -0.2218
10720SOL    HW133059   5.447   1.343   3.865 -0.4885 -0.7777 -1.4123
10720SOL    HW233060   5.434   1.463   3.756 -0.1906 -0.7036 -1.3660
10721SOL     OW33061   2.570   5.906   2.079 -0.0528  0.6025  0.5031
10721SOL    HW133062   2.491   5.920   2.018  0.5364 -0.4401 -0.5462
10721SOL    HW233063   2.615   5.820   2.055  0.4663  0.3852  2.1609
10722SOL     OW33064   1.273   1.578   3.299 -0.6461 -0.4301  0.3530
10722SOL    HW133065   1.275   1.663   3.353  0.3877  0.3995 -0.9202
10722SOL    HW233066   1.272   1.601   3.201 -0.9482 -1.8940 -0.0056
10723SOL     OW33067   1.021   5.254   2.936  0.0978 -0.1494 -0.2401
10723SOL    HW133068   0.998   5.333   2.880  1.5730 -0.0408 -0.7025
10723SOL    HW233069   1.092   5.279   3.002  0.0537 -0.9060  0.1064
10724SOL     OW33070   4.453   0.083   1.329 -0.5921 -0.8345 -0.2505
10724SOL    HW133071   4.550   0.081   1.352 -0.3409 -3.4779 -1.2419
10724SOL    HW233072   4.428   0.175   1.297  1.0685  0.4203  1.8348
10725SOL     OW33073   0.192   1.398   2.558 -0.0001 -0.0059  0.3076
10725SOL    HW133074   0.134   1.322   2.530 -1.5142  0.0250  3.0682
10725SOL    HW233075   0.136   1.479   2.575  1.2058  0.8360  0.3928
10726SOL     OW33076   3.142   5.953   4.518 -0.5619 -0.0451  0.4943
10726SOL    HW133077   3.068   5.927   4.455 -0.4854  0.1714  0.3133
10726SOL    HW233078   3.166   6.049   4.503 -0.9677  0.1892  1.2754
10727SOL     OW33079   2.458   3.283   5.766 -0.1248 -0.1822 -0.2031
10727SOL    HW133080   2.403   3.312   5.689  1.6047  1.8171 -0.7815
10727SOL    HW233081   2.553   3.311   5.752  0.9070 -2.6119  1.1917
10728SOL     OW33082   5.715   5.851   5.522  0.2522 -0.1431  0.4941
10728SOL    HW133083   5.719   5.911   5.443 -0.3858 -0.2532  0.3699
10728SOL    HW233084   5.723   5.905   5.606  0.9829 -0.0320  0.3583
10729SOL     OW33085   1.119   5.265   3.941  0.0341  0.1336 -0.0773
10729SOL    HW133086   1.178   5.184   3.934 -0.3392 -0.0024 -2.0441
10729SOL    HW233087   1.175   5.347   3.944  0.3642 -0.0899 -0.0388
10730SOL     OW33088   3.109   5.969   5.192 -0.4758 -0.2410 -0.2040
10730SOL    HW133089   3.134   5.881   5.151  1.2129 -0.2901  0.8405
10730SOL    HW233090   3.149   6.043   5.138  0.4346 -0.2454  0.4419
10731SOL     OW33091   0.157   3.630   4.996 -0.0183  0.5311  0.1388
10731SOL    HW133092   0.116   3.543   5.024 -0.3676  0.1080 -1.5412
10731SOL    HW233093   0.119   3.704   5.051 -0.0953 -0.3117  1.2495
10732SOL     OW33094   1.689   6.661   4.376  0.3816 -0.1566 -0.6178
10732SOL    HW133095   1.721   6.572   4.407  2.4877  0.4071 -1.0043
10732SOL    HW233096   1.708   6.672   4.278  2.0620  1.4139 -0.1936
10733SOL     OW33097   6.847   2.138   2.006 -0.1470  0.0129  0.2516
10733SOL    HW133098   6.857   2.073   1.931  2.6146 -1.1905  1.5171
10733SOL    HW233099   6.793   2.097   2.080  0.3254 -0.2859  0.4359
10734SOL     OW33100   3.440   5.762   2.425 -0.2892  0.0559 -0.4383
10734SOL    HW133101   3.431   5.861   2.428 -0.0864  0.0400  1.4067
10734SOL    HW233102   3.448   5.732   2.329 -0.5608  1.7766 -1.0236
10735SOL     OW33103   6.699   3.504   2.086 -0.3935 -0.6319  0.1430
10735SOL    HW133104   6.736   3.428   2.140 -0.8347 -0.9672 -0.0120
10735SOL    HW233105   6.693   3.476   1.990  2.1826  0.6028 -0.4709
10736SOL     OW33106   5.447   1.039   4.993  0.2092 -1.2084 -0.0922
10736SOL    HW133107   5.458   1.006   5.087 -0.8490 -0.5068  0.2912
10736SOL    HW233108   5.494   0.976   4.931  0.4112 -2.0201  0.8452
10737SOL     OW33109   0.854   2.984   2.499  0.0689 -0.7780  0.0637
10737SOL    HW133110   0.933   2.932   2.532 -0.5352 -1.8415 -0.1356
10737SOL    HW233111   0.790   2.999   2.575 -0.6224 -1.9433 -0.2648
10738SOL     OW33112   1.835   4.932   2.684  0.3328  0.3152  0.0002
10738SOL    HW133113   1.922   4.981   2.678  0.8262 -0.5741 -0.1431
10738SOL    HW233114   1.795   4.926   2.592 -0.6816  2.1118  0.2664
10739SOL     OW33115   6.380   4.329   1.705  0.1700  0.6569 -0.6529
10739SOL    HW133116   6.417   4.238   1.688 -1.4193 -0.1604  0.0226
10739SOL    HW233117   6.419   4.366   1.788 -2.4138 -1.4013  1.6820
10740SOL     OW33118   5.754   2.772   2.774  0.3612 -0.1810  0.2557
10740SOL    HW133119   5.728   2.735   2.864  0.8052  2.9354  1.8058
10740SOL    HW233120   5.674   2.812   2.729  0.4512 -0.2344  0.0485
10741SOL     OW33121   5.692   6.923   4.799 -0.2274 -0.8453  0.0928
10741SOL    HW133122   5.736   6.908   4.887 -0.4890 -0.0525  0.3607
10741SOL    HW233123   5.715   7.013   4.764  1.9378 -2.0502 -1.8746
10742SOL     OW33124   4.016   2.231   5.362 -0.1053 -0.0483 -0.2700
10742SOL    HW133125   3.939   2.191   5.411 -0.4575 -0.2281 -0.9524
10742SOL    HW233126   4.005   2.214   5.264  1.2732 -0.8767 -0.3065
10743SOL     OW33127   3.457   1.506   2.648  0.4325  0.1669  0.1237
10743SOL    HW133128   3.504   1.586   2.610  2.2505 -2.0514 -2.7792
10743SOL    HW233129   3.487   1.493   2.743  1.9155  1.5977 -0.0842
10744SOL     OW33130   6.356   2.377   7.012 -0.6189 -0.0979 -0.1784
10744SOL    HW133131   6.272   2.330   6.986  0.0691 -1.6718  0.3185
10744SOL    HW233132   6.432   2.343   6.956  0.2098 -0.8577  1.3575
10745SOL     OW33133   4.479   5.299   0.763  0.1750  0.0790  0.3545
10745SOL    HW133134   4.474   5.399   0.755 -1.8981  0.0826  1.0408
10745SOL    HW233135   4.515   5.276   0.854 -0.3488  0.2277  0.6064
10746SOL     OW33136   4.490   6.137   6.787  0.6405  0.7205  0.0327
10746SOL    HW133137   4.509   6.051   6.739 -0.2953  0.7215 -0.3636
10746SOL    HW233138   4.536   6.137   6.875 -0.1151 -0.6028  0.4468
10747SOL     OW33139   1.106   4.672   5.650 -0.2150  0.4387 -0.1027
10747SOL    HW133140   1.007   4.675   5.637 -0.6942 -1.1488  2.3759
10747SOL    HW233141   1.128   4.598   5.714  2.5407  1.0968 -0.1939
10748SOL     OW33142   6.373   3.960   3.645 -0.8811 -0.1715 -0.1275
10748SOL    HW133143   6.340   3.880   3.695  1.2510 -0.0408  1.6313
10748SOL    HW233144   6.361   4.042   3.701  1.9864 -0.0839  0.5057
10749SOL     OW33145   2.219   4.860   1.012 -0.0257  0.2404  0.5679
10749SOL    HW133146   2.196   4.765   1.033  0.2525  0.0623  0.0862
10749SOL    HW233147   2.289   4.892   1.076  0.9895 -0.3742 -0.2048
10750SOL     OW33148   4.577   0.568   3.917 -0.2775  0.0978  0.2663
10750SOL    HW133149   4.526   0.619   3.987  0.8160  1.0312  0.4229
10750SOL    HW233150   4.568   0.616   3.829 -0.8354 -0.5315 -0.0284
10751SOL     OW33151   1.445   4.461   5.263  0.6999  0.0292  0.5070
10751SOL    HW133152   1.541   4.485   5.248  0.5301  1.1214  1.0254
10751SOL    HW233153   1.424   4.468   5.360 -0.2923  1.3913  0.2236
10752SOL     OW33154   4.381   2.499   0.076  0.2114  1.0541  0.2079
10752SOL    HW133155   4.370   2.537  -0.016  0.3023  0.1032 -0.2046
10752SOL    HW233156   4.337   2.409   0.081  0.9301  0.7249  0.8428
10753SOL     OW33157   1.965   0.575   0.592 -0.0786 -0.0089 -0.2284
10753SOL    HW133158   1.994   0.618   0.506 -0.3333  0.2977 -0.1647
10753SOL    HW233159   1.998   0.481   0.596  0.4906  0.1831 -0.3704
10754SOL     OW33160   1.375   3.832   3.673 -0.5714 -0.7548  0.8162
10754SOL    HW133161   1.364   3.931   3.680 -0.5876 -0.6038 -0.8399
10754SOL    HW233162   1.285   3.791   3.656 -0.5748 -1.0738  1.5767
10755SOL     OW33163   0.434   4.835   0.550  0.2930  0.7314 -0.6602
10755SOL    HW133164   0.488   4.813   0.469 -2.6346  1.0954 -2.8998
10755SOL    HW233165   0.398   4.928   0.541 -1.3468  0.2245  0.2577
10756SOL     OW33166   4.686   4.257   5.097 -0.4711  0.3963 -0.3201
10756SOL    HW133167   4.709   4.272   5.001  0.5817  2.0147  0.1390
10756SOL    HW233168   4.734   4.175   5.130  0.2742  0.6277 -0.8114
10757SOL     OW33169   0.048   3.473   0.117 -0.1294 -0.3282 -0.3183
10757SOL    HW133170   0.080   3.379   0.126  2.2581  0.1942 -2.2033
10757SOL    HW233171   0.106   3.534   0.171 -0.8377  0.2044 -0.1414
10758SOL     OW33172   0.633   3.962   2.606 -0.8611 -0.4606  0.4815
10758SOL    HW133173   0.672   4.051   2.630 -0.7060  0.0716 -1.5868
10758SOL    HW233174   0.659   3.938   2.513 -1.6252 -2.2898  0.7004
10759SOL     OW33175   1.689   1.494   2.888  0.0533  0.3520  0.0720
10759SOL    HW133176   1.653   1.472   2.979 -0.0643  0.9962  0.1908
10759SOL    HW233177   1.786   1.518   2.897  0.1212  0.1128 -0.0201
10760SOL     OW33178   5.384   0.867   4.503  0.1833  0.1340 -0.0791
10760SOL    HW133179   5.424   0.818   4.425 -1.5379 -0.2099 -0.7957
10760SOL    HW233180   5.440   0.947   4.525  0.4120  0.5688 -2.0448
10761SOL     OW33181   6.214   2.645   3.830 -0.4480  0.2196 -0.0668
10761SOL    HW133182   6.182   2.602   3.915 -2.3689 -0.7330 -1.2132
10761SOL    HW233183   6.143   2.639   3.761  1.3849  0.1940 -2.0420
10762SOL     OW33184   5.326   2.307   5.097  0.1934 -0.0036 -0.0221
10762SOL    HW133185   5.302   2.276   5.005  1.8267 -1.9731  0.1537
10762SOL    HW233186   5.403   2.370   5.091  0.8778 -0.8163  0.0221
10763SOL     OW33187   1.141   6.827   6.347  0.0802 -0.1689  0.1235
10763SOL    HW133188   1.140   6.747   6.287  1.5026 -0.0611 -0.0682
10763SOL    HW233189   1.186   6.804   6.433  0.3428  0.3723  0.1338
10764SOL     OW33190   4.979   0.113   6.968 -0.6642 -0.3067 -0.3592
10764SOL    HW133191   4.961   0.109   6.869  0.9140 -1.3585 -0.6383
10764SOL    HW233192   4.963   0.206   7.001 -0.8966  0.1396 -1.6717
10765SOL     OW33193   6.120   4.343   3.910  0.2631 -0.1940  0.5230
10765SOL    HW133194   6.055   4.268   3.919 -0.4719  0.4618  0.8821
10765SOL    HW233195   6.144   4.377   4.001  1.4335 -0.6953  0.4086
10766SOL     OW33196   3.147   2.573   5.560  0.1220  0.2067  0.2650
10766SOL    HW133197   3.051   2.547   5.553  0.2345  0.0866 -0.9784
10766SOL    HW233198   3.161   2.626   5.644 -1.1676  0.8528  0.0910
10767SOL     OW33199   6.873   1.624   5.142  0.6748 -0.3128 -0.2522
10767SOL    HW133200   6.793   1.569   5.165 -0.2283  0.2911 -1.7499
10767SOL    HW233201   6.872   1.709   5.194  0.9925 -0.8031  0.5819
10768SOL     OW33202   1.391   3.320   0.069  0.8339  0.5109  0.1689
10768SOL    HW133203   1.387   3.287  -0.026  0.8423 -2.1580  1.0170
10768SOL    HW233204   1.430   3.249   0.127  2.3831  2.6985  1.9617
10769SOL     OW33205   2.993   1.187   0.292  0.4145 -0.3096 -0.4088
10769SOL    HW133206   2.927   1.259   0.313  0.1729 -0.8609  0.7504
10769SOL    HW233207   2.946   1.099   0.286  0.8576 -0.5218 -0.8492
10770SOL     OW33208   6.528   0.609   4.720 -0.0944  0.3791  0.5890
10770SOL    HW133209   6.530   0.525   4.774 -1.0149  0.1794  0.3358
10770SOL    HW233210   6.619   0.652   4.721  0.3160 -0.4745  0.9371
10771SOL     OW33211   2.813   1.436   0.002 -0.1027  0.2931 -0.4642
10771SOL    HW133212   2.876   1.468   0.072 -0.2538  0.2672 -0.3168
10771SOL    HW233213   2.760   1.513  -0.033 -0.6854  0.1586  0.1095
10772SOL     OW33214   0.242   4.578   0.871  0.4556 -0.1361  0.1491
10772SOL    HW133215   0.282   4.505   0.926  0.5703 -0.5699 -0.4953
10772SOL    HW233216   0.161   4.614   0.917 -0.0183 -1.1528  0.1540
10773SOL     OW33217   2.209   0.958   4.263 -0.4314  0.1482 -0.0227
10773SOL    HW133218   2.153   0.922   4.337 -0.8148  0.7328 -0.0213
10773SOL    HW233219   2.151   1.003   4.195 -0.1482 -1.0065 -1.0535
10774SOL     OW33220   4.003   3.798   4.872 -0.1174  0.3583 -0.5350
10774SOL    HW133221   3.954   3.872   4.825 -0.1210  0.7963  0.1448
10774SOL    HW233222   4.038   3.733   4.805 -0.5244  0.7295 -1.1102
10775SOL     OW33223   3.054   5.163   4.817 -0.5348 -0.7356  0.4956
10775SOL    HW133224   2.988   5.179   4.891 -1.3919 -0.8995 -0.2082
10775SOL    HW233225   3.005   5.128   4.737  0.4743 -1.1989  0.0733
10776SOL     OW33226   0.590   2.578   5.544  0.2692  0.1167  0.5527
10776SOL    HW133227   0.657   2.506   5.526  1.2563  0.7647  1.5192
10776SOL    HW233228   0.518   2.542   5.604 -0.0406 -0.4610 -0.1494
10777SOL     OW33229   1.255   6.971   2.511  0.5302  0.4508 -0.5918
10777SOL    HW133230   1.234   6.989   2.607 -0.2866 -1.1655 -0.4381
10777SOL    HW233231   1.236   7.053   2.457 -1.5861  0.5739  0.2586
10778SOL     OW33232   6.857   3.984   2.682 -0.7238  0.2876 -0.1913
10778SOL    HW133233   6.883   3.926   2.759 -2.1020 -1.9733 -1.3224
10778SOL    HW233234   6.921   3.969   2.606 -0.4274  1.1135 -0.1057
10779SOL     OW33235   4.409   5.547   6.567  0.4439  0.0008  0.6787
10779SOL    HW133236   4.410   5.525   6.665  0.3711 -0.4648  0.5779
10779SOL    HW233237   4.316   5.537   6.532  0.0498  2.1938  1.0028
10780SOL     OW33238   0.979   1.290   5.777 -0.0420  0.5707 -0.5312
10780SOL    HW133239   0.931   1.223   5.833 -0.5571  1.0266 -0.4287
10780SOL    HW233240   1.070   1.306   5.816 -0.6944  1.4973  0.6623
10781SOL     OW33241   5.608   7.025   3.270 -0.2231 -0.1671  0.1579
10781SOL    HW133242   5.634   6.931   3.245 -1.3142 -0.0781 -1.4452
10781SOL    HW233243   5.510   7.028   3.289 -0.4154  0.8321 -0.9028
10782SOL     OW33244   6.902   4.837   1.825  0.2993  0.8744 -0.2128
10782SOL    HW133245   6.871   4.910   1.763 -1.0710  1.0006  0.5744
10782SOL    HW233246   6.930   4.877   1.912  1.3698  0.6157 -0.4256
10783SOL     OW33247   5.433   4.821   3.822  0.5556 -0.4780  0.6732
10783SOL    HW133248   5.513   4.839   3.765  0.2007  0.6689  0.5219
10783SOL    HW233249   5.386   4.739   3.789  1.8504 -1.3903  0.9871
10784SOL     OW33250   4.627   4.250   0.731 -0.5101  0.3480 -0.3750
10784SOL    HW133251   4.660   4.217   0.819 -1.3753  1.4411  0.3768
10784SOL    HW233252   4.677   4.333   0.706 -0.4347  0.1752 -0.8101
10785SOL     OW33253   6.271   6.367   5.501  0.3851  0.6925 -0.1688
10785SOL    HW133254   6.221   6.283   5.521 -0.4083  1.0438 -0.6152
10785SOL    HW233255   6.368   6.346   5.487  0.3190 -0.0439  0.3944
10786SOL     OW33256   3.528   2.693   5.739 -0.0175  0.0639 -0.2525
10786SOL    HW133257   3.593   2.755   5.694 -1.3834  1.6159 -0.1643
10786SOL    HW233258   3.501   2.732   5.827 -1.7388 -0.0900 -0.6869
10787SOL     OW33259   3.451   6.589   0.517 -0.2841 -0.0126 -0.6416
10787SOL    HW133260   3.414   6.643   0.442  1.7437 -1.2100 -2.6215
10787SOL    HW233261   3.482   6.650   0.590  1.4865  1.5347 -2.5808
10788SOL     OW33262   6.656   0.678   6.009 -0.2221  0.1747 -0.0322
10788SOL    HW133263   6.652   0.687   6.108  1.4219  1.6575 -0.0507
10788SOL    HW233264   6.626   0.763   5.966 -0.7878 -0.4034 -0.8213
10789SOL     OW33265   2.626   1.123   1.749 -0.5647 -0.0427 -0.1217
10789SOL    HW133266   2.620   1.046   1.812 -3.1090 -1.3266 -1.7576
10789SOL    HW233267   2.696   1.105   1.680 -0.9543 -0.7856 -0.3323
10790SOL     OW33268   6.592   0.375   4.863 -1.1185 -0.7137  0.6015
10790SOL    HW133269   6.611   0.409   4.955 -0.6659 -1.9524  0.9778
10790SOL    HW233270   6.609   0.277   4.859 -1.1440 -0.6804 -0.8092
10791SOL     OW33271   5.958   5.122   3.946 -0.8896 -0.0497 -0.4461
10791SOL    HW133272   5.905   5.042   3.972 -0.0923 -0.3442  0.3309
10791SOL    HW233273   5.913   5.204   3.982 -0.4276 -0.3595  0.9302
10792SOL     OW33274   4.955   3.883   0.673 -0.3018 -0.0146 -0.6418
10792SOL    HW133275   4.981   3.793   0.637  0.4987  0.7485 -2.0596
10792SOL    HW233276   4.935   3.945   0.597  0.6856  1.4447  0.2440
10793SOL     OW33277   6.456   6.402   0.189 -0.3266 -0.1983  0.2047
10793SOL    HW133278   6.440   6.493   0.229  0.6680 -0.8901  2.3037
10793SOL    HW233279   6.439   6.332   0.258  0.5157 -1.5391 -0.9001
10794SOL     OW33280   4.014   3.597   0.321  0.1355  0.5531  0.1534
10794SOL    HW133281   3.957   3.658   0.266 -0.5363 -0.9110 -0.8274
10794SOL    HW233282   4.031   3.639   0.410 -2.1937  1.1822  0.3537
10795SOL     OW33283   1.170   3.884   6.009  0.0687  0.3057 -0.1026
10795SOL    HW133284   1.217   3.851   6.091 -0.6534 -1.0726 -0.2302
10795SOL    HW233285   1.215   3.848   5.927 -0.0589  0.5490 -0.2824
10796SOL     OW33286   2.192   5.258   4.092  0.2963 -0.4202 -0.1184
10796SOL    HW133287   2.274   5.286   4.141  0.2581  2.1233 -1.3758
10796SOL    HW233288   2.211   5.173   4.042  2.0223 -0.0927 -0.0765
10797SOL     OW33289   0.897   4.198   2.443 -0.1145  0.1588  0.2075
10797SOL    HW133290   0.972   4.259   2.420 -0.3794  0.4817  0.1885
10797SOL    HW233291   0.820   4.216   2.382 -0.4544  0.3103  0.6765
10798SOL     OW33292   1.157   2.610   5.283 -0.0299 -0.0937 -0.1062
10798SOL    HW133293   1.234   2.674   5.286 -1.4643  1.7338 -0.8726
10798SOL    HW233294   1.130   2.593   5.188  0.9485 -2.7074 -0.0029
10799SOL     OW33295   1.269   3.003   1.838 -0.1854 -0.6433 -0.0394
10799SOL    HW133296   1.295   2.907   1.853 -0.5457 -0.9192 -1.0639
10799SOL    HW233297   1.240   3.043   1.925 -0.5410 -1.6275  0.3199
10800SOL     OW33298   0.915   2.814   1.377 -0.2110 -0.1953 -0.7071
10800SOL    HW133299   0.881   2.863   1.297  0.7009  0.0531 -0.9546
10800SOL    HW233300   1.015   2.810   1.374 -0.2259 -1.4111 -0.2978
10801SOL     OW33301   1.017   5.110   0.910  0.2001 -0.6486 -0.4736
10801SOL    HW133302   1.102   5.150   0.876 -0.1931  0.7660  0.0971
10801SOL    HW233303   1.025   5.094   1.009 -0.3646  0.0296 -0.3063
10802SOL     OW33304   4.626   3.400   6.220  0.6937  0.2009  0.2371
10802SOL    HW133305   4.648   3.429   6.126 -1.1990  1.5952  0.1734
10802SOL    HW233306   4.565   3.322   6.217 -0.4827  1.0994  0.2535
10803SOL     OW33307   1.079   0.047   4.106  0.3641 -0.4286 -0.1828
10803SOL    HW133308   1.131  -0.033   4.137  0.8620  0.4944  1.4891
10803SOL    HW233309   1.025   0.083   4.181  0.2683  0.9041 -0.8636
10804SOL     OW33310   4.082   5.571   3.080 -0.0557 -0.6285 -0.0934
10804SOL    HW133311   4.093   5.509   3.002  0.6529 -2.1286  1.1355
10804SOL    HW233312   4.100   5.521   3.164 -1.0712  0.8817  1.0711
10805SOL     OW33313   3.635   1.820   5.133 -0.0675  0.4674 -0.0310
10805SOL    HW133314   3.724   1.817   5.178  0.0893  0.2356 -0.3552
10805SOL    HW233315   3.645   1.859   5.042 -0.0384 -0.9751 -0.6601
10806SOL     OW33316   2.065   5.299   2.628  0.0624 -0.2035  0.4151
10806SOL    HW133317   2.061   5.283   2.726 -1.1961 -0.8577  0.2762
10806SOL    HW233318   2.110   5.221   2.583  0.2512 -0.0999  0.4214
10807SOL     OW33319   3.235   1.670   1.427 -0.3736  1.2939 -0.0462
10807SOL    HW133320   3.185   1.663   1.513  0.9903  1.2748  0.7687
10807SOL    HW233321   3.311   1.735   1.438  0.4977  0.4405 -0.8923
10808SOL     OW33322   6.681   3.254   5.256  0.4079 -0.1077  0.0282
10808SOL    HW133323   6.612   3.206   5.309  0.0030 -0.0510 -0.4346
10808SOL    HW233324   6.681   3.219   5.162 -0.3307  1.1922 -0.4896
10809SOL     OW33325   6.943   3.421   5.901 -0.2470  0.0271 -0.0926
10809SOL    HW133326   6.925   3.433   5.803  0.4068  1.2884 -0.0813
10809SOL    HW233327   6.959   3.324   5.920  0.5231 -0.1348 -1.4131
10810SOL     OW33328   2.950   1.900   4.551  0.5498 -0.2547  0.3422
10810SOL    HW133329   2.976   1.891   4.647  1.5519  1.2215  0.2322
10810SOL    HW233330   3.021   1.950   4.501 -0.4601 -0.0530 -0.9486
10811SOL     OW33331   5.272   0.675   2.108 -0.0903  0.0368 -0.1411
10811SOL    HW133332   5.279   0.611   2.185 -0.7154 -1.0081 -0.9273
10811SOL    HW233333   5.200   0.742   2.127 -0.7313 -0.6440 -0.1003
10812SOL     OW33334   3.433   1.360   6.437  0.0400 -0.5822  0.4818
10812SOL    HW133335   3.530   1.369   6.415 -0.0665  0.6192  0.4270
10812SOL    HW233336   3.396   1.277   6.395 -0.0606  1.2947 -3.5187
10813SOL     OW33337   4.178   0.757   6.240 -0.3041 -0.0606 -0.6125
10813SOL    HW133338   4.238   0.759   6.160  3.0079 -1.3874  1.6435
10813SOL    HW233339   4.136   0.666   6.248  1.2810 -0.7409  0.3784
10814SOL     OW33340   0.637   2.356   0.321 -0.2097 -0.2726 -0.1144
10814SOL    HW133341   0.632   2.437   0.262  1.1130  0.3840  0.6313
10814SOL    HW233342   0.576   2.368   0.399  0.7856  0.5022  0.5584
10815SOL     OW33343   3.346   4.666   5.302  0.1455 -0.5178 -0.2112
10815SOL    HW133344   3.247   4.652   5.309  0.0215  0.1648 -0.4580
10815SOL    HW233345   3.366   4.764   5.305  0.7416 -0.6007 -1.0465
10816SOL     OW33346   5.376   2.966   3.851 -0.1247 -0.5292 -0.3565
10816SOL    HW133347   5.304   3.027   3.817 -1.2458 -2.1291 -0.9723
10816SOL    HW233348   5.355   2.939   3.945  0.3628 -0.0195 -0.0911
10817SOL     OW33349   0.933   3.742   2.671  0.1574  0.1374  0.1941
10817SOL    HW133350   0.927   3.842   2.670  1.4608  0.3538  3.2437
10817SOL    HW233351   0.872   3.706   2.741 -0.8018 -1.3320 -1.3152
10818SOL     OW33352   0.969   1.056   1.416  0.2923 -0.1395 -0.0449
10818SOL    HW133353   0.905   1.055   1.339  0.9545  0.1633 -0.6060
10818SOL    HW233354   1.008   1.147   1.427  1.1743 -0.4937 -0.1630
10819SOL     OW33355   0.321   5.108   0.532  0.0851 -0.5974  0.6914
10819SOL    HW133356   0.307   5.080   0.627 -0.5452 -0.5726  0.6103
10819SOL    HW233357   0.315   5.207   0.525  0.7838 -0.5486  0.7282
10820SOL     OW33358   6.126   3.145   5.156 -0.5393 -0.2465 -0.1171
10820SOL    HW133359   6.144   3.134   5.059 -0.7879 -2.5005  0.0451
10820SOL    HW233360   6.130   3.242   5.180 -1.3697  0.4374 -2.5155
10821SOL     OW33361   1.656   3.929   1.902  0.2821 -0.1829 -0.0168
10821SOL    HW133362   1.586   3.902   1.835 -0.5600 -0.0931  0.8084
10821SOL    HW233363   1.724   3.855   1.911 -0.2108 -0.6591 -0.1533
10822SOL     OW33364   2.409   1.629   1.415  0.1788  0.1473  0.2585
10822SOL    HW133365   2.430   1.542   1.458 -0.1490 -0.5632 -0.9774
10822SOL    HW233366   2.364   1.690   1.481 -1.5747 -1.3939  0.5562
10823SOL     OW33367   1.009   0.807   6.544 -0.9680  0.3931 -0.2849
10823SOL    HW133368   0.921   0.825   6.500 -0.5073 -0.2383 -1.5238
10823SOL    HW233369   1.017   0.709   6.562 -0.7232  0.5150  0.2951
10824SOL     OW33370   5.264   2.193   3.070 -0.2203 -0.3009  0.1883
10824SOL    HW133371   5.203   2.273   3.070  0.0986 -0.0527  0.8372
10824SOL    HW233372   5.252   2.143   2.984 -0.7542  0.1893 -0.0360
10825SOL     OW33373   3.625   1.603   0.015  0.3592  0.0103 -0.2037
10825SOL    HW133374   3.589   1.666  -0.055  2.6178 -0.5961 -2.0506
10825SOL    HW233375   3.679   1.532  -0.030 -2.8116 -3.9719  1.6421
10826SOL     OW33376   4.799   0.876   6.731  0.0825  0.1526 -0.0297
10826SOL    HW133377   4.871   0.941   6.708 -0.7169  1.0639 -0.0301
10826SOL    HW233378   4.714   0.903   6.686 -0.5187 -0.3170  0.7946
10827SOL     OW33379   0.870   2.830   3.528 -0.7912 -0.2376  0.3003
10827SOL    HW133380   0.957   2.863   3.491 -0.8681 -0.4242 -0.0488
10827SOL    HW233381   0.810   2.908   3.544 -0.7904 -0.1623 -0.0537
10828SOL     OW33382   5.235   1.790   1.604  0.2500  0.4275 -0.3272
10828SOL    HW133383   5.276   1.840   1.529 -0.5250  0.5322 -0.6956
10828SOL    HW233384   5.167   1.725   1.568 -0.0113  0.3638  0.2611
10829SOL     OW33385   3.485   3.284   2.528 -0.3988  0.1055 -0.1146
10829SOL    HW133386   3.519   3.204   2.479 -2.2130  1.0720 -3.1915
10829SOL    HW233387   3.388   3.270   2.550 -0.3141  0.8387  0.7820
10830SOL     OW33388   3.065   1.521   0.167 -0.3162 -0.2701  0.1161
10830SOL    HW133389   3.162   1.503   0.155 -0.2659  0.5938 -0.9099
10830SOL    HW233390   3.052   1.615   0.198 -0.7946 -0.6275  1.0533
10831SOL     OW33391   0.701   4.595   2.620  0.2894  0.3419  0.3215
10831SOL    HW133392   0.625   4.660   2.626  0.9275  1.2546 -1.0738
10831SOL    HW233393   0.678   4.522   2.557  1.5574  2.1496 -2.4340
10832SOL     OW33394   2.798   0.029   1.772 -0.2258 -0.3206 -0.4351
10832SOL    HW133395   2.838   0.019   1.863 -0.9407 -1.5718 -0.2370
10832SOL    HW233396   2.837  -0.040   1.711 -0.3877 -0.0449 -0.8516
10833SOL     OW33397   4.281   6.127   0.294 -0.3444  0.4471 -0.4389
10833SOL    HW133398   4.222   6.079   0.229 -0.4663  0.8284 -0.6151
10833SOL    HW233399   4.377   6.108   0.272 -0.4044 -0.3527 -0.0130
10834SOL     OW33400   3.706   1.344   3.064 -0.2291  0.7443 -0.4200
10834SOL    HW133401   3.634   1.322   2.998  1.8781  0.6621 -2.8214
10834SOL    HW233402   3.783   1.385   3.016  1.4597  0.5892  2.0309
10835SOL     OW33403   4.423   5.386   5.196 -0.2542  0.1751 -0.5133
10835SOL    HW133404   4.355   5.457   5.213 -0.5052  0.5196 -2.5771
10835SOL    HW233405   4.391   5.298   5.233 -1.7952  0.3583 -1.3299
10836SOL     OW33406   4.570   1.179   4.340 -0.0301 -0.0882 -0.4582
10836SOL    HW133407   4.623   1.170   4.424  0.3860 -2.6219 -0.9104
10836SOL    HW233408   4.632   1.193   4.263 -0.2830  0.3233 -0.5936
10837SOL     OW33409   2.034   2.931   3.413  0.2218 -0.5450 -0.0355
10837SOL    HW133410   2.103   3.003   3.411  1.0726 -1.3485 -1.0861
10837SOL    HW233411   2.015   2.901   3.319 -2.9069  0.8719  0.0312
10838SOL     OW33412   1.588   7.004   3.249  0.0700 -0.0424 -0.0255
10838SOL    HW133413   1.603   6.906   3.234  1.1708 -0.0701  1.0816
10838SOL    HW233414   1.522   7.038   3.182  0.9361 -1.1724 -1.5258
10839SOL     OW33415   1.716   3.453   0.469  0.3055  0.1572 -0.2742
10839SOL    HW133416   1.742   3.386   0.539 -1.5613 -0.9377 -0.5732
10839SOL    HW233417   1.635   3.503   0.500 -1.3632 -1.2463 -2.0970
10840SOL     OW33418   6.083   4.840   4.200 -0.2702 -0.5441  0.0467
10840SOL    HW133419   6.026   4.876   4.274  0.8020  0.0641  0.6161
10840SOL    HW233420   6.111   4.915   4.140  0.4026 -0.7240  0.1206
10841SOL     OW33421   1.309   6.256   3.347  0.1893  0.5913 -0.2122
10841SOL    HW133422   1.227   6.313   3.338  0.6289  1.2524 -0.0878
10841SOL    HW233423   1.282   6.160   3.360 -0.5838  0.9619  0.9990
10842SOL     OW33424   1.627   1.117   1.393 -0.2647 -0.1058  0.4053
10842SOL    HW133425   1.571   1.098   1.313  0.3836 -0.8792  0.1280
10842SOL    HW233426   1.568   1.132   1.473 -0.8767 -0.2904 -0.0100
10843SOL     OW33427   4.492   0.675   5.185  0.1078  0.0214  0.1062
10843SOL    HW133428   4.459   0.725   5.264 -0.6328 -1.1239  0.5442
10843SOL    HW233429   4.486   0.733   5.104  1.1549  1.3073  0.9093
10844SOL     OW33430   3.755   6.114   4.464  1.2553  0.7336 -0.5658
10844SOL    HW133431   3.663   6.083   4.439  2.2912 -1.0555 -2.4637
10844SOL    HW233432   3.765   6.111   4.564 -0.2467 -0.5186 -0.4183
10845SOL     OW33433   0.345   2.190   1.140 -0.6768 -0.3534 -0.4190
10845SOL    HW133434   0.296   2.104   1.130  0.9619 -1.3796  0.1134
10845SOL    HW233435   0.439   2.179   1.109  0.1035  0.6921  1.4535
10846SOL     OW33436   2.363   2.721   0.593  0.0087 -0.4364 -0.1591
10846SOL    HW133437   2.441   2.783   0.595 -0.5857  0.3574 -0.7639
10846SOL    HW233438   2.393   2.629   0.569  0.9995 -0.5485  1.4054
10847SOL     OW33439   4.247   4.570   6.433  0.1947 -0.3489 -1.2669
10847SOL    HW133440   4.257   4.472   6.417  0.7474 -0.4480 -0.3676
10847SOL    HW233441   4.187   4.585   6.512  2.6084 -0.0979  0.6444
10848SOL     OW33442   3.600   5.578   3.130  0.1259  0.5920 -0.5073
10848SOL    HW133443   3.687   5.607   3.168 -0.2496  0.0839  0.7827
10848SOL    HW233444   3.525   5.611   3.187 -0.3438 -2.4872  0.8610
10849SOL     OW33445   1.735   4.631   4.210 -0.2981 -0.3168 -0.1074
10849SOL    HW133446   1.748   4.684   4.294 -1.5130 -0.1144 -0.0233
10849SOL    HW233447   1.790   4.548   4.213  1.8927  1.0393 -0.3691
10850SOL     OW33448   6.232   1.006   3.680  0.4284  0.0147 -0.0449
10850SOL    HW133449   6.263   0.911   3.673  2.0991  0.5865 -1.0284
10850SOL    HW233450   6.134   1.011   3.660  0.2366 -1.5266  0.3699
10851SOL     OW33451   3.347   3.413   6.641  0.2979  0.0801 -0.1376
10851SOL    HW133452   3.270   3.475   6.630 -0.8153 -1.5336 -2.1580
10851SOL    HW233453   3.433   3.464   6.637 -0.6028  1.8869  1.9503
10852SOL     OW33454   2.687   6.467   0.282 -0.0859  0.2337  0.7108
10852SOL    HW133455   2.681   6.447   0.380  1.0735  2.1363  1.2110
10852SOL    HW233456   2.782   6.462   0.252 -0.4301 -0.3782 -0.3636
10853SOL     OW33457   7.007   4.480   6.502 -0.4652  0.4174  0.0687
10853SOL    HW133458   7.048   4.389   6.511 -1.0917 -0.0481 -1.4655
10853SOL    HW233459   6.965   4.506   6.588 -1.7719 -1.5128  0.0849
10854SOL     OW33460   2.119   4.325   2.276 -0.1553  0.0686 -0.2872
10854SOL    HW133461   2.049   4.354   2.341 -0.7038 -0.0214 -0.8197
10854SOL    HW233462   2.075   4.272   2.203  0.5191 -0.2521 -0.4635
10855SOL     OW33463   0.507   6.659   2.359  0.0539 -0.2144 -0.3172
10855SOL    HW133464   0.479   6.563   2.367 -1.5209  0.2795  0.4860
10855SOL    HW233465   0.498   6.688   2.264  0.6499 -0.8842 -0.5893
10856SOL     OW33466   3.486   2.661   6.972  0.8111 -0.3999 -0.2377
10856SOL    HW133467   3.442   2.718   6.903  0.0051 -0.1629  0.4557
10856SOL    HW233468   3.580   2.642   6.944  1.0875  1.2177 -0.5126
10857SOL     OW33469   1.358   0.480   4.418 -0.4401 -0.5650 -0.3359
10857SOL    HW133470   1.260   0.495   4.434 -0.1623 -0.1296  1.0860
10857SOL    HW233471   1.401   0.567   4.394 -0.0914 -0.3970  0.8521
10858SOL     OW33472   4.305   0.926   6.549  0.6507  0.0807  0.2145
10858SOL    HW133473   4.273   1.008   6.597 -0.9422 -0.3227 -0.1006
10858SOL    HW233474   4.286   0.845   6.605  0.2323 -0.2542 -0.3995
10859SOL     OW33475   5.830   5.946   0.921  0.6781  0.1223  0.0963
10859SOL    HW133476   5.810   5.990   0.833  1.6565  1.9997  0.7624
10859SOL    HW233477   5.897   6.000   0.971  0.0428 -0.8227  2.0807
10860SOL     OW33478   4.301   2.303   4.519  0.3396 -0.4061 -0.2146
10860SOL    HW133479   4.350   2.216   4.522 -0.3801 -0.7948  0.6225
10860SOL    HW233480   4.263   2.323   4.609  0.8147  0.9657 -0.3096
10861SOL     OW33481   3.756   4.938   3.313  0.5744  0.0773 -0.0690
10861SOL    HW133482   3.698   4.907   3.237  0.9995  0.4568 -0.5646
10861SOL    HW233483   3.769   5.037   3.304 -0.9231  0.4769  1.5794
10862SOL     OW33484   6.733   4.876   2.120  0.7917  0.0533  0.2925
10862SOL    HW133485   6.714   4.861   2.216  0.1175  1.1632  0.3558
10862SOL    HW233486   6.690   4.805   2.065 -1.2013  0.9112  0.6425
10863SOL     OW33487   2.578   5.452   5.217 -0.2812 -0.4357 -0.0044
10863SOL    HW133488   2.485   5.420   5.236 -0.1236 -0.5675  0.5590
10863SOL    HW233489   2.590   5.464   5.118 -1.1234  0.2779 -0.0243
10864SOL     OW33490   3.113   5.720   3.722 -0.3689 -0.5036 -0.2285
10864SOL    HW133491   3.206   5.684   3.725 -0.3332 -0.5684 -1.5838
10864SOL    HW233492   3.052   5.660   3.773  0.1824 -0.9358 -0.0689
10865SOL     OW33493   4.181   4.686   6.183 -0.2535  0.1771  0.3321
10865SOL    HW133494   4.104   4.623   6.171 -0.7421  0.6672  0.8281
10865SOL    HW233495   4.245   4.647   6.249  0.3204 -0.5820 -0.6464
10866SOL     OW33496   4.145   4.074   1.409  0.3414 -0.0067  0.4989
10866SOL    HW133497   4.166   4.056   1.505 -1.1948 -0.6692  0.7456
10866SOL    HW233498   4.048   4.056   1.392  0.8093 -1.0053 -1.4440
10867SOL     OW33499   2.817   2.092   0.773  0.4939 -0.4060  0.2998
10867SOL    HW133500   2.902   2.112   0.821 -0.2347 -0.2048  1.5654
10867SOL    HW233501   2.780   2.176   0.735  0.8045 -0.4753 -0.1565
10868SOL     OW33502   3.510   3.945   6.800 -0.0525 -0.5776 -1.0784
10868SOL    HW133503   3.590   3.912   6.750  0.0642 -0.5461 -0.9129
10868SOL    HW233504   3.430   3.889   6.776  0.2653 -1.3682 -0.3431
10869NA      NA33505   6.398   2.007   4.269 -0.1910  0.5088 -0.1050
10870NA      NA33506   4.526   4.425   5.169 -0.2099  0.2949 -0.0986
10871NA      NA33507   3.536   3.538   0.679 -0.1136 -0.3077  0.3727
10872NA      NA33508   5.579   6.719   4.767  0.0792  0.3411  0.2675
10873NA      NA33509   1.850   1.949   5.176 -0.1060 -0.6161  0.2535
10874NA      NA33510   3.964   0.213   0.790 -0.4564  0.4635 -0.1128
10875NA      NA33511   0.821   5.856   0.225  0.2888 -0.6554  0.3088
10876NA      NA33512   3.010   4.749   1.580  0.2263  0.1276  0.0717
10877NA      NA33513   4.862   3.235   0.881  0.7698  0.0820 -0.2292
10878NA      NA33514   5.976   0.330   6.628 -0.2284 -0.5306  0.1796
10879NA      NA33515   3.954   5.902   3.227  0.3598  0.7318 -0.1035
10880NA      NA33516   0.170   3.982   0.535  0.3720 -0.1253 -0.0336
10881NA      NA33517   4.202   4.616   1.264  0.3219 -0.1526 -0.4074
10882NA      NA33518   0.258   5.473   5.343  0.2925 -0.4442 -0.0110
   7.02605   7.02605   7.02605
